<event>
 4    1  0.7580225E-002  0.6000000E+02  0.7546771E-02  0.1259629E+00
         11   -1    0    0    0    0  0.00000000000E+00  0.00000000000E+00  0.30000000000E+02  0.30000000000E+02  0.00000000000E+00 0. -1.
        -11   -1    0    0    0    0 -0.00000000000E+00 -0.00000000000E+00 -0.30000000000E+02  0.30000000000E+02  0.00000000000E+00 0.  1.
          5    1    1    2  501    0 -0.11261924142E+02 -0.57988823451E+01 -0.26785294999E+02  0.30000000000E+02  0.47000000000E+01 0.  1.
         -5    1    1    2    0  501  0.11261924142E+02  0.57988823451E+01  0.26785294999E+02  0.30000000000E+02  0.47000000000E+01 0. -1.
</event>
<event>
 4    1  0.7580225E-002  0.6000000E+02  0.7546771E-02  0.1259629E+00
         11   -1    0    0    0    0  0.00000000000E+00  0.00000000000E+00  0.30000000000E+02  0.30000000000E+02  0.00000000000E+00 0.  1.
        -11   -1    0    0    0    0 -0.00000000000E+00 -0.00000000000E+00 -0.30000000000E+02  0.30000000000E+02  0.00000000000E+00 0. -1.
          5    1    1    2  501    0 -0.28976865877E+01  0.29394966337E+01 -0.29340633462E+02  0.30000000000E+02  0.47000000000E+01 0. -1.
         -5    1    1    2    0  501  0.28976865877E+01 -0.29394966337E+01  0.29340633462E+02  0.30000000000E+02  0.47000000000E+01 0.  1.
</event>
<event>
 4    1  0.7580225E-002  0.6000000E+02  0.7546771E-02  0.1259629E+00
         11   -1    0    0    0    0  0.00000000000E+00  0.00000000000E+00  0.30000000000E+02  0.30000000000E+02  0.00000000000E+00 0. -1.
        -11   -1    0    0    0    0 -0.00000000000E+00 -0.00000000000E+00 -0.30000000000E+02  0.30000000000E+02  0.00000000000E+00 0.  1.
          5    1    1    2  501    0  0.13201843791E+02  0.21053823331E+02 -0.16135607943E+02  0.30000000000E+02  0.47000000000E+01 0.  1.
         -5    1    1    2    0  501 -0.13201843791E+02 -0.21053823331E+02  0.16135607943E+02  0.30000000000E+02  0.47000000000E+01 0. -1.
</event>
<event>
 4    1  0.7580225E-002  0.6000000E+02  0.7546771E-02  0.1259629E+00
         11   -1    0    0    0    0  0.00000000000E+00  0.00000000000E+00  0.30000000000E+02  0.30000000000E+02  0.00000000000E+00 0.  1.
        -11   -1    0    0    0    0 -0.00000000000E+00 -0.00000000000E+00 -0.30000000000E+02  0.30000000000E+02  0.00000000000E+00 0. -1.
          5    1    1    2  501    0 -0.15069592021E+02  0.66002162363E+01  0.24642535218E+02  0.30000000000E+02  0.47000000000E+01 0.  1.
         -5    1    1    2    0  501  0.15069592021E+02 -0.66002162363E+01 -0.24642535218E+02  0.30000000000E+02  0.47000000000E+01 0. -1.
</event>
<event>
 4    1  0.7580225E-002  0.6000000E+02  0.7546771E-02  0.1259629E+00
         11   -1    0    0    0    0  0.00000000000E+00  0.00000000000E+00  0.30000000000E+02  0.30000000000E+02  0.00000000000E+00 0.  1.
        -11   -1    0    0    0    0 -0.00000000000E+00 -0.00000000000E+00 -0.30000000000E+02  0.30000000000E+02  0.00000000000E+00 0. -1.
          5    1    1    2  501    0  0.13223075447E+02  0.26129907524E+02  0.45042433931E+01  0.30000000000E+02  0.47000000000E+01 0. -1.
         -5    1    1    2    0  501 -0.13223075447E+02 -0.26129907524E+02 -0.45042433931E+01  0.30000000000E+02  0.47000000000E+01 0.  1.
</event>
<event>
 4    1  0.7580225E-002  0.6000000E+02  0.7546771E-02  0.1259629E+00
         11   -1    0    0    0    0  0.00000000000E+00  0.00000000000E+00  0.30000000000E+02  0.30000000000E+02  0.00000000000E+00 0.  1.
        -11   -1    0    0    0    0 -0.00000000000E+00 -0.00000000000E+00 -0.30000000000E+02  0.30000000000E+02  0.00000000000E+00 0. -1.
          5    1    1    2  501    0  0.99138224417E+01  0.11547214334E+02 -0.25422194353E+02  0.30000000000E+02  0.47000000000E+01 0. -1.
         -5    1    1    2    0  501 -0.99138224417E+01 -0.11547214334E+02  0.25422194353E+02  0.30000000000E+02  0.47000000000E+01 0.  1.
</event>
<event>
 4    1  0.7580225E-002  0.6000000E+02  0.7546771E-02  0.1259629E+00
         11   -1    0    0    0    0  0.00000000000E+00  0.00000000000E+00  0.30000000000E+02  0.30000000000E+02  0.00000000000E+00 0.  1.
        -11   -1    0    0    0    0 -0.00000000000E+00 -0.00000000000E+00 -0.30000000000E+02  0.30000000000E+02  0.00000000000E+00 0. -1.
          5    1    1    2  501    0  0.39535767784E+01 -0.27894335898E+02 -0.91752523389E+01  0.30000000000E+02  0.47000000000E+01 0. -1.
         -5    1    1    2    0  501 -0.39535767784E+01  0.27894335898E+02  0.91752523389E+01  0.30000000000E+02  0.47000000000E+01 0.  1.
</event>
<event>
 4    1  0.7580225E-002  0.6000000E+02  0.7546771E-02  0.1259629E+00
         11   -1    0    0    0    0  0.00000000000E+00  0.00000000000E+00  0.30000000000E+02  0.30000000000E+02  0.00000000000E+00 0. -1.
        -11   -1    0    0    0    0 -0.00000000000E+00 -0.00000000000E+00 -0.30000000000E+02  0.30000000000E+02  0.00000000000E+00 0.  1.
          5    1    1    2  501    0 -0.11904747010E+02 -0.26579170584E+02 -0.54529523840E+01  0.30000000000E+02  0.47000000000E+01 0.  1.
         -5    1    1    2    0  501  0.11904747010E+02  0.26579170584E+02  0.54529523840E+01  0.30000000000E+02  0.47000000000E+01 0. -1.
</event>
<event>
 4    1  0.7580225E-002  0.6000000E+02  0.7546771E-02  0.1259629E+00
         11   -1    0    0    0    0  0.00000000000E+00  0.00000000000E+00  0.30000000000E+02  0.30000000000E+02  0.00000000000E+00 0.  1.
        -11   -1    0    0    0    0 -0.00000000000E+00 -0.00000000000E+00 -0.30000000000E+02  0.30000000000E+02  0.00000000000E+00 0. -1.
          5    1    1    2  501    0 -0.20663186640E+01 -0.23408968419E+02 -0.18046066738E+02  0.30000000000E+02  0.47000000000E+01 0. -1.
         -5    1    1    2    0  501  0.20663186640E+01  0.23408968419E+02  0.18046066738E+02  0.30000000000E+02  0.47000000000E+01 0.  1.
</event>
<event>
 4    1  0.7580225E-002  0.6000000E+02  0.7546771E-02  0.1259629E+00
         11   -1    0    0    0    0  0.00000000000E+00  0.00000000000E+00  0.30000000000E+02  0.30000000000E+02  0.00000000000E+00 0.  1.
        -11   -1    0    0    0    0 -0.00000000000E+00 -0.00000000000E+00 -0.30000000000E+02  0.30000000000E+02  0.00000000000E+00 0. -1.
          5    1    1    2  501    0 -0.43637296910E+01  0.26748997768E+02 -0.11973261109E+02  0.30000000000E+02  0.47000000000E+01 0. -1.
         -5    1    1    2    0  501  0.43637296910E+01 -0.26748997768E+02  0.11973261109E+02  0.30000000000E+02  0.47000000000E+01 0.  1.
</event>
<event>
 4    1  0.7580225E-002  0.6000000E+02  0.7546771E-02  0.1259629E+00
         11   -1    0    0    0    0  0.00000000000E+00  0.00000000000E+00  0.30000000000E+02  0.30000000000E+02  0.00000000000E+00 0.  1.
        -11   -1    0    0    0    0 -0.00000000000E+00 -0.00000000000E+00 -0.30000000000E+02  0.30000000000E+02  0.00000000000E+00 0. -1.
          5    1    1    2  501    0  0.32157435523E+01 -0.24314245641E+02 -0.16624874505E+02  0.30000000000E+02  0.47000000000E+01 0. -1.
         -5    1    1    2    0  501 -0.32157435523E+01  0.24314245641E+02  0.16624874505E+02  0.30000000000E+02  0.47000000000E+01 0.  1.
</event>
<event>
 4    1  0.7580225E-002  0.6000000E+02  0.7546771E-02  0.1259629E+00
         11   -1    0    0    0    0  0.00000000000E+00  0.00000000000E+00  0.30000000000E+02  0.30000000000E+02  0.00000000000E+00 0.  1.
        -11   -1    0    0    0    0 -0.00000000000E+00 -0.00000000000E+00 -0.30000000000E+02  0.30000000000E+02  0.00000000000E+00 0. -1.
          5    1    1    2  501    0 -0.54437153408E+01  0.28167396972E+02  0.74076791988E+01  0.30000000000E+02  0.47000000000E+01 0. -1.
         -5    1    1    2    0  501  0.54437153408E+01 -0.28167396972E+02 -0.74076791988E+01  0.30000000000E+02  0.47000000000E+01 0.  1.
</event>
<event>
 4    1  0.7580225E-002  0.6000000E+02  0.7546771E-02  0.1259629E+00
         11   -1    0    0    0    0  0.00000000000E+00  0.00000000000E+00  0.30000000000E+02  0.30000000000E+02  0.00000000000E+00 0.  1.
        -11   -1    0    0    0    0 -0.00000000000E+00 -0.00000000000E+00 -0.30000000000E+02  0.30000000000E+02  0.00000000000E+00 0. -1.
          5    1    1    2  501    0  0.28735715187E+02  0.15288358834E+01 -0.70591312159E+01  0.30000000000E+02  0.47000000000E+01 0. -1.
         -5    1    1    2    0  501 -0.28735715187E+02 -0.15288358834E+01  0.70591312159E+01  0.30000000000E+02  0.47000000000E+01 0.  1.
</event>
<event>
 4    1  0.7580225E-002  0.6000000E+02  0.7546771E-02  0.1259629E+00
         11   -1    0    0    0    0  0.00000000000E+00  0.00000000000E+00  0.30000000000E+02  0.30000000000E+02  0.00000000000E+00 0.  1.
        -11   -1    0    0    0    0 -0.00000000000E+00 -0.00000000000E+00 -0.30000000000E+02  0.30000000000E+02  0.00000000000E+00 0. -1.
          5    1    1    2  501    0  0.27167066517E+02 -0.88847213193E+01  0.78052689849E+01  0.30000000000E+02  0.47000000000E+01 0. -1.
         -5    1    1    2    0  501 -0.27167066517E+02  0.88847213193E+01 -0.78052689849E+01  0.30000000000E+02  0.47000000000E+01 0.  1.
</event>
<event>
 4    1  0.7580225E-002  0.6000000E+02  0.7546771E-02  0.1259629E+00
         11   -1    0    0    0    0  0.00000000000E+00  0.00000000000E+00  0.30000000000E+02  0.30000000000E+02  0.00000000000E+00 0.  1.
        -11   -1    0    0    0    0 -0.00000000000E+00 -0.00000000000E+00 -0.30000000000E+02  0.30000000000E+02  0.00000000000E+00 0. -1.
          5    1    1    2  501    0  0.13151161271E+02  0.25323630654E+02 -0.79793914397E+01  0.30000000000E+02  0.47000000000E+01 0. -1.
         -5    1    1    2    0  501 -0.13151161271E+02 -0.25323630654E+02  0.79793914397E+01  0.30000000000E+02  0.47000000000E+01 0.  1.
</event>
<event>
 4    1  0.7580225E-002  0.6000000E+02  0.7546771E-02  0.1259629E+00
         11   -1    0    0    0    0  0.00000000000E+00  0.00000000000E+00  0.30000000000E+02  0.30000000000E+02  0.00000000000E+00 0. -1.
        -11   -1    0    0    0    0 -0.00000000000E+00 -0.00000000000E+00 -0.30000000000E+02  0.30000000000E+02  0.00000000000E+00 0.  1.
          5    1    1    2  501    0 -0.83627675324E+01 -0.13677598917E+02  0.24917813047E+02  0.30000000000E+02  0.47000000000E+01 0. -1.
         -5    1    1    2    0  501  0.83627675324E+01  0.13677598917E+02 -0.24917813047E+02  0.30000000000E+02  0.47000000000E+01 0.  1.
</event>
<event>
 4    1  0.7580225E-002  0.6000000E+02  0.7546771E-02  0.1259629E+00
         11   -1    0    0    0    0  0.00000000000E+00  0.00000000000E+00  0.30000000000E+02  0.30000000000E+02  0.00000000000E+00 0. -1.
        -11   -1    0    0    0    0 -0.00000000000E+00 -0.00000000000E+00 -0.30000000000E+02  0.30000000000E+02  0.00000000000E+00 0.  1.
          5    1    1    2  501    0  0.13500363999E+02 -0.59661166606E+01 -0.25691547713E+02  0.30000000000E+02  0.47000000000E+01 0.  1.
         -5    1    1    2    0  501 -0.13500363999E+02  0.59661166606E+01  0.25691547713E+02  0.30000000000E+02  0.47000000000E+01 0. -1.
</event>
<event>
 4    1  0.7580225E-002  0.6000000E+02  0.7546771E-02  0.1259629E+00
         11   -1    0    0    0    0  0.00000000000E+00  0.00000000000E+00  0.30000000000E+02  0.30000000000E+02  0.00000000000E+00 0. -1.
        -11   -1    0    0    0    0 -0.00000000000E+00 -0.00000000000E+00 -0.30000000000E+02  0.30000000000E+02  0.00000000000E+00 0.  1.
          5    1    1    2  501    0  0.38552003405E+01 -0.12997418821E+02 -0.26346053487E+02  0.30000000000E+02  0.47000000000E+01 0.  1.
         -5    1    1    2    0  501 -0.38552003405E+01  0.12997418821E+02  0.26346053487E+02  0.30000000000E+02  0.47000000000E+01 0. -1.
</event>
<event>
 4    1  0.7580225E-002  0.6000000E+02  0.7546771E-02  0.1259629E+00
         11   -1    0    0    0    0  0.00000000000E+00  0.00000000000E+00  0.30000000000E+02  0.30000000000E+02  0.00000000000E+00 0.  1.
        -11   -1    0    0    0    0 -0.00000000000E+00 -0.00000000000E+00 -0.30000000000E+02  0.30000000000E+02  0.00000000000E+00 0. -1.
          5    1    1    2  501    0 -0.14118356111E+02 -0.24369738319E+02 -0.92031448417E+01  0.30000000000E+02  0.47000000000E+01 0. -1.
         -5    1    1    2    0  501  0.14118356111E+02  0.24369738319E+02  0.92031448417E+01  0.30000000000E+02  0.47000000000E+01 0.  1.
</event>
<event>
 4    1  0.7580225E-002  0.6000000E+02  0.7546771E-02  0.1259629E+00
         11   -1    0    0    0    0  0.00000000000E+00  0.00000000000E+00  0.30000000000E+02  0.30000000000E+02  0.00000000000E+00 0.  1.
        -11   -1    0    0    0    0 -0.00000000000E+00 -0.00000000000E+00 -0.30000000000E+02  0.30000000000E+02  0.00000000000E+00 0. -1.
          5    1    1    2  501    0  0.15716757454E+02  0.46501431375E+01 -0.24683389231E+02  0.30000000000E+02  0.47000000000E+01 0. -1.
         -5    1    1    2    0  501 -0.15716757454E+02 -0.46501431375E+01  0.24683389231E+02  0.30000000000E+02  0.47000000000E+01 0.  1.
</event>
<event>
 4    1  0.7580225E-002  0.6000000E+02  0.7546771E-02  0.1259629E+00
         11   -1    0    0    0    0  0.00000000000E+00  0.00000000000E+00  0.30000000000E+02  0.30000000000E+02  0.00000000000E+00 0.  1.
        -11   -1    0    0    0    0 -0.00000000000E+00 -0.00000000000E+00 -0.30000000000E+02  0.30000000000E+02  0.00000000000E+00 0. -1.
          5    1    1    2  501    0 -0.25691792371E+01 -0.15058675394E+02 -0.25387902896E+02  0.30000000000E+02  0.47000000000E+01 0. -1.
         -5    1    1    2    0  501  0.25691792371E+01  0.15058675394E+02  0.25387902896E+02  0.30000000000E+02  0.47000000000E+01 0.  1.
</event>
<event>
 4    1  0.7580225E-002  0.6000000E+02  0.7546771E-02  0.1259629E+00
         11   -1    0    0    0    0  0.00000000000E+00  0.00000000000E+00  0.30000000000E+02  0.30000000000E+02  0.00000000000E+00 0.  1.
        -11   -1    0    0    0    0 -0.00000000000E+00 -0.00000000000E+00 -0.30000000000E+02  0.30000000000E+02  0.00000000000E+00 0. -1.
          5    1    1    2  501    0 -0.11948687219E+02 -0.10606052858E+02 -0.24952966086E+02  0.30000000000E+02  0.47000000000E+01 0. -1.
         -5    1    1    2    0  501  0.11948687219E+02  0.10606052858E+02  0.24952966086E+02  0.30000000000E+02  0.47000000000E+01 0.  1.
</event>
<event>
 4    1  0.7580225E-002  0.6000000E+02  0.7546771E-02  0.1259629E+00
         11   -1    0    0    0    0  0.00000000000E+00  0.00000000000E+00  0.30000000000E+02  0.30000000000E+02  0.00000000000E+00 0.  1.
        -11   -1    0    0    0    0 -0.00000000000E+00 -0.00000000000E+00 -0.30000000000E+02  0.30000000000E+02  0.00000000000E+00 0. -1.
          5    1    1    2  501    0  0.14251291959E+01 -0.62972854884E+01 -0.28917524138E+02  0.30000000000E+02  0.47000000000E+01 0. -1.
         -5    1    1    2    0  501 -0.14251291959E+01  0.62972854884E+01  0.28917524138E+02  0.30000000000E+02  0.47000000000E+01 0.  1.
</event>
<event>
 4    1  0.7580225E-002  0.6000000E+02  0.7546771E-02  0.1259629E+00
         11   -1    0    0    0    0  0.00000000000E+00  0.00000000000E+00  0.30000000000E+02  0.30000000000E+02  0.00000000000E+00 0.  1.
        -11   -1    0    0    0    0 -0.00000000000E+00 -0.00000000000E+00 -0.30000000000E+02  0.30000000000E+02  0.00000000000E+00 0. -1.
          5    1    1    2  501    0  0.25558360184E+02 -0.11133518975E+01  0.14947932040E+02  0.30000000000E+02  0.47000000000E+01 0.  1.
         -5    1    1    2    0  501 -0.25558360184E+02  0.11133518975E+01 -0.14947932040E+02  0.30000000000E+02  0.47000000000E+01 0. -1.
</event>
<event>
 4    1  0.7580225E-002  0.6000000E+02  0.7546771E-02  0.1259629E+00
         11   -1    0    0    0    0  0.00000000000E+00  0.00000000000E+00  0.30000000000E+02  0.30000000000E+02  0.00000000000E+00 0. -1.
        -11   -1    0    0    0    0 -0.00000000000E+00 -0.00000000000E+00 -0.30000000000E+02  0.30000000000E+02  0.00000000000E+00 0.  1.
          5    1    1    2  501    0  0.99832116138E+01 -0.13105893417E+02 -0.24626835843E+02  0.30000000000E+02  0.47000000000E+01 0.  1.
         -5    1    1    2    0  501 -0.99832116138E+01  0.13105893417E+02  0.24626835843E+02  0.30000000000E+02  0.47000000000E+01 0. -1.
</event>
<event>
 4    1  0.7580225E-002  0.6000000E+02  0.7546771E-02  0.1259629E+00
         11   -1    0    0    0    0  0.00000000000E+00  0.00000000000E+00  0.30000000000E+02  0.30000000000E+02  0.00000000000E+00 0.  1.
        -11   -1    0    0    0    0 -0.00000000000E+00 -0.00000000000E+00 -0.30000000000E+02  0.30000000000E+02  0.00000000000E+00 0. -1.
          5    1    1    2  501    0 -0.64638024859E+01  0.22523481469E+02 -0.18133450855E+02  0.30000000000E+02  0.47000000000E+01 0. -1.
         -5    1    1    2    0  501  0.64638024859E+01 -0.22523481469E+02  0.18133450855E+02  0.30000000000E+02  0.47000000000E+01 0.  1.
</event>
<event>
 4    1  0.7580225E-002  0.6000000E+02  0.7546771E-02  0.1259629E+00
         11   -1    0    0    0    0  0.00000000000E+00  0.00000000000E+00  0.30000000000E+02  0.30000000000E+02  0.00000000000E+00 0.  1.
        -11   -1    0    0    0    0 -0.00000000000E+00 -0.00000000000E+00 -0.30000000000E+02  0.30000000000E+02  0.00000000000E+00 0. -1.
          5    1    1    2  501    0  0.86443786461E+01 -0.27744930581E+02  0.57795799901E+01  0.30000000000E+02  0.47000000000E+01 0. -1.
         -5    1    1    2    0  501 -0.86443786461E+01  0.27744930581E+02 -0.57795799901E+01  0.30000000000E+02  0.47000000000E+01 0.  1.
</event>
<event>
 4    1  0.7580225E-002  0.6000000E+02  0.7546771E-02  0.1259629E+00
         11   -1    0    0    0    0  0.00000000000E+00  0.00000000000E+00  0.30000000000E+02  0.30000000000E+02  0.00000000000E+00 0.  1.
        -11   -1    0    0    0    0 -0.00000000000E+00 -0.00000000000E+00 -0.30000000000E+02  0.30000000000E+02  0.00000000000E+00 0. -1.
          5    1    1    2  501    0  0.29306538947E+01 -0.26084518833E+02  0.13744786103E+02  0.30000000000E+02  0.47000000000E+01 0. -1.
         -5    1    1    2    0  501 -0.29306538947E+01  0.26084518833E+02 -0.13744786103E+02  0.30000000000E+02  0.47000000000E+01 0.  1.
</event>
<event>
 4    1  0.7580225E-002  0.6000000E+02  0.7546771E-02  0.1259629E+00
         11   -1    0    0    0    0  0.00000000000E+00  0.00000000000E+00  0.30000000000E+02  0.30000000000E+02  0.00000000000E+00 0.  1.
        -11   -1    0    0    0    0 -0.00000000000E+00 -0.00000000000E+00 -0.30000000000E+02  0.30000000000E+02  0.00000000000E+00 0. -1.
          5    1    1    2  501    0 -0.10279782699E+02 -0.27257167070E+02 -0.54113686780E+01  0.30000000000E+02  0.47000000000E+01 0. -1.
         -5    1    1    2    0  501  0.10279782699E+02  0.27257167070E+02  0.54113686780E+01  0.30000000000E+02  0.47000000000E+01 0.  1.
</event>
<event>
 4    1  0.7580225E-002  0.6000000E+02  0.7546771E-02  0.1259629E+00
         11   -1    0    0    0    0  0.00000000000E+00  0.00000000000E+00  0.30000000000E+02  0.30000000000E+02  0.00000000000E+00 0.  1.
        -11   -1    0    0    0    0 -0.00000000000E+00 -0.00000000000E+00 -0.30000000000E+02  0.30000000000E+02  0.00000000000E+00 0. -1.
          5    1    1    2  501    0  0.55834192309E+01 -0.22462340990E+02 -0.18498071979E+02  0.30000000000E+02  0.47000000000E+01 0. -1.
         -5    1    1    2    0  501 -0.55834192309E+01  0.22462340990E+02  0.18498071979E+02  0.30000000000E+02  0.47000000000E+01 0.  1.
</event>
<event>
 4    1  0.7580225E-002  0.6000000E+02  0.7546771E-02  0.1259629E+00
         11   -1    0    0    0    0  0.00000000000E+00  0.00000000000E+00  0.30000000000E+02  0.30000000000E+02  0.00000000000E+00 0.  1.
        -11   -1    0    0    0    0 -0.00000000000E+00 -0.00000000000E+00 -0.30000000000E+02  0.30000000000E+02  0.00000000000E+00 0. -1.
          5    1    1    2  501    0  0.20370537317E+02  0.14238591731E+02 -0.16131141154E+02  0.30000000000E+02  0.47000000000E+01 0.  1.
         -5    1    1    2    0  501 -0.20370537317E+02 -0.14238591731E+02  0.16131141154E+02  0.30000000000E+02  0.47000000000E+01 0.  1.
</event>
<event>
 4    1  0.7580225E-002  0.6000000E+02  0.7546771E-02  0.1259629E+00
         11   -1    0    0    0    0  0.00000000000E+00  0.00000000000E+00  0.30000000000E+02  0.30000000000E+02  0.00000000000E+00 0. -1.
        -11   -1    0    0    0    0 -0.00000000000E+00 -0.00000000000E+00 -0.30000000000E+02  0.30000000000E+02  0.00000000000E+00 0.  1.
          5    1    1    2  501    0 -0.28458084287E+02  0.82411406449E+01 -0.36199392167E+00  0.30000000000E+02  0.47000000000E+01 0.  1.
         -5    1    1    2    0  501  0.28458084287E+02 -0.82411406449E+01  0.36199392167E+00  0.30000000000E+02  0.47000000000E+01 0. -1.
</event>
<event>
 4    1  0.7580225E-002  0.6000000E+02  0.7546771E-02  0.1259629E+00
         11   -1    0    0    0    0  0.00000000000E+00  0.00000000000E+00  0.30000000000E+02  0.30000000000E+02  0.00000000000E+00 0.  1.
        -11   -1    0    0    0    0 -0.00000000000E+00 -0.00000000000E+00 -0.30000000000E+02  0.30000000000E+02  0.00000000000E+00 0. -1.
          5    1    1    2  501    0  0.27577402186E+02  0.85461754270E+01 -0.66603133748E+01  0.30000000000E+02  0.47000000000E+01 0. -1.
         -5    1    1    2    0  501 -0.27577402186E+02 -0.85461754270E+01  0.66603133748E+01  0.30000000000E+02  0.47000000000E+01 0.  1.
</event>
<event>
 4    1  0.7580225E-002  0.6000000E+02  0.7546771E-02  0.1259629E+00
         11   -1    0    0    0    0  0.00000000000E+00  0.00000000000E+00  0.30000000000E+02  0.30000000000E+02  0.00000000000E+00 0.  1.
        -11   -1    0    0    0    0 -0.00000000000E+00 -0.00000000000E+00 -0.30000000000E+02  0.30000000000E+02  0.00000000000E+00 0. -1.
          5    1    1    2  501    0  0.17588517204E+02 -0.23194601408E+02  0.55285195196E+01  0.30000000000E+02  0.47000000000E+01 0. -1.
         -5    1    1    2    0  501 -0.17588517204E+02  0.23194601408E+02 -0.55285195196E+01  0.30000000000E+02  0.47000000000E+01 0.  1.
</event>
<event>
 4    1  0.7580225E-002  0.6000000E+02  0.7546771E-02  0.1259629E+00
         11   -1    0    0    0    0  0.00000000000E+00  0.00000000000E+00  0.30000000000E+02  0.30000000000E+02  0.00000000000E+00 0.  1.
        -11   -1    0    0    0    0 -0.00000000000E+00 -0.00000000000E+00 -0.30000000000E+02  0.30000000000E+02  0.00000000000E+00 0. -1.
          5    1    1    2  501    0 -0.47499069375E+01  0.81752725353E+01 -0.28080479039E+02  0.30000000000E+02  0.47000000000E+01 0. -1.
         -5    1    1    2    0  501  0.47499069375E+01 -0.81752725353E+01  0.28080479039E+02  0.30000000000E+02  0.47000000000E+01 0.  1.
</event>
<event>
 4    1  0.7580225E-002  0.6000000E+02  0.7546771E-02  0.1259629E+00
         11   -1    0    0    0    0  0.00000000000E+00  0.00000000000E+00  0.30000000000E+02  0.30000000000E+02  0.00000000000E+00 0.  1.
        -11   -1    0    0    0    0 -0.00000000000E+00 -0.00000000000E+00 -0.30000000000E+02  0.30000000000E+02  0.00000000000E+00 0. -1.
          5    1    1    2  501    0  0.27541973724E+02  0.36589208214E+01  0.10293783649E+02  0.30000000000E+02  0.47000000000E+01 0.  1.
         -5    1    1    2    0  501 -0.27541973724E+02 -0.36589208214E+01 -0.10293783649E+02  0.30000000000E+02  0.47000000000E+01 0. -1.
</event>
<event>
 4    1  0.7580225E-002  0.6000000E+02  0.7546771E-02  0.1259629E+00
         11   -1    0    0    0    0  0.00000000000E+00  0.00000000000E+00  0.30000000000E+02  0.30000000000E+02  0.00000000000E+00 0.  1.
        -11   -1    0    0    0    0 -0.00000000000E+00 -0.00000000000E+00 -0.30000000000E+02  0.30000000000E+02  0.00000000000E+00 0. -1.
          5    1    1    2  501    0 -0.67399060885E+01 -0.28550588382E+02 -0.41650412886E+01  0.30000000000E+02  0.47000000000E+01 0.  1.
         -5    1    1    2    0  501  0.67399060885E+01  0.28550588382E+02  0.41650412886E+01  0.30000000000E+02  0.47000000000E+01 0. -1.
</event>
<event>
 4    1  0.7580225E-002  0.6000000E+02  0.7546771E-02  0.1259629E+00
         11   -1    0    0    0    0  0.00000000000E+00  0.00000000000E+00  0.30000000000E+02  0.30000000000E+02  0.00000000000E+00 0.  1.
        -11   -1    0    0    0    0 -0.00000000000E+00 -0.00000000000E+00 -0.30000000000E+02  0.30000000000E+02  0.00000000000E+00 0. -1.
          5    1    1    2  501    0  0.14538721048E+02  0.17113424346E+02  0.19330450006E+02  0.30000000000E+02  0.47000000000E+01 0.  1.
         -5    1    1    2    0  501 -0.14538721048E+02 -0.17113424346E+02 -0.19330450006E+02  0.30000000000E+02  0.47000000000E+01 0. -1.
</event>
<event>
 4    1  0.7580225E-002  0.6000000E+02  0.7546771E-02  0.1259629E+00
         11   -1    0    0    0    0  0.00000000000E+00  0.00000000000E+00  0.30000000000E+02  0.30000000000E+02  0.00000000000E+00 0.  1.
        -11   -1    0    0    0    0 -0.00000000000E+00 -0.00000000000E+00 -0.30000000000E+02  0.30000000000E+02  0.00000000000E+00 0. -1.
          5    1    1    2  501    0 -0.20339610515E+02 -0.12361911481E+02 -0.17646342076E+02  0.30000000000E+02  0.47000000000E+01 0. -1.
         -5    1    1    2    0  501  0.20339610515E+02  0.12361911481E+02  0.17646342076E+02  0.30000000000E+02  0.47000000000E+01 0.  1.
</event>
<event>
 4    1  0.7580225E-002  0.6000000E+02  0.7546771E-02  0.1259629E+00
         11   -1    0    0    0    0  0.00000000000E+00  0.00000000000E+00  0.30000000000E+02  0.30000000000E+02  0.00000000000E+00 0.  1.
        -11   -1    0    0    0    0 -0.00000000000E+00 -0.00000000000E+00 -0.30000000000E+02  0.30000000000E+02  0.00000000000E+00 0. -1.
          5    1    1    2  501    0 -0.13635002466E+02  0.74722768998E+01 -0.25222247832E+02  0.30000000000E+02  0.47000000000E+01 0. -1.
         -5    1    1    2    0  501  0.13635002466E+02 -0.74722768998E+01  0.25222247832E+02  0.30000000000E+02  0.47000000000E+01 0.  1.
</event>
<event>
 4    1  0.7580225E-002  0.6000000E+02  0.7546771E-02  0.1259629E+00
         11   -1    0    0    0    0  0.00000000000E+00  0.00000000000E+00  0.30000000000E+02  0.30000000000E+02  0.00000000000E+00 0.  1.
        -11   -1    0    0    0    0 -0.00000000000E+00 -0.00000000000E+00 -0.30000000000E+02  0.30000000000E+02  0.00000000000E+00 0. -1.
          5    1    1    2  501    0 -0.27461442600E+02 -0.74763257544E+01 -0.82391579389E+01  0.30000000000E+02  0.47000000000E+01 0. -1.
         -5    1    1    2    0  501  0.27461442600E+02  0.74763257544E+01  0.82391579389E+01  0.30000000000E+02  0.47000000000E+01 0.  1.
</event>
<event>
 4    1  0.7580225E-002  0.6000000E+02  0.7546771E-02  0.1259629E+00
         11   -1    0    0    0    0  0.00000000000E+00  0.00000000000E+00  0.30000000000E+02  0.30000000000E+02  0.00000000000E+00 0.  1.
        -11   -1    0    0    0    0 -0.00000000000E+00 -0.00000000000E+00 -0.30000000000E+02  0.30000000000E+02  0.00000000000E+00 0. -1.
          5    1    1    2  501    0  0.28018268555E+02 -0.82812824899E+01 -0.49302117076E+01  0.30000000000E+02  0.47000000000E+01 0. -1.
         -5    1    1    2    0  501 -0.28018268555E+02  0.82812824899E+01  0.49302117076E+01  0.30000000000E+02  0.47000000000E+01 0.  1.
</event>
<event>
 4    1  0.7580225E-002  0.6000000E+02  0.7546771E-02  0.1259629E+00
         11   -1    0    0    0    0  0.00000000000E+00  0.00000000000E+00  0.30000000000E+02  0.30000000000E+02  0.00000000000E+00 0. -1.
        -11   -1    0    0    0    0 -0.00000000000E+00 -0.00000000000E+00 -0.30000000000E+02  0.30000000000E+02  0.00000000000E+00 0.  1.
          5    1    1    2  501    0 -0.71310243541E+01  0.25003202922E+02 -0.14209093402E+02  0.30000000000E+02  0.47000000000E+01 0.  1.
         -5    1    1    2    0  501  0.71310243541E+01 -0.25003202922E+02  0.14209093402E+02  0.30000000000E+02  0.47000000000E+01 0. -1.
</event>
<event>
 4    1  0.7580225E-002  0.6000000E+02  0.7546771E-02  0.1259629E+00
         11   -1    0    0    0    0  0.00000000000E+00  0.00000000000E+00  0.30000000000E+02  0.30000000000E+02  0.00000000000E+00 0.  1.
        -11   -1    0    0    0    0 -0.00000000000E+00 -0.00000000000E+00 -0.30000000000E+02  0.30000000000E+02  0.00000000000E+00 0. -1.
          5    1    1    2  501    0 -0.26586775026E+02 -0.79119930546E+01 -0.10414113482E+02  0.30000000000E+02  0.47000000000E+01 0. -1.
         -5    1    1    2    0  501  0.26586775026E+02  0.79119930546E+01  0.10414113482E+02  0.30000000000E+02  0.47000000000E+01 0.  1.
</event>
<event>
 4    1  0.7580225E-002  0.6000000E+02  0.7546771E-02  0.1259629E+00
         11   -1    0    0    0    0  0.00000000000E+00  0.00000000000E+00  0.30000000000E+02  0.30000000000E+02  0.00000000000E+00 0.  1.
        -11   -1    0    0    0    0 -0.00000000000E+00 -0.00000000000E+00 -0.30000000000E+02  0.30000000000E+02  0.00000000000E+00 0. -1.
          5    1    1    2  501    0 -0.86164825822E+00  0.27698578825E+02 -0.10486004643E+02  0.30000000000E+02  0.47000000000E+01 0. -1.
         -5    1    1    2    0  501  0.86164825822E+00 -0.27698578825E+02  0.10486004643E+02  0.30000000000E+02  0.47000000000E+01 0.  1.
</event>
<event>
 4    1  0.7580225E-002  0.6000000E+02  0.7546771E-02  0.1259629E+00
         11   -1    0    0    0    0  0.00000000000E+00  0.00000000000E+00  0.30000000000E+02  0.30000000000E+02  0.00000000000E+00 0.  1.
        -11   -1    0    0    0    0 -0.00000000000E+00 -0.00000000000E+00 -0.30000000000E+02  0.30000000000E+02  0.00000000000E+00 0. -1.
          5    1    1    2  501    0 -0.18508102381E+02  0.19023686313E+01  0.23059513001E+02  0.30000000000E+02  0.47000000000E+01 0.  1.
         -5    1    1    2    0  501  0.18508102381E+02 -0.19023686313E+01 -0.23059513001E+02  0.30000000000E+02  0.47000000000E+01 0. -1.
</event>
<event>
 4    1  0.7580225E-002  0.6000000E+02  0.7546771E-02  0.1259629E+00
         11   -1    0    0    0    0  0.00000000000E+00  0.00000000000E+00  0.30000000000E+02  0.30000000000E+02  0.00000000000E+00 0. -1.
        -11   -1    0    0    0    0 -0.00000000000E+00 -0.00000000000E+00 -0.30000000000E+02  0.30000000000E+02  0.00000000000E+00 0.  1.
          5    1    1    2  501    0 -0.11683079545E+02 -0.81462107942E+01 -0.25981818682E+02  0.30000000000E+02  0.47000000000E+01 0.  1.
         -5    1    1    2    0  501  0.11683079545E+02  0.81462107942E+01  0.25981818682E+02  0.30000000000E+02  0.47000000000E+01 0. -1.
</event>
<event>
 4    1  0.7580225E-002  0.6000000E+02  0.7546771E-02  0.1259629E+00
         11   -1    0    0    0    0  0.00000000000E+00  0.00000000000E+00  0.30000000000E+02  0.30000000000E+02  0.00000000000E+00 0.  1.
        -11   -1    0    0    0    0 -0.00000000000E+00 -0.00000000000E+00 -0.30000000000E+02  0.30000000000E+02  0.00000000000E+00 0. -1.
          5    1    1    2  501    0 -0.27380955678E+02 -0.38724625469E+00 -0.11315622231E+02  0.30000000000E+02  0.47000000000E+01 0. -1.
         -5    1    1    2    0  501  0.27380955678E+02  0.38724625469E+00  0.11315622231E+02  0.30000000000E+02  0.47000000000E+01 0.  1.
</event>
<event>
 4    1  0.7580225E-002  0.6000000E+02  0.7546771E-02  0.1259629E+00
         11   -1    0    0    0    0  0.00000000000E+00  0.00000000000E+00  0.30000000000E+02  0.30000000000E+02  0.00000000000E+00 0.  1.
        -11   -1    0    0    0    0 -0.00000000000E+00 -0.00000000000E+00 -0.30000000000E+02  0.30000000000E+02  0.00000000000E+00 0. -1.
          5    1    1    2  501    0  0.56194748294E+01 -0.11111931444E+02 -0.26885990445E+02  0.30000000000E+02  0.47000000000E+01 0. -1.
         -5    1    1    2    0  501 -0.56194748294E+01  0.11111931444E+02  0.26885990445E+02  0.30000000000E+02  0.47000000000E+01 0.  1.
</event>
<event>
 4    1  0.7580225E-002  0.6000000E+02  0.7546771E-02  0.1259629E+00
         11   -1    0    0    0    0  0.00000000000E+00  0.00000000000E+00  0.30000000000E+02  0.30000000000E+02  0.00000000000E+00 0.  1.
        -11   -1    0    0    0    0 -0.00000000000E+00 -0.00000000000E+00 -0.30000000000E+02  0.30000000000E+02  0.00000000000E+00 0. -1.
          5    1    1    2  501    0 -0.18671048863E+02 -0.13704486658E+01 -0.22965709325E+02  0.30000000000E+02  0.47000000000E+01 0. -1.
         -5    1    1    2    0  501  0.18671048863E+02  0.13704486658E+01  0.22965709325E+02  0.30000000000E+02  0.47000000000E+01 0.  1.
</event>
<event>
 4    1  0.7580225E-002  0.6000000E+02  0.7546771E-02  0.1259629E+00
         11   -1    0    0    0    0  0.00000000000E+00  0.00000000000E+00  0.30000000000E+02  0.30000000000E+02  0.00000000000E+00 0.  1.
        -11   -1    0    0    0    0 -0.00000000000E+00 -0.00000000000E+00 -0.30000000000E+02  0.30000000000E+02  0.00000000000E+00 0. -1.
          5    1    1    2  501    0  0.44766999220E+00  0.26264743764E+00 -0.29624999711E+02  0.30000000000E+02  0.47000000000E+01 0. -1.
         -5    1    1    2    0  501 -0.44766999220E+00 -0.26264743764E+00  0.29624999711E+02  0.30000000000E+02  0.47000000000E+01 0.  1.
</event>
<event>
 4    1  0.7580225E-002  0.6000000E+02  0.7546771E-02  0.1259629E+00
         11   -1    0    0    0    0  0.00000000000E+00  0.00000000000E+00  0.30000000000E+02  0.30000000000E+02  0.00000000000E+00 0.  1.
        -11   -1    0    0    0    0 -0.00000000000E+00 -0.00000000000E+00 -0.30000000000E+02  0.30000000000E+02  0.00000000000E+00 0. -1.
          5    1    1    2  501    0 -0.22039358393E+02  0.44857188043E+01  0.19288727496E+02  0.30000000000E+02  0.47000000000E+01 0.  1.
         -5    1    1    2    0  501  0.22039358393E+02 -0.44857188043E+01 -0.19288727496E+02  0.30000000000E+02  0.47000000000E+01 0. -1.
</event>
<event>
 4    1  0.7580225E-002  0.6000000E+02  0.7546771E-02  0.1259629E+00
         11   -1    0    0    0    0  0.00000000000E+00  0.00000000000E+00  0.30000000000E+02  0.30000000000E+02  0.00000000000E+00 0.  1.
        -11   -1    0    0    0    0 -0.00000000000E+00 -0.00000000000E+00 -0.30000000000E+02  0.30000000000E+02  0.00000000000E+00 0. -1.
          5    1    1    2  501    0  0.23914057071E+01 -0.16643009004E+02 -0.24396750399E+02  0.30000000000E+02  0.47000000000E+01 0. -1.
         -5    1    1    2    0  501 -0.23914057071E+01  0.16643009004E+02  0.24396750399E+02  0.30000000000E+02  0.47000000000E+01 0.  1.
</event>
<event>
 4    1  0.7580225E-002  0.6000000E+02  0.7546771E-02  0.1259629E+00
         11   -1    0    0    0    0  0.00000000000E+00  0.00000000000E+00  0.30000000000E+02  0.30000000000E+02  0.00000000000E+00 0. -1.
        -11   -1    0    0    0    0 -0.00000000000E+00 -0.00000000000E+00 -0.30000000000E+02  0.30000000000E+02  0.00000000000E+00 0.  1.
          5    1    1    2  501    0  0.14134209128E+02  0.20859937193E+02 -0.15588365939E+02  0.30000000000E+02  0.47000000000E+01 0.  1.
         -5    1    1    2    0  501 -0.14134209128E+02 -0.20859937193E+02  0.15588365939E+02  0.30000000000E+02  0.47000000000E+01 0. -1.
</event>
<event>
 4    1  0.7580225E-002  0.6000000E+02  0.7546771E-02  0.1259629E+00
         11   -1    0    0    0    0  0.00000000000E+00  0.00000000000E+00  0.30000000000E+02  0.30000000000E+02  0.00000000000E+00 0. -1.
        -11   -1    0    0    0    0 -0.00000000000E+00 -0.00000000000E+00 -0.30000000000E+02  0.30000000000E+02  0.00000000000E+00 0.  1.
          5    1    1    2  501    0  0.34934729461E+01 -0.26705835953E+02 -0.12349249890E+02  0.30000000000E+02  0.47000000000E+01 0.  1.
         -5    1    1    2    0  501 -0.34934729461E+01  0.26705835953E+02  0.12349249890E+02  0.30000000000E+02  0.47000000000E+01 0. -1.
</event>
<event>
 4    1  0.7580225E-002  0.6000000E+02  0.7546771E-02  0.1259629E+00
         11   -1    0    0    0    0  0.00000000000E+00  0.00000000000E+00  0.30000000000E+02  0.30000000000E+02  0.00000000000E+00 0.  1.
        -11   -1    0    0    0    0 -0.00000000000E+00 -0.00000000000E+00 -0.30000000000E+02  0.30000000000E+02  0.00000000000E+00 0. -1.
          5    1    1    2  501    0 -0.27546074288E+02 -0.80574935920E+01  0.73621048840E+01  0.30000000000E+02  0.47000000000E+01 0. -1.
         -5    1    1    2    0  501  0.27546074288E+02  0.80574935920E+01 -0.73621048840E+01  0.30000000000E+02  0.47000000000E+01 0.  1.
</event>
<event>
 4    1  0.7580225E-002  0.6000000E+02  0.7546771E-02  0.1259629E+00
         11   -1    0    0    0    0  0.00000000000E+00  0.00000000000E+00  0.30000000000E+02  0.30000000000E+02  0.00000000000E+00 0. -1.
        -11   -1    0    0    0    0 -0.00000000000E+00 -0.00000000000E+00 -0.30000000000E+02  0.30000000000E+02  0.00000000000E+00 0.  1.
          5    1    1    2  501    0 -0.15662196364E+02 -0.24735572866E+02  0.45559894708E+01  0.30000000000E+02  0.47000000000E+01 0.  1.
         -5    1    1    2    0  501  0.15662196364E+02  0.24735572866E+02 -0.45559894708E+01  0.30000000000E+02  0.47000000000E+01 0. -1.
</event>
<event>
 4    1  0.7580225E-002  0.6000000E+02  0.7546771E-02  0.1259629E+00
         11   -1    0    0    0    0  0.00000000000E+00  0.00000000000E+00  0.30000000000E+02  0.30000000000E+02  0.00000000000E+00 0.  1.
        -11   -1    0    0    0    0 -0.00000000000E+00 -0.00000000000E+00 -0.30000000000E+02  0.30000000000E+02  0.00000000000E+00 0. -1.
          5    1    1    2  501    0  0.16407773520E+02  0.13547676760E+02 -0.20619297333E+02  0.30000000000E+02  0.47000000000E+01 0. -1.
         -5    1    1    2    0  501 -0.16407773520E+02 -0.13547676760E+02  0.20619297333E+02  0.30000000000E+02  0.47000000000E+01 0.  1.
</event>
<event>
 4    1  0.7580225E-002  0.6000000E+02  0.7546771E-02  0.1259629E+00
         11   -1    0    0    0    0  0.00000000000E+00  0.00000000000E+00  0.30000000000E+02  0.30000000000E+02  0.00000000000E+00 0.  1.
        -11   -1    0    0    0    0 -0.00000000000E+00 -0.00000000000E+00 -0.30000000000E+02  0.30000000000E+02  0.00000000000E+00 0. -1.
          5    1    1    2  501    0 -0.42424305233E+01 -0.28973861298E+02 -0.45196398883E+01  0.30000000000E+02  0.47000000000E+01 0. -1.
         -5    1    1    2    0  501  0.42424305233E+01  0.28973861298E+02  0.45196398883E+01  0.30000000000E+02  0.47000000000E+01 0.  1.
</event>
<event>
 4    1  0.7580225E-002  0.6000000E+02  0.7546771E-02  0.1259629E+00
         11   -1    0    0    0    0  0.00000000000E+00  0.00000000000E+00  0.30000000000E+02  0.30000000000E+02  0.00000000000E+00 0. -1.
        -11   -1    0    0    0    0 -0.00000000000E+00 -0.00000000000E+00 -0.30000000000E+02  0.30000000000E+02  0.00000000000E+00 0.  1.
          5    1    1    2  501    0 -0.73176452615E+01 -0.28095377973E+02 -0.59170773503E+01  0.30000000000E+02  0.47000000000E+01 0.  1.
         -5    1    1    2    0  501  0.73176452615E+01  0.28095377973E+02  0.59170773503E+01  0.30000000000E+02  0.47000000000E+01 0. -1.
</event>
<event>
 4    1  0.7580225E-002  0.6000000E+02  0.7546771E-02  0.1259629E+00
         11   -1    0    0    0    0  0.00000000000E+00  0.00000000000E+00  0.30000000000E+02  0.30000000000E+02  0.00000000000E+00 0.  1.
        -11   -1    0    0    0    0 -0.00000000000E+00 -0.00000000000E+00 -0.30000000000E+02  0.30000000000E+02  0.00000000000E+00 0. -1.
          5    1    1    2  501    0 -0.21884296895E+02  0.12066226673E+02  0.15918345495E+02  0.30000000000E+02  0.47000000000E+01 0. -1.
         -5    1    1    2    0  501  0.21884296895E+02 -0.12066226673E+02 -0.15918345495E+02  0.30000000000E+02  0.47000000000E+01 0.  1.
</event>
<event>
 4    1  0.7580225E-002  0.6000000E+02  0.7546771E-02  0.1259629E+00
         11   -1    0    0    0    0  0.00000000000E+00  0.00000000000E+00  0.30000000000E+02  0.30000000000E+02  0.00000000000E+00 0.  1.
        -11   -1    0    0    0    0 -0.00000000000E+00 -0.00000000000E+00 -0.30000000000E+02  0.30000000000E+02  0.00000000000E+00 0. -1.
          5    1    1    2  501    0 -0.72970069506E+01  0.88890368999E+00 -0.28703197379E+02  0.30000000000E+02  0.47000000000E+01 0. -1.
         -5    1    1    2    0  501  0.72970069506E+01 -0.88890368999E+00  0.28703197379E+02  0.30000000000E+02  0.47000000000E+01 0.  1.
</event>
<event>
 4    1  0.7580225E-002  0.6000000E+02  0.7546771E-02  0.1259629E+00
         11   -1    0    0    0    0  0.00000000000E+00  0.00000000000E+00  0.30000000000E+02  0.30000000000E+02  0.00000000000E+00 0. -1.
        -11   -1    0    0    0    0 -0.00000000000E+00 -0.00000000000E+00 -0.30000000000E+02  0.30000000000E+02  0.00000000000E+00 0.  1.
          5    1    1    2  501    0 -0.23779019512E+02 -0.93837887765E+01  0.14980411851E+02  0.30000000000E+02  0.47000000000E+01 0. -1.
         -5    1    1    2    0  501  0.23779019512E+02  0.93837887765E+01 -0.14980411851E+02  0.30000000000E+02  0.47000000000E+01 0.  1.
</event>
<event>
 4    1  0.7580225E-002  0.6000000E+02  0.7546771E-02  0.1259629E+00
         11   -1    0    0    0    0  0.00000000000E+00  0.00000000000E+00  0.30000000000E+02  0.30000000000E+02  0.00000000000E+00 0. -1.
        -11   -1    0    0    0    0 -0.00000000000E+00 -0.00000000000E+00 -0.30000000000E+02  0.30000000000E+02  0.00000000000E+00 0.  1.
          5    1    1    2  501    0  0.14997916824E+02 -0.24359433179E+02 -0.77194887231E+01  0.30000000000E+02  0.47000000000E+01 0.  1.
         -5    1    1    2    0  501 -0.14997916824E+02  0.24359433179E+02  0.77194887231E+01  0.30000000000E+02  0.47000000000E+01 0. -1.
</event>
<event>
 4    1  0.7580225E-002  0.6000000E+02  0.7546771E-02  0.1259629E+00
         11   -1    0    0    0    0  0.00000000000E+00  0.00000000000E+00  0.30000000000E+02  0.30000000000E+02  0.00000000000E+00 0.  1.
        -11   -1    0    0    0    0 -0.00000000000E+00 -0.00000000000E+00 -0.30000000000E+02  0.30000000000E+02  0.00000000000E+00 0. -1.
          5    1    1    2  501    0 -0.54162789100E+01 -0.26615300098E+02 -0.11840596414E+02  0.30000000000E+02  0.47000000000E+01 0. -1.
         -5    1    1    2    0  501  0.54162789100E+01  0.26615300098E+02  0.11840596414E+02  0.30000000000E+02  0.47000000000E+01 0.  1.
</event>
<event>
 4    1  0.7580225E-002  0.6000000E+02  0.7546771E-02  0.1259629E+00
         11   -1    0    0    0    0  0.00000000000E+00  0.00000000000E+00  0.30000000000E+02  0.30000000000E+02  0.00000000000E+00 0.  1.
        -11   -1    0    0    0    0 -0.00000000000E+00 -0.00000000000E+00 -0.30000000000E+02  0.30000000000E+02  0.00000000000E+00 0. -1.
          5    1    1    2  501    0 -0.24346448546E+02  0.12821060657E+02 -0.10990033977E+02  0.30000000000E+02  0.47000000000E+01 0. -1.
         -5    1    1    2    0  501  0.24346448546E+02 -0.12821060657E+02  0.10990033977E+02  0.30000000000E+02  0.47000000000E+01 0.  1.
</event>
<event>
 4    1  0.7580225E-002  0.6000000E+02  0.7546771E-02  0.1259629E+00
         11   -1    0    0    0    0  0.00000000000E+00  0.00000000000E+00  0.30000000000E+02  0.30000000000E+02  0.00000000000E+00 0.  1.
        -11   -1    0    0    0    0 -0.00000000000E+00 -0.00000000000E+00 -0.30000000000E+02  0.30000000000E+02  0.00000000000E+00 0. -1.
          5    1    1    2  501    0  0.23749312300E+01 -0.20207919125E+02  0.21538563237E+02  0.30000000000E+02  0.47000000000E+01 0.  1.
         -5    1    1    2    0  501 -0.23749312300E+01  0.20207919125E+02 -0.21538563237E+02  0.30000000000E+02  0.47000000000E+01 0. -1.
</event>
<event>
 4    1  0.7580225E-002  0.6000000E+02  0.7546771E-02  0.1259629E+00
         11   -1    0    0    0    0  0.00000000000E+00  0.00000000000E+00  0.30000000000E+02  0.30000000000E+02  0.00000000000E+00 0. -1.
        -11   -1    0    0    0    0 -0.00000000000E+00 -0.00000000000E+00 -0.30000000000E+02  0.30000000000E+02  0.00000000000E+00 0.  1.
          5    1    1    2  501    0  0.23372117816E+02  0.34758289027E+01 -0.17876597054E+02  0.30000000000E+02  0.47000000000E+01 0.  1.
         -5    1    1    2    0  501 -0.23372117816E+02 -0.34758289027E+01  0.17876597054E+02  0.30000000000E+02  0.47000000000E+01 0. -1.
</event>
<event>
 4    1  0.7580225E-002  0.6000000E+02  0.7546771E-02  0.1259629E+00
         11   -1    0    0    0    0  0.00000000000E+00  0.00000000000E+00  0.30000000000E+02  0.30000000000E+02  0.00000000000E+00 0.  1.
        -11   -1    0    0    0    0 -0.00000000000E+00 -0.00000000000E+00 -0.30000000000E+02  0.30000000000E+02  0.00000000000E+00 0. -1.
          5    1    1    2  501    0 -0.25611705140E+02 -0.14152350534E+02  0.46541953293E+01  0.30000000000E+02  0.47000000000E+01 0. -1.
         -5    1    1    2    0  501  0.25611705140E+02  0.14152350534E+02 -0.46541953293E+01  0.30000000000E+02  0.47000000000E+01 0.  1.
</event>
<event>
 4    1  0.7580225E-002  0.6000000E+02  0.7546771E-02  0.1259629E+00
         11   -1    0    0    0    0  0.00000000000E+00  0.00000000000E+00  0.30000000000E+02  0.30000000000E+02  0.00000000000E+00 0. -1.
        -11   -1    0    0    0    0 -0.00000000000E+00 -0.00000000000E+00 -0.30000000000E+02  0.30000000000E+02  0.00000000000E+00 0.  1.
          5    1    1    2  501    0 -0.74084067140E+01 -0.10842417600E+02 -0.26560637992E+02  0.30000000000E+02  0.47000000000E+01 0.  1.
         -5    1    1    2    0  501  0.74084067140E+01  0.10842417600E+02  0.26560637992E+02  0.30000000000E+02  0.47000000000E+01 0. -1.
</event>
<event>
 4    1  0.7580225E-002  0.6000000E+02  0.7546771E-02  0.1259629E+00
         11   -1    0    0    0    0  0.00000000000E+00  0.00000000000E+00  0.30000000000E+02  0.30000000000E+02  0.00000000000E+00 0.  1.
        -11   -1    0    0    0    0 -0.00000000000E+00 -0.00000000000E+00 -0.30000000000E+02  0.30000000000E+02  0.00000000000E+00 0. -1.
          5    1    1    2  501    0  0.12549544242E+02 -0.17589061638E+01 -0.26782927182E+02  0.30000000000E+02  0.47000000000E+01 0. -1.
         -5    1    1    2    0  501 -0.12549544242E+02  0.17589061638E+01  0.26782927182E+02  0.30000000000E+02  0.47000000000E+01 0.  1.
</event>
<event>
 4    1  0.7580225E-002  0.6000000E+02  0.7546771E-02  0.1259629E+00
         11   -1    0    0    0    0  0.00000000000E+00  0.00000000000E+00  0.30000000000E+02  0.30000000000E+02  0.00000000000E+00 0.  1.
        -11   -1    0    0    0    0 -0.00000000000E+00 -0.00000000000E+00 -0.30000000000E+02  0.30000000000E+02  0.00000000000E+00 0. -1.
          5    1    1    2  501    0 -0.81130134607E+01 -0.27469210753E+02  0.75849504428E+01  0.30000000000E+02  0.47000000000E+01 0. -1.
         -5    1    1    2    0  501  0.81130134607E+01  0.27469210753E+02 -0.75849504428E+01  0.30000000000E+02  0.47000000000E+01 0. -1.
</event>
<event>
 4    1  0.7580225E-002  0.6000000E+02  0.7546771E-02  0.1259629E+00
         11   -1    0    0    0    0  0.00000000000E+00  0.00000000000E+00  0.30000000000E+02  0.30000000000E+02  0.00000000000E+00 0. -1.
        -11   -1    0    0    0    0 -0.00000000000E+00 -0.00000000000E+00 -0.30000000000E+02  0.30000000000E+02  0.00000000000E+00 0.  1.
          5    1    1    2  501    0 -0.13418960809E+02  0.81342814382E+01 -0.25133144576E+02  0.30000000000E+02  0.47000000000E+01 0.  1.
         -5    1    1    2    0  501  0.13418960809E+02 -0.81342814382E+01  0.25133144576E+02  0.30000000000E+02  0.47000000000E+01 0. -1.
</event>
<event>
 4    1  0.7580225E-002  0.6000000E+02  0.7546771E-02  0.1259629E+00
         11   -1    0    0    0    0  0.00000000000E+00  0.00000000000E+00  0.30000000000E+02  0.30000000000E+02  0.00000000000E+00 0. -1.
        -11   -1    0    0    0    0 -0.00000000000E+00 -0.00000000000E+00 -0.30000000000E+02  0.30000000000E+02  0.00000000000E+00 0.  1.
          5    1    1    2  501    0 -0.68845642011E+01  0.39220174025E+01  0.28550491331E+02  0.30000000000E+02  0.47000000000E+01 0. -1.
         -5    1    1    2    0  501  0.68845642011E+01 -0.39220174025E+01 -0.28550491331E+02  0.30000000000E+02  0.47000000000E+01 0.  1.
</event>
<event>
 4    1  0.7580225E-002  0.6000000E+02  0.7546771E-02  0.1259629E+00
         11   -1    0    0    0    0  0.00000000000E+00  0.00000000000E+00  0.30000000000E+02  0.30000000000E+02  0.00000000000E+00 0.  1.
        -11   -1    0    0    0    0 -0.00000000000E+00 -0.00000000000E+00 -0.30000000000E+02  0.30000000000E+02  0.00000000000E+00 0. -1.
          5    1    1    2  501    0  0.16015858673E+01 -0.19801703018E+02 -0.21982663176E+02  0.30000000000E+02  0.47000000000E+01 0. -1.
         -5    1    1    2    0  501 -0.16015858673E+01  0.19801703018E+02  0.21982663176E+02  0.30000000000E+02  0.47000000000E+01 0.  1.
</event>
<event>
 4    1  0.7580225E-002  0.6000000E+02  0.7546771E-02  0.1259629E+00
         11   -1    0    0    0    0  0.00000000000E+00  0.00000000000E+00  0.30000000000E+02  0.30000000000E+02  0.00000000000E+00 0.  1.
        -11   -1    0    0    0    0 -0.00000000000E+00 -0.00000000000E+00 -0.30000000000E+02  0.30000000000E+02  0.00000000000E+00 0. -1.
          5    1    1    2  501    0 -0.66740129727E+00  0.28904784304E+02 -0.64790446706E+01  0.30000000000E+02  0.47000000000E+01 0. -1.
         -5    1    1    2    0  501  0.66740129727E+00 -0.28904784304E+02  0.64790446706E+01  0.30000000000E+02  0.47000000000E+01 0.  1.
</event>
<event>
 4    1  0.7580225E-002  0.6000000E+02  0.7546771E-02  0.1259629E+00
         11   -1    0    0    0    0  0.00000000000E+00  0.00000000000E+00  0.30000000000E+02  0.30000000000E+02  0.00000000000E+00 0.  1.
        -11   -1    0    0    0    0 -0.00000000000E+00 -0.00000000000E+00 -0.30000000000E+02  0.30000000000E+02  0.00000000000E+00 0. -1.
          5    1    1    2  501    0 -0.20161280119E+02 -0.21472715175E+02 -0.32179631681E+01  0.30000000000E+02  0.47000000000E+01 0. -1.
         -5    1    1    2    0  501  0.20161280119E+02  0.21472715175E+02  0.32179631681E+01  0.30000000000E+02  0.47000000000E+01 0.  1.
</event>
<event>
 4    1  0.7580225E-002  0.6000000E+02  0.7546771E-02  0.1259629E+00
         11   -1    0    0    0    0  0.00000000000E+00  0.00000000000E+00  0.30000000000E+02  0.30000000000E+02  0.00000000000E+00 0.  1.
        -11   -1    0    0    0    0 -0.00000000000E+00 -0.00000000000E+00 -0.30000000000E+02  0.30000000000E+02  0.00000000000E+00 0. -1.
          5    1    1    2  501    0 -0.46000720947E+00 -0.53027181913E+01 -0.29147548321E+02  0.30000000000E+02  0.47000000000E+01 0. -1.
         -5    1    1    2    0  501  0.46000720947E+00  0.53027181913E+01  0.29147548321E+02  0.30000000000E+02  0.47000000000E+01 0.  1.
</event>
<event>
 4    1  0.7580225E-002  0.6000000E+02  0.7546771E-02  0.1259629E+00
         11   -1    0    0    0    0  0.00000000000E+00  0.00000000000E+00  0.30000000000E+02  0.30000000000E+02  0.00000000000E+00 0.  1.
        -11   -1    0    0    0    0 -0.00000000000E+00 -0.00000000000E+00 -0.30000000000E+02  0.30000000000E+02  0.00000000000E+00 0. -1.
          5    1    1    2  501    0  0.68446972346E+01 -0.93327281165E+01 -0.27275635752E+02  0.30000000000E+02  0.47000000000E+01 0. -1.
         -5    1    1    2    0  501 -0.68446972346E+01  0.93327281165E+01  0.27275635752E+02  0.30000000000E+02  0.47000000000E+01 0.  1.
</event>
<event>
 4    1  0.7580225E-002  0.6000000E+02  0.7546771E-02  0.1259629E+00
         11   -1    0    0    0    0  0.00000000000E+00  0.00000000000E+00  0.30000000000E+02  0.30000000000E+02  0.00000000000E+00 0.  1.
        -11   -1    0    0    0    0 -0.00000000000E+00 -0.00000000000E+00 -0.30000000000E+02  0.30000000000E+02  0.00000000000E+00 0. -1.
          5    1    1    2  501    0  0.24497087411E+02 -0.12592258688E+02 -0.10919602991E+02  0.30000000000E+02  0.47000000000E+01 0. -1.
         -5    1    1    2    0  501 -0.24497087411E+02  0.12592258688E+02  0.10919602991E+02  0.30000000000E+02  0.47000000000E+01 0.  1.
</event>
<event>
 4    1  0.7580225E-002  0.6000000E+02  0.7546771E-02  0.1259629E+00
         11   -1    0    0    0    0  0.00000000000E+00  0.00000000000E+00  0.30000000000E+02  0.30000000000E+02  0.00000000000E+00 0.  1.
        -11   -1    0    0    0    0 -0.00000000000E+00 -0.00000000000E+00 -0.30000000000E+02  0.30000000000E+02  0.00000000000E+00 0. -1.
          5    1    1    2  501    0 -0.15272626362E+02  0.81263245905E+01 -0.24054515847E+02  0.30000000000E+02  0.47000000000E+01 0. -1.
         -5    1    1    2    0  501  0.15272626362E+02 -0.81263245905E+01  0.24054515847E+02  0.30000000000E+02  0.47000000000E+01 0.  1.
</event>
<event>
 4    1  0.7580225E-002  0.6000000E+02  0.7546771E-02  0.1259629E+00
         11   -1    0    0    0    0  0.00000000000E+00  0.00000000000E+00  0.30000000000E+02  0.30000000000E+02  0.00000000000E+00 0.  1.
        -11   -1    0    0    0    0 -0.00000000000E+00 -0.00000000000E+00 -0.30000000000E+02  0.30000000000E+02  0.00000000000E+00 0. -1.
          5    1    1    2  501    0 -0.15575222023E+02  0.18764929281E+02 -0.16828543847E+02  0.30000000000E+02  0.47000000000E+01 0. -1.
         -5    1    1    2    0  501  0.15575222023E+02 -0.18764929281E+02  0.16828543847E+02  0.30000000000E+02  0.47000000000E+01 0.  1.
</event>
<event>
 4    1  0.7580225E-002  0.6000000E+02  0.7546771E-02  0.1259629E+00
         11   -1    0    0    0    0  0.00000000000E+00  0.00000000000E+00  0.30000000000E+02  0.30000000000E+02  0.00000000000E+00 0.  1.
        -11   -1    0    0    0    0 -0.00000000000E+00 -0.00000000000E+00 -0.30000000000E+02  0.30000000000E+02  0.00000000000E+00 0. -1.
          5    1    1    2  501    0  0.10459936308E+02  0.92108699703E+01 -0.26146885222E+02  0.30000000000E+02  0.47000000000E+01 0. -1.
         -5    1    1    2    0  501 -0.10459936308E+02 -0.92108699703E+01  0.26146885222E+02  0.30000000000E+02  0.47000000000E+01 0.  1.
</event>
<event>
 4    1  0.7580225E-002  0.6000000E+02  0.7546771E-02  0.1259629E+00
         11   -1    0    0    0    0  0.00000000000E+00  0.00000000000E+00  0.30000000000E+02  0.30000000000E+02  0.00000000000E+00 0.  1.
        -11   -1    0    0    0    0 -0.00000000000E+00 -0.00000000000E+00 -0.30000000000E+02  0.30000000000E+02  0.00000000000E+00 0. -1.
          5    1    1    2  501    0  0.15076402493E+02  0.10458692202E+02 -0.23264304101E+02  0.30000000000E+02  0.47000000000E+01 0. -1.
         -5    1    1    2    0  501 -0.15076402493E+02 -0.10458692202E+02  0.23264304101E+02  0.30000000000E+02  0.47000000000E+01 0.  1.
</event>
<event>
 4    1  0.7580225E-002  0.6000000E+02  0.7546771E-02  0.1259629E+00
         11   -1    0    0    0    0  0.00000000000E+00  0.00000000000E+00  0.30000000000E+02  0.30000000000E+02  0.00000000000E+00 0.  1.
        -11   -1    0    0    0    0 -0.00000000000E+00 -0.00000000000E+00 -0.30000000000E+02  0.30000000000E+02  0.00000000000E+00 0. -1.
          5    1    1    2  501    0 -0.71084402356E+01  0.26927744859E+02 -0.10113191101E+02  0.30000000000E+02  0.47000000000E+01 0. -1.
         -5    1    1    2    0  501  0.71084402356E+01 -0.26927744859E+02  0.10113191101E+02  0.30000000000E+02  0.47000000000E+01 0.  1.
</event>
<event>
 4    1  0.7580225E-002  0.6000000E+02  0.7546771E-02  0.1259629E+00
         11   -1    0    0    0    0  0.00000000000E+00  0.00000000000E+00  0.30000000000E+02  0.30000000000E+02  0.00000000000E+00 0.  1.
        -11   -1    0    0    0    0 -0.00000000000E+00 -0.00000000000E+00 -0.30000000000E+02  0.30000000000E+02  0.00000000000E+00 0. -1.
          5    1    1    2  501    0  0.14432718513E+02 -0.52531899063E+01 -0.25337928726E+02  0.30000000000E+02  0.47000000000E+01 0. -1.
         -5    1    1    2    0  501 -0.14432718513E+02  0.52531899063E+01  0.25337928726E+02  0.30000000000E+02  0.47000000000E+01 0.  1.
</event>
<event>
 4    1  0.7580225E-002  0.6000000E+02  0.7546771E-02  0.1259629E+00
         11   -1    0    0    0    0  0.00000000000E+00  0.00000000000E+00  0.30000000000E+02  0.30000000000E+02  0.00000000000E+00 0.  1.
        -11   -1    0    0    0    0 -0.00000000000E+00 -0.00000000000E+00 -0.30000000000E+02  0.30000000000E+02  0.00000000000E+00 0. -1.
          5    1    1    2  501    0  0.89631248536E+00 -0.76419572706E+01 -0.28613058435E+02  0.30000000000E+02  0.47000000000E+01 0. -1.
         -5    1    1    2    0  501 -0.89631248536E+00  0.76419572706E+01  0.28613058435E+02  0.30000000000E+02  0.47000000000E+01 0.  1.
</event>
<event>
 4    1  0.7580225E-002  0.6000000E+02  0.7546771E-02  0.1259629E+00
         11   -1    0    0    0    0  0.00000000000E+00  0.00000000000E+00  0.30000000000E+02  0.30000000000E+02  0.00000000000E+00 0. -1.
        -11   -1    0    0    0    0 -0.00000000000E+00 -0.00000000000E+00 -0.30000000000E+02  0.30000000000E+02  0.00000000000E+00 0.  1.
          5    1    1    2  501    0  0.17983169331E+02  0.10986784855E+02  0.20828014293E+02  0.30000000000E+02  0.47000000000E+01 0. -1.
         -5    1    1    2    0  501 -0.17983169331E+02 -0.10986784855E+02 -0.20828014293E+02  0.30000000000E+02  0.47000000000E+01 0.  1.
</event>
<event>
 4    1  0.7580225E-002  0.6000000E+02  0.7546771E-02  0.1259629E+00
         11   -1    0    0    0    0  0.00000000000E+00  0.00000000000E+00  0.30000000000E+02  0.30000000000E+02  0.00000000000E+00 0.  1.
        -11   -1    0    0    0    0 -0.00000000000E+00 -0.00000000000E+00 -0.30000000000E+02  0.30000000000E+02  0.00000000000E+00 0. -1.
          5    1    1    2  501    0  0.49409295452E+01 -0.27424804871E+02  0.10068629153E+02  0.30000000000E+02  0.47000000000E+01 0. -1.
         -5    1    1    2    0  501 -0.49409295452E+01  0.27424804871E+02 -0.10068629153E+02  0.30000000000E+02  0.47000000000E+01 0.  1.
</event>
<event>
 4    1  0.7580225E-002  0.6000000E+02  0.7546771E-02  0.1259629E+00
         11   -1    0    0    0    0  0.00000000000E+00  0.00000000000E+00  0.30000000000E+02  0.30000000000E+02  0.00000000000E+00 0.  1.
        -11   -1    0    0    0    0 -0.00000000000E+00 -0.00000000000E+00 -0.30000000000E+02  0.30000000000E+02  0.00000000000E+00 0. -1.
          5    1    1    2  501    0  0.10937487926E+02  0.17990508292E+02 -0.20847613035E+02  0.30000000000E+02  0.47000000000E+01 0. -1.
         -5    1    1    2    0  501 -0.10937487926E+02 -0.17990508292E+02  0.20847613035E+02  0.30000000000E+02  0.47000000000E+01 0.  1.
</event>
<event>
 4    1  0.7580225E-002  0.6000000E+02  0.7546771E-02  0.1259629E+00
         11   -1    0    0    0    0  0.00000000000E+00  0.00000000000E+00  0.30000000000E+02  0.30000000000E+02  0.00000000000E+00 0.  1.
        -11   -1    0    0    0    0 -0.00000000000E+00 -0.00000000000E+00 -0.30000000000E+02  0.30000000000E+02  0.00000000000E+00 0. -1.
          5    1    1    2  501    0 -0.21153291698E+02 -0.10403875892E+02 -0.17950142528E+02  0.30000000000E+02  0.47000000000E+01 0. -1.
         -5    1    1    2    0  501  0.21153291698E+02  0.10403875892E+02  0.17950142528E+02  0.30000000000E+02  0.47000000000E+01 0.  1.
</event>
<event>
 4    1  0.7580225E-002  0.6000000E+02  0.7546771E-02  0.1259629E+00
         11   -1    0    0    0    0  0.00000000000E+00  0.00000000000E+00  0.30000000000E+02  0.30000000000E+02  0.00000000000E+00 0.  1.
        -11   -1    0    0    0    0 -0.00000000000E+00 -0.00000000000E+00 -0.30000000000E+02  0.30000000000E+02  0.00000000000E+00 0. -1.
          5    1    1    2  501    0 -0.63413804507E+00  0.47182634466E+01 -0.29244586832E+02  0.30000000000E+02  0.47000000000E+01 0. -1.
         -5    1    1    2    0  501  0.63413804507E+00 -0.47182634466E+01  0.29244586832E+02  0.30000000000E+02  0.47000000000E+01 0.  1.
</event>
<event>
 4    1  0.7580225E-002  0.6000000E+02  0.7546771E-02  0.1259629E+00
         11   -1    0    0    0    0  0.00000000000E+00  0.00000000000E+00  0.30000000000E+02  0.30000000000E+02  0.00000000000E+00 0. -1.
        -11   -1    0    0    0    0 -0.00000000000E+00 -0.00000000000E+00 -0.30000000000E+02  0.30000000000E+02  0.00000000000E+00 0.  1.
          5    1    1    2  501    0  0.24072134444E+02  0.16850768053E+02  0.38070932892E+01  0.30000000000E+02  0.47000000000E+01 0.  1.
         -5    1    1    2    0  501 -0.24072134444E+02 -0.16850768053E+02 -0.38070932892E+01  0.30000000000E+02  0.47000000000E+01 0. -1.
</event>
<event>
 4    1  0.7580225E-002  0.6000000E+02  0.7546771E-02  0.1259629E+00
         11   -1    0    0    0    0  0.00000000000E+00  0.00000000000E+00  0.30000000000E+02  0.30000000000E+02  0.00000000000E+00 0.  1.
        -11   -1    0    0    0    0 -0.00000000000E+00 -0.00000000000E+00 -0.30000000000E+02  0.30000000000E+02  0.00000000000E+00 0. -1.
          5    1    1    2  501    0  0.21057819787E+02 -0.19183057016E+02 -0.81540511003E+01  0.30000000000E+02  0.47000000000E+01 0. -1.
         -5    1    1    2    0  501 -0.21057819787E+02  0.19183057016E+02  0.81540511003E+01  0.30000000000E+02  0.47000000000E+01 0.  1.
</event>
<event>
 4    1  0.7580225E-002  0.6000000E+02  0.7546771E-02  0.1259629E+00
         11   -1    0    0    0    0  0.00000000000E+00  0.00000000000E+00  0.30000000000E+02  0.30000000000E+02  0.00000000000E+00 0.  1.
        -11   -1    0    0    0    0 -0.00000000000E+00 -0.00000000000E+00 -0.30000000000E+02  0.30000000000E+02  0.00000000000E+00 0. -1.
          5    1    1    2  501    0  0.24281291619E+02  0.90223943892E+01 -0.14384897524E+02  0.30000000000E+02  0.47000000000E+01 0. -1.
         -5    1    1    2    0  501 -0.24281291619E+02 -0.90223943892E+01  0.14384897524E+02  0.30000000000E+02  0.47000000000E+01 0.  1.
</event>
<event>
 4    1  0.7580225E-002  0.6000000E+02  0.7546771E-02  0.1259629E+00
         11   -1    0    0    0    0  0.00000000000E+00  0.00000000000E+00  0.30000000000E+02  0.30000000000E+02  0.00000000000E+00 0.  1.
        -11   -1    0    0    0    0 -0.00000000000E+00 -0.00000000000E+00 -0.30000000000E+02  0.30000000000E+02  0.00000000000E+00 0. -1.
          5    1    1    2  501    0  0.11421047522E+02 -0.10828289897E+02 -0.25104139328E+02  0.30000000000E+02  0.47000000000E+01 0. -1.
         -5    1    1    2    0  501 -0.11421047522E+02  0.10828289897E+02  0.25104139328E+02  0.30000000000E+02  0.47000000000E+01 0.  1.
</event>
<event>
 4    1  0.7580225E-002  0.6000000E+02  0.7546771E-02  0.1259629E+00
         11   -1    0    0    0    0  0.00000000000E+00  0.00000000000E+00  0.30000000000E+02  0.30000000000E+02  0.00000000000E+00 0.  1.
        -11   -1    0    0    0    0 -0.00000000000E+00 -0.00000000000E+00 -0.30000000000E+02  0.30000000000E+02  0.00000000000E+00 0. -1.
          5    1    1    2  501    0  0.10835848594E+02  0.13098186927E+02  0.24267918833E+02  0.30000000000E+02  0.47000000000E+01 0.  1.
         -5    1    1    2    0  501 -0.10835848594E+02 -0.13098186927E+02 -0.24267918833E+02  0.30000000000E+02  0.47000000000E+01 0. -1.
</event>
<event>
 4    1  0.7580225E-002  0.6000000E+02  0.7546771E-02  0.1259629E+00
         11   -1    0    0    0    0  0.00000000000E+00  0.00000000000E+00  0.30000000000E+02  0.30000000000E+02  0.00000000000E+00 0.  1.
        -11   -1    0    0    0    0 -0.00000000000E+00 -0.00000000000E+00 -0.30000000000E+02  0.30000000000E+02  0.00000000000E+00 0. -1.
          5    1    1    2  501    0 -0.75267334146E+01 -0.21927990868E+02 -0.18450514914E+02  0.30000000000E+02  0.47000000000E+01 0. -1.
         -5    1    1    2    0  501  0.75267334146E+01  0.21927990868E+02  0.18450514914E+02  0.30000000000E+02  0.47000000000E+01 0.  1.
</event>
<event>
 4    1  0.7580225E-002  0.6000000E+02  0.7546771E-02  0.1259629E+00
         11   -1    0    0    0    0  0.00000000000E+00  0.00000000000E+00  0.30000000000E+02  0.30000000000E+02  0.00000000000E+00 0.  1.
        -11   -1    0    0    0    0 -0.00000000000E+00 -0.00000000000E+00 -0.30000000000E+02  0.30000000000E+02  0.00000000000E+00 0. -1.
          5    1    1    2  501    0  0.18135710458E+01 -0.22020354820E+02 -0.19741452168E+02  0.30000000000E+02  0.47000000000E+01 0. -1.
         -5    1    1    2    0  501 -0.18135710458E+01  0.22020354820E+02  0.19741452168E+02  0.30000000000E+02  0.47000000000E+01 0.  1.
</event>
<event>
 4    1  0.7580225E-002  0.6000000E+02  0.7546771E-02  0.1259629E+00
         11   -1    0    0    0    0  0.00000000000E+00  0.00000000000E+00  0.30000000000E+02  0.30000000000E+02  0.00000000000E+00 0.  1.
        -11   -1    0    0    0    0 -0.00000000000E+00 -0.00000000000E+00 -0.30000000000E+02  0.30000000000E+02  0.00000000000E+00 0. -1.
          5    1    1    2  501    0 -0.25365678530E+02 -0.14631856877E+02 -0.45167595717E+01  0.30000000000E+02  0.47000000000E+01 0. -1.
         -5    1    1    2    0  501  0.25365678530E+02  0.14631856877E+02  0.45167595717E+01  0.30000000000E+02  0.47000000000E+01 0.  1.
</event>
<event>
 4    1  0.7580225E-002  0.6000000E+02  0.7546771E-02  0.1259629E+00
         11   -1    0    0    0    0  0.00000000000E+00  0.00000000000E+00  0.30000000000E+02  0.30000000000E+02  0.00000000000E+00 0.  1.
        -11   -1    0    0    0    0 -0.00000000000E+00 -0.00000000000E+00 -0.30000000000E+02  0.30000000000E+02  0.00000000000E+00 0. -1.
          5    1    1    2  501    0  0.13443776468E+02  0.90067727047E+01 -0.24820413367E+02  0.30000000000E+02  0.47000000000E+01 0. -1.
         -5    1    1    2    0  501 -0.13443776468E+02 -0.90067727047E+01  0.24820413367E+02  0.30000000000E+02  0.47000000000E+01 0.  1.
</event>
<event>
 4    1  0.7580225E-002  0.6000000E+02  0.7546771E-02  0.1259629E+00
         11   -1    0    0    0    0  0.00000000000E+00  0.00000000000E+00  0.30000000000E+02  0.30000000000E+02  0.00000000000E+00 0.  1.
        -11   -1    0    0    0    0 -0.00000000000E+00 -0.00000000000E+00 -0.30000000000E+02  0.30000000000E+02  0.00000000000E+00 0. -1.
          5    1    1    2  501    0 -0.19050969938E+02 -0.17178918437E+02  0.14827518529E+02  0.30000000000E+02  0.47000000000E+01 0.  1.
         -5    1    1    2    0  501  0.19050969938E+02  0.17178918437E+02 -0.14827518529E+02  0.30000000000E+02  0.47000000000E+01 0. -1.
</event>
<event>
 4    1  0.7580225E-002  0.6000000E+02  0.7546771E-02  0.1259629E+00
         11   -1    0    0    0    0  0.00000000000E+00  0.00000000000E+00  0.30000000000E+02  0.30000000000E+02  0.00000000000E+00 0.  1.
        -11   -1    0    0    0    0 -0.00000000000E+00 -0.00000000000E+00 -0.30000000000E+02  0.30000000000E+02  0.00000000000E+00 0. -1.
          5    1    1    2  501    0  0.10773226591E+02  0.27857825180E+01 -0.27460644650E+02  0.30000000000E+02  0.47000000000E+01 0. -1.
         -5    1    1    2    0  501 -0.10773226591E+02 -0.27857825180E+01  0.27460644650E+02  0.30000000000E+02  0.47000000000E+01 0.  1.
</event>
<event>
 4    1  0.7580225E-002  0.6000000E+02  0.7546771E-02  0.1259629E+00
         11   -1    0    0    0    0  0.00000000000E+00  0.00000000000E+00  0.30000000000E+02  0.30000000000E+02  0.00000000000E+00 0.  1.
        -11   -1    0    0    0    0 -0.00000000000E+00 -0.00000000000E+00 -0.30000000000E+02  0.30000000000E+02  0.00000000000E+00 0. -1.
          5    1    1    2  501    0 -0.27358169278E+02  0.11111032137E+02  0.24465360385E+01  0.30000000000E+02  0.47000000000E+01 0.  1.
         -5    1    1    2    0  501  0.27358169278E+02 -0.11111032137E+02 -0.24465360385E+01  0.30000000000E+02  0.47000000000E+01 0. -1.
</event>
<event>
 4    1  0.7580225E-002  0.6000000E+02  0.7546771E-02  0.1259629E+00
         11   -1    0    0    0    0  0.00000000000E+00  0.00000000000E+00  0.30000000000E+02  0.30000000000E+02  0.00000000000E+00 0.  1.
        -11   -1    0    0    0    0 -0.00000000000E+00 -0.00000000000E+00 -0.30000000000E+02  0.30000000000E+02  0.00000000000E+00 0. -1.
          5    1    1    2  501    0  0.80116939043E+01 -0.68453829136E+01 -0.27692300257E+02  0.30000000000E+02  0.47000000000E+01 0. -1.
         -5    1    1    2    0  501 -0.80116939043E+01  0.68453829136E+01  0.27692300257E+02  0.30000000000E+02  0.47000000000E+01 0.  1.
</event>
<event>
 4    1  0.7580225E-002  0.6000000E+02  0.7546771E-02  0.1259629E+00
         11   -1    0    0    0    0  0.00000000000E+00  0.00000000000E+00  0.30000000000E+02  0.30000000000E+02  0.00000000000E+00 0.  1.
        -11   -1    0    0    0    0 -0.00000000000E+00 -0.00000000000E+00 -0.30000000000E+02  0.30000000000E+02  0.00000000000E+00 0. -1.
          5    1    1    2  501    0 -0.47900859330E+01  0.25939470009E+02 -0.13494775744E+02  0.30000000000E+02  0.47000000000E+01 0. -1.
         -5    1    1    2    0  501  0.47900859330E+01 -0.25939470009E+02  0.13494775744E+02  0.30000000000E+02  0.47000000000E+01 0.  1.
</event>
<event>
 4    1  0.7580225E-002  0.6000000E+02  0.7546771E-02  0.1259629E+00
         11   -1    0    0    0    0  0.00000000000E+00  0.00000000000E+00  0.30000000000E+02  0.30000000000E+02  0.00000000000E+00 0.  1.
        -11   -1    0    0    0    0 -0.00000000000E+00 -0.00000000000E+00 -0.30000000000E+02  0.30000000000E+02  0.00000000000E+00 0. -1.
          5    1    1    2  501    0  0.67197068838E+01  0.15625989094E+01 -0.28815166563E+02  0.30000000000E+02  0.47000000000E+01 0. -1.
         -5    1    1    2    0  501 -0.67197068838E+01 -0.15625989094E+01  0.28815166563E+02  0.30000000000E+02  0.47000000000E+01 0.  1.
</event>
<event>
 4    1  0.7580225E-002  0.6000000E+02  0.7546771E-02  0.1259629E+00
         11   -1    0    0    0    0  0.00000000000E+00  0.00000000000E+00  0.30000000000E+02  0.30000000000E+02  0.00000000000E+00 0.  1.
        -11   -1    0    0    0    0 -0.00000000000E+00 -0.00000000000E+00 -0.30000000000E+02  0.30000000000E+02  0.00000000000E+00 0. -1.
          5    1    1    2  501    0 -0.24536325576E+01  0.10325797402E+02 -0.27663470413E+02  0.30000000000E+02  0.47000000000E+01 0. -1.
         -5    1    1    2    0  501  0.24536325576E+01 -0.10325797402E+02  0.27663470413E+02  0.30000000000E+02  0.47000000000E+01 0.  1.
</event>
<event>
 4    1  0.7580225E-002  0.6000000E+02  0.7546771E-02  0.1259629E+00
         11   -1    0    0    0    0  0.00000000000E+00  0.00000000000E+00  0.30000000000E+02  0.30000000000E+02  0.00000000000E+00 0.  1.
        -11   -1    0    0    0    0 -0.00000000000E+00 -0.00000000000E+00 -0.30000000000E+02  0.30000000000E+02  0.00000000000E+00 0. -1.
          5    1    1    2  501    0  0.27604332153E+02  0.18000981518E+01 -0.10614635793E+02  0.30000000000E+02  0.47000000000E+01 0. -1.
         -5    1    1    2    0  501 -0.27604332153E+02 -0.18000981518E+01  0.10614635793E+02  0.30000000000E+02  0.47000000000E+01 0.  1.
</event>
<event>
 4    1  0.7580225E-002  0.6000000E+02  0.7546771E-02  0.1259629E+00
         11   -1    0    0    0    0  0.00000000000E+00  0.00000000000E+00  0.30000000000E+02  0.30000000000E+02  0.00000000000E+00 0.  1.
        -11   -1    0    0    0    0 -0.00000000000E+00 -0.00000000000E+00 -0.30000000000E+02  0.30000000000E+02  0.00000000000E+00 0. -1.
          5    1    1    2  501    0 -0.11827654714E+02 -0.12401452556E+02 -0.24170654904E+02  0.30000000000E+02  0.47000000000E+01 0. -1.
         -5    1    1    2    0  501  0.11827654714E+02  0.12401452556E+02  0.24170654904E+02  0.30000000000E+02  0.47000000000E+01 0.  1.
</event>
<event>
 4    1  0.7580225E-002  0.6000000E+02  0.7546771E-02  0.1259629E+00
         11   -1    0    0    0    0  0.00000000000E+00  0.00000000000E+00  0.30000000000E+02  0.30000000000E+02  0.00000000000E+00 0. -1.
        -11   -1    0    0    0    0 -0.00000000000E+00 -0.00000000000E+00 -0.30000000000E+02  0.30000000000E+02  0.00000000000E+00 0.  1.
          5    1    1    2  501    0  0.22715126375E+02  0.73098290770E+01 -0.17564151919E+02  0.30000000000E+02  0.47000000000E+01 0.  1.
         -5    1    1    2    0  501 -0.22715126375E+02 -0.73098290770E+01  0.17564151919E+02  0.30000000000E+02  0.47000000000E+01 0. -1.
</event>
<event>
 4    1  0.7580225E-002  0.6000000E+02  0.7546771E-02  0.1259629E+00
         11   -1    0    0    0    0  0.00000000000E+00  0.00000000000E+00  0.30000000000E+02  0.30000000000E+02  0.00000000000E+00 0. -1.
        -11   -1    0    0    0    0 -0.00000000000E+00 -0.00000000000E+00 -0.30000000000E+02  0.30000000000E+02  0.00000000000E+00 0.  1.
          5    1    1    2  501    0  0.18457917487E+02 -0.22075707979E+01 -0.23072535907E+02  0.30000000000E+02  0.47000000000E+01 0.  1.
         -5    1    1    2    0  501 -0.18457917487E+02  0.22075707979E+01  0.23072535907E+02  0.30000000000E+02  0.47000000000E+01 0. -1.
</event>
<event>
 4    1  0.7580225E-002  0.6000000E+02  0.7546771E-02  0.1259629E+00
         11   -1    0    0    0    0  0.00000000000E+00  0.00000000000E+00  0.30000000000E+02  0.30000000000E+02  0.00000000000E+00 0. -1.
        -11   -1    0    0    0    0 -0.00000000000E+00 -0.00000000000E+00 -0.30000000000E+02  0.30000000000E+02  0.00000000000E+00 0.  1.
          5    1    1    2  501    0  0.23588806585E+02 -0.71197733356E+01 -0.16455607906E+02  0.30000000000E+02  0.47000000000E+01 0.  1.
         -5    1    1    2    0  501 -0.23588806585E+02  0.71197733356E+01  0.16455607906E+02  0.30000000000E+02  0.47000000000E+01 0. -1.
</event>
<event>
 4    1  0.7580225E-002  0.6000000E+02  0.7546771E-02  0.1259629E+00
         11   -1    0    0    0    0  0.00000000000E+00  0.00000000000E+00  0.30000000000E+02  0.30000000000E+02  0.00000000000E+00 0. -1.
        -11   -1    0    0    0    0 -0.00000000000E+00 -0.00000000000E+00 -0.30000000000E+02  0.30000000000E+02  0.00000000000E+00 0.  1.
          5    1    1    2  501    0 -0.96375897967E+01  0.56200766949E+01 -0.27448890704E+02  0.30000000000E+02  0.47000000000E+01 0.  1.
         -5    1    1    2    0  501  0.96375897967E+01 -0.56200766949E+01  0.27448890704E+02  0.30000000000E+02  0.47000000000E+01 0. -1.
</event>
<event>
 4    1  0.7580225E-002  0.6000000E+02  0.7546771E-02  0.1259629E+00
         11   -1    0    0    0    0  0.00000000000E+00  0.00000000000E+00  0.30000000000E+02  0.30000000000E+02  0.00000000000E+00 0. -1.
        -11   -1    0    0    0    0 -0.00000000000E+00 -0.00000000000E+00 -0.30000000000E+02  0.30000000000E+02  0.00000000000E+00 0.  1.
          5    1    1    2  501    0  0.10018358942E+02 -0.12377247232E+02  0.24986921280E+02  0.30000000000E+02  0.47000000000E+01 0. -1.
         -5    1    1    2    0  501 -0.10018358942E+02  0.12377247232E+02 -0.24986921280E+02  0.30000000000E+02  0.47000000000E+01 0.  1.
</event>
<event>
 4    1  0.7580225E-002  0.6000000E+02  0.7546771E-02  0.1259629E+00
         11   -1    0    0    0    0  0.00000000000E+00  0.00000000000E+00  0.30000000000E+02  0.30000000000E+02  0.00000000000E+00 0.  1.
        -11   -1    0    0    0    0 -0.00000000000E+00 -0.00000000000E+00 -0.30000000000E+02  0.30000000000E+02  0.00000000000E+00 0. -1.
          5    1    1    2  501    0  0.18778175289E+01  0.28131094259E+02  0.91118240290E+01  0.30000000000E+02  0.47000000000E+01 0. -1.
         -5    1    1    2    0  501 -0.18778175289E+01 -0.28131094259E+02 -0.91118240290E+01  0.30000000000E+02  0.47000000000E+01 0.  1.
</event>
<event>
 4    1  0.7580225E-002  0.6000000E+02  0.7546771E-02  0.1259629E+00
         11   -1    0    0    0    0  0.00000000000E+00  0.00000000000E+00  0.30000000000E+02  0.30000000000E+02  0.00000000000E+00 0.  1.
        -11   -1    0    0    0    0 -0.00000000000E+00 -0.00000000000E+00 -0.30000000000E+02  0.30000000000E+02  0.00000000000E+00 0. -1.
          5    1    1    2  501    0 -0.21440151105E+02  0.16145987308E+02 -0.12551375002E+02  0.30000000000E+02  0.47000000000E+01 0. -1.
         -5    1    1    2    0  501  0.21440151105E+02 -0.16145987308E+02  0.12551375002E+02  0.30000000000E+02  0.47000000000E+01 0.  1.
</event>
<event>
 4    1  0.7580225E-002  0.6000000E+02  0.7546771E-02  0.1259629E+00
         11   -1    0    0    0    0  0.00000000000E+00  0.00000000000E+00  0.30000000000E+02  0.30000000000E+02  0.00000000000E+00 0.  1.
        -11   -1    0    0    0    0 -0.00000000000E+00 -0.00000000000E+00 -0.30000000000E+02  0.30000000000E+02  0.00000000000E+00 0. -1.
          5    1    1    2  501    0 -0.11075996505E+02 -0.90872215921E+01 -0.25935587619E+02  0.30000000000E+02  0.47000000000E+01 0. -1.
         -5    1    1    2    0  501  0.11075996505E+02  0.90872215921E+01  0.25935587619E+02  0.30000000000E+02  0.47000000000E+01 0.  1.
</event>
<event>
 4    1  0.7580225E-002  0.6000000E+02  0.7546771E-02  0.1259629E+00
         11   -1    0    0    0    0  0.00000000000E+00  0.00000000000E+00  0.30000000000E+02  0.30000000000E+02  0.00000000000E+00 0.  1.
        -11   -1    0    0    0    0 -0.00000000000E+00 -0.00000000000E+00 -0.30000000000E+02  0.30000000000E+02  0.00000000000E+00 0. -1.
          5    1    1    2  501    0  0.13976849990E+02 -0.98958666583E+01 -0.24179112627E+02  0.30000000000E+02  0.47000000000E+01 0. -1.
         -5    1    1    2    0  501 -0.13976849990E+02  0.98958666583E+01  0.24179112627E+02  0.30000000000E+02  0.47000000000E+01 0.  1.
</event>
<event>
 4    1  0.7580225E-002  0.6000000E+02  0.7546771E-02  0.1259629E+00
         11   -1    0    0    0    0  0.00000000000E+00  0.00000000000E+00  0.30000000000E+02  0.30000000000E+02  0.00000000000E+00 0.  1.
        -11   -1    0    0    0    0 -0.00000000000E+00 -0.00000000000E+00 -0.30000000000E+02  0.30000000000E+02  0.00000000000E+00 0. -1.
          5    1    1    2  501    0  0.21931318691E+02 -0.24936796190E+01 -0.19766355821E+02  0.30000000000E+02  0.47000000000E+01 0. -1.
         -5    1    1    2    0  501 -0.21931318691E+02  0.24936796190E+01  0.19766355821E+02  0.30000000000E+02  0.47000000000E+01 0.  1.
</event>
<event>
 4    1  0.7580225E-002  0.6000000E+02  0.7546771E-02  0.1259629E+00
         11   -1    0    0    0    0  0.00000000000E+00  0.00000000000E+00  0.30000000000E+02  0.30000000000E+02  0.00000000000E+00 0.  1.
        -11   -1    0    0    0    0 -0.00000000000E+00 -0.00000000000E+00 -0.30000000000E+02  0.30000000000E+02  0.00000000000E+00 0. -1.
          5    1    1    2  501    0  0.73027898221E+01 -0.21144724059E+02  0.19428842098E+02  0.30000000000E+02  0.47000000000E+01 0.  1.
         -5    1    1    2    0  501 -0.73027898221E+01  0.21144724059E+02 -0.19428842098E+02  0.30000000000E+02  0.47000000000E+01 0. -1.
</event>
<event>
 4    1  0.7580225E-002  0.6000000E+02  0.7546771E-02  0.1259629E+00
         11   -1    0    0    0    0  0.00000000000E+00  0.00000000000E+00  0.30000000000E+02  0.30000000000E+02  0.00000000000E+00 0. -1.
        -11   -1    0    0    0    0 -0.00000000000E+00 -0.00000000000E+00 -0.30000000000E+02  0.30000000000E+02  0.00000000000E+00 0.  1.
          5    1    1    2  501    0  0.20808540126E+01  0.27468545564E+02 -0.10911418386E+02  0.30000000000E+02  0.47000000000E+01 0.  1.
         -5    1    1    2    0  501 -0.20808540126E+01 -0.27468545564E+02  0.10911418386E+02  0.30000000000E+02  0.47000000000E+01 0. -1.
</event>
<event>
 4    1  0.7580225E-002  0.6000000E+02  0.7546771E-02  0.1259629E+00
         11   -1    0    0    0    0  0.00000000000E+00  0.00000000000E+00  0.30000000000E+02  0.30000000000E+02  0.00000000000E+00 0.  1.
        -11   -1    0    0    0    0 -0.00000000000E+00 -0.00000000000E+00 -0.30000000000E+02  0.30000000000E+02  0.00000000000E+00 0. -1.
          5    1    1    2  501    0  0.85083994111E+00 -0.13708415856E+02 -0.26253864594E+02  0.30000000000E+02  0.47000000000E+01 0. -1.
         -5    1    1    2    0  501 -0.85083994111E+00  0.13708415856E+02  0.26253864594E+02  0.30000000000E+02  0.47000000000E+01 0.  1.
</event>
<event>
 4    1  0.7580225E-002  0.6000000E+02  0.7546771E-02  0.1259629E+00
         11   -1    0    0    0    0  0.00000000000E+00  0.00000000000E+00  0.30000000000E+02  0.30000000000E+02  0.00000000000E+00 0.  1.
        -11   -1    0    0    0    0 -0.00000000000E+00 -0.00000000000E+00 -0.30000000000E+02  0.30000000000E+02  0.00000000000E+00 0. -1.
          5    1    1    2  501    0  0.22470790859E+02 -0.11627784248E+02 -0.15419733839E+02  0.30000000000E+02  0.47000000000E+01 0. -1.
         -5    1    1    2    0  501 -0.22470790859E+02  0.11627784248E+02  0.15419733839E+02  0.30000000000E+02  0.47000000000E+01 0.  1.
</event>
<event>
 4    1  0.7580225E-002  0.6000000E+02  0.7546771E-02  0.1259629E+00
         11   -1    0    0    0    0  0.00000000000E+00  0.00000000000E+00  0.30000000000E+02  0.30000000000E+02  0.00000000000E+00 0.  1.
        -11   -1    0    0    0    0 -0.00000000000E+00 -0.00000000000E+00 -0.30000000000E+02  0.30000000000E+02  0.00000000000E+00 0. -1.
          5    1    1    2  501    0 -0.21957021490E+02  0.16192800992E+02  0.11558217999E+02  0.30000000000E+02  0.47000000000E+01 0. -1.
         -5    1    1    2    0  501  0.21957021490E+02 -0.16192800992E+02 -0.11558217999E+02  0.30000000000E+02  0.47000000000E+01 0.  1.
</event>
<event>
 4    1  0.7580225E-002  0.6000000E+02  0.7546771E-02  0.1259629E+00
         11   -1    0    0    0    0  0.00000000000E+00  0.00000000000E+00  0.30000000000E+02  0.30000000000E+02  0.00000000000E+00 0.  1.
        -11   -1    0    0    0    0 -0.00000000000E+00 -0.00000000000E+00 -0.30000000000E+02  0.30000000000E+02  0.00000000000E+00 0. -1.
          5    1    1    2  501    0 -0.27626254409E+02 -0.65312769188E+01 -0.84877847030E+01  0.30000000000E+02  0.47000000000E+01 0. -1.
         -5    1    1    2    0  501  0.27626254409E+02  0.65312769188E+01  0.84877847030E+01  0.30000000000E+02  0.47000000000E+01 0.  1.
</event>
<event>
 4    1  0.7580225E-002  0.6000000E+02  0.7546771E-02  0.1259629E+00
         11   -1    0    0    0    0  0.00000000000E+00  0.00000000000E+00  0.30000000000E+02  0.30000000000E+02  0.00000000000E+00 0.  1.
        -11   -1    0    0    0    0 -0.00000000000E+00 -0.00000000000E+00 -0.30000000000E+02  0.30000000000E+02  0.00000000000E+00 0. -1.
          5    1    1    2  501    0  0.13918604872E+02 -0.18713769228E+02 -0.18275045272E+02  0.30000000000E+02  0.47000000000E+01 0. -1.
         -5    1    1    2    0  501 -0.13918604872E+02  0.18713769228E+02  0.18275045272E+02  0.30000000000E+02  0.47000000000E+01 0.  1.
</event>
<event>
 4    1  0.7580225E-002  0.6000000E+02  0.7546771E-02  0.1259629E+00
         11   -1    0    0    0    0  0.00000000000E+00  0.00000000000E+00  0.30000000000E+02  0.30000000000E+02  0.00000000000E+00 0. -1.
        -11   -1    0    0    0    0 -0.00000000000E+00 -0.00000000000E+00 -0.30000000000E+02  0.30000000000E+02  0.00000000000E+00 0.  1.
          5    1    1    2  501    0 -0.20996195718E+02 -0.94879615956E+01 -0.18629233751E+02  0.30000000000E+02  0.47000000000E+01 0.  1.
         -5    1    1    2    0  501  0.20996195718E+02  0.94879615956E+01  0.18629233751E+02  0.30000000000E+02  0.47000000000E+01 0. -1.
</event>
<event>
 4    1  0.7580225E-002  0.6000000E+02  0.7546771E-02  0.1259629E+00
         11   -1    0    0    0    0  0.00000000000E+00  0.00000000000E+00  0.30000000000E+02  0.30000000000E+02  0.00000000000E+00 0.  1.
        -11   -1    0    0    0    0 -0.00000000000E+00 -0.00000000000E+00 -0.30000000000E+02  0.30000000000E+02  0.00000000000E+00 0. -1.
          5    1    1    2  501    0 -0.14516251041E+02  0.51801949067E+01  0.25305217573E+02  0.30000000000E+02  0.47000000000E+01 0.  1.
         -5    1    1    2    0  501  0.14516251041E+02 -0.51801949067E+01 -0.25305217573E+02  0.30000000000E+02  0.47000000000E+01 0. -1.
</event>
<event>
 4    1  0.7580225E-002  0.6000000E+02  0.7546771E-02  0.1259629E+00
         11   -1    0    0    0    0  0.00000000000E+00  0.00000000000E+00  0.30000000000E+02  0.30000000000E+02  0.00000000000E+00 0.  1.
        -11   -1    0    0    0    0 -0.00000000000E+00 -0.00000000000E+00 -0.30000000000E+02  0.30000000000E+02  0.00000000000E+00 0. -1.
          5    1    1    2  501    0 -0.28881433331E+02  0.61853040739E+01 -0.23483658672E+01  0.30000000000E+02  0.47000000000E+01 0. -1.
         -5    1    1    2    0  501  0.28881433331E+02 -0.61853040739E+01  0.23483658672E+01  0.30000000000E+02  0.47000000000E+01 0.  1.
</event>
<event>
 4    1  0.7580225E-002  0.6000000E+02  0.7546771E-02  0.1259629E+00
         11   -1    0    0    0    0  0.00000000000E+00  0.00000000000E+00  0.30000000000E+02  0.30000000000E+02  0.00000000000E+00 0.  1.
        -11   -1    0    0    0    0 -0.00000000000E+00 -0.00000000000E+00 -0.30000000000E+02  0.30000000000E+02  0.00000000000E+00 0. -1.
          5    1    1    2  501    0 -0.14057718669E+02 -0.23599627431E+02 -0.11106220371E+02  0.30000000000E+02  0.47000000000E+01 0. -1.
         -5    1    1    2    0  501  0.14057718669E+02  0.23599627431E+02  0.11106220371E+02  0.30000000000E+02  0.47000000000E+01 0.  1.
</event>
<event>
 4    1  0.7580225E-002  0.6000000E+02  0.7546771E-02  0.1259629E+00
         11   -1    0    0    0    0  0.00000000000E+00  0.00000000000E+00  0.30000000000E+02  0.30000000000E+02  0.00000000000E+00 0.  1.
        -11   -1    0    0    0    0 -0.00000000000E+00 -0.00000000000E+00 -0.30000000000E+02  0.30000000000E+02  0.00000000000E+00 0. -1.
          5    1    1    2  501    0 -0.27931965288E+02 -0.88568169082E+01 -0.43900010721E+01  0.30000000000E+02  0.47000000000E+01 0. -1.
         -5    1    1    2    0  501  0.27931965288E+02  0.88568169082E+01  0.43900010721E+01  0.30000000000E+02  0.47000000000E+01 0.  1.
</event>
<event>
 4    1  0.7580225E-002  0.6000000E+02  0.7546771E-02  0.1259629E+00
         11   -1    0    0    0    0  0.00000000000E+00  0.00000000000E+00  0.30000000000E+02  0.30000000000E+02  0.00000000000E+00 0.  1.
        -11   -1    0    0    0    0 -0.00000000000E+00 -0.00000000000E+00 -0.30000000000E+02  0.30000000000E+02  0.00000000000E+00 0. -1.
          5    1    1    2  501    0 -0.22591664264E+01 -0.14465378720E+02 -0.25759638692E+02  0.30000000000E+02  0.47000000000E+01 0. -1.
         -5    1    1    2    0  501  0.22591664264E+01  0.14465378720E+02  0.25759638692E+02  0.30000000000E+02  0.47000000000E+01 0.  1.
</event>
<event>
 4    1  0.7580225E-002  0.6000000E+02  0.7546771E-02  0.1259629E+00
         11   -1    0    0    0    0  0.00000000000E+00  0.00000000000E+00  0.30000000000E+02  0.30000000000E+02  0.00000000000E+00 0.  1.
        -11   -1    0    0    0    0 -0.00000000000E+00 -0.00000000000E+00 -0.30000000000E+02  0.30000000000E+02  0.00000000000E+00 0. -1.
          5    1    1    2  501    0 -0.90268174656E+01 -0.19909175662E+02 -0.20001282231E+02  0.30000000000E+02  0.47000000000E+01 0. -1.
         -5    1    1    2    0  501  0.90268174656E+01  0.19909175662E+02  0.20001282231E+02  0.30000000000E+02  0.47000000000E+01 0.  1.
</event>
<event>
 4    1  0.7580225E-002  0.6000000E+02  0.7546771E-02  0.1259629E+00
         11   -1    0    0    0    0  0.00000000000E+00  0.00000000000E+00  0.30000000000E+02  0.30000000000E+02  0.00000000000E+00 0. -1.
        -11   -1    0    0    0    0 -0.00000000000E+00 -0.00000000000E+00 -0.30000000000E+02  0.30000000000E+02  0.00000000000E+00 0.  1.
          5    1    1    2  501    0  0.13198443484E+02 -0.48718472582E+01 -0.26076353155E+02  0.30000000000E+02  0.47000000000E+01 0.  1.
         -5    1    1    2    0  501 -0.13198443484E+02  0.48718472582E+01  0.26076353155E+02  0.30000000000E+02  0.47000000000E+01 0. -1.
</event>
<event>
 4    1  0.7580225E-002  0.6000000E+02  0.7546771E-02  0.1259629E+00
         11   -1    0    0    0    0  0.00000000000E+00  0.00000000000E+00  0.30000000000E+02  0.30000000000E+02  0.00000000000E+00 0.  1.
        -11   -1    0    0    0    0 -0.00000000000E+00 -0.00000000000E+00 -0.30000000000E+02  0.30000000000E+02  0.00000000000E+00 0. -1.
          5    1    1    2  501    0 -0.28049460369E+02  0.82396291247E+01  0.48214401289E+01  0.30000000000E+02  0.47000000000E+01 0. -1.
         -5    1    1    2    0  501  0.28049460369E+02 -0.82396291247E+01 -0.48214401289E+01  0.30000000000E+02  0.47000000000E+01 0.  1.
</event>
<event>
 4    1  0.7580225E-002  0.6000000E+02  0.7546771E-02  0.1259629E+00
         11   -1    0    0    0    0  0.00000000000E+00  0.00000000000E+00  0.30000000000E+02  0.30000000000E+02  0.00000000000E+00 0.  1.
        -11   -1    0    0    0    0 -0.00000000000E+00 -0.00000000000E+00 -0.30000000000E+02  0.30000000000E+02  0.00000000000E+00 0. -1.
          5    1    1    2  501    0 -0.17846480078E+02  0.14811283173E+02 -0.18440147493E+02  0.30000000000E+02  0.47000000000E+01 0. -1.
         -5    1    1    2    0  501  0.17846480078E+02 -0.14811283173E+02  0.18440147493E+02  0.30000000000E+02  0.47000000000E+01 0.  1.
</event>
<event>
 4    1  0.7580225E-002  0.6000000E+02  0.7546771E-02  0.1259629E+00
         11   -1    0    0    0    0  0.00000000000E+00  0.00000000000E+00  0.30000000000E+02  0.30000000000E+02  0.00000000000E+00 0. -1.
        -11   -1    0    0    0    0 -0.00000000000E+00 -0.00000000000E+00 -0.30000000000E+02  0.30000000000E+02  0.00000000000E+00 0.  1.
          5    1    1    2  501    0  0.27940872654E+01  0.20884008046E+02 -0.20831737429E+02  0.30000000000E+02  0.47000000000E+01 0.  1.
         -5    1    1    2    0  501 -0.27940872654E+01 -0.20884008046E+02  0.20831737429E+02  0.30000000000E+02  0.47000000000E+01 0. -1.
</event>
<event>
 4    1  0.7580225E-002  0.6000000E+02  0.7546771E-02  0.1259629E+00
         11   -1    0    0    0    0  0.00000000000E+00  0.00000000000E+00  0.30000000000E+02  0.30000000000E+02  0.00000000000E+00 0. -1.
        -11   -1    0    0    0    0 -0.00000000000E+00 -0.00000000000E+00 -0.30000000000E+02  0.30000000000E+02  0.00000000000E+00 0.  1.
          5    1    1    2  501    0  0.11127895650E+01 -0.34100638207E+01 -0.29411616143E+02  0.30000000000E+02  0.47000000000E+01 0.  1.
         -5    1    1    2    0  501 -0.11127895650E+01  0.34100638207E+01  0.29411616143E+02  0.30000000000E+02  0.47000000000E+01 0. -1.
</event>
<event>
 4    1  0.7580225E-002  0.6000000E+02  0.7546771E-02  0.1259629E+00
         11   -1    0    0    0    0  0.00000000000E+00  0.00000000000E+00  0.30000000000E+02  0.30000000000E+02  0.00000000000E+00 0. -1.
        -11   -1    0    0    0    0 -0.00000000000E+00 -0.00000000000E+00 -0.30000000000E+02  0.30000000000E+02  0.00000000000E+00 0.  1.
          5    1    1    2  501    0 -0.18039480698E+02  0.12740477725E+02 -0.19752654593E+02  0.30000000000E+02  0.47000000000E+01 0. -1.
         -5    1    1    2    0  501  0.18039480698E+02 -0.12740477725E+02  0.19752654593E+02  0.30000000000E+02  0.47000000000E+01 0.  1.
</event>
<event>
 4    1  0.7580225E-002  0.6000000E+02  0.7546771E-02  0.1259629E+00
         11   -1    0    0    0    0  0.00000000000E+00  0.00000000000E+00  0.30000000000E+02  0.30000000000E+02  0.00000000000E+00 0. -1.
        -11   -1    0    0    0    0 -0.00000000000E+00 -0.00000000000E+00 -0.30000000000E+02  0.30000000000E+02  0.00000000000E+00 0.  1.
          5    1    1    2  501    0 -0.10900261959E+02 -0.95769753073E+01 -0.25833618275E+02  0.30000000000E+02  0.47000000000E+01 0.  1.
         -5    1    1    2    0  501  0.10900261959E+02  0.95769753073E+01  0.25833618275E+02  0.30000000000E+02  0.47000000000E+01 0. -1.
</event>
<event>
 4    1  0.7580225E-002  0.6000000E+02  0.7546771E-02  0.1259629E+00
         11   -1    0    0    0    0  0.00000000000E+00  0.00000000000E+00  0.30000000000E+02  0.30000000000E+02  0.00000000000E+00 0.  1.
        -11   -1    0    0    0    0 -0.00000000000E+00 -0.00000000000E+00 -0.30000000000E+02  0.30000000000E+02  0.00000000000E+00 0. -1.
          5    1    1    2  501    0 -0.22852028248E+02  0.14494217943E+02 -0.12066998432E+02  0.30000000000E+02  0.47000000000E+01 0. -1.
         -5    1    1    2    0  501  0.22852028248E+02 -0.14494217943E+02  0.12066998432E+02  0.30000000000E+02  0.47000000000E+01 0.  1.
</event>
<event>
 4    1  0.7580225E-002  0.6000000E+02  0.7546771E-02  0.1259629E+00
         11   -1    0    0    0    0  0.00000000000E+00  0.00000000000E+00  0.30000000000E+02  0.30000000000E+02  0.00000000000E+00 0.  1.
        -11   -1    0    0    0    0 -0.00000000000E+00 -0.00000000000E+00 -0.30000000000E+02  0.30000000000E+02  0.00000000000E+00 0. -1.
          5    1    1    2  501    0  0.12237857776E+02  0.21257584975E+02 -0.16621068500E+02  0.30000000000E+02  0.47000000000E+01 0. -1.
         -5    1    1    2    0  501 -0.12237857776E+02 -0.21257584975E+02  0.16621068500E+02  0.30000000000E+02  0.47000000000E+01 0.  1.
</event>
<event>
 4    1  0.7580225E-002  0.6000000E+02  0.7546771E-02  0.1259629E+00
         11   -1    0    0    0    0  0.00000000000E+00  0.00000000000E+00  0.30000000000E+02  0.30000000000E+02  0.00000000000E+00 0.  1.
        -11   -1    0    0    0    0 -0.00000000000E+00 -0.00000000000E+00 -0.30000000000E+02  0.30000000000E+02  0.00000000000E+00 0. -1.
          5    1    1    2  501    0  0.25027393516E+02 -0.14904585834E+02  0.54215214573E+01  0.30000000000E+02  0.47000000000E+01 0. -1.
         -5    1    1    2    0  501 -0.25027393516E+02  0.14904585834E+02 -0.54215214573E+01  0.30000000000E+02  0.47000000000E+01 0.  1.
</event>
<event>
 4    1  0.7580225E-002  0.6000000E+02  0.7546771E-02  0.1259629E+00
         11   -1    0    0    0    0  0.00000000000E+00  0.00000000000E+00  0.30000000000E+02  0.30000000000E+02  0.00000000000E+00 0. -1.
        -11   -1    0    0    0    0 -0.00000000000E+00 -0.00000000000E+00 -0.30000000000E+02  0.30000000000E+02  0.00000000000E+00 0.  1.
          5    1    1    2  501    0  0.19176618982E+02 -0.97576155509E+01 -0.20370474299E+02  0.30000000000E+02  0.47000000000E+01 0.  1.
         -5    1    1    2    0  501 -0.19176618982E+02  0.97576155509E+01  0.20370474299E+02  0.30000000000E+02  0.47000000000E+01 0. -1.
</event>
<event>
 4    1  0.7580225E-002  0.6000000E+02  0.7546771E-02  0.1259629E+00
         11   -1    0    0    0    0  0.00000000000E+00  0.00000000000E+00  0.30000000000E+02  0.30000000000E+02  0.00000000000E+00 0.  1.
        -11   -1    0    0    0    0 -0.00000000000E+00 -0.00000000000E+00 -0.30000000000E+02  0.30000000000E+02  0.00000000000E+00 0. -1.
          5    1    1    2  501    0  0.26973881732E+02  0.12190882368E+02 -0.13046422442E+01  0.30000000000E+02  0.47000000000E+01 0. -1.
         -5    1    1    2    0  501 -0.26973881732E+02 -0.12190882368E+02  0.13046422442E+01  0.30000000000E+02  0.47000000000E+01 0.  1.
</event>
<event>
 4    1  0.7580225E-002  0.6000000E+02  0.7546771E-02  0.1259629E+00
         11   -1    0    0    0    0  0.00000000000E+00  0.00000000000E+00  0.30000000000E+02  0.30000000000E+02  0.00000000000E+00 0. -1.
        -11   -1    0    0    0    0 -0.00000000000E+00 -0.00000000000E+00 -0.30000000000E+02  0.30000000000E+02  0.00000000000E+00 0.  1.
          5    1    1    2  501    0  0.21930770696E+02  0.19390070160E+02 -0.45800082840E+01  0.30000000000E+02  0.47000000000E+01 0.  1.
         -5    1    1    2    0  501 -0.21930770696E+02 -0.19390070160E+02  0.45800082840E+01  0.30000000000E+02  0.47000000000E+01 0. -1.
</event>
<event>
 4    1  0.7580225E-002  0.6000000E+02  0.7546771E-02  0.1259629E+00
         11   -1    0    0    0    0  0.00000000000E+00  0.00000000000E+00  0.30000000000E+02  0.30000000000E+02  0.00000000000E+00 0.  1.
        -11   -1    0    0    0    0 -0.00000000000E+00 -0.00000000000E+00 -0.30000000000E+02  0.30000000000E+02  0.00000000000E+00 0. -1.
          5    1    1    2  501    0 -0.16678215381E+02 -0.23689031018E+02  0.62110338207E+01  0.30000000000E+02  0.47000000000E+01 0. -1.
         -5    1    1    2    0  501  0.16678215381E+02  0.23689031018E+02 -0.62110338207E+01  0.30000000000E+02  0.47000000000E+01 0.  1.
</event>
<event>
 4    1  0.7580225E-002  0.6000000E+02  0.7546771E-02  0.1259629E+00
         11   -1    0    0    0    0  0.00000000000E+00  0.00000000000E+00  0.30000000000E+02  0.30000000000E+02  0.00000000000E+00 0.  1.
        -11   -1    0    0    0    0 -0.00000000000E+00 -0.00000000000E+00 -0.30000000000E+02  0.30000000000E+02  0.00000000000E+00 0. -1.
          5    1    1    2  501    0 -0.26426005169E+02  0.85203750311E+01 -0.10343087552E+02  0.30000000000E+02  0.47000000000E+01 0. -1.
         -5    1    1    2    0  501  0.26426005169E+02 -0.85203750311E+01  0.10343087552E+02  0.30000000000E+02  0.47000000000E+01 0.  1.
</event>
<event>
 4    1  0.7580225E-002  0.6000000E+02  0.7546771E-02  0.1259629E+00
         11   -1    0    0    0    0  0.00000000000E+00  0.00000000000E+00  0.30000000000E+02  0.30000000000E+02  0.00000000000E+00 0. -1.
        -11   -1    0    0    0    0 -0.00000000000E+00 -0.00000000000E+00 -0.30000000000E+02  0.30000000000E+02  0.00000000000E+00 0.  1.
          5    1    1    2  501    0  0.81627802448E+01 -0.28304670352E+02 -0.31819262976E+01  0.30000000000E+02  0.47000000000E+01 0.  1.
         -5    1    1    2    0  501 -0.81627802448E+01  0.28304670352E+02  0.31819262976E+01  0.30000000000E+02  0.47000000000E+01 0. -1.
</event>
<event>
 4    1  0.7580225E-002  0.6000000E+02  0.7546771E-02  0.1259629E+00
         11   -1    0    0    0    0  0.00000000000E+00  0.00000000000E+00  0.30000000000E+02  0.30000000000E+02  0.00000000000E+00 0.  1.
        -11   -1    0    0    0    0 -0.00000000000E+00 -0.00000000000E+00 -0.30000000000E+02  0.30000000000E+02  0.00000000000E+00 0. -1.
          5    1    1    2  501    0  0.11449547802E+02  0.17059513858E+02 -0.21349258583E+02  0.30000000000E+02  0.47000000000E+01 0. -1.
         -5    1    1    2    0  501 -0.11449547802E+02 -0.17059513858E+02  0.21349258583E+02  0.30000000000E+02  0.47000000000E+01 0.  1.
</event>
<event>
 4    1  0.7580225E-002  0.6000000E+02  0.7546771E-02  0.1259629E+00
         11   -1    0    0    0    0  0.00000000000E+00  0.00000000000E+00  0.30000000000E+02  0.30000000000E+02  0.00000000000E+00 0.  1.
        -11   -1    0    0    0    0 -0.00000000000E+00 -0.00000000000E+00 -0.30000000000E+02  0.30000000000E+02  0.00000000000E+00 0. -1.
          5    1    1    2  501    0  0.11983566183E+02 -0.18962665473E+01 -0.27031616946E+02  0.30000000000E+02  0.47000000000E+01 0. -1.
         -5    1    1    2    0  501 -0.11983566183E+02  0.18962665473E+01  0.27031616946E+02  0.30000000000E+02  0.47000000000E+01 0.  1.
</event>
<event>
 4    1  0.7580225E-002  0.6000000E+02  0.7546771E-02  0.1259629E+00
         11   -1    0    0    0    0  0.00000000000E+00  0.00000000000E+00  0.30000000000E+02  0.30000000000E+02  0.00000000000E+00 0.  1.
        -11   -1    0    0    0    0 -0.00000000000E+00 -0.00000000000E+00 -0.30000000000E+02  0.30000000000E+02  0.00000000000E+00 0. -1.
          5    1    1    2  501    0 -0.13601871280E+02 -0.26087702601E+02  0.35115339536E+01  0.30000000000E+02  0.47000000000E+01 0. -1.
         -5    1    1    2    0  501  0.13601871280E+02  0.26087702601E+02 -0.35115339536E+01  0.30000000000E+02  0.47000000000E+01 0.  1.
</event>
<event>
 4    1  0.7580225E-002  0.6000000E+02  0.7546771E-02  0.1259629E+00
         11   -1    0    0    0    0  0.00000000000E+00  0.00000000000E+00  0.30000000000E+02  0.30000000000E+02  0.00000000000E+00 0.  1.
        -11   -1    0    0    0    0 -0.00000000000E+00 -0.00000000000E+00 -0.30000000000E+02  0.30000000000E+02  0.00000000000E+00 0. -1.
          5    1    1    2  501    0  0.11530172926E+01 -0.29467895022E+02  0.28677018842E+01  0.30000000000E+02  0.47000000000E+01 0. -1.
         -5    1    1    2    0  501 -0.11530172926E+01  0.29467895022E+02 -0.28677018842E+01  0.30000000000E+02  0.47000000000E+01 0.  1.
</event>
<event>
 4    1  0.7580225E-002  0.6000000E+02  0.7546771E-02  0.1259629E+00
         11   -1    0    0    0    0  0.00000000000E+00  0.00000000000E+00  0.30000000000E+02  0.30000000000E+02  0.00000000000E+00 0.  1.
        -11   -1    0    0    0    0 -0.00000000000E+00 -0.00000000000E+00 -0.30000000000E+02  0.30000000000E+02  0.00000000000E+00 0. -1.
          5    1    1    2  501    0 -0.10730066122E+02 -0.38874808931E+01 -0.27343430167E+02  0.30000000000E+02  0.47000000000E+01 0. -1.
         -5    1    1    2    0  501  0.10730066122E+02  0.38874808931E+01  0.27343430167E+02  0.30000000000E+02  0.47000000000E+01 0.  1.
</event>
<event>
 4    1  0.7580225E-002  0.6000000E+02  0.7546771E-02  0.1259629E+00
         11   -1    0    0    0    0  0.00000000000E+00  0.00000000000E+00  0.30000000000E+02  0.30000000000E+02  0.00000000000E+00 0.  1.
        -11   -1    0    0    0    0 -0.00000000000E+00 -0.00000000000E+00 -0.30000000000E+02  0.30000000000E+02  0.00000000000E+00 0. -1.
          5    1    1    2  501    0 -0.25370092790E+02 -0.13315149000E+02 -0.75481917641E+01  0.30000000000E+02  0.47000000000E+01 0. -1.
         -5    1    1    2    0  501  0.25370092790E+02  0.13315149000E+02  0.75481917641E+01  0.30000000000E+02  0.47000000000E+01 0.  1.
</event>
<event>
 4    1  0.7580225E-002  0.6000000E+02  0.7546771E-02  0.1259629E+00
         11   -1    0    0    0    0  0.00000000000E+00  0.00000000000E+00  0.30000000000E+02  0.30000000000E+02  0.00000000000E+00 0. -1.
        -11   -1    0    0    0    0 -0.00000000000E+00 -0.00000000000E+00 -0.30000000000E+02  0.30000000000E+02  0.00000000000E+00 0.  1.
          5    1    1    2  501    0  0.23793244682E+02  0.60918888393E+01 -0.16573484784E+02  0.30000000000E+02  0.47000000000E+01 0.  1.
         -5    1    1    2    0  501 -0.23793244682E+02 -0.60918888393E+01  0.16573484784E+02  0.30000000000E+02  0.47000000000E+01 0. -1.
</event>
<event>
 4    1  0.7580225E-002  0.6000000E+02  0.7546771E-02  0.1259629E+00
         11   -1    0    0    0    0  0.00000000000E+00  0.00000000000E+00  0.30000000000E+02  0.30000000000E+02  0.00000000000E+00 0.  1.
        -11   -1    0    0    0    0 -0.00000000000E+00 -0.00000000000E+00 -0.30000000000E+02  0.30000000000E+02  0.00000000000E+00 0. -1.
          5    1    1    2  501    0  0.19686218897E+02  0.22144065195E+02 -0.56233456728E-01  0.30000000000E+02  0.47000000000E+01 0. -1.
         -5    1    1    2    0  501 -0.19686218897E+02 -0.22144065195E+02  0.56233456728E-01  0.30000000000E+02  0.47000000000E+01 0.  1.
</event>
<event>
 4    1  0.7580225E-002  0.6000000E+02  0.7546771E-02  0.1259629E+00
         11   -1    0    0    0    0  0.00000000000E+00  0.00000000000E+00  0.30000000000E+02  0.30000000000E+02  0.00000000000E+00 0.  1.
        -11   -1    0    0    0    0 -0.00000000000E+00 -0.00000000000E+00 -0.30000000000E+02  0.30000000000E+02  0.00000000000E+00 0. -1.
          5    1    1    2  501    0  0.12672759445E+02 -0.48636153635E+00 -0.26778249019E+02  0.30000000000E+02  0.47000000000E+01 0. -1.
         -5    1    1    2    0  501 -0.12672759445E+02  0.48636153635E+00  0.26778249019E+02  0.30000000000E+02  0.47000000000E+01 0.  1.
</event>
<event>
 4    1  0.7580225E-002  0.6000000E+02  0.7546771E-02  0.1259629E+00
         11   -1    0    0    0    0  0.00000000000E+00  0.00000000000E+00  0.30000000000E+02  0.30000000000E+02  0.00000000000E+00 0.  1.
        -11   -1    0    0    0    0 -0.00000000000E+00 -0.00000000000E+00 -0.30000000000E+02  0.30000000000E+02  0.00000000000E+00 0. -1.
          5    1    1    2  501    0 -0.52779924909E+00  0.25061704113E+02 -0.15796911563E+02  0.30000000000E+02  0.47000000000E+01 0. -1.
         -5    1    1    2    0  501  0.52779924909E+00 -0.25061704113E+02  0.15796911563E+02  0.30000000000E+02  0.47000000000E+01 0.  1.
</event>
<event>
 4    1  0.7580225E-002  0.6000000E+02  0.7546771E-02  0.1259629E+00
         11   -1    0    0    0    0  0.00000000000E+00  0.00000000000E+00  0.30000000000E+02  0.30000000000E+02  0.00000000000E+00 0.  1.
        -11   -1    0    0    0    0 -0.00000000000E+00 -0.00000000000E+00 -0.30000000000E+02  0.30000000000E+02  0.00000000000E+00 0. -1.
          5    1    1    2  501    0  0.28940484989E+02 -0.38201416491E+01 -0.50759084275E+01  0.30000000000E+02  0.47000000000E+01 0. -1.
         -5    1    1    2    0  501 -0.28940484989E+02  0.38201416491E+01  0.50759084275E+01  0.30000000000E+02  0.47000000000E+01 0.  1.
</event>
<event>
 4    1  0.7580225E-002  0.6000000E+02  0.7546771E-02  0.1259629E+00
         11   -1    0    0    0    0  0.00000000000E+00  0.00000000000E+00  0.30000000000E+02  0.30000000000E+02  0.00000000000E+00 0. -1.
        -11   -1    0    0    0    0 -0.00000000000E+00 -0.00000000000E+00 -0.30000000000E+02  0.30000000000E+02  0.00000000000E+00 0.  1.
          5    1    1    2  501    0 -0.83275227733E+01  0.28402161889E+02 -0.13709720884E+01  0.30000000000E+02  0.47000000000E+01 0.  1.
         -5    1    1    2    0  501  0.83275227733E+01 -0.28402161889E+02  0.13709720884E+01  0.30000000000E+02  0.47000000000E+01 0. -1.
</event>
<event>
 4    1  0.7580225E-002  0.6000000E+02  0.7546771E-02  0.1259629E+00
         11   -1    0    0    0    0  0.00000000000E+00  0.00000000000E+00  0.30000000000E+02  0.30000000000E+02  0.00000000000E+00 0.  1.
        -11   -1    0    0    0    0 -0.00000000000E+00 -0.00000000000E+00 -0.30000000000E+02  0.30000000000E+02  0.00000000000E+00 0. -1.
          5    1    1    2  501    0  0.14473997429E+02  0.53348412883E+01 -0.25297289714E+02  0.30000000000E+02  0.47000000000E+01 0. -1.
         -5    1    1    2    0  501 -0.14473997429E+02 -0.53348412883E+01  0.25297289714E+02  0.30000000000E+02  0.47000000000E+01 0.  1.
</event>
<event>
 4    1  0.7580225E-002  0.6000000E+02  0.7546771E-02  0.1259629E+00
         11   -1    0    0    0    0  0.00000000000E+00  0.00000000000E+00  0.30000000000E+02  0.30000000000E+02  0.00000000000E+00 0.  1.
        -11   -1    0    0    0    0 -0.00000000000E+00 -0.00000000000E+00 -0.30000000000E+02  0.30000000000E+02  0.00000000000E+00 0. -1.
          5    1    1    2  501    0 -0.17753207873E+02  0.60146666086E+01 -0.22946838471E+02  0.30000000000E+02  0.47000000000E+01 0. -1.
         -5    1    1    2    0  501  0.17753207873E+02 -0.60146666086E+01  0.22946838471E+02  0.30000000000E+02  0.47000000000E+01 0.  1.
</event>
<event>
 4    1  0.7580225E-002  0.6000000E+02  0.7546771E-02  0.1259629E+00
         11   -1    0    0    0    0  0.00000000000E+00  0.00000000000E+00  0.30000000000E+02  0.30000000000E+02  0.00000000000E+00 0.  1.
        -11   -1    0    0    0    0 -0.00000000000E+00 -0.00000000000E+00 -0.30000000000E+02  0.30000000000E+02  0.00000000000E+00 0. -1.
          5    1    1    2  501    0  0.11218581717E+02 -0.20870105035E+02 -0.17790225971E+02  0.30000000000E+02  0.47000000000E+01 0. -1.
         -5    1    1    2    0  501 -0.11218581717E+02  0.20870105035E+02  0.17790225971E+02  0.30000000000E+02  0.47000000000E+01 0.  1.
</event>
<event>
 4    1  0.7580225E-002  0.6000000E+02  0.7546771E-02  0.1259629E+00
         11   -1    0    0    0    0  0.00000000000E+00  0.00000000000E+00  0.30000000000E+02  0.30000000000E+02  0.00000000000E+00 0.  1.
        -11   -1    0    0    0    0 -0.00000000000E+00 -0.00000000000E+00 -0.30000000000E+02  0.30000000000E+02  0.00000000000E+00 0. -1.
          5    1    1    2  501    0 -0.14946922089E+02 -0.20375325743E+02  0.15470798976E+02  0.30000000000E+02  0.47000000000E+01 0.  1.
         -5    1    1    2    0  501  0.14946922089E+02  0.20375325743E+02 -0.15470798976E+02  0.30000000000E+02  0.47000000000E+01 0. -1.
</event>
<event>
 4    1  0.7580225E-002  0.6000000E+02  0.7546771E-02  0.1259629E+00
         11   -1    0    0    0    0  0.00000000000E+00  0.00000000000E+00  0.30000000000E+02  0.30000000000E+02  0.00000000000E+00 0.  1.
        -11   -1    0    0    0    0 -0.00000000000E+00 -0.00000000000E+00 -0.30000000000E+02  0.30000000000E+02  0.00000000000E+00 0. -1.
          5    1    1    2  501    0  0.12986117478E+02 -0.16774620990E+02  0.20685329185E+02  0.30000000000E+02  0.47000000000E+01 0.  1.
         -5    1    1    2    0  501 -0.12986117478E+02  0.16774620990E+02 -0.20685329185E+02  0.30000000000E+02  0.47000000000E+01 0. -1.
</event>
<event>
 4    1  0.7580225E-002  0.6000000E+02  0.7546771E-02  0.1259629E+00
         11   -1    0    0    0    0  0.00000000000E+00  0.00000000000E+00  0.30000000000E+02  0.30000000000E+02  0.00000000000E+00 0.  1.
        -11   -1    0    0    0    0 -0.00000000000E+00 -0.00000000000E+00 -0.30000000000E+02  0.30000000000E+02  0.00000000000E+00 0. -1.
          5    1    1    2  501    0 -0.93167364965E+01 -0.73512640706E+00 -0.28117041278E+02  0.30000000000E+02  0.47000000000E+01 0.  1.
         -5    1    1    2    0  501  0.93167364965E+01  0.73512640706E+00  0.28117041278E+02  0.30000000000E+02  0.47000000000E+01 0. -1.
</event>
<event>
 4    1  0.7580225E-002  0.6000000E+02  0.7546771E-02  0.1259629E+00
         11   -1    0    0    0    0  0.00000000000E+00  0.00000000000E+00  0.30000000000E+02  0.30000000000E+02  0.00000000000E+00 0.  1.
        -11   -1    0    0    0    0 -0.00000000000E+00 -0.00000000000E+00 -0.30000000000E+02  0.30000000000E+02  0.00000000000E+00 0. -1.
          5    1    1    2  501    0  0.54042893587E+01  0.14062905138E+02 -0.25513493599E+02  0.30000000000E+02  0.47000000000E+01 0. -1.
         -5    1    1    2    0  501 -0.54042893587E+01 -0.14062905138E+02  0.25513493599E+02  0.30000000000E+02  0.47000000000E+01 0.  1.
</event>
<event>
 4    1  0.7580225E-002  0.6000000E+02  0.7546771E-02  0.1259629E+00
         11   -1    0    0    0    0  0.00000000000E+00  0.00000000000E+00  0.30000000000E+02  0.30000000000E+02  0.00000000000E+00 0.  1.
        -11   -1    0    0    0    0 -0.00000000000E+00 -0.00000000000E+00 -0.30000000000E+02  0.30000000000E+02  0.00000000000E+00 0. -1.
          5    1    1    2  501    0  0.43552084788E+01  0.19968011898E+02 -0.21452754134E+02  0.30000000000E+02  0.47000000000E+01 0. -1.
         -5    1    1    2    0  501 -0.43552084788E+01 -0.19968011898E+02  0.21452754134E+02  0.30000000000E+02  0.47000000000E+01 0.  1.
</event>
<event>
 4    1  0.7580225E-002  0.6000000E+02  0.7546771E-02  0.1259629E+00
         11   -1    0    0    0    0  0.00000000000E+00  0.00000000000E+00  0.30000000000E+02  0.30000000000E+02  0.00000000000E+00 0.  1.
        -11   -1    0    0    0    0 -0.00000000000E+00 -0.00000000000E+00 -0.30000000000E+02  0.30000000000E+02  0.00000000000E+00 0. -1.
          5    1    1    2  501    0  0.61079092151E+01 -0.28751926950E+02  0.37323104984E+01  0.30000000000E+02  0.47000000000E+01 0. -1.
         -5    1    1    2    0  501 -0.61079092151E+01  0.28751926950E+02 -0.37323104984E+01  0.30000000000E+02  0.47000000000E+01 0.  1.
</event>
<event>
 4    1  0.7580225E-002  0.6000000E+02  0.7546771E-02  0.1259629E+00
         11   -1    0    0    0    0  0.00000000000E+00  0.00000000000E+00  0.30000000000E+02  0.30000000000E+02  0.00000000000E+00 0.  1.
        -11   -1    0    0    0    0 -0.00000000000E+00 -0.00000000000E+00 -0.30000000000E+02  0.30000000000E+02  0.00000000000E+00 0. -1.
          5    1    1    2  501    0  0.33701695787E-01  0.13414495263E+02 -0.26418936031E+02  0.30000000000E+02  0.47000000000E+01 0. -1.
         -5    1    1    2    0  501 -0.33701695787E-01 -0.13414495263E+02  0.26418936031E+02  0.30000000000E+02  0.47000000000E+01 0.  1.
</event>
<event>
 4    1  0.7580225E-002  0.6000000E+02  0.7546771E-02  0.1259629E+00
         11   -1    0    0    0    0  0.00000000000E+00  0.00000000000E+00  0.30000000000E+02  0.30000000000E+02  0.00000000000E+00 0.  1.
        -11   -1    0    0    0    0 -0.00000000000E+00 -0.00000000000E+00 -0.30000000000E+02  0.30000000000E+02  0.00000000000E+00 0. -1.
          5    1    1    2  501    0  0.18919493011E+01  0.20678832100E+02 -0.21135667267E+02  0.30000000000E+02  0.47000000000E+01 0. -1.
         -5    1    1    2    0  501 -0.18919493011E+01 -0.20678832100E+02  0.21135667267E+02  0.30000000000E+02  0.47000000000E+01 0.  1.
</event>
<event>
 4    1  0.7580225E-002  0.6000000E+02  0.7546771E-02  0.1259629E+00
         11   -1    0    0    0    0  0.00000000000E+00  0.00000000000E+00  0.30000000000E+02  0.30000000000E+02  0.00000000000E+00 0.  1.
        -11   -1    0    0    0    0 -0.00000000000E+00 -0.00000000000E+00 -0.30000000000E+02  0.30000000000E+02  0.00000000000E+00 0. -1.
          5    1    1    2  501    0  0.10360363290E+02  0.17828847990E+02 -0.21276866590E+02  0.30000000000E+02  0.47000000000E+01 0. -1.
         -5    1    1    2    0  501 -0.10360363290E+02 -0.17828847990E+02  0.21276866590E+02  0.30000000000E+02  0.47000000000E+01 0.  1.
</event>
<event>
 4    1  0.7580225E-002  0.6000000E+02  0.7546771E-02  0.1259629E+00
         11   -1    0    0    0    0  0.00000000000E+00  0.00000000000E+00  0.30000000000E+02  0.30000000000E+02  0.00000000000E+00 0.  1.
        -11   -1    0    0    0    0 -0.00000000000E+00 -0.00000000000E+00 -0.30000000000E+02  0.30000000000E+02  0.00000000000E+00 0. -1.
          5    1    1    2  501    0 -0.42333709170E+01 -0.28284318028E+02  0.77450580595E+01  0.30000000000E+02  0.47000000000E+01 0.  1.
         -5    1    1    2    0  501  0.42333709170E+01  0.28284318028E+02 -0.77450580595E+01  0.30000000000E+02  0.47000000000E+01 0. -1.
</event>
<event>
 4    1  0.7580225E-002  0.6000000E+02  0.7546771E-02  0.1259629E+00
         11   -1    0    0    0    0  0.00000000000E+00  0.00000000000E+00  0.30000000000E+02  0.30000000000E+02  0.00000000000E+00 0. -1.
        -11   -1    0    0    0    0 -0.00000000000E+00 -0.00000000000E+00 -0.30000000000E+02  0.30000000000E+02  0.00000000000E+00 0.  1.
          5    1    1    2  501    0 -0.71626580164E+01  0.28175546478E+02  0.57223169089E+01  0.30000000000E+02  0.47000000000E+01 0.  1.
         -5    1    1    2    0  501  0.71626580164E+01 -0.28175546478E+02 -0.57223169089E+01  0.30000000000E+02  0.47000000000E+01 0. -1.
</event>
<event>
 4    1  0.7580225E-002  0.6000000E+02  0.7546771E-02  0.1259629E+00
         11   -1    0    0    0    0  0.00000000000E+00  0.00000000000E+00  0.30000000000E+02  0.30000000000E+02  0.00000000000E+00 0. -1.
        -11   -1    0    0    0    0 -0.00000000000E+00 -0.00000000000E+00 -0.30000000000E+02  0.30000000000E+02  0.00000000000E+00 0.  1.
          5    1    1    2  501    0 -0.54301728007E+01  0.24740522498E+02  0.15373020844E+02  0.30000000000E+02  0.47000000000E+01 0. -1.
         -5    1    1    2    0  501  0.54301728007E+01 -0.24740522498E+02 -0.15373020844E+02  0.30000000000E+02  0.47000000000E+01 0.  1.
</event>
<event>
 4    1  0.7580225E-002  0.6000000E+02  0.7546771E-02  0.1259629E+00
         11   -1    0    0    0    0  0.00000000000E+00  0.00000000000E+00  0.30000000000E+02  0.30000000000E+02  0.00000000000E+00 0.  1.
        -11   -1    0    0    0    0 -0.00000000000E+00 -0.00000000000E+00 -0.30000000000E+02  0.30000000000E+02  0.00000000000E+00 0. -1.
          5    1    1    2  501    0 -0.17220340886E+02  0.76290964904E+01 -0.22872838619E+02  0.30000000000E+02  0.47000000000E+01 0. -1.
         -5    1    1    2    0  501  0.17220340886E+02 -0.76290964904E+01  0.22872838619E+02  0.30000000000E+02  0.47000000000E+01 0.  1.
</event>
<event>
 4    1  0.7580225E-002  0.6000000E+02  0.7546771E-02  0.1259629E+00
         11   -1    0    0    0    0  0.00000000000E+00  0.00000000000E+00  0.30000000000E+02  0.30000000000E+02  0.00000000000E+00 0.  1.
        -11   -1    0    0    0    0 -0.00000000000E+00 -0.00000000000E+00 -0.30000000000E+02  0.30000000000E+02  0.00000000000E+00 0. -1.
          5    1    1    2  501    0  0.18306915331E+02 -0.15795060334E+02 -0.17125504960E+02  0.30000000000E+02  0.47000000000E+01 0. -1.
         -5    1    1    2    0  501 -0.18306915331E+02  0.15795060334E+02  0.17125504960E+02  0.30000000000E+02  0.47000000000E+01 0.  1.
</event>
<event>
 4    1  0.7580225E-002  0.6000000E+02  0.7546771E-02  0.1259629E+00
         11   -1    0    0    0    0  0.00000000000E+00  0.00000000000E+00  0.30000000000E+02  0.30000000000E+02  0.00000000000E+00 0.  1.
        -11   -1    0    0    0    0 -0.00000000000E+00 -0.00000000000E+00 -0.30000000000E+02  0.30000000000E+02  0.00000000000E+00 0. -1.
          5    1    1    2  501    0 -0.97559177640E+01 -0.89186571274E+01 -0.26517722821E+02  0.30000000000E+02  0.47000000000E+01 0. -1.
         -5    1    1    2    0  501  0.97559177640E+01  0.89186571274E+01  0.26517722821E+02  0.30000000000E+02  0.47000000000E+01 0.  1.
</event>
<event>
 4    1  0.7580225E-002  0.6000000E+02  0.7546771E-02  0.1259629E+00
         11   -1    0    0    0    0  0.00000000000E+00  0.00000000000E+00  0.30000000000E+02  0.30000000000E+02  0.00000000000E+00 0.  1.
        -11   -1    0    0    0    0 -0.00000000000E+00 -0.00000000000E+00 -0.30000000000E+02  0.30000000000E+02  0.00000000000E+00 0. -1.
          5    1    1    2  501    0 -0.14921113963E+02  0.20093908163E+02 -0.15858915879E+02  0.30000000000E+02  0.47000000000E+01 0. -1.
         -5    1    1    2    0  501  0.14921113963E+02 -0.20093908163E+02  0.15858915879E+02  0.30000000000E+02  0.47000000000E+01 0.  1.
</event>
<event>
 4    1  0.7580225E-002  0.6000000E+02  0.7546771E-02  0.1259629E+00
         11   -1    0    0    0    0  0.00000000000E+00  0.00000000000E+00  0.30000000000E+02  0.30000000000E+02  0.00000000000E+00 0.  1.
        -11   -1    0    0    0    0 -0.00000000000E+00 -0.00000000000E+00 -0.30000000000E+02  0.30000000000E+02  0.00000000000E+00 0. -1.
          5    1    1    2  501    0  0.91372012135E+01  0.14174666296E+02 -0.24361863422E+02  0.30000000000E+02  0.47000000000E+01 0. -1.
         -5    1    1    2    0  501 -0.91372012135E+01 -0.14174666296E+02  0.24361863422E+02  0.30000000000E+02  0.47000000000E+01 0.  1.
</event>
<event>
 4    1  0.7580225E-002  0.6000000E+02  0.7546771E-02  0.1259629E+00
         11   -1    0    0    0    0  0.00000000000E+00  0.00000000000E+00  0.30000000000E+02  0.30000000000E+02  0.00000000000E+00 0. -1.
        -11   -1    0    0    0    0 -0.00000000000E+00 -0.00000000000E+00 -0.30000000000E+02  0.30000000000E+02  0.00000000000E+00 0.  1.
          5    1    1    2  501    0  0.58120053513E+00 -0.11863508646E+02  0.27144601094E+02  0.30000000000E+02  0.47000000000E+01 0. -1.
         -5    1    1    2    0  501 -0.58120053513E+00  0.11863508646E+02 -0.27144601094E+02  0.30000000000E+02  0.47000000000E+01 0.  1.
</event>
<event>
 4    1  0.7580225E-002  0.6000000E+02  0.7546771E-02  0.1259629E+00
         11   -1    0    0    0    0  0.00000000000E+00  0.00000000000E+00  0.30000000000E+02  0.30000000000E+02  0.00000000000E+00 0.  1.
        -11   -1    0    0    0    0 -0.00000000000E+00 -0.00000000000E+00 -0.30000000000E+02  0.30000000000E+02  0.00000000000E+00 0. -1.
          5    1    1    2  501    0 -0.21593872611E+02  0.10941843240E+02  0.17084809983E+02  0.30000000000E+02  0.47000000000E+01 0.  1.
         -5    1    1    2    0  501  0.21593872611E+02 -0.10941843240E+02 -0.17084809983E+02  0.30000000000E+02  0.47000000000E+01 0. -1.
</event>
<event>
 4    1  0.7580225E-002  0.6000000E+02  0.7546771E-02  0.1259629E+00
         11   -1    0    0    0    0  0.00000000000E+00  0.00000000000E+00  0.30000000000E+02  0.30000000000E+02  0.00000000000E+00 0. -1.
        -11   -1    0    0    0    0 -0.00000000000E+00 -0.00000000000E+00 -0.30000000000E+02  0.30000000000E+02  0.00000000000E+00 0.  1.
          5    1    1    2  501    0 -0.71593817847E+00  0.25128658648E+01 -0.29514114211E+02  0.30000000000E+02  0.47000000000E+01 0.  1.
         -5    1    1    2    0  501  0.71593817847E+00 -0.25128658648E+01  0.29514114211E+02  0.30000000000E+02  0.47000000000E+01 0. -1.
</event>
<event>
 4    1  0.7580225E-002  0.6000000E+02  0.7546771E-02  0.1259629E+00
         11   -1    0    0    0    0  0.00000000000E+00  0.00000000000E+00  0.30000000000E+02  0.30000000000E+02  0.00000000000E+00 0.  1.
        -11   -1    0    0    0    0 -0.00000000000E+00 -0.00000000000E+00 -0.30000000000E+02  0.30000000000E+02  0.00000000000E+00 0. -1.
          5    1    1    2  501    0 -0.25402737826E+02  0.10234072656E+02 -0.11308168190E+02  0.30000000000E+02  0.47000000000E+01 0. -1.
         -5    1    1    2    0  501  0.25402737826E+02 -0.10234072656E+02  0.11308168190E+02  0.30000000000E+02  0.47000000000E+01 0.  1.
</event>
<event>
 4    1  0.7580225E-002  0.6000000E+02  0.7546771E-02  0.1259629E+00
         11   -1    0    0    0    0  0.00000000000E+00  0.00000000000E+00  0.30000000000E+02  0.30000000000E+02  0.00000000000E+00 0.  1.
        -11   -1    0    0    0    0 -0.00000000000E+00 -0.00000000000E+00 -0.30000000000E+02  0.30000000000E+02  0.00000000000E+00 0. -1.
          5    1    1    2  501    0  0.13797810389E+02  0.21964950614E+02 -0.14320313300E+02  0.30000000000E+02  0.47000000000E+01 0. -1.
         -5    1    1    2    0  501 -0.13797810389E+02 -0.21964950614E+02  0.14320313300E+02  0.30000000000E+02  0.47000000000E+01 0.  1.
</event>
<event>
 4    1  0.7580225E-002  0.6000000E+02  0.7546771E-02  0.1259629E+00
         11   -1    0    0    0    0  0.00000000000E+00  0.00000000000E+00  0.30000000000E+02  0.30000000000E+02  0.00000000000E+00 0. -1.
        -11   -1    0    0    0    0 -0.00000000000E+00 -0.00000000000E+00 -0.30000000000E+02  0.30000000000E+02  0.00000000000E+00 0.  1.
          5    1    1    2  501    0 -0.47362099297E+01 -0.28970081235E+02 -0.40265008037E+01  0.30000000000E+02  0.47000000000E+01 0.  1.
         -5    1    1    2    0  501  0.47362099297E+01  0.28970081235E+02  0.40265008037E+01  0.30000000000E+02  0.47000000000E+01 0. -1.
</event>
<event>
 4    1  0.7580225E-002  0.6000000E+02  0.7546771E-02  0.1259629E+00
         11   -1    0    0    0    0  0.00000000000E+00  0.00000000000E+00  0.30000000000E+02  0.30000000000E+02  0.00000000000E+00 0.  1.
        -11   -1    0    0    0    0 -0.00000000000E+00 -0.00000000000E+00 -0.30000000000E+02  0.30000000000E+02  0.00000000000E+00 0. -1.
          5    1    1    2  501    0 -0.40998257970E+01 -0.63939963588E+01 -0.28639452491E+02  0.30000000000E+02  0.47000000000E+01 0. -1.
         -5    1    1    2    0  501  0.40998257970E+01  0.63939963588E+01  0.28639452491E+02  0.30000000000E+02  0.47000000000E+01 0.  1.
</event>
<event>
 4    1  0.7580225E-002  0.6000000E+02  0.7546771E-02  0.1259629E+00
         11   -1    0    0    0    0  0.00000000000E+00  0.00000000000E+00  0.30000000000E+02  0.30000000000E+02  0.00000000000E+00 0. -1.
        -11   -1    0    0    0    0 -0.00000000000E+00 -0.00000000000E+00 -0.30000000000E+02  0.30000000000E+02  0.00000000000E+00 0.  1.
          5    1    1    2  501    0  0.32049618866E+01  0.17125320761E+02 -0.23965842529E+02  0.30000000000E+02  0.47000000000E+01 0.  1.
         -5    1    1    2    0  501 -0.32049618866E+01 -0.17125320761E+02  0.23965842529E+02  0.30000000000E+02  0.47000000000E+01 0. -1.
</event>
<event>
 4    1  0.7580225E-002  0.6000000E+02  0.7546771E-02  0.1259629E+00
         11   -1    0    0    0    0  0.00000000000E+00  0.00000000000E+00  0.30000000000E+02  0.30000000000E+02  0.00000000000E+00 0.  1.
        -11   -1    0    0    0    0 -0.00000000000E+00 -0.00000000000E+00 -0.30000000000E+02  0.30000000000E+02  0.00000000000E+00 0. -1.
          5    1    1    2  501    0 -0.13378945976E+02  0.97085089236E+01 -0.24589808032E+02  0.30000000000E+02  0.47000000000E+01 0. -1.
         -5    1    1    2    0  501  0.13378945976E+02 -0.97085089236E+01  0.24589808032E+02  0.30000000000E+02  0.47000000000E+01 0.  1.
</event>
<event>
 4    1  0.7580225E-002  0.6000000E+02  0.7546771E-02  0.1259629E+00
         11   -1    0    0    0    0  0.00000000000E+00  0.00000000000E+00  0.30000000000E+02  0.30000000000E+02  0.00000000000E+00 0.  1.
        -11   -1    0    0    0    0 -0.00000000000E+00 -0.00000000000E+00 -0.30000000000E+02  0.30000000000E+02  0.00000000000E+00 0. -1.
          5    1    1    2  501    0 -0.11404193585E+02  0.57933540082E+01  0.26726230898E+02  0.30000000000E+02  0.47000000000E+01 0.  1.
         -5    1    1    2    0  501  0.11404193585E+02 -0.57933540082E+01 -0.26726230898E+02  0.30000000000E+02  0.47000000000E+01 0. -1.
</event>
<event>
 4    1  0.7580225E-002  0.6000000E+02  0.7546771E-02  0.1259629E+00
         11   -1    0    0    0    0  0.00000000000E+00  0.00000000000E+00  0.30000000000E+02  0.30000000000E+02  0.00000000000E+00 0.  1.
        -11   -1    0    0    0    0 -0.00000000000E+00 -0.00000000000E+00 -0.30000000000E+02  0.30000000000E+02  0.00000000000E+00 0. -1.
          5    1    1    2  501    0 -0.36865350564E+01 -0.15726058991E+01 -0.29357220065E+02  0.30000000000E+02  0.47000000000E+01 0. -1.
         -5    1    1    2    0  501  0.36865350564E+01  0.15726058991E+01  0.29357220065E+02  0.30000000000E+02  0.47000000000E+01 0.  1.
</event>
<event>
 4    1  0.7580225E-002  0.6000000E+02  0.7546771E-02  0.1259629E+00
         11   -1    0    0    0    0  0.00000000000E+00  0.00000000000E+00  0.30000000000E+02  0.30000000000E+02  0.00000000000E+00 0.  1.
        -11   -1    0    0    0    0 -0.00000000000E+00 -0.00000000000E+00 -0.30000000000E+02  0.30000000000E+02  0.00000000000E+00 0. -1.
          5    1    1    2  501    0 -0.14481831994E+02 -0.17321522815E+02  0.19187271549E+02  0.30000000000E+02  0.47000000000E+01 0.  1.
         -5    1    1    2    0  501  0.14481831994E+02  0.17321522815E+02 -0.19187271549E+02  0.30000000000E+02  0.47000000000E+01 0. -1.
</event>
<event>
 4    1  0.7580225E-002  0.6000000E+02  0.7546771E-02  0.1259629E+00
         11   -1    0    0    0    0  0.00000000000E+00  0.00000000000E+00  0.30000000000E+02  0.30000000000E+02  0.00000000000E+00 0.  1.
        -11   -1    0    0    0    0 -0.00000000000E+00 -0.00000000000E+00 -0.30000000000E+02  0.30000000000E+02  0.00000000000E+00 0. -1.
          5    1    1    2  501    0 -0.92852933481E+01 -0.33327572263E+01 -0.27938970216E+02  0.30000000000E+02  0.47000000000E+01 0. -1.
         -5    1    1    2    0  501  0.92852933481E+01  0.33327572263E+01  0.27938970216E+02  0.30000000000E+02  0.47000000000E+01 0.  1.
</event>
<event>
 4    1  0.7580225E-002  0.6000000E+02  0.7546771E-02  0.1259629E+00
         11   -1    0    0    0    0  0.00000000000E+00  0.00000000000E+00  0.30000000000E+02  0.30000000000E+02  0.00000000000E+00 0.  1.
        -11   -1    0    0    0    0 -0.00000000000E+00 -0.00000000000E+00 -0.30000000000E+02  0.30000000000E+02  0.00000000000E+00 0. -1.
          5    1    1    2  501    0  0.74379420572E+01 -0.17854133724E+02  0.22445866589E+02  0.30000000000E+02  0.47000000000E+01 0.  1.
         -5    1    1    2    0  501 -0.74379420572E+01  0.17854133724E+02 -0.22445866589E+02  0.30000000000E+02  0.47000000000E+01 0. -1.
</event>
<event>
 4    1  0.7580225E-002  0.6000000E+02  0.7546771E-02  0.1259629E+00
         11   -1    0    0    0    0  0.00000000000E+00  0.00000000000E+00  0.30000000000E+02  0.30000000000E+02  0.00000000000E+00 0. -1.
        -11   -1    0    0    0    0 -0.00000000000E+00 -0.00000000000E+00 -0.30000000000E+02  0.30000000000E+02  0.00000000000E+00 0.  1.
          5    1    1    2  501    0 -0.58284127065E+00  0.56232894490E+01  0.29085200907E+02  0.30000000000E+02  0.47000000000E+01 0. -1.
         -5    1    1    2    0  501  0.58284127065E+00 -0.56232894490E+01 -0.29085200907E+02  0.30000000000E+02  0.47000000000E+01 0.  1.
</event>
<event>
 4    1  0.7580225E-002  0.6000000E+02  0.7546771E-02  0.1259629E+00
         11   -1    0    0    0    0  0.00000000000E+00  0.00000000000E+00  0.30000000000E+02  0.30000000000E+02  0.00000000000E+00 0.  1.
        -11   -1    0    0    0    0 -0.00000000000E+00 -0.00000000000E+00 -0.30000000000E+02  0.30000000000E+02  0.00000000000E+00 0. -1.
          5    1    1    2  501    0 -0.36622415694E+01  0.45865805789E+01 -0.29042404606E+02  0.30000000000E+02  0.47000000000E+01 0. -1.
         -5    1    1    2    0  501  0.36622415694E+01 -0.45865805789E+01  0.29042404606E+02  0.30000000000E+02  0.47000000000E+01 0.  1.
</event>
<event>
 4    1  0.7580225E-002  0.6000000E+02  0.7546771E-02  0.1259629E+00
         11   -1    0    0    0    0  0.00000000000E+00  0.00000000000E+00  0.30000000000E+02  0.30000000000E+02  0.00000000000E+00 0.  1.
        -11   -1    0    0    0    0 -0.00000000000E+00 -0.00000000000E+00 -0.30000000000E+02  0.30000000000E+02  0.00000000000E+00 0. -1.
          5    1    1    2  501    0 -0.22858469209E+02 -0.73350283770E+01 -0.17366569729E+02  0.30000000000E+02  0.47000000000E+01 0. -1.
         -5    1    1    2    0  501  0.22858469209E+02  0.73350283770E+01  0.17366569729E+02  0.30000000000E+02  0.47000000000E+01 0.  1.
</event>
<event>
 4    1  0.7580225E-002  0.6000000E+02  0.7546771E-02  0.1259629E+00
         11   -1    0    0    0    0  0.00000000000E+00  0.00000000000E+00  0.30000000000E+02  0.30000000000E+02  0.00000000000E+00 0.  1.
        -11   -1    0    0    0    0 -0.00000000000E+00 -0.00000000000E+00 -0.30000000000E+02  0.30000000000E+02  0.00000000000E+00 0. -1.
          5    1    1    2  501    0 -0.11360912410E+02 -0.78964187220E+01 -0.26200882439E+02  0.30000000000E+02  0.47000000000E+01 0. -1.
         -5    1    1    2    0  501  0.11360912410E+02  0.78964187220E+01  0.26200882439E+02  0.30000000000E+02  0.47000000000E+01 0.  1.
</event>
<event>
 4    1  0.7580225E-002  0.6000000E+02  0.7546771E-02  0.1259629E+00
         11   -1    0    0    0    0  0.00000000000E+00  0.00000000000E+00  0.30000000000E+02  0.30000000000E+02  0.00000000000E+00 0.  1.
        -11   -1    0    0    0    0 -0.00000000000E+00 -0.00000000000E+00 -0.30000000000E+02  0.30000000000E+02  0.00000000000E+00 0. -1.
          5    1    1    2  501    0 -0.97885633449E+01  0.20035726257E+02 -0.19510604834E+02  0.30000000000E+02  0.47000000000E+01 0. -1.
         -5    1    1    2    0  501  0.97885633449E+01 -0.20035726257E+02  0.19510604834E+02  0.30000000000E+02  0.47000000000E+01 0.  1.
</event>
<event>
 4    1  0.7580225E-002  0.6000000E+02  0.7546771E-02  0.1259629E+00
         11   -1    0    0    0    0  0.00000000000E+00  0.00000000000E+00  0.30000000000E+02  0.30000000000E+02  0.00000000000E+00 0.  1.
        -11   -1    0    0    0    0 -0.00000000000E+00 -0.00000000000E+00 -0.30000000000E+02  0.30000000000E+02  0.00000000000E+00 0. -1.
          5    1    1    2  501    0 -0.26616829464E+02  0.12895582269E+02 -0.17771739422E+01  0.30000000000E+02  0.47000000000E+01 0. -1.
         -5    1    1    2    0  501  0.26616829464E+02 -0.12895582269E+02  0.17771739422E+01  0.30000000000E+02  0.47000000000E+01 0.  1.
</event>
<event>
 4    1  0.7580225E-002  0.6000000E+02  0.7546771E-02  0.1259629E+00
         11   -1    0    0    0    0  0.00000000000E+00  0.00000000000E+00  0.30000000000E+02  0.30000000000E+02  0.00000000000E+00 0. -1.
        -11   -1    0    0    0    0 -0.00000000000E+00 -0.00000000000E+00 -0.30000000000E+02  0.30000000000E+02  0.00000000000E+00 0.  1.
          5    1    1    2  501    0  0.26714432663E+02 -0.12071210894E+02 -0.43052241582E+01  0.30000000000E+02  0.47000000000E+01 0.  1.
         -5    1    1    2    0  501 -0.26714432663E+02  0.12071210894E+02  0.43052241582E+01  0.30000000000E+02  0.47000000000E+01 0. -1.
</event>
<event>
 4    1  0.7580225E-002  0.6000000E+02  0.7546771E-02  0.1259629E+00
         11   -1    0    0    0    0  0.00000000000E+00  0.00000000000E+00  0.30000000000E+02  0.30000000000E+02  0.00000000000E+00 0. -1.
        -11   -1    0    0    0    0 -0.00000000000E+00 -0.00000000000E+00 -0.30000000000E+02  0.30000000000E+02  0.00000000000E+00 0.  1.
          5    1    1    2  501    0 -0.24850273201E+01  0.96336600721E+01 -0.27909267866E+02  0.30000000000E+02  0.47000000000E+01 0.  1.
         -5    1    1    2    0  501  0.24850273201E+01 -0.96336600721E+01  0.27909267866E+02  0.30000000000E+02  0.47000000000E+01 0. -1.
</event>
<event>
 4    1  0.7580225E-002  0.6000000E+02  0.7546771E-02  0.1259629E+00
         11   -1    0    0    0    0  0.00000000000E+00  0.00000000000E+00  0.30000000000E+02  0.30000000000E+02  0.00000000000E+00 0.  1.
        -11   -1    0    0    0    0 -0.00000000000E+00 -0.00000000000E+00 -0.30000000000E+02  0.30000000000E+02  0.00000000000E+00 0. -1.
          5    1    1    2  501    0  0.48279002037E+01  0.25556642594E+02 -0.14193639383E+02  0.30000000000E+02  0.47000000000E+01 0. -1.
         -5    1    1    2    0  501 -0.48279002037E+01 -0.25556642594E+02  0.14193639383E+02  0.30000000000E+02  0.47000000000E+01 0.  1.
</event>
<event>
 4    1  0.7580225E-002  0.6000000E+02  0.7546771E-02  0.1259629E+00
         11   -1    0    0    0    0  0.00000000000E+00  0.00000000000E+00  0.30000000000E+02  0.30000000000E+02  0.00000000000E+00 0.  1.
        -11   -1    0    0    0    0 -0.00000000000E+00 -0.00000000000E+00 -0.30000000000E+02  0.30000000000E+02  0.00000000000E+00 0. -1.
          5    1    1    2  501    0 -0.17872069963E+02  0.10410244422E+02 -0.21216171340E+02  0.30000000000E+02  0.47000000000E+01 0. -1.
         -5    1    1    2    0  501  0.17872069963E+02 -0.10410244422E+02  0.21216171340E+02  0.30000000000E+02  0.47000000000E+01 0.  1.
</event>
<event>
 4    1  0.7580225E-002  0.6000000E+02  0.7546771E-02  0.1259629E+00
         11   -1    0    0    0    0  0.00000000000E+00  0.00000000000E+00  0.30000000000E+02  0.30000000000E+02  0.00000000000E+00 0.  1.
        -11   -1    0    0    0    0 -0.00000000000E+00 -0.00000000000E+00 -0.30000000000E+02  0.30000000000E+02  0.00000000000E+00 0. -1.
          5    1    1    2  501    0 -0.20292826800E+02 -0.83912874390E+00 -0.21573294681E+02  0.30000000000E+02  0.47000000000E+01 0. -1.
         -5    1    1    2    0  501  0.20292826800E+02  0.83912874390E+00  0.21573294681E+02  0.30000000000E+02  0.47000000000E+01 0.  1.
</event>
<event>
 4    1  0.7580225E-002  0.6000000E+02  0.7546771E-02  0.1259629E+00
         11   -1    0    0    0    0  0.00000000000E+00  0.00000000000E+00  0.30000000000E+02  0.30000000000E+02  0.00000000000E+00 0.  1.
        -11   -1    0    0    0    0 -0.00000000000E+00 -0.00000000000E+00 -0.30000000000E+02  0.30000000000E+02  0.00000000000E+00 0. -1.
          5    1    1    2  501    0  0.37457403004E+01  0.12503843380E+02 -0.26599498686E+02  0.30000000000E+02  0.47000000000E+01 0. -1.
         -5    1    1    2    0  501 -0.37457403004E+01 -0.12503843380E+02  0.26599498686E+02  0.30000000000E+02  0.47000000000E+01 0.  1.
</event>
<event>
 4    1  0.7580225E-002  0.6000000E+02  0.7546771E-02  0.1259629E+00
         11   -1    0    0    0    0  0.00000000000E+00  0.00000000000E+00  0.30000000000E+02  0.30000000000E+02  0.00000000000E+00 0. -1.
        -11   -1    0    0    0    0 -0.00000000000E+00 -0.00000000000E+00 -0.30000000000E+02  0.30000000000E+02  0.00000000000E+00 0.  1.
          5    1    1    2  501    0 -0.98367416015E+01  0.13180276297E+02  0.24646071318E+02  0.30000000000E+02  0.47000000000E+01 0. -1.
         -5    1    1    2    0  501  0.98367416015E+01 -0.13180276297E+02 -0.24646071318E+02  0.30000000000E+02  0.47000000000E+01 0.  1.
</event>
<event>
 4    1  0.7580225E-002  0.6000000E+02  0.7546771E-02  0.1259629E+00
         11   -1    0    0    0    0  0.00000000000E+00  0.00000000000E+00  0.30000000000E+02  0.30000000000E+02  0.00000000000E+00 0.  1.
        -11   -1    0    0    0    0 -0.00000000000E+00 -0.00000000000E+00 -0.30000000000E+02  0.30000000000E+02  0.00000000000E+00 0. -1.
          5    1    1    2  501    0 -0.13117099218E+02 -0.16702531561E+02 -0.20661005483E+02  0.30000000000E+02  0.47000000000E+01 0. -1.
         -5    1    1    2    0  501  0.13117099218E+02  0.16702531561E+02  0.20661005483E+02  0.30000000000E+02  0.47000000000E+01 0.  1.
</event>
<event>
 4    1  0.7580225E-002  0.6000000E+02  0.7546771E-02  0.1259629E+00
         11   -1    0    0    0    0  0.00000000000E+00  0.00000000000E+00  0.30000000000E+02  0.30000000000E+02  0.00000000000E+00 0.  1.
        -11   -1    0    0    0    0 -0.00000000000E+00 -0.00000000000E+00 -0.30000000000E+02  0.30000000000E+02  0.00000000000E+00 0. -1.
          5    1    1    2  501    0  0.21467416007E+02  0.12939199806E+02 -0.15799910075E+02  0.30000000000E+02  0.47000000000E+01 0. -1.
         -5    1    1    2    0  501 -0.21467416007E+02 -0.12939199806E+02  0.15799910075E+02  0.30000000000E+02  0.47000000000E+01 0.  1.
</event>
<event>
 4    1  0.7580225E-002  0.6000000E+02  0.7546771E-02  0.1259629E+00
         11   -1    0    0    0    0  0.00000000000E+00  0.00000000000E+00  0.30000000000E+02  0.30000000000E+02  0.00000000000E+00 0.  1.
        -11   -1    0    0    0    0 -0.00000000000E+00 -0.00000000000E+00 -0.30000000000E+02  0.30000000000E+02  0.00000000000E+00 0. -1.
          5    1    1    2  501    0  0.16414183897E+02  0.44211409155E+01  0.24268046481E+02  0.30000000000E+02  0.47000000000E+01 0.  1.
         -5    1    1    2    0  501 -0.16414183897E+02 -0.44211409155E+01 -0.24268046481E+02  0.30000000000E+02  0.47000000000E+01 0. -1.
</event>
<event>
 4    1  0.7580225E-002  0.6000000E+02  0.7546771E-02  0.1259629E+00
         11   -1    0    0    0    0  0.00000000000E+00  0.00000000000E+00  0.30000000000E+02  0.30000000000E+02  0.00000000000E+00 0.  1.
        -11   -1    0    0    0    0 -0.00000000000E+00 -0.00000000000E+00 -0.30000000000E+02  0.30000000000E+02  0.00000000000E+00 0. -1.
          5    1    1    2  501    0 -0.19610437780E+02 -0.22150945001E+02  0.16359601613E+01  0.30000000000E+02  0.47000000000E+01 0. -1.
         -5    1    1    2    0  501  0.19610437780E+02  0.22150945001E+02 -0.16359601613E+01  0.30000000000E+02  0.47000000000E+01 0.  1.
</event>
<event>
 4    1  0.7580225E-002  0.6000000E+02  0.7546771E-02  0.1259629E+00
         11   -1    0    0    0    0  0.00000000000E+00  0.00000000000E+00  0.30000000000E+02  0.30000000000E+02  0.00000000000E+00 0.  1.
        -11   -1    0    0    0    0 -0.00000000000E+00 -0.00000000000E+00 -0.30000000000E+02  0.30000000000E+02  0.00000000000E+00 0. -1.
          5    1    1    2  501    0 -0.24294412822E+02  0.69784626947E+01 -0.15459384337E+02  0.30000000000E+02  0.47000000000E+01 0. -1.
         -5    1    1    2    0  501  0.24294412822E+02 -0.69784626947E+01  0.15459384337E+02  0.30000000000E+02  0.47000000000E+01 0.  1.
</event>
<event>
 4    1  0.7580225E-002  0.6000000E+02  0.7546771E-02  0.1259629E+00
         11   -1    0    0    0    0  0.00000000000E+00  0.00000000000E+00  0.30000000000E+02  0.30000000000E+02  0.00000000000E+00 0.  1.
        -11   -1    0    0    0    0 -0.00000000000E+00 -0.00000000000E+00 -0.30000000000E+02  0.30000000000E+02  0.00000000000E+00 0. -1.
          5    1    1    2  501    0  0.15999664474E+02  0.22533152435E+02 -0.10685400230E+02  0.30000000000E+02  0.47000000000E+01 0. -1.
         -5    1    1    2    0  501 -0.15999664474E+02 -0.22533152435E+02  0.10685400230E+02  0.30000000000E+02  0.47000000000E+01 0.  1.
</event>
<event>
 4    1  0.7580225E-002  0.6000000E+02  0.7546771E-02  0.1259629E+00
         11   -1    0    0    0    0  0.00000000000E+00  0.00000000000E+00  0.30000000000E+02  0.30000000000E+02  0.00000000000E+00 0. -1.
        -11   -1    0    0    0    0 -0.00000000000E+00 -0.00000000000E+00 -0.30000000000E+02  0.30000000000E+02  0.00000000000E+00 0.  1.
          5    1    1    2  501    0  0.26106941001E+02 -0.10216496762E+02 -0.95896207147E+01  0.30000000000E+02  0.47000000000E+01 0.  1.
         -5    1    1    2    0  501 -0.26106941001E+02  0.10216496762E+02  0.95896207147E+01  0.30000000000E+02  0.47000000000E+01 0. -1.
</event>
<event>
 4    1  0.7580225E-002  0.6000000E+02  0.7546771E-02  0.1259629E+00
         11   -1    0    0    0    0  0.00000000000E+00  0.00000000000E+00  0.30000000000E+02  0.30000000000E+02  0.00000000000E+00 0. -1.
        -11   -1    0    0    0    0 -0.00000000000E+00 -0.00000000000E+00 -0.30000000000E+02  0.30000000000E+02  0.00000000000E+00 0.  1.
          5    1    1    2  501    0 -0.12595402491E+02  0.26410307308E+02 -0.46649227210E+01  0.30000000000E+02  0.47000000000E+01 0.  1.
         -5    1    1    2    0  501  0.12595402491E+02 -0.26410307308E+02  0.46649227210E+01  0.30000000000E+02  0.47000000000E+01 0. -1.
</event>
<event>
 4    1  0.7580225E-002  0.6000000E+02  0.7546771E-02  0.1259629E+00
         11   -1    0    0    0    0  0.00000000000E+00  0.00000000000E+00  0.30000000000E+02  0.30000000000E+02  0.00000000000E+00 0. -1.
        -11   -1    0    0    0    0 -0.00000000000E+00 -0.00000000000E+00 -0.30000000000E+02  0.30000000000E+02  0.00000000000E+00 0.  1.
          5    1    1    2  501    0 -0.14619375715E+02  0.21403390250E+02 -0.14355442854E+02  0.30000000000E+02  0.47000000000E+01 0.  1.
         -5    1    1    2    0  501  0.14619375715E+02 -0.21403390250E+02  0.14355442854E+02  0.30000000000E+02  0.47000000000E+01 0. -1.
</event>
<event>
 4    1  0.7580225E-002  0.6000000E+02  0.7546771E-02  0.1259629E+00
         11   -1    0    0    0    0  0.00000000000E+00  0.00000000000E+00  0.30000000000E+02  0.30000000000E+02  0.00000000000E+00 0.  1.
        -11   -1    0    0    0    0 -0.00000000000E+00 -0.00000000000E+00 -0.30000000000E+02  0.30000000000E+02  0.00000000000E+00 0. -1.
          5    1    1    2  501    0  0.23935859093E+02  0.12820376507E+02 -0.11858439851E+02  0.30000000000E+02  0.47000000000E+01 0. -1.
         -5    1    1    2    0  501 -0.23935859093E+02 -0.12820376507E+02  0.11858439851E+02  0.30000000000E+02  0.47000000000E+01 0.  1.
</event>
<event>
 4    1  0.7580225E-002  0.6000000E+02  0.7546771E-02  0.1259629E+00
         11   -1    0    0    0    0  0.00000000000E+00  0.00000000000E+00  0.30000000000E+02  0.30000000000E+02  0.00000000000E+00 0.  1.
        -11   -1    0    0    0    0 -0.00000000000E+00 -0.00000000000E+00 -0.30000000000E+02  0.30000000000E+02  0.00000000000E+00 0. -1.
          5    1    1    2  501    0 -0.82539942209E+01  0.17099001151E+02 -0.22746554443E+02  0.30000000000E+02  0.47000000000E+01 0. -1.
         -5    1    1    2    0  501  0.82539942209E+01 -0.17099001151E+02  0.22746554443E+02  0.30000000000E+02  0.47000000000E+01 0.  1.
</event>
<event>
 4    1  0.7580225E-002  0.6000000E+02  0.7546771E-02  0.1259629E+00
         11   -1    0    0    0    0  0.00000000000E+00  0.00000000000E+00  0.30000000000E+02  0.30000000000E+02  0.00000000000E+00 0.  1.
        -11   -1    0    0    0    0 -0.00000000000E+00 -0.00000000000E+00 -0.30000000000E+02  0.30000000000E+02  0.00000000000E+00 0. -1.
          5    1    1    2  501    0  0.85546262031E+01 -0.16427223595E+01 -0.28320131246E+02  0.30000000000E+02  0.47000000000E+01 0. -1.
         -5    1    1    2    0  501 -0.85546262031E+01  0.16427223595E+01  0.28320131246E+02  0.30000000000E+02  0.47000000000E+01 0.  1.
</event>
<event>
 4    1  0.7580225E-002  0.6000000E+02  0.7546771E-02  0.1259629E+00
         11   -1    0    0    0    0  0.00000000000E+00  0.00000000000E+00  0.30000000000E+02  0.30000000000E+02  0.00000000000E+00 0.  1.
        -11   -1    0    0    0    0 -0.00000000000E+00 -0.00000000000E+00 -0.30000000000E+02  0.30000000000E+02  0.00000000000E+00 0. -1.
          5    1    1    2  501    0  0.23796622344E+02  0.17545922481E+02 -0.19420013612E+01  0.30000000000E+02  0.47000000000E+01 0. -1.
         -5    1    1    2    0  501 -0.23796622344E+02 -0.17545922481E+02  0.19420013612E+01  0.30000000000E+02  0.47000000000E+01 0.  1.
</event>
<event>
 4    1  0.7580225E-002  0.6000000E+02  0.7546771E-02  0.1259629E+00
         11   -1    0    0    0    0  0.00000000000E+00  0.00000000000E+00  0.30000000000E+02  0.30000000000E+02  0.00000000000E+00 0.  1.
        -11   -1    0    0    0    0 -0.00000000000E+00 -0.00000000000E+00 -0.30000000000E+02  0.30000000000E+02  0.00000000000E+00 0. -1.
          5    1    1    2  501    0  0.21790916163E+02 -0.10502242067E+02 -0.17110490477E+02  0.30000000000E+02  0.47000000000E+01 0. -1.
         -5    1    1    2    0  501 -0.21790916163E+02  0.10502242067E+02  0.17110490477E+02  0.30000000000E+02  0.47000000000E+01 0.  1.
</event>
<event>
 4    1  0.7580225E-002  0.6000000E+02  0.7546771E-02  0.1259629E+00
         11   -1    0    0    0    0  0.00000000000E+00  0.00000000000E+00  0.30000000000E+02  0.30000000000E+02  0.00000000000E+00 0. -1.
        -11   -1    0    0    0    0 -0.00000000000E+00 -0.00000000000E+00 -0.30000000000E+02  0.30000000000E+02  0.00000000000E+00 0.  1.
          5    1    1    2  501    0 -0.25818490246E+02 -0.91250188291E+01 -0.11315899998E+02  0.30000000000E+02  0.47000000000E+01 0.  1.
         -5    1    1    2    0  501  0.25818490246E+02  0.91250188291E+01  0.11315899998E+02  0.30000000000E+02  0.47000000000E+01 0. -1.
</event>
<event>
 4    1  0.7580225E-002  0.6000000E+02  0.7546771E-02  0.1259629E+00
         11   -1    0    0    0    0  0.00000000000E+00  0.00000000000E+00  0.30000000000E+02  0.30000000000E+02  0.00000000000E+00 0. -1.
        -11   -1    0    0    0    0 -0.00000000000E+00 -0.00000000000E+00 -0.30000000000E+02  0.30000000000E+02  0.00000000000E+00 0.  1.
          5    1    1    2  501    0  0.86913076868E+01  0.10195220972E+02 -0.26427800514E+02  0.30000000000E+02  0.47000000000E+01 0.  1.
         -5    1    1    2    0  501 -0.86913076868E+01 -0.10195220972E+02  0.26427800514E+02  0.30000000000E+02  0.47000000000E+01 0. -1.
</event>
<event>
 4    1  0.7580225E-002  0.6000000E+02  0.7546771E-02  0.1259629E+00
         11   -1    0    0    0    0  0.00000000000E+00  0.00000000000E+00  0.30000000000E+02  0.30000000000E+02  0.00000000000E+00 0.  1.
        -11   -1    0    0    0    0 -0.00000000000E+00 -0.00000000000E+00 -0.30000000000E+02  0.30000000000E+02  0.00000000000E+00 0. -1.
          5    1    1    2  501    0 -0.27963131378E+02 -0.53832929708E+01 -0.81849520653E+01  0.30000000000E+02  0.47000000000E+01 0. -1.
         -5    1    1    2    0  501  0.27963131378E+02  0.53832929708E+01  0.81849520653E+01  0.30000000000E+02  0.47000000000E+01 0.  1.
</event>
<event>
 4    1  0.7580225E-002  0.6000000E+02  0.7546771E-02  0.1259629E+00
         11   -1    0    0    0    0  0.00000000000E+00  0.00000000000E+00  0.30000000000E+02  0.30000000000E+02  0.00000000000E+00 0. -1.
        -11   -1    0    0    0    0 -0.00000000000E+00 -0.00000000000E+00 -0.30000000000E+02  0.30000000000E+02  0.00000000000E+00 0.  1.
          5    1    1    2  501    0  0.27043385289E+02  0.35437826748E+01  0.11576135645E+02  0.30000000000E+02  0.47000000000E+01 0.  1.
         -5    1    1    2    0  501 -0.27043385289E+02 -0.35437826748E+01 -0.11576135645E+02  0.30000000000E+02  0.47000000000E+01 0. -1.
</event>
<event>
 4    1  0.7580225E-002  0.6000000E+02  0.7546771E-02  0.1259629E+00
         11   -1    0    0    0    0  0.00000000000E+00  0.00000000000E+00  0.30000000000E+02  0.30000000000E+02  0.00000000000E+00 0.  1.
        -11   -1    0    0    0    0 -0.00000000000E+00 -0.00000000000E+00 -0.30000000000E+02  0.30000000000E+02  0.00000000000E+00 0. -1.
          5    1    1    2  501    0  0.41508259943E+01  0.29336747579E+02  0.18943352407E+00  0.30000000000E+02  0.47000000000E+01 0. -1.
         -5    1    1    2    0  501 -0.41508259943E+01 -0.29336747579E+02 -0.18943352407E+00  0.30000000000E+02  0.47000000000E+01 0.  1.
</event>
<event>
 4    1  0.7580225E-002  0.6000000E+02  0.7546771E-02  0.1259629E+00
         11   -1    0    0    0    0  0.00000000000E+00  0.00000000000E+00  0.30000000000E+02  0.30000000000E+02  0.00000000000E+00 0.  1.
        -11   -1    0    0    0    0 -0.00000000000E+00 -0.00000000000E+00 -0.30000000000E+02  0.30000000000E+02  0.00000000000E+00 0. -1.
          5    1    1    2  501    0 -0.28348237127E+00  0.21511927901E+02  0.20373183249E+02  0.30000000000E+02  0.47000000000E+01 0.  1.
         -5    1    1    2    0  501  0.28348237127E+00 -0.21511927901E+02 -0.20373183249E+02  0.30000000000E+02  0.47000000000E+01 0. -1.
</event>
<event>
 4    1  0.7580225E-002  0.6000000E+02  0.7546771E-02  0.1259629E+00
         11   -1    0    0    0    0  0.00000000000E+00  0.00000000000E+00  0.30000000000E+02  0.30000000000E+02  0.00000000000E+00 0. -1.
        -11   -1    0    0    0    0 -0.00000000000E+00 -0.00000000000E+00 -0.30000000000E+02  0.30000000000E+02  0.00000000000E+00 0.  1.
          5    1    1    2  501    0 -0.20195433044E+02 -0.21086637214E+02 -0.50406562238E+01  0.30000000000E+02  0.47000000000E+01 0.  1.
         -5    1    1    2    0  501  0.20195433044E+02  0.21086637214E+02  0.50406562238E+01  0.30000000000E+02  0.47000000000E+01 0. -1.
</event>
<event>
 4    1  0.7580225E-002  0.6000000E+02  0.7546771E-02  0.1259629E+00
         11   -1    0    0    0    0  0.00000000000E+00  0.00000000000E+00  0.30000000000E+02  0.30000000000E+02  0.00000000000E+00 0. -1.
        -11   -1    0    0    0    0 -0.00000000000E+00 -0.00000000000E+00 -0.30000000000E+02  0.30000000000E+02  0.00000000000E+00 0.  1.
          5    1    1    2  501    0 -0.12275163575E+02  0.17692863959E+02 -0.20351730249E+02  0.30000000000E+02  0.47000000000E+01 0.  1.
         -5    1    1    2    0  501  0.12275163575E+02 -0.17692863959E+02  0.20351730249E+02  0.30000000000E+02  0.47000000000E+01 0. -1.
</event>
<event>
 4    1  0.7580225E-002  0.6000000E+02  0.7546771E-02  0.1259629E+00
         11   -1    0    0    0    0  0.00000000000E+00  0.00000000000E+00  0.30000000000E+02  0.30000000000E+02  0.00000000000E+00 0. -1.
        -11   -1    0    0    0    0 -0.00000000000E+00 -0.00000000000E+00 -0.30000000000E+02  0.30000000000E+02  0.00000000000E+00 0.  1.
          5    1    1    2  501    0  0.29861874564E+01 -0.28747675972E+02 -0.65240946268E+01  0.30000000000E+02  0.47000000000E+01 0.  1.
         -5    1    1    2    0  501 -0.29861874564E+01  0.28747675972E+02  0.65240946268E+01  0.30000000000E+02  0.47000000000E+01 0. -1.
</event>
<event>
 4    1  0.7580225E-002  0.6000000E+02  0.7546771E-02  0.1259629E+00
         11   -1    0    0    0    0  0.00000000000E+00  0.00000000000E+00  0.30000000000E+02  0.30000000000E+02  0.00000000000E+00 0. -1.
        -11   -1    0    0    0    0 -0.00000000000E+00 -0.00000000000E+00 -0.30000000000E+02  0.30000000000E+02  0.00000000000E+00 0.  1.
          5    1    1    2  501    0  0.23338279173E+02  0.16825786365E+02  0.70800874594E+01  0.30000000000E+02  0.47000000000E+01 0.  1.
         -5    1    1    2    0  501 -0.23338279173E+02 -0.16825786365E+02 -0.70800874594E+01  0.30000000000E+02  0.47000000000E+01 0. -1.
</event>
<event>
 4    1  0.7580225E-002  0.6000000E+02  0.7546771E-02  0.1259629E+00
         11   -1    0    0    0    0  0.00000000000E+00  0.00000000000E+00  0.30000000000E+02  0.30000000000E+02  0.00000000000E+00 0.  1.
        -11   -1    0    0    0    0 -0.00000000000E+00 -0.00000000000E+00 -0.30000000000E+02  0.30000000000E+02  0.00000000000E+00 0. -1.
          5    1    1    2  501    0  0.12942763880E+02 -0.92225326965E+01 -0.25006794153E+02  0.30000000000E+02  0.47000000000E+01 0. -1.
         -5    1    1    2    0  501 -0.12942763880E+02  0.92225326965E+01  0.25006794153E+02  0.30000000000E+02  0.47000000000E+01 0.  1.
</event>
<event>
 4    1  0.7580225E-002  0.6000000E+02  0.7546771E-02  0.1259629E+00
         11   -1    0    0    0    0  0.00000000000E+00  0.00000000000E+00  0.30000000000E+02  0.30000000000E+02  0.00000000000E+00 0.  1.
        -11   -1    0    0    0    0 -0.00000000000E+00 -0.00000000000E+00 -0.30000000000E+02  0.30000000000E+02  0.00000000000E+00 0. -1.
          5    1    1    2  501    0  0.17416840578E+02 -0.23502303622E+02  0.47122594071E+01  0.30000000000E+02  0.47000000000E+01 0. -1.
         -5    1    1    2    0  501 -0.17416840578E+02  0.23502303622E+02 -0.47122594071E+01  0.30000000000E+02  0.47000000000E+01 0.  1.
</event>
<event>
 4    1  0.7580225E-002  0.6000000E+02  0.7546771E-02  0.1259629E+00
         11   -1    0    0    0    0  0.00000000000E+00  0.00000000000E+00  0.30000000000E+02  0.30000000000E+02  0.00000000000E+00 0. -1.
        -11   -1    0    0    0    0 -0.00000000000E+00 -0.00000000000E+00 -0.30000000000E+02  0.30000000000E+02  0.00000000000E+00 0.  1.
          5    1    1    2  501    0 -0.48225916528E+01  0.22800270631E+02 -0.18297548167E+02  0.30000000000E+02  0.47000000000E+01 0.  1.
         -5    1    1    2    0  501  0.48225916528E+01 -0.22800270631E+02  0.18297548167E+02  0.30000000000E+02  0.47000000000E+01 0. -1.
</event>
<event>
 4    1  0.7580225E-002  0.6000000E+02  0.7546771E-02  0.1259629E+00
         11   -1    0    0    0    0  0.00000000000E+00  0.00000000000E+00  0.30000000000E+02  0.30000000000E+02  0.00000000000E+00 0.  1.
        -11   -1    0    0    0    0 -0.00000000000E+00 -0.00000000000E+00 -0.30000000000E+02  0.30000000000E+02  0.00000000000E+00 0. -1.
          5    1    1    2  501    0  0.22364215372E+02  0.13816950432E+02 -0.13669080129E+02  0.30000000000E+02  0.47000000000E+01 0. -1.
         -5    1    1    2    0  501 -0.22364215372E+02 -0.13816950432E+02  0.13669080129E+02  0.30000000000E+02  0.47000000000E+01 0.  1.
</event>
<event>
 4    1  0.7580225E-002  0.6000000E+02  0.7546771E-02  0.1259629E+00
         11   -1    0    0    0    0  0.00000000000E+00  0.00000000000E+00  0.30000000000E+02  0.30000000000E+02  0.00000000000E+00 0.  1.
        -11   -1    0    0    0    0 -0.00000000000E+00 -0.00000000000E+00 -0.30000000000E+02  0.30000000000E+02  0.00000000000E+00 0. -1.
          5    1    1    2  501    0 -0.58307656128E+01  0.15793321416E+02 -0.24382025572E+02  0.30000000000E+02  0.47000000000E+01 0. -1.
         -5    1    1    2    0  501  0.58307656128E+01 -0.15793321416E+02  0.24382025572E+02  0.30000000000E+02  0.47000000000E+01 0.  1.
</event>
<event>
 4    1  0.7580225E-002  0.6000000E+02  0.7546771E-02  0.1259629E+00
         11   -1    0    0    0    0  0.00000000000E+00  0.00000000000E+00  0.30000000000E+02  0.30000000000E+02  0.00000000000E+00 0.  1.
        -11   -1    0    0    0    0 -0.00000000000E+00 -0.00000000000E+00 -0.30000000000E+02  0.30000000000E+02  0.00000000000E+00 0. -1.
          5    1    1    2  501    0  0.24409424118E+02  0.47096113534E+00 -0.16788931170E+02  0.30000000000E+02  0.47000000000E+01 0. -1.
         -5    1    1    2    0  501 -0.24409424118E+02 -0.47096113534E+00  0.16788931170E+02  0.30000000000E+02  0.47000000000E+01 0.  1.
</event>
<event>
 4    1  0.7580225E-002  0.6000000E+02  0.7546771E-02  0.1259629E+00
         11   -1    0    0    0    0  0.00000000000E+00  0.00000000000E+00  0.30000000000E+02  0.30000000000E+02  0.00000000000E+00 0.  1.
        -11   -1    0    0    0    0 -0.00000000000E+00 -0.00000000000E+00 -0.30000000000E+02  0.30000000000E+02  0.00000000000E+00 0. -1.
          5    1    1    2  501    0 -0.19293255512E+02  0.22109582960E+02 -0.41044650204E+01  0.30000000000E+02  0.47000000000E+01 0. -1.
         -5    1    1    2    0  501  0.19293255512E+02 -0.22109582960E+02  0.41044650204E+01  0.30000000000E+02  0.47000000000E+01 0.  1.
</event>
<event>
 4    1  0.7580225E-002  0.6000000E+02  0.7546771E-02  0.1259629E+00
         11   -1    0    0    0    0  0.00000000000E+00  0.00000000000E+00  0.30000000000E+02  0.30000000000E+02  0.00000000000E+00 0. -1.
        -11   -1    0    0    0    0 -0.00000000000E+00 -0.00000000000E+00 -0.30000000000E+02  0.30000000000E+02  0.00000000000E+00 0.  1.
          5    1    1    2  501    0 -0.78880275307E+01 -0.20163299346E+02  0.20226971626E+02  0.30000000000E+02  0.47000000000E+01 0. -1.
         -5    1    1    2    0  501  0.78880275307E+01  0.20163299346E+02 -0.20226971626E+02  0.30000000000E+02  0.47000000000E+01 0.  1.
</event>
<event>
 4    1  0.7580225E-002  0.6000000E+02  0.7546771E-02  0.1259629E+00
         11   -1    0    0    0    0  0.00000000000E+00  0.00000000000E+00  0.30000000000E+02  0.30000000000E+02  0.00000000000E+00 0.  1.
        -11   -1    0    0    0    0 -0.00000000000E+00 -0.00000000000E+00 -0.30000000000E+02  0.30000000000E+02  0.00000000000E+00 0. -1.
          5    1    1    2  501    0  0.19865093325E+02 -0.20539766094E+02  0.78362029060E+01  0.30000000000E+02  0.47000000000E+01 0. -1.
         -5    1    1    2    0  501 -0.19865093325E+02  0.20539766094E+02 -0.78362029060E+01  0.30000000000E+02  0.47000000000E+01 0.  1.
</event>
<event>
 4    1  0.7580225E-002  0.6000000E+02  0.7546771E-02  0.1259629E+00
         11   -1    0    0    0    0  0.00000000000E+00  0.00000000000E+00  0.30000000000E+02  0.30000000000E+02  0.00000000000E+00 0.  1.
        -11   -1    0    0    0    0 -0.00000000000E+00 -0.00000000000E+00 -0.30000000000E+02  0.30000000000E+02  0.00000000000E+00 0. -1.
          5    1    1    2  501    0 -0.26924040119E+02  0.10102911717E+02 -0.71370328910E+01  0.30000000000E+02  0.47000000000E+01 0. -1.
         -5    1    1    2    0  501  0.26924040119E+02 -0.10102911717E+02  0.71370328910E+01  0.30000000000E+02  0.47000000000E+01 0.  1.
</event>
<event>
 4    1  0.7580225E-002  0.6000000E+02  0.7546771E-02  0.1259629E+00
         11   -1    0    0    0    0  0.00000000000E+00  0.00000000000E+00  0.30000000000E+02  0.30000000000E+02  0.00000000000E+00 0.  1.
        -11   -1    0    0    0    0 -0.00000000000E+00 -0.00000000000E+00 -0.30000000000E+02  0.30000000000E+02  0.00000000000E+00 0. -1.
          5    1    1    2  501    0 -0.19902140543E+02 -0.21931840019E+02  0.89955277210E+00  0.30000000000E+02  0.47000000000E+01 0. -1.
         -5    1    1    2    0  501  0.19902140543E+02  0.21931840019E+02 -0.89955277210E+00  0.30000000000E+02  0.47000000000E+01 0.  1.
</event>
<event>
 4    1  0.7580225E-002  0.6000000E+02  0.7546771E-02  0.1259629E+00
         11   -1    0    0    0    0  0.00000000000E+00  0.00000000000E+00  0.30000000000E+02  0.30000000000E+02  0.00000000000E+00 0.  1.
        -11   -1    0    0    0    0 -0.00000000000E+00 -0.00000000000E+00 -0.30000000000E+02  0.30000000000E+02  0.00000000000E+00 0. -1.
          5    1    1    2  501    0 -0.80287684769E+01 -0.28502881717E+02  0.10171580784E+01  0.30000000000E+02  0.47000000000E+01 0. -1.
         -5    1    1    2    0  501  0.80287684769E+01  0.28502881717E+02 -0.10171580784E+01  0.30000000000E+02  0.47000000000E+01 0.  1.
</event>
<event>
 4    1  0.7580225E-002  0.6000000E+02  0.7546771E-02  0.1259629E+00
         11   -1    0    0    0    0  0.00000000000E+00  0.00000000000E+00  0.30000000000E+02  0.30000000000E+02  0.00000000000E+00 0.  1.
        -11   -1    0    0    0    0 -0.00000000000E+00 -0.00000000000E+00 -0.30000000000E+02  0.30000000000E+02  0.00000000000E+00 0. -1.
          5    1    1    2  501    0 -0.77437168872E+01  0.19763346618E+02 -0.20672565860E+02  0.30000000000E+02  0.47000000000E+01 0. -1.
         -5    1    1    2    0  501  0.77437168872E+01 -0.19763346618E+02  0.20672565860E+02  0.30000000000E+02  0.47000000000E+01 0.  1.
</event>
<event>
 4    1  0.7580225E-002  0.6000000E+02  0.7546771E-02  0.1259629E+00
         11   -1    0    0    0    0  0.00000000000E+00  0.00000000000E+00  0.30000000000E+02  0.30000000000E+02  0.00000000000E+00 0.  1.
        -11   -1    0    0    0    0 -0.00000000000E+00 -0.00000000000E+00 -0.30000000000E+02  0.30000000000E+02  0.00000000000E+00 0. -1.
          5    1    1    2  501    0 -0.12195173294E+02  0.26473987805E+02  0.53212515452E+01  0.30000000000E+02  0.47000000000E+01 0.  1.
         -5    1    1    2    0  501  0.12195173294E+02 -0.26473987805E+02 -0.53212515452E+01  0.30000000000E+02  0.47000000000E+01 0. -1.
</event>
<event>
 4    1  0.7580225E-002  0.6000000E+02  0.7546771E-02  0.1259629E+00
         11   -1    0    0    0    0  0.00000000000E+00  0.00000000000E+00  0.30000000000E+02  0.30000000000E+02  0.00000000000E+00 0. -1.
        -11   -1    0    0    0    0 -0.00000000000E+00 -0.00000000000E+00 -0.30000000000E+02  0.30000000000E+02  0.00000000000E+00 0.  1.
          5    1    1    2  501    0 -0.73502558294E+01  0.25318789833E+02 -0.13521931099E+02  0.30000000000E+02  0.47000000000E+01 0.  1.
         -5    1    1    2    0  501  0.73502558294E+01 -0.25318789833E+02  0.13521931099E+02  0.30000000000E+02  0.47000000000E+01 0. -1.
</event>
<event>
 4    1  0.7580225E-002  0.6000000E+02  0.7546771E-02  0.1259629E+00
         11   -1    0    0    0    0  0.00000000000E+00  0.00000000000E+00  0.30000000000E+02  0.30000000000E+02  0.00000000000E+00 0.  1.
        -11   -1    0    0    0    0 -0.00000000000E+00 -0.00000000000E+00 -0.30000000000E+02  0.30000000000E+02  0.00000000000E+00 0. -1.
          5    1    1    2  501    0  0.21121841010E+02  0.33453713906E+01 -0.20508201349E+02  0.30000000000E+02  0.47000000000E+01 0. -1.
         -5    1    1    2    0  501 -0.21121841010E+02 -0.33453713906E+01  0.20508201349E+02  0.30000000000E+02  0.47000000000E+01 0.  1.
</event>
<event>
 4    1  0.7580225E-002  0.6000000E+02  0.7546771E-02  0.1259629E+00
         11   -1    0    0    0    0  0.00000000000E+00  0.00000000000E+00  0.30000000000E+02  0.30000000000E+02  0.00000000000E+00 0.  1.
        -11   -1    0    0    0    0 -0.00000000000E+00 -0.00000000000E+00 -0.30000000000E+02  0.30000000000E+02  0.00000000000E+00 0. -1.
          5    1    1    2  501    0  0.10161958663E+02 -0.27720972454E+02 -0.24884296975E+01  0.30000000000E+02  0.47000000000E+01 0. -1.
         -5    1    1    2    0  501 -0.10161958663E+02  0.27720972454E+02  0.24884296975E+01  0.30000000000E+02  0.47000000000E+01 0.  1.
</event>
<event>
 4    1  0.7580225E-002  0.6000000E+02  0.7546771E-02  0.1259629E+00
         11   -1    0    0    0    0  0.00000000000E+00  0.00000000000E+00  0.30000000000E+02  0.30000000000E+02  0.00000000000E+00 0.  1.
        -11   -1    0    0    0    0 -0.00000000000E+00 -0.00000000000E+00 -0.30000000000E+02  0.30000000000E+02  0.00000000000E+00 0. -1.
          5    1    1    2  501    0 -0.76169235818E+01  0.17370014108E+02 -0.22763459426E+02  0.30000000000E+02  0.47000000000E+01 0. -1.
         -5    1    1    2    0  501  0.76169235818E+01 -0.17370014108E+02  0.22763459426E+02  0.30000000000E+02  0.47000000000E+01 0.  1.
</event>
<event>
 4    1  0.7580225E-002  0.6000000E+02  0.7546771E-02  0.1259629E+00
         11   -1    0    0    0    0  0.00000000000E+00  0.00000000000E+00  0.30000000000E+02  0.30000000000E+02  0.00000000000E+00 0.  1.
        -11   -1    0    0    0    0 -0.00000000000E+00 -0.00000000000E+00 -0.30000000000E+02  0.30000000000E+02  0.00000000000E+00 0. -1.
          5    1    1    2  501    0 -0.27162220621E+02 -0.12625448323E+01 -0.11769866248E+02  0.30000000000E+02  0.47000000000E+01 0. -1.
         -5    1    1    2    0  501  0.27162220621E+02  0.12625448323E+01  0.11769866248E+02  0.30000000000E+02  0.47000000000E+01 0.  1.
</event>
<event>
 4    1  0.7580225E-002  0.6000000E+02  0.7546771E-02  0.1259629E+00
         11   -1    0    0    0    0  0.00000000000E+00  0.00000000000E+00  0.30000000000E+02  0.30000000000E+02  0.00000000000E+00 0.  1.
        -11   -1    0    0    0    0 -0.00000000000E+00 -0.00000000000E+00 -0.30000000000E+02  0.30000000000E+02  0.00000000000E+00 0. -1.
          5    1    1    2  501    0 -0.10705692800E+02  0.90393168603E+01 -0.26107257465E+02  0.30000000000E+02  0.47000000000E+01 0. -1.
         -5    1    1    2    0  501  0.10705692800E+02 -0.90393168603E+01  0.26107257465E+02  0.30000000000E+02  0.47000000000E+01 0.  1.
</event>
<event>
 4    1  0.7580225E-002  0.6000000E+02  0.7546771E-02  0.1259629E+00
         11   -1    0    0    0    0  0.00000000000E+00  0.00000000000E+00  0.30000000000E+02  0.30000000000E+02  0.00000000000E+00 0.  1.
        -11   -1    0    0    0    0 -0.00000000000E+00 -0.00000000000E+00 -0.30000000000E+02  0.30000000000E+02  0.00000000000E+00 0. -1.
          5    1    1    2  501    0  0.28952135854E+02 -0.18040035042E+01 -0.60356773312E+01  0.30000000000E+02  0.47000000000E+01 0. -1.
         -5    1    1    2    0  501 -0.28952135854E+02  0.18040035042E+01  0.60356773312E+01  0.30000000000E+02  0.47000000000E+01 0.  1.
</event>
<event>
 4    1  0.7580225E-002  0.6000000E+02  0.7546771E-02  0.1259629E+00
         11   -1    0    0    0    0  0.00000000000E+00  0.00000000000E+00  0.30000000000E+02  0.30000000000E+02  0.00000000000E+00 0.  1.
        -11   -1    0    0    0    0 -0.00000000000E+00 -0.00000000000E+00 -0.30000000000E+02  0.30000000000E+02  0.00000000000E+00 0. -1.
          5    1    1    2  501    0  0.18806353568E+02  0.22462509891E+02 -0.44347170045E+01  0.30000000000E+02  0.47000000000E+01 0. -1.
         -5    1    1    2    0  501 -0.18806353568E+02 -0.22462509891E+02  0.44347170045E+01  0.30000000000E+02  0.47000000000E+01 0.  1.
</event>
<event>
 4    1  0.7580225E-002  0.6000000E+02  0.7546771E-02  0.1259629E+00
         11   -1    0    0    0    0  0.00000000000E+00  0.00000000000E+00  0.30000000000E+02  0.30000000000E+02  0.00000000000E+00 0. -1.
        -11   -1    0    0    0    0 -0.00000000000E+00 -0.00000000000E+00 -0.30000000000E+02  0.30000000000E+02  0.00000000000E+00 0.  1.
          5    1    1    2  501    0 -0.29276751948E+02 -0.15979901877E+01  0.42694522746E+01  0.30000000000E+02  0.47000000000E+01 0.  1.
         -5    1    1    2    0  501  0.29276751948E+02  0.15979901877E+01 -0.42694522746E+01  0.30000000000E+02  0.47000000000E+01 0. -1.
</event>
<event>
 4    1  0.7580225E-002  0.6000000E+02  0.7546771E-02  0.1259629E+00
         11   -1    0    0    0    0  0.00000000000E+00  0.00000000000E+00  0.30000000000E+02  0.30000000000E+02  0.00000000000E+00 0. -1.
        -11   -1    0    0    0    0 -0.00000000000E+00 -0.00000000000E+00 -0.30000000000E+02  0.30000000000E+02  0.00000000000E+00 0.  1.
          5    1    1    2  501    0 -0.56917845989E+01 -0.10912233745E+02 -0.26952490474E+02  0.30000000000E+02  0.47000000000E+01 0.  1.
         -5    1    1    2    0  501  0.56917845989E+01  0.10912233745E+02  0.26952490474E+02  0.30000000000E+02  0.47000000000E+01 0. -1.
</event>
<event>
 4    1  0.7580225E-002  0.6000000E+02  0.7546771E-02  0.1259629E+00
         11   -1    0    0    0    0  0.00000000000E+00  0.00000000000E+00  0.30000000000E+02  0.30000000000E+02  0.00000000000E+00 0.  1.
        -11   -1    0    0    0    0 -0.00000000000E+00 -0.00000000000E+00 -0.30000000000E+02  0.30000000000E+02  0.00000000000E+00 0. -1.
          5    1    1    2  501    0  0.17771886617E+02  0.23607116118E+02 -0.21849747515E+01  0.30000000000E+02  0.47000000000E+01 0. -1.
         -5    1    1    2    0  501 -0.17771886617E+02 -0.23607116118E+02  0.21849747515E+01  0.30000000000E+02  0.47000000000E+01 0.  1.
</event>
<event>
 4    1  0.7580225E-002  0.6000000E+02  0.7546771E-02  0.1259629E+00
         11   -1    0    0    0    0  0.00000000000E+00  0.00000000000E+00  0.30000000000E+02  0.30000000000E+02  0.00000000000E+00 0.  1.
        -11   -1    0    0    0    0 -0.00000000000E+00 -0.00000000000E+00 -0.30000000000E+02  0.30000000000E+02  0.00000000000E+00 0. -1.
          5    1    1    2  501    0 -0.89111862179E-01  0.27225154672E+02 -0.11691578685E+02  0.30000000000E+02  0.47000000000E+01 0. -1.
         -5    1    1    2    0  501  0.89111862179E-01 -0.27225154672E+02  0.11691578685E+02  0.30000000000E+02  0.47000000000E+01 0.  1.
</event>
<event>
 4    1  0.7580225E-002  0.6000000E+02  0.7546771E-02  0.1259629E+00
         11   -1    0    0    0    0  0.00000000000E+00  0.00000000000E+00  0.30000000000E+02  0.30000000000E+02  0.00000000000E+00 0. -1.
        -11   -1    0    0    0    0 -0.00000000000E+00 -0.00000000000E+00 -0.30000000000E+02  0.30000000000E+02  0.00000000000E+00 0.  1.
          5    1    1    2  501    0 -0.28568373861E+02  0.75482999345E+01  0.21865916471E+01  0.30000000000E+02  0.47000000000E+01 0.  1.
         -5    1    1    2    0  501  0.28568373861E+02 -0.75482999345E+01 -0.21865916471E+01  0.30000000000E+02  0.47000000000E+01 0. -1.
</event>
<event>
 4    1  0.7580225E-002  0.6000000E+02  0.7546771E-02  0.1259629E+00
         11   -1    0    0    0    0  0.00000000000E+00  0.00000000000E+00  0.30000000000E+02  0.30000000000E+02  0.00000000000E+00 0.  1.
        -11   -1    0    0    0    0 -0.00000000000E+00 -0.00000000000E+00 -0.30000000000E+02  0.30000000000E+02  0.00000000000E+00 0. -1.
          5    1    1    2  501    0 -0.20880877136E+02 -0.81031899560E+01 -0.19396836922E+02  0.30000000000E+02  0.47000000000E+01 0. -1.
         -5    1    1    2    0  501  0.20880877136E+02  0.81031899560E+01  0.19396836922E+02  0.30000000000E+02  0.47000000000E+01 0.  1.
</event>
<event>
 4    1  0.7580225E-002  0.6000000E+02  0.7546771E-02  0.1259629E+00
         11   -1    0    0    0    0  0.00000000000E+00  0.00000000000E+00  0.30000000000E+02  0.30000000000E+02  0.00000000000E+00 0.  1.
        -11   -1    0    0    0    0 -0.00000000000E+00 -0.00000000000E+00 -0.30000000000E+02  0.30000000000E+02  0.00000000000E+00 0. -1.
          5    1    1    2  501    0  0.11459549170E+02  0.15034352273E+02 -0.22815717928E+02  0.30000000000E+02  0.47000000000E+01 0. -1.
         -5    1    1    2    0  501 -0.11459549170E+02 -0.15034352273E+02  0.22815717928E+02  0.30000000000E+02  0.47000000000E+01 0.  1.
</event>
<event>
 4    1  0.7580225E-002  0.6000000E+02  0.7546771E-02  0.1259629E+00
         11   -1    0    0    0    0  0.00000000000E+00  0.00000000000E+00  0.30000000000E+02  0.30000000000E+02  0.00000000000E+00 0.  1.
        -11   -1    0    0    0    0 -0.00000000000E+00 -0.00000000000E+00 -0.30000000000E+02  0.30000000000E+02  0.00000000000E+00 0. -1.
          5    1    1    2  501    0 -0.32550560893E+01  0.67188458681E+01 -0.28673536930E+02  0.30000000000E+02  0.47000000000E+01 0. -1.
         -5    1    1    2    0  501  0.32550560893E+01 -0.67188458681E+01  0.28673536930E+02  0.30000000000E+02  0.47000000000E+01 0.  1.
</event>
<event>
 4    1  0.7580225E-002  0.6000000E+02  0.7546771E-02  0.1259629E+00
         11   -1    0    0    0    0  0.00000000000E+00  0.00000000000E+00  0.30000000000E+02  0.30000000000E+02  0.00000000000E+00 0.  1.
        -11   -1    0    0    0    0 -0.00000000000E+00 -0.00000000000E+00 -0.30000000000E+02  0.30000000000E+02  0.00000000000E+00 0. -1.
          5    1    1    2  501    0 -0.76209564074E+01 -0.33966375164E+01  0.28430509616E+02  0.30000000000E+02  0.47000000000E+01 0.  1.
         -5    1    1    2    0  501  0.76209564074E+01  0.33966375164E+01 -0.28430509616E+02  0.30000000000E+02  0.47000000000E+01 0. -1.
</event>
<event>
 4    1  0.7580225E-002  0.6000000E+02  0.7546771E-02  0.1259629E+00
         11   -1    0    0    0    0  0.00000000000E+00  0.00000000000E+00  0.30000000000E+02  0.30000000000E+02  0.00000000000E+00 0.  1.
        -11   -1    0    0    0    0 -0.00000000000E+00 -0.00000000000E+00 -0.30000000000E+02  0.30000000000E+02  0.00000000000E+00 0. -1.
          5    1    1    2  501    0  0.67822298096E+01  0.16410715524E+02 -0.23719185795E+02  0.30000000000E+02  0.47000000000E+01 0. -1.
         -5    1    1    2    0  501 -0.67822298096E+01 -0.16410715524E+02  0.23719185795E+02  0.30000000000E+02  0.47000000000E+01 0.  1.
</event>
<event>
 4    1  0.7580225E-002  0.6000000E+02  0.7546771E-02  0.1259629E+00
         11   -1    0    0    0    0  0.00000000000E+00  0.00000000000E+00  0.30000000000E+02  0.30000000000E+02  0.00000000000E+00 0.  1.
        -11   -1    0    0    0    0 -0.00000000000E+00 -0.00000000000E+00 -0.30000000000E+02  0.30000000000E+02  0.00000000000E+00 0. -1.
          5    1    1    2  501    0 -0.19171161254E+02  0.21844977836E+02 -0.57596457818E+01  0.30000000000E+02  0.47000000000E+01 0. -1.
         -5    1    1    2    0  501  0.19171161254E+02 -0.21844977836E+02  0.57596457818E+01  0.30000000000E+02  0.47000000000E+01 0.  1.
</event>
<event>
 4    1  0.7580225E-002  0.6000000E+02  0.7546771E-02  0.1259629E+00
         11   -1    0    0    0    0  0.00000000000E+00  0.00000000000E+00  0.30000000000E+02  0.30000000000E+02  0.00000000000E+00 0.  1.
        -11   -1    0    0    0    0 -0.00000000000E+00 -0.00000000000E+00 -0.30000000000E+02  0.30000000000E+02  0.00000000000E+00 0. -1.
          5    1    1    2  501    0  0.12715414704E+01  0.11590255427E+02 -0.27238927318E+02  0.30000000000E+02  0.47000000000E+01 0. -1.
         -5    1    1    2    0  501 -0.12715414704E+01 -0.11590255427E+02  0.27238927318E+02  0.30000000000E+02  0.47000000000E+01 0.  1.
</event>
<event>
 4    1  0.7580225E-002  0.6000000E+02  0.7546771E-02  0.1259629E+00
         11   -1    0    0    0    0  0.00000000000E+00  0.00000000000E+00  0.30000000000E+02  0.30000000000E+02  0.00000000000E+00 0. -1.
        -11   -1    0    0    0    0 -0.00000000000E+00 -0.00000000000E+00 -0.30000000000E+02  0.30000000000E+02  0.00000000000E+00 0.  1.
          5    1    1    2  501    0  0.11576131778E+02  0.24655611652E+01 -0.27162919232E+02  0.30000000000E+02  0.47000000000E+01 0.  1.
         -5    1    1    2    0  501 -0.11576131778E+02 -0.24655611652E+01  0.27162919232E+02  0.30000000000E+02  0.47000000000E+01 0. -1.
</event>
<event>
 4    1  0.7580225E-002  0.6000000E+02  0.7546771E-02  0.1259629E+00
         11   -1    0    0    0    0  0.00000000000E+00  0.00000000000E+00  0.30000000000E+02  0.30000000000E+02  0.00000000000E+00 0. -1.
        -11   -1    0    0    0    0 -0.00000000000E+00 -0.00000000000E+00 -0.30000000000E+02  0.30000000000E+02  0.00000000000E+00 0.  1.
          5    1    1    2  501    0 -0.86468767689E+01 -0.15874030271E+02 -0.23476726457E+02  0.30000000000E+02  0.47000000000E+01 0.  1.
         -5    1    1    2    0  501  0.86468767689E+01  0.15874030271E+02  0.23476726457E+02  0.30000000000E+02  0.47000000000E+01 0. -1.
</event>
<event>
 4    1  0.7580225E-002  0.6000000E+02  0.7546771E-02  0.1259629E+00
         11   -1    0    0    0    0  0.00000000000E+00  0.00000000000E+00  0.30000000000E+02  0.30000000000E+02  0.00000000000E+00 0.  1.
        -11   -1    0    0    0    0 -0.00000000000E+00 -0.00000000000E+00 -0.30000000000E+02  0.30000000000E+02  0.00000000000E+00 0. -1.
          5    1    1    2  501    0  0.25012645507E+02  0.15676333508E+02 -0.25554123938E+01  0.30000000000E+02  0.47000000000E+01 0. -1.
         -5    1    1    2    0  501 -0.25012645507E+02 -0.15676333508E+02  0.25554123938E+01  0.30000000000E+02  0.47000000000E+01 0.  1.
</event>
<event>
 4    1  0.7580225E-002  0.6000000E+02  0.7546771E-02  0.1259629E+00
         11   -1    0    0    0    0  0.00000000000E+00  0.00000000000E+00  0.30000000000E+02  0.30000000000E+02  0.00000000000E+00 0.  1.
        -11   -1    0    0    0    0 -0.00000000000E+00 -0.00000000000E+00 -0.30000000000E+02  0.30000000000E+02  0.00000000000E+00 0. -1.
          5    1    1    2  501    0 -0.22079649956E+02  0.10841299723E+02 -0.16518634270E+02  0.30000000000E+02  0.47000000000E+01 0. -1.
         -5    1    1    2    0  501  0.22079649956E+02 -0.10841299723E+02  0.16518634270E+02  0.30000000000E+02  0.47000000000E+01 0.  1.
</event>
<event>
 4    1  0.7580225E-002  0.6000000E+02  0.7546771E-02  0.1259629E+00
         11   -1    0    0    0    0  0.00000000000E+00  0.00000000000E+00  0.30000000000E+02  0.30000000000E+02  0.00000000000E+00 0.  1.
        -11   -1    0    0    0    0 -0.00000000000E+00 -0.00000000000E+00 -0.30000000000E+02  0.30000000000E+02  0.00000000000E+00 0. -1.
          5    1    1    2  501    0 -0.62893972134E+01  0.26221901945E+02 -0.12278653878E+02  0.30000000000E+02  0.47000000000E+01 0. -1.
         -5    1    1    2    0  501  0.62893972134E+01 -0.26221901945E+02  0.12278653878E+02  0.30000000000E+02  0.47000000000E+01 0.  1.
</event>
<event>
 4    1  0.7580225E-002  0.6000000E+02  0.7546771E-02  0.1259629E+00
         11   -1    0    0    0    0  0.00000000000E+00  0.00000000000E+00  0.30000000000E+02  0.30000000000E+02  0.00000000000E+00 0.  1.
        -11   -1    0    0    0    0 -0.00000000000E+00 -0.00000000000E+00 -0.30000000000E+02  0.30000000000E+02  0.00000000000E+00 0. -1.
          5    1    1    2  501    0  0.21401659518E+02  0.20460210985E+02 -0.11219341813E+01  0.30000000000E+02  0.47000000000E+01 0. -1.
         -5    1    1    2    0  501 -0.21401659518E+02 -0.20460210985E+02  0.11219341813E+01  0.30000000000E+02  0.47000000000E+01 0.  1.
</event>
<event>
 4    1  0.7580225E-002  0.6000000E+02  0.7546771E-02  0.1259629E+00
         11   -1    0    0    0    0  0.00000000000E+00  0.00000000000E+00  0.30000000000E+02  0.30000000000E+02  0.00000000000E+00 0.  1.
        -11   -1    0    0    0    0 -0.00000000000E+00 -0.00000000000E+00 -0.30000000000E+02  0.30000000000E+02  0.00000000000E+00 0. -1.
          5    1    1    2  501    0  0.87690311441E+01  0.58595541901E+01 -0.27688981879E+02  0.30000000000E+02  0.47000000000E+01 0. -1.
         -5    1    1    2    0  501 -0.87690311441E+01 -0.58595541901E+01  0.27688981879E+02  0.30000000000E+02  0.47000000000E+01 0.  1.
</event>
<event>
 4    1  0.7580225E-002  0.6000000E+02  0.7546771E-02  0.1259629E+00
         11   -1    0    0    0    0  0.00000000000E+00  0.00000000000E+00  0.30000000000E+02  0.30000000000E+02  0.00000000000E+00 0. -1.
        -11   -1    0    0    0    0 -0.00000000000E+00 -0.00000000000E+00 -0.30000000000E+02  0.30000000000E+02  0.00000000000E+00 0.  1.
          5    1    1    2  501    0  0.85306766428E+01  0.25165698279E+02 -0.13108210639E+02  0.30000000000E+02  0.47000000000E+01 0.  1.
         -5    1    1    2    0  501 -0.85306766428E+01 -0.25165698279E+02  0.13108210639E+02  0.30000000000E+02  0.47000000000E+01 0. -1.
</event>
<event>
 4    1  0.7580225E-002  0.6000000E+02  0.7546771E-02  0.1259629E+00
         11   -1    0    0    0    0  0.00000000000E+00  0.00000000000E+00  0.30000000000E+02  0.30000000000E+02  0.00000000000E+00 0.  1.
        -11   -1    0    0    0    0 -0.00000000000E+00 -0.00000000000E+00 -0.30000000000E+02  0.30000000000E+02  0.00000000000E+00 0. -1.
          5    1    1    2  501    0  0.24533603541E+02  0.16610107040E+02 -0.34152808771E+00  0.30000000000E+02  0.47000000000E+01 0. -1.
         -5    1    1    2    0  501 -0.24533603541E+02 -0.16610107040E+02  0.34152808771E+00  0.30000000000E+02  0.47000000000E+01 0.  1.
</event>
<event>
 4    1  0.7580225E-002  0.6000000E+02  0.7546771E-02  0.1259629E+00
         11   -1    0    0    0    0  0.00000000000E+00  0.00000000000E+00  0.30000000000E+02  0.30000000000E+02  0.00000000000E+00 0.  1.
        -11   -1    0    0    0    0 -0.00000000000E+00 -0.00000000000E+00 -0.30000000000E+02  0.30000000000E+02  0.00000000000E+00 0. -1.
          5    1    1    2  501    0 -0.13668282679E+02 -0.13986910438E+01 -0.26251318290E+02  0.30000000000E+02  0.47000000000E+01 0. -1.
         -5    1    1    2    0  501  0.13668282679E+02  0.13986910438E+01  0.26251318290E+02  0.30000000000E+02  0.47000000000E+01 0.  1.
</event>
<event>
 4    1  0.7580225E-002  0.6000000E+02  0.7546771E-02  0.1259629E+00
         11   -1    0    0    0    0  0.00000000000E+00  0.00000000000E+00  0.30000000000E+02  0.30000000000E+02  0.00000000000E+00 0.  1.
        -11   -1    0    0    0    0 -0.00000000000E+00 -0.00000000000E+00 -0.30000000000E+02  0.30000000000E+02  0.00000000000E+00 0. -1.
          5    1    1    2  501    0 -0.27876172170E+02  0.83267786105E+01 -0.56119322099E+01  0.30000000000E+02  0.47000000000E+01 0. -1.
         -5    1    1    2    0  501  0.27876172170E+02 -0.83267786105E+01  0.56119322099E+01  0.30000000000E+02  0.47000000000E+01 0.  1.
</event>
<event>
 4    1  0.7580225E-002  0.6000000E+02  0.7546771E-02  0.1259629E+00
         11   -1    0    0    0    0  0.00000000000E+00  0.00000000000E+00  0.30000000000E+02  0.30000000000E+02  0.00000000000E+00 0.  1.
        -11   -1    0    0    0    0 -0.00000000000E+00 -0.00000000000E+00 -0.30000000000E+02  0.30000000000E+02  0.00000000000E+00 0. -1.
          5    1    1    2  501    0 -0.11746226134E+02 -0.63971232162E+01 -0.26438853723E+02  0.30000000000E+02  0.47000000000E+01 0. -1.
         -5    1    1    2    0  501  0.11746226134E+02  0.63971232162E+01  0.26438853723E+02  0.30000000000E+02  0.47000000000E+01 0.  1.
</event>
<event>
 4    1  0.7580225E-002  0.6000000E+02  0.7546771E-02  0.1259629E+00
         11   -1    0    0    0    0  0.00000000000E+00  0.00000000000E+00  0.30000000000E+02  0.30000000000E+02  0.00000000000E+00 0.  1.
        -11   -1    0    0    0    0 -0.00000000000E+00 -0.00000000000E+00 -0.30000000000E+02  0.30000000000E+02  0.00000000000E+00 0. -1.
          5    1    1    2  501    0 -0.23994424843E+02  0.49876455277E+00 -0.17376098824E+02  0.30000000000E+02  0.47000000000E+01 0. -1.
         -5    1    1    2    0  501  0.23994424843E+02 -0.49876455277E+00  0.17376098824E+02  0.30000000000E+02  0.47000000000E+01 0.  1.
</event>
<event>
 4    1  0.7580225E-002  0.6000000E+02  0.7546771E-02  0.1259629E+00
         11   -1    0    0    0    0  0.00000000000E+00  0.00000000000E+00  0.30000000000E+02  0.30000000000E+02  0.00000000000E+00 0.  1.
        -11   -1    0    0    0    0 -0.00000000000E+00 -0.00000000000E+00 -0.30000000000E+02  0.30000000000E+02  0.00000000000E+00 0. -1.
          5    1    1    2  501    0 -0.20303560826E+02  0.10492294741E+02 -0.18857019087E+02  0.30000000000E+02  0.47000000000E+01 0. -1.
         -5    1    1    2    0  501  0.20303560826E+02 -0.10492294741E+02  0.18857019087E+02  0.30000000000E+02  0.47000000000E+01 0.  1.
</event>
<event>
 4    1  0.7580225E-002  0.6000000E+02  0.7546771E-02  0.1259629E+00
         11   -1    0    0    0    0  0.00000000000E+00  0.00000000000E+00  0.30000000000E+02  0.30000000000E+02  0.00000000000E+00 0. -1.
        -11   -1    0    0    0    0 -0.00000000000E+00 -0.00000000000E+00 -0.30000000000E+02  0.30000000000E+02  0.00000000000E+00 0.  1.
          5    1    1    2  501    0  0.14863934512E+02  0.14968273875E+02 -0.20806831283E+02  0.30000000000E+02  0.47000000000E+01 0.  1.
         -5    1    1    2    0  501 -0.14863934512E+02 -0.14968273875E+02  0.20806831283E+02  0.30000000000E+02  0.47000000000E+01 0. -1.
</event>
<event>
 4    1  0.7580225E-002  0.6000000E+02  0.7546771E-02  0.1259629E+00
         11   -1    0    0    0    0  0.00000000000E+00  0.00000000000E+00  0.30000000000E+02  0.30000000000E+02  0.00000000000E+00 0.  1.
        -11   -1    0    0    0    0 -0.00000000000E+00 -0.00000000000E+00 -0.30000000000E+02  0.30000000000E+02  0.00000000000E+00 0. -1.
          5    1    1    2  501    0  0.20962768146E+02  0.10016240696E+02 -0.18388781198E+02  0.30000000000E+02  0.47000000000E+01 0. -1.
         -5    1    1    2    0  501 -0.20962768146E+02 -0.10016240696E+02  0.18388781198E+02  0.30000000000E+02  0.47000000000E+01 0.  1.
</event>
<event>
 4    1  0.7580225E-002  0.6000000E+02  0.7546771E-02  0.1259629E+00
         11   -1    0    0    0    0  0.00000000000E+00  0.00000000000E+00  0.30000000000E+02  0.30000000000E+02  0.00000000000E+00 0. -1.
        -11   -1    0    0    0    0 -0.00000000000E+00 -0.00000000000E+00 -0.30000000000E+02  0.30000000000E+02  0.00000000000E+00 0.  1.
          5    1    1    2  501    0 -0.24809069447E+02  0.96173571546E+01  0.13035586468E+02  0.30000000000E+02  0.47000000000E+01 0. -1.
         -5    1    1    2    0  501  0.24809069447E+02 -0.96173571546E+01 -0.13035586468E+02  0.30000000000E+02  0.47000000000E+01 0.  1.
</event>
<event>
 4    1  0.7580225E-002  0.6000000E+02  0.7546771E-02  0.1259629E+00
         11   -1    0    0    0    0  0.00000000000E+00  0.00000000000E+00  0.30000000000E+02  0.30000000000E+02  0.00000000000E+00 0.  1.
        -11   -1    0    0    0    0 -0.00000000000E+00 -0.00000000000E+00 -0.30000000000E+02  0.30000000000E+02  0.00000000000E+00 0. -1.
          5    1    1    2  501    0 -0.13887378676E+02  0.15645043194E+02  0.20982929657E+02  0.30000000000E+02  0.47000000000E+01 0.  1.
         -5    1    1    2    0  501  0.13887378676E+02 -0.15645043194E+02 -0.20982929657E+02  0.30000000000E+02  0.47000000000E+01 0. -1.
</event>
<event>
 4    1  0.7580225E-002  0.6000000E+02  0.7546771E-02  0.1259629E+00
         11   -1    0    0    0    0  0.00000000000E+00  0.00000000000E+00  0.30000000000E+02  0.30000000000E+02  0.00000000000E+00 0.  1.
        -11   -1    0    0    0    0 -0.00000000000E+00 -0.00000000000E+00 -0.30000000000E+02  0.30000000000E+02  0.00000000000E+00 0. -1.
          5    1    1    2  501    0  0.25628526447E+02  0.40217283344E+00 -0.14863609560E+02  0.30000000000E+02  0.47000000000E+01 0. -1.
         -5    1    1    2    0  501 -0.25628526447E+02 -0.40217283344E+00  0.14863609560E+02  0.30000000000E+02  0.47000000000E+01 0.  1.
</event>
<event>
 4    1  0.7580225E-002  0.6000000E+02  0.7546771E-02  0.1259629E+00
         11   -1    0    0    0    0  0.00000000000E+00  0.00000000000E+00  0.30000000000E+02  0.30000000000E+02  0.00000000000E+00 0.  1.
        -11   -1    0    0    0    0 -0.00000000000E+00 -0.00000000000E+00 -0.30000000000E+02  0.30000000000E+02  0.00000000000E+00 0. -1.
          5    1    1    2  501    0 -0.19233046367E+02 -0.50310666230E+01 -0.21970168321E+02  0.30000000000E+02  0.47000000000E+01 0. -1.
         -5    1    1    2    0  501  0.19233046367E+02  0.50310666230E+01  0.21970168321E+02  0.30000000000E+02  0.47000000000E+01 0.  1.
</event>
<event>
 4    1  0.7580225E-002  0.6000000E+02  0.7546771E-02  0.1259629E+00
         11   -1    0    0    0    0  0.00000000000E+00  0.00000000000E+00  0.30000000000E+02  0.30000000000E+02  0.00000000000E+00 0.  1.
        -11   -1    0    0    0    0 -0.00000000000E+00 -0.00000000000E+00 -0.30000000000E+02  0.30000000000E+02  0.00000000000E+00 0. -1.
          5    1    1    2  501    0 -0.29594680497E+02  0.11904420526E+01  0.80481922874E+00  0.30000000000E+02  0.47000000000E+01 0. -1.
         -5    1    1    2    0  501  0.29594680497E+02 -0.11904420526E+01 -0.80481922874E+00  0.30000000000E+02  0.47000000000E+01 0.  1.
</event>
<event>
 4    1  0.7580225E-002  0.6000000E+02  0.7546771E-02  0.1259629E+00
         11   -1    0    0    0    0  0.00000000000E+00  0.00000000000E+00  0.30000000000E+02  0.30000000000E+02  0.00000000000E+00 0.  1.
        -11   -1    0    0    0    0 -0.00000000000E+00 -0.00000000000E+00 -0.30000000000E+02  0.30000000000E+02  0.00000000000E+00 0. -1.
          5    1    1    2  501    0 -0.18441663049E+01 -0.13224210518E+02 -0.26450506740E+02  0.30000000000E+02  0.47000000000E+01 0. -1.
         -5    1    1    2    0  501  0.18441663049E+01  0.13224210518E+02  0.26450506740E+02  0.30000000000E+02  0.47000000000E+01 0.  1.
</event>
<event>
 4    1  0.7580225E-002  0.6000000E+02  0.7546771E-02  0.1259629E+00
         11   -1    0    0    0    0  0.00000000000E+00  0.00000000000E+00  0.30000000000E+02  0.30000000000E+02  0.00000000000E+00 0. -1.
        -11   -1    0    0    0    0 -0.00000000000E+00 -0.00000000000E+00 -0.30000000000E+02  0.30000000000E+02  0.00000000000E+00 0.  1.
          5    1    1    2  501    0  0.12800057667E+02  0.73788397083E+01 -0.25683092654E+02  0.30000000000E+02  0.47000000000E+01 0.  1.
         -5    1    1    2    0  501 -0.12800057667E+02 -0.73788397083E+01  0.25683092654E+02  0.30000000000E+02  0.47000000000E+01 0. -1.
</event>
<event>
 4    1  0.7580225E-002  0.6000000E+02  0.7546771E-02  0.1259629E+00
         11   -1    0    0    0    0  0.00000000000E+00  0.00000000000E+00  0.30000000000E+02  0.30000000000E+02  0.00000000000E+00 0.  1.
        -11   -1    0    0    0    0 -0.00000000000E+00 -0.00000000000E+00 -0.30000000000E+02  0.30000000000E+02  0.00000000000E+00 0. -1.
          5    1    1    2  501    0 -0.13792166580E+02 -0.25359173453E+02 -0.66782080561E+01  0.30000000000E+02  0.47000000000E+01 0. -1.
         -5    1    1    2    0  501  0.13792166580E+02  0.25359173453E+02  0.66782080561E+01  0.30000000000E+02  0.47000000000E+01 0.  1.
</event>
<event>
 4    1  0.7580225E-002  0.6000000E+02  0.7546771E-02  0.1259629E+00
         11   -1    0    0    0    0  0.00000000000E+00  0.00000000000E+00  0.30000000000E+02  0.30000000000E+02  0.00000000000E+00 0.  1.
        -11   -1    0    0    0    0 -0.00000000000E+00 -0.00000000000E+00 -0.30000000000E+02  0.30000000000E+02  0.00000000000E+00 0. -1.
          5    1    1    2  501    0  0.96183008278E+01  0.10822758035E+02 -0.25850845203E+02  0.30000000000E+02  0.47000000000E+01 0. -1.
         -5    1    1    2    0  501 -0.96183008278E+01 -0.10822758035E+02  0.25850845203E+02  0.30000000000E+02  0.47000000000E+01 0.  1.
</event>
<event>
 4    1  0.7580225E-002  0.6000000E+02  0.7546771E-02  0.1259629E+00
         11   -1    0    0    0    0  0.00000000000E+00  0.00000000000E+00  0.30000000000E+02  0.30000000000E+02  0.00000000000E+00 0.  1.
        -11   -1    0    0    0    0 -0.00000000000E+00 -0.00000000000E+00 -0.30000000000E+02  0.30000000000E+02  0.00000000000E+00 0. -1.
          5    1    1    2  501    0  0.29412530093E+02  0.84405689274E+00  0.34785976334E+01  0.30000000000E+02  0.47000000000E+01 0. -1.
         -5    1    1    2    0  501 -0.29412530093E+02 -0.84405689274E+00 -0.34785976334E+01  0.30000000000E+02  0.47000000000E+01 0.  1.
</event>
<event>
 4    1  0.7580225E-002  0.6000000E+02  0.7546771E-02  0.1259629E+00
         11   -1    0    0    0    0  0.00000000000E+00  0.00000000000E+00  0.30000000000E+02  0.30000000000E+02  0.00000000000E+00 0. -1.
        -11   -1    0    0    0    0 -0.00000000000E+00 -0.00000000000E+00 -0.30000000000E+02  0.30000000000E+02  0.00000000000E+00 0.  1.
          5    1    1    2  501    0 -0.26539831276E+02 -0.49234032979E+01 -0.12219143007E+02  0.30000000000E+02  0.47000000000E+01 0.  1.
         -5    1    1    2    0  501  0.26539831276E+02  0.49234032979E+01  0.12219143007E+02  0.30000000000E+02  0.47000000000E+01 0. -1.
</event>
<event>
 4    1  0.7580225E-002  0.6000000E+02  0.7546771E-02  0.1259629E+00
         11   -1    0    0    0    0  0.00000000000E+00  0.00000000000E+00  0.30000000000E+02  0.30000000000E+02  0.00000000000E+00 0.  1.
        -11   -1    0    0    0    0 -0.00000000000E+00 -0.00000000000E+00 -0.30000000000E+02  0.30000000000E+02  0.00000000000E+00 0. -1.
          5    1    1    2  501    0 -0.14886273229E+02  0.16733920266E+02 -0.19398061292E+02  0.30000000000E+02  0.47000000000E+01 0. -1.
         -5    1    1    2    0  501  0.14886273229E+02 -0.16733920266E+02  0.19398061292E+02  0.30000000000E+02  0.47000000000E+01 0.  1.
</event>
<event>
 4    1  0.7580225E-002  0.6000000E+02  0.7546771E-02  0.1259629E+00
         11   -1    0    0    0    0  0.00000000000E+00  0.00000000000E+00  0.30000000000E+02  0.30000000000E+02  0.00000000000E+00 0. -1.
        -11   -1    0    0    0    0 -0.00000000000E+00 -0.00000000000E+00 -0.30000000000E+02  0.30000000000E+02  0.00000000000E+00 0.  1.
          5    1    1    2  501    0 -0.18391175375E+02  0.11585375238E+02  0.20135882125E+02  0.30000000000E+02  0.47000000000E+01 0. -1.
         -5    1    1    2    0  501  0.18391175375E+02 -0.11585375238E+02 -0.20135882125E+02  0.30000000000E+02  0.47000000000E+01 0.  1.
</event>
<event>
 4    1  0.7580225E-002  0.6000000E+02  0.7546771E-02  0.1259629E+00
         11   -1    0    0    0    0  0.00000000000E+00  0.00000000000E+00  0.30000000000E+02  0.30000000000E+02  0.00000000000E+00 0. -1.
        -11   -1    0    0    0    0 -0.00000000000E+00 -0.00000000000E+00 -0.30000000000E+02  0.30000000000E+02  0.00000000000E+00 0.  1.
          5    1    1    2  501    0  0.99111299481E+01 -0.27921289835E+02  0.28474039767E+00  0.30000000000E+02  0.47000000000E+01 0. -1.
         -5    1    1    2    0  501 -0.99111299481E+01  0.27921289835E+02 -0.28474039767E+00  0.30000000000E+02  0.47000000000E+01 0.  1.
</event>
<event>
 4    1  0.7580225E-002  0.6000000E+02  0.7546771E-02  0.1259629E+00
         11   -1    0    0    0    0  0.00000000000E+00  0.00000000000E+00  0.30000000000E+02  0.30000000000E+02  0.00000000000E+00 0.  1.
        -11   -1    0    0    0    0 -0.00000000000E+00 -0.00000000000E+00 -0.30000000000E+02  0.30000000000E+02  0.00000000000E+00 0. -1.
          5    1    1    2  501    0  0.12703254464E+02  0.13287935717E+02 -0.23237213482E+02  0.30000000000E+02  0.47000000000E+01 0. -1.
         -5    1    1    2    0  501 -0.12703254464E+02 -0.13287935717E+02  0.23237213482E+02  0.30000000000E+02  0.47000000000E+01 0.  1.
</event>
<event>
 4    1  0.7580225E-002  0.6000000E+02  0.7546771E-02  0.1259629E+00
         11   -1    0    0    0    0  0.00000000000E+00  0.00000000000E+00  0.30000000000E+02  0.30000000000E+02  0.00000000000E+00 0.  1.
        -11   -1    0    0    0    0 -0.00000000000E+00 -0.00000000000E+00 -0.30000000000E+02  0.30000000000E+02  0.00000000000E+00 0. -1.
          5    1    1    2  501    0  0.44829813334E+00  0.19847280119E+02 -0.21995329064E+02  0.30000000000E+02  0.47000000000E+01 0. -1.
         -5    1    1    2    0  501 -0.44829813334E+00 -0.19847280119E+02  0.21995329064E+02  0.30000000000E+02  0.47000000000E+01 0.  1.
</event>
<event>
 4    1  0.7580225E-002  0.6000000E+02  0.7546771E-02  0.1259629E+00
         11   -1    0    0    0    0  0.00000000000E+00  0.00000000000E+00  0.30000000000E+02  0.30000000000E+02  0.00000000000E+00 0.  1.
        -11   -1    0    0    0    0 -0.00000000000E+00 -0.00000000000E+00 -0.30000000000E+02  0.30000000000E+02  0.00000000000E+00 0. -1.
          5    1    1    2  501    0  0.27904517178E+02  0.58334028771E+01 -0.80758486836E+01  0.30000000000E+02  0.47000000000E+01 0. -1.
         -5    1    1    2    0  501 -0.27904517178E+02 -0.58334028771E+01  0.80758486836E+01  0.30000000000E+02  0.47000000000E+01 0.  1.
</event>
<event>
 4    1  0.7580225E-002  0.6000000E+02  0.7546771E-02  0.1259629E+00
         11   -1    0    0    0    0  0.00000000000E+00  0.00000000000E+00  0.30000000000E+02  0.30000000000E+02  0.00000000000E+00 0. -1.
        -11   -1    0    0    0    0 -0.00000000000E+00 -0.00000000000E+00 -0.30000000000E+02  0.30000000000E+02  0.00000000000E+00 0.  1.
          5    1    1    2  501    0 -0.15213914675E+02 -0.13177801651E+02 -0.21743788628E+02  0.30000000000E+02  0.47000000000E+01 0.  1.
         -5    1    1    2    0  501  0.15213914675E+02  0.13177801651E+02  0.21743788628E+02  0.30000000000E+02  0.47000000000E+01 0. -1.
</event>
<event>
 4    1  0.7580225E-002  0.6000000E+02  0.7546771E-02  0.1259629E+00
         11   -1    0    0    0    0  0.00000000000E+00  0.00000000000E+00  0.30000000000E+02  0.30000000000E+02  0.00000000000E+00 0.  1.
        -11   -1    0    0    0    0 -0.00000000000E+00 -0.00000000000E+00 -0.30000000000E+02  0.30000000000E+02  0.00000000000E+00 0. -1.
          5    1    1    2  501    0 -0.18116403787E+02 -0.20747982988E+02  0.10919116986E+02  0.30000000000E+02  0.47000000000E+01 0. -1.
         -5    1    1    2    0  501  0.18116403787E+02  0.20747982988E+02 -0.10919116986E+02  0.30000000000E+02  0.47000000000E+01 0.  1.
</event>
<event>
 4    1  0.7580225E-002  0.6000000E+02  0.7546771E-02  0.1259629E+00
         11   -1    0    0    0    0  0.00000000000E+00  0.00000000000E+00  0.30000000000E+02  0.30000000000E+02  0.00000000000E+00 0.  1.
        -11   -1    0    0    0    0 -0.00000000000E+00 -0.00000000000E+00 -0.30000000000E+02  0.30000000000E+02  0.00000000000E+00 0. -1.
          5    1    1    2  501    0  0.19075289475E+02 -0.52300224715E+01 -0.22061056103E+02  0.30000000000E+02  0.47000000000E+01 0. -1.
         -5    1    1    2    0  501 -0.19075289475E+02  0.52300224715E+01  0.22061056103E+02  0.30000000000E+02  0.47000000000E+01 0.  1.
</event>
<event>
 4    1  0.7580225E-002  0.6000000E+02  0.7546771E-02  0.1259629E+00
         11   -1    0    0    0    0  0.00000000000E+00  0.00000000000E+00  0.30000000000E+02  0.30000000000E+02  0.00000000000E+00 0.  1.
        -11   -1    0    0    0    0 -0.00000000000E+00 -0.00000000000E+00 -0.30000000000E+02  0.30000000000E+02  0.00000000000E+00 0. -1.
          5    1    1    2  501    0  0.38420128093E+01 -0.10659147224E+02 -0.27377573268E+02  0.30000000000E+02  0.47000000000E+01 0. -1.
         -5    1    1    2    0  501 -0.38420128093E+01  0.10659147224E+02  0.27377573268E+02  0.30000000000E+02  0.47000000000E+01 0.  1.
</event>
<event>
 4    1  0.7580225E-002  0.6000000E+02  0.7546771E-02  0.1259629E+00
         11   -1    0    0    0    0  0.00000000000E+00  0.00000000000E+00  0.30000000000E+02  0.30000000000E+02  0.00000000000E+00 0.  1.
        -11   -1    0    0    0    0 -0.00000000000E+00 -0.00000000000E+00 -0.30000000000E+02  0.30000000000E+02  0.00000000000E+00 0. -1.
          5    1    1    2  501    0  0.13486665103E+02  0.36846119898E+01 -0.26123619559E+02  0.30000000000E+02  0.47000000000E+01 0. -1.
         -5    1    1    2    0  501 -0.13486665103E+02 -0.36846119898E+01  0.26123619559E+02  0.30000000000E+02  0.47000000000E+01 0.  1.
</event>
<event>
 4    1  0.7580225E-002  0.6000000E+02  0.7546771E-02  0.1259629E+00
         11   -1    0    0    0    0  0.00000000000E+00  0.00000000000E+00  0.30000000000E+02  0.30000000000E+02  0.00000000000E+00 0. -1.
        -11   -1    0    0    0    0 -0.00000000000E+00 -0.00000000000E+00 -0.30000000000E+02  0.30000000000E+02  0.00000000000E+00 0.  1.
          5    1    1    2  501    0 -0.24646423561E+02  0.87970365666E+01 -0.13895177339E+02  0.30000000000E+02  0.47000000000E+01 0.  1.
         -5    1    1    2    0  501  0.24646423561E+02 -0.87970365666E+01  0.13895177339E+02  0.30000000000E+02  0.47000000000E+01 0. -1.
</event>
<event>
 4    1  0.7580225E-002  0.6000000E+02  0.7546771E-02  0.1259629E+00
         11   -1    0    0    0    0  0.00000000000E+00  0.00000000000E+00  0.30000000000E+02  0.30000000000E+02  0.00000000000E+00 0.  1.
        -11   -1    0    0    0    0 -0.00000000000E+00 -0.00000000000E+00 -0.30000000000E+02  0.30000000000E+02  0.00000000000E+00 0. -1.
          5    1    1    2  501    0 -0.38970452505E+01  0.27966021010E+02 -0.89791261916E+01  0.30000000000E+02  0.47000000000E+01 0. -1.
         -5    1    1    2    0  501  0.38970452505E+01 -0.27966021010E+02  0.89791261916E+01  0.30000000000E+02  0.47000000000E+01 0.  1.
</event>
<event>
 4    1  0.7580225E-002  0.6000000E+02  0.7546771E-02  0.1259629E+00
         11   -1    0    0    0    0  0.00000000000E+00  0.00000000000E+00  0.30000000000E+02  0.30000000000E+02  0.00000000000E+00 0. -1.
        -11   -1    0    0    0    0 -0.00000000000E+00 -0.00000000000E+00 -0.30000000000E+02  0.30000000000E+02  0.00000000000E+00 0.  1.
          5    1    1    2  501    0 -0.29595994140E+02 -0.13629187879E+01  0.35997670052E+00  0.30000000000E+02  0.47000000000E+01 0.  1.
         -5    1    1    2    0  501  0.29595994140E+02  0.13629187879E+01 -0.35997670052E+00  0.30000000000E+02  0.47000000000E+01 0. -1.
</event>
<event>
 4    1  0.7580225E-002  0.6000000E+02  0.7546771E-02  0.1259629E+00
         11   -1    0    0    0    0  0.00000000000E+00  0.00000000000E+00  0.30000000000E+02  0.30000000000E+02  0.00000000000E+00 0. -1.
        -11   -1    0    0    0    0 -0.00000000000E+00 -0.00000000000E+00 -0.30000000000E+02  0.30000000000E+02  0.00000000000E+00 0.  1.
          5    1    1    2  501    0  0.40584640158E+01  0.28230681777E+02  0.80291641055E+01  0.30000000000E+02  0.47000000000E+01 0. -1.
         -5    1    1    2    0  501 -0.40584640158E+01 -0.28230681777E+02 -0.80291641055E+01  0.30000000000E+02  0.47000000000E+01 0.  1.
</event>
<event>
 4    1  0.7580225E-002  0.6000000E+02  0.7546771E-02  0.1259629E+00
         11   -1    0    0    0    0  0.00000000000E+00  0.00000000000E+00  0.30000000000E+02  0.30000000000E+02  0.00000000000E+00 0.  1.
        -11   -1    0    0    0    0 -0.00000000000E+00 -0.00000000000E+00 -0.30000000000E+02  0.30000000000E+02  0.00000000000E+00 0. -1.
          5    1    1    2  501    0 -0.29884162653E+01  0.21290734724E+02 -0.20388329582E+02  0.30000000000E+02  0.47000000000E+01 0. -1.
         -5    1    1    2    0  501  0.29884162653E+01 -0.21290734724E+02  0.20388329582E+02  0.30000000000E+02  0.47000000000E+01 0.  1.
</event>
<event>
 4    1  0.7580225E-002  0.6000000E+02  0.7546771E-02  0.1259629E+00
         11   -1    0    0    0    0  0.00000000000E+00  0.00000000000E+00  0.30000000000E+02  0.30000000000E+02  0.00000000000E+00 0. -1.
        -11   -1    0    0    0    0 -0.00000000000E+00 -0.00000000000E+00 -0.30000000000E+02  0.30000000000E+02  0.00000000000E+00 0.  1.
          5    1    1    2  501    0  0.56456597879E+00  0.93766006276E+01 -0.28101078732E+02  0.30000000000E+02  0.47000000000E+01 0.  1.
         -5    1    1    2    0  501 -0.56456597879E+00 -0.93766006276E+01  0.28101078732E+02  0.30000000000E+02  0.47000000000E+01 0. -1.
</event>
<event>
 4    1  0.7580225E-002  0.6000000E+02  0.7546771E-02  0.1259629E+00
         11   -1    0    0    0    0  0.00000000000E+00  0.00000000000E+00  0.30000000000E+02  0.30000000000E+02  0.00000000000E+00 0. -1.
        -11   -1    0    0    0    0 -0.00000000000E+00 -0.00000000000E+00 -0.30000000000E+02  0.30000000000E+02  0.00000000000E+00 0.  1.
          5    1    1    2  501    0  0.27313512589E+02 -0.15653409601E+01 -0.11376807010E+02  0.30000000000E+02  0.47000000000E+01 0.  1.
         -5    1    1    2    0  501 -0.27313512589E+02  0.15653409601E+01  0.11376807010E+02  0.30000000000E+02  0.47000000000E+01 0. -1.
</event>
<event>
 4    1  0.7580225E-002  0.6000000E+02  0.7546771E-02  0.1259629E+00
         11   -1    0    0    0    0  0.00000000000E+00  0.00000000000E+00  0.30000000000E+02  0.30000000000E+02  0.00000000000E+00 0.  1.
        -11   -1    0    0    0    0 -0.00000000000E+00 -0.00000000000E+00 -0.30000000000E+02  0.30000000000E+02  0.00000000000E+00 0. -1.
          5    1    1    2  501    0  0.26727923356E+02  0.12780108558E+02  0.44377734003E+00  0.30000000000E+02  0.47000000000E+01 0. -1.
         -5    1    1    2    0  501 -0.26727923356E+02 -0.12780108558E+02 -0.44377734003E+00  0.30000000000E+02  0.47000000000E+01 0.  1.
</event>
<event>
 4    1  0.7580225E-002  0.6000000E+02  0.7546771E-02  0.1259629E+00
         11   -1    0    0    0    0  0.00000000000E+00  0.00000000000E+00  0.30000000000E+02  0.30000000000E+02  0.00000000000E+00 0.  1.
        -11   -1    0    0    0    0 -0.00000000000E+00 -0.00000000000E+00 -0.30000000000E+02  0.30000000000E+02  0.00000000000E+00 0. -1.
          5    1    1    2  501    0  0.51271784311E+01  0.13924572152E+02 -0.25646214764E+02  0.30000000000E+02  0.47000000000E+01 0. -1.
         -5    1    1    2    0  501 -0.51271784311E+01 -0.13924572152E+02  0.25646214764E+02  0.30000000000E+02  0.47000000000E+01 0.  1.
</event>
<event>
 4    1  0.7580225E-002  0.6000000E+02  0.7546771E-02  0.1259629E+00
         11   -1    0    0    0    0  0.00000000000E+00  0.00000000000E+00  0.30000000000E+02  0.30000000000E+02  0.00000000000E+00 0.  1.
        -11   -1    0    0    0    0 -0.00000000000E+00 -0.00000000000E+00 -0.30000000000E+02  0.30000000000E+02  0.00000000000E+00 0. -1.
          5    1    1    2  501    0  0.39577305892E+01  0.69569687805E+01 -0.28528002979E+02  0.30000000000E+02  0.47000000000E+01 0. -1.
         -5    1    1    2    0  501 -0.39577305892E+01 -0.69569687805E+01  0.28528002979E+02  0.30000000000E+02  0.47000000000E+01 0.  1.
</event>
<event>
 4    1  0.7580225E-002  0.6000000E+02  0.7546771E-02  0.1259629E+00
         11   -1    0    0    0    0  0.00000000000E+00  0.00000000000E+00  0.30000000000E+02  0.30000000000E+02  0.00000000000E+00 0. -1.
        -11   -1    0    0    0    0 -0.00000000000E+00 -0.00000000000E+00 -0.30000000000E+02  0.30000000000E+02  0.00000000000E+00 0.  1.
          5    1    1    2  501    0 -0.11417934295E+02 -0.10120158152E+01 -0.27322455974E+02  0.30000000000E+02  0.47000000000E+01 0.  1.
         -5    1    1    2    0  501  0.11417934295E+02  0.10120158152E+01  0.27322455974E+02  0.30000000000E+02  0.47000000000E+01 0. -1.
</event>
<event>
 4    1  0.7580225E-002  0.6000000E+02  0.7546771E-02  0.1259629E+00
         11   -1    0    0    0    0  0.00000000000E+00  0.00000000000E+00  0.30000000000E+02  0.30000000000E+02  0.00000000000E+00 0. -1.
        -11   -1    0    0    0    0 -0.00000000000E+00 -0.00000000000E+00 -0.30000000000E+02  0.30000000000E+02  0.00000000000E+00 0.  1.
          5    1    1    2  501    0  0.86637700843E+01  0.28333510020E+02  0.24758407112E+00  0.30000000000E+02  0.47000000000E+01 0.  1.
         -5    1    1    2    0  501 -0.86637700843E+01 -0.28333510020E+02 -0.24758407112E+00  0.30000000000E+02  0.47000000000E+01 0. -1.
</event>
<event>
 4    1  0.7580225E-002  0.6000000E+02  0.7546771E-02  0.1259629E+00
         11   -1    0    0    0    0  0.00000000000E+00  0.00000000000E+00  0.30000000000E+02  0.30000000000E+02  0.00000000000E+00 0.  1.
        -11   -1    0    0    0    0 -0.00000000000E+00 -0.00000000000E+00 -0.30000000000E+02  0.30000000000E+02  0.00000000000E+00 0. -1.
          5    1    1    2  501    0 -0.12595471193E+02  0.35132465039E+01 -0.26587989853E+02  0.30000000000E+02  0.47000000000E+01 0. -1.
         -5    1    1    2    0  501  0.12595471193E+02 -0.35132465039E+01  0.26587989853E+02  0.30000000000E+02  0.47000000000E+01 0.  1.
</event>
<event>
 4    1  0.7580225E-002  0.6000000E+02  0.7546771E-02  0.1259629E+00
         11   -1    0    0    0    0  0.00000000000E+00  0.00000000000E+00  0.30000000000E+02  0.30000000000E+02  0.00000000000E+00 0.  1.
        -11   -1    0    0    0    0 -0.00000000000E+00 -0.00000000000E+00 -0.30000000000E+02  0.30000000000E+02  0.00000000000E+00 0. -1.
          5    1    1    2  501    0 -0.10585187765E+01  0.22131828841E+02 -0.19671596024E+02  0.30000000000E+02  0.47000000000E+01 0. -1.
         -5    1    1    2    0  501  0.10585187765E+01 -0.22131828841E+02  0.19671596024E+02  0.30000000000E+02  0.47000000000E+01 0.  1.
</event>
<event>
 4    1  0.7580225E-002  0.6000000E+02  0.7546771E-02  0.1259629E+00
         11   -1    0    0    0    0  0.00000000000E+00  0.00000000000E+00  0.30000000000E+02  0.30000000000E+02  0.00000000000E+00 0. -1.
        -11   -1    0    0    0    0 -0.00000000000E+00 -0.00000000000E+00 -0.30000000000E+02  0.30000000000E+02  0.00000000000E+00 0.  1.
          5    1    1    2  501    0  0.18561551342E+02  0.12926683872E+02  0.19138433997E+02  0.30000000000E+02  0.47000000000E+01 0. -1.
         -5    1    1    2    0  501 -0.18561551342E+02 -0.12926683872E+02 -0.19138433997E+02  0.30000000000E+02  0.47000000000E+01 0.  1.
</event>
<event>
 4    1  0.7580225E-002  0.6000000E+02  0.7546771E-02  0.1259629E+00
         11   -1    0    0    0    0  0.00000000000E+00  0.00000000000E+00  0.30000000000E+02  0.30000000000E+02  0.00000000000E+00 0.  1.
        -11   -1    0    0    0    0 -0.00000000000E+00 -0.00000000000E+00 -0.30000000000E+02  0.30000000000E+02  0.00000000000E+00 0. -1.
          5    1    1    2  501    0  0.22144327185E+01 -0.28637367167E+02 -0.72737534637E+01  0.30000000000E+02  0.47000000000E+01 0. -1.
         -5    1    1    2    0  501 -0.22144327185E+01  0.28637367167E+02  0.72737534637E+01  0.30000000000E+02  0.47000000000E+01 0.  1.
</event>
<event>
 4    1  0.7580225E-002  0.6000000E+02  0.7546771E-02  0.1259629E+00
         11   -1    0    0    0    0  0.00000000000E+00  0.00000000000E+00  0.30000000000E+02  0.30000000000E+02  0.00000000000E+00 0.  1.
        -11   -1    0    0    0    0 -0.00000000000E+00 -0.00000000000E+00 -0.30000000000E+02  0.30000000000E+02  0.00000000000E+00 0. -1.
          5    1    1    2  501    0 -0.94061276621E+01  0.16624032662E+02 -0.22651187617E+02  0.30000000000E+02  0.47000000000E+01 0. -1.
         -5    1    1    2    0  501  0.94061276621E+01 -0.16624032662E+02  0.22651187617E+02  0.30000000000E+02  0.47000000000E+01 0.  1.
</event>
<event>
 4    1  0.7580225E-002  0.6000000E+02  0.7546771E-02  0.1259629E+00
         11   -1    0    0    0    0  0.00000000000E+00  0.00000000000E+00  0.30000000000E+02  0.30000000000E+02  0.00000000000E+00 0.  1.
        -11   -1    0    0    0    0 -0.00000000000E+00 -0.00000000000E+00 -0.30000000000E+02  0.30000000000E+02  0.00000000000E+00 0. -1.
          5    1    1    2  501    0  0.27658722535E+02 -0.76214311996E+01  0.74039755670E+01  0.30000000000E+02  0.47000000000E+01 0. -1.
         -5    1    1    2    0  501 -0.27658722535E+02  0.76214311996E+01 -0.74039755670E+01  0.30000000000E+02  0.47000000000E+01 0.  1.
</event>
<event>
 4    1  0.7580225E-002  0.6000000E+02  0.7546771E-02  0.1259629E+00
         11   -1    0    0    0    0  0.00000000000E+00  0.00000000000E+00  0.30000000000E+02  0.30000000000E+02  0.00000000000E+00 0.  1.
        -11   -1    0    0    0    0 -0.00000000000E+00 -0.00000000000E+00 -0.30000000000E+02  0.30000000000E+02  0.00000000000E+00 0. -1.
          5    1    1    2  501    0  0.12489481502E+02 -0.20822200717E+02 -0.16981130973E+02  0.30000000000E+02  0.47000000000E+01 0. -1.
         -5    1    1    2    0  501 -0.12489481502E+02  0.20822200717E+02  0.16981130973E+02  0.30000000000E+02  0.47000000000E+01 0.  1.
</event>
<event>
 4    1  0.7580225E-002  0.6000000E+02  0.7546771E-02  0.1259629E+00
         11   -1    0    0    0    0  0.00000000000E+00  0.00000000000E+00  0.30000000000E+02  0.30000000000E+02  0.00000000000E+00 0.  1.
        -11   -1    0    0    0    0 -0.00000000000E+00 -0.00000000000E+00 -0.30000000000E+02  0.30000000000E+02  0.00000000000E+00 0. -1.
          5    1    1    2  501    0  0.14143275238E+02 -0.10466307619E+02 -0.23839760283E+02  0.30000000000E+02  0.47000000000E+01 0. -1.
         -5    1    1    2    0  501 -0.14143275238E+02  0.10466307619E+02  0.23839760283E+02  0.30000000000E+02  0.47000000000E+01 0.  1.
</event>
<event>
 4    1  0.7580225E-002  0.6000000E+02  0.7546771E-02  0.1259629E+00
         11   -1    0    0    0    0  0.00000000000E+00  0.00000000000E+00  0.30000000000E+02  0.30000000000E+02  0.00000000000E+00 0.  1.
        -11   -1    0    0    0    0 -0.00000000000E+00 -0.00000000000E+00 -0.30000000000E+02  0.30000000000E+02  0.00000000000E+00 0. -1.
          5    1    1    2  501    0  0.17725752435E+01  0.29313387956E+02 -0.39361483136E+01  0.30000000000E+02  0.47000000000E+01 0. -1.
         -5    1    1    2    0  501 -0.17725752435E+01 -0.29313387956E+02  0.39361483136E+01  0.30000000000E+02  0.47000000000E+01 0.  1.
</event>
<event>
 4    1  0.7580225E-002  0.6000000E+02  0.7546771E-02  0.1259629E+00
         11   -1    0    0    0    0  0.00000000000E+00  0.00000000000E+00  0.30000000000E+02  0.30000000000E+02  0.00000000000E+00 0.  1.
        -11   -1    0    0    0    0 -0.00000000000E+00 -0.00000000000E+00 -0.30000000000E+02  0.30000000000E+02  0.00000000000E+00 0. -1.
          5    1    1    2  501    0  0.27821871301E+02  0.30012071205E+01  0.97389030773E+01  0.30000000000E+02  0.47000000000E+01 0. -1.
         -5    1    1    2    0  501 -0.27821871301E+02 -0.30012071205E+01 -0.97389030773E+01  0.30000000000E+02  0.47000000000E+01 0.  1.
</event>
<event>
 4    1  0.7580225E-002  0.6000000E+02  0.7546771E-02  0.1259629E+00
         11   -1    0    0    0    0  0.00000000000E+00  0.00000000000E+00  0.30000000000E+02  0.30000000000E+02  0.00000000000E+00 0.  1.
        -11   -1    0    0    0    0 -0.00000000000E+00 -0.00000000000E+00 -0.30000000000E+02  0.30000000000E+02  0.00000000000E+00 0. -1.
          5    1    1    2  501    0  0.14009370199E+02 -0.24853181744E+02 -0.79979312204E+01  0.30000000000E+02  0.47000000000E+01 0. -1.
         -5    1    1    2    0  501 -0.14009370199E+02  0.24853181744E+02  0.79979312204E+01  0.30000000000E+02  0.47000000000E+01 0.  1.
</event>
<event>
 4    1  0.7580225E-002  0.6000000E+02  0.7546771E-02  0.1259629E+00
         11   -1    0    0    0    0  0.00000000000E+00  0.00000000000E+00  0.30000000000E+02  0.30000000000E+02  0.00000000000E+00 0.  1.
        -11   -1    0    0    0    0 -0.00000000000E+00 -0.00000000000E+00 -0.30000000000E+02  0.30000000000E+02  0.00000000000E+00 0. -1.
          5    1    1    2  501    0 -0.25804178895E+01 -0.11724094083E+02 -0.27088688810E+02  0.30000000000E+02  0.47000000000E+01 0. -1.
         -5    1    1    2    0  501  0.25804178895E+01  0.11724094083E+02  0.27088688810E+02  0.30000000000E+02  0.47000000000E+01 0.  1.
</event>
<event>
 4    1  0.7580225E-002  0.6000000E+02  0.7546771E-02  0.1259629E+00
         11   -1    0    0    0    0  0.00000000000E+00  0.00000000000E+00  0.30000000000E+02  0.30000000000E+02  0.00000000000E+00 0.  1.
        -11   -1    0    0    0    0 -0.00000000000E+00 -0.00000000000E+00 -0.30000000000E+02  0.30000000000E+02  0.00000000000E+00 0. -1.
          5    1    1    2  501    0 -0.64183618967E+01  0.17328214836E+02 -0.23161338501E+02  0.30000000000E+02  0.47000000000E+01 0. -1.
         -5    1    1    2    0  501  0.64183618967E+01 -0.17328214836E+02  0.23161338501E+02  0.30000000000E+02  0.47000000000E+01 0.  1.
</event>
<event>
 4    1  0.7580225E-002  0.6000000E+02  0.7546771E-02  0.1259629E+00
         11   -1    0    0    0    0  0.00000000000E+00  0.00000000000E+00  0.30000000000E+02  0.30000000000E+02  0.00000000000E+00 0.  1.
        -11   -1    0    0    0    0 -0.00000000000E+00 -0.00000000000E+00 -0.30000000000E+02  0.30000000000E+02  0.00000000000E+00 0. -1.
          5    1    1    2  501    0  0.16808882153E+02 -0.14103475450E+02 -0.19911390233E+02  0.30000000000E+02  0.47000000000E+01 0. -1.
         -5    1    1    2    0  501 -0.16808882153E+02  0.14103475450E+02  0.19911390233E+02  0.30000000000E+02  0.47000000000E+01 0.  1.
</event>
<event>
 4    1  0.7580225E-002  0.6000000E+02  0.7546771E-02  0.1259629E+00
         11   -1    0    0    0    0  0.00000000000E+00  0.00000000000E+00  0.30000000000E+02  0.30000000000E+02  0.00000000000E+00 0.  1.
        -11   -1    0    0    0    0 -0.00000000000E+00 -0.00000000000E+00 -0.30000000000E+02  0.30000000000E+02  0.00000000000E+00 0. -1.
          5    1    1    2  501    0  0.20500372547E+02  0.17757292737E+02  0.11929932108E+02  0.30000000000E+02  0.47000000000E+01 0. -1.
         -5    1    1    2    0  501 -0.20500372547E+02 -0.17757292737E+02 -0.11929932108E+02  0.30000000000E+02  0.47000000000E+01 0. -1.
</event>
<event>
 4    1  0.7580225E-002  0.6000000E+02  0.7546771E-02  0.1259629E+00
         11   -1    0    0    0    0  0.00000000000E+00  0.00000000000E+00  0.30000000000E+02  0.30000000000E+02  0.00000000000E+00 0.  1.
        -11   -1    0    0    0    0 -0.00000000000E+00 -0.00000000000E+00 -0.30000000000E+02  0.30000000000E+02  0.00000000000E+00 0. -1.
          5    1    1    2  501    0  0.19033167585E+02  0.12633074041E+02 -0.18869392464E+02  0.30000000000E+02  0.47000000000E+01 0. -1.
         -5    1    1    2    0  501 -0.19033167585E+02 -0.12633074041E+02  0.18869392464E+02  0.30000000000E+02  0.47000000000E+01 0.  1.
</event>
<event>
 4    1  0.7580225E-002  0.6000000E+02  0.7546771E-02  0.1259629E+00
         11   -1    0    0    0    0  0.00000000000E+00  0.00000000000E+00  0.30000000000E+02  0.30000000000E+02  0.00000000000E+00 0.  1.
        -11   -1    0    0    0    0 -0.00000000000E+00 -0.00000000000E+00 -0.30000000000E+02  0.30000000000E+02  0.00000000000E+00 0. -1.
          5    1    1    2  501    0  0.19458784365E+02 -0.23244291437E+01 -0.22223022751E+02  0.30000000000E+02  0.47000000000E+01 0. -1.
         -5    1    1    2    0  501 -0.19458784365E+02  0.23244291437E+01  0.22223022751E+02  0.30000000000E+02  0.47000000000E+01 0.  1.
</event>
<event>
 4    1  0.7580225E-002  0.6000000E+02  0.7546771E-02  0.1259629E+00
         11   -1    0    0    0    0  0.00000000000E+00  0.00000000000E+00  0.30000000000E+02  0.30000000000E+02  0.00000000000E+00 0.  1.
        -11   -1    0    0    0    0 -0.00000000000E+00 -0.00000000000E+00 -0.30000000000E+02  0.30000000000E+02  0.00000000000E+00 0. -1.
          5    1    1    2  501    0 -0.17423345747E+02 -0.19301461660E+02 -0.14205301855E+02  0.30000000000E+02  0.47000000000E+01 0. -1.
         -5    1    1    2    0  501  0.17423345747E+02  0.19301461660E+02  0.14205301855E+02  0.30000000000E+02  0.47000000000E+01 0.  1.
</event>
<event>
 4    1  0.7580225E-002  0.6000000E+02  0.7546771E-02  0.1259629E+00
         11   -1    0    0    0    0  0.00000000000E+00  0.00000000000E+00  0.30000000000E+02  0.30000000000E+02  0.00000000000E+00 0.  1.
        -11   -1    0    0    0    0 -0.00000000000E+00 -0.00000000000E+00 -0.30000000000E+02  0.30000000000E+02  0.00000000000E+00 0. -1.
          5    1    1    2  501    0 -0.72968236300E+01 -0.17003486312E+02 -0.23141906104E+02  0.30000000000E+02  0.47000000000E+01 0. -1.
         -5    1    1    2    0  501  0.72968236300E+01  0.17003486312E+02  0.23141906104E+02  0.30000000000E+02  0.47000000000E+01 0.  1.
</event>
<event>
 4    1  0.7580225E-002  0.6000000E+02  0.7546771E-02  0.1259629E+00
         11   -1    0    0    0    0  0.00000000000E+00  0.00000000000E+00  0.30000000000E+02  0.30000000000E+02  0.00000000000E+00 0.  1.
        -11   -1    0    0    0    0 -0.00000000000E+00 -0.00000000000E+00 -0.30000000000E+02  0.30000000000E+02  0.00000000000E+00 0. -1.
          5    1    1    2  501    0  0.19521800162E+02 -0.36873546239E+01 -0.21982100316E+02  0.30000000000E+02  0.47000000000E+01 0. -1.
         -5    1    1    2    0  501 -0.19521800162E+02  0.36873546239E+01  0.21982100316E+02  0.30000000000E+02  0.47000000000E+01 0.  1.
</event>
<event>
 4    1  0.7580225E-002  0.6000000E+02  0.7546771E-02  0.1259629E+00
         11   -1    0    0    0    0  0.00000000000E+00  0.00000000000E+00  0.30000000000E+02  0.30000000000E+02  0.00000000000E+00 0.  1.
        -11   -1    0    0    0    0 -0.00000000000E+00 -0.00000000000E+00 -0.30000000000E+02  0.30000000000E+02  0.00000000000E+00 0. -1.
          5    1    1    2  501    0 -0.23558557710E+02 -0.13408433655E+02 -0.11963204652E+02  0.30000000000E+02  0.47000000000E+01 0. -1.
         -5    1    1    2    0  501  0.23558557710E+02  0.13408433655E+02  0.11963204652E+02  0.30000000000E+02  0.47000000000E+01 0.  1.
</event>
<event>
 4    1  0.7580225E-002  0.6000000E+02  0.7546771E-02  0.1259629E+00
         11   -1    0    0    0    0  0.00000000000E+00  0.00000000000E+00  0.30000000000E+02  0.30000000000E+02  0.00000000000E+00 0. -1.
        -11   -1    0    0    0    0 -0.00000000000E+00 -0.00000000000E+00 -0.30000000000E+02  0.30000000000E+02  0.00000000000E+00 0.  1.
          5    1    1    2  501    0  0.22951731712E+02  0.14477006231E+02 -0.11897239260E+02  0.30000000000E+02  0.47000000000E+01 0.  1.
         -5    1    1    2    0  501 -0.22951731712E+02 -0.14477006231E+02  0.11897239260E+02  0.30000000000E+02  0.47000000000E+01 0. -1.
</event>
<event>
 4    1  0.7580225E-002  0.6000000E+02  0.7546771E-02  0.1259629E+00
         11   -1    0    0    0    0  0.00000000000E+00  0.00000000000E+00  0.30000000000E+02  0.30000000000E+02  0.00000000000E+00 0.  1.
        -11   -1    0    0    0    0 -0.00000000000E+00 -0.00000000000E+00 -0.30000000000E+02  0.30000000000E+02  0.00000000000E+00 0. -1.
          5    1    1    2  501    0  0.13562683510E+02 -0.22547035424E+02 -0.13623318597E+02  0.30000000000E+02  0.47000000000E+01 0. -1.
         -5    1    1    2    0  501 -0.13562683510E+02  0.22547035424E+02  0.13623318597E+02  0.30000000000E+02  0.47000000000E+01 0.  1.
</event>
<event>
 4    1  0.7580225E-002  0.6000000E+02  0.7546771E-02  0.1259629E+00
         11   -1    0    0    0    0  0.00000000000E+00  0.00000000000E+00  0.30000000000E+02  0.30000000000E+02  0.00000000000E+00 0.  1.
        -11   -1    0    0    0    0 -0.00000000000E+00 -0.00000000000E+00 -0.30000000000E+02  0.30000000000E+02  0.00000000000E+00 0. -1.
          5    1    1    2  501    0 -0.14795454404E+02  0.25574917914E+02 -0.22199330329E+01  0.30000000000E+02  0.47000000000E+01 0. -1.
         -5    1    1    2    0  501  0.14795454404E+02 -0.25574917914E+02  0.22199330329E+01  0.30000000000E+02  0.47000000000E+01 0.  1.
</event>
<event>
 4    1  0.7580225E-002  0.6000000E+02  0.7546771E-02  0.1259629E+00
         11   -1    0    0    0    0  0.00000000000E+00  0.00000000000E+00  0.30000000000E+02  0.30000000000E+02  0.00000000000E+00 0.  1.
        -11   -1    0    0    0    0 -0.00000000000E+00 -0.00000000000E+00 -0.30000000000E+02  0.30000000000E+02  0.00000000000E+00 0. -1.
          5    1    1    2  501    0 -0.20170575155E+02  0.61252438502E+01 -0.20821606223E+02  0.30000000000E+02  0.47000000000E+01 0. -1.
         -5    1    1    2    0  501  0.20170575155E+02 -0.61252438502E+01  0.20821606223E+02  0.30000000000E+02  0.47000000000E+01 0.  1.
</event>
<event>
 4    1  0.7580225E-002  0.6000000E+02  0.7546771E-02  0.1259629E+00
         11   -1    0    0    0    0  0.00000000000E+00  0.00000000000E+00  0.30000000000E+02  0.30000000000E+02  0.00000000000E+00 0.  1.
        -11   -1    0    0    0    0 -0.00000000000E+00 -0.00000000000E+00 -0.30000000000E+02  0.30000000000E+02  0.00000000000E+00 0. -1.
          5    1    1    2  501    0  0.66687138001E+01 -0.28734564349E+02  0.27862282593E+01  0.30000000000E+02  0.47000000000E+01 0. -1.
         -5    1    1    2    0  501 -0.66687138001E+01  0.28734564349E+02 -0.27862282593E+01  0.30000000000E+02  0.47000000000E+01 0.  1.
</event>
<event>
 4    1  0.7580225E-002  0.6000000E+02  0.7546771E-02  0.1259629E+00
         11   -1    0    0    0    0  0.00000000000E+00  0.00000000000E+00  0.30000000000E+02  0.30000000000E+02  0.00000000000E+00 0. -1.
        -11   -1    0    0    0    0 -0.00000000000E+00 -0.00000000000E+00 -0.30000000000E+02  0.30000000000E+02  0.00000000000E+00 0.  1.
          5    1    1    2  501    0 -0.79340854169E+01  0.22334507148E+02  0.17780047217E+02  0.30000000000E+02  0.47000000000E+01 0.  1.
         -5    1    1    2    0  501  0.79340854169E+01 -0.22334507148E+02 -0.17780047217E+02  0.30000000000E+02  0.47000000000E+01 0. -1.
</event>
<event>
 4    1  0.7580225E-002  0.6000000E+02  0.7546771E-02  0.1259629E+00
         11   -1    0    0    0    0  0.00000000000E+00  0.00000000000E+00  0.30000000000E+02  0.30000000000E+02  0.00000000000E+00 0. -1.
        -11   -1    0    0    0    0 -0.00000000000E+00 -0.00000000000E+00 -0.30000000000E+02  0.30000000000E+02  0.00000000000E+00 0.  1.
          5    1    1    2  501    0 -0.28988426338E+02  0.56605546068E+01 -0.23535632509E+01  0.30000000000E+02  0.47000000000E+01 0.  1.
         -5    1    1    2    0  501  0.28988426338E+02 -0.56605546068E+01  0.23535632509E+01  0.30000000000E+02  0.47000000000E+01 0. -1.
</event>
<event>
 4    1  0.7580225E-002  0.6000000E+02  0.7546771E-02  0.1259629E+00
         11   -1    0    0    0    0  0.00000000000E+00  0.00000000000E+00  0.30000000000E+02  0.30000000000E+02  0.00000000000E+00 0. -1.
        -11   -1    0    0    0    0 -0.00000000000E+00 -0.00000000000E+00 -0.30000000000E+02  0.30000000000E+02  0.00000000000E+00 0.  1.
          5    1    1    2  501    0  0.20684764579E+02 -0.10634304737E+02 -0.18356526825E+02  0.30000000000E+02  0.47000000000E+01 0.  1.
         -5    1    1    2    0  501 -0.20684764579E+02  0.10634304737E+02  0.18356526825E+02  0.30000000000E+02  0.47000000000E+01 0. -1.
</event>
<event>
 4    1  0.7580225E-002  0.6000000E+02  0.7546771E-02  0.1259629E+00
         11   -1    0    0    0    0  0.00000000000E+00  0.00000000000E+00  0.30000000000E+02  0.30000000000E+02  0.00000000000E+00 0.  1.
        -11   -1    0    0    0    0 -0.00000000000E+00 -0.00000000000E+00 -0.30000000000E+02  0.30000000000E+02  0.00000000000E+00 0. -1.
          5    1    1    2  501    0 -0.17300602240E+02 -0.23210986541E+02 -0.63126274966E+01  0.30000000000E+02  0.47000000000E+01 0. -1.
         -5    1    1    2    0  501  0.17300602240E+02  0.23210986541E+02  0.63126274966E+01  0.30000000000E+02  0.47000000000E+01 0.  1.
</event>
<event>
 4    1  0.7580225E-002  0.6000000E+02  0.7546771E-02  0.1259629E+00
         11   -1    0    0    0    0  0.00000000000E+00  0.00000000000E+00  0.30000000000E+02  0.30000000000E+02  0.00000000000E+00 0. -1.
        -11   -1    0    0    0    0 -0.00000000000E+00 -0.00000000000E+00 -0.30000000000E+02  0.30000000000E+02  0.00000000000E+00 0.  1.
          5    1    1    2  501    0  0.66969344178E+01  0.39526593641E+00  0.28860090683E+02  0.30000000000E+02  0.47000000000E+01 0. -1.
         -5    1    1    2    0  501 -0.66969344178E+01 -0.39526593641E+00 -0.28860090683E+02  0.30000000000E+02  0.47000000000E+01 0.  1.
</event>
<event>
 4    1  0.7580225E-002  0.6000000E+02  0.7546771E-02  0.1259629E+00
         11   -1    0    0    0    0  0.00000000000E+00  0.00000000000E+00  0.30000000000E+02  0.30000000000E+02  0.00000000000E+00 0.  1.
        -11   -1    0    0    0    0 -0.00000000000E+00 -0.00000000000E+00 -0.30000000000E+02  0.30000000000E+02  0.00000000000E+00 0. -1.
          5    1    1    2  501    0  0.23311502952E+02 -0.18257058905E+02  0.10787169480E+01  0.30000000000E+02  0.47000000000E+01 0. -1.
         -5    1    1    2    0  501 -0.23311502952E+02  0.18257058905E+02 -0.10787169480E+01  0.30000000000E+02  0.47000000000E+01 0.  1.
</event>
<event>
 4    1  0.7580225E-002  0.6000000E+02  0.7546771E-02  0.1259629E+00
         11   -1    0    0    0    0  0.00000000000E+00  0.00000000000E+00  0.30000000000E+02  0.30000000000E+02  0.00000000000E+00 0.  1.
        -11   -1    0    0    0    0 -0.00000000000E+00 -0.00000000000E+00 -0.30000000000E+02  0.30000000000E+02  0.00000000000E+00 0. -1.
          5    1    1    2  501    0 -0.18120131524E+02  0.10444292187E+02  0.20987796317E+02  0.30000000000E+02  0.47000000000E+01 0.  1.
         -5    1    1    2    0  501  0.18120131524E+02 -0.10444292187E+02 -0.20987796317E+02  0.30000000000E+02  0.47000000000E+01 0. -1.
</event>
<event>
 4    1  0.7580225E-002  0.6000000E+02  0.7546771E-02  0.1259629E+00
         11   -1    0    0    0    0  0.00000000000E+00  0.00000000000E+00  0.30000000000E+02  0.30000000000E+02  0.00000000000E+00 0.  1.
        -11   -1    0    0    0    0 -0.00000000000E+00 -0.00000000000E+00 -0.30000000000E+02  0.30000000000E+02  0.00000000000E+00 0. -1.
          5    1    1    2  501    0 -0.10657282913E+02 -0.11378853906E+02 -0.25196309347E+02  0.30000000000E+02  0.47000000000E+01 0. -1.
         -5    1    1    2    0  501  0.10657282913E+02  0.11378853906E+02  0.25196309347E+02  0.30000000000E+02  0.47000000000E+01 0.  1.
</event>
<event>
 4    1  0.7580225E-002  0.6000000E+02  0.7546771E-02  0.1259629E+00
         11   -1    0    0    0    0  0.00000000000E+00  0.00000000000E+00  0.30000000000E+02  0.30000000000E+02  0.00000000000E+00 0.  1.
        -11   -1    0    0    0    0 -0.00000000000E+00 -0.00000000000E+00 -0.30000000000E+02  0.30000000000E+02  0.00000000000E+00 0. -1.
          5    1    1    2  501    0  0.16848566624E+02  0.11105179593E+01 -0.24347536889E+02  0.30000000000E+02  0.47000000000E+01 0. -1.
         -5    1    1    2    0  501 -0.16848566624E+02 -0.11105179593E+01  0.24347536889E+02  0.30000000000E+02  0.47000000000E+01 0.  1.
</event>
<event>
 4    1  0.7580225E-002  0.6000000E+02  0.7546771E-02  0.1259629E+00
         11   -1    0    0    0    0  0.00000000000E+00  0.00000000000E+00  0.30000000000E+02  0.30000000000E+02  0.00000000000E+00 0.  1.
        -11   -1    0    0    0    0 -0.00000000000E+00 -0.00000000000E+00 -0.30000000000E+02  0.30000000000E+02  0.00000000000E+00 0. -1.
          5    1    1    2  501    0 -0.16642048936E+02 -0.23814102281E+02 -0.58172794124E+01  0.30000000000E+02  0.47000000000E+01 0. -1.
         -5    1    1    2    0  501  0.16642048936E+02  0.23814102281E+02  0.58172794124E+01  0.30000000000E+02  0.47000000000E+01 0.  1.
</event>
<event>
 4    1  0.7580225E-002  0.6000000E+02  0.7546771E-02  0.1259629E+00
         11   -1    0    0    0    0  0.00000000000E+00  0.00000000000E+00  0.30000000000E+02  0.30000000000E+02  0.00000000000E+00 0.  1.
        -11   -1    0    0    0    0 -0.00000000000E+00 -0.00000000000E+00 -0.30000000000E+02  0.30000000000E+02  0.00000000000E+00 0. -1.
          5    1    1    2  501    0 -0.11198165523E+02 -0.99522829326E+01 -0.25562925367E+02  0.30000000000E+02  0.47000000000E+01 0. -1.
         -5    1    1    2    0  501  0.11198165523E+02  0.99522829326E+01  0.25562925367E+02  0.30000000000E+02  0.47000000000E+01 0.  1.
</event>
<event>
 4    1  0.7580225E-002  0.6000000E+02  0.7546771E-02  0.1259629E+00
         11   -1    0    0    0    0  0.00000000000E+00  0.00000000000E+00  0.30000000000E+02  0.30000000000E+02  0.00000000000E+00 0.  1.
        -11   -1    0    0    0    0 -0.00000000000E+00 -0.00000000000E+00 -0.30000000000E+02  0.30000000000E+02  0.00000000000E+00 0. -1.
          5    1    1    2  501    0  0.14101490264E+02 -0.13532786742E+02 -0.22269298492E+02  0.30000000000E+02  0.47000000000E+01 0. -1.
         -5    1    1    2    0  501 -0.14101490264E+02  0.13532786742E+02  0.22269298492E+02  0.30000000000E+02  0.47000000000E+01 0.  1.
</event>
<event>
 4    1  0.7580225E-002  0.6000000E+02  0.7546771E-02  0.1259629E+00
         11   -1    0    0    0    0  0.00000000000E+00  0.00000000000E+00  0.30000000000E+02  0.30000000000E+02  0.00000000000E+00 0.  1.
        -11   -1    0    0    0    0 -0.00000000000E+00 -0.00000000000E+00 -0.30000000000E+02  0.30000000000E+02  0.00000000000E+00 0. -1.
          5    1    1    2  501    0  0.41034497504E+01  0.28849967789E+02  0.53620013746E+01  0.30000000000E+02  0.47000000000E+01 0.  1.
         -5    1    1    2    0  501 -0.41034497504E+01 -0.28849967789E+02 -0.53620013746E+01  0.30000000000E+02  0.47000000000E+01 0. -1.
</event>
<event>
 4    1  0.7580225E-002  0.6000000E+02  0.7546771E-02  0.1259629E+00
         11   -1    0    0    0    0  0.00000000000E+00  0.00000000000E+00  0.30000000000E+02  0.30000000000E+02  0.00000000000E+00 0.  1.
        -11   -1    0    0    0    0 -0.00000000000E+00 -0.00000000000E+00 -0.30000000000E+02  0.30000000000E+02  0.00000000000E+00 0. -1.
          5    1    1    2  501    0 -0.88847674385E+01 -0.37194524159E+00 -0.28263626170E+02  0.30000000000E+02  0.47000000000E+01 0. -1.
         -5    1    1    2    0  501  0.88847674385E+01  0.37194524159E+00  0.28263626170E+02  0.30000000000E+02  0.47000000000E+01 0.  1.
</event>
<event>
 4    1  0.7580225E-002  0.6000000E+02  0.7546771E-02  0.1259629E+00
         11   -1    0    0    0    0  0.00000000000E+00  0.00000000000E+00  0.30000000000E+02  0.30000000000E+02  0.00000000000E+00 0.  1.
        -11   -1    0    0    0    0 -0.00000000000E+00 -0.00000000000E+00 -0.30000000000E+02  0.30000000000E+02  0.00000000000E+00 0. -1.
          5    1    1    2  501    0 -0.86256049917E+01  0.27704832557E+02 -0.59959312454E+01  0.30000000000E+02  0.47000000000E+01 0.  1.
         -5    1    1    2    0  501  0.86256049917E+01 -0.27704832557E+02  0.59959312454E+01  0.30000000000E+02  0.47000000000E+01 0. -1.
</event>
<event>
 4    1  0.7580225E-002  0.6000000E+02  0.7546771E-02  0.1259629E+00
         11   -1    0    0    0    0  0.00000000000E+00  0.00000000000E+00  0.30000000000E+02  0.30000000000E+02  0.00000000000E+00 0. -1.
        -11   -1    0    0    0    0 -0.00000000000E+00 -0.00000000000E+00 -0.30000000000E+02  0.30000000000E+02  0.00000000000E+00 0.  1.
          5    1    1    2  501    0  0.16727358930E+02 -0.17880773090E+02 -0.16684825949E+02  0.30000000000E+02  0.47000000000E+01 0.  1.
         -5    1    1    2    0  501 -0.16727358930E+02  0.17880773090E+02  0.16684825949E+02  0.30000000000E+02  0.47000000000E+01 0. -1.
</event>
<event>
 4    1  0.7580225E-002  0.6000000E+02  0.7546771E-02  0.1259629E+00
         11   -1    0    0    0    0  0.00000000000E+00  0.00000000000E+00  0.30000000000E+02  0.30000000000E+02  0.00000000000E+00 0.  1.
        -11   -1    0    0    0    0 -0.00000000000E+00 -0.00000000000E+00 -0.30000000000E+02  0.30000000000E+02  0.00000000000E+00 0. -1.
          5    1    1    2  501    0 -0.15537165880E+02  0.36249676354E+00 -0.25226475626E+02  0.30000000000E+02  0.47000000000E+01 0. -1.
         -5    1    1    2    0  501  0.15537165880E+02 -0.36249676354E+00  0.25226475626E+02  0.30000000000E+02  0.47000000000E+01 0.  1.
</event>
<event>
 4    1  0.7580225E-002  0.6000000E+02  0.7546771E-02  0.1259629E+00
         11   -1    0    0    0    0  0.00000000000E+00  0.00000000000E+00  0.30000000000E+02  0.30000000000E+02  0.00000000000E+00 0.  1.
        -11   -1    0    0    0    0 -0.00000000000E+00 -0.00000000000E+00 -0.30000000000E+02  0.30000000000E+02  0.00000000000E+00 0. -1.
          5    1    1    2  501    0 -0.27134928221E+02 -0.18453501516E+00 -0.11898387171E+02  0.30000000000E+02  0.47000000000E+01 0. -1.
         -5    1    1    2    0  501  0.27134928221E+02  0.18453501516E+00  0.11898387171E+02  0.30000000000E+02  0.47000000000E+01 0.  1.
</event>
<event>
 4    1  0.7580225E-002  0.6000000E+02  0.7546771E-02  0.1259629E+00
         11   -1    0    0    0    0  0.00000000000E+00  0.00000000000E+00  0.30000000000E+02  0.30000000000E+02  0.00000000000E+00 0.  1.
        -11   -1    0    0    0    0 -0.00000000000E+00 -0.00000000000E+00 -0.30000000000E+02  0.30000000000E+02  0.00000000000E+00 0. -1.
          5    1    1    2  501    0 -0.92322578201E+01  0.11041121097E+02 -0.25899209650E+02  0.30000000000E+02  0.47000000000E+01 0. -1.
         -5    1    1    2    0  501  0.92322578201E+01 -0.11041121097E+02  0.25899209650E+02  0.30000000000E+02  0.47000000000E+01 0.  1.
</event>
<event>
 4    1  0.7580225E-002  0.6000000E+02  0.7546771E-02  0.1259629E+00
         11   -1    0    0    0    0  0.00000000000E+00  0.00000000000E+00  0.30000000000E+02  0.30000000000E+02  0.00000000000E+00 0. -1.
        -11   -1    0    0    0    0 -0.00000000000E+00 -0.00000000000E+00 -0.30000000000E+02  0.30000000000E+02  0.00000000000E+00 0.  1.
          5    1    1    2  501    0 -0.18413504829E+00 -0.25088755465E+02 -0.15761676418E+02  0.30000000000E+02  0.47000000000E+01 0.  1.
         -5    1    1    2    0  501  0.18413504829E+00  0.25088755465E+02  0.15761676418E+02  0.30000000000E+02  0.47000000000E+01 0. -1.
</event>
<event>
 4    1  0.7580225E-002  0.6000000E+02  0.7546771E-02  0.1259629E+00
         11   -1    0    0    0    0  0.00000000000E+00  0.00000000000E+00  0.30000000000E+02  0.30000000000E+02  0.00000000000E+00 0.  1.
        -11   -1    0    0    0    0 -0.00000000000E+00 -0.00000000000E+00 -0.30000000000E+02  0.30000000000E+02  0.00000000000E+00 0. -1.
          5    1    1    2  501    0 -0.28535403829E+01 -0.25087947703E+02 -0.15503618524E+02  0.30000000000E+02  0.47000000000E+01 0. -1.
         -5    1    1    2    0  501  0.28535403829E+01  0.25087947703E+02  0.15503618524E+02  0.30000000000E+02  0.47000000000E+01 0.  1.
</event>
<event>
 4    1  0.7580225E-002  0.6000000E+02  0.7546771E-02  0.1259629E+00
         11   -1    0    0    0    0  0.00000000000E+00  0.00000000000E+00  0.30000000000E+02  0.30000000000E+02  0.00000000000E+00 0.  1.
        -11   -1    0    0    0    0 -0.00000000000E+00 -0.00000000000E+00 -0.30000000000E+02  0.30000000000E+02  0.00000000000E+00 0. -1.
          5    1    1    2  501    0 -0.19164388270E+01  0.23801865472E+02 -0.17541620856E+02  0.30000000000E+02  0.47000000000E+01 0. -1.
         -5    1    1    2    0  501  0.19164388270E+01 -0.23801865472E+02  0.17541620856E+02  0.30000000000E+02  0.47000000000E+01 0.  1.
</event>
<event>
 4    1  0.7580225E-002  0.6000000E+02  0.7546771E-02  0.1259629E+00
         11   -1    0    0    0    0  0.00000000000E+00  0.00000000000E+00  0.30000000000E+02  0.30000000000E+02  0.00000000000E+00 0.  1.
        -11   -1    0    0    0    0 -0.00000000000E+00 -0.00000000000E+00 -0.30000000000E+02  0.30000000000E+02  0.00000000000E+00 0. -1.
          5    1    1    2  501    0  0.24362333371E+02  0.71689112450E+01 -0.15264122126E+02  0.30000000000E+02  0.47000000000E+01 0. -1.
         -5    1    1    2    0  501 -0.24362333371E+02 -0.71689112450E+01  0.15264122126E+02  0.30000000000E+02  0.47000000000E+01 0.  1.
</event>
<event>
 4    1  0.7580225E-002  0.6000000E+02  0.7546771E-02  0.1259629E+00
         11   -1    0    0    0    0  0.00000000000E+00  0.00000000000E+00  0.30000000000E+02  0.30000000000E+02  0.00000000000E+00 0.  1.
        -11   -1    0    0    0    0 -0.00000000000E+00 -0.00000000000E+00 -0.30000000000E+02  0.30000000000E+02  0.00000000000E+00 0. -1.
          5    1    1    2  501    0 -0.20284197285E+02 -0.19136681549E+02  0.10012430265E+02  0.30000000000E+02  0.47000000000E+01 0. -1.
         -5    1    1    2    0  501  0.20284197285E+02  0.19136681549E+02 -0.10012430265E+02  0.30000000000E+02  0.47000000000E+01 0.  1.
</event>
<event>
 4    1  0.7580225E-002  0.6000000E+02  0.7546771E-02  0.1259629E+00
         11   -1    0    0    0    0  0.00000000000E+00  0.00000000000E+00  0.30000000000E+02  0.30000000000E+02  0.00000000000E+00 0.  1.
        -11   -1    0    0    0    0 -0.00000000000E+00 -0.00000000000E+00 -0.30000000000E+02  0.30000000000E+02  0.00000000000E+00 0. -1.
          5    1    1    2  501    0  0.24100266236E+02  0.16585160866E+02 -0.46925053425E+01  0.30000000000E+02  0.47000000000E+01 0. -1.
         -5    1    1    2    0  501 -0.24100266236E+02 -0.16585160866E+02  0.46925053425E+01  0.30000000000E+02  0.47000000000E+01 0.  1.
</event>
<event>
 4    1  0.7580225E-002  0.6000000E+02  0.7546771E-02  0.1259629E+00
         11   -1    0    0    0    0  0.00000000000E+00  0.00000000000E+00  0.30000000000E+02  0.30000000000E+02  0.00000000000E+00 0.  1.
        -11   -1    0    0    0    0 -0.00000000000E+00 -0.00000000000E+00 -0.30000000000E+02  0.30000000000E+02  0.00000000000E+00 0. -1.
          5    1    1    2  501    0 -0.26843624460E+01 -0.25180709282E+02 -0.15382980150E+02  0.30000000000E+02  0.47000000000E+01 0. -1.
         -5    1    1    2    0  501  0.26843624460E+01  0.25180709282E+02  0.15382980150E+02  0.30000000000E+02  0.47000000000E+01 0.  1.
</event>
<event>
 4    1  0.7580225E-002  0.6000000E+02  0.7546771E-02  0.1259629E+00
         11   -1    0    0    0    0  0.00000000000E+00  0.00000000000E+00  0.30000000000E+02  0.30000000000E+02  0.00000000000E+00 0. -1.
        -11   -1    0    0    0    0 -0.00000000000E+00 -0.00000000000E+00 -0.30000000000E+02  0.30000000000E+02  0.00000000000E+00 0.  1.
          5    1    1    2  501    0  0.16143866242E+02 -0.15504282706E+02 -0.19413984663E+02  0.30000000000E+02  0.47000000000E+01 0.  1.
         -5    1    1    2    0  501 -0.16143866242E+02  0.15504282706E+02  0.19413984663E+02  0.30000000000E+02  0.47000000000E+01 0. -1.
</event>
<event>
 4    1  0.7580225E-002  0.6000000E+02  0.7546771E-02  0.1259629E+00
         11   -1    0    0    0    0  0.00000000000E+00  0.00000000000E+00  0.30000000000E+02  0.30000000000E+02  0.00000000000E+00 0.  1.
        -11   -1    0    0    0    0 -0.00000000000E+00 -0.00000000000E+00 -0.30000000000E+02  0.30000000000E+02  0.00000000000E+00 0. -1.
          5    1    1    2  501    0 -0.68405771531E+01  0.15629253975E+02 -0.24224841061E+02  0.30000000000E+02  0.47000000000E+01 0. -1.
         -5    1    1    2    0  501  0.68405771531E+01 -0.15629253975E+02  0.24224841061E+02  0.30000000000E+02  0.47000000000E+01 0.  1.
</event>
<event>
 4    1  0.7580225E-002  0.6000000E+02  0.7546771E-02  0.1259629E+00
         11   -1    0    0    0    0  0.00000000000E+00  0.00000000000E+00  0.30000000000E+02  0.30000000000E+02  0.00000000000E+00 0.  1.
        -11   -1    0    0    0    0 -0.00000000000E+00 -0.00000000000E+00 -0.30000000000E+02  0.30000000000E+02  0.00000000000E+00 0. -1.
          5    1    1    2  501    0 -0.11170676740E+02 -0.68417420068E+01 -0.26576616554E+02  0.30000000000E+02  0.47000000000E+01 0. -1.
         -5    1    1    2    0  501  0.11170676740E+02  0.68417420068E+01  0.26576616554E+02  0.30000000000E+02  0.47000000000E+01 0.  1.
</event>
<event>
 4    1  0.7580225E-002  0.6000000E+02  0.7546771E-02  0.1259629E+00
         11   -1    0    0    0    0  0.00000000000E+00  0.00000000000E+00  0.30000000000E+02  0.30000000000E+02  0.00000000000E+00 0.  1.
        -11   -1    0    0    0    0 -0.00000000000E+00 -0.00000000000E+00 -0.30000000000E+02  0.30000000000E+02  0.00000000000E+00 0. -1.
          5    1    1    2  501    0  0.10994724261E+02 -0.27352655712E+02  0.29762835731E+01  0.30000000000E+02  0.47000000000E+01 0. -1.
         -5    1    1    2    0  501 -0.10994724261E+02  0.27352655712E+02 -0.29762835731E+01  0.30000000000E+02  0.47000000000E+01 0.  1.
</event>
<event>
 4    1  0.7580225E-002  0.6000000E+02  0.7546771E-02  0.1259629E+00
         11   -1    0    0    0    0  0.00000000000E+00  0.00000000000E+00  0.30000000000E+02  0.30000000000E+02  0.00000000000E+00 0. -1.
        -11   -1    0    0    0    0 -0.00000000000E+00 -0.00000000000E+00 -0.30000000000E+02  0.30000000000E+02  0.00000000000E+00 0.  1.
          5    1    1    2  501    0  0.95057305612E+00  0.20994107057E+02 -0.20886691450E+02  0.30000000000E+02  0.47000000000E+01 0.  1.
         -5    1    1    2    0  501 -0.95057305612E+00 -0.20994107057E+02  0.20886691450E+02  0.30000000000E+02  0.47000000000E+01 0. -1.
</event>
<event>
 4    1  0.7580225E-002  0.6000000E+02  0.7546771E-02  0.1259629E+00
         11   -1    0    0    0    0  0.00000000000E+00  0.00000000000E+00  0.30000000000E+02  0.30000000000E+02  0.00000000000E+00 0. -1.
        -11   -1    0    0    0    0 -0.00000000000E+00 -0.00000000000E+00 -0.30000000000E+02  0.30000000000E+02  0.00000000000E+00 0.  1.
          5    1    1    2  501    0 -0.11595635470E+02 -0.17934857163E+02 -0.20537578644E+02  0.30000000000E+02  0.47000000000E+01 0.  1.
         -5    1    1    2    0  501  0.11595635470E+02  0.17934857163E+02  0.20537578644E+02  0.30000000000E+02  0.47000000000E+01 0. -1.
</event>
<event>
 4    1  0.7580225E-002  0.6000000E+02  0.7546771E-02  0.1259629E+00
         11   -1    0    0    0    0  0.00000000000E+00  0.00000000000E+00  0.30000000000E+02  0.30000000000E+02  0.00000000000E+00 0.  1.
        -11   -1    0    0    0    0 -0.00000000000E+00 -0.00000000000E+00 -0.30000000000E+02  0.30000000000E+02  0.00000000000E+00 0. -1.
          5    1    1    2  501    0  0.11545028353E+02 -0.16126068361E+02 -0.22013001602E+02  0.30000000000E+02  0.47000000000E+01 0. -1.
         -5    1    1    2    0  501 -0.11545028353E+02  0.16126068361E+02  0.22013001602E+02  0.30000000000E+02  0.47000000000E+01 0.  1.
</event>
<event>
 4    1  0.7580225E-002  0.6000000E+02  0.7546771E-02  0.1259629E+00
         11   -1    0    0    0    0  0.00000000000E+00  0.00000000000E+00  0.30000000000E+02  0.30000000000E+02  0.00000000000E+00 0.  1.
        -11   -1    0    0    0    0 -0.00000000000E+00 -0.00000000000E+00 -0.30000000000E+02  0.30000000000E+02  0.00000000000E+00 0. -1.
          5    1    1    2  501    0 -0.25608148126E+01 -0.24996760892E+02 -0.15700769803E+02  0.30000000000E+02  0.47000000000E+01 0. -1.
         -5    1    1    2    0  501  0.25608148126E+01  0.24996760892E+02  0.15700769803E+02  0.30000000000E+02  0.47000000000E+01 0.  1.
</event>
<event>
 4    1  0.7580225E-002  0.6000000E+02  0.7546771E-02  0.1259629E+00
         11   -1    0    0    0    0  0.00000000000E+00  0.00000000000E+00  0.30000000000E+02  0.30000000000E+02  0.00000000000E+00 0.  1.
        -11   -1    0    0    0    0 -0.00000000000E+00 -0.00000000000E+00 -0.30000000000E+02  0.30000000000E+02  0.00000000000E+00 0. -1.
          5    1    1    2  501    0 -0.22193727041E+02 -0.19132971916E+02  0.43906566353E+01  0.30000000000E+02  0.47000000000E+01 0. -1.
         -5    1    1    2    0  501  0.22193727041E+02  0.19132971916E+02 -0.43906566353E+01  0.30000000000E+02  0.47000000000E+01 0.  1.
</event>
<event>
 4    1  0.7580225E-002  0.6000000E+02  0.7546771E-02  0.1259629E+00
         11   -1    0    0    0    0  0.00000000000E+00  0.00000000000E+00  0.30000000000E+02  0.30000000000E+02  0.00000000000E+00 0.  1.
        -11   -1    0    0    0    0 -0.00000000000E+00 -0.00000000000E+00 -0.30000000000E+02  0.30000000000E+02  0.00000000000E+00 0. -1.
          5    1    1    2  501    0 -0.28670013350E+02 -0.68232629602E+01 -0.30632363708E+01  0.30000000000E+02  0.47000000000E+01 0. -1.
         -5    1    1    2    0  501  0.28670013350E+02  0.68232629602E+01  0.30632363708E+01  0.30000000000E+02  0.47000000000E+01 0.  1.
</event>
<event>
 4    1  0.7580225E-002  0.6000000E+02  0.7546771E-02  0.1259629E+00
         11   -1    0    0    0    0  0.00000000000E+00  0.00000000000E+00  0.30000000000E+02  0.30000000000E+02  0.00000000000E+00 0.  1.
        -11   -1    0    0    0    0 -0.00000000000E+00 -0.00000000000E+00 -0.30000000000E+02  0.30000000000E+02  0.00000000000E+00 0. -1.
          5    1    1    2  501    0 -0.20102582684E+01  0.20313287858E+02 -0.21476480114E+02  0.30000000000E+02  0.47000000000E+01 0. -1.
         -5    1    1    2    0  501  0.20102582684E+01 -0.20313287858E+02  0.21476480114E+02  0.30000000000E+02  0.47000000000E+01 0.  1.
</event>
<event>
 4    1  0.7580225E-002  0.6000000E+02  0.7546771E-02  0.1259629E+00
         11   -1    0    0    0    0  0.00000000000E+00  0.00000000000E+00  0.30000000000E+02  0.30000000000E+02  0.00000000000E+00 0. -1.
        -11   -1    0    0    0    0 -0.00000000000E+00 -0.00000000000E+00 -0.30000000000E+02  0.30000000000E+02  0.00000000000E+00 0.  1.
          5    1    1    2  501    0 -0.12372678469E+02 -0.19160280511E+02 -0.18913235531E+02  0.30000000000E+02  0.47000000000E+01 0.  1.
         -5    1    1    2    0  501  0.12372678469E+02  0.19160280511E+02  0.18913235531E+02  0.30000000000E+02  0.47000000000E+01 0. -1.
</event>
<event>
 4    1  0.7580225E-002  0.6000000E+02  0.7546771E-02  0.1259629E+00
         11   -1    0    0    0    0  0.00000000000E+00  0.00000000000E+00  0.30000000000E+02  0.30000000000E+02  0.00000000000E+00 0.  1.
        -11   -1    0    0    0    0 -0.00000000000E+00 -0.00000000000E+00 -0.30000000000E+02  0.30000000000E+02  0.00000000000E+00 0. -1.
          5    1    1    2  501    0  0.14053919678E+02 -0.18453948942E+02 -0.18434996885E+02  0.30000000000E+02  0.47000000000E+01 0. -1.
         -5    1    1    2    0  501 -0.14053919678E+02  0.18453948942E+02  0.18434996885E+02  0.30000000000E+02  0.47000000000E+01 0.  1.
</event>
<event>
 4    1  0.7580225E-002  0.6000000E+02  0.7546771E-02  0.1259629E+00
         11   -1    0    0    0    0  0.00000000000E+00  0.00000000000E+00  0.30000000000E+02  0.30000000000E+02  0.00000000000E+00 0.  1.
        -11   -1    0    0    0    0 -0.00000000000E+00 -0.00000000000E+00 -0.30000000000E+02  0.30000000000E+02  0.00000000000E+00 0. -1.
          5    1    1    2  501    0 -0.15718265693E+02  0.19510546595E+02 -0.15817227796E+02  0.30000000000E+02  0.47000000000E+01 0. -1.
         -5    1    1    2    0  501  0.15718265693E+02 -0.19510546595E+02  0.15817227796E+02  0.30000000000E+02  0.47000000000E+01 0.  1.
</event>
<event>
 4    1  0.7580225E-002  0.6000000E+02  0.7546771E-02  0.1259629E+00
         11   -1    0    0    0    0  0.00000000000E+00  0.00000000000E+00  0.30000000000E+02  0.30000000000E+02  0.00000000000E+00 0.  1.
        -11   -1    0    0    0    0 -0.00000000000E+00 -0.00000000000E+00 -0.30000000000E+02  0.30000000000E+02  0.00000000000E+00 0. -1.
          5    1    1    2  501    0  0.53107356401E+01 -0.84587085699E+01 -0.27895453685E+02  0.30000000000E+02  0.47000000000E+01 0. -1.
         -5    1    1    2    0  501 -0.53107356401E+01  0.84587085699E+01  0.27895453685E+02  0.30000000000E+02  0.47000000000E+01 0.  1.
</event>
<event>
 4    1  0.7580225E-002  0.6000000E+02  0.7546771E-02  0.1259629E+00
         11   -1    0    0    0    0  0.00000000000E+00  0.00000000000E+00  0.30000000000E+02  0.30000000000E+02  0.00000000000E+00 0. -1.
        -11   -1    0    0    0    0 -0.00000000000E+00 -0.00000000000E+00 -0.30000000000E+02  0.30000000000E+02  0.00000000000E+00 0.  1.
          5    1    1    2  501    0  0.28986617122E+02 -0.23148681511E+01 -0.56857201210E+01  0.30000000000E+02  0.47000000000E+01 0.  1.
         -5    1    1    2    0  501 -0.28986617122E+02  0.23148681511E+01  0.56857201210E+01  0.30000000000E+02  0.47000000000E+01 0. -1.
</event>
<event>
 4    1  0.7580225E-002  0.6000000E+02  0.7546771E-02  0.1259629E+00
         11   -1    0    0    0    0  0.00000000000E+00  0.00000000000E+00  0.30000000000E+02  0.30000000000E+02  0.00000000000E+00 0.  1.
        -11   -1    0    0    0    0 -0.00000000000E+00 -0.00000000000E+00 -0.30000000000E+02  0.30000000000E+02  0.00000000000E+00 0. -1.
          5    1    1    2  501    0 -0.19473199834E+02  0.18753233142E+02 -0.12125210718E+02  0.30000000000E+02  0.47000000000E+01 0. -1.
         -5    1    1    2    0  501  0.19473199834E+02 -0.18753233142E+02  0.12125210718E+02  0.30000000000E+02  0.47000000000E+01 0.  1.
</event>
<event>
 4    1  0.7580225E-002  0.6000000E+02  0.7546771E-02  0.1259629E+00
         11   -1    0    0    0    0  0.00000000000E+00  0.00000000000E+00  0.30000000000E+02  0.30000000000E+02  0.00000000000E+00 0.  1.
        -11   -1    0    0    0    0 -0.00000000000E+00 -0.00000000000E+00 -0.30000000000E+02  0.30000000000E+02  0.00000000000E+00 0. -1.
          5    1    1    2  501    0 -0.12681073017E+02  0.16532728735E+02  0.21065831759E+02  0.30000000000E+02  0.47000000000E+01 0.  1.
         -5    1    1    2    0  501  0.12681073017E+02 -0.16532728735E+02 -0.21065831759E+02  0.30000000000E+02  0.47000000000E+01 0. -1.
</event>
<event>
 4    1  0.7580225E-002  0.6000000E+02  0.7546771E-02  0.1259629E+00
         11   -1    0    0    0    0  0.00000000000E+00  0.00000000000E+00  0.30000000000E+02  0.30000000000E+02  0.00000000000E+00 0.  1.
        -11   -1    0    0    0    0 -0.00000000000E+00 -0.00000000000E+00 -0.30000000000E+02  0.30000000000E+02  0.00000000000E+00 0. -1.
          5    1    1    2  501    0  0.23376720878E+02 -0.17439522585E+02  0.52251289924E+01  0.30000000000E+02  0.47000000000E+01 0. -1.
         -5    1    1    2    0  501 -0.23376720878E+02  0.17439522585E+02 -0.52251289924E+01  0.30000000000E+02  0.47000000000E+01 0.  1.
</event>
<event>
 4    1  0.7580225E-002  0.6000000E+02  0.7546771E-02  0.1259629E+00
         11   -1    0    0    0    0  0.00000000000E+00  0.00000000000E+00  0.30000000000E+02  0.30000000000E+02  0.00000000000E+00 0.  1.
        -11   -1    0    0    0    0 -0.00000000000E+00 -0.00000000000E+00 -0.30000000000E+02  0.30000000000E+02  0.00000000000E+00 0. -1.
          5    1    1    2  501    0 -0.16429013330E+02  0.12772609301E+02 -0.21091656470E+02  0.30000000000E+02  0.47000000000E+01 0. -1.
         -5    1    1    2    0  501  0.16429013330E+02 -0.12772609301E+02  0.21091656470E+02  0.30000000000E+02  0.47000000000E+01 0.  1.
</event>
<event>
 4    1  0.7580225E-002  0.6000000E+02  0.7546771E-02  0.1259629E+00
         11   -1    0    0    0    0  0.00000000000E+00  0.00000000000E+00  0.30000000000E+02  0.30000000000E+02  0.00000000000E+00 0.  1.
        -11   -1    0    0    0    0 -0.00000000000E+00 -0.00000000000E+00 -0.30000000000E+02  0.30000000000E+02  0.00000000000E+00 0. -1.
          5    1    1    2  501    0 -0.52578404128E+00  0.21818230336E+02 -0.20039919565E+02  0.30000000000E+02  0.47000000000E+01 0. -1.
         -5    1    1    2    0  501  0.52578404128E+00 -0.21818230336E+02  0.20039919565E+02  0.30000000000E+02  0.47000000000E+01 0.  1.
</event>
<event>
 4    1  0.7580225E-002  0.6000000E+02  0.7546771E-02  0.1259629E+00
         11   -1    0    0    0    0  0.00000000000E+00  0.00000000000E+00  0.30000000000E+02  0.30000000000E+02  0.00000000000E+00 0.  1.
        -11   -1    0    0    0    0 -0.00000000000E+00 -0.00000000000E+00 -0.30000000000E+02  0.30000000000E+02  0.00000000000E+00 0. -1.
          5    1    1    2  501    0  0.57186268120E+01 -0.11557614617E+02 -0.26676372537E+02  0.30000000000E+02  0.47000000000E+01 0. -1.
         -5    1    1    2    0  501 -0.57186268120E+01  0.11557614617E+02  0.26676372537E+02  0.30000000000E+02  0.47000000000E+01 0.  1.
</event>
<event>
 4    1  0.7580225E-002  0.6000000E+02  0.7546771E-02  0.1259629E+00
         11   -1    0    0    0    0  0.00000000000E+00  0.00000000000E+00  0.30000000000E+02  0.30000000000E+02  0.00000000000E+00 0.  1.
        -11   -1    0    0    0    0 -0.00000000000E+00 -0.00000000000E+00 -0.30000000000E+02  0.30000000000E+02  0.00000000000E+00 0. -1.
          5    1    1    2  501    0  0.22052610881E+02 -0.19788437806E+02  0.10041167418E+00  0.30000000000E+02  0.47000000000E+01 0. -1.
         -5    1    1    2    0  501 -0.22052610881E+02  0.19788437806E+02 -0.10041167418E+00  0.30000000000E+02  0.47000000000E+01 0.  1.
</event>
<event>
 4    1  0.7580225E-002  0.6000000E+02  0.7546771E-02  0.1259629E+00
         11   -1    0    0    0    0  0.00000000000E+00  0.00000000000E+00  0.30000000000E+02  0.30000000000E+02  0.00000000000E+00 0.  1.
        -11   -1    0    0    0    0 -0.00000000000E+00 -0.00000000000E+00 -0.30000000000E+02  0.30000000000E+02  0.00000000000E+00 0. -1.
          5    1    1    2  501    0  0.20687458621E+02 -0.69422176480E+00 -0.21200403580E+02  0.30000000000E+02  0.47000000000E+01 0. -1.
         -5    1    1    2    0  501 -0.20687458621E+02  0.69422176480E+00  0.21200403580E+02  0.30000000000E+02  0.47000000000E+01 0.  1.
</event>
<event>
 4    1  0.7580225E-002  0.6000000E+02  0.7546771E-02  0.1259629E+00
         11   -1    0    0    0    0  0.00000000000E+00  0.00000000000E+00  0.30000000000E+02  0.30000000000E+02  0.00000000000E+00 0.  1.
        -11   -1    0    0    0    0 -0.00000000000E+00 -0.00000000000E+00 -0.30000000000E+02  0.30000000000E+02  0.00000000000E+00 0. -1.
          5    1    1    2  501    0  0.26909539303E+02 -0.62522863122E+01 -0.10709603651E+02  0.30000000000E+02  0.47000000000E+01 0. -1.
         -5    1    1    2    0  501 -0.26909539303E+02  0.62522863122E+01  0.10709603651E+02  0.30000000000E+02  0.47000000000E+01 0.  1.
</event>
<event>
 4    1  0.7580225E-002  0.6000000E+02  0.7546771E-02  0.1259629E+00
         11   -1    0    0    0    0  0.00000000000E+00  0.00000000000E+00  0.30000000000E+02  0.30000000000E+02  0.00000000000E+00 0. -1.
        -11   -1    0    0    0    0 -0.00000000000E+00 -0.00000000000E+00 -0.30000000000E+02  0.30000000000E+02  0.00000000000E+00 0.  1.
          5    1    1    2  501    0 -0.78279969707E+01 -0.23966556179E+02 -0.15563953493E+02  0.30000000000E+02  0.47000000000E+01 0.  1.
         -5    1    1    2    0  501  0.78279969707E+01  0.23966556179E+02  0.15563953493E+02  0.30000000000E+02  0.47000000000E+01 0. -1.
</event>
<event>
 4    1  0.7580225E-002  0.6000000E+02  0.7546771E-02  0.1259629E+00
         11   -1    0    0    0    0  0.00000000000E+00  0.00000000000E+00  0.30000000000E+02  0.30000000000E+02  0.00000000000E+00 0. -1.
        -11   -1    0    0    0    0 -0.00000000000E+00 -0.00000000000E+00 -0.30000000000E+02  0.30000000000E+02  0.00000000000E+00 0.  1.
          5    1    1    2  501    0 -0.23199121566E+01 -0.65340136318E+01 -0.28806851155E+02  0.30000000000E+02  0.47000000000E+01 0.  1.
         -5    1    1    2    0  501  0.23199121566E+01  0.65340136318E+01  0.28806851155E+02  0.30000000000E+02  0.47000000000E+01 0. -1.
</event>
<event>
 4    1  0.7580225E-002  0.6000000E+02  0.7546771E-02  0.1259629E+00
         11   -1    0    0    0    0  0.00000000000E+00  0.00000000000E+00  0.30000000000E+02  0.30000000000E+02  0.00000000000E+00 0.  1.
        -11   -1    0    0    0    0 -0.00000000000E+00 -0.00000000000E+00 -0.30000000000E+02  0.30000000000E+02  0.00000000000E+00 0. -1.
          5    1    1    2  501    0  0.55491339348E+01 -0.62268736710E+00 -0.29098614624E+02  0.30000000000E+02  0.47000000000E+01 0. -1.
         -5    1    1    2    0  501 -0.55491339348E+01  0.62268736710E+00  0.29098614624E+02  0.30000000000E+02  0.47000000000E+01 0.  1.
</event>
<event>
 4    1  0.7580225E-002  0.6000000E+02  0.7546771E-02  0.1259629E+00
         11   -1    0    0    0    0  0.00000000000E+00  0.00000000000E+00  0.30000000000E+02  0.30000000000E+02  0.00000000000E+00 0.  1.
        -11   -1    0    0    0    0 -0.00000000000E+00 -0.00000000000E+00 -0.30000000000E+02  0.30000000000E+02  0.00000000000E+00 0. -1.
          5    1    1    2  501    0  0.28130811330E+02  0.45544029351E+01 -0.81132526046E+01  0.30000000000E+02  0.47000000000E+01 0. -1.
         -5    1    1    2    0  501 -0.28130811330E+02 -0.45544029351E+01  0.81132526046E+01  0.30000000000E+02  0.47000000000E+01 0.  1.
</event>
<event>
 4    1  0.7580225E-002  0.6000000E+02  0.7546771E-02  0.1259629E+00
         11   -1    0    0    0    0  0.00000000000E+00  0.00000000000E+00  0.30000000000E+02  0.30000000000E+02  0.00000000000E+00 0. -1.
        -11   -1    0    0    0    0 -0.00000000000E+00 -0.00000000000E+00 -0.30000000000E+02  0.30000000000E+02  0.00000000000E+00 0.  1.
          5    1    1    2  501    0 -0.16305544190E+02 -0.20046299061E+02 -0.14497762677E+02  0.30000000000E+02  0.47000000000E+01 0.  1.
         -5    1    1    2    0  501  0.16305544190E+02  0.20046299061E+02  0.14497762677E+02  0.30000000000E+02  0.47000000000E+01 0. -1.
</event>
<event>
 4    1  0.7580225E-002  0.6000000E+02  0.7546771E-02  0.1259629E+00
         11   -1    0    0    0    0  0.00000000000E+00  0.00000000000E+00  0.30000000000E+02  0.30000000000E+02  0.00000000000E+00 0.  1.
        -11   -1    0    0    0    0 -0.00000000000E+00 -0.00000000000E+00 -0.30000000000E+02  0.30000000000E+02  0.00000000000E+00 0. -1.
          5    1    1    2  501    0 -0.50828880920E+01  0.28403772323E+02 -0.67305249754E+01  0.30000000000E+02  0.47000000000E+01 0. -1.
         -5    1    1    2    0  501  0.50828880920E+01 -0.28403772323E+02  0.67305249754E+01  0.30000000000E+02  0.47000000000E+01 0.  1.
</event>
<event>
 4    1  0.7580225E-002  0.6000000E+02  0.7546771E-02  0.1259629E+00
         11   -1    0    0    0    0  0.00000000000E+00  0.00000000000E+00  0.30000000000E+02  0.30000000000E+02  0.00000000000E+00 0.  1.
        -11   -1    0    0    0    0 -0.00000000000E+00 -0.00000000000E+00 -0.30000000000E+02  0.30000000000E+02  0.00000000000E+00 0. -1.
          5    1    1    2  501    0 -0.97668762121E+01 -0.12695972122E+02 -0.24926500375E+02  0.30000000000E+02  0.47000000000E+01 0. -1.
         -5    1    1    2    0  501  0.97668762121E+01  0.12695972122E+02  0.24926500375E+02  0.30000000000E+02  0.47000000000E+01 0.  1.
</event>
<event>
 4    1  0.7580225E-002  0.6000000E+02  0.7546771E-02  0.1259629E+00
         11   -1    0    0    0    0  0.00000000000E+00  0.00000000000E+00  0.30000000000E+02  0.30000000000E+02  0.00000000000E+00 0. -1.
        -11   -1    0    0    0    0 -0.00000000000E+00 -0.00000000000E+00 -0.30000000000E+02  0.30000000000E+02  0.00000000000E+00 0.  1.
          5    1    1    2  501    0 -0.14055398270E+02  0.18301775674E+02  0.18584961303E+02  0.30000000000E+02  0.47000000000E+01 0. -1.
         -5    1    1    2    0  501  0.14055398270E+02 -0.18301775674E+02 -0.18584961303E+02  0.30000000000E+02  0.47000000000E+01 0.  1.
</event>
<event>
 4    1  0.7580225E-002  0.6000000E+02  0.7546771E-02  0.1259629E+00
         11   -1    0    0    0    0  0.00000000000E+00  0.00000000000E+00  0.30000000000E+02  0.30000000000E+02  0.00000000000E+00 0.  1.
        -11   -1    0    0    0    0 -0.00000000000E+00 -0.00000000000E+00 -0.30000000000E+02  0.30000000000E+02  0.00000000000E+00 0. -1.
          5    1    1    2  501    0  0.15343705636E+02  0.18871720262E+02 -0.16921550511E+02  0.30000000000E+02  0.47000000000E+01 0. -1.
         -5    1    1    2    0  501 -0.15343705636E+02 -0.18871720262E+02  0.16921550511E+02  0.30000000000E+02  0.47000000000E+01 0.  1.
</event>
<event>
 4    1  0.7580225E-002  0.6000000E+02  0.7546771E-02  0.1259629E+00
         11   -1    0    0    0    0  0.00000000000E+00  0.00000000000E+00  0.30000000000E+02  0.30000000000E+02  0.00000000000E+00 0. -1.
        -11   -1    0    0    0    0 -0.00000000000E+00 -0.00000000000E+00 -0.30000000000E+02  0.30000000000E+02  0.00000000000E+00 0.  1.
          5    1    1    2  501    0 -0.65584883589E+01  0.87645567868E+01 -0.27533230373E+02  0.30000000000E+02  0.47000000000E+01 0.  1.
         -5    1    1    2    0  501  0.65584883589E+01 -0.87645567868E+01  0.27533230373E+02  0.30000000000E+02  0.47000000000E+01 0. -1.
</event>
<event>
 4    1  0.7580225E-002  0.6000000E+02  0.7546771E-02  0.1259629E+00
         11   -1    0    0    0    0  0.00000000000E+00  0.00000000000E+00  0.30000000000E+02  0.30000000000E+02  0.00000000000E+00 0.  1.
        -11   -1    0    0    0    0 -0.00000000000E+00 -0.00000000000E+00 -0.30000000000E+02  0.30000000000E+02  0.00000000000E+00 0. -1.
          5    1    1    2  501    0  0.14937229091E+02  0.11020585949E+02 -0.23094065740E+02  0.30000000000E+02  0.47000000000E+01 0. -1.
         -5    1    1    2    0  501 -0.14937229091E+02 -0.11020585949E+02  0.23094065740E+02  0.30000000000E+02  0.47000000000E+01 0.  1.
</event>
<event>
 4    1  0.7580225E-002  0.6000000E+02  0.7546771E-02  0.1259629E+00
         11   -1    0    0    0    0  0.00000000000E+00  0.00000000000E+00  0.30000000000E+02  0.30000000000E+02  0.00000000000E+00 0. -1.
        -11   -1    0    0    0    0 -0.00000000000E+00 -0.00000000000E+00 -0.30000000000E+02  0.30000000000E+02  0.00000000000E+00 0.  1.
          5    1    1    2  501    0  0.28772449354E+02 -0.19958423021E+01  0.67876926630E+01  0.30000000000E+02  0.47000000000E+01 0.  1.
         -5    1    1    2    0  501 -0.28772449354E+02  0.19958423021E+01 -0.67876926630E+01  0.30000000000E+02  0.47000000000E+01 0. -1.
</event>
<event>
 4    1  0.7580225E-002  0.6000000E+02  0.7546771E-02  0.1259629E+00
         11   -1    0    0    0    0  0.00000000000E+00  0.00000000000E+00  0.30000000000E+02  0.30000000000E+02  0.00000000000E+00 0.  1.
        -11   -1    0    0    0    0 -0.00000000000E+00 -0.00000000000E+00 -0.30000000000E+02  0.30000000000E+02  0.00000000000E+00 0. -1.
          5    1    1    2  501    0  0.53478135870E+01 -0.26159019286E+02 -0.12845878710E+02  0.30000000000E+02  0.47000000000E+01 0. -1.
         -5    1    1    2    0  501 -0.53478135870E+01  0.26159019286E+02  0.12845878710E+02  0.30000000000E+02  0.47000000000E+01 0.  1.
</event>
<event>
 4    1  0.7580225E-002  0.6000000E+02  0.7546771E-02  0.1259629E+00
         11   -1    0    0    0    0  0.00000000000E+00  0.00000000000E+00  0.30000000000E+02  0.30000000000E+02  0.00000000000E+00 0.  1.
        -11   -1    0    0    0    0 -0.00000000000E+00 -0.00000000000E+00 -0.30000000000E+02  0.30000000000E+02  0.00000000000E+00 0. -1.
          5    1    1    2  501    0 -0.19584489169E+01 -0.16732782715E+02 -0.24373929935E+02  0.30000000000E+02  0.47000000000E+01 0. -1.
         -5    1    1    2    0  501  0.19584489169E+01  0.16732782715E+02  0.24373929935E+02  0.30000000000E+02  0.47000000000E+01 0.  1.
</event>
<event>
 4    1  0.7580225E-002  0.6000000E+02  0.7546771E-02  0.1259629E+00
         11   -1    0    0    0    0  0.00000000000E+00  0.00000000000E+00  0.30000000000E+02  0.30000000000E+02  0.00000000000E+00 0. -1.
        -11   -1    0    0    0    0 -0.00000000000E+00 -0.00000000000E+00 -0.30000000000E+02  0.30000000000E+02  0.00000000000E+00 0.  1.
          5    1    1    2  501    0  0.29462069811E+02  0.57788636461E+00  0.30923275680E+01  0.30000000000E+02  0.47000000000E+01 0.  1.
         -5    1    1    2    0  501 -0.29462069811E+02 -0.57788636461E+00 -0.30923275680E+01  0.30000000000E+02  0.47000000000E+01 0. -1.
</event>
<event>
 4    1  0.7580225E-002  0.6000000E+02  0.7546771E-02  0.1259629E+00
         11   -1    0    0    0    0  0.00000000000E+00  0.00000000000E+00  0.30000000000E+02  0.30000000000E+02  0.00000000000E+00 0. -1.
        -11   -1    0    0    0    0 -0.00000000000E+00 -0.00000000000E+00 -0.30000000000E+02  0.30000000000E+02  0.00000000000E+00 0.  1.
          5    1    1    2  501    0 -0.27295716099E+02 -0.22027547058E+01  0.11313786031E+02  0.30000000000E+02  0.47000000000E+01 0.  1.
         -5    1    1    2    0  501  0.27295716099E+02  0.22027547058E+01 -0.11313786031E+02  0.30000000000E+02  0.47000000000E+01 0. -1.
</event>
<event>
 4    1  0.7580225E-002  0.6000000E+02  0.7546771E-02  0.1259629E+00
         11   -1    0    0    0    0  0.00000000000E+00  0.00000000000E+00  0.30000000000E+02  0.30000000000E+02  0.00000000000E+00 0.  1.
        -11   -1    0    0    0    0 -0.00000000000E+00 -0.00000000000E+00 -0.30000000000E+02  0.30000000000E+02  0.00000000000E+00 0. -1.
          5    1    1    2  501    0 -0.26628899439E+02 -0.59605584739E+01 -0.11544845487E+02  0.30000000000E+02  0.47000000000E+01 0. -1.
         -5    1    1    2    0  501  0.26628899439E+02  0.59605584739E+01  0.11544845487E+02  0.30000000000E+02  0.47000000000E+01 0.  1.
</event>
<event>
 4    1  0.7580225E-002  0.6000000E+02  0.7546771E-02  0.1259629E+00
         11   -1    0    0    0    0  0.00000000000E+00  0.00000000000E+00  0.30000000000E+02  0.30000000000E+02  0.00000000000E+00 0.  1.
        -11   -1    0    0    0    0 -0.00000000000E+00 -0.00000000000E+00 -0.30000000000E+02  0.30000000000E+02  0.00000000000E+00 0. -1.
          5    1    1    2  501    0  0.92719936018E+01 -0.11722765880E+02 -0.25583527802E+02  0.30000000000E+02  0.47000000000E+01 0. -1.
         -5    1    1    2    0  501 -0.92719936018E+01  0.11722765880E+02  0.25583527802E+02  0.30000000000E+02  0.47000000000E+01 0.  1.
</event>
<event>
 4    1  0.7580225E-002  0.6000000E+02  0.7546771E-02  0.1259629E+00
         11   -1    0    0    0    0  0.00000000000E+00  0.00000000000E+00  0.30000000000E+02  0.30000000000E+02  0.00000000000E+00 0.  1.
        -11   -1    0    0    0    0 -0.00000000000E+00 -0.00000000000E+00 -0.30000000000E+02  0.30000000000E+02  0.00000000000E+00 0. -1.
          5    1    1    2  501    0 -0.15512692924E+02  0.19955556082E+02  0.15460987669E+02  0.30000000000E+02  0.47000000000E+01 0.  1.
         -5    1    1    2    0  501  0.15512692924E+02 -0.19955556082E+02 -0.15460987669E+02  0.30000000000E+02  0.47000000000E+01 0. -1.
</event>
<event>
 4    1  0.7580225E-002  0.6000000E+02  0.7546771E-02  0.1259629E+00
         11   -1    0    0    0    0  0.00000000000E+00  0.00000000000E+00  0.30000000000E+02  0.30000000000E+02  0.00000000000E+00 0. -1.
        -11   -1    0    0    0    0 -0.00000000000E+00 -0.00000000000E+00 -0.30000000000E+02  0.30000000000E+02  0.00000000000E+00 0.  1.
          5    1    1    2  501    0 -0.25524520129E+01 -0.12276130075E+02 -0.26845700198E+02  0.30000000000E+02  0.47000000000E+01 0.  1.
         -5    1    1    2    0  501  0.25524520129E+01  0.12276130075E+02  0.26845700198E+02  0.30000000000E+02  0.47000000000E+01 0. -1.
</event>
<event>
 4    1  0.7580225E-002  0.6000000E+02  0.7546771E-02  0.1259629E+00
         11   -1    0    0    0    0  0.00000000000E+00  0.00000000000E+00  0.30000000000E+02  0.30000000000E+02  0.00000000000E+00 0.  1.
        -11   -1    0    0    0    0 -0.00000000000E+00 -0.00000000000E+00 -0.30000000000E+02  0.30000000000E+02  0.00000000000E+00 0. -1.
          5    1    1    2  501    0 -0.19231726961E+02 -0.38869568390E+01 -0.22202302688E+02  0.30000000000E+02  0.47000000000E+01 0. -1.
         -5    1    1    2    0  501  0.19231726961E+02  0.38869568390E+01  0.22202302688E+02  0.30000000000E+02  0.47000000000E+01 0.  1.
</event>
<event>
 4    1  0.7580225E-002  0.6000000E+02  0.7546771E-02  0.1259629E+00
         11   -1    0    0    0    0  0.00000000000E+00  0.00000000000E+00  0.30000000000E+02  0.30000000000E+02  0.00000000000E+00 0.  1.
        -11   -1    0    0    0    0 -0.00000000000E+00 -0.00000000000E+00 -0.30000000000E+02  0.30000000000E+02  0.00000000000E+00 0. -1.
          5    1    1    2  501    0  0.24102680990E+02 -0.12309410533E+02 -0.12060231400E+02  0.30000000000E+02  0.47000000000E+01 0. -1.
         -5    1    1    2    0  501 -0.24102680990E+02  0.12309410533E+02  0.12060231400E+02  0.30000000000E+02  0.47000000000E+01 0.  1.
</event>
<event>
 4    1  0.7580225E-002  0.6000000E+02  0.7546771E-02  0.1259629E+00
         11   -1    0    0    0    0  0.00000000000E+00  0.00000000000E+00  0.30000000000E+02  0.30000000000E+02  0.00000000000E+00 0.  1.
        -11   -1    0    0    0    0 -0.00000000000E+00 -0.00000000000E+00 -0.30000000000E+02  0.30000000000E+02  0.00000000000E+00 0. -1.
          5    1    1    2  501    0  0.27356437953E+02 -0.62792630591E+01 -0.94924263487E+01  0.30000000000E+02  0.47000000000E+01 0. -1.
         -5    1    1    2    0  501 -0.27356437953E+02  0.62792630591E+01  0.94924263487E+01  0.30000000000E+02  0.47000000000E+01 0.  1.
</event>
<event>
 4    1  0.7580225E-002  0.6000000E+02  0.7546771E-02  0.1259629E+00
         11   -1    0    0    0    0  0.00000000000E+00  0.00000000000E+00  0.30000000000E+02  0.30000000000E+02  0.00000000000E+00 0. -1.
        -11   -1    0    0    0    0 -0.00000000000E+00 -0.00000000000E+00 -0.30000000000E+02  0.30000000000E+02  0.00000000000E+00 0.  1.
          5    1    1    2  501    0 -0.56968003360E+01 -0.36239873384E+01 -0.28850011815E+02  0.30000000000E+02  0.47000000000E+01 0.  1.
         -5    1    1    2    0  501  0.56968003360E+01  0.36239873384E+01  0.28850011815E+02  0.30000000000E+02  0.47000000000E+01 0. -1.
</event>
<event>
 4    1  0.7580225E-002  0.6000000E+02  0.7546771E-02  0.1259629E+00
         11   -1    0    0    0    0  0.00000000000E+00  0.00000000000E+00  0.30000000000E+02  0.30000000000E+02  0.00000000000E+00 0.  1.
        -11   -1    0    0    0    0 -0.00000000000E+00 -0.00000000000E+00 -0.30000000000E+02  0.30000000000E+02  0.00000000000E+00 0. -1.
          5    1    1    2  501    0 -0.20162956723E+02  0.13583948019E+02 -0.16936396677E+02  0.30000000000E+02  0.47000000000E+01 0. -1.
         -5    1    1    2    0  501  0.20162956723E+02 -0.13583948019E+02  0.16936396677E+02  0.30000000000E+02  0.47000000000E+01 0.  1.
</event>
<event>
 4    1  0.7580225E-002  0.6000000E+02  0.7546771E-02  0.1259629E+00
         11   -1    0    0    0    0  0.00000000000E+00  0.00000000000E+00  0.30000000000E+02  0.30000000000E+02  0.00000000000E+00 0.  1.
        -11   -1    0    0    0    0 -0.00000000000E+00 -0.00000000000E+00 -0.30000000000E+02  0.30000000000E+02  0.00000000000E+00 0. -1.
          5    1    1    2  501    0 -0.23218093343E+02  0.16481839123E+02  0.81962870040E+01  0.30000000000E+02  0.47000000000E+01 0. -1.
         -5    1    1    2    0  501  0.23218093343E+02 -0.16481839123E+02 -0.81962870040E+01  0.30000000000E+02  0.47000000000E+01 0.  1.
</event>
<event>
 4    1  0.7580225E-002  0.6000000E+02  0.7546771E-02  0.1259629E+00
         11   -1    0    0    0    0  0.00000000000E+00  0.00000000000E+00  0.30000000000E+02  0.30000000000E+02  0.00000000000E+00 0.  1.
        -11   -1    0    0    0    0 -0.00000000000E+00 -0.00000000000E+00 -0.30000000000E+02  0.30000000000E+02  0.00000000000E+00 0. -1.
          5    1    1    2  501    0 -0.23735144855E+02 -0.17734707524E+02 -0.18179044251E+00  0.30000000000E+02  0.47000000000E+01 0.  1.
         -5    1    1    2    0  501  0.23735144855E+02  0.17734707524E+02  0.18179044251E+00  0.30000000000E+02  0.47000000000E+01 0. -1.
</event>
<event>
 4    1  0.7580225E-002  0.6000000E+02  0.7546771E-02  0.1259629E+00
         11   -1    0    0    0    0  0.00000000000E+00  0.00000000000E+00  0.30000000000E+02  0.30000000000E+02  0.00000000000E+00 0.  1.
        -11   -1    0    0    0    0 -0.00000000000E+00 -0.00000000000E+00 -0.30000000000E+02  0.30000000000E+02  0.00000000000E+00 0. -1.
          5    1    1    2  501    0 -0.28864261286E+02  0.66264160422E+01  0.92467878913E+00  0.30000000000E+02  0.47000000000E+01 0. -1.
         -5    1    1    2    0  501  0.28864261286E+02 -0.66264160422E+01 -0.92467878913E+00  0.30000000000E+02  0.47000000000E+01 0.  1.
</event>
<event>
 4    1  0.7580225E-002  0.6000000E+02  0.7546771E-02  0.1259629E+00
         11   -1    0    0    0    0  0.00000000000E+00  0.00000000000E+00  0.30000000000E+02  0.30000000000E+02  0.00000000000E+00 0.  1.
        -11   -1    0    0    0    0 -0.00000000000E+00 -0.00000000000E+00 -0.30000000000E+02  0.30000000000E+02  0.00000000000E+00 0. -1.
          5    1    1    2  501    0 -0.17143338579E+02  0.18235935039E+02 -0.15857698939E+02  0.30000000000E+02  0.47000000000E+01 0. -1.
         -5    1    1    2    0  501  0.17143338579E+02 -0.18235935039E+02  0.15857698939E+02  0.30000000000E+02  0.47000000000E+01 0.  1.
</event>
<event>
 4    1  0.7580225E-002  0.6000000E+02  0.7546771E-02  0.1259629E+00
         11   -1    0    0    0    0  0.00000000000E+00  0.00000000000E+00  0.30000000000E+02  0.30000000000E+02  0.00000000000E+00 0. -1.
        -11   -1    0    0    0    0 -0.00000000000E+00 -0.00000000000E+00 -0.30000000000E+02  0.30000000000E+02  0.00000000000E+00 0.  1.
          5    1    1    2  501    0 -0.20619210316E+02  0.21032169996E+02  0.32258318646E+01  0.30000000000E+02  0.47000000000E+01 0.  1.
         -5    1    1    2    0  501  0.20619210316E+02 -0.21032169996E+02 -0.32258318646E+01  0.30000000000E+02  0.47000000000E+01 0. -1.
</event>
<event>
 4    1  0.7580225E-002  0.6000000E+02  0.7546771E-02  0.1259629E+00
         11   -1    0    0    0    0  0.00000000000E+00  0.00000000000E+00  0.30000000000E+02  0.30000000000E+02  0.00000000000E+00 0.  1.
        -11   -1    0    0    0    0 -0.00000000000E+00 -0.00000000000E+00 -0.30000000000E+02  0.30000000000E+02  0.00000000000E+00 0. -1.
          5    1    1    2  501    0 -0.81785421425E+01  0.22917829094E+01 -0.28386073690E+02  0.30000000000E+02  0.47000000000E+01 0. -1.
         -5    1    1    2    0  501  0.81785421425E+01 -0.22917829094E+01  0.28386073690E+02  0.30000000000E+02  0.47000000000E+01 0.  1.
</event>
<event>
 4    1  0.7580225E-002  0.6000000E+02  0.7546771E-02  0.1259629E+00
         11   -1    0    0    0    0  0.00000000000E+00  0.00000000000E+00  0.30000000000E+02  0.30000000000E+02  0.00000000000E+00 0.  1.
        -11   -1    0    0    0    0 -0.00000000000E+00 -0.00000000000E+00 -0.30000000000E+02  0.30000000000E+02  0.00000000000E+00 0. -1.
          5    1    1    2  501    0  0.18037460600E+02  0.19745986903E+02 -0.12753666780E+02  0.30000000000E+02  0.47000000000E+01 0. -1.
         -5    1    1    2    0  501 -0.18037460600E+02 -0.19745986903E+02  0.12753666780E+02  0.30000000000E+02  0.47000000000E+01 0.  1.
</event>
<event>
 4    1  0.7580225E-002  0.6000000E+02  0.7546771E-02  0.1259629E+00
         11   -1    0    0    0    0  0.00000000000E+00  0.00000000000E+00  0.30000000000E+02  0.30000000000E+02  0.00000000000E+00 0.  1.
        -11   -1    0    0    0    0 -0.00000000000E+00 -0.00000000000E+00 -0.30000000000E+02  0.30000000000E+02  0.00000000000E+00 0. -1.
          5    1    1    2  501    0 -0.18648739289E+02 -0.19845165791E+02  0.11674926880E+02  0.30000000000E+02  0.47000000000E+01 0.  1.
         -5    1    1    2    0  501  0.18648739289E+02  0.19845165791E+02 -0.11674926880E+02  0.30000000000E+02  0.47000000000E+01 0. -1.
</event>
<event>
 4    1  0.7580225E-002  0.6000000E+02  0.7546771E-02  0.1259629E+00
         11   -1    0    0    0    0  0.00000000000E+00  0.00000000000E+00  0.30000000000E+02  0.30000000000E+02  0.00000000000E+00 0.  1.
        -11   -1    0    0    0    0 -0.00000000000E+00 -0.00000000000E+00 -0.30000000000E+02  0.30000000000E+02  0.00000000000E+00 0. -1.
          5    1    1    2  501    0 -0.71308880466E+01 -0.45424793938E+00 -0.28755070761E+02  0.30000000000E+02  0.47000000000E+01 0. -1.
         -5    1    1    2    0  501  0.71308880466E+01  0.45424793938E+00  0.28755070761E+02  0.30000000000E+02  0.47000000000E+01 0.  1.
</event>
<event>
 4    1  0.7580225E-002  0.6000000E+02  0.7546771E-02  0.1259629E+00
         11   -1    0    0    0    0  0.00000000000E+00  0.00000000000E+00  0.30000000000E+02  0.30000000000E+02  0.00000000000E+00 0.  1.
        -11   -1    0    0    0    0 -0.00000000000E+00 -0.00000000000E+00 -0.30000000000E+02  0.30000000000E+02  0.00000000000E+00 0. -1.
          5    1    1    2  501    0 -0.64515116129E+01 -0.21936516139E+02 -0.18843493774E+02  0.30000000000E+02  0.47000000000E+01 0. -1.
         -5    1    1    2    0  501  0.64515116129E+01  0.21936516139E+02  0.18843493774E+02  0.30000000000E+02  0.47000000000E+01 0.  1.
</event>
<event>
 4    1  0.7580225E-002  0.6000000E+02  0.7546771E-02  0.1259629E+00
         11   -1    0    0    0    0  0.00000000000E+00  0.00000000000E+00  0.30000000000E+02  0.30000000000E+02  0.00000000000E+00 0.  1.
        -11   -1    0    0    0    0 -0.00000000000E+00 -0.00000000000E+00 -0.30000000000E+02  0.30000000000E+02  0.00000000000E+00 0. -1.
          5    1    1    2  501    0 -0.15035836195E+01  0.13364828835E+02 -0.26401336832E+02  0.30000000000E+02  0.47000000000E+01 0. -1.
         -5    1    1    2    0  501  0.15035836195E+01 -0.13364828835E+02  0.26401336832E+02  0.30000000000E+02  0.47000000000E+01 0.  1.
</event>
<event>
 4    1  0.7580225E-002  0.6000000E+02  0.7546771E-02  0.1259629E+00
         11   -1    0    0    0    0  0.00000000000E+00  0.00000000000E+00  0.30000000000E+02  0.30000000000E+02  0.00000000000E+00 0.  1.
        -11   -1    0    0    0    0 -0.00000000000E+00 -0.00000000000E+00 -0.30000000000E+02  0.30000000000E+02  0.00000000000E+00 0. -1.
          5    1    1    2  501    0 -0.27465176803E+02 -0.49728099178E+01 -0.99420935785E+01  0.30000000000E+02  0.47000000000E+01 0. -1.
         -5    1    1    2    0  501  0.27465176803E+02  0.49728099178E+01  0.99420935785E+01  0.30000000000E+02  0.47000000000E+01 0.  1.
</event>
<event>
 4    1  0.7580225E-002  0.6000000E+02  0.7546771E-02  0.1259629E+00
         11   -1    0    0    0    0  0.00000000000E+00  0.00000000000E+00  0.30000000000E+02  0.30000000000E+02  0.00000000000E+00 0. -1.
        -11   -1    0    0    0    0 -0.00000000000E+00 -0.00000000000E+00 -0.30000000000E+02  0.30000000000E+02  0.00000000000E+00 0.  1.
          5    1    1    2  501    0  0.97853120093E+01  0.14288891363E+02 -0.24041323851E+02  0.30000000000E+02  0.47000000000E+01 0.  1.
         -5    1    1    2    0  501 -0.97853120093E+01 -0.14288891363E+02  0.24041323851E+02  0.30000000000E+02  0.47000000000E+01 0. -1.
</event>
<event>
 4    1  0.7580225E-002  0.6000000E+02  0.7546771E-02  0.1259629E+00
         11   -1    0    0    0    0  0.00000000000E+00  0.00000000000E+00  0.30000000000E+02  0.30000000000E+02  0.00000000000E+00 0.  1.
        -11   -1    0    0    0    0 -0.00000000000E+00 -0.00000000000E+00 -0.30000000000E+02  0.30000000000E+02  0.00000000000E+00 0. -1.
          5    1    1    2  501    0 -0.21263134780E+02 -0.30690589259E+01 -0.20405145837E+02  0.30000000000E+02  0.47000000000E+01 0. -1.
         -5    1    1    2    0  501  0.21263134780E+02  0.30690589259E+01  0.20405145837E+02  0.30000000000E+02  0.47000000000E+01 0.  1.
</event>
<event>
 4    1  0.7580225E-002  0.6000000E+02  0.7546771E-02  0.1259629E+00
         11   -1    0    0    0    0  0.00000000000E+00  0.00000000000E+00  0.30000000000E+02  0.30000000000E+02  0.00000000000E+00 0.  1.
        -11   -1    0    0    0    0 -0.00000000000E+00 -0.00000000000E+00 -0.30000000000E+02  0.30000000000E+02  0.00000000000E+00 0. -1.
          5    1    1    2  501    0 -0.27439433250E+01 -0.27525022824E+01 -0.29373534112E+02  0.30000000000E+02  0.47000000000E+01 0. -1.
         -5    1    1    2    0  501  0.27439433250E+01  0.27525022824E+01  0.29373534112E+02  0.30000000000E+02  0.47000000000E+01 0.  1.
</event>
<event>
 4    1  0.7580225E-002  0.6000000E+02  0.7546771E-02  0.1259629E+00
         11   -1    0    0    0    0  0.00000000000E+00  0.00000000000E+00  0.30000000000E+02  0.30000000000E+02  0.00000000000E+00 0.  1.
        -11   -1    0    0    0    0 -0.00000000000E+00 -0.00000000000E+00 -0.30000000000E+02  0.30000000000E+02  0.00000000000E+00 0. -1.
          5    1    1    2  501    0  0.20136656307E+02 -0.19125151820E+02 -0.10327324949E+02  0.30000000000E+02  0.47000000000E+01 0. -1.
         -5    1    1    2    0  501 -0.20136656307E+02  0.19125151820E+02  0.10327324949E+02  0.30000000000E+02  0.47000000000E+01 0.  1.
</event>
<event>
 4    1  0.7580225E-002  0.6000000E+02  0.7546771E-02  0.1259629E+00
         11   -1    0    0    0    0  0.00000000000E+00  0.00000000000E+00  0.30000000000E+02  0.30000000000E+02  0.00000000000E+00 0.  1.
        -11   -1    0    0    0    0 -0.00000000000E+00 -0.00000000000E+00 -0.30000000000E+02  0.30000000000E+02  0.00000000000E+00 0. -1.
          5    1    1    2  501    0 -0.28317537124E+02  0.34748793178E+01 -0.79970185051E+01  0.30000000000E+02  0.47000000000E+01 0. -1.
         -5    1    1    2    0  501  0.28317537124E+02 -0.34748793178E+01  0.79970185051E+01  0.30000000000E+02  0.47000000000E+01 0.  1.
</event>
<event>
 4    1  0.7580225E-002  0.6000000E+02  0.7546771E-02  0.1259629E+00
         11   -1    0    0    0    0  0.00000000000E+00  0.00000000000E+00  0.30000000000E+02  0.30000000000E+02  0.00000000000E+00 0.  1.
        -11   -1    0    0    0    0 -0.00000000000E+00 -0.00000000000E+00 -0.30000000000E+02  0.30000000000E+02  0.00000000000E+00 0. -1.
          5    1    1    2  501    0  0.12121325869E+01  0.58648497523E+01  0.29017999104E+02  0.30000000000E+02  0.47000000000E+01 0.  1.
         -5    1    1    2    0  501 -0.12121325869E+01 -0.58648497523E+01 -0.29017999104E+02  0.30000000000E+02  0.47000000000E+01 0. -1.
</event>
<event>
 4    1  0.7580225E-002  0.6000000E+02  0.7546771E-02  0.1259629E+00
         11   -1    0    0    0    0  0.00000000000E+00  0.00000000000E+00  0.30000000000E+02  0.30000000000E+02  0.00000000000E+00 0.  1.
        -11   -1    0    0    0    0 -0.00000000000E+00 -0.00000000000E+00 -0.30000000000E+02  0.30000000000E+02  0.00000000000E+00 0. -1.
          5    1    1    2  501    0 -0.70542330735E+01 -0.14717009323E+02 -0.24729687267E+02  0.30000000000E+02  0.47000000000E+01 0. -1.
         -5    1    1    2    0  501  0.70542330735E+01  0.14717009323E+02  0.24729687267E+02  0.30000000000E+02  0.47000000000E+01 0.  1.
</event>
<event>
 4    1  0.7580225E-002  0.6000000E+02  0.7546771E-02  0.1259629E+00
         11   -1    0    0    0    0  0.00000000000E+00  0.00000000000E+00  0.30000000000E+02  0.30000000000E+02  0.00000000000E+00 0.  1.
        -11   -1    0    0    0    0 -0.00000000000E+00 -0.00000000000E+00 -0.30000000000E+02  0.30000000000E+02  0.00000000000E+00 0. -1.
          5    1    1    2  501    0 -0.27641211291E+02  0.53396696724E+01 -0.92391215026E+01  0.30000000000E+02  0.47000000000E+01 0. -1.
         -5    1    1    2    0  501  0.27641211291E+02 -0.53396696724E+01  0.92391215026E+01  0.30000000000E+02  0.47000000000E+01 0.  1.
</event>
<event>
 4    1  0.7580225E-002  0.6000000E+02  0.7546771E-02  0.1259629E+00
         11   -1    0    0    0    0  0.00000000000E+00  0.00000000000E+00  0.30000000000E+02  0.30000000000E+02  0.00000000000E+00 0.  1.
        -11   -1    0    0    0    0 -0.00000000000E+00 -0.00000000000E+00 -0.30000000000E+02  0.30000000000E+02  0.00000000000E+00 0. -1.
          5    1    1    2  501    0  0.23536882783E+02 -0.82949493744E+01  0.15972443887E+02  0.30000000000E+02  0.47000000000E+01 0.  1.
         -5    1    1    2    0  501 -0.23536882783E+02  0.82949493744E+01 -0.15972443887E+02  0.30000000000E+02  0.47000000000E+01 0. -1.
</event>
<event>
 4    1  0.7580225E-002  0.6000000E+02  0.7546771E-02  0.1259629E+00
         11   -1    0    0    0    0  0.00000000000E+00  0.00000000000E+00  0.30000000000E+02  0.30000000000E+02  0.00000000000E+00 0.  1.
        -11   -1    0    0    0    0 -0.00000000000E+00 -0.00000000000E+00 -0.30000000000E+02  0.30000000000E+02  0.00000000000E+00 0. -1.
          5    1    1    2  501    0  0.20244760016E+02  0.19692562148E+01 -0.21544876928E+02  0.30000000000E+02  0.47000000000E+01 0. -1.
         -5    1    1    2    0  501 -0.20244760016E+02 -0.19692562148E+01  0.21544876928E+02  0.30000000000E+02  0.47000000000E+01 0.  1.
</event>
<event>
 4    1  0.7580225E-002  0.6000000E+02  0.7546771E-02  0.1259629E+00
         11   -1    0    0    0    0  0.00000000000E+00  0.00000000000E+00  0.30000000000E+02  0.30000000000E+02  0.00000000000E+00 0.  1.
        -11   -1    0    0    0    0 -0.00000000000E+00 -0.00000000000E+00 -0.30000000000E+02  0.30000000000E+02  0.00000000000E+00 0. -1.
          5    1    1    2  501    0  0.12977558655E+02  0.94529828285E+01 -0.24902491582E+02  0.30000000000E+02  0.47000000000E+01 0. -1.
         -5    1    1    2    0  501 -0.12977558655E+02 -0.94529828285E+01  0.24902491582E+02  0.30000000000E+02  0.47000000000E+01 0.  1.
</event>
<event>
 4    1  0.7580225E-002  0.6000000E+02  0.7546771E-02  0.1259629E+00
         11   -1    0    0    0    0  0.00000000000E+00  0.00000000000E+00  0.30000000000E+02  0.30000000000E+02  0.00000000000E+00 0.  1.
        -11   -1    0    0    0    0 -0.00000000000E+00 -0.00000000000E+00 -0.30000000000E+02  0.30000000000E+02  0.00000000000E+00 0. -1.
          5    1    1    2  501    0 -0.19787890110E+02  0.17314204667E+02 -0.13658979529E+02  0.30000000000E+02  0.47000000000E+01 0. -1.
         -5    1    1    2    0  501  0.19787890110E+02 -0.17314204667E+02  0.13658979529E+02  0.30000000000E+02  0.47000000000E+01 0.  1.
</event>
<event>
 4    1  0.7580225E-002  0.6000000E+02  0.7546771E-02  0.1259629E+00
         11   -1    0    0    0    0  0.00000000000E+00  0.00000000000E+00  0.30000000000E+02  0.30000000000E+02  0.00000000000E+00 0.  1.
        -11   -1    0    0    0    0 -0.00000000000E+00 -0.00000000000E+00 -0.30000000000E+02  0.30000000000E+02  0.00000000000E+00 0. -1.
          5    1    1    2  501    0 -0.23053552823E+02 -0.12781035196E+02 -0.13531032539E+02  0.30000000000E+02  0.47000000000E+01 0. -1.
         -5    1    1    2    0  501  0.23053552823E+02  0.12781035196E+02  0.13531032539E+02  0.30000000000E+02  0.47000000000E+01 0.  1.
</event>
<event>
 4    1  0.7580225E-002  0.6000000E+02  0.7546771E-02  0.1259629E+00
         11   -1    0    0    0    0  0.00000000000E+00  0.00000000000E+00  0.30000000000E+02  0.30000000000E+02  0.00000000000E+00 0. -1.
        -11   -1    0    0    0    0 -0.00000000000E+00 -0.00000000000E+00 -0.30000000000E+02  0.30000000000E+02  0.00000000000E+00 0.  1.
          5    1    1    2  501    0 -0.17130790860E+02 -0.22477462192E+02 -0.88999830290E+01  0.30000000000E+02  0.47000000000E+01 0.  1.
         -5    1    1    2    0  501  0.17130790860E+02  0.22477462192E+02  0.88999830290E+01  0.30000000000E+02  0.47000000000E+01 0. -1.
</event>
<event>
 4    1  0.7580225E-002  0.6000000E+02  0.7546771E-02  0.1259629E+00
         11   -1    0    0    0    0  0.00000000000E+00  0.00000000000E+00  0.30000000000E+02  0.30000000000E+02  0.00000000000E+00 0.  1.
        -11   -1    0    0    0    0 -0.00000000000E+00 -0.00000000000E+00 -0.30000000000E+02  0.30000000000E+02  0.00000000000E+00 0. -1.
          5    1    1    2  501    0  0.95626280478E+01 -0.22994406479E+02 -0.16053766396E+02  0.30000000000E+02  0.47000000000E+01 0. -1.
         -5    1    1    2    0  501 -0.95626280478E+01  0.22994406479E+02  0.16053766396E+02  0.30000000000E+02  0.47000000000E+01 0.  1.
</event>
<event>
 4    1  0.7580225E-002  0.6000000E+02  0.7546771E-02  0.1259629E+00
         11   -1    0    0    0    0  0.00000000000E+00  0.00000000000E+00  0.30000000000E+02  0.30000000000E+02  0.00000000000E+00 0.  1.
        -11   -1    0    0    0    0 -0.00000000000E+00 -0.00000000000E+00 -0.30000000000E+02  0.30000000000E+02  0.00000000000E+00 0. -1.
          5    1    1    2  501    0  0.21028096897E+02 -0.11906524310E+02 -0.17145373129E+02  0.30000000000E+02  0.47000000000E+01 0. -1.
         -5    1    1    2    0  501 -0.21028096897E+02  0.11906524310E+02  0.17145373129E+02  0.30000000000E+02  0.47000000000E+01 0.  1.
</event>
<event>
 4    1  0.7580225E-002  0.6000000E+02  0.7546771E-02  0.1259629E+00
         11   -1    0    0    0    0  0.00000000000E+00  0.00000000000E+00  0.30000000000E+02  0.30000000000E+02  0.00000000000E+00 0.  1.
        -11   -1    0    0    0    0 -0.00000000000E+00 -0.00000000000E+00 -0.30000000000E+02  0.30000000000E+02  0.00000000000E+00 0. -1.
          5    1    1    2  501    0  0.27980798892E+02  0.24340296382E+01 -0.94371814151E+01  0.30000000000E+02  0.47000000000E+01 0. -1.
         -5    1    1    2    0  501 -0.27980798892E+02 -0.24340296382E+01  0.94371814151E+01  0.30000000000E+02  0.47000000000E+01 0.  1.
</event>
<event>
 4    1  0.7580225E-002  0.6000000E+02  0.7546771E-02  0.1259629E+00
         11   -1    0    0    0    0  0.00000000000E+00  0.00000000000E+00  0.30000000000E+02  0.30000000000E+02  0.00000000000E+00 0.  1.
        -11   -1    0    0    0    0 -0.00000000000E+00 -0.00000000000E+00 -0.30000000000E+02  0.30000000000E+02  0.00000000000E+00 0. -1.
          5    1    1    2  501    0 -0.12568142187E+02  0.21722923111E+02  0.15750124237E+02  0.30000000000E+02  0.47000000000E+01 0. -1.
         -5    1    1    2    0  501  0.12568142187E+02 -0.21722923111E+02 -0.15750124237E+02  0.30000000000E+02  0.47000000000E+01 0.  1.
</event>
<event>
 4    1  0.7580225E-002  0.6000000E+02  0.7546771E-02  0.1259629E+00
         11   -1    0    0    0    0  0.00000000000E+00  0.00000000000E+00  0.30000000000E+02  0.30000000000E+02  0.00000000000E+00 0.  1.
        -11   -1    0    0    0    0 -0.00000000000E+00 -0.00000000000E+00 -0.30000000000E+02  0.30000000000E+02  0.00000000000E+00 0. -1.
          5    1    1    2  501    0 -0.18207932647E+02 -0.23304286914E+02 -0.18142216395E+01  0.30000000000E+02  0.47000000000E+01 0. -1.
         -5    1    1    2    0  501  0.18207932647E+02  0.23304286914E+02  0.18142216395E+01  0.30000000000E+02  0.47000000000E+01 0.  1.
</event>
<event>
 4    1  0.7580225E-002  0.6000000E+02  0.7546771E-02  0.1259629E+00
         11   -1    0    0    0    0  0.00000000000E+00  0.00000000000E+00  0.30000000000E+02  0.30000000000E+02  0.00000000000E+00 0.  1.
        -11   -1    0    0    0    0 -0.00000000000E+00 -0.00000000000E+00 -0.30000000000E+02  0.30000000000E+02  0.00000000000E+00 0. -1.
          5    1    1    2  501    0  0.34398910437E+01  0.23796719908E+02  0.17314539302E+02  0.30000000000E+02  0.47000000000E+01 0.  1.
         -5    1    1    2    0  501 -0.34398910437E+01 -0.23796719908E+02 -0.17314539302E+02  0.30000000000E+02  0.47000000000E+01 0. -1.
</event>
<event>
 4    1  0.7580225E-002  0.6000000E+02  0.7546771E-02  0.1259629E+00
         11   -1    0    0    0    0  0.00000000000E+00  0.00000000000E+00  0.30000000000E+02  0.30000000000E+02  0.00000000000E+00 0.  1.
        -11   -1    0    0    0    0 -0.00000000000E+00 -0.00000000000E+00 -0.30000000000E+02  0.30000000000E+02  0.00000000000E+00 0. -1.
          5    1    1    2  501    0 -0.43106535571E+00 -0.29504305517E+02 -0.26870315639E+01  0.30000000000E+02  0.47000000000E+01 0.  1.
         -5    1    1    2    0  501  0.43106535571E+00  0.29504305517E+02  0.26870315639E+01  0.30000000000E+02  0.47000000000E+01 0. -1.
</event>
<event>
 4    1  0.7580225E-002  0.6000000E+02  0.7546771E-02  0.1259629E+00
         11   -1    0    0    0    0  0.00000000000E+00  0.00000000000E+00  0.30000000000E+02  0.30000000000E+02  0.00000000000E+00 0.  1.
        -11   -1    0    0    0    0 -0.00000000000E+00 -0.00000000000E+00 -0.30000000000E+02  0.30000000000E+02  0.00000000000E+00 0. -1.
          5    1    1    2  501    0 -0.26467191322E+02  0.11909609672E+02  0.59631351636E+01  0.30000000000E+02  0.47000000000E+01 0. -1.
         -5    1    1    2    0  501  0.26467191322E+02 -0.11909609672E+02 -0.59631351636E+01  0.30000000000E+02  0.47000000000E+01 0.  1.
</event>
<event>
 4    1  0.7580225E-002  0.6000000E+02  0.7546771E-02  0.1259629E+00
         11   -1    0    0    0    0  0.00000000000E+00  0.00000000000E+00  0.30000000000E+02  0.30000000000E+02  0.00000000000E+00 0.  1.
        -11   -1    0    0    0    0 -0.00000000000E+00 -0.00000000000E+00 -0.30000000000E+02  0.30000000000E+02  0.00000000000E+00 0. -1.
          5    1    1    2  501    0  0.17053772119E+02 -0.11501228899E+02 -0.21326054260E+02  0.30000000000E+02  0.47000000000E+01 0. -1.
         -5    1    1    2    0  501 -0.17053772119E+02  0.11501228899E+02  0.21326054260E+02  0.30000000000E+02  0.47000000000E+01 0.  1.
</event>
<event>
 4    1  0.7580225E-002  0.6000000E+02  0.7546771E-02  0.1259629E+00
         11   -1    0    0    0    0  0.00000000000E+00  0.00000000000E+00  0.30000000000E+02  0.30000000000E+02  0.00000000000E+00 0. -1.
        -11   -1    0    0    0    0 -0.00000000000E+00 -0.00000000000E+00 -0.30000000000E+02  0.30000000000E+02  0.00000000000E+00 0.  1.
          5    1    1    2  501    0 -0.27620390116E+02 -0.91123444937E+01  0.56559020198E+01  0.30000000000E+02  0.47000000000E+01 0. -1.
         -5    1    1    2    0  501  0.27620390116E+02  0.91123444937E+01 -0.56559020198E+01  0.30000000000E+02  0.47000000000E+01 0.  1.
</event>
<event>
 4    1  0.7580225E-002  0.6000000E+02  0.7546771E-02  0.1259629E+00
         11   -1    0    0    0    0  0.00000000000E+00  0.00000000000E+00  0.30000000000E+02  0.30000000000E+02  0.00000000000E+00 0.  1.
        -11   -1    0    0    0    0 -0.00000000000E+00 -0.00000000000E+00 -0.30000000000E+02  0.30000000000E+02  0.00000000000E+00 0. -1.
          5    1    1    2  501    0 -0.22556666529E+02 -0.18513413861E+02 -0.51342285041E+01  0.30000000000E+02  0.47000000000E+01 0. -1.
         -5    1    1    2    0  501  0.22556666529E+02  0.18513413861E+02  0.51342285041E+01  0.30000000000E+02  0.47000000000E+01 0.  1.
</event>
<event>
 4    1  0.7580225E-002  0.6000000E+02  0.7546771E-02  0.1259629E+00
         11   -1    0    0    0    0  0.00000000000E+00  0.00000000000E+00  0.30000000000E+02  0.30000000000E+02  0.00000000000E+00 0.  1.
        -11   -1    0    0    0    0 -0.00000000000E+00 -0.00000000000E+00 -0.30000000000E+02  0.30000000000E+02  0.00000000000E+00 0. -1.
          5    1    1    2  501    0  0.78417794597E+01 -0.23127418503E+02 -0.16779124181E+02  0.30000000000E+02  0.47000000000E+01 0. -1.
         -5    1    1    2    0  501 -0.78417794597E+01  0.23127418503E+02  0.16779124181E+02  0.30000000000E+02  0.47000000000E+01 0.  1.
</event>
<event>
 4    1  0.7580225E-002  0.6000000E+02  0.7546771E-02  0.1259629E+00
         11   -1    0    0    0    0  0.00000000000E+00  0.00000000000E+00  0.30000000000E+02  0.30000000000E+02  0.00000000000E+00 0. -1.
        -11   -1    0    0    0    0 -0.00000000000E+00 -0.00000000000E+00 -0.30000000000E+02  0.30000000000E+02  0.00000000000E+00 0.  1.
          5    1    1    2  501    0 -0.10772212751E+02  0.14960449401E+02  0.23195999357E+02  0.30000000000E+02  0.47000000000E+01 0. -1.
         -5    1    1    2    0  501  0.10772212751E+02 -0.14960449401E+02 -0.23195999357E+02  0.30000000000E+02  0.47000000000E+01 0.  1.
</event>
<event>
 4    1  0.7580225E-002  0.6000000E+02  0.7546771E-02  0.1259629E+00
         11   -1    0    0    0    0  0.00000000000E+00  0.00000000000E+00  0.30000000000E+02  0.30000000000E+02  0.00000000000E+00 0.  1.
        -11   -1    0    0    0    0 -0.00000000000E+00 -0.00000000000E+00 -0.30000000000E+02  0.30000000000E+02  0.00000000000E+00 0. -1.
          5    1    1    2  501    0  0.14374281817E+02 -0.25541684715E+02 -0.43488348054E+01  0.30000000000E+02  0.47000000000E+01 0. -1.
         -5    1    1    2    0  501 -0.14374281817E+02  0.25541684715E+02  0.43488348054E+01  0.30000000000E+02  0.47000000000E+01 0.  1.
</event>
<event>
 4    1  0.7580225E-002  0.6000000E+02  0.7546771E-02  0.1259629E+00
         11   -1    0    0    0    0  0.00000000000E+00  0.00000000000E+00  0.30000000000E+02  0.30000000000E+02  0.00000000000E+00 0. -1.
        -11   -1    0    0    0    0 -0.00000000000E+00 -0.00000000000E+00 -0.30000000000E+02  0.30000000000E+02  0.00000000000E+00 0.  1.
          5    1    1    2  501    0  0.17518160899E+02 -0.22622964905E+02 -0.76958103955E+01  0.30000000000E+02  0.47000000000E+01 0.  1.
         -5    1    1    2    0  501 -0.17518160899E+02  0.22622964905E+02  0.76958103955E+01  0.30000000000E+02  0.47000000000E+01 0. -1.
</event>
<event>
 4    1  0.7580225E-002  0.6000000E+02  0.7546771E-02  0.1259629E+00
         11   -1    0    0    0    0  0.00000000000E+00  0.00000000000E+00  0.30000000000E+02  0.30000000000E+02  0.00000000000E+00 0.  1.
        -11   -1    0    0    0    0 -0.00000000000E+00 -0.00000000000E+00 -0.30000000000E+02  0.30000000000E+02  0.00000000000E+00 0. -1.
          5    1    1    2  501    0 -0.19235843002E+02 -0.10272804002E+02 -0.20058959144E+02  0.30000000000E+02  0.47000000000E+01 0. -1.
         -5    1    1    2    0  501  0.19235843002E+02  0.10272804002E+02  0.20058959144E+02  0.30000000000E+02  0.47000000000E+01 0.  1.
</event>
<event>
 4    1  0.7580225E-002  0.6000000E+02  0.7546771E-02  0.1259629E+00
         11   -1    0    0    0    0  0.00000000000E+00  0.00000000000E+00  0.30000000000E+02  0.30000000000E+02  0.00000000000E+00 0.  1.
        -11   -1    0    0    0    0 -0.00000000000E+00 -0.00000000000E+00 -0.30000000000E+02  0.30000000000E+02  0.00000000000E+00 0. -1.
          5    1    1    2  501    0 -0.21406967752E+02 -0.20128413066E+02  0.38077183590E+01  0.30000000000E+02  0.47000000000E+01 0. -1.
         -5    1    1    2    0  501  0.21406967752E+02  0.20128413066E+02 -0.38077183590E+01  0.30000000000E+02  0.47000000000E+01 0.  1.
</event>
<event>
 4    1  0.7580225E-002  0.6000000E+02  0.7546771E-02  0.1259629E+00
         11   -1    0    0    0    0  0.00000000000E+00  0.00000000000E+00  0.30000000000E+02  0.30000000000E+02  0.00000000000E+00 0. -1.
        -11   -1    0    0    0    0 -0.00000000000E+00 -0.00000000000E+00 -0.30000000000E+02  0.30000000000E+02  0.00000000000E+00 0.  1.
          5    1    1    2  501    0 -0.86177075695E+01 -0.28302902279E+02 -0.16096082918E+01  0.30000000000E+02  0.47000000000E+01 0.  1.
         -5    1    1    2    0  501  0.86177075695E+01  0.28302902279E+02  0.16096082918E+01  0.30000000000E+02  0.47000000000E+01 0. -1.
</event>
<event>
 4    1  0.7580225E-002  0.6000000E+02  0.7546771E-02  0.1259629E+00
         11   -1    0    0    0    0  0.00000000000E+00  0.00000000000E+00  0.30000000000E+02  0.30000000000E+02  0.00000000000E+00 0.  1.
        -11   -1    0    0    0    0 -0.00000000000E+00 -0.00000000000E+00 -0.30000000000E+02  0.30000000000E+02  0.00000000000E+00 0. -1.
          5    1    1    2  501    0  0.12464809965E+02  0.26644980565E+02 -0.35473262073E+01  0.30000000000E+02  0.47000000000E+01 0. -1.
         -5    1    1    2    0  501 -0.12464809965E+02 -0.26644980565E+02  0.35473262073E+01  0.30000000000E+02  0.47000000000E+01 0.  1.
</event>
<event>
 4    1  0.7580225E-002  0.6000000E+02  0.7546771E-02  0.1259629E+00
         11   -1    0    0    0    0  0.00000000000E+00  0.00000000000E+00  0.30000000000E+02  0.30000000000E+02  0.00000000000E+00 0. -1.
        -11   -1    0    0    0    0 -0.00000000000E+00 -0.00000000000E+00 -0.30000000000E+02  0.30000000000E+02  0.00000000000E+00 0.  1.
          5    1    1    2  501    0  0.22460562780E+02  0.14927576484E+02 -0.12271942794E+02  0.30000000000E+02  0.47000000000E+01 0.  1.
         -5    1    1    2    0  501 -0.22460562780E+02 -0.14927576484E+02  0.12271942794E+02  0.30000000000E+02  0.47000000000E+01 0. -1.
</event>
<event>
 4    1  0.7580225E-002  0.6000000E+02  0.7546771E-02  0.1259629E+00
         11   -1    0    0    0    0  0.00000000000E+00  0.00000000000E+00  0.30000000000E+02  0.30000000000E+02  0.00000000000E+00 0.  1.
        -11   -1    0    0    0    0 -0.00000000000E+00 -0.00000000000E+00 -0.30000000000E+02  0.30000000000E+02  0.00000000000E+00 0. -1.
          5    1    1    2  501    0 -0.29157736907E+02 -0.52219882279E+01  0.68353304100E+00  0.30000000000E+02  0.47000000000E+01 0. -1.
         -5    1    1    2    0  501  0.29157736907E+02  0.52219882279E+01 -0.68353304100E+00  0.30000000000E+02  0.47000000000E+01 0.  1.
</event>
<event>
 4    1  0.7580225E-002  0.6000000E+02  0.7546771E-02  0.1259629E+00
         11   -1    0    0    0    0  0.00000000000E+00  0.00000000000E+00  0.30000000000E+02  0.30000000000E+02  0.00000000000E+00 0.  1.
        -11   -1    0    0    0    0 -0.00000000000E+00 -0.00000000000E+00 -0.30000000000E+02  0.30000000000E+02  0.00000000000E+00 0. -1.
          5    1    1    2  501    0  0.40780175156E+01 -0.19012052571E+02 -0.22356690949E+02  0.30000000000E+02  0.47000000000E+01 0. -1.
         -5    1    1    2    0  501 -0.40780175156E+01  0.19012052571E+02  0.22356690949E+02  0.30000000000E+02  0.47000000000E+01 0.  1.
</event>
<event>
 4    1  0.7580225E-002  0.6000000E+02  0.7546771E-02  0.1259629E+00
         11   -1    0    0    0    0  0.00000000000E+00  0.00000000000E+00  0.30000000000E+02  0.30000000000E+02  0.00000000000E+00 0.  1.
        -11   -1    0    0    0    0 -0.00000000000E+00 -0.00000000000E+00 -0.30000000000E+02  0.30000000000E+02  0.00000000000E+00 0. -1.
          5    1    1    2  501    0 -0.10803941279E+02  0.12022801742E+01 -0.27563370172E+02  0.30000000000E+02  0.47000000000E+01 0. -1.
         -5    1    1    2    0  501  0.10803941279E+02 -0.12022801742E+01  0.27563370172E+02  0.30000000000E+02  0.47000000000E+01 0.  1.
</event>
<event>
 4    1  0.7580225E-002  0.6000000E+02  0.7546771E-02  0.1259629E+00
         11   -1    0    0    0    0  0.00000000000E+00  0.00000000000E+00  0.30000000000E+02  0.30000000000E+02  0.00000000000E+00 0. -1.
        -11   -1    0    0    0    0 -0.00000000000E+00 -0.00000000000E+00 -0.30000000000E+02  0.30000000000E+02  0.00000000000E+00 0.  1.
          5    1    1    2  501    0  0.65596710565E+01 -0.19289595102E+02 -0.21512606453E+02  0.30000000000E+02  0.47000000000E+01 0.  1.
         -5    1    1    2    0  501 -0.65596710565E+01  0.19289595102E+02  0.21512606453E+02  0.30000000000E+02  0.47000000000E+01 0. -1.
</event>
<event>
 4    1  0.7580225E-002  0.6000000E+02  0.7546771E-02  0.1259629E+00
         11   -1    0    0    0    0  0.00000000000E+00  0.00000000000E+00  0.30000000000E+02  0.30000000000E+02  0.00000000000E+00 0.  1.
        -11   -1    0    0    0    0 -0.00000000000E+00 -0.00000000000E+00 -0.30000000000E+02  0.30000000000E+02  0.00000000000E+00 0. -1.
          5    1    1    2  501    0  0.50152779671E+00 -0.12786099912E+02 -0.26724036351E+02  0.30000000000E+02  0.47000000000E+01 0. -1.
         -5    1    1    2    0  501 -0.50152779671E+00  0.12786099912E+02  0.26724036351E+02  0.30000000000E+02  0.47000000000E+01 0.  1.
</event>
<event>
 4    1  0.7580225E-002  0.6000000E+02  0.7546771E-02  0.1259629E+00
         11   -1    0    0    0    0  0.00000000000E+00  0.00000000000E+00  0.30000000000E+02  0.30000000000E+02  0.00000000000E+00 0. -1.
        -11   -1    0    0    0    0 -0.00000000000E+00 -0.00000000000E+00 -0.30000000000E+02  0.30000000000E+02  0.00000000000E+00 0.  1.
          5    1    1    2  501    0  0.21408106030E+02 -0.24592112565E+01 -0.20336058522E+02  0.30000000000E+02  0.47000000000E+01 0.  1.
         -5    1    1    2    0  501 -0.21408106030E+02  0.24592112565E+01  0.20336058522E+02  0.30000000000E+02  0.47000000000E+01 0. -1.
</event>
<event>
 4    1  0.7580225E-002  0.6000000E+02  0.7546771E-02  0.1259629E+00
         11   -1    0    0    0    0  0.00000000000E+00  0.00000000000E+00  0.30000000000E+02  0.30000000000E+02  0.00000000000E+00 0.  1.
        -11   -1    0    0    0    0 -0.00000000000E+00 -0.00000000000E+00 -0.30000000000E+02  0.30000000000E+02  0.00000000000E+00 0. -1.
          5    1    1    2  501    0  0.25982476853E+02 -0.12667466929E+02 -0.65081624257E+01  0.30000000000E+02  0.47000000000E+01 0. -1.
         -5    1    1    2    0  501 -0.25982476853E+02  0.12667466929E+02  0.65081624257E+01  0.30000000000E+02  0.47000000000E+01 0.  1.
</event>
<event>
 4    1  0.7580225E-002  0.6000000E+02  0.7546771E-02  0.1259629E+00
         11   -1    0    0    0    0  0.00000000000E+00  0.00000000000E+00  0.30000000000E+02  0.30000000000E+02  0.00000000000E+00 0.  1.
        -11   -1    0    0    0    0 -0.00000000000E+00 -0.00000000000E+00 -0.30000000000E+02  0.30000000000E+02  0.00000000000E+00 0. -1.
          5    1    1    2  501    0  0.26078530823E+02 -0.11357627588E+02 -0.82960548277E+01  0.30000000000E+02  0.47000000000E+01 0. -1.
         -5    1    1    2    0  501 -0.26078530823E+02  0.11357627588E+02  0.82960548277E+01  0.30000000000E+02  0.47000000000E+01 0.  1.
</event>
<event>
 4    1  0.7580225E-002  0.6000000E+02  0.7546771E-02  0.1259629E+00
         11   -1    0    0    0    0  0.00000000000E+00  0.00000000000E+00  0.30000000000E+02  0.30000000000E+02  0.00000000000E+00 0.  1.
        -11   -1    0    0    0    0 -0.00000000000E+00 -0.00000000000E+00 -0.30000000000E+02  0.30000000000E+02  0.00000000000E+00 0. -1.
          5    1    1    2  501    0 -0.12045868998E+02 -0.10868114046E+02 -0.24792965477E+02  0.30000000000E+02  0.47000000000E+01 0. -1.
         -5    1    1    2    0  501  0.12045868998E+02  0.10868114046E+02  0.24792965477E+02  0.30000000000E+02  0.47000000000E+01 0.  1.
</event>
<event>
 4    1  0.7580225E-002  0.6000000E+02  0.7546771E-02  0.1259629E+00
         11   -1    0    0    0    0  0.00000000000E+00  0.00000000000E+00  0.30000000000E+02  0.30000000000E+02  0.00000000000E+00 0.  1.
        -11   -1    0    0    0    0 -0.00000000000E+00 -0.00000000000E+00 -0.30000000000E+02  0.30000000000E+02  0.00000000000E+00 0. -1.
          5    1    1    2  501    0 -0.22979591327E+02 -0.16573832147E+02 -0.86692831551E+01  0.30000000000E+02  0.47000000000E+01 0. -1.
         -5    1    1    2    0  501  0.22979591327E+02  0.16573832147E+02  0.86692831551E+01  0.30000000000E+02  0.47000000000E+01 0.  1.
</event>
<event>
 4    1  0.7580225E-002  0.6000000E+02  0.7546771E-02  0.1259629E+00
         11   -1    0    0    0    0  0.00000000000E+00  0.00000000000E+00  0.30000000000E+02  0.30000000000E+02  0.00000000000E+00 0. -1.
        -11   -1    0    0    0    0 -0.00000000000E+00 -0.00000000000E+00 -0.30000000000E+02  0.30000000000E+02  0.00000000000E+00 0.  1.
          5    1    1    2  501    0  0.47668066937E+01 -0.10805388527E+02 -0.27174089363E+02  0.30000000000E+02  0.47000000000E+01 0.  1.
         -5    1    1    2    0  501 -0.47668066937E+01  0.10805388527E+02  0.27174089363E+02  0.30000000000E+02  0.47000000000E+01 0. -1.
</event>
<event>
 4    1  0.7580225E-002  0.6000000E+02  0.7546771E-02  0.1259629E+00
         11   -1    0    0    0    0  0.00000000000E+00  0.00000000000E+00  0.30000000000E+02  0.30000000000E+02  0.00000000000E+00 0. -1.
        -11   -1    0    0    0    0 -0.00000000000E+00 -0.00000000000E+00 -0.30000000000E+02  0.30000000000E+02  0.00000000000E+00 0.  1.
          5    1    1    2  501    0 -0.68198017772E+01  0.12495882542E+02 -0.25985634939E+02  0.30000000000E+02  0.47000000000E+01 0.  1.
         -5    1    1    2    0  501  0.68198017772E+01 -0.12495882542E+02  0.25985634939E+02  0.30000000000E+02  0.47000000000E+01 0. -1.
</event>
<event>
 4    1  0.7580225E-002  0.6000000E+02  0.7546771E-02  0.1259629E+00
         11   -1    0    0    0    0  0.00000000000E+00  0.00000000000E+00  0.30000000000E+02  0.30000000000E+02  0.00000000000E+00 0.  1.
        -11   -1    0    0    0    0 -0.00000000000E+00 -0.00000000000E+00 -0.30000000000E+02  0.30000000000E+02  0.00000000000E+00 0. -1.
          5    1    1    2  501    0 -0.19894314411E+01 -0.25860240252E+02 -0.14324808433E+02  0.30000000000E+02  0.47000000000E+01 0. -1.
         -5    1    1    2    0  501  0.19894314411E+01  0.25860240252E+02  0.14324808433E+02  0.30000000000E+02  0.47000000000E+01 0.  1.
</event>
<event>
 4    1  0.7580225E-002  0.6000000E+02  0.7546771E-02  0.1259629E+00
         11   -1    0    0    0    0  0.00000000000E+00  0.00000000000E+00  0.30000000000E+02  0.30000000000E+02  0.00000000000E+00 0.  1.
        -11   -1    0    0    0    0 -0.00000000000E+00 -0.00000000000E+00 -0.30000000000E+02  0.30000000000E+02  0.00000000000E+00 0. -1.
          5    1    1    2  501    0 -0.89282289950E+01  0.40731442776E+01 -0.27957221298E+02  0.30000000000E+02  0.47000000000E+01 0. -1.
         -5    1    1    2    0  501  0.89282289950E+01 -0.40731442776E+01  0.27957221298E+02  0.30000000000E+02  0.47000000000E+01 0.  1.
</event>
<event>
 4    1  0.7580225E-002  0.6000000E+02  0.7546771E-02  0.1259629E+00
         11   -1    0    0    0    0  0.00000000000E+00  0.00000000000E+00  0.30000000000E+02  0.30000000000E+02  0.00000000000E+00 0. -1.
        -11   -1    0    0    0    0 -0.00000000000E+00 -0.00000000000E+00 -0.30000000000E+02  0.30000000000E+02  0.00000000000E+00 0.  1.
          5    1    1    2  501    0 -0.35093613186E+01  0.19940870486E+02 -0.21632292236E+02  0.30000000000E+02  0.47000000000E+01 0.  1.
         -5    1    1    2    0  501  0.35093613186E+01 -0.19940870486E+02  0.21632292236E+02  0.30000000000E+02  0.47000000000E+01 0. -1.
</event>
<event>
 4    1  0.7580225E-002  0.6000000E+02  0.7546771E-02  0.1259629E+00
         11   -1    0    0    0    0  0.00000000000E+00  0.00000000000E+00  0.30000000000E+02  0.30000000000E+02  0.00000000000E+00 0.  1.
        -11   -1    0    0    0    0 -0.00000000000E+00 -0.00000000000E+00 -0.30000000000E+02  0.30000000000E+02  0.00000000000E+00 0. -1.
          5    1    1    2  501    0 -0.11516005022E+02  0.26640509949E+02 -0.59644662805E+01  0.30000000000E+02  0.47000000000E+01 0. -1.
         -5    1    1    2    0  501  0.11516005022E+02 -0.26640509949E+02  0.59644662805E+01  0.30000000000E+02  0.47000000000E+01 0.  1.
</event>
<event>
 4    1  0.7580225E-002  0.6000000E+02  0.7546771E-02  0.1259629E+00
         11   -1    0    0    0    0  0.00000000000E+00  0.00000000000E+00  0.30000000000E+02  0.30000000000E+02  0.00000000000E+00 0.  1.
        -11   -1    0    0    0    0 -0.00000000000E+00 -0.00000000000E+00 -0.30000000000E+02  0.30000000000E+02  0.00000000000E+00 0. -1.
          5    1    1    2  501    0 -0.36361670200E+01 -0.17089302820E+02 -0.23929981583E+02  0.30000000000E+02  0.47000000000E+01 0. -1.
         -5    1    1    2    0  501  0.36361670200E+01  0.17089302820E+02  0.23929981583E+02  0.30000000000E+02  0.47000000000E+01 0.  1.
</event>
<event>
 4    1  0.7580225E-002  0.6000000E+02  0.7546771E-02  0.1259629E+00
         11   -1    0    0    0    0  0.00000000000E+00  0.00000000000E+00  0.30000000000E+02  0.30000000000E+02  0.00000000000E+00 0.  1.
        -11   -1    0    0    0    0 -0.00000000000E+00 -0.00000000000E+00 -0.30000000000E+02  0.30000000000E+02  0.00000000000E+00 0. -1.
          5    1    1    2  501    0  0.15895478805E+02  0.22088541423E+02 -0.11719218888E+02  0.30000000000E+02  0.47000000000E+01 0. -1.
         -5    1    1    2    0  501 -0.15895478805E+02 -0.22088541423E+02  0.11719218888E+02  0.30000000000E+02  0.47000000000E+01 0.  1.
</event>
<event>
 4    1  0.7580225E-002  0.6000000E+02  0.7546771E-02  0.1259629E+00
         11   -1    0    0    0    0  0.00000000000E+00  0.00000000000E+00  0.30000000000E+02  0.30000000000E+02  0.00000000000E+00 0.  1.
        -11   -1    0    0    0    0 -0.00000000000E+00 -0.00000000000E+00 -0.30000000000E+02  0.30000000000E+02  0.00000000000E+00 0. -1.
          5    1    1    2  501    0  0.16115905272E+02 -0.12561963594E+01 -0.24831624352E+02  0.30000000000E+02  0.47000000000E+01 0. -1.
         -5    1    1    2    0  501 -0.16115905272E+02  0.12561963594E+01  0.24831624352E+02  0.30000000000E+02  0.47000000000E+01 0.  1.
</event>
<event>
 4    1  0.7580225E-002  0.6000000E+02  0.7546771E-02  0.1259629E+00
         11   -1    0    0    0    0  0.00000000000E+00  0.00000000000E+00  0.30000000000E+02  0.30000000000E+02  0.00000000000E+00 0. -1.
        -11   -1    0    0    0    0 -0.00000000000E+00 -0.00000000000E+00 -0.30000000000E+02  0.30000000000E+02  0.00000000000E+00 0.  1.
          5    1    1    2  501    0  0.26665556847E+02 -0.97426517305E+01 -0.84816752635E+01  0.30000000000E+02  0.47000000000E+01 0.  1.
         -5    1    1    2    0  501 -0.26665556847E+02  0.97426517305E+01  0.84816752635E+01  0.30000000000E+02  0.47000000000E+01 0. -1.
</event>
<event>
 4    1  0.7580225E-002  0.6000000E+02  0.7546771E-02  0.1259629E+00
         11   -1    0    0    0    0  0.00000000000E+00  0.00000000000E+00  0.30000000000E+02  0.30000000000E+02  0.00000000000E+00 0. -1.
        -11   -1    0    0    0    0 -0.00000000000E+00 -0.00000000000E+00 -0.30000000000E+02  0.30000000000E+02  0.00000000000E+00 0.  1.
          5    1    1    2  501    0  0.13870626286E+02 -0.19697672709E+02 -0.17248693176E+02  0.30000000000E+02  0.47000000000E+01 0.  1.
         -5    1    1    2    0  501 -0.13870626286E+02  0.19697672709E+02  0.17248693176E+02  0.30000000000E+02  0.47000000000E+01 0. -1.
</event>
<event>
 4    1  0.7580225E-002  0.6000000E+02  0.7546771E-02  0.1259629E+00
         11   -1    0    0    0    0  0.00000000000E+00  0.00000000000E+00  0.30000000000E+02  0.30000000000E+02  0.00000000000E+00 0.  1.
        -11   -1    0    0    0    0 -0.00000000000E+00 -0.00000000000E+00 -0.30000000000E+02  0.30000000000E+02  0.00000000000E+00 0. -1.
          5    1    1    2  501    0  0.24391899761E+02 -0.15150319012E+02 -0.73084239000E+01  0.30000000000E+02  0.47000000000E+01 0. -1.
         -5    1    1    2    0  501 -0.24391899761E+02  0.15150319012E+02  0.73084239000E+01  0.30000000000E+02  0.47000000000E+01 0.  1.
</event>
<event>
 4    1  0.7580225E-002  0.6000000E+02  0.7546771E-02  0.1259629E+00
         11   -1    0    0    0    0  0.00000000000E+00  0.00000000000E+00  0.30000000000E+02  0.30000000000E+02  0.00000000000E+00 0.  1.
        -11   -1    0    0    0    0 -0.00000000000E+00 -0.00000000000E+00 -0.30000000000E+02  0.30000000000E+02  0.00000000000E+00 0. -1.
          5    1    1    2  501    0  0.20924033181E+02 -0.18281219732E+02  0.10290376112E+02  0.30000000000E+02  0.47000000000E+01 0.  1.
         -5    1    1    2    0  501 -0.20924033181E+02  0.18281219732E+02 -0.10290376112E+02  0.30000000000E+02  0.47000000000E+01 0. -1.
</event>
<event>
 4    1  0.7580225E-002  0.6000000E+02  0.7546771E-02  0.1259629E+00
         11   -1    0    0    0    0  0.00000000000E+00  0.00000000000E+00  0.30000000000E+02  0.30000000000E+02  0.00000000000E+00 0. -1.
        -11   -1    0    0    0    0 -0.00000000000E+00 -0.00000000000E+00 -0.30000000000E+02  0.30000000000E+02  0.00000000000E+00 0.  1.
          5    1    1    2  501    0  0.50086876054E+01 -0.23481199829E+02 -0.17362497028E+02  0.30000000000E+02  0.47000000000E+01 0.  1.
         -5    1    1    2    0  501 -0.50086876054E+01  0.23481199829E+02  0.17362497028E+02  0.30000000000E+02  0.47000000000E+01 0. -1.
</event>
<event>
 4    1  0.7580225E-002  0.6000000E+02  0.7546771E-02  0.1259629E+00
         11   -1    0    0    0    0  0.00000000000E+00  0.00000000000E+00  0.30000000000E+02  0.30000000000E+02  0.00000000000E+00 0.  1.
        -11   -1    0    0    0    0 -0.00000000000E+00 -0.00000000000E+00 -0.30000000000E+02  0.30000000000E+02  0.00000000000E+00 0. -1.
          5    1    1    2  501    0 -0.20051030240E+01  0.91501079318E+01  0.28109875252E+02  0.30000000000E+02  0.47000000000E+01 0.  1.
         -5    1    1    2    0  501  0.20051030240E+01 -0.91501079318E+01 -0.28109875252E+02  0.30000000000E+02  0.47000000000E+01 0. -1.
</event>
<event>
 4    1  0.7580225E-002  0.6000000E+02  0.7546771E-02  0.1259629E+00
         11   -1    0    0    0    0  0.00000000000E+00  0.00000000000E+00  0.30000000000E+02  0.30000000000E+02  0.00000000000E+00 0.  1.
        -11   -1    0    0    0    0 -0.00000000000E+00 -0.00000000000E+00 -0.30000000000E+02  0.30000000000E+02  0.00000000000E+00 0. -1.
          5    1    1    2  501    0 -0.13693631529E+02  0.17591393120E+02 -0.19517616239E+02  0.30000000000E+02  0.47000000000E+01 0. -1.
         -5    1    1    2    0  501  0.13693631529E+02 -0.17591393120E+02  0.19517616239E+02  0.30000000000E+02  0.47000000000E+01 0.  1.
</event>
<event>
 4    1  0.7580225E-002  0.6000000E+02  0.7546771E-02  0.1259629E+00
         11   -1    0    0    0    0  0.00000000000E+00  0.00000000000E+00  0.30000000000E+02  0.30000000000E+02  0.00000000000E+00 0.  1.
        -11   -1    0    0    0    0 -0.00000000000E+00 -0.00000000000E+00 -0.30000000000E+02  0.30000000000E+02  0.00000000000E+00 0. -1.
          5    1    1    2  501    0  0.20742128166E+01 -0.12796947894E+01 -0.29529138532E+02  0.30000000000E+02  0.47000000000E+01 0. -1.
         -5    1    1    2    0  501 -0.20742128166E+01  0.12796947894E+01  0.29529138532E+02  0.30000000000E+02  0.47000000000E+01 0.  1.
</event>
<event>
 4    1  0.7580225E-002  0.6000000E+02  0.7546771E-02  0.1259629E+00
         11   -1    0    0    0    0  0.00000000000E+00  0.00000000000E+00  0.30000000000E+02  0.30000000000E+02  0.00000000000E+00 0.  1.
        -11   -1    0    0    0    0 -0.00000000000E+00 -0.00000000000E+00 -0.30000000000E+02  0.30000000000E+02  0.00000000000E+00 0. -1.
          5    1    1    2  501    0 -0.16276900865E+02 -0.19733449958E+02 -0.14952038356E+02  0.30000000000E+02  0.47000000000E+01 0. -1.
         -5    1    1    2    0  501  0.16276900865E+02  0.19733449958E+02  0.14952038356E+02  0.30000000000E+02  0.47000000000E+01 0.  1.
</event>
<event>
 4    1  0.7580225E-002  0.6000000E+02  0.7546771E-02  0.1259629E+00
         11   -1    0    0    0    0  0.00000000000E+00  0.00000000000E+00  0.30000000000E+02  0.30000000000E+02  0.00000000000E+00 0.  1.
        -11   -1    0    0    0    0 -0.00000000000E+00 -0.00000000000E+00 -0.30000000000E+02  0.30000000000E+02  0.00000000000E+00 0. -1.
          5    1    1    2  501    0  0.18820965010E+02  0.21523750938E+02 -0.77723498156E+01  0.30000000000E+02  0.47000000000E+01 0. -1.
         -5    1    1    2    0  501 -0.18820965010E+02 -0.21523750938E+02  0.77723498156E+01  0.30000000000E+02  0.47000000000E+01 0.  1.
</event>
<event>
 4    1  0.7580225E-002  0.6000000E+02  0.7546771E-02  0.1259629E+00
         11   -1    0    0    0    0  0.00000000000E+00  0.00000000000E+00  0.30000000000E+02  0.30000000000E+02  0.00000000000E+00 0.  1.
        -11   -1    0    0    0    0 -0.00000000000E+00 -0.00000000000E+00 -0.30000000000E+02  0.30000000000E+02  0.00000000000E+00 0. -1.
          5    1    1    2  501    0 -0.14218614918E+02 -0.14438428589E+02  0.21616493002E+02  0.30000000000E+02  0.47000000000E+01 0.  1.
         -5    1    1    2    0  501  0.14218614918E+02  0.14438428589E+02 -0.21616493002E+02  0.30000000000E+02  0.47000000000E+01 0. -1.
</event>
<event>
 4    1  0.7580225E-002  0.6000000E+02  0.7546771E-02  0.1259629E+00
         11   -1    0    0    0    0  0.00000000000E+00  0.00000000000E+00  0.30000000000E+02  0.30000000000E+02  0.00000000000E+00 0.  1.
        -11   -1    0    0    0    0 -0.00000000000E+00 -0.00000000000E+00 -0.30000000000E+02  0.30000000000E+02  0.00000000000E+00 0. -1.
          5    1    1    2  501    0  0.16646601215E+02 -0.13930185338E+02 -0.20168059015E+02  0.30000000000E+02  0.47000000000E+01 0. -1.
         -5    1    1    2    0  501 -0.16646601215E+02  0.13930185338E+02  0.20168059015E+02  0.30000000000E+02  0.47000000000E+01 0.  1.
</event>
<event>
 4    1  0.7580225E-002  0.6000000E+02  0.7546771E-02  0.1259629E+00
         11   -1    0    0    0    0  0.00000000000E+00  0.00000000000E+00  0.30000000000E+02  0.30000000000E+02  0.00000000000E+00 0. -1.
        -11   -1    0    0    0    0 -0.00000000000E+00 -0.00000000000E+00 -0.30000000000E+02  0.30000000000E+02  0.00000000000E+00 0.  1.
          5    1    1    2  501    0  0.11373550453E+02 -0.16528847097E+02 -0.21802512785E+02  0.30000000000E+02  0.47000000000E+01 0.  1.
         -5    1    1    2    0  501 -0.11373550453E+02  0.16528847097E+02  0.21802512785E+02  0.30000000000E+02  0.47000000000E+01 0. -1.
</event>
<event>
 4    1  0.7580225E-002  0.6000000E+02  0.7546771E-02  0.1259629E+00
         11   -1    0    0    0    0  0.00000000000E+00  0.00000000000E+00  0.30000000000E+02  0.30000000000E+02  0.00000000000E+00 0.  1.
        -11   -1    0    0    0    0 -0.00000000000E+00 -0.00000000000E+00 -0.30000000000E+02  0.30000000000E+02  0.00000000000E+00 0. -1.
          5    1    1    2  501    0 -0.29223085206E+02 -0.35756064085E+01 -0.33371140015E+01  0.30000000000E+02  0.47000000000E+01 0. -1.
         -5    1    1    2    0  501  0.29223085206E+02  0.35756064085E+01  0.33371140015E+01  0.30000000000E+02  0.47000000000E+01 0.  1.
</event>
<event>
 4    1  0.7580225E-002  0.6000000E+02  0.7546771E-02  0.1259629E+00
         11   -1    0    0    0    0  0.00000000000E+00  0.00000000000E+00  0.30000000000E+02  0.30000000000E+02  0.00000000000E+00 0.  1.
        -11   -1    0    0    0    0 -0.00000000000E+00 -0.00000000000E+00 -0.30000000000E+02  0.30000000000E+02  0.00000000000E+00 0. -1.
          5    1    1    2  501    0  0.58620560753E+01  0.29031313170E+02  0.85390526929E+00  0.30000000000E+02  0.47000000000E+01 0. -1.
         -5    1    1    2    0  501 -0.58620560753E+01 -0.29031313170E+02 -0.85390526929E+00  0.30000000000E+02  0.47000000000E+01 0.  1.
</event>
<event>
 4    1  0.7580225E-002  0.6000000E+02  0.7546771E-02  0.1259629E+00
         11   -1    0    0    0    0  0.00000000000E+00  0.00000000000E+00  0.30000000000E+02  0.30000000000E+02  0.00000000000E+00 0.  1.
        -11   -1    0    0    0    0 -0.00000000000E+00 -0.00000000000E+00 -0.30000000000E+02  0.30000000000E+02  0.00000000000E+00 0. -1.
          5    1    1    2  501    0 -0.28807448385E+02  0.49299614126E+01 -0.48720014377E+01  0.30000000000E+02  0.47000000000E+01 0. -1.
         -5    1    1    2    0  501  0.28807448385E+02 -0.49299614126E+01  0.48720014377E+01  0.30000000000E+02  0.47000000000E+01 0.  1.
</event>
<event>
 4    1  0.7580225E-002  0.6000000E+02  0.7546771E-02  0.1259629E+00
         11   -1    0    0    0    0  0.00000000000E+00  0.00000000000E+00  0.30000000000E+02  0.30000000000E+02  0.00000000000E+00 0. -1.
        -11   -1    0    0    0    0 -0.00000000000E+00 -0.00000000000E+00 -0.30000000000E+02  0.30000000000E+02  0.00000000000E+00 0.  1.
          5    1    1    2  501    0  0.14643949357E+02  0.23288682908E+02  0.11004635189E+02  0.30000000000E+02  0.47000000000E+01 0. -1.
         -5    1    1    2    0  501 -0.14643949357E+02 -0.23288682908E+02 -0.11004635189E+02  0.30000000000E+02  0.47000000000E+01 0.  1.
</event>
<event>
 4    1  0.7580225E-002  0.6000000E+02  0.7546771E-02  0.1259629E+00
         11   -1    0    0    0    0  0.00000000000E+00  0.00000000000E+00  0.30000000000E+02  0.30000000000E+02  0.00000000000E+00 0. -1.
        -11   -1    0    0    0    0 -0.00000000000E+00 -0.00000000000E+00 -0.30000000000E+02  0.30000000000E+02  0.00000000000E+00 0.  1.
          5    1    1    2  501    0  0.18524006837E+02 -0.19613918662E+02 -0.12250116956E+02  0.30000000000E+02  0.47000000000E+01 0.  1.
         -5    1    1    2    0  501 -0.18524006837E+02  0.19613918662E+02  0.12250116956E+02  0.30000000000E+02  0.47000000000E+01 0. -1.
</event>
<event>
 4    1  0.7580225E-002  0.6000000E+02  0.7546771E-02  0.1259629E+00
         11   -1    0    0    0    0  0.00000000000E+00  0.00000000000E+00  0.30000000000E+02  0.30000000000E+02  0.00000000000E+00 0.  1.
        -11   -1    0    0    0    0 -0.00000000000E+00 -0.00000000000E+00 -0.30000000000E+02  0.30000000000E+02  0.00000000000E+00 0. -1.
          5    1    1    2  501    0  0.27560497687E+02  0.44690274824E+01  0.99174976988E+01  0.30000000000E+02  0.47000000000E+01 0.  1.
         -5    1    1    2    0  501 -0.27560497687E+02 -0.44690274824E+01 -0.99174976988E+01  0.30000000000E+02  0.47000000000E+01 0. -1.
</event>
<event>
 4    1  0.7580225E-002  0.6000000E+02  0.7546771E-02  0.1259629E+00
         11   -1    0    0    0    0  0.00000000000E+00  0.00000000000E+00  0.30000000000E+02  0.30000000000E+02  0.00000000000E+00 0.  1.
        -11   -1    0    0    0    0 -0.00000000000E+00 -0.00000000000E+00 -0.30000000000E+02  0.30000000000E+02  0.00000000000E+00 0. -1.
          5    1    1    2  501    0  0.13249417917E+02  0.19943733813E+02 -0.17453091602E+02  0.30000000000E+02  0.47000000000E+01 0. -1.
         -5    1    1    2    0  501 -0.13249417917E+02 -0.19943733813E+02  0.17453091602E+02  0.30000000000E+02  0.47000000000E+01 0.  1.
</event>
<event>
 4    1  0.7580225E-002  0.6000000E+02  0.7546771E-02  0.1259629E+00
         11   -1    0    0    0    0  0.00000000000E+00  0.00000000000E+00  0.30000000000E+02  0.30000000000E+02  0.00000000000E+00 0.  1.
        -11   -1    0    0    0    0 -0.00000000000E+00 -0.00000000000E+00 -0.30000000000E+02  0.30000000000E+02  0.00000000000E+00 0. -1.
          5    1    1    2  501    0  0.25901721746E+02 -0.14364773833E+02 -0.81491307311E+00  0.30000000000E+02  0.47000000000E+01 0. -1.
         -5    1    1    2    0  501 -0.25901721746E+02  0.14364773833E+02  0.81491307311E+00  0.30000000000E+02  0.47000000000E+01 0.  1.
</event>
<event>
 4    1  0.7580225E-002  0.6000000E+02  0.7546771E-02  0.1259629E+00
         11   -1    0    0    0    0  0.00000000000E+00  0.00000000000E+00  0.30000000000E+02  0.30000000000E+02  0.00000000000E+00 0.  1.
        -11   -1    0    0    0    0 -0.00000000000E+00 -0.00000000000E+00 -0.30000000000E+02  0.30000000000E+02  0.00000000000E+00 0. -1.
          5    1    1    2  501    0  0.25393050920E+01  0.21531783456E+02 -0.20195153647E+02  0.30000000000E+02  0.47000000000E+01 0. -1.
         -5    1    1    2    0  501 -0.25393050920E+01 -0.21531783456E+02  0.20195153647E+02  0.30000000000E+02  0.47000000000E+01 0.  1.
</event>
<event>
 4    1  0.7580225E-002  0.6000000E+02  0.7546771E-02  0.1259629E+00
         11   -1    0    0    0    0  0.00000000000E+00  0.00000000000E+00  0.30000000000E+02  0.30000000000E+02  0.00000000000E+00 0.  1.
        -11   -1    0    0    0    0 -0.00000000000E+00 -0.00000000000E+00 -0.30000000000E+02  0.30000000000E+02  0.00000000000E+00 0. -1.
          5    1    1    2  501    0 -0.29033339855E+02  0.30305299231E+01  0.50784904497E+01  0.30000000000E+02  0.47000000000E+01 0. -1.
         -5    1    1    2    0  501  0.29033339855E+02 -0.30305299231E+01 -0.50784904497E+01  0.30000000000E+02  0.47000000000E+01 0.  1.
</event>
<event>
 4    1  0.7580225E-002  0.6000000E+02  0.7546771E-02  0.1259629E+00
         11   -1    0    0    0    0  0.00000000000E+00  0.00000000000E+00  0.30000000000E+02  0.30000000000E+02  0.00000000000E+00 0.  1.
        -11   -1    0    0    0    0 -0.00000000000E+00 -0.00000000000E+00 -0.30000000000E+02  0.30000000000E+02  0.00000000000E+00 0. -1.
          5    1    1    2  501    0  0.27633367910E+02  0.10272399761E+02 -0.29639131389E+01  0.30000000000E+02  0.47000000000E+01 0. -1.
         -5    1    1    2    0  501 -0.27633367910E+02 -0.10272399761E+02  0.29639131389E+01  0.30000000000E+02  0.47000000000E+01 0.  1.
</event>
<event>
 4    1  0.7580225E-002  0.6000000E+02  0.7546771E-02  0.1259629E+00
         11   -1    0    0    0    0  0.00000000000E+00  0.00000000000E+00  0.30000000000E+02  0.30000000000E+02  0.00000000000E+00 0.  1.
        -11   -1    0    0    0    0 -0.00000000000E+00 -0.00000000000E+00 -0.30000000000E+02  0.30000000000E+02  0.00000000000E+00 0. -1.
          5    1    1    2  501    0 -0.10979556377E+02 -0.23762662074E+02  0.13881470849E+02  0.30000000000E+02  0.47000000000E+01 0. -1.
         -5    1    1    2    0  501  0.10979556377E+02  0.23762662074E+02 -0.13881470849E+02  0.30000000000E+02  0.47000000000E+01 0.  1.
</event>
<event>
 4    1  0.7580225E-002  0.6000000E+02  0.7546771E-02  0.1259629E+00
         11   -1    0    0    0    0  0.00000000000E+00  0.00000000000E+00  0.30000000000E+02  0.30000000000E+02  0.00000000000E+00 0.  1.
        -11   -1    0    0    0    0 -0.00000000000E+00 -0.00000000000E+00 -0.30000000000E+02  0.30000000000E+02  0.00000000000E+00 0. -1.
          5    1    1    2  501    0 -0.49745259930E+01 -0.23563820199E+02 -0.17260083104E+02  0.30000000000E+02  0.47000000000E+01 0. -1.
         -5    1    1    2    0  501  0.49745259930E+01  0.23563820199E+02  0.17260083104E+02  0.30000000000E+02  0.47000000000E+01 0.  1.
</event>
<event>
 4    1  0.7580225E-002  0.6000000E+02  0.7546771E-02  0.1259629E+00
         11   -1    0    0    0    0  0.00000000000E+00  0.00000000000E+00  0.30000000000E+02  0.30000000000E+02  0.00000000000E+00 0.  1.
        -11   -1    0    0    0    0 -0.00000000000E+00 -0.00000000000E+00 -0.30000000000E+02  0.30000000000E+02  0.00000000000E+00 0. -1.
          5    1    1    2  501    0  0.25038938372E+02  0.13607679319E+02  0.81112655466E+01  0.30000000000E+02  0.47000000000E+01 0. -1.
         -5    1    1    2    0  501 -0.25038938372E+02 -0.13607679319E+02 -0.81112655466E+01  0.30000000000E+02  0.47000000000E+01 0.  1.
</event>
<event>
 4    1  0.7580225E-002  0.6000000E+02  0.7546771E-02  0.1259629E+00
         11   -1    0    0    0    0  0.00000000000E+00  0.00000000000E+00  0.30000000000E+02  0.30000000000E+02  0.00000000000E+00 0.  1.
        -11   -1    0    0    0    0 -0.00000000000E+00 -0.00000000000E+00 -0.30000000000E+02  0.30000000000E+02  0.00000000000E+00 0. -1.
          5    1    1    2  501    0 -0.92174635220E+01 -0.23159457772E+02 -0.16018360776E+02  0.30000000000E+02  0.47000000000E+01 0. -1.
         -5    1    1    2    0  501  0.92174635220E+01  0.23159457772E+02  0.16018360776E+02  0.30000000000E+02  0.47000000000E+01 0.  1.
</event>
<event>
 4    1  0.7580225E-002  0.6000000E+02  0.7546771E-02  0.1259629E+00
         11   -1    0    0    0    0  0.00000000000E+00  0.00000000000E+00  0.30000000000E+02  0.30000000000E+02  0.00000000000E+00 0. -1.
        -11   -1    0    0    0    0 -0.00000000000E+00 -0.00000000000E+00 -0.30000000000E+02  0.30000000000E+02  0.00000000000E+00 0.  1.
          5    1    1    2  501    0  0.48382446146E+00 -0.90104005319E+01 -0.28222129547E+02  0.30000000000E+02  0.47000000000E+01 0.  1.
         -5    1    1    2    0  501 -0.48382446146E+00  0.90104005319E+01  0.28222129547E+02  0.30000000000E+02  0.47000000000E+01 0. -1.
</event>
<event>
 4    1  0.7580225E-002  0.6000000E+02  0.7546771E-02  0.1259629E+00
         11   -1    0    0    0    0  0.00000000000E+00  0.00000000000E+00  0.30000000000E+02  0.30000000000E+02  0.00000000000E+00 0.  1.
        -11   -1    0    0    0    0 -0.00000000000E+00 -0.00000000000E+00 -0.30000000000E+02  0.30000000000E+02  0.00000000000E+00 0. -1.
          5    1    1    2  501    0 -0.20376582055E+02  0.15796659165E+02 -0.14600358316E+02  0.30000000000E+02  0.47000000000E+01 0. -1.
         -5    1    1    2    0  501  0.20376582055E+02 -0.15796659165E+02  0.14600358316E+02  0.30000000000E+02  0.47000000000E+01 0.  1.
</event>
<event>
 4    1  0.7580225E-002  0.6000000E+02  0.7546771E-02  0.1259629E+00
         11   -1    0    0    0    0  0.00000000000E+00  0.00000000000E+00  0.30000000000E+02  0.30000000000E+02  0.00000000000E+00 0.  1.
        -11   -1    0    0    0    0 -0.00000000000E+00 -0.00000000000E+00 -0.30000000000E+02  0.30000000000E+02  0.00000000000E+00 0. -1.
          5    1    1    2  501    0 -0.59523719080E+01  0.12318939181E+01 -0.28999339752E+02  0.30000000000E+02  0.47000000000E+01 0. -1.
         -5    1    1    2    0  501  0.59523719080E+01 -0.12318939181E+01  0.28999339752E+02  0.30000000000E+02  0.47000000000E+01 0.  1.
</event>
<event>
 4    1  0.7580225E-002  0.6000000E+02  0.7546771E-02  0.1259629E+00
         11   -1    0    0    0    0  0.00000000000E+00  0.00000000000E+00  0.30000000000E+02  0.30000000000E+02  0.00000000000E+00 0.  1.
        -11   -1    0    0    0    0 -0.00000000000E+00 -0.00000000000E+00 -0.30000000000E+02  0.30000000000E+02  0.00000000000E+00 0. -1.
          5    1    1    2  501    0  0.90418643504E+01 -0.27715314881E+02  0.52930152179E+01  0.30000000000E+02  0.47000000000E+01 0. -1.
         -5    1    1    2    0  501 -0.90418643504E+01  0.27715314881E+02 -0.52930152179E+01  0.30000000000E+02  0.47000000000E+01 0.  1.
</event>
<event>
 4    1  0.7580225E-002  0.6000000E+02  0.7546771E-02  0.1259629E+00
         11   -1    0    0    0    0  0.00000000000E+00  0.00000000000E+00  0.30000000000E+02  0.30000000000E+02  0.00000000000E+00 0.  1.
        -11   -1    0    0    0    0 -0.00000000000E+00 -0.00000000000E+00 -0.30000000000E+02  0.30000000000E+02  0.00000000000E+00 0. -1.
          5    1    1    2  501    0  0.43167864100E+01 -0.10917994812E+02 -0.27204278053E+02  0.30000000000E+02  0.47000000000E+01 0. -1.
         -5    1    1    2    0  501 -0.43167864100E+01  0.10917994812E+02  0.27204278053E+02  0.30000000000E+02  0.47000000000E+01 0.  1.
</event>
<event>
 4    1  0.7580225E-002  0.6000000E+02  0.7546771E-02  0.1259629E+00
         11   -1    0    0    0    0  0.00000000000E+00  0.00000000000E+00  0.30000000000E+02  0.30000000000E+02  0.00000000000E+00 0.  1.
        -11   -1    0    0    0    0 -0.00000000000E+00 -0.00000000000E+00 -0.30000000000E+02  0.30000000000E+02  0.00000000000E+00 0. -1.
          5    1    1    2  501    0  0.26139221848E+02 -0.28318254605E+01 -0.13661326647E+02  0.30000000000E+02  0.47000000000E+01 0. -1.
         -5    1    1    2    0  501 -0.26139221848E+02  0.28318254605E+01  0.13661326647E+02  0.30000000000E+02  0.47000000000E+01 0.  1.
</event>
<event>
 4    1  0.7580225E-002  0.6000000E+02  0.7546771E-02  0.1259629E+00
         11   -1    0    0    0    0  0.00000000000E+00  0.00000000000E+00  0.30000000000E+02  0.30000000000E+02  0.00000000000E+00 0.  1.
        -11   -1    0    0    0    0 -0.00000000000E+00 -0.00000000000E+00 -0.30000000000E+02  0.30000000000E+02  0.00000000000E+00 0. -1.
          5    1    1    2  501    0 -0.10962792115E+02  0.27451966903E+02  0.20289657927E+01  0.30000000000E+02  0.47000000000E+01 0.  1.
         -5    1    1    2    0  501  0.10962792115E+02 -0.27451966903E+02 -0.20289657927E+01  0.30000000000E+02  0.47000000000E+01 0. -1.
</event>
<event>
 4    1  0.7580225E-002  0.6000000E+02  0.7546771E-02  0.1259629E+00
         11   -1    0    0    0    0  0.00000000000E+00  0.00000000000E+00  0.30000000000E+02  0.30000000000E+02  0.00000000000E+00 0.  1.
        -11   -1    0    0    0    0 -0.00000000000E+00 -0.00000000000E+00 -0.30000000000E+02  0.30000000000E+02  0.00000000000E+00 0. -1.
          5    1    1    2  501    0 -0.29566123568E+02  0.17271523766E+01  0.87822652217E+00  0.30000000000E+02  0.47000000000E+01 0. -1.
         -5    1    1    2    0  501  0.29566123568E+02 -0.17271523766E+01 -0.87822652217E+00  0.30000000000E+02  0.47000000000E+01 0.  1.
</event>
<event>
 4    1  0.7580225E-002  0.6000000E+02  0.7546771E-02  0.1259629E+00
         11   -1    0    0    0    0  0.00000000000E+00  0.00000000000E+00  0.30000000000E+02  0.30000000000E+02  0.00000000000E+00 0.  1.
        -11   -1    0    0    0    0 -0.00000000000E+00 -0.00000000000E+00 -0.30000000000E+02  0.30000000000E+02  0.00000000000E+00 0. -1.
          5    1    1    2  501    0  0.14436392352E+02  0.19070878602E+02 -0.17487200039E+02  0.30000000000E+02  0.47000000000E+01 0. -1.
         -5    1    1    2    0  501 -0.14436392352E+02 -0.19070878602E+02  0.17487200039E+02  0.30000000000E+02  0.47000000000E+01 0.  1.
</event>
<event>
 4    1  0.7580225E-002  0.6000000E+02  0.7546771E-02  0.1259629E+00
         11   -1    0    0    0    0  0.00000000000E+00  0.00000000000E+00  0.30000000000E+02  0.30000000000E+02  0.00000000000E+00 0.  1.
        -11   -1    0    0    0    0 -0.00000000000E+00 -0.00000000000E+00 -0.30000000000E+02  0.30000000000E+02  0.00000000000E+00 0. -1.
          5    1    1    2  501    0 -0.13469825979E+02  0.23981510072E+02 -0.11016395180E+02  0.30000000000E+02  0.47000000000E+01 0. -1.
         -5    1    1    2    0  501  0.13469825979E+02 -0.23981510072E+02  0.11016395180E+02  0.30000000000E+02  0.47000000000E+01 0.  1.
</event>
<event>
 4    1  0.7580225E-002  0.6000000E+02  0.7546771E-02  0.1259629E+00
         11   -1    0    0    0    0  0.00000000000E+00  0.00000000000E+00  0.30000000000E+02  0.30000000000E+02  0.00000000000E+00 0.  1.
        -11   -1    0    0    0    0 -0.00000000000E+00 -0.00000000000E+00 -0.30000000000E+02  0.30000000000E+02  0.00000000000E+00 0. -1.
          5    1    1    2  501    0 -0.83725833379E+01  0.54649870904E+01 -0.27891643271E+02  0.30000000000E+02  0.47000000000E+01 0. -1.
         -5    1    1    2    0  501  0.83725833379E+01 -0.54649870904E+01  0.27891643271E+02  0.30000000000E+02  0.47000000000E+01 0.  1.
</event>
<event>
 4    1  0.7580225E-002  0.6000000E+02  0.7546771E-02  0.1259629E+00
         11   -1    0    0    0    0  0.00000000000E+00  0.00000000000E+00  0.30000000000E+02  0.30000000000E+02  0.00000000000E+00 0.  1.
        -11   -1    0    0    0    0 -0.00000000000E+00 -0.00000000000E+00 -0.30000000000E+02  0.30000000000E+02  0.00000000000E+00 0. -1.
          5    1    1    2  501    0 -0.23565592712E+02  0.33034603712E+01 -0.17653894464E+02  0.30000000000E+02  0.47000000000E+01 0. -1.
         -5    1    1    2    0  501  0.23565592712E+02 -0.33034603712E+01  0.17653894464E+02  0.30000000000E+02  0.47000000000E+01 0.  1.
</event>
<event>
 4    1  0.7580225E-002  0.6000000E+02  0.7546771E-02  0.1259629E+00
         11   -1    0    0    0    0  0.00000000000E+00  0.00000000000E+00  0.30000000000E+02  0.30000000000E+02  0.00000000000E+00 0.  1.
        -11   -1    0    0    0    0 -0.00000000000E+00 -0.00000000000E+00 -0.30000000000E+02  0.30000000000E+02  0.00000000000E+00 0. -1.
          5    1    1    2  501    0 -0.13332687913E+02  0.21677386003E+02 -0.15173673553E+02  0.30000000000E+02  0.47000000000E+01 0. -1.
         -5    1    1    2    0  501  0.13332687913E+02 -0.21677386003E+02  0.15173673553E+02  0.30000000000E+02  0.47000000000E+01 0.  1.
</event>
<event>
 4    1  0.7580225E-002  0.6000000E+02  0.7546771E-02  0.1259629E+00
         11   -1    0    0    0    0  0.00000000000E+00  0.00000000000E+00  0.30000000000E+02  0.30000000000E+02  0.00000000000E+00 0.  1.
        -11   -1    0    0    0    0 -0.00000000000E+00 -0.00000000000E+00 -0.30000000000E+02  0.30000000000E+02  0.00000000000E+00 0. -1.
          5    1    1    2  501    0 -0.22898260981E+02  0.18796352355E+02 -0.52610093186E+00  0.30000000000E+02  0.47000000000E+01 0. -1.
         -5    1    1    2    0  501  0.22898260981E+02 -0.18796352355E+02  0.52610093186E+00  0.30000000000E+02  0.47000000000E+01 0.  1.
</event>
<event>
 4    1  0.7580225E-002  0.6000000E+02  0.7546771E-02  0.1259629E+00
         11   -1    0    0    0    0  0.00000000000E+00  0.00000000000E+00  0.30000000000E+02  0.30000000000E+02  0.00000000000E+00 0.  1.
        -11   -1    0    0    0    0 -0.00000000000E+00 -0.00000000000E+00 -0.30000000000E+02  0.30000000000E+02  0.00000000000E+00 0. -1.
          5    1    1    2  501    0 -0.15671461143E+02 -0.21860071599E+02  0.12427895049E+02  0.30000000000E+02  0.47000000000E+01 0.  1.
         -5    1    1    2    0  501  0.15671461143E+02  0.21860071599E+02 -0.12427895049E+02  0.30000000000E+02  0.47000000000E+01 0. -1.
</event>
<event>
 4    1  0.7580225E-002  0.6000000E+02  0.7546771E-02  0.1259629E+00
         11   -1    0    0    0    0  0.00000000000E+00  0.00000000000E+00  0.30000000000E+02  0.30000000000E+02  0.00000000000E+00 0. -1.
        -11   -1    0    0    0    0 -0.00000000000E+00 -0.00000000000E+00 -0.30000000000E+02  0.30000000000E+02  0.00000000000E+00 0.  1.
          5    1    1    2  501    0  0.98681663682E+01 -0.27241379047E+02 -0.61997225879E+01  0.30000000000E+02  0.47000000000E+01 0.  1.
         -5    1    1    2    0  501 -0.98681663682E+01  0.27241379047E+02  0.61997225879E+01  0.30000000000E+02  0.47000000000E+01 0. -1.
</event>
<event>
 4    1  0.7580225E-002  0.6000000E+02  0.7546771E-02  0.1259629E+00
         11   -1    0    0    0    0  0.00000000000E+00  0.00000000000E+00  0.30000000000E+02  0.30000000000E+02  0.00000000000E+00 0.  1.
        -11   -1    0    0    0    0 -0.00000000000E+00 -0.00000000000E+00 -0.30000000000E+02  0.30000000000E+02  0.00000000000E+00 0. -1.
          5    1    1    2  501    0 -0.19929136529E+02 -0.10106848094E+02 -0.19457418606E+02  0.30000000000E+02  0.47000000000E+01 0. -1.
         -5    1    1    2    0  501  0.19929136529E+02  0.10106848094E+02  0.19457418606E+02  0.30000000000E+02  0.47000000000E+01 0.  1.
</event>
<event>
 4    1  0.7580225E-002  0.6000000E+02  0.7546771E-02  0.1259629E+00
         11   -1    0    0    0    0  0.00000000000E+00  0.00000000000E+00  0.30000000000E+02  0.30000000000E+02  0.00000000000E+00 0.  1.
        -11   -1    0    0    0    0 -0.00000000000E+00 -0.00000000000E+00 -0.30000000000E+02  0.30000000000E+02  0.00000000000E+00 0. -1.
          5    1    1    2  501    0  0.18102126974E+02 -0.17325139609E+01 -0.23392763718E+02  0.30000000000E+02  0.47000000000E+01 0. -1.
         -5    1    1    2    0  501 -0.18102126974E+02  0.17325139609E+01  0.23392763718E+02  0.30000000000E+02  0.47000000000E+01 0.  1.
</event>
<event>
 4    1  0.7580225E-002  0.6000000E+02  0.7546771E-02  0.1259629E+00
         11   -1    0    0    0    0  0.00000000000E+00  0.00000000000E+00  0.30000000000E+02  0.30000000000E+02  0.00000000000E+00 0.  1.
        -11   -1    0    0    0    0 -0.00000000000E+00 -0.00000000000E+00 -0.30000000000E+02  0.30000000000E+02  0.00000000000E+00 0. -1.
          5    1    1    2  501    0  0.47451852792E+01  0.13609734702E+02 -0.25887609739E+02  0.30000000000E+02  0.47000000000E+01 0. -1.
         -5    1    1    2    0  501 -0.47451852792E+01 -0.13609734702E+02  0.25887609739E+02  0.30000000000E+02  0.47000000000E+01 0.  1.
</event>
<event>
 4    1  0.7580225E-002  0.6000000E+02  0.7546771E-02  0.1259629E+00
         11   -1    0    0    0    0  0.00000000000E+00  0.00000000000E+00  0.30000000000E+02  0.30000000000E+02  0.00000000000E+00 0.  1.
        -11   -1    0    0    0    0 -0.00000000000E+00 -0.00000000000E+00 -0.30000000000E+02  0.30000000000E+02  0.00000000000E+00 0. -1.
          5    1    1    2  501    0  0.22903268846E+02 -0.94368982323E+01 -0.16257159282E+02  0.30000000000E+02  0.47000000000E+01 0. -1.
         -5    1    1    2    0  501 -0.22903268846E+02  0.94368982323E+01  0.16257159282E+02  0.30000000000E+02  0.47000000000E+01 0.  1.
</event>
<event>
 4    1  0.7580225E-002  0.6000000E+02  0.7546771E-02  0.1259629E+00
         11   -1    0    0    0    0  0.00000000000E+00  0.00000000000E+00  0.30000000000E+02  0.30000000000E+02  0.00000000000E+00 0.  1.
        -11   -1    0    0    0    0 -0.00000000000E+00 -0.00000000000E+00 -0.30000000000E+02  0.30000000000E+02  0.00000000000E+00 0. -1.
          5    1    1    2  501    0 -0.17662538500E+02  0.17941356438E+00 -0.23788916422E+02  0.30000000000E+02  0.47000000000E+01 0. -1.
         -5    1    1    2    0  501  0.17662538500E+02 -0.17941356438E+00  0.23788916422E+02  0.30000000000E+02  0.47000000000E+01 0.  1.
</event>
<event>
 4    1  0.7580225E-002  0.6000000E+02  0.7546771E-02  0.1259629E+00
         11   -1    0    0    0    0  0.00000000000E+00  0.00000000000E+00  0.30000000000E+02  0.30000000000E+02  0.00000000000E+00 0.  1.
        -11   -1    0    0    0    0 -0.00000000000E+00 -0.00000000000E+00 -0.30000000000E+02  0.30000000000E+02  0.00000000000E+00 0. -1.
          5    1    1    2  501    0 -0.89378957233E+01 -0.26478426622E+02  0.98446403516E+01  0.30000000000E+02  0.47000000000E+01 0. -1.
         -5    1    1    2    0  501  0.89378957233E+01  0.26478426622E+02 -0.98446403516E+01  0.30000000000E+02  0.47000000000E+01 0.  1.
</event>
<event>
 4    1  0.7580225E-002  0.6000000E+02  0.7546771E-02  0.1259629E+00
         11   -1    0    0    0    0  0.00000000000E+00  0.00000000000E+00  0.30000000000E+02  0.30000000000E+02  0.00000000000E+00 0. -1.
        -11   -1    0    0    0    0 -0.00000000000E+00 -0.00000000000E+00 -0.30000000000E+02  0.30000000000E+02  0.00000000000E+00 0.  1.
          5    1    1    2  501    0  0.21756219692E+02 -0.20059998148E+02  0.14742384545E+01  0.30000000000E+02  0.47000000000E+01 0.  1.
         -5    1    1    2    0  501 -0.21756219692E+02  0.20059998148E+02 -0.14742384545E+01  0.30000000000E+02  0.47000000000E+01 0. -1.
</event>
<event>
 4    1  0.7580225E-002  0.6000000E+02  0.7546771E-02  0.1259629E+00
         11   -1    0    0    0    0  0.00000000000E+00  0.00000000000E+00  0.30000000000E+02  0.30000000000E+02  0.00000000000E+00 0.  1.
        -11   -1    0    0    0    0 -0.00000000000E+00 -0.00000000000E+00 -0.30000000000E+02  0.30000000000E+02  0.00000000000E+00 0. -1.
          5    1    1    2  501    0  0.87690090180E+01  0.14347844133E+01 -0.28265807516E+02  0.30000000000E+02  0.47000000000E+01 0. -1.
         -5    1    1    2    0  501 -0.87690090180E+01 -0.14347844133E+01  0.28265807516E+02  0.30000000000E+02  0.47000000000E+01 0.  1.
</event>
<event>
 4    1  0.7580225E-002  0.6000000E+02  0.7546771E-02  0.1259629E+00
         11   -1    0    0    0    0  0.00000000000E+00  0.00000000000E+00  0.30000000000E+02  0.30000000000E+02  0.00000000000E+00 0.  1.
        -11   -1    0    0    0    0 -0.00000000000E+00 -0.00000000000E+00 -0.30000000000E+02  0.30000000000E+02  0.00000000000E+00 0. -1.
          5    1    1    2  501    0  0.16323719664E+02  0.24694127653E+02 -0.12830571986E+01  0.30000000000E+02  0.47000000000E+01 0. -1.
         -5    1    1    2    0  501 -0.16323719664E+02 -0.24694127653E+02  0.12830571986E+01  0.30000000000E+02  0.47000000000E+01 0.  1.
</event>
<event>
 4    1  0.7580225E-002  0.6000000E+02  0.7546771E-02  0.1259629E+00
         11   -1    0    0    0    0  0.00000000000E+00  0.00000000000E+00  0.30000000000E+02  0.30000000000E+02  0.00000000000E+00 0.  1.
        -11   -1    0    0    0    0 -0.00000000000E+00 -0.00000000000E+00 -0.30000000000E+02  0.30000000000E+02  0.00000000000E+00 0. -1.
          5    1    1    2  501    0 -0.22881754637E+02  0.78684498022E+01 -0.17100374337E+02  0.30000000000E+02  0.47000000000E+01 0. -1.
         -5    1    1    2    0  501  0.22881754637E+02 -0.78684498022E+01  0.17100374337E+02  0.30000000000E+02  0.47000000000E+01 0.  1.
</event>
<event>
 4    1  0.7580225E-002  0.6000000E+02  0.7546771E-02  0.1259629E+00
         11   -1    0    0    0    0  0.00000000000E+00  0.00000000000E+00  0.30000000000E+02  0.30000000000E+02  0.00000000000E+00 0.  1.
        -11   -1    0    0    0    0 -0.00000000000E+00 -0.00000000000E+00 -0.30000000000E+02  0.30000000000E+02  0.00000000000E+00 0. -1.
          5    1    1    2  501    0 -0.19750881413E+02 -0.11754307005E+01 -0.22055181842E+02  0.30000000000E+02  0.47000000000E+01 0. -1.
         -5    1    1    2    0  501  0.19750881413E+02  0.11754307005E+01  0.22055181842E+02  0.30000000000E+02  0.47000000000E+01 0. -1.
</event>
<event>
 4    1  0.7580225E-002  0.6000000E+02  0.7546771E-02  0.1259629E+00
         11   -1    0    0    0    0  0.00000000000E+00  0.00000000000E+00  0.30000000000E+02  0.30000000000E+02  0.00000000000E+00 0.  1.
        -11   -1    0    0    0    0 -0.00000000000E+00 -0.00000000000E+00 -0.30000000000E+02  0.30000000000E+02  0.00000000000E+00 0. -1.
          5    1    1    2  501    0  0.24791511103E+02  0.19303326441E+01 -0.16111014652E+02  0.30000000000E+02  0.47000000000E+01 0. -1.
         -5    1    1    2    0  501 -0.24791511103E+02 -0.19303326441E+01  0.16111014652E+02  0.30000000000E+02  0.47000000000E+01 0.  1.
</event>
<event>
 4    1  0.7580225E-002  0.6000000E+02  0.7546771E-02  0.1259629E+00
         11   -1    0    0    0    0  0.00000000000E+00  0.00000000000E+00  0.30000000000E+02  0.30000000000E+02  0.00000000000E+00 0.  1.
        -11   -1    0    0    0    0 -0.00000000000E+00 -0.00000000000E+00 -0.30000000000E+02  0.30000000000E+02  0.00000000000E+00 0. -1.
          5    1    1    2  501    0  0.80601486125E+01 -0.27003344069E+02 -0.91522354346E+01  0.30000000000E+02  0.47000000000E+01 0. -1.
         -5    1    1    2    0  501 -0.80601486125E+01  0.27003344069E+02  0.91522354346E+01  0.30000000000E+02  0.47000000000E+01 0.  1.
</event>
<event>
 4    1  0.7580225E-002  0.6000000E+02  0.7546771E-02  0.1259629E+00
         11   -1    0    0    0    0  0.00000000000E+00  0.00000000000E+00  0.30000000000E+02  0.30000000000E+02  0.00000000000E+00 0.  1.
        -11   -1    0    0    0    0 -0.00000000000E+00 -0.00000000000E+00 -0.30000000000E+02  0.30000000000E+02  0.00000000000E+00 0. -1.
          5    1    1    2  501    0  0.14064993227E+02  0.25986352718E+02  0.21898488398E+01  0.30000000000E+02  0.47000000000E+01 0. -1.
         -5    1    1    2    0  501 -0.14064993227E+02 -0.25986352718E+02 -0.21898488398E+01  0.30000000000E+02  0.47000000000E+01 0.  1.
</event>
<event>
 4    1  0.7580225E-002  0.6000000E+02  0.7546771E-02  0.1259629E+00
         11   -1    0    0    0    0  0.00000000000E+00  0.00000000000E+00  0.30000000000E+02  0.30000000000E+02  0.00000000000E+00 0.  1.
        -11   -1    0    0    0    0 -0.00000000000E+00 -0.00000000000E+00 -0.30000000000E+02  0.30000000000E+02  0.00000000000E+00 0. -1.
          5    1    1    2  501    0  0.25818660032E+02 -0.84124270957E+01  0.11854866701E+02  0.30000000000E+02  0.47000000000E+01 0.  1.
         -5    1    1    2    0  501 -0.25818660032E+02  0.84124270957E+01 -0.11854866701E+02  0.30000000000E+02  0.47000000000E+01 0. -1.
</event>
<event>
 4    1  0.7580225E-002  0.6000000E+02  0.7546771E-02  0.1259629E+00
         11   -1    0    0    0    0  0.00000000000E+00  0.00000000000E+00  0.30000000000E+02  0.30000000000E+02  0.00000000000E+00 0.  1.
        -11   -1    0    0    0    0 -0.00000000000E+00 -0.00000000000E+00 -0.30000000000E+02  0.30000000000E+02  0.00000000000E+00 0. -1.
          5    1    1    2  501    0 -0.11115047568E+02 -0.14195752790E+02 -0.23512684243E+02  0.30000000000E+02  0.47000000000E+01 0. -1.
         -5    1    1    2    0  501  0.11115047568E+02  0.14195752790E+02  0.23512684243E+02  0.30000000000E+02  0.47000000000E+01 0.  1.
</event>
<event>
 4    1  0.7580225E-002  0.6000000E+02  0.7546771E-02  0.1259629E+00
         11   -1    0    0    0    0  0.00000000000E+00  0.00000000000E+00  0.30000000000E+02  0.30000000000E+02  0.00000000000E+00 0.  1.
        -11   -1    0    0    0    0 -0.00000000000E+00 -0.00000000000E+00 -0.30000000000E+02  0.30000000000E+02  0.00000000000E+00 0. -1.
          5    1    1    2  501    0 -0.43455689000E+01  0.28025676415E+01 -0.29174846110E+02  0.30000000000E+02  0.47000000000E+01 0. -1.
         -5    1    1    2    0  501  0.43455689000E+01 -0.28025676415E+01  0.29174846110E+02  0.30000000000E+02  0.47000000000E+01 0.  1.
</event>
<event>
 4    1  0.7580225E-002  0.6000000E+02  0.7546771E-02  0.1259629E+00
         11   -1    0    0    0    0  0.00000000000E+00  0.00000000000E+00  0.30000000000E+02  0.30000000000E+02  0.00000000000E+00 0.  1.
        -11   -1    0    0    0    0 -0.00000000000E+00 -0.00000000000E+00 -0.30000000000E+02  0.30000000000E+02  0.00000000000E+00 0. -1.
          5    1    1    2  501    0 -0.14594679860E+01  0.24257800995E+02 -0.16951077962E+02  0.30000000000E+02  0.47000000000E+01 0. -1.
         -5    1    1    2    0  501  0.14594679860E+01 -0.24257800995E+02  0.16951077962E+02  0.30000000000E+02  0.47000000000E+01 0.  1.
</event>
<event>
 4    1  0.7580225E-002  0.6000000E+02  0.7546771E-02  0.1259629E+00
         11   -1    0    0    0    0  0.00000000000E+00  0.00000000000E+00  0.30000000000E+02  0.30000000000E+02  0.00000000000E+00 0.  1.
        -11   -1    0    0    0    0 -0.00000000000E+00 -0.00000000000E+00 -0.30000000000E+02  0.30000000000E+02  0.00000000000E+00 0. -1.
          5    1    1    2  501    0  0.25025705774E+02 -0.53846982898E+01  0.14920759861E+02  0.30000000000E+02  0.47000000000E+01 0.  1.
         -5    1    1    2    0  501 -0.25025705774E+02  0.53846982898E+01 -0.14920759861E+02  0.30000000000E+02  0.47000000000E+01 0. -1.
</event>
<event>
 4    1  0.7580225E-002  0.6000000E+02  0.7546771E-02  0.1259629E+00
         11   -1    0    0    0    0  0.00000000000E+00  0.00000000000E+00  0.30000000000E+02  0.30000000000E+02  0.00000000000E+00 0.  1.
        -11   -1    0    0    0    0 -0.00000000000E+00 -0.00000000000E+00 -0.30000000000E+02  0.30000000000E+02  0.00000000000E+00 0. -1.
          5    1    1    2  501    0  0.10455823861E+02  0.22069172004E+02 -0.16779076091E+02  0.30000000000E+02  0.47000000000E+01 0. -1.
         -5    1    1    2    0  501 -0.10455823861E+02 -0.22069172004E+02  0.16779076091E+02  0.30000000000E+02  0.47000000000E+01 0.  1.
</event>
<event>
 4    1  0.7580225E-002  0.6000000E+02  0.7546771E-02  0.1259629E+00
         11   -1    0    0    0    0  0.00000000000E+00  0.00000000000E+00  0.30000000000E+02  0.30000000000E+02  0.00000000000E+00 0.  1.
        -11   -1    0    0    0    0 -0.00000000000E+00 -0.00000000000E+00 -0.30000000000E+02  0.30000000000E+02  0.00000000000E+00 0. -1.
          5    1    1    2  501    0 -0.76759156924E+00 -0.10341446378E+01 -0.29601543001E+02  0.30000000000E+02  0.47000000000E+01 0. -1.
         -5    1    1    2    0  501  0.76759156924E+00  0.10341446378E+01  0.29601543001E+02  0.30000000000E+02  0.47000000000E+01 0.  1.
</event>
<event>
 4    1  0.7580225E-002  0.6000000E+02  0.7546771E-02  0.1259629E+00
         11   -1    0    0    0    0  0.00000000000E+00  0.00000000000E+00  0.30000000000E+02  0.30000000000E+02  0.00000000000E+00 0.  1.
        -11   -1    0    0    0    0 -0.00000000000E+00 -0.00000000000E+00 -0.30000000000E+02  0.30000000000E+02  0.00000000000E+00 0. -1.
          5    1    1    2  501    0  0.28159419026E+02  0.63907285390E+01 -0.66419657373E+01  0.30000000000E+02  0.47000000000E+01 0. -1.
         -5    1    1    2    0  501 -0.28159419026E+02 -0.63907285390E+01  0.66419657373E+01  0.30000000000E+02  0.47000000000E+01 0.  1.
</event>
<event>
 4    1  0.7580225E-002  0.6000000E+02  0.7546771E-02  0.1259629E+00
         11   -1    0    0    0    0  0.00000000000E+00  0.00000000000E+00  0.30000000000E+02  0.30000000000E+02  0.00000000000E+00 0.  1.
        -11   -1    0    0    0    0 -0.00000000000E+00 -0.00000000000E+00 -0.30000000000E+02  0.30000000000E+02  0.00000000000E+00 0. -1.
          5    1    1    2  501    0  0.25739875980E+02 -0.27223912527E+01 -0.14420727111E+02  0.30000000000E+02  0.47000000000E+01 0. -1.
         -5    1    1    2    0  501 -0.25739875980E+02  0.27223912527E+01  0.14420727111E+02  0.30000000000E+02  0.47000000000E+01 0.  1.
</event>
<event>
 4    1  0.7580225E-002  0.6000000E+02  0.7546771E-02  0.1259629E+00
         11   -1    0    0    0    0  0.00000000000E+00  0.00000000000E+00  0.30000000000E+02  0.30000000000E+02  0.00000000000E+00 0.  1.
        -11   -1    0    0    0    0 -0.00000000000E+00 -0.00000000000E+00 -0.30000000000E+02  0.30000000000E+02  0.00000000000E+00 0. -1.
          5    1    1    2  501    0 -0.15759819573E+02  0.24932369174E+02 -0.28133706449E+01  0.30000000000E+02  0.47000000000E+01 0. -1.
         -5    1    1    2    0  501  0.15759819573E+02 -0.24932369174E+02  0.28133706449E+01  0.30000000000E+02  0.47000000000E+01 0.  1.
</event>
<event>
 4    1  0.7580225E-002  0.6000000E+02  0.7546771E-02  0.1259629E+00
         11   -1    0    0    0    0  0.00000000000E+00  0.00000000000E+00  0.30000000000E+02  0.30000000000E+02  0.00000000000E+00 0.  1.
        -11   -1    0    0    0    0 -0.00000000000E+00 -0.00000000000E+00 -0.30000000000E+02  0.30000000000E+02  0.00000000000E+00 0. -1.
          5    1    1    2  501    0  0.28208231306E+02  0.45308713453E+01  0.78534636595E+01  0.30000000000E+02  0.47000000000E+01 0. -1.
         -5    1    1    2    0  501 -0.28208231306E+02 -0.45308713453E+01 -0.78534636595E+01  0.30000000000E+02  0.47000000000E+01 0.  1.
</event>
<event>
 4    1  0.7580225E-002  0.6000000E+02  0.7546771E-02  0.1259629E+00
         11   -1    0    0    0    0  0.00000000000E+00  0.00000000000E+00  0.30000000000E+02  0.30000000000E+02  0.00000000000E+00 0.  1.
        -11   -1    0    0    0    0 -0.00000000000E+00 -0.00000000000E+00 -0.30000000000E+02  0.30000000000E+02  0.00000000000E+00 0. -1.
          5    1    1    2  501    0 -0.38673713510E+01  0.12390838217E+02 -0.26634950105E+02  0.30000000000E+02  0.47000000000E+01 0. -1.
         -5    1    1    2    0  501  0.38673713510E+01 -0.12390838217E+02  0.26634950105E+02  0.30000000000E+02  0.47000000000E+01 0.  1.
</event>
<event>
 4    1  0.7580225E-002  0.6000000E+02  0.7546771E-02  0.1259629E+00
         11   -1    0    0    0    0  0.00000000000E+00  0.00000000000E+00  0.30000000000E+02  0.30000000000E+02  0.00000000000E+00 0.  1.
        -11   -1    0    0    0    0 -0.00000000000E+00 -0.00000000000E+00 -0.30000000000E+02  0.30000000000E+02  0.00000000000E+00 0. -1.
          5    1    1    2  501    0  0.14682505209E+01  0.12910539418E+02 -0.26628409872E+02  0.30000000000E+02  0.47000000000E+01 0. -1.
         -5    1    1    2    0  501 -0.14682505209E+01 -0.12910539418E+02  0.26628409872E+02  0.30000000000E+02  0.47000000000E+01 0.  1.
</event>
<event>
 4    1  0.7580225E-002  0.6000000E+02  0.7546771E-02  0.1259629E+00
         11   -1    0    0    0    0  0.00000000000E+00  0.00000000000E+00  0.30000000000E+02  0.30000000000E+02  0.00000000000E+00 0.  1.
        -11   -1    0    0    0    0 -0.00000000000E+00 -0.00000000000E+00 -0.30000000000E+02  0.30000000000E+02  0.00000000000E+00 0. -1.
          5    1    1    2  501    0  0.67450992158E+01  0.26104502272E+02 -0.12286927919E+02  0.30000000000E+02  0.47000000000E+01 0. -1.
         -5    1    1    2    0  501 -0.67450992158E+01 -0.26104502272E+02  0.12286927919E+02  0.30000000000E+02  0.47000000000E+01 0.  1.
</event>
<event>
 4    1  0.7580225E-002  0.6000000E+02  0.7546771E-02  0.1259629E+00
         11   -1    0    0    0    0  0.00000000000E+00  0.00000000000E+00  0.30000000000E+02  0.30000000000E+02  0.00000000000E+00 0. -1.
        -11   -1    0    0    0    0 -0.00000000000E+00 -0.00000000000E+00 -0.30000000000E+02  0.30000000000E+02  0.00000000000E+00 0.  1.
          5    1    1    2  501    0 -0.30482947701E+01 -0.14648469880E+02 -0.25574210236E+02  0.30000000000E+02  0.47000000000E+01 0.  1.
         -5    1    1    2    0  501  0.30482947701E+01  0.14648469880E+02  0.25574210236E+02  0.30000000000E+02  0.47000000000E+01 0. -1.
</event>
<event>
 4    1  0.7580225E-002  0.6000000E+02  0.7546771E-02  0.1259629E+00
         11   -1    0    0    0    0  0.00000000000E+00  0.00000000000E+00  0.30000000000E+02  0.30000000000E+02  0.00000000000E+00 0.  1.
        -11   -1    0    0    0    0 -0.00000000000E+00 -0.00000000000E+00 -0.30000000000E+02  0.30000000000E+02  0.00000000000E+00 0. -1.
          5    1    1    2  501    0 -0.60607662598E+01 -0.28950299048E+02 -0.17485129052E+01  0.30000000000E+02  0.47000000000E+01 0. -1.
         -5    1    1    2    0  501  0.60607662598E+01  0.28950299048E+02  0.17485129052E+01  0.30000000000E+02  0.47000000000E+01 0.  1.
</event>
<event>
 4    1  0.7580225E-002  0.6000000E+02  0.7546771E-02  0.1259629E+00
         11   -1    0    0    0    0  0.00000000000E+00  0.00000000000E+00  0.30000000000E+02  0.30000000000E+02  0.00000000000E+00 0.  1.
        -11   -1    0    0    0    0 -0.00000000000E+00 -0.00000000000E+00 -0.30000000000E+02  0.30000000000E+02  0.00000000000E+00 0. -1.
          5    1    1    2  501    0 -0.14437246721E+02  0.14283539761E+02 -0.21574438556E+02  0.30000000000E+02  0.47000000000E+01 0. -1.
         -5    1    1    2    0  501  0.14437246721E+02 -0.14283539761E+02  0.21574438556E+02  0.30000000000E+02  0.47000000000E+01 0.  1.
</event>
<event>
 4    1  0.7580225E-002  0.6000000E+02  0.7546771E-02  0.1259629E+00
         11   -1    0    0    0    0  0.00000000000E+00  0.00000000000E+00  0.30000000000E+02  0.30000000000E+02  0.00000000000E+00 0.  1.
        -11   -1    0    0    0    0 -0.00000000000E+00 -0.00000000000E+00 -0.30000000000E+02  0.30000000000E+02  0.00000000000E+00 0. -1.
          5    1    1    2  501    0 -0.77679899115E+01  0.26958196631E+02  0.95301609193E+01  0.30000000000E+02  0.47000000000E+01 0. -1.
         -5    1    1    2    0  501  0.77679899115E+01 -0.26958196631E+02 -0.95301609193E+01  0.30000000000E+02  0.47000000000E+01 0.  1.
</event>
<event>
 4    1  0.7580225E-002  0.6000000E+02  0.7546771E-02  0.1259629E+00
         11   -1    0    0    0    0  0.00000000000E+00  0.00000000000E+00  0.30000000000E+02  0.30000000000E+02  0.00000000000E+00 0.  1.
        -11   -1    0    0    0    0 -0.00000000000E+00 -0.00000000000E+00 -0.30000000000E+02  0.30000000000E+02  0.00000000000E+00 0. -1.
          5    1    1    2  501    0 -0.95256980344E+01  0.12453165775E+02 -0.25141394932E+02  0.30000000000E+02  0.47000000000E+01 0. -1.
         -5    1    1    2    0  501  0.95256980344E+01 -0.12453165775E+02  0.25141394932E+02  0.30000000000E+02  0.47000000000E+01 0.  1.
</event>
<event>
 4    1  0.7580225E-002  0.6000000E+02  0.7546771E-02  0.1259629E+00
         11   -1    0    0    0    0  0.00000000000E+00  0.00000000000E+00  0.30000000000E+02  0.30000000000E+02  0.00000000000E+00 0.  1.
        -11   -1    0    0    0    0 -0.00000000000E+00 -0.00000000000E+00 -0.30000000000E+02  0.30000000000E+02  0.00000000000E+00 0. -1.
          5    1    1    2  501    0 -0.16323215071E+02  0.21999569087E+02 -0.11290775427E+02  0.30000000000E+02  0.47000000000E+01 0. -1.
         -5    1    1    2    0  501  0.16323215071E+02 -0.21999569087E+02  0.11290775427E+02  0.30000000000E+02  0.47000000000E+01 0.  1.
</event>
<event>
 4    1  0.7580225E-002  0.6000000E+02  0.7546771E-02  0.1259629E+00
         11   -1    0    0    0    0  0.00000000000E+00  0.00000000000E+00  0.30000000000E+02  0.30000000000E+02  0.00000000000E+00 0. -1.
        -11   -1    0    0    0    0 -0.00000000000E+00 -0.00000000000E+00 -0.30000000000E+02  0.30000000000E+02  0.00000000000E+00 0.  1.
          5    1    1    2  501    0 -0.29535679130E+02  0.23162442794E+01  0.43436251399E+00  0.30000000000E+02  0.47000000000E+01 0.  1.
         -5    1    1    2    0  501  0.29535679130E+02 -0.23162442794E+01 -0.43436251399E+00  0.30000000000E+02  0.47000000000E+01 0. -1.
</event>
<event>
 4    1  0.7580225E-002  0.6000000E+02  0.7546771E-02  0.1259629E+00
         11   -1    0    0    0    0  0.00000000000E+00  0.00000000000E+00  0.30000000000E+02  0.30000000000E+02  0.00000000000E+00 0. -1.
        -11   -1    0    0    0    0 -0.00000000000E+00 -0.00000000000E+00 -0.30000000000E+02  0.30000000000E+02  0.00000000000E+00 0.  1.
          5    1    1    2  501    0  0.15446227149E+02  0.24953686782E+00 -0.25283627078E+02  0.30000000000E+02  0.47000000000E+01 0.  1.
         -5    1    1    2    0  501 -0.15446227149E+02 -0.24953686782E+00  0.25283627078E+02  0.30000000000E+02  0.47000000000E+01 0. -1.
</event>
<event>
 4    1  0.7580225E-002  0.6000000E+02  0.7546771E-02  0.1259629E+00
         11   -1    0    0    0    0  0.00000000000E+00  0.00000000000E+00  0.30000000000E+02  0.30000000000E+02  0.00000000000E+00 0.  1.
        -11   -1    0    0    0    0 -0.00000000000E+00 -0.00000000000E+00 -0.30000000000E+02  0.30000000000E+02  0.00000000000E+00 0. -1.
          5    1    1    2  501    0 -0.85157350053E+01  0.24030682692E+02  0.15096971441E+02  0.30000000000E+02  0.47000000000E+01 0.  1.
         -5    1    1    2    0  501  0.85157350053E+01 -0.24030682692E+02 -0.15096971441E+02  0.30000000000E+02  0.47000000000E+01 0. -1.
</event>
<event>
 4    1  0.7580225E-002  0.6000000E+02  0.7546771E-02  0.1259629E+00
         11   -1    0    0    0    0  0.00000000000E+00  0.00000000000E+00  0.30000000000E+02  0.30000000000E+02  0.00000000000E+00 0.  1.
        -11   -1    0    0    0    0 -0.00000000000E+00 -0.00000000000E+00 -0.30000000000E+02  0.30000000000E+02  0.00000000000E+00 0. -1.
          5    1    1    2  501    0  0.27765878991E+02 -0.61195307521E+01 -0.83377039546E+01  0.30000000000E+02  0.47000000000E+01 0. -1.
         -5    1    1    2    0  501 -0.27765878991E+02  0.61195307521E+01  0.83377039546E+01  0.30000000000E+02  0.47000000000E+01 0.  1.
</event>
<event>
 4    1  0.7580225E-002  0.6000000E+02  0.7546771E-02  0.1259629E+00
         11   -1    0    0    0    0  0.00000000000E+00  0.00000000000E+00  0.30000000000E+02  0.30000000000E+02  0.00000000000E+00 0. -1.
        -11   -1    0    0    0    0 -0.00000000000E+00 -0.00000000000E+00 -0.30000000000E+02  0.30000000000E+02  0.00000000000E+00 0.  1.
          5    1    1    2  501    0  0.27274369711E+02  0.44793487909E+01 -0.10674932846E+02  0.30000000000E+02  0.47000000000E+01 0.  1.
         -5    1    1    2    0  501 -0.27274369711E+02 -0.44793487909E+01  0.10674932846E+02  0.30000000000E+02  0.47000000000E+01 0. -1.
</event>
<event>
 4    1  0.7580225E-002  0.6000000E+02  0.7546771E-02  0.1259629E+00
         11   -1    0    0    0    0  0.00000000000E+00  0.00000000000E+00  0.30000000000E+02  0.30000000000E+02  0.00000000000E+00 0.  1.
        -11   -1    0    0    0    0 -0.00000000000E+00 -0.00000000000E+00 -0.30000000000E+02  0.30000000000E+02  0.00000000000E+00 0. -1.
          5    1    1    2  501    0 -0.10046460731E+02 -0.48150216164E+01 -0.27455312666E+02  0.30000000000E+02  0.47000000000E+01 0. -1.
         -5    1    1    2    0  501  0.10046460731E+02  0.48150216164E+01  0.27455312666E+02  0.30000000000E+02  0.47000000000E+01 0.  1.
</event>
<event>
 4    1  0.7580225E-002  0.6000000E+02  0.7546771E-02  0.1259629E+00
         11   -1    0    0    0    0  0.00000000000E+00  0.00000000000E+00  0.30000000000E+02  0.30000000000E+02  0.00000000000E+00 0.  1.
        -11   -1    0    0    0    0 -0.00000000000E+00 -0.00000000000E+00 -0.30000000000E+02  0.30000000000E+02  0.00000000000E+00 0. -1.
          5    1    1    2  501    0 -0.24934815251E+02 -0.11661093224E+02  0.10962841477E+02  0.30000000000E+02  0.47000000000E+01 0. -1.
         -5    1    1    2    0  501  0.24934815251E+02  0.11661093224E+02 -0.10962841477E+02  0.30000000000E+02  0.47000000000E+01 0.  1.
</event>
<event>
 4    1  0.7580225E-002  0.6000000E+02  0.7546771E-02  0.1259629E+00
         11   -1    0    0    0    0  0.00000000000E+00  0.00000000000E+00  0.30000000000E+02  0.30000000000E+02  0.00000000000E+00 0. -1.
        -11   -1    0    0    0    0 -0.00000000000E+00 -0.00000000000E+00 -0.30000000000E+02  0.30000000000E+02  0.00000000000E+00 0.  1.
          5    1    1    2  501    0 -0.89805691483E+01 -0.18445281254E+02 -0.21378282841E+02  0.30000000000E+02  0.47000000000E+01 0.  1.
         -5    1    1    2    0  501  0.89805691483E+01  0.18445281254E+02  0.21378282841E+02  0.30000000000E+02  0.47000000000E+01 0. -1.
</event>
<event>
 4    1  0.7580225E-002  0.6000000E+02  0.7546771E-02  0.1259629E+00
         11   -1    0    0    0    0  0.00000000000E+00  0.00000000000E+00  0.30000000000E+02  0.30000000000E+02  0.00000000000E+00 0.  1.
        -11   -1    0    0    0    0 -0.00000000000E+00 -0.00000000000E+00 -0.30000000000E+02  0.30000000000E+02  0.00000000000E+00 0. -1.
          5    1    1    2  501    0 -0.14258376163E+01  0.29528424100E+02  0.19872486711E+01  0.30000000000E+02  0.47000000000E+01 0. -1.
         -5    1    1    2    0  501  0.14258376163E+01 -0.29528424100E+02 -0.19872486711E+01  0.30000000000E+02  0.47000000000E+01 0.  1.
</event>
<event>
 4    1  0.7580225E-002  0.6000000E+02  0.7546771E-02  0.1259629E+00
         11   -1    0    0    0    0  0.00000000000E+00  0.00000000000E+00  0.30000000000E+02  0.30000000000E+02  0.00000000000E+00 0.  1.
        -11   -1    0    0    0    0 -0.00000000000E+00 -0.00000000000E+00 -0.30000000000E+02  0.30000000000E+02  0.00000000000E+00 0. -1.
          5    1    1    2  501    0 -0.12856074018E+02 -0.82119828547E+01 -0.25400683031E+02  0.30000000000E+02  0.47000000000E+01 0. -1.
         -5    1    1    2    0  501  0.12856074018E+02  0.82119828547E+01  0.25400683031E+02  0.30000000000E+02  0.47000000000E+01 0.  1.
</event>
<event>
 4    1  0.7580225E-002  0.6000000E+02  0.7546771E-02  0.1259629E+00
         11   -1    0    0    0    0  0.00000000000E+00  0.00000000000E+00  0.30000000000E+02  0.30000000000E+02  0.00000000000E+00 0. -1.
        -11   -1    0    0    0    0 -0.00000000000E+00 -0.00000000000E+00 -0.30000000000E+02  0.30000000000E+02  0.00000000000E+00 0.  1.
          5    1    1    2  501    0  0.10723285276E+02 -0.25630333943E+02 -0.10295976634E+02  0.30000000000E+02  0.47000000000E+01 0.  1.
         -5    1    1    2    0  501 -0.10723285276E+02  0.25630333943E+02  0.10295976634E+02  0.30000000000E+02  0.47000000000E+01 0. -1.
</event>
<event>
 4    1  0.7580225E-002  0.6000000E+02  0.7546771E-02  0.1259629E+00
         11   -1    0    0    0    0  0.00000000000E+00  0.00000000000E+00  0.30000000000E+02  0.30000000000E+02  0.00000000000E+00 0.  1.
        -11   -1    0    0    0    0 -0.00000000000E+00 -0.00000000000E+00 -0.30000000000E+02  0.30000000000E+02  0.00000000000E+00 0. -1.
          5    1    1    2  501    0  0.86390763079E+01  0.27684848801E+02 -0.60684023771E+01  0.30000000000E+02  0.47000000000E+01 0. -1.
         -5    1    1    2    0  501 -0.86390763079E+01 -0.27684848801E+02  0.60684023771E+01  0.30000000000E+02  0.47000000000E+01 0.  1.
</event>
<event>
 4    1  0.7580225E-002  0.6000000E+02  0.7546771E-02  0.1259629E+00
         11   -1    0    0    0    0  0.00000000000E+00  0.00000000000E+00  0.30000000000E+02  0.30000000000E+02  0.00000000000E+00 0.  1.
        -11   -1    0    0    0    0 -0.00000000000E+00 -0.00000000000E+00 -0.30000000000E+02  0.30000000000E+02  0.00000000000E+00 0. -1.
          5    1    1    2  501    0 -0.85894989920E+01  0.33217315344E+01 -0.28161970930E+02  0.30000000000E+02  0.47000000000E+01 0. -1.
         -5    1    1    2    0  501  0.85894989920E+01 -0.33217315344E+01  0.28161970930E+02  0.30000000000E+02  0.47000000000E+01 0.  1.
</event>
<event>
 4    1  0.7580225E-002  0.6000000E+02  0.7546771E-02  0.1259629E+00
         11   -1    0    0    0    0  0.00000000000E+00  0.00000000000E+00  0.30000000000E+02  0.30000000000E+02  0.00000000000E+00 0.  1.
        -11   -1    0    0    0    0 -0.00000000000E+00 -0.00000000000E+00 -0.30000000000E+02  0.30000000000E+02  0.00000000000E+00 0. -1.
          5    1    1    2  501    0  0.25723015569E+02  0.13177281092E+02 -0.65265406665E+01  0.30000000000E+02  0.47000000000E+01 0. -1.
         -5    1    1    2    0  501 -0.25723015569E+02 -0.13177281092E+02  0.65265406665E+01  0.30000000000E+02  0.47000000000E+01 0.  1.
</event>
<event>
 4    1  0.7580225E-002  0.6000000E+02  0.7546771E-02  0.1259629E+00
         11   -1    0    0    0    0  0.00000000000E+00  0.00000000000E+00  0.30000000000E+02  0.30000000000E+02  0.00000000000E+00 0. -1.
        -11   -1    0    0    0    0 -0.00000000000E+00 -0.00000000000E+00 -0.30000000000E+02  0.30000000000E+02  0.00000000000E+00 0.  1.
          5    1    1    2  501    0 -0.29049144495E+02  0.58124247333E+01  0.52242017294E+00  0.30000000000E+02  0.47000000000E+01 0.  1.
         -5    1    1    2    0  501  0.29049144495E+02 -0.58124247333E+01 -0.52242017294E+00  0.30000000000E+02  0.47000000000E+01 0. -1.
</event>
<event>
 4    1  0.7580225E-002  0.6000000E+02  0.7546771E-02  0.1259629E+00
         11   -1    0    0    0    0  0.00000000000E+00  0.00000000000E+00  0.30000000000E+02  0.30000000000E+02  0.00000000000E+00 0. -1.
        -11   -1    0    0    0    0 -0.00000000000E+00 -0.00000000000E+00 -0.30000000000E+02  0.30000000000E+02  0.00000000000E+00 0.  1.
          5    1    1    2  501    0  0.16901067816E+02 -0.12833340786E+02 -0.20677748208E+02  0.30000000000E+02  0.47000000000E+01 0.  1.
         -5    1    1    2    0  501 -0.16901067816E+02  0.12833340786E+02  0.20677748208E+02  0.30000000000E+02  0.47000000000E+01 0. -1.
</event>
<event>
 4    1  0.7580225E-002  0.6000000E+02  0.7546771E-02  0.1259629E+00
         11   -1    0    0    0    0  0.00000000000E+00  0.00000000000E+00  0.30000000000E+02  0.30000000000E+02  0.00000000000E+00 0.  1.
        -11   -1    0    0    0    0 -0.00000000000E+00 -0.00000000000E+00 -0.30000000000E+02  0.30000000000E+02  0.00000000000E+00 0. -1.
          5    1    1    2  501    0 -0.39309986143E+01 -0.20903816051E+02 -0.20627353790E+02  0.30000000000E+02  0.47000000000E+01 0. -1.
         -5    1    1    2    0  501  0.39309986143E+01  0.20903816051E+02  0.20627353790E+02  0.30000000000E+02  0.47000000000E+01 0.  1.
</event>
<event>
 4    1  0.7580225E-002  0.6000000E+02  0.7546771E-02  0.1259629E+00
         11   -1    0    0    0    0  0.00000000000E+00  0.00000000000E+00  0.30000000000E+02  0.30000000000E+02  0.00000000000E+00 0.  1.
        -11   -1    0    0    0    0 -0.00000000000E+00 -0.00000000000E+00 -0.30000000000E+02  0.30000000000E+02  0.00000000000E+00 0. -1.
          5    1    1    2  501    0  0.26794863796E+02  0.35411275961E+01 -0.12141074478E+02  0.30000000000E+02  0.47000000000E+01 0. -1.
         -5    1    1    2    0  501 -0.26794863796E+02 -0.35411275961E+01  0.12141074478E+02  0.30000000000E+02  0.47000000000E+01 0.  1.
</event>
<event>
 4    1  0.7580225E-002  0.6000000E+02  0.7546771E-02  0.1259629E+00
         11   -1    0    0    0    0  0.00000000000E+00  0.00000000000E+00  0.30000000000E+02  0.30000000000E+02  0.00000000000E+00 0.  1.
        -11   -1    0    0    0    0 -0.00000000000E+00 -0.00000000000E+00 -0.30000000000E+02  0.30000000000E+02  0.00000000000E+00 0. -1.
          5    1    1    2  501    0 -0.12450920066E+02  0.24272259771E+02 -0.11564687420E+02  0.30000000000E+02  0.47000000000E+01 0. -1.
         -5    1    1    2    0  501  0.12450920066E+02 -0.24272259771E+02  0.11564687420E+02  0.30000000000E+02  0.47000000000E+01 0.  1.
</event>
<event>
 4    1  0.7580225E-002  0.6000000E+02  0.7546771E-02  0.1259629E+00
         11   -1    0    0    0    0  0.00000000000E+00  0.00000000000E+00  0.30000000000E+02  0.30000000000E+02  0.00000000000E+00 0.  1.
        -11   -1    0    0    0    0 -0.00000000000E+00 -0.00000000000E+00 -0.30000000000E+02  0.30000000000E+02  0.00000000000E+00 0. -1.
          5    1    1    2  501    0 -0.19634740015E+02 -0.63079300673E+00 -0.22180826963E+02  0.30000000000E+02  0.47000000000E+01 0. -1.
         -5    1    1    2    0  501  0.19634740015E+02  0.63079300673E+00  0.22180826963E+02  0.30000000000E+02  0.47000000000E+01 0.  1.
</event>
<event>
 4    1  0.7580225E-002  0.6000000E+02  0.7546771E-02  0.1259629E+00
         11   -1    0    0    0    0  0.00000000000E+00  0.00000000000E+00  0.30000000000E+02  0.30000000000E+02  0.00000000000E+00 0. -1.
        -11   -1    0    0    0    0 -0.00000000000E+00 -0.00000000000E+00 -0.30000000000E+02  0.30000000000E+02  0.00000000000E+00 0.  1.
          5    1    1    2  501    0  0.15520245007E+02 -0.24202250972E+02 -0.71612179718E+01  0.30000000000E+02  0.47000000000E+01 0.  1.
         -5    1    1    2    0  501 -0.15520245007E+02  0.24202250972E+02  0.71612179718E+01  0.30000000000E+02  0.47000000000E+01 0. -1.
</event>
<event>
 4    1  0.7580225E-002  0.6000000E+02  0.7546771E-02  0.1259629E+00
         11   -1    0    0    0    0  0.00000000000E+00  0.00000000000E+00  0.30000000000E+02  0.30000000000E+02  0.00000000000E+00 0. -1.
        -11   -1    0    0    0    0 -0.00000000000E+00 -0.00000000000E+00 -0.30000000000E+02  0.30000000000E+02  0.00000000000E+00 0.  1.
          5    1    1    2  501    0  0.25394541599E+01  0.20321308571E+02 -0.21412743648E+02  0.30000000000E+02  0.47000000000E+01 0.  1.
         -5    1    1    2    0  501 -0.25394541599E+01 -0.20321308571E+02  0.21412743648E+02  0.30000000000E+02  0.47000000000E+01 0. -1.
</event>
<event>
 4    1  0.7580225E-002  0.6000000E+02  0.7546771E-02  0.1259629E+00
         11   -1    0    0    0    0  0.00000000000E+00  0.00000000000E+00  0.30000000000E+02  0.30000000000E+02  0.00000000000E+00 0.  1.
        -11   -1    0    0    0    0 -0.00000000000E+00 -0.00000000000E+00 -0.30000000000E+02  0.30000000000E+02  0.00000000000E+00 0. -1.
          5    1    1    2  501    0  0.10571057962E+02 -0.20098294046E+02 -0.19032112599E+02  0.30000000000E+02  0.47000000000E+01 0. -1.
         -5    1    1    2    0  501 -0.10571057962E+02  0.20098294046E+02  0.19032112599E+02  0.30000000000E+02  0.47000000000E+01 0.  1.
</event>
<event>
 4    1  0.7580225E-002  0.6000000E+02  0.7546771E-02  0.1259629E+00
         11   -1    0    0    0    0  0.00000000000E+00  0.00000000000E+00  0.30000000000E+02  0.30000000000E+02  0.00000000000E+00 0.  1.
        -11   -1    0    0    0    0 -0.00000000000E+00 -0.00000000000E+00 -0.30000000000E+02  0.30000000000E+02  0.00000000000E+00 0. -1.
          5    1    1    2  501    0  0.23529011534E+02 -0.10292070992E+02 -0.14777310004E+02  0.30000000000E+02  0.47000000000E+01 0. -1.
         -5    1    1    2    0  501 -0.23529011534E+02  0.10292070992E+02  0.14777310004E+02  0.30000000000E+02  0.47000000000E+01 0.  1.
</event>
<event>
 4    1  0.7580225E-002  0.6000000E+02  0.7546771E-02  0.1259629E+00
         11   -1    0    0    0    0  0.00000000000E+00  0.00000000000E+00  0.30000000000E+02  0.30000000000E+02  0.00000000000E+00 0.  1.
        -11   -1    0    0    0    0 -0.00000000000E+00 -0.00000000000E+00 -0.30000000000E+02  0.30000000000E+02  0.00000000000E+00 0. -1.
          5    1    1    2  501    0  0.28085312683E+02 -0.30517062628E+01  0.89337730218E+01  0.30000000000E+02  0.47000000000E+01 0.  1.
         -5    1    1    2    0  501 -0.28085312683E+02  0.30517062628E+01 -0.89337730218E+01  0.30000000000E+02  0.47000000000E+01 0. -1.
</event>
<event>
 4    1  0.7580225E-002  0.6000000E+02  0.7546771E-02  0.1259629E+00
         11   -1    0    0    0    0  0.00000000000E+00  0.00000000000E+00  0.30000000000E+02  0.30000000000E+02  0.00000000000E+00 0.  1.
        -11   -1    0    0    0    0 -0.00000000000E+00 -0.00000000000E+00 -0.30000000000E+02  0.30000000000E+02  0.00000000000E+00 0. -1.
          5    1    1    2  501    0 -0.19755074856E+02  0.69791558395E+01 -0.20950856813E+02  0.30000000000E+02  0.47000000000E+01 0. -1.
         -5    1    1    2    0  501  0.19755074856E+02 -0.69791558395E+01  0.20950856813E+02  0.30000000000E+02  0.47000000000E+01 0.  1.
</event>
<event>
 4    1  0.7580225E-002  0.6000000E+02  0.7546771E-02  0.1259629E+00
         11   -1    0    0    0    0  0.00000000000E+00  0.00000000000E+00  0.30000000000E+02  0.30000000000E+02  0.00000000000E+00 0.  1.
        -11   -1    0    0    0    0 -0.00000000000E+00 -0.00000000000E+00 -0.30000000000E+02  0.30000000000E+02  0.00000000000E+00 0. -1.
          5    1    1    2  501    0 -0.10841977224E+02  0.27514843139E+02 -0.18151961148E+01  0.30000000000E+02  0.47000000000E+01 0. -1.
         -5    1    1    2    0  501  0.10841977224E+02 -0.27514843139E+02  0.18151961148E+01  0.30000000000E+02  0.47000000000E+01 0.  1.
</event>
<event>
 4    1  0.7580225E-002  0.6000000E+02  0.7546771E-02  0.1259629E+00
         11   -1    0    0    0    0  0.00000000000E+00  0.00000000000E+00  0.30000000000E+02  0.30000000000E+02  0.00000000000E+00 0.  1.
        -11   -1    0    0    0    0 -0.00000000000E+00 -0.00000000000E+00 -0.30000000000E+02  0.30000000000E+02  0.00000000000E+00 0. -1.
          5    1    1    2  501    0  0.84853785694E+01 -0.20627642321E+02 -0.19504069392E+02  0.30000000000E+02  0.47000000000E+01 0. -1.
         -5    1    1    2    0  501 -0.84853785694E+01  0.20627642321E+02  0.19504069392E+02  0.30000000000E+02  0.47000000000E+01 0.  1.
</event>
<event>
 4    1  0.7580225E-002  0.6000000E+02  0.7546771E-02  0.1259629E+00
         11   -1    0    0    0    0  0.00000000000E+00  0.00000000000E+00  0.30000000000E+02  0.30000000000E+02  0.00000000000E+00 0. -1.
        -11   -1    0    0    0    0 -0.00000000000E+00 -0.00000000000E+00 -0.30000000000E+02  0.30000000000E+02  0.00000000000E+00 0.  1.
          5    1    1    2  501    0 -0.92862550828E+01  0.25011534161E+02 -0.12887925568E+02  0.30000000000E+02  0.47000000000E+01 0.  1.
         -5    1    1    2    0  501  0.92862550828E+01 -0.25011534161E+02  0.12887925568E+02  0.30000000000E+02  0.47000000000E+01 0. -1.
</event>
<event>
 4    1  0.7580225E-002  0.6000000E+02  0.7546771E-02  0.1259629E+00
         11   -1    0    0    0    0  0.00000000000E+00  0.00000000000E+00  0.30000000000E+02  0.30000000000E+02  0.00000000000E+00 0.  1.
        -11   -1    0    0    0    0 -0.00000000000E+00 -0.00000000000E+00 -0.30000000000E+02  0.30000000000E+02  0.00000000000E+00 0. -1.
          5    1    1    2  501    0  0.26347654165E+02  0.13552577066E+02 -0.19691342601E+00  0.30000000000E+02  0.47000000000E+01 0. -1.
         -5    1    1    2    0  501 -0.26347654165E+02 -0.13552577066E+02  0.19691342601E+00  0.30000000000E+02  0.47000000000E+01 0.  1.
</event>
<event>
 4    1  0.7580225E-002  0.6000000E+02  0.7546771E-02  0.1259629E+00
         11   -1    0    0    0    0  0.00000000000E+00  0.00000000000E+00  0.30000000000E+02  0.30000000000E+02  0.00000000000E+00 0. -1.
        -11   -1    0    0    0    0 -0.00000000000E+00 -0.00000000000E+00 -0.30000000000E+02  0.30000000000E+02  0.00000000000E+00 0.  1.
          5    1    1    2  501    0  0.26586314091E+02  0.96515632474E+00 -0.13044016878E+02  0.30000000000E+02  0.47000000000E+01 0.  1.
         -5    1    1    2    0  501 -0.26586314091E+02 -0.96515632474E+00  0.13044016878E+02  0.30000000000E+02  0.47000000000E+01 0. -1.
</event>
<event>
 4    1  0.7580225E-002  0.6000000E+02  0.7546771E-02  0.1259629E+00
         11   -1    0    0    0    0  0.00000000000E+00  0.00000000000E+00  0.30000000000E+02  0.30000000000E+02  0.00000000000E+00 0. -1.
        -11   -1    0    0    0    0 -0.00000000000E+00 -0.00000000000E+00 -0.30000000000E+02  0.30000000000E+02  0.00000000000E+00 0.  1.
          5    1    1    2  501    0 -0.16046927364E+02  0.22381120558E+02 -0.10931219728E+02  0.30000000000E+02  0.47000000000E+01 0.  1.
         -5    1    1    2    0  501  0.16046927364E+02 -0.22381120558E+02  0.10931219728E+02  0.30000000000E+02  0.47000000000E+01 0. -1.
</event>
<event>
 4    1  0.7580225E-002  0.6000000E+02  0.7546771E-02  0.1259629E+00
         11   -1    0    0    0    0  0.00000000000E+00  0.00000000000E+00  0.30000000000E+02  0.30000000000E+02  0.00000000000E+00 0.  1.
        -11   -1    0    0    0    0 -0.00000000000E+00 -0.00000000000E+00 -0.30000000000E+02  0.30000000000E+02  0.00000000000E+00 0. -1.
          5    1    1    2  501    0 -0.14947285496E+02  0.55241471079E+01 -0.24979440647E+02  0.30000000000E+02  0.47000000000E+01 0. -1.
         -5    1    1    2    0  501  0.14947285496E+02 -0.55241471079E+01  0.24979440647E+02  0.30000000000E+02  0.47000000000E+01 0.  1.
</event>
<event>
 4    1  0.7580225E-002  0.6000000E+02  0.7546771E-02  0.1259629E+00
         11   -1    0    0    0    0  0.00000000000E+00  0.00000000000E+00  0.30000000000E+02  0.30000000000E+02  0.00000000000E+00 0.  1.
        -11   -1    0    0    0    0 -0.00000000000E+00 -0.00000000000E+00 -0.30000000000E+02  0.30000000000E+02  0.00000000000E+00 0. -1.
          5    1    1    2  501    0  0.18661269434E+02  0.10288517613E+02 -0.20586729426E+02  0.30000000000E+02  0.47000000000E+01 0. -1.
         -5    1    1    2    0  501 -0.18661269434E+02 -0.10288517613E+02  0.20586729426E+02  0.30000000000E+02  0.47000000000E+01 0.  1.
</event>
<event>
 4    1  0.7580225E-002  0.6000000E+02  0.7546771E-02  0.1259629E+00
         11   -1    0    0    0    0  0.00000000000E+00  0.00000000000E+00  0.30000000000E+02  0.30000000000E+02  0.00000000000E+00 0.  1.
        -11   -1    0    0    0    0 -0.00000000000E+00 -0.00000000000E+00 -0.30000000000E+02  0.30000000000E+02  0.00000000000E+00 0. -1.
          5    1    1    2  501    0 -0.27546018123E+02 -0.74384713188E+01  0.79872417024E+01  0.30000000000E+02  0.47000000000E+01 0. -1.
         -5    1    1    2    0  501  0.27546018123E+02  0.74384713188E+01 -0.79872417024E+01  0.30000000000E+02  0.47000000000E+01 0.  1.
</event>
<event>
 4    1  0.7580225E-002  0.6000000E+02  0.7546771E-02  0.1259629E+00
         11   -1    0    0    0    0  0.00000000000E+00  0.00000000000E+00  0.30000000000E+02  0.30000000000E+02  0.00000000000E+00 0.  1.
        -11   -1    0    0    0    0 -0.00000000000E+00 -0.00000000000E+00 -0.30000000000E+02  0.30000000000E+02  0.00000000000E+00 0. -1.
          5    1    1    2  501    0 -0.28651571216E+01  0.13056771264E+02 -0.26442798620E+02  0.30000000000E+02  0.47000000000E+01 0. -1.
         -5    1    1    2    0  501  0.28651571216E+01 -0.13056771264E+02  0.26442798620E+02  0.30000000000E+02  0.47000000000E+01 0.  1.
</event>
<event>
 4    1  0.7580225E-002  0.6000000E+02  0.7546771E-02  0.1259629E+00
         11   -1    0    0    0    0  0.00000000000E+00  0.00000000000E+00  0.30000000000E+02  0.30000000000E+02  0.00000000000E+00 0.  1.
        -11   -1    0    0    0    0 -0.00000000000E+00 -0.00000000000E+00 -0.30000000000E+02  0.30000000000E+02  0.00000000000E+00 0. -1.
          5    1    1    2  501    0 -0.42770642897E+01  0.13346746163E+02 -0.26105192739E+02  0.30000000000E+02  0.47000000000E+01 0. -1.
         -5    1    1    2    0  501  0.42770642897E+01 -0.13346746163E+02  0.26105192739E+02  0.30000000000E+02  0.47000000000E+01 0.  1.
</event>
<event>
 4    1  0.7580225E-002  0.6000000E+02  0.7546771E-02  0.1259629E+00
         11   -1    0    0    0    0  0.00000000000E+00  0.00000000000E+00  0.30000000000E+02  0.30000000000E+02  0.00000000000E+00 0.  1.
        -11   -1    0    0    0    0 -0.00000000000E+00 -0.00000000000E+00 -0.30000000000E+02  0.30000000000E+02  0.00000000000E+00 0. -1.
          5    1    1    2  501    0  0.40094840575E+01 -0.20134180007E+02 -0.21364663186E+02  0.30000000000E+02  0.47000000000E+01 0. -1.
         -5    1    1    2    0  501 -0.40094840575E+01  0.20134180007E+02  0.21364663186E+02  0.30000000000E+02  0.47000000000E+01 0.  1.
</event>
<event>
 4    1  0.7580225E-002  0.6000000E+02  0.7546771E-02  0.1259629E+00
         11   -1    0    0    0    0  0.00000000000E+00  0.00000000000E+00  0.30000000000E+02  0.30000000000E+02  0.00000000000E+00 0.  1.
        -11   -1    0    0    0    0 -0.00000000000E+00 -0.00000000000E+00 -0.30000000000E+02  0.30000000000E+02  0.00000000000E+00 0. -1.
          5    1    1    2  501    0  0.23497968796E+02 -0.16560936943E+02 -0.71757111174E+01  0.30000000000E+02  0.47000000000E+01 0.  1.
         -5    1    1    2    0  501 -0.23497968796E+02  0.16560936943E+02  0.71757111174E+01  0.30000000000E+02  0.47000000000E+01 0.  1.
</event>
<event>
 4    1  0.7580225E-002  0.6000000E+02  0.7546771E-02  0.1259629E+00
         11   -1    0    0    0    0  0.00000000000E+00  0.00000000000E+00  0.30000000000E+02  0.30000000000E+02  0.00000000000E+00 0.  1.
        -11   -1    0    0    0    0 -0.00000000000E+00 -0.00000000000E+00 -0.30000000000E+02  0.30000000000E+02  0.00000000000E+00 0. -1.
          5    1    1    2  501    0 -0.16584529985E+02  0.24271940777E+02  0.37062455563E+01  0.30000000000E+02  0.47000000000E+01 0. -1.
         -5    1    1    2    0  501  0.16584529985E+02 -0.24271940777E+02 -0.37062455563E+01  0.30000000000E+02  0.47000000000E+01 0.  1.
</event>
<event>
 4    1  0.7580225E-002  0.6000000E+02  0.7546771E-02  0.1259629E+00
         11   -1    0    0    0    0  0.00000000000E+00  0.00000000000E+00  0.30000000000E+02  0.30000000000E+02  0.00000000000E+00 0.  1.
        -11   -1    0    0    0    0 -0.00000000000E+00 -0.00000000000E+00 -0.30000000000E+02  0.30000000000E+02  0.00000000000E+00 0. -1.
          5    1    1    2  501    0  0.19786697277E+01  0.25580222920E+01 -0.29452527702E+02  0.30000000000E+02  0.47000000000E+01 0. -1.
         -5    1    1    2    0  501 -0.19786697277E+01 -0.25580222920E+01  0.29452527702E+02  0.30000000000E+02  0.47000000000E+01 0.  1.
</event>
<event>
 4    1  0.7580225E-002  0.6000000E+02  0.7546771E-02  0.1259629E+00
         11   -1    0    0    0    0  0.00000000000E+00  0.00000000000E+00  0.30000000000E+02  0.30000000000E+02  0.00000000000E+00 0.  1.
        -11   -1    0    0    0    0 -0.00000000000E+00 -0.00000000000E+00 -0.30000000000E+02  0.30000000000E+02  0.00000000000E+00 0. -1.
          5    1    1    2  501    0 -0.29388388985E+01  0.14981926803E+02 -0.25393209628E+02  0.30000000000E+02  0.47000000000E+01 0. -1.
         -5    1    1    2    0  501  0.29388388985E+01 -0.14981926803E+02  0.25393209628E+02  0.30000000000E+02  0.47000000000E+01 0.  1.
</event>
<event>
 4    1  0.7580225E-002  0.6000000E+02  0.7546771E-02  0.1259629E+00
         11   -1    0    0    0    0  0.00000000000E+00  0.00000000000E+00  0.30000000000E+02  0.30000000000E+02  0.00000000000E+00 0.  1.
        -11   -1    0    0    0    0 -0.00000000000E+00 -0.00000000000E+00 -0.30000000000E+02  0.30000000000E+02  0.00000000000E+00 0. -1.
          5    1    1    2  501    0  0.27984688318E+02 -0.57372094815E+01  0.78645818131E+01  0.30000000000E+02  0.47000000000E+01 0. -1.
         -5    1    1    2    0  501 -0.27984688318E+02  0.57372094815E+01 -0.78645818131E+01  0.30000000000E+02  0.47000000000E+01 0.  1.
</event>
<event>
 4    1  0.7580225E-002  0.6000000E+02  0.7546771E-02  0.1259629E+00
         11   -1    0    0    0    0  0.00000000000E+00  0.00000000000E+00  0.30000000000E+02  0.30000000000E+02  0.00000000000E+00 0.  1.
        -11   -1    0    0    0    0 -0.00000000000E+00 -0.00000000000E+00 -0.30000000000E+02  0.30000000000E+02  0.00000000000E+00 0. -1.
          5    1    1    2  501    0  0.14338766660E+02 -0.99428749379E+01 -0.23946795373E+02  0.30000000000E+02  0.47000000000E+01 0. -1.
         -5    1    1    2    0  501 -0.14338766660E+02  0.99428749379E+01  0.23946795373E+02  0.30000000000E+02  0.47000000000E+01 0.  1.
</event>
<event>
 4    1  0.7580225E-002  0.6000000E+02  0.7546771E-02  0.1259629E+00
         11   -1    0    0    0    0  0.00000000000E+00  0.00000000000E+00  0.30000000000E+02  0.30000000000E+02  0.00000000000E+00 0.  1.
        -11   -1    0    0    0    0 -0.00000000000E+00 -0.00000000000E+00 -0.30000000000E+02  0.30000000000E+02  0.00000000000E+00 0. -1.
          5    1    1    2  501    0 -0.27436378520E+02  0.43184691784E+01 -0.10320172365E+02  0.30000000000E+02  0.47000000000E+01 0. -1.
         -5    1    1    2    0  501  0.27436378520E+02 -0.43184691784E+01  0.10320172365E+02  0.30000000000E+02  0.47000000000E+01 0.  1.
</event>
<event>
 4    1  0.7580225E-002  0.6000000E+02  0.7546771E-02  0.1259629E+00
         11   -1    0    0    0    0  0.00000000000E+00  0.00000000000E+00  0.30000000000E+02  0.30000000000E+02  0.00000000000E+00 0.  1.
        -11   -1    0    0    0    0 -0.00000000000E+00 -0.00000000000E+00 -0.30000000000E+02  0.30000000000E+02  0.00000000000E+00 0. -1.
          5    1    1    2  501    0 -0.11969594849E+02 -0.19570318205E+02  0.18752105069E+02  0.30000000000E+02  0.47000000000E+01 0.  1.
         -5    1    1    2    0  501  0.11969594849E+02  0.19570318205E+02 -0.18752105069E+02  0.30000000000E+02  0.47000000000E+01 0. -1.
</event>
<event>
 4    1  0.7580225E-002  0.6000000E+02  0.7546771E-02  0.1259629E+00
         11   -1    0    0    0    0  0.00000000000E+00  0.00000000000E+00  0.30000000000E+02  0.30000000000E+02  0.00000000000E+00 0.  1.
        -11   -1    0    0    0    0 -0.00000000000E+00 -0.00000000000E+00 -0.30000000000E+02  0.30000000000E+02  0.00000000000E+00 0. -1.
          5    1    1    2  501    0  0.14368026003E+02 -0.19073883129E+02 -0.17540148549E+02  0.30000000000E+02  0.47000000000E+01 0. -1.
         -5    1    1    2    0  501 -0.14368026003E+02  0.19073883129E+02  0.17540148549E+02  0.30000000000E+02  0.47000000000E+01 0.  1.
</event>
<event>
 4    1  0.7580225E-002  0.6000000E+02  0.7546771E-02  0.1259629E+00
         11   -1    0    0    0    0  0.00000000000E+00  0.00000000000E+00  0.30000000000E+02  0.30000000000E+02  0.00000000000E+00 0.  1.
        -11   -1    0    0    0    0 -0.00000000000E+00 -0.00000000000E+00 -0.30000000000E+02  0.30000000000E+02  0.00000000000E+00 0. -1.
          5    1    1    2  501    0 -0.85510670113E+01  0.53769066200E+01 -0.27854588997E+02  0.30000000000E+02  0.47000000000E+01 0. -1.
         -5    1    1    2    0  501  0.85510670113E+01 -0.53769066200E+01  0.27854588997E+02  0.30000000000E+02  0.47000000000E+01 0.  1.
</event>
<event>
 4    1  0.7580225E-002  0.6000000E+02  0.7546771E-02  0.1259629E+00
         11   -1    0    0    0    0  0.00000000000E+00  0.00000000000E+00  0.30000000000E+02  0.30000000000E+02  0.00000000000E+00 0. -1.
        -11   -1    0    0    0    0 -0.00000000000E+00 -0.00000000000E+00 -0.30000000000E+02  0.30000000000E+02  0.00000000000E+00 0.  1.
          5    1    1    2  501    0 -0.17528412416E+02  0.23488530939E+02  0.43535815692E+01  0.30000000000E+02  0.47000000000E+01 0. -1.
         -5    1    1    2    0  501  0.17528412416E+02 -0.23488530939E+02 -0.43535815692E+01  0.30000000000E+02  0.47000000000E+01 0.  1.
</event>
<event>
 4    1  0.7580225E-002  0.6000000E+02  0.7546771E-02  0.1259629E+00
         11   -1    0    0    0    0  0.00000000000E+00  0.00000000000E+00  0.30000000000E+02  0.30000000000E+02  0.00000000000E+00 0.  1.
        -11   -1    0    0    0    0 -0.00000000000E+00 -0.00000000000E+00 -0.30000000000E+02  0.30000000000E+02  0.00000000000E+00 0. -1.
          5    1    1    2  501    0 -0.25741790606E+02  0.13610306441E+02 -0.54799429725E+01  0.30000000000E+02  0.47000000000E+01 0. -1.
         -5    1    1    2    0  501  0.25741790606E+02 -0.13610306441E+02  0.54799429725E+01  0.30000000000E+02  0.47000000000E+01 0.  1.
</event>
<event>
 4    1  0.7580225E-002  0.6000000E+02  0.7546771E-02  0.1259629E+00
         11   -1    0    0    0    0  0.00000000000E+00  0.00000000000E+00  0.30000000000E+02  0.30000000000E+02  0.00000000000E+00 0.  1.
        -11   -1    0    0    0    0 -0.00000000000E+00 -0.00000000000E+00 -0.30000000000E+02  0.30000000000E+02  0.00000000000E+00 0. -1.
          5    1    1    2  501    0 -0.22004553225E+02 -0.29893501066E+01 -0.19615642312E+02  0.30000000000E+02  0.47000000000E+01 0. -1.
         -5    1    1    2    0  501  0.22004553225E+02  0.29893501066E+01  0.19615642312E+02  0.30000000000E+02  0.47000000000E+01 0.  1.
</event>
<event>
 4    1  0.7580225E-002  0.6000000E+02  0.7546771E-02  0.1259629E+00
         11   -1    0    0    0    0  0.00000000000E+00  0.00000000000E+00  0.30000000000E+02  0.30000000000E+02  0.00000000000E+00 0.  1.
        -11   -1    0    0    0    0 -0.00000000000E+00 -0.00000000000E+00 -0.30000000000E+02  0.30000000000E+02  0.00000000000E+00 0. -1.
          5    1    1    2  501    0  0.12171495348E+02  0.51840914500E+01 -0.26512070776E+02  0.30000000000E+02  0.47000000000E+01 0. -1.
         -5    1    1    2    0  501 -0.12171495348E+02 -0.51840914500E+01  0.26512070776E+02  0.30000000000E+02  0.47000000000E+01 0.  1.
</event>
<event>
 4    1  0.7580225E-002  0.6000000E+02  0.7546771E-02  0.1259629E+00
         11   -1    0    0    0    0  0.00000000000E+00  0.00000000000E+00  0.30000000000E+02  0.30000000000E+02  0.00000000000E+00 0.  1.
        -11   -1    0    0    0    0 -0.00000000000E+00 -0.00000000000E+00 -0.30000000000E+02  0.30000000000E+02  0.00000000000E+00 0. -1.
          5    1    1    2  501    0  0.16377298764E+02 -0.23625221621E+02 -0.71793445759E+01  0.30000000000E+02  0.47000000000E+01 0. -1.
         -5    1    1    2    0  501 -0.16377298764E+02  0.23625221621E+02  0.71793445759E+01  0.30000000000E+02  0.47000000000E+01 0.  1.
</event>
<event>
 4    1  0.7580225E-002  0.6000000E+02  0.7546771E-02  0.1259629E+00
         11   -1    0    0    0    0  0.00000000000E+00  0.00000000000E+00  0.30000000000E+02  0.30000000000E+02  0.00000000000E+00 0.  1.
        -11   -1    0    0    0    0 -0.00000000000E+00 -0.00000000000E+00 -0.30000000000E+02  0.30000000000E+02  0.00000000000E+00 0. -1.
          5    1    1    2  501    0 -0.23981086192E+02 -0.12200450261E+02  0.12408324563E+02  0.30000000000E+02  0.47000000000E+01 0. -1.
         -5    1    1    2    0  501  0.23981086192E+02  0.12200450261E+02 -0.12408324563E+02  0.30000000000E+02  0.47000000000E+01 0.  1.
</event>
<event>
 4    1  0.7580225E-002  0.6000000E+02  0.7546771E-02  0.1259629E+00
         11   -1    0    0    0    0  0.00000000000E+00  0.00000000000E+00  0.30000000000E+02  0.30000000000E+02  0.00000000000E+00 0.  1.
        -11   -1    0    0    0    0 -0.00000000000E+00 -0.00000000000E+00 -0.30000000000E+02  0.30000000000E+02  0.00000000000E+00 0. -1.
          5    1    1    2  501    0 -0.78277512672E+00  0.29484643084E+02  0.28201215115E+01  0.30000000000E+02  0.47000000000E+01 0. -1.
         -5    1    1    2    0  501  0.78277512672E+00 -0.29484643084E+02 -0.28201215115E+01  0.30000000000E+02  0.47000000000E+01 0.  1.
</event>
<event>
 4    1  0.7580225E-002  0.6000000E+02  0.7546771E-02  0.1259629E+00
         11   -1    0    0    0    0  0.00000000000E+00  0.00000000000E+00  0.30000000000E+02  0.30000000000E+02  0.00000000000E+00 0. -1.
        -11   -1    0    0    0    0 -0.00000000000E+00 -0.00000000000E+00 -0.30000000000E+02  0.30000000000E+02  0.00000000000E+00 0.  1.
          5    1    1    2  501    0 -0.23230398027E+02  0.14505718333E+02 -0.11306756526E+02  0.30000000000E+02  0.47000000000E+01 0.  1.
         -5    1    1    2    0  501  0.23230398027E+02 -0.14505718333E+02  0.11306756526E+02  0.30000000000E+02  0.47000000000E+01 0. -1.
</event>
<event>
 4    1  0.7580225E-002  0.6000000E+02  0.7546771E-02  0.1259629E+00
         11   -1    0    0    0    0  0.00000000000E+00  0.00000000000E+00  0.30000000000E+02  0.30000000000E+02  0.00000000000E+00 0.  1.
        -11   -1    0    0    0    0 -0.00000000000E+00 -0.00000000000E+00 -0.30000000000E+02  0.30000000000E+02  0.00000000000E+00 0. -1.
          5    1    1    2  501    0  0.20724818865E+02  0.13943273316E+02 -0.15936656244E+02  0.30000000000E+02  0.47000000000E+01 0. -1.
         -5    1    1    2    0  501 -0.20724818865E+02 -0.13943273316E+02  0.15936656244E+02  0.30000000000E+02  0.47000000000E+01 0.  1.
</event>
<event>
 4    1  0.7580225E-002  0.6000000E+02  0.7546771E-02  0.1259629E+00
         11   -1    0    0    0    0  0.00000000000E+00  0.00000000000E+00  0.30000000000E+02  0.30000000000E+02  0.00000000000E+00 0. -1.
        -11   -1    0    0    0    0 -0.00000000000E+00 -0.00000000000E+00 -0.30000000000E+02  0.30000000000E+02  0.00000000000E+00 0.  1.
          5    1    1    2  501    0 -0.15876620020E+02 -0.20374272097E+02 -0.14516610255E+02  0.30000000000E+02  0.47000000000E+01 0.  1.
         -5    1    1    2    0  501  0.15876620020E+02  0.20374272097E+02  0.14516610255E+02  0.30000000000E+02  0.47000000000E+01 0. -1.
</event>
<event>
 4    1  0.7580225E-002  0.6000000E+02  0.7546771E-02  0.1259629E+00
         11   -1    0    0    0    0  0.00000000000E+00  0.00000000000E+00  0.30000000000E+02  0.30000000000E+02  0.00000000000E+00 0. -1.
        -11   -1    0    0    0    0 -0.00000000000E+00 -0.00000000000E+00 -0.30000000000E+02  0.30000000000E+02  0.00000000000E+00 0.  1.
          5    1    1    2  501    0  0.10271801324E+02 -0.16613283425E+02 -0.22280011477E+02  0.30000000000E+02  0.47000000000E+01 0.  1.
         -5    1    1    2    0  501 -0.10271801324E+02  0.16613283425E+02  0.22280011477E+02  0.30000000000E+02  0.47000000000E+01 0. -1.
</event>
<event>
 4    1  0.7580225E-002  0.6000000E+02  0.7546771E-02  0.1259629E+00
         11   -1    0    0    0    0  0.00000000000E+00  0.00000000000E+00  0.30000000000E+02  0.30000000000E+02  0.00000000000E+00 0. -1.
        -11   -1    0    0    0    0 -0.00000000000E+00 -0.00000000000E+00 -0.30000000000E+02  0.30000000000E+02  0.00000000000E+00 0.  1.
          5    1    1    2  501    0  0.70603212818E+01 -0.52392978160E+01 -0.28295081230E+02  0.30000000000E+02  0.47000000000E+01 0.  1.
         -5    1    1    2    0  501 -0.70603212818E+01  0.52392978160E+01  0.28295081230E+02  0.30000000000E+02  0.47000000000E+01 0. -1.
</event>
<event>
 4    1  0.7580225E-002  0.6000000E+02  0.7546771E-02  0.1259629E+00
         11   -1    0    0    0    0  0.00000000000E+00  0.00000000000E+00  0.30000000000E+02  0.30000000000E+02  0.00000000000E+00 0.  1.
        -11   -1    0    0    0    0 -0.00000000000E+00 -0.00000000000E+00 -0.30000000000E+02  0.30000000000E+02  0.00000000000E+00 0. -1.
          5    1    1    2  501    0  0.18001813499E+02 -0.20279511070E+02  0.11940943912E+02  0.30000000000E+02  0.47000000000E+01 0. -1.
         -5    1    1    2    0  501 -0.18001813499E+02  0.20279511070E+02 -0.11940943912E+02  0.30000000000E+02  0.47000000000E+01 0.  1.
</event>
<event>
 4    1  0.7580225E-002  0.6000000E+02  0.7546771E-02  0.1259629E+00
         11   -1    0    0    0    0  0.00000000000E+00  0.00000000000E+00  0.30000000000E+02  0.30000000000E+02  0.00000000000E+00 0.  1.
        -11   -1    0    0    0    0 -0.00000000000E+00 -0.00000000000E+00 -0.30000000000E+02  0.30000000000E+02  0.00000000000E+00 0. -1.
          5    1    1    2  501    0  0.13114269544E+01 -0.66583315674E+01 -0.28841927468E+02  0.30000000000E+02  0.47000000000E+01 0. -1.
         -5    1    1    2    0  501 -0.13114269544E+01  0.66583315674E+01  0.28841927468E+02  0.30000000000E+02  0.47000000000E+01 0.  1.
</event>
<event>
 4    1  0.7580225E-002  0.6000000E+02  0.7546771E-02  0.1259629E+00
         11   -1    0    0    0    0  0.00000000000E+00  0.00000000000E+00  0.30000000000E+02  0.30000000000E+02  0.00000000000E+00 0.  1.
        -11   -1    0    0    0    0 -0.00000000000E+00 -0.00000000000E+00 -0.30000000000E+02  0.30000000000E+02  0.00000000000E+00 0. -1.
          5    1    1    2  501    0  0.43719738546E+01  0.18764219490E+02 -0.22509995814E+02  0.30000000000E+02  0.47000000000E+01 0. -1.
         -5    1    1    2    0  501 -0.43719738546E+01 -0.18764219490E+02  0.22509995814E+02  0.30000000000E+02  0.47000000000E+01 0.  1.
</event>
<event>
 4    1  0.7580225E-002  0.6000000E+02  0.7546771E-02  0.1259629E+00
         11   -1    0    0    0    0  0.00000000000E+00  0.00000000000E+00  0.30000000000E+02  0.30000000000E+02  0.00000000000E+00 0.  1.
        -11   -1    0    0    0    0 -0.00000000000E+00 -0.00000000000E+00 -0.30000000000E+02  0.30000000000E+02  0.00000000000E+00 0. -1.
          5    1    1    2  501    0  0.21563899673E+02 -0.20319895898E+02 -0.10030744517E+00  0.30000000000E+02  0.47000000000E+01 0. -1.
         -5    1    1    2    0  501 -0.21563899673E+02  0.20319895898E+02  0.10030744517E+00  0.30000000000E+02  0.47000000000E+01 0.  1.
</event>
<event>
 4    1  0.7580225E-002  0.6000000E+02  0.7546771E-02  0.1259629E+00
         11   -1    0    0    0    0  0.00000000000E+00  0.00000000000E+00  0.30000000000E+02  0.30000000000E+02  0.00000000000E+00 0.  1.
        -11   -1    0    0    0    0 -0.00000000000E+00 -0.00000000000E+00 -0.30000000000E+02  0.30000000000E+02  0.00000000000E+00 0. -1.
          5    1    1    2  501    0 -0.11127526521E+02 -0.15335648353E+02 -0.22779509282E+02  0.30000000000E+02  0.47000000000E+01 0. -1.
         -5    1    1    2    0  501  0.11127526521E+02  0.15335648353E+02  0.22779509282E+02  0.30000000000E+02  0.47000000000E+01 0.  1.
</event>
<event>
 4    1  0.7580225E-002  0.6000000E+02  0.7546771E-02  0.1259629E+00
         11   -1    0    0    0    0  0.00000000000E+00  0.00000000000E+00  0.30000000000E+02  0.30000000000E+02  0.00000000000E+00 0.  1.
        -11   -1    0    0    0    0 -0.00000000000E+00 -0.00000000000E+00 -0.30000000000E+02  0.30000000000E+02  0.00000000000E+00 0. -1.
          5    1    1    2  501    0  0.77226376476E+01 -0.19158644832E+02 -0.21241873645E+02  0.30000000000E+02  0.47000000000E+01 0. -1.
         -5    1    1    2    0  501 -0.77226376476E+01  0.19158644832E+02  0.21241873645E+02  0.30000000000E+02  0.47000000000E+01 0.  1.
</event>
<event>
 4    1  0.7580225E-002  0.6000000E+02  0.7546771E-02  0.1259629E+00
         11   -1    0    0    0    0  0.00000000000E+00  0.00000000000E+00  0.30000000000E+02  0.30000000000E+02  0.00000000000E+00 0.  1.
        -11   -1    0    0    0    0 -0.00000000000E+00 -0.00000000000E+00 -0.30000000000E+02  0.30000000000E+02  0.00000000000E+00 0. -1.
          5    1    1    2  501    0  0.26317328358E+02 -0.25805283533E+01 -0.13365968034E+02  0.30000000000E+02  0.47000000000E+01 0. -1.
         -5    1    1    2    0  501 -0.26317328358E+02  0.25805283533E+01  0.13365968034E+02  0.30000000000E+02  0.47000000000E+01 0.  1.
</event>
<event>
 4    1  0.7580225E-002  0.6000000E+02  0.7546771E-02  0.1259629E+00
         11   -1    0    0    0    0  0.00000000000E+00  0.00000000000E+00  0.30000000000E+02  0.30000000000E+02  0.00000000000E+00 0.  1.
        -11   -1    0    0    0    0 -0.00000000000E+00 -0.00000000000E+00 -0.30000000000E+02  0.30000000000E+02  0.00000000000E+00 0. -1.
          5    1    1    2  501    0  0.22475350674E+02  0.18173344098E+02 -0.65190625385E+01  0.30000000000E+02  0.47000000000E+01 0. -1.
         -5    1    1    2    0  501 -0.22475350674E+02 -0.18173344098E+02  0.65190625385E+01  0.30000000000E+02  0.47000000000E+01 0.  1.
</event>
<event>
 4    1  0.7580225E-002  0.6000000E+02  0.7546771E-02  0.1259629E+00
         11   -1    0    0    0    0  0.00000000000E+00  0.00000000000E+00  0.30000000000E+02  0.30000000000E+02  0.00000000000E+00 0.  1.
        -11   -1    0    0    0    0 -0.00000000000E+00 -0.00000000000E+00 -0.30000000000E+02  0.30000000000E+02  0.00000000000E+00 0. -1.
          5    1    1    2  501    0  0.56637245358E+01  0.18932942149E+02 -0.22076592263E+02  0.30000000000E+02  0.47000000000E+01 0. -1.
         -5    1    1    2    0  501 -0.56637245358E+01 -0.18932942149E+02  0.22076592263E+02  0.30000000000E+02  0.47000000000E+01 0.  1.
</event>
<event>
 4    1  0.7580225E-002  0.6000000E+02  0.7546771E-02  0.1259629E+00
         11   -1    0    0    0    0  0.00000000000E+00  0.00000000000E+00  0.30000000000E+02  0.30000000000E+02  0.00000000000E+00 0.  1.
        -11   -1    0    0    0    0 -0.00000000000E+00 -0.00000000000E+00 -0.30000000000E+02  0.30000000000E+02  0.00000000000E+00 0. -1.
          5    1    1    2  501    0 -0.17610681726E+02  0.34638884473E+00 -0.23825488535E+02  0.30000000000E+02  0.47000000000E+01 0. -1.
         -5    1    1    2    0  501  0.17610681726E+02 -0.34638884473E+00  0.23825488535E+02  0.30000000000E+02  0.47000000000E+01 0.  1.
</event>
<event>
 4    1  0.7580225E-002  0.6000000E+02  0.7546771E-02  0.1259629E+00
         11   -1    0    0    0    0  0.00000000000E+00  0.00000000000E+00  0.30000000000E+02  0.30000000000E+02  0.00000000000E+00 0.  1.
        -11   -1    0    0    0    0 -0.00000000000E+00 -0.00000000000E+00 -0.30000000000E+02  0.30000000000E+02  0.00000000000E+00 0. -1.
          5    1    1    2  501    0  0.88490037190E+01  0.27964240749E+02  0.41959948199E+01  0.30000000000E+02  0.47000000000E+01 0. -1.
         -5    1    1    2    0  501 -0.88490037190E+01 -0.27964240749E+02 -0.41959948199E+01  0.30000000000E+02  0.47000000000E+01 0.  1.
</event>
<event>
 4    1  0.7580225E-002  0.6000000E+02  0.7546771E-02  0.1259629E+00
         11   -1    0    0    0    0  0.00000000000E+00  0.00000000000E+00  0.30000000000E+02  0.30000000000E+02  0.00000000000E+00 0. -1.
        -11   -1    0    0    0    0 -0.00000000000E+00 -0.00000000000E+00 -0.30000000000E+02  0.30000000000E+02  0.00000000000E+00 0.  1.
          5    1    1    2  501    0  0.12919759795E+02 -0.17451886932E+02 -0.20159897057E+02  0.30000000000E+02  0.47000000000E+01 0.  1.
         -5    1    1    2    0  501 -0.12919759795E+02  0.17451886932E+02  0.20159897057E+02  0.30000000000E+02  0.47000000000E+01 0. -1.
</event>
<event>
 4    1  0.7580225E-002  0.6000000E+02  0.7546771E-02  0.1259629E+00
         11   -1    0    0    0    0  0.00000000000E+00  0.00000000000E+00  0.30000000000E+02  0.30000000000E+02  0.00000000000E+00 0. -1.
        -11   -1    0    0    0    0 -0.00000000000E+00 -0.00000000000E+00 -0.30000000000E+02  0.30000000000E+02  0.00000000000E+00 0.  1.
          5    1    1    2  501    0 -0.19395156314E+02 -0.15008914213E+02 -0.16627399246E+02  0.30000000000E+02  0.47000000000E+01 0.  1.
         -5    1    1    2    0  501  0.19395156314E+02  0.15008914213E+02  0.16627399246E+02  0.30000000000E+02  0.47000000000E+01 0. -1.
</event>
<event>
 4    1  0.7580225E-002  0.6000000E+02  0.7546771E-02  0.1259629E+00
         11   -1    0    0    0    0  0.00000000000E+00  0.00000000000E+00  0.30000000000E+02  0.30000000000E+02  0.00000000000E+00 0. -1.
        -11   -1    0    0    0    0 -0.00000000000E+00 -0.00000000000E+00 -0.30000000000E+02  0.30000000000E+02  0.00000000000E+00 0.  1.
          5    1    1    2  501    0  0.22384281334E+02 -0.17400575868E+02  0.86066200449E+01  0.30000000000E+02  0.47000000000E+01 0. -1.
         -5    1    1    2    0  501 -0.22384281334E+02  0.17400575868E+02 -0.86066200449E+01  0.30000000000E+02  0.47000000000E+01 0.  1.
</event>
<event>
 4    1  0.7580225E-002  0.6000000E+02  0.7546771E-02  0.1259629E+00
         11   -1    0    0    0    0  0.00000000000E+00  0.00000000000E+00  0.30000000000E+02  0.30000000000E+02  0.00000000000E+00 0.  1.
        -11   -1    0    0    0    0 -0.00000000000E+00 -0.00000000000E+00 -0.30000000000E+02  0.30000000000E+02  0.00000000000E+00 0. -1.
          5    1    1    2  501    0 -0.11432571069E+02 -0.26542681549E+02  0.65339402289E+01  0.30000000000E+02  0.47000000000E+01 0. -1.
         -5    1    1    2    0  501  0.11432571069E+02  0.26542681549E+02 -0.65339402289E+01  0.30000000000E+02  0.47000000000E+01 0.  1.
</event>
<event>
 4    1  0.7580225E-002  0.6000000E+02  0.7546771E-02  0.1259629E+00
         11   -1    0    0    0    0  0.00000000000E+00  0.00000000000E+00  0.30000000000E+02  0.30000000000E+02  0.00000000000E+00 0.  1.
        -11   -1    0    0    0    0 -0.00000000000E+00 -0.00000000000E+00 -0.30000000000E+02  0.30000000000E+02  0.00000000000E+00 0. -1.
          5    1    1    2  501    0 -0.24028266152E+02  0.13814990840E+02 -0.10473702967E+02  0.30000000000E+02  0.47000000000E+01 0. -1.
         -5    1    1    2    0  501  0.24028266152E+02 -0.13814990840E+02  0.10473702967E+02  0.30000000000E+02  0.47000000000E+01 0.  1.
</event>
<event>
 4    1  0.7580225E-002  0.6000000E+02  0.7546771E-02  0.1259629E+00
         11   -1    0    0    0    0  0.00000000000E+00  0.00000000000E+00  0.30000000000E+02  0.30000000000E+02  0.00000000000E+00 0.  1.
        -11   -1    0    0    0    0 -0.00000000000E+00 -0.00000000000E+00 -0.30000000000E+02  0.30000000000E+02  0.00000000000E+00 0. -1.
          5    1    1    2  501    0  0.14063506471E+02  0.20041074137E+01 -0.26002141051E+02  0.30000000000E+02  0.47000000000E+01 0. -1.
         -5    1    1    2    0  501 -0.14063506471E+02 -0.20041074137E+01  0.26002141051E+02  0.30000000000E+02  0.47000000000E+01 0.  1.
</event>
<event>
 4    1  0.7580225E-002  0.6000000E+02  0.7546771E-02  0.1259629E+00
         11   -1    0    0    0    0  0.00000000000E+00  0.00000000000E+00  0.30000000000E+02  0.30000000000E+02  0.00000000000E+00 0. -1.
        -11   -1    0    0    0    0 -0.00000000000E+00 -0.00000000000E+00 -0.30000000000E+02  0.30000000000E+02  0.00000000000E+00 0.  1.
          5    1    1    2  501    0 -0.11755691529E+02  0.87887943742E+01 -0.25738508312E+02  0.30000000000E+02  0.47000000000E+01 0.  1.
         -5    1    1    2    0  501  0.11755691529E+02 -0.87887943742E+01  0.25738508312E+02  0.30000000000E+02  0.47000000000E+01 0. -1.
</event>
<event>
 4    1  0.7580225E-002  0.6000000E+02  0.7546771E-02  0.1259629E+00
         11   -1    0    0    0    0  0.00000000000E+00  0.00000000000E+00  0.30000000000E+02  0.30000000000E+02  0.00000000000E+00 0.  1.
        -11   -1    0    0    0    0 -0.00000000000E+00 -0.00000000000E+00 -0.30000000000E+02  0.30000000000E+02  0.00000000000E+00 0. -1.
          5    1    1    2  501    0  0.94108735067E-01 -0.24046954361E+02 -0.17310260815E+02  0.30000000000E+02  0.47000000000E+01 0. -1.
         -5    1    1    2    0  501 -0.94108735067E-01  0.24046954361E+02  0.17310260815E+02  0.30000000000E+02  0.47000000000E+01 0.  1.
</event>
<event>
 4    1  0.7580225E-002  0.6000000E+02  0.7546771E-02  0.1259629E+00
         11   -1    0    0    0    0  0.00000000000E+00  0.00000000000E+00  0.30000000000E+02  0.30000000000E+02  0.00000000000E+00 0.  1.
        -11   -1    0    0    0    0 -0.00000000000E+00 -0.00000000000E+00 -0.30000000000E+02  0.30000000000E+02  0.00000000000E+00 0. -1.
          5    1    1    2  501    0  0.14445134981E+02  0.19432285986E+02 -0.17077304727E+02  0.30000000000E+02  0.47000000000E+01 0. -1.
         -5    1    1    2    0  501 -0.14445134981E+02 -0.19432285986E+02  0.17077304727E+02  0.30000000000E+02  0.47000000000E+01 0.  1.
</event>
<event>
 4    1  0.7580225E-002  0.6000000E+02  0.7546771E-02  0.1259629E+00
         11   -1    0    0    0    0  0.00000000000E+00  0.00000000000E+00  0.30000000000E+02  0.30000000000E+02  0.00000000000E+00 0.  1.
        -11   -1    0    0    0    0 -0.00000000000E+00 -0.00000000000E+00 -0.30000000000E+02  0.30000000000E+02  0.00000000000E+00 0. -1.
          5    1    1    2  501    0 -0.37723688809E+01 -0.84947656398E+01  0.28133933066E+02  0.30000000000E+02  0.47000000000E+01 0.  1.
         -5    1    1    2    0  501  0.37723688809E+01  0.84947656398E+01 -0.28133933066E+02  0.30000000000E+02  0.47000000000E+01 0. -1.
</event>
<event>
 4    1  0.7580225E-002  0.6000000E+02  0.7546771E-02  0.1259629E+00
         11   -1    0    0    0    0  0.00000000000E+00  0.00000000000E+00  0.30000000000E+02  0.30000000000E+02  0.00000000000E+00 0. -1.
        -11   -1    0    0    0    0 -0.00000000000E+00 -0.00000000000E+00 -0.30000000000E+02  0.30000000000E+02  0.00000000000E+00 0.  1.
          5    1    1    2  501    0  0.29507160125E+02  0.89202024921E+00 -0.25380703700E+01  0.30000000000E+02  0.47000000000E+01 0.  1.
         -5    1    1    2    0  501 -0.29507160125E+02 -0.89202024921E+00  0.25380703700E+01  0.30000000000E+02  0.47000000000E+01 0. -1.
</event>
<event>
 4    1  0.7580225E-002  0.6000000E+02  0.7546771E-02  0.1259629E+00
         11   -1    0    0    0    0  0.00000000000E+00  0.00000000000E+00  0.30000000000E+02  0.30000000000E+02  0.00000000000E+00 0.  1.
        -11   -1    0    0    0    0 -0.00000000000E+00 -0.00000000000E+00 -0.30000000000E+02  0.30000000000E+02  0.00000000000E+00 0. -1.
          5    1    1    2  501    0 -0.58374725420E+01  0.33681443066E+01 -0.28852894452E+02  0.30000000000E+02  0.47000000000E+01 0. -1.
         -5    1    1    2    0  501  0.58374725420E+01 -0.33681443066E+01  0.28852894452E+02  0.30000000000E+02  0.47000000000E+01 0.  1.
</event>
<event>
 4    1  0.7580225E-002  0.6000000E+02  0.7546771E-02  0.1259629E+00
         11   -1    0    0    0    0  0.00000000000E+00  0.00000000000E+00  0.30000000000E+02  0.30000000000E+02  0.00000000000E+00 0.  1.
        -11   -1    0    0    0    0 -0.00000000000E+00 -0.00000000000E+00 -0.30000000000E+02  0.30000000000E+02  0.00000000000E+00 0. -1.
          5    1    1    2  501    0 -0.76432291094E+01  0.60195250924E+01 -0.27986717679E+02  0.30000000000E+02  0.47000000000E+01 0. -1.
         -5    1    1    2    0  501  0.76432291094E+01 -0.60195250924E+01  0.27986717679E+02  0.30000000000E+02  0.47000000000E+01 0.  1.
</event>
<event>
 4    1  0.7580225E-002  0.6000000E+02  0.7546771E-02  0.1259629E+00
         11   -1    0    0    0    0  0.00000000000E+00  0.00000000000E+00  0.30000000000E+02  0.30000000000E+02  0.00000000000E+00 0. -1.
        -11   -1    0    0    0    0 -0.00000000000E+00 -0.00000000000E+00 -0.30000000000E+02  0.30000000000E+02  0.00000000000E+00 0.  1.
          5    1    1    2  501    0 -0.13914165888E+02 -0.90102083272E+00  0.26143721026E+02  0.30000000000E+02  0.47000000000E+01 0. -1.
         -5    1    1    2    0  501  0.13914165888E+02  0.90102083272E+00 -0.26143721026E+02  0.30000000000E+02  0.47000000000E+01 0.  1.
</event>
<event>
 4    1  0.7580225E-002  0.6000000E+02  0.7546771E-02  0.1259629E+00
         11   -1    0    0    0    0  0.00000000000E+00  0.00000000000E+00  0.30000000000E+02  0.30000000000E+02  0.00000000000E+00 0.  1.
        -11   -1    0    0    0    0 -0.00000000000E+00 -0.00000000000E+00 -0.30000000000E+02  0.30000000000E+02  0.00000000000E+00 0. -1.
          5    1    1    2  501    0  0.67630743449E+01 -0.22292220094E+02 -0.18309225780E+02  0.30000000000E+02  0.47000000000E+01 0. -1.
         -5    1    1    2    0  501 -0.67630743449E+01  0.22292220094E+02  0.18309225780E+02  0.30000000000E+02  0.47000000000E+01 0.  1.
</event>
<event>
 4    1  0.7580225E-002  0.6000000E+02  0.7546771E-02  0.1259629E+00
         11   -1    0    0    0    0  0.00000000000E+00  0.00000000000E+00  0.30000000000E+02  0.30000000000E+02  0.00000000000E+00 0. -1.
        -11   -1    0    0    0    0 -0.00000000000E+00 -0.00000000000E+00 -0.30000000000E+02  0.30000000000E+02  0.00000000000E+00 0.  1.
          5    1    1    2  501    0  0.11915117511E+02 -0.58729371091E+01 -0.26484874635E+02  0.30000000000E+02  0.47000000000E+01 0.  1.
         -5    1    1    2    0  501 -0.11915117511E+02  0.58729371091E+01  0.26484874635E+02  0.30000000000E+02  0.47000000000E+01 0. -1.
</event>
<event>
 4    1  0.7580225E-002  0.6000000E+02  0.7546771E-02  0.1259629E+00
         11   -1    0    0    0    0  0.00000000000E+00  0.00000000000E+00  0.30000000000E+02  0.30000000000E+02  0.00000000000E+00 0.  1.
        -11   -1    0    0    0    0 -0.00000000000E+00 -0.00000000000E+00 -0.30000000000E+02  0.30000000000E+02  0.00000000000E+00 0. -1.
          5    1    1    2  501    0 -0.14565054847E+02  0.21539149499E+02 -0.14206836951E+02  0.30000000000E+02  0.47000000000E+01 0. -1.
         -5    1    1    2    0  501  0.14565054847E+02 -0.21539149499E+02  0.14206836951E+02  0.30000000000E+02  0.47000000000E+01 0.  1.
</event>
<event>
 4    1  0.7580225E-002  0.6000000E+02  0.7546771E-02  0.1259629E+00
         11   -1    0    0    0    0  0.00000000000E+00  0.00000000000E+00  0.30000000000E+02  0.30000000000E+02  0.00000000000E+00 0.  1.
        -11   -1    0    0    0    0 -0.00000000000E+00 -0.00000000000E+00 -0.30000000000E+02  0.30000000000E+02  0.00000000000E+00 0. -1.
          5    1    1    2  501    0 -0.27933150289E+02  0.63670762664E+01  0.75570797753E+01  0.30000000000E+02  0.47000000000E+01 0.  1.
         -5    1    1    2    0  501  0.27933150289E+02 -0.63670762664E+01 -0.75570797753E+01  0.30000000000E+02  0.47000000000E+01 0. -1.
</event>
<event>
 4    1  0.7580225E-002  0.6000000E+02  0.7546771E-02  0.1259629E+00
         11   -1    0    0    0    0  0.00000000000E+00  0.00000000000E+00  0.30000000000E+02  0.30000000000E+02  0.00000000000E+00 0.  1.
        -11   -1    0    0    0    0 -0.00000000000E+00 -0.00000000000E+00 -0.30000000000E+02  0.30000000000E+02  0.00000000000E+00 0. -1.
          5    1    1    2  501    0  0.21875371113E+02 -0.11454324122E+02 -0.16376098363E+02  0.30000000000E+02  0.47000000000E+01 0. -1.
         -5    1    1    2    0  501 -0.21875371113E+02  0.11454324122E+02  0.16376098363E+02  0.30000000000E+02  0.47000000000E+01 0.  1.
</event>
<event>
 4    1  0.7580225E-002  0.6000000E+02  0.7546771E-02  0.1259629E+00
         11   -1    0    0    0    0  0.00000000000E+00  0.00000000000E+00  0.30000000000E+02  0.30000000000E+02  0.00000000000E+00 0. -1.
        -11   -1    0    0    0    0 -0.00000000000E+00 -0.00000000000E+00 -0.30000000000E+02  0.30000000000E+02  0.00000000000E+00 0.  1.
          5    1    1    2  501    0 -0.94435359309E+00 -0.29524972004E+02  0.23009181822E+01  0.30000000000E+02  0.47000000000E+01 0.  1.
         -5    1    1    2    0  501  0.94435359309E+00  0.29524972004E+02 -0.23009181822E+01  0.30000000000E+02  0.47000000000E+01 0. -1.
</event>
<event>
 4    1  0.7580225E-002  0.6000000E+02  0.7546771E-02  0.1259629E+00
         11   -1    0    0    0    0  0.00000000000E+00  0.00000000000E+00  0.30000000000E+02  0.30000000000E+02  0.00000000000E+00 0.  1.
        -11   -1    0    0    0    0 -0.00000000000E+00 -0.00000000000E+00 -0.30000000000E+02  0.30000000000E+02  0.00000000000E+00 0. -1.
          5    1    1    2  501    0 -0.14639559173E+02 -0.47863113593E+01 -0.25311746893E+02  0.30000000000E+02  0.47000000000E+01 0. -1.
         -5    1    1    2    0  501  0.14639559173E+02  0.47863113593E+01  0.25311746893E+02  0.30000000000E+02  0.47000000000E+01 0.  1.
</event>
<event>
 4    1  0.7580225E-002  0.6000000E+02  0.7546771E-02  0.1259629E+00
         11   -1    0    0    0    0  0.00000000000E+00  0.00000000000E+00  0.30000000000E+02  0.30000000000E+02  0.00000000000E+00 0.  1.
        -11   -1    0    0    0    0 -0.00000000000E+00 -0.00000000000E+00 -0.30000000000E+02  0.30000000000E+02  0.00000000000E+00 0. -1.
          5    1    1    2  501    0  0.45386934374E+01  0.63149591461E+01 -0.28590759921E+02  0.30000000000E+02  0.47000000000E+01 0. -1.
         -5    1    1    2    0  501 -0.45386934374E+01 -0.63149591461E+01  0.28590759921E+02  0.30000000000E+02  0.47000000000E+01 0.  1.
</event>
<event>
 4    1  0.7580225E-002  0.6000000E+02  0.7546771E-02  0.1259629E+00
         11   -1    0    0    0    0  0.00000000000E+00  0.00000000000E+00  0.30000000000E+02  0.30000000000E+02  0.00000000000E+00 0.  1.
        -11   -1    0    0    0    0 -0.00000000000E+00 -0.00000000000E+00 -0.30000000000E+02  0.30000000000E+02  0.00000000000E+00 0. -1.
          5    1    1    2  501    0  0.14546882511E+02  0.24072950223E+01 -0.25700255639E+02  0.30000000000E+02  0.47000000000E+01 0. -1.
         -5    1    1    2    0  501 -0.14546882511E+02 -0.24072950223E+01  0.25700255639E+02  0.30000000000E+02  0.47000000000E+01 0.  1.
</event>
<event>
 4    1  0.7580225E-002  0.6000000E+02  0.7546771E-02  0.1259629E+00
         11   -1    0    0    0    0  0.00000000000E+00  0.00000000000E+00  0.30000000000E+02  0.30000000000E+02  0.00000000000E+00 0.  1.
        -11   -1    0    0    0    0 -0.00000000000E+00 -0.00000000000E+00 -0.30000000000E+02  0.30000000000E+02  0.00000000000E+00 0. -1.
          5    1    1    2  501    0  0.14089214337E+02 -0.26064521946E+02  0.21150674101E+00  0.30000000000E+02  0.47000000000E+01 0. -1.
         -5    1    1    2    0  501 -0.14089214337E+02  0.26064521946E+02 -0.21150674101E+00  0.30000000000E+02  0.47000000000E+01 0.  1.
</event>
<event>
 4    1  0.7580225E-002  0.6000000E+02  0.7546771E-02  0.1259629E+00
         11   -1    0    0    0    0  0.00000000000E+00  0.00000000000E+00  0.30000000000E+02  0.30000000000E+02  0.00000000000E+00 0.  1.
        -11   -1    0    0    0    0 -0.00000000000E+00 -0.00000000000E+00 -0.30000000000E+02  0.30000000000E+02  0.00000000000E+00 0. -1.
          5    1    1    2  501    0  0.25958176858E+02  0.34113149037E+01  0.13872490218E+02  0.30000000000E+02  0.47000000000E+01 0.  1.
         -5    1    1    2    0  501 -0.25958176858E+02 -0.34113149037E+01 -0.13872490218E+02  0.30000000000E+02  0.47000000000E+01 0. -1.
</event>
<event>
 4    1  0.7580225E-002  0.6000000E+02  0.7546771E-02  0.1259629E+00
         11   -1    0    0    0    0  0.00000000000E+00  0.00000000000E+00  0.30000000000E+02  0.30000000000E+02  0.00000000000E+00 0.  1.
        -11   -1    0    0    0    0 -0.00000000000E+00 -0.00000000000E+00 -0.30000000000E+02  0.30000000000E+02  0.00000000000E+00 0. -1.
          5    1    1    2  501    0  0.24191920860E+02  0.91898670329E+01 -0.14429390459E+02  0.30000000000E+02  0.47000000000E+01 0. -1.
         -5    1    1    2    0  501 -0.24191920860E+02 -0.91898670329E+01  0.14429390459E+02  0.30000000000E+02  0.47000000000E+01 0.  1.
</event>
<event>
 4    1  0.7580225E-002  0.6000000E+02  0.7546771E-02  0.1259629E+00
         11   -1    0    0    0    0  0.00000000000E+00  0.00000000000E+00  0.30000000000E+02  0.30000000000E+02  0.00000000000E+00 0.  1.
        -11   -1    0    0    0    0 -0.00000000000E+00 -0.00000000000E+00 -0.30000000000E+02  0.30000000000E+02  0.00000000000E+00 0. -1.
          5    1    1    2  501    0 -0.25551853583E+02 -0.14243046205E+02 -0.47062100749E+01  0.30000000000E+02  0.47000000000E+01 0. -1.
         -5    1    1    2    0  501  0.25551853583E+02  0.14243046205E+02  0.47062100749E+01  0.30000000000E+02  0.47000000000E+01 0.  1.
</event>
<event>
 4    1  0.7580225E-002  0.6000000E+02  0.7546771E-02  0.1259629E+00
         11   -1    0    0    0    0  0.00000000000E+00  0.00000000000E+00  0.30000000000E+02  0.30000000000E+02  0.00000000000E+00 0.  1.
        -11   -1    0    0    0    0 -0.00000000000E+00 -0.00000000000E+00 -0.30000000000E+02  0.30000000000E+02  0.00000000000E+00 0. -1.
          5    1    1    2  501    0  0.28207493781E+01 -0.27957818093E+02 -0.93975411910E+01  0.30000000000E+02  0.47000000000E+01 0. -1.
         -5    1    1    2    0  501 -0.28207493781E+01  0.27957818093E+02  0.93975411910E+01  0.30000000000E+02  0.47000000000E+01 0.  1.
</event>
<event>
 4    1  0.7580225E-002  0.6000000E+02  0.7546771E-02  0.1259629E+00
         11   -1    0    0    0    0  0.00000000000E+00  0.00000000000E+00  0.30000000000E+02  0.30000000000E+02  0.00000000000E+00 0. -1.
        -11   -1    0    0    0    0 -0.00000000000E+00 -0.00000000000E+00 -0.30000000000E+02  0.30000000000E+02  0.00000000000E+00 0.  1.
          5    1    1    2  501    0  0.27552009380E+02  0.10079265459E+02 -0.41479135621E+01  0.30000000000E+02  0.47000000000E+01 0.  1.
         -5    1    1    2    0  501 -0.27552009380E+02 -0.10079265459E+02  0.41479135621E+01  0.30000000000E+02  0.47000000000E+01 0. -1.
</event>
<event>
 4    1  0.7580225E-002  0.6000000E+02  0.7546771E-02  0.1259629E+00
         11   -1    0    0    0    0  0.00000000000E+00  0.00000000000E+00  0.30000000000E+02  0.30000000000E+02  0.00000000000E+00 0.  1.
        -11   -1    0    0    0    0 -0.00000000000E+00 -0.00000000000E+00 -0.30000000000E+02  0.30000000000E+02  0.00000000000E+00 0. -1.
          5    1    1    2  501    0 -0.22634253807E+02  0.77590565699E+01  0.17475628622E+02  0.30000000000E+02  0.47000000000E+01 0. -1.
         -5    1    1    2    0  501  0.22634253807E+02 -0.77590565699E+01 -0.17475628622E+02  0.30000000000E+02  0.47000000000E+01 0.  1.
</event>
<event>
 4    1  0.7580225E-002  0.6000000E+02  0.7546771E-02  0.1259629E+00
         11   -1    0    0    0    0  0.00000000000E+00  0.00000000000E+00  0.30000000000E+02  0.30000000000E+02  0.00000000000E+00 0.  1.
        -11   -1    0    0    0    0 -0.00000000000E+00 -0.00000000000E+00 -0.30000000000E+02  0.30000000000E+02  0.00000000000E+00 0. -1.
          5    1    1    2  501    0 -0.54898987145E+01  0.17871007783E+02 -0.22986911339E+02  0.30000000000E+02  0.47000000000E+01 0.  1.
         -5    1    1    2    0  501  0.54898987145E+01 -0.17871007783E+02  0.22986911339E+02  0.30000000000E+02  0.47000000000E+01 0.  1.
</event>
<event>
 4    1  0.7580225E-002  0.6000000E+02  0.7546771E-02  0.1259629E+00
         11   -1    0    0    0    0  0.00000000000E+00  0.00000000000E+00  0.30000000000E+02  0.30000000000E+02  0.00000000000E+00 0.  1.
        -11   -1    0    0    0    0 -0.00000000000E+00 -0.00000000000E+00 -0.30000000000E+02  0.30000000000E+02  0.00000000000E+00 0. -1.
          5    1    1    2  501    0  0.10490800118E+02 -0.27634260450E+02  0.20495761202E+01  0.30000000000E+02  0.47000000000E+01 0. -1.
         -5    1    1    2    0  501 -0.10490800118E+02  0.27634260450E+02 -0.20495761202E+01  0.30000000000E+02  0.47000000000E+01 0.  1.
</event>
<event>
 4    1  0.7580225E-002  0.6000000E+02  0.7546771E-02  0.1259629E+00
         11   -1    0    0    0    0  0.00000000000E+00  0.00000000000E+00  0.30000000000E+02  0.30000000000E+02  0.00000000000E+00 0.  1.
        -11   -1    0    0    0    0 -0.00000000000E+00 -0.00000000000E+00 -0.30000000000E+02  0.30000000000E+02  0.00000000000E+00 0. -1.
          5    1    1    2  501    0 -0.69003003211E+01  0.29012594645E+00 -0.28813394149E+02  0.30000000000E+02  0.47000000000E+01 0. -1.
         -5    1    1    2    0  501  0.69003003211E+01 -0.29012594645E+00  0.28813394149E+02  0.30000000000E+02  0.47000000000E+01 0.  1.
</event>
<event>
 4    1  0.7580225E-002  0.6000000E+02  0.7546771E-02  0.1259629E+00
         11   -1    0    0    0    0  0.00000000000E+00  0.00000000000E+00  0.30000000000E+02  0.30000000000E+02  0.00000000000E+00 0.  1.
        -11   -1    0    0    0    0 -0.00000000000E+00 -0.00000000000E+00 -0.30000000000E+02  0.30000000000E+02  0.00000000000E+00 0. -1.
          5    1    1    2  501    0 -0.14414801699E+02  0.20547458229E+01 -0.25805067556E+02  0.30000000000E+02  0.47000000000E+01 0. -1.
         -5    1    1    2    0  501  0.14414801699E+02 -0.20547458229E+01  0.25805067556E+02  0.30000000000E+02  0.47000000000E+01 0.  1.
</event>
<event>
 4    1  0.7580225E-002  0.6000000E+02  0.7546771E-02  0.1259629E+00
         11   -1    0    0    0    0  0.00000000000E+00  0.00000000000E+00  0.30000000000E+02  0.30000000000E+02  0.00000000000E+00 0.  1.
        -11   -1    0    0    0    0 -0.00000000000E+00 -0.00000000000E+00 -0.30000000000E+02  0.30000000000E+02  0.00000000000E+00 0. -1.
          5    1    1    2  501    0  0.17233001336E+02  0.10939392354E+02 -0.21477042624E+02  0.30000000000E+02  0.47000000000E+01 0. -1.
         -5    1    1    2    0  501 -0.17233001336E+02 -0.10939392354E+02  0.21477042624E+02  0.30000000000E+02  0.47000000000E+01 0.  1.
</event>
<event>
 4    1  0.7580225E-002  0.6000000E+02  0.7546771E-02  0.1259629E+00
         11   -1    0    0    0    0  0.00000000000E+00  0.00000000000E+00  0.30000000000E+02  0.30000000000E+02  0.00000000000E+00 0. -1.
        -11   -1    0    0    0    0 -0.00000000000E+00 -0.00000000000E+00 -0.30000000000E+02  0.30000000000E+02  0.00000000000E+00 0.  1.
          5    1    1    2  501    0  0.27617315575E+02 -0.10593554150E+02  0.17235112149E+01  0.30000000000E+02  0.47000000000E+01 0.  1.
         -5    1    1    2    0  501 -0.27617315575E+02  0.10593554150E+02 -0.17235112149E+01  0.30000000000E+02  0.47000000000E+01 0. -1.
</event>
<event>
 4    1  0.7580225E-002  0.6000000E+02  0.7546771E-02  0.1259629E+00
         11   -1    0    0    0    0  0.00000000000E+00  0.00000000000E+00  0.30000000000E+02  0.30000000000E+02  0.00000000000E+00 0.  1.
        -11   -1    0    0    0    0 -0.00000000000E+00 -0.00000000000E+00 -0.30000000000E+02  0.30000000000E+02  0.00000000000E+00 0. -1.
          5    1    1    2  501    0 -0.15095377349E+01  0.29237300755E+02  0.45619667248E+01  0.30000000000E+02  0.47000000000E+01 0. -1.
         -5    1    1    2    0  501  0.15095377349E+01 -0.29237300755E+02 -0.45619667248E+01  0.30000000000E+02  0.47000000000E+01 0.  1.
</event>
<event>
 4    1  0.7580225E-002  0.6000000E+02  0.7546771E-02  0.1259629E+00
         11   -1    0    0    0    0  0.00000000000E+00  0.00000000000E+00  0.30000000000E+02  0.30000000000E+02  0.00000000000E+00 0.  1.
        -11   -1    0    0    0    0 -0.00000000000E+00 -0.00000000000E+00 -0.30000000000E+02  0.30000000000E+02  0.00000000000E+00 0. -1.
          5    1    1    2  501    0 -0.24349422985E+02 -0.10035920804E+02 -0.13575562379E+02  0.30000000000E+02  0.47000000000E+01 0. -1.
         -5    1    1    2    0  501  0.24349422985E+02  0.10035920804E+02  0.13575562379E+02  0.30000000000E+02  0.47000000000E+01 0.  1.
</event>
<event>
 4    1  0.7580225E-002  0.6000000E+02  0.7546771E-02  0.1259629E+00
         11   -1    0    0    0    0  0.00000000000E+00  0.00000000000E+00  0.30000000000E+02  0.30000000000E+02  0.00000000000E+00 0.  1.
        -11   -1    0    0    0    0 -0.00000000000E+00 -0.00000000000E+00 -0.30000000000E+02  0.30000000000E+02  0.00000000000E+00 0. -1.
          5    1    1    2  501    0  0.23255082769E+02  0.12043888219E+02 -0.13858422781E+02  0.30000000000E+02  0.47000000000E+01 0. -1.
         -5    1    1    2    0  501 -0.23255082769E+02 -0.12043888219E+02  0.13858422781E+02  0.30000000000E+02  0.47000000000E+01 0.  1.
</event>
<event>
 4    1  0.7580225E-002  0.6000000E+02  0.7546771E-02  0.1259629E+00
         11   -1    0    0    0    0  0.00000000000E+00  0.00000000000E+00  0.30000000000E+02  0.30000000000E+02  0.00000000000E+00 0. -1.
        -11   -1    0    0    0    0 -0.00000000000E+00 -0.00000000000E+00 -0.30000000000E+02  0.30000000000E+02  0.00000000000E+00 0.  1.
          5    1    1    2  501    0  0.39734246573E+01  0.19145001138E+02 -0.22261869371E+02  0.30000000000E+02  0.47000000000E+01 0.  1.
         -5    1    1    2    0  501 -0.39734246573E+01 -0.19145001138E+02  0.22261869371E+02  0.30000000000E+02  0.47000000000E+01 0. -1.
</event>
<event>
 4    1  0.7580225E-002  0.6000000E+02  0.7546771E-02  0.1259629E+00
         11   -1    0    0    0    0  0.00000000000E+00  0.00000000000E+00  0.30000000000E+02  0.30000000000E+02  0.00000000000E+00 0.  1.
        -11   -1    0    0    0    0 -0.00000000000E+00 -0.00000000000E+00 -0.30000000000E+02  0.30000000000E+02  0.00000000000E+00 0. -1.
          5    1    1    2  501    0  0.27545625616E+02  0.10879517574E+02  0.88578033111E+00  0.30000000000E+02  0.47000000000E+01 0. -1.
         -5    1    1    2    0  501 -0.27545625616E+02 -0.10879517574E+02 -0.88578033111E+00  0.30000000000E+02  0.47000000000E+01 0.  1.
</event>
<event>
 4    1  0.7580225E-002  0.6000000E+02  0.7546771E-02  0.1259629E+00
         11   -1    0    0    0    0  0.00000000000E+00  0.00000000000E+00  0.30000000000E+02  0.30000000000E+02  0.00000000000E+00 0.  1.
        -11   -1    0    0    0    0 -0.00000000000E+00 -0.00000000000E+00 -0.30000000000E+02  0.30000000000E+02  0.00000000000E+00 0. -1.
          5    1    1    2  501    0 -0.24910838273E+02 -0.11060076322E+02 -0.11620449572E+02  0.30000000000E+02  0.47000000000E+01 0. -1.
         -5    1    1    2    0  501  0.24910838273E+02  0.11060076322E+02  0.11620449572E+02  0.30000000000E+02  0.47000000000E+01 0.  1.
</event>
<event>
 4    1  0.7580225E-002  0.6000000E+02  0.7546771E-02  0.1259629E+00
         11   -1    0    0    0    0  0.00000000000E+00  0.00000000000E+00  0.30000000000E+02  0.30000000000E+02  0.00000000000E+00 0.  1.
        -11   -1    0    0    0    0 -0.00000000000E+00 -0.00000000000E+00 -0.30000000000E+02  0.30000000000E+02  0.00000000000E+00 0. -1.
          5    1    1    2  501    0 -0.16574026952E+02 -0.20544821497E+02 -0.13458155157E+02  0.30000000000E+02  0.47000000000E+01 0. -1.
         -5    1    1    2    0  501  0.16574026952E+02  0.20544821497E+02  0.13458155157E+02  0.30000000000E+02  0.47000000000E+01 0.  1.
</event>
<event>
 4    1  0.7580225E-002  0.6000000E+02  0.7546771E-02  0.1259629E+00
         11   -1    0    0    0    0  0.00000000000E+00  0.00000000000E+00  0.30000000000E+02  0.30000000000E+02  0.00000000000E+00 0.  1.
        -11   -1    0    0    0    0 -0.00000000000E+00 -0.00000000000E+00 -0.30000000000E+02  0.30000000000E+02  0.00000000000E+00 0. -1.
          5    1    1    2  501    0 -0.17036218976E+02 -0.26491892753E+01 -0.24096867830E+02  0.30000000000E+02  0.47000000000E+01 0. -1.
         -5    1    1    2    0  501  0.17036218976E+02  0.26491892753E+01  0.24096867830E+02  0.30000000000E+02  0.47000000000E+01 0.  1.
</event>
<event>
 4    1  0.7580225E-002  0.6000000E+02  0.7546771E-02  0.1259629E+00
         11   -1    0    0    0    0  0.00000000000E+00  0.00000000000E+00  0.30000000000E+02  0.30000000000E+02  0.00000000000E+00 0.  1.
        -11   -1    0    0    0    0 -0.00000000000E+00 -0.00000000000E+00 -0.30000000000E+02  0.30000000000E+02  0.00000000000E+00 0. -1.
          5    1    1    2  501    0 -0.24024628242E+02  0.33352758297E+01 -0.17017731135E+02  0.30000000000E+02  0.47000000000E+01 0. -1.
         -5    1    1    2    0  501  0.24024628242E+02 -0.33352758297E+01  0.17017731135E+02  0.30000000000E+02  0.47000000000E+01 0.  1.
</event>
<event>
 4    1  0.7580225E-002  0.6000000E+02  0.7546771E-02  0.1259629E+00
         11   -1    0    0    0    0  0.00000000000E+00  0.00000000000E+00  0.30000000000E+02  0.30000000000E+02  0.00000000000E+00 0.  1.
        -11   -1    0    0    0    0 -0.00000000000E+00 -0.00000000000E+00 -0.30000000000E+02  0.30000000000E+02  0.00000000000E+00 0. -1.
          5    1    1    2  501    0  0.15950764561E+02  0.29113046871E+00 -0.24967946511E+02  0.30000000000E+02  0.47000000000E+01 0. -1.
         -5    1    1    2    0  501 -0.15950764561E+02 -0.29113046871E+00  0.24967946511E+02  0.30000000000E+02  0.47000000000E+01 0.  1.
</event>
<event>
 4    1  0.7580225E-002  0.6000000E+02  0.7546771E-02  0.1259629E+00
         11   -1    0    0    0    0  0.00000000000E+00  0.00000000000E+00  0.30000000000E+02  0.30000000000E+02  0.00000000000E+00 0.  1.
        -11   -1    0    0    0    0 -0.00000000000E+00 -0.00000000000E+00 -0.30000000000E+02  0.30000000000E+02  0.00000000000E+00 0. -1.
          5    1    1    2  501    0 -0.75768367897E+01 -0.12106566657E+02 -0.25960211633E+02  0.30000000000E+02  0.47000000000E+01 0. -1.
         -5    1    1    2    0  501  0.75768367897E+01  0.12106566657E+02  0.25960211633E+02  0.30000000000E+02  0.47000000000E+01 0.  1.
</event>
<event>
 4    1  0.7580225E-002  0.6000000E+02  0.7546771E-02  0.1259629E+00
         11   -1    0    0    0    0  0.00000000000E+00  0.00000000000E+00  0.30000000000E+02  0.30000000000E+02  0.00000000000E+00 0. -1.
        -11   -1    0    0    0    0 -0.00000000000E+00 -0.00000000000E+00 -0.30000000000E+02  0.30000000000E+02  0.00000000000E+00 0.  1.
          5    1    1    2  501    0 -0.36639508253E+01  0.17518543131E+02 -0.23613261336E+02  0.30000000000E+02  0.47000000000E+01 0.  1.
         -5    1    1    2    0  501  0.36639508253E+01 -0.17518543131E+02  0.23613261336E+02  0.30000000000E+02  0.47000000000E+01 0. -1.
</event>
<event>
 4    1  0.7580225E-002  0.6000000E+02  0.7546771E-02  0.1259629E+00
         11   -1    0    0    0    0  0.00000000000E+00  0.00000000000E+00  0.30000000000E+02  0.30000000000E+02  0.00000000000E+00 0.  1.
        -11   -1    0    0    0    0 -0.00000000000E+00 -0.00000000000E+00 -0.30000000000E+02  0.30000000000E+02  0.00000000000E+00 0. -1.
          5    1    1    2  501    0 -0.14600976241E+02  0.12961805251E+02 -0.22287061212E+02  0.30000000000E+02  0.47000000000E+01 0. -1.
         -5    1    1    2    0  501  0.14600976241E+02 -0.12961805251E+02  0.22287061212E+02  0.30000000000E+02  0.47000000000E+01 0.  1.
</event>
<event>
 4    1  0.7580225E-002  0.6000000E+02  0.7546771E-02  0.1259629E+00
         11   -1    0    0    0    0  0.00000000000E+00  0.00000000000E+00  0.30000000000E+02  0.30000000000E+02  0.00000000000E+00 0.  1.
        -11   -1    0    0    0    0 -0.00000000000E+00 -0.00000000000E+00 -0.30000000000E+02  0.30000000000E+02  0.00000000000E+00 0. -1.
          5    1    1    2  501    0 -0.56678091623E+01  0.17767742240E+02 -0.23023754581E+02  0.30000000000E+02  0.47000000000E+01 0. -1.
         -5    1    1    2    0  501  0.56678091623E+01 -0.17767742240E+02  0.23023754581E+02  0.30000000000E+02  0.47000000000E+01 0.  1.
</event>
<event>
 4    1  0.7580225E-002  0.6000000E+02  0.7546771E-02  0.1259629E+00
         11   -1    0    0    0    0  0.00000000000E+00  0.00000000000E+00  0.30000000000E+02  0.30000000000E+02  0.00000000000E+00 0.  1.
        -11   -1    0    0    0    0 -0.00000000000E+00 -0.00000000000E+00 -0.30000000000E+02  0.30000000000E+02  0.00000000000E+00 0. -1.
          5    1    1    2  501    0 -0.99833100871E+01 -0.48009577076E+01 -0.27480799202E+02  0.30000000000E+02  0.47000000000E+01 0. -1.
         -5    1    1    2    0  501  0.99833100871E+01  0.48009577076E+01  0.27480799202E+02  0.30000000000E+02  0.47000000000E+01 0.  1.
</event>
<event>
 4    1  0.7580225E-002  0.6000000E+02  0.7546771E-02  0.1259629E+00
         11   -1    0    0    0    0  0.00000000000E+00  0.00000000000E+00  0.30000000000E+02  0.30000000000E+02  0.00000000000E+00 0. -1.
        -11   -1    0    0    0    0 -0.00000000000E+00 -0.00000000000E+00 -0.30000000000E+02  0.30000000000E+02  0.00000000000E+00 0.  1.
          5    1    1    2  501    0  0.77288843367E+01  0.20451063116E+02 -0.19998209028E+02  0.30000000000E+02  0.47000000000E+01 0.  1.
         -5    1    1    2    0  501 -0.77288843367E+01 -0.20451063116E+02  0.19998209028E+02  0.30000000000E+02  0.47000000000E+01 0. -1.
</event>
<event>
 4    1  0.7580225E-002  0.6000000E+02  0.7546771E-02  0.1259629E+00
         11   -1    0    0    0    0  0.00000000000E+00  0.00000000000E+00  0.30000000000E+02  0.30000000000E+02  0.00000000000E+00 0.  1.
        -11   -1    0    0    0    0 -0.00000000000E+00 -0.00000000000E+00 -0.30000000000E+02  0.30000000000E+02  0.00000000000E+00 0. -1.
          5    1    1    2  501    0 -0.28159250180E+02  0.78720725699E+01 -0.47955294536E+01  0.30000000000E+02  0.47000000000E+01 0. -1.
         -5    1    1    2    0  501  0.28159250180E+02 -0.78720725699E+01  0.47955294536E+01  0.30000000000E+02  0.47000000000E+01 0.  1.
</event>
<event>
 4    1  0.7580225E-002  0.6000000E+02  0.7546771E-02  0.1259629E+00
         11   -1    0    0    0    0  0.00000000000E+00  0.00000000000E+00  0.30000000000E+02  0.30000000000E+02  0.00000000000E+00 0.  1.
        -11   -1    0    0    0    0 -0.00000000000E+00 -0.00000000000E+00 -0.30000000000E+02  0.30000000000E+02  0.00000000000E+00 0. -1.
          5    1    1    2  501    0 -0.26873039930E+02  0.53231139818E+01  0.11287789086E+02  0.30000000000E+02  0.47000000000E+01 0. -1.
         -5    1    1    2    0  501  0.26873039930E+02 -0.53231139818E+01 -0.11287789086E+02  0.30000000000E+02  0.47000000000E+01 0.  1.
</event>
<event>
 4    1  0.7580225E-002  0.6000000E+02  0.7546771E-02  0.1259629E+00
         11   -1    0    0    0    0  0.00000000000E+00  0.00000000000E+00  0.30000000000E+02  0.30000000000E+02  0.00000000000E+00 0.  1.
        -11   -1    0    0    0    0 -0.00000000000E+00 -0.00000000000E+00 -0.30000000000E+02  0.30000000000E+02  0.00000000000E+00 0. -1.
          5    1    1    2  501    0 -0.18547551461E+02  0.21897930895E+02 -0.73742089291E+01  0.30000000000E+02  0.47000000000E+01 0.  1.
         -5    1    1    2    0  501  0.18547551461E+02 -0.21897930895E+02  0.73742089291E+01  0.30000000000E+02  0.47000000000E+01 0.  1.
</event>
<event>
 4    1  0.7580225E-002  0.6000000E+02  0.7546771E-02  0.1259629E+00
         11   -1    0    0    0    0  0.00000000000E+00  0.00000000000E+00  0.30000000000E+02  0.30000000000E+02  0.00000000000E+00 0.  1.
        -11   -1    0    0    0    0 -0.00000000000E+00 -0.00000000000E+00 -0.30000000000E+02  0.30000000000E+02  0.00000000000E+00 0. -1.
          5    1    1    2  501    0  0.74211406221E+01  0.15599690924E+02  0.24072521990E+02  0.30000000000E+02  0.47000000000E+01 0.  1.
         -5    1    1    2    0  501 -0.74211406221E+01 -0.15599690924E+02 -0.24072521990E+02  0.30000000000E+02  0.47000000000E+01 0. -1.
</event>
<event>
 4    1  0.7580225E-002  0.6000000E+02  0.7546771E-02  0.1259629E+00
         11   -1    0    0    0    0  0.00000000000E+00  0.00000000000E+00  0.30000000000E+02  0.30000000000E+02  0.00000000000E+00 0. -1.
        -11   -1    0    0    0    0 -0.00000000000E+00 -0.00000000000E+00 -0.30000000000E+02  0.30000000000E+02  0.00000000000E+00 0.  1.
          5    1    1    2  501    0  0.26900160562E+02  0.60216332110E+01 -0.10864220874E+02  0.30000000000E+02  0.47000000000E+01 0.  1.
         -5    1    1    2    0  501 -0.26900160562E+02 -0.60216332110E+01  0.10864220874E+02  0.30000000000E+02  0.47000000000E+01 0. -1.
</event>
<event>
 4    1  0.7580225E-002  0.6000000E+02  0.7546771E-02  0.1259629E+00
         11   -1    0    0    0    0  0.00000000000E+00  0.00000000000E+00  0.30000000000E+02  0.30000000000E+02  0.00000000000E+00 0.  1.
        -11   -1    0    0    0    0 -0.00000000000E+00 -0.00000000000E+00 -0.30000000000E+02  0.30000000000E+02  0.00000000000E+00 0. -1.
          5    1    1    2  501    0 -0.15393703476E+02  0.12613109419E+02 -0.21951158604E+02  0.30000000000E+02  0.47000000000E+01 0. -1.
         -5    1    1    2    0  501  0.15393703476E+02 -0.12613109419E+02  0.21951158604E+02  0.30000000000E+02  0.47000000000E+01 0.  1.
</event>
<event>
 4    1  0.7580225E-002  0.6000000E+02  0.7546771E-02  0.1259629E+00
         11   -1    0    0    0    0  0.00000000000E+00  0.00000000000E+00  0.30000000000E+02  0.30000000000E+02  0.00000000000E+00 0.  1.
        -11   -1    0    0    0    0 -0.00000000000E+00 -0.00000000000E+00 -0.30000000000E+02  0.30000000000E+02  0.00000000000E+00 0. -1.
          5    1    1    2  501    0  0.10958908747E+02 -0.12317896121E+02 -0.24618727714E+02  0.30000000000E+02  0.47000000000E+01 0. -1.
         -5    1    1    2    0  501 -0.10958908747E+02  0.12317896121E+02  0.24618727714E+02  0.30000000000E+02  0.47000000000E+01 0.  1.
</event>
<event>
 4    1  0.7580225E-002  0.6000000E+02  0.7546771E-02  0.1259629E+00
         11   -1    0    0    0    0  0.00000000000E+00  0.00000000000E+00  0.30000000000E+02  0.30000000000E+02  0.00000000000E+00 0. -1.
        -11   -1    0    0    0    0 -0.00000000000E+00 -0.00000000000E+00 -0.30000000000E+02  0.30000000000E+02  0.00000000000E+00 0.  1.
          5    1    1    2  501    0  0.24208129128E+02  0.19043270123E+01  0.16977927517E+02  0.30000000000E+02  0.47000000000E+01 0. -1.
         -5    1    1    2    0  501 -0.24208129128E+02 -0.19043270123E+01 -0.16977927517E+02  0.30000000000E+02  0.47000000000E+01 0.  1.
</event>
<event>
 4    1  0.7580225E-002  0.6000000E+02  0.7546771E-02  0.1259629E+00
         11   -1    0    0    0    0  0.00000000000E+00  0.00000000000E+00  0.30000000000E+02  0.30000000000E+02  0.00000000000E+00 0.  1.
        -11   -1    0    0    0    0 -0.00000000000E+00 -0.00000000000E+00 -0.30000000000E+02  0.30000000000E+02  0.00000000000E+00 0. -1.
          5    1    1    2  501    0  0.25435712405E+02  0.32410645623E+01 -0.14846886372E+02  0.30000000000E+02  0.47000000000E+01 0. -1.
         -5    1    1    2    0  501 -0.25435712405E+02 -0.32410645623E+01  0.14846886372E+02  0.30000000000E+02  0.47000000000E+01 0.  1.
</event>
<event>
 4    1  0.7580225E-002  0.6000000E+02  0.7546771E-02  0.1259629E+00
         11   -1    0    0    0    0  0.00000000000E+00  0.00000000000E+00  0.30000000000E+02  0.30000000000E+02  0.00000000000E+00 0.  1.
        -11   -1    0    0    0    0 -0.00000000000E+00 -0.00000000000E+00 -0.30000000000E+02  0.30000000000E+02  0.00000000000E+00 0. -1.
          5    1    1    2  501    0 -0.96488123336E+00  0.10205377359E+02 -0.27799807143E+02  0.30000000000E+02  0.47000000000E+01 0. -1.
         -5    1    1    2    0  501  0.96488123336E+00 -0.10205377359E+02  0.27799807143E+02  0.30000000000E+02  0.47000000000E+01 0.  1.
</event>
<event>
 4    1  0.7580225E-002  0.6000000E+02  0.7546771E-02  0.1259629E+00
         11   -1    0    0    0    0  0.00000000000E+00  0.00000000000E+00  0.30000000000E+02  0.30000000000E+02  0.00000000000E+00 0.  1.
        -11   -1    0    0    0    0 -0.00000000000E+00 -0.00000000000E+00 -0.30000000000E+02  0.30000000000E+02  0.00000000000E+00 0. -1.
          5    1    1    2  501    0 -0.16306230534E+02  0.20890878857E+02 -0.13250963224E+02  0.30000000000E+02  0.47000000000E+01 0. -1.
         -5    1    1    2    0  501  0.16306230534E+02 -0.20890878857E+02  0.13250963224E+02  0.30000000000E+02  0.47000000000E+01 0.  1.
</event>
<event>
 4    1  0.7580225E-002  0.6000000E+02  0.7546771E-02  0.1259629E+00
         11   -1    0    0    0    0  0.00000000000E+00  0.00000000000E+00  0.30000000000E+02  0.30000000000E+02  0.00000000000E+00 0. -1.
        -11   -1    0    0    0    0 -0.00000000000E+00 -0.00000000000E+00 -0.30000000000E+02  0.30000000000E+02  0.00000000000E+00 0.  1.
          5    1    1    2  501    0 -0.11959103909E+02 -0.16270736763E+01 -0.27059979027E+02  0.30000000000E+02  0.47000000000E+01 0.  1.
         -5    1    1    2    0  501  0.11959103909E+02  0.16270736763E+01  0.27059979027E+02  0.30000000000E+02  0.47000000000E+01 0. -1.
</event>
<event>
 4    1  0.7580225E-002  0.6000000E+02  0.7546771E-02  0.1259629E+00
         11   -1    0    0    0    0  0.00000000000E+00  0.00000000000E+00  0.30000000000E+02  0.30000000000E+02  0.00000000000E+00 0.  1.
        -11   -1    0    0    0    0 -0.00000000000E+00 -0.00000000000E+00 -0.30000000000E+02  0.30000000000E+02  0.00000000000E+00 0. -1.
          5    1    1    2  501    0  0.19448240675E+01 -0.26364976449E+02  0.13379673993E+02  0.30000000000E+02  0.47000000000E+01 0. -1.
         -5    1    1    2    0  501 -0.19448240675E+01  0.26364976449E+02 -0.13379673993E+02  0.30000000000E+02  0.47000000000E+01 0.  1.
</event>
<event>
 4    1  0.7580225E-002  0.6000000E+02  0.7546771E-02  0.1259629E+00
         11   -1    0    0    0    0  0.00000000000E+00  0.00000000000E+00  0.30000000000E+02  0.30000000000E+02  0.00000000000E+00 0.  1.
        -11   -1    0    0    0    0 -0.00000000000E+00 -0.00000000000E+00 -0.30000000000E+02  0.30000000000E+02  0.00000000000E+00 0. -1.
          5    1    1    2  501    0  0.32176111984E+01  0.29371362228E+02 -0.22090855622E+01  0.30000000000E+02  0.47000000000E+01 0. -1.
         -5    1    1    2    0  501 -0.32176111984E+01 -0.29371362228E+02  0.22090855622E+01  0.30000000000E+02  0.47000000000E+01 0.  1.
</event>
<event>
 4    1  0.7580225E-002  0.6000000E+02  0.7546771E-02  0.1259629E+00
         11   -1    0    0    0    0  0.00000000000E+00  0.00000000000E+00  0.30000000000E+02  0.30000000000E+02  0.00000000000E+00 0. -1.
        -11   -1    0    0    0    0 -0.00000000000E+00 -0.00000000000E+00 -0.30000000000E+02  0.30000000000E+02  0.00000000000E+00 0.  1.
          5    1    1    2  501    0  0.51938361867E+01  0.22086830953E+02 -0.19055339517E+02  0.30000000000E+02  0.47000000000E+01 0.  1.
         -5    1    1    2    0  501 -0.51938361867E+01 -0.22086830953E+02  0.19055339517E+02  0.30000000000E+02  0.47000000000E+01 0. -1.
</event>
<event>
 4    1  0.7580225E-002  0.6000000E+02  0.7546771E-02  0.1259629E+00
         11   -1    0    0    0    0  0.00000000000E+00  0.00000000000E+00  0.30000000000E+02  0.30000000000E+02  0.00000000000E+00 0.  1.
        -11   -1    0    0    0    0 -0.00000000000E+00 -0.00000000000E+00 -0.30000000000E+02  0.30000000000E+02  0.00000000000E+00 0. -1.
          5    1    1    2  501    0  0.27653759547E+02 -0.89520801396E+01  0.57480295847E+01  0.30000000000E+02  0.47000000000E+01 0. -1.
         -5    1    1    2    0  501 -0.27653759547E+02  0.89520801396E+01 -0.57480295847E+01  0.30000000000E+02  0.47000000000E+01 0.  1.
</event>
<event>
 4    1  0.7580225E-002  0.6000000E+02  0.7546771E-02  0.1259629E+00
         11   -1    0    0    0    0  0.00000000000E+00  0.00000000000E+00  0.30000000000E+02  0.30000000000E+02  0.00000000000E+00 0. -1.
        -11   -1    0    0    0    0 -0.00000000000E+00 -0.00000000000E+00 -0.30000000000E+02  0.30000000000E+02  0.00000000000E+00 0.  1.
          5    1    1    2  501    0 -0.13719258171E+02  0.28006167336E+01 -0.26112228958E+02  0.30000000000E+02  0.47000000000E+01 0.  1.
         -5    1    1    2    0  501  0.13719258171E+02 -0.28006167336E+01  0.26112228958E+02  0.30000000000E+02  0.47000000000E+01 0. -1.
</event>
<event>
 4    1  0.7580225E-002  0.6000000E+02  0.7546771E-02  0.1259629E+00
         11   -1    0    0    0    0  0.00000000000E+00  0.00000000000E+00  0.30000000000E+02  0.30000000000E+02  0.00000000000E+00 0.  1.
        -11   -1    0    0    0    0 -0.00000000000E+00 -0.00000000000E+00 -0.30000000000E+02  0.30000000000E+02  0.00000000000E+00 0. -1.
          5    1    1    2  501    0  0.30507060990E+01  0.28949962917E+02 -0.55229375691E+01  0.30000000000E+02  0.47000000000E+01 0. -1.
         -5    1    1    2    0  501 -0.30507060990E+01 -0.28949962917E+02  0.55229375691E+01  0.30000000000E+02  0.47000000000E+01 0.  1.
</event>
<event>
 4    1  0.7580225E-002  0.6000000E+02  0.7546771E-02  0.1259629E+00
         11   -1    0    0    0    0  0.00000000000E+00  0.00000000000E+00  0.30000000000E+02  0.30000000000E+02  0.00000000000E+00 0. -1.
        -11   -1    0    0    0    0 -0.00000000000E+00 -0.00000000000E+00 -0.30000000000E+02  0.30000000000E+02  0.00000000000E+00 0.  1.
          5    1    1    2  501    0  0.22041999949E+02 -0.19000587895E+02 -0.55711666535E+01  0.30000000000E+02  0.47000000000E+01 0.  1.
         -5    1    1    2    0  501 -0.22041999949E+02  0.19000587895E+02  0.55711666535E+01  0.30000000000E+02  0.47000000000E+01 0. -1.
</event>
<event>
 4    1  0.7580225E-002  0.6000000E+02  0.7546771E-02  0.1259629E+00
         11   -1    0    0    0    0  0.00000000000E+00  0.00000000000E+00  0.30000000000E+02  0.30000000000E+02  0.00000000000E+00 0.  1.
        -11   -1    0    0    0    0 -0.00000000000E+00 -0.00000000000E+00 -0.30000000000E+02  0.30000000000E+02  0.00000000000E+00 0. -1.
          5    1    1    2  501    0 -0.15341826267E+02  0.25091998324E+02 -0.35958290953E+01  0.30000000000E+02  0.47000000000E+01 0. -1.
         -5    1    1    2    0  501  0.15341826267E+02 -0.25091998324E+02  0.35958290953E+01  0.30000000000E+02  0.47000000000E+01 0.  1.
</event>
<event>
 4    1  0.7580225E-002  0.6000000E+02  0.7546771E-02  0.1259629E+00
         11   -1    0    0    0    0  0.00000000000E+00  0.00000000000E+00  0.30000000000E+02  0.30000000000E+02  0.00000000000E+00 0.  1.
        -11   -1    0    0    0    0 -0.00000000000E+00 -0.00000000000E+00 -0.30000000000E+02  0.30000000000E+02  0.00000000000E+00 0. -1.
          5    1    1    2  501    0  0.10187762061E+02 -0.26646352263E+02 -0.80057114147E+01  0.30000000000E+02  0.47000000000E+01 0. -1.
         -5    1    1    2    0  501 -0.10187762061E+02  0.26646352263E+02  0.80057114147E+01  0.30000000000E+02  0.47000000000E+01 0.  1.
</event>
<event>
 4    1  0.7580225E-002  0.6000000E+02  0.7546771E-02  0.1259629E+00
         11   -1    0    0    0    0  0.00000000000E+00  0.00000000000E+00  0.30000000000E+02  0.30000000000E+02  0.00000000000E+00 0.  1.
        -11   -1    0    0    0    0 -0.00000000000E+00 -0.00000000000E+00 -0.30000000000E+02  0.30000000000E+02  0.00000000000E+00 0. -1.
          5    1    1    2  501    0 -0.11823754569E+02 -0.15520696558E+02 -0.22298358824E+02  0.30000000000E+02  0.47000000000E+01 0. -1.
         -5    1    1    2    0  501  0.11823754569E+02  0.15520696558E+02  0.22298358824E+02  0.30000000000E+02  0.47000000000E+01 0.  1.
</event>
<event>
 4    1  0.7580225E-002  0.6000000E+02  0.7546771E-02  0.1259629E+00
         11   -1    0    0    0    0  0.00000000000E+00  0.00000000000E+00  0.30000000000E+02  0.30000000000E+02  0.00000000000E+00 0.  1.
        -11   -1    0    0    0    0 -0.00000000000E+00 -0.00000000000E+00 -0.30000000000E+02  0.30000000000E+02  0.00000000000E+00 0. -1.
          5    1    1    2  501    0 -0.63979146516E+01  0.28615675038E+02  0.42567393882E+01  0.30000000000E+02  0.47000000000E+01 0. -1.
         -5    1    1    2    0  501  0.63979146516E+01 -0.28615675038E+02 -0.42567393882E+01  0.30000000000E+02  0.47000000000E+01 0.  1.
</event>
<event>
 4    1  0.7580225E-002  0.6000000E+02  0.7546771E-02  0.1259629E+00
         11   -1    0    0    0    0  0.00000000000E+00  0.00000000000E+00  0.30000000000E+02  0.30000000000E+02  0.00000000000E+00 0.  1.
        -11   -1    0    0    0    0 -0.00000000000E+00 -0.00000000000E+00 -0.30000000000E+02  0.30000000000E+02  0.00000000000E+00 0. -1.
          5    1    1    2  501    0  0.18639056177E+02  0.22646617458E+00 -0.23031376379E+02  0.30000000000E+02  0.47000000000E+01 0. -1.
         -5    1    1    2    0  501 -0.18639056177E+02 -0.22646617458E+00  0.23031376379E+02  0.30000000000E+02  0.47000000000E+01 0.  1.
</event>
<event>
 4    1  0.7580225E-002  0.6000000E+02  0.7546771E-02  0.1259629E+00
         11   -1    0    0    0    0  0.00000000000E+00  0.00000000000E+00  0.30000000000E+02  0.30000000000E+02  0.00000000000E+00 0.  1.
        -11   -1    0    0    0    0 -0.00000000000E+00 -0.00000000000E+00 -0.30000000000E+02  0.30000000000E+02  0.00000000000E+00 0. -1.
          5    1    1    2  501    0  0.67279707822E+01  0.66374509924E+01 -0.28081820694E+02  0.30000000000E+02  0.47000000000E+01 0. -1.
         -5    1    1    2    0  501 -0.67279707822E+01 -0.66374509924E+01  0.28081820694E+02  0.30000000000E+02  0.47000000000E+01 0.  1.
</event>
<event>
 4    1  0.7580225E-002  0.6000000E+02  0.7546771E-02  0.1259629E+00
         11   -1    0    0    0    0  0.00000000000E+00  0.00000000000E+00  0.30000000000E+02  0.30000000000E+02  0.00000000000E+00 0.  1.
        -11   -1    0    0    0    0 -0.00000000000E+00 -0.00000000000E+00 -0.30000000000E+02  0.30000000000E+02  0.00000000000E+00 0. -1.
          5    1    1    2  501    0  0.10125971977E+02  0.73889037324E+01 -0.26847323762E+02  0.30000000000E+02  0.47000000000E+01 0. -1.
         -5    1    1    2    0  501 -0.10125971977E+02 -0.73889037324E+01  0.26847323762E+02  0.30000000000E+02  0.47000000000E+01 0.  1.
</event>
<event>
 4    1  0.7580225E-002  0.6000000E+02  0.7546771E-02  0.1259629E+00
         11   -1    0    0    0    0  0.00000000000E+00  0.00000000000E+00  0.30000000000E+02  0.30000000000E+02  0.00000000000E+00 0.  1.
        -11   -1    0    0    0    0 -0.00000000000E+00 -0.00000000000E+00 -0.30000000000E+02  0.30000000000E+02  0.00000000000E+00 0. -1.
          5    1    1    2  501    0 -0.15735555722E+02 -0.21244863124E+01  0.25015771905E+02  0.30000000000E+02  0.47000000000E+01 0.  1.
         -5    1    1    2    0  501  0.15735555722E+02  0.21244863124E+01 -0.25015771905E+02  0.30000000000E+02  0.47000000000E+01 0. -1.
</event>
<event>
 4    1  0.7580225E-002  0.6000000E+02  0.7546771E-02  0.1259629E+00
         11   -1    0    0    0    0  0.00000000000E+00  0.00000000000E+00  0.30000000000E+02  0.30000000000E+02  0.00000000000E+00 0.  1.
        -11   -1    0    0    0    0 -0.00000000000E+00 -0.00000000000E+00 -0.30000000000E+02  0.30000000000E+02  0.00000000000E+00 0. -1.
          5    1    1    2  501    0 -0.24360939165E+02 -0.75597132479E+01 -0.15076650112E+02  0.30000000000E+02  0.47000000000E+01 0. -1.
         -5    1    1    2    0  501  0.24360939165E+02  0.75597132479E+01  0.15076650112E+02  0.30000000000E+02  0.47000000000E+01 0.  1.
</event>
<event>
 4    1  0.7580225E-002  0.6000000E+02  0.7546771E-02  0.1259629E+00
         11   -1    0    0    0    0  0.00000000000E+00  0.00000000000E+00  0.30000000000E+02  0.30000000000E+02  0.00000000000E+00 0.  1.
        -11   -1    0    0    0    0 -0.00000000000E+00 -0.00000000000E+00 -0.30000000000E+02  0.30000000000E+02  0.00000000000E+00 0. -1.
          5    1    1    2  501    0 -0.33547128855E+01  0.27414609120E+02 -0.10728238825E+02  0.30000000000E+02  0.47000000000E+01 0. -1.
         -5    1    1    2    0  501  0.33547128855E+01 -0.27414609120E+02  0.10728238825E+02  0.30000000000E+02  0.47000000000E+01 0.  1.
</event>
<event>
 4    1  0.7580225E-002  0.6000000E+02  0.7546771E-02  0.1259629E+00
         11   -1    0    0    0    0  0.00000000000E+00  0.00000000000E+00  0.30000000000E+02  0.30000000000E+02  0.00000000000E+00 0.  1.
        -11   -1    0    0    0    0 -0.00000000000E+00 -0.00000000000E+00 -0.30000000000E+02  0.30000000000E+02  0.00000000000E+00 0. -1.
          5    1    1    2  501    0  0.13002764699E+02  0.10674685530E+02 -0.24390350531E+02  0.30000000000E+02  0.47000000000E+01 0. -1.
         -5    1    1    2    0  501 -0.13002764699E+02 -0.10674685530E+02  0.24390350531E+02  0.30000000000E+02  0.47000000000E+01 0.  1.
</event>
<event>
 4    1  0.7580225E-002  0.6000000E+02  0.7546771E-02  0.1259629E+00
         11   -1    0    0    0    0  0.00000000000E+00  0.00000000000E+00  0.30000000000E+02  0.30000000000E+02  0.00000000000E+00 0. -1.
        -11   -1    0    0    0    0 -0.00000000000E+00 -0.00000000000E+00 -0.30000000000E+02  0.30000000000E+02  0.00000000000E+00 0.  1.
          5    1    1    2  501    0 -0.18160552092E+02  0.20211202191E+02 -0.11815737544E+02  0.30000000000E+02  0.47000000000E+01 0.  1.
         -5    1    1    2    0  501  0.18160552092E+02 -0.20211202191E+02  0.11815737544E+02  0.30000000000E+02  0.47000000000E+01 0. -1.
</event>
<event>
 4    1  0.7580225E-002  0.6000000E+02  0.7546771E-02  0.1259629E+00
         11   -1    0    0    0    0  0.00000000000E+00  0.00000000000E+00  0.30000000000E+02  0.30000000000E+02  0.00000000000E+00 0.  1.
        -11   -1    0    0    0    0 -0.00000000000E+00 -0.00000000000E+00 -0.30000000000E+02  0.30000000000E+02  0.00000000000E+00 0. -1.
          5    1    1    2  501    0  0.37852497527E+01 -0.27856165910E+02 -0.93603368049E+01  0.30000000000E+02  0.47000000000E+01 0. -1.
         -5    1    1    2    0  501 -0.37852497527E+01  0.27856165910E+02  0.93603368049E+01  0.30000000000E+02  0.47000000000E+01 0.  1.
</event>
<event>
 4    1  0.7580225E-002  0.6000000E+02  0.7546771E-02  0.1259629E+00
         11   -1    0    0    0    0  0.00000000000E+00  0.00000000000E+00  0.30000000000E+02  0.30000000000E+02  0.00000000000E+00 0.  1.
        -11   -1    0    0    0    0 -0.00000000000E+00 -0.00000000000E+00 -0.30000000000E+02  0.30000000000E+02  0.00000000000E+00 0. -1.
          5    1    1    2  501    0 -0.28350111012E+02  0.70571661545E+00 -0.85838901229E+01  0.30000000000E+02  0.47000000000E+01 0.  1.
         -5    1    1    2    0  501  0.28350111012E+02 -0.70571661545E+00  0.85838901229E+01  0.30000000000E+02  0.47000000000E+01 0. -1.
</event>
<event>
 4    1  0.7580225E-002  0.6000000E+02  0.7546771E-02  0.1259629E+00
         11   -1    0    0    0    0  0.00000000000E+00  0.00000000000E+00  0.30000000000E+02  0.30000000000E+02  0.00000000000E+00 0.  1.
        -11   -1    0    0    0    0 -0.00000000000E+00 -0.00000000000E+00 -0.30000000000E+02  0.30000000000E+02  0.00000000000E+00 0. -1.
          5    1    1    2  501    0  0.10100154905E+01  0.10881638399E+02 -0.27540512240E+02  0.30000000000E+02  0.47000000000E+01 0. -1.
         -5    1    1    2    0  501 -0.10100154905E+01 -0.10881638399E+02  0.27540512240E+02  0.30000000000E+02  0.47000000000E+01 0.  1.
</event>
<event>
 4    1  0.7580225E-002  0.6000000E+02  0.7546771E-02  0.1259629E+00
         11   -1    0    0    0    0  0.00000000000E+00  0.00000000000E+00  0.30000000000E+02  0.30000000000E+02  0.00000000000E+00 0. -1.
        -11   -1    0    0    0    0 -0.00000000000E+00 -0.00000000000E+00 -0.30000000000E+02  0.30000000000E+02  0.00000000000E+00 0.  1.
          5    1    1    2  501    0 -0.16101131783E+02 -0.17619693806E+02  0.17555909133E+02  0.30000000000E+02  0.47000000000E+01 0.  1.
         -5    1    1    2    0  501  0.16101131783E+02  0.17619693806E+02 -0.17555909133E+02  0.30000000000E+02  0.47000000000E+01 0. -1.
</event>
<event>
 4    1  0.7580225E-002  0.6000000E+02  0.7546771E-02  0.1259629E+00
         11   -1    0    0    0    0  0.00000000000E+00  0.00000000000E+00  0.30000000000E+02  0.30000000000E+02  0.00000000000E+00 0. -1.
        -11   -1    0    0    0    0 -0.00000000000E+00 -0.00000000000E+00 -0.30000000000E+02  0.30000000000E+02  0.00000000000E+00 0.  1.
          5    1    1    2  501    0  0.12210527612E+02  0.26913021109E+02 -0.21218648012E+01  0.30000000000E+02  0.47000000000E+01 0.  1.
         -5    1    1    2    0  501 -0.12210527612E+02 -0.26913021109E+02  0.21218648012E+01  0.30000000000E+02  0.47000000000E+01 0. -1.
</event>
<event>
 4    1  0.7580225E-002  0.6000000E+02  0.7546771E-02  0.1259629E+00
         11   -1    0    0    0    0  0.00000000000E+00  0.00000000000E+00  0.30000000000E+02  0.30000000000E+02  0.00000000000E+00 0.  1.
        -11   -1    0    0    0    0 -0.00000000000E+00 -0.00000000000E+00 -0.30000000000E+02  0.30000000000E+02  0.00000000000E+00 0. -1.
          5    1    1    2  501    0 -0.87793657352E+01  0.20182858476E+02 -0.19836455354E+02  0.30000000000E+02  0.47000000000E+01 0. -1.
         -5    1    1    2    0  501  0.87793657352E+01 -0.20182858476E+02  0.19836455354E+02  0.30000000000E+02  0.47000000000E+01 0.  1.
</event>
<event>
 4    1  0.7580225E-002  0.6000000E+02  0.7546771E-02  0.1259629E+00
         11   -1    0    0    0    0  0.00000000000E+00  0.00000000000E+00  0.30000000000E+02  0.30000000000E+02  0.00000000000E+00 0.  1.
        -11   -1    0    0    0    0 -0.00000000000E+00 -0.00000000000E+00 -0.30000000000E+02  0.30000000000E+02  0.00000000000E+00 0. -1.
          5    1    1    2  501    0 -0.28267340969E+02 -0.84001553446E+01  0.28818092850E+01  0.30000000000E+02  0.47000000000E+01 0.  1.
         -5    1    1    2    0  501  0.28267340969E+02  0.84001553446E+01 -0.28818092850E+01  0.30000000000E+02  0.47000000000E+01 0. -1.
</event>
<event>
 4    1  0.7580225E-002  0.6000000E+02  0.7546771E-02  0.1259629E+00
         11   -1    0    0    0    0  0.00000000000E+00  0.00000000000E+00  0.30000000000E+02  0.30000000000E+02  0.00000000000E+00 0.  1.
        -11   -1    0    0    0    0 -0.00000000000E+00 -0.00000000000E+00 -0.30000000000E+02  0.30000000000E+02  0.00000000000E+00 0. -1.
          5    1    1    2  501    0  0.21563233920E+02 -0.19823953062E+02 -0.44662991273E+01  0.30000000000E+02  0.47000000000E+01 0. -1.
         -5    1    1    2    0  501 -0.21563233920E+02  0.19823953062E+02  0.44662991273E+01  0.30000000000E+02  0.47000000000E+01 0.  1.
</event>
<event>
 4    1  0.7580225E-002  0.6000000E+02  0.7546771E-02  0.1259629E+00
         11   -1    0    0    0    0  0.00000000000E+00  0.00000000000E+00  0.30000000000E+02  0.30000000000E+02  0.00000000000E+00 0.  1.
        -11   -1    0    0    0    0 -0.00000000000E+00 -0.00000000000E+00 -0.30000000000E+02  0.30000000000E+02  0.00000000000E+00 0. -1.
          5    1    1    2  501    0 -0.10658002444E+02 -0.16511037415E+02  0.22174368703E+02  0.30000000000E+02  0.47000000000E+01 0.  1.
         -5    1    1    2    0  501  0.10658002444E+02  0.16511037415E+02 -0.22174368703E+02  0.30000000000E+02  0.47000000000E+01 0. -1.
</event>
<event>
 4    1  0.7580225E-002  0.6000000E+02  0.7546771E-02  0.1259629E+00
         11   -1    0    0    0    0  0.00000000000E+00  0.00000000000E+00  0.30000000000E+02  0.30000000000E+02  0.00000000000E+00 0.  1.
        -11   -1    0    0    0    0 -0.00000000000E+00 -0.00000000000E+00 -0.30000000000E+02  0.30000000000E+02  0.00000000000E+00 0. -1.
          5    1    1    2  501    0 -0.25927088527E+02  0.13209665969E+02 -0.55857681194E+01  0.30000000000E+02  0.47000000000E+01 0. -1.
         -5    1    1    2    0  501  0.25927088527E+02 -0.13209665969E+02  0.55857681194E+01  0.30000000000E+02  0.47000000000E+01 0.  1.
</event>
<event>
 4    1  0.7580225E-002  0.6000000E+02  0.7546771E-02  0.1259629E+00
         11   -1    0    0    0    0  0.00000000000E+00  0.00000000000E+00  0.30000000000E+02  0.30000000000E+02  0.00000000000E+00 0.  1.
        -11   -1    0    0    0    0 -0.00000000000E+00 -0.00000000000E+00 -0.30000000000E+02  0.30000000000E+02  0.00000000000E+00 0. -1.
          5    1    1    2  501    0  0.11398339561E+02  0.23279778494E+02 -0.14354085430E+02  0.30000000000E+02  0.47000000000E+01 0. -1.
         -5    1    1    2    0  501 -0.11398339561E+02 -0.23279778494E+02  0.14354085430E+02  0.30000000000E+02  0.47000000000E+01 0.  1.
</event>
<event>
 4    1  0.7580225E-002  0.6000000E+02  0.7546771E-02  0.1259629E+00
         11   -1    0    0    0    0  0.00000000000E+00  0.00000000000E+00  0.30000000000E+02  0.30000000000E+02  0.00000000000E+00 0.  1.
        -11   -1    0    0    0    0 -0.00000000000E+00 -0.00000000000E+00 -0.30000000000E+02  0.30000000000E+02  0.00000000000E+00 0. -1.
          5    1    1    2  501    0  0.19177859927E+02 -0.20012186292E+02 -0.10470534296E+02  0.30000000000E+02  0.47000000000E+01 0.  1.
         -5    1    1    2    0  501 -0.19177859927E+02  0.20012186292E+02  0.10470534296E+02  0.30000000000E+02  0.47000000000E+01 0. -1.
</event>
<event>
 4    1  0.7580225E-002  0.6000000E+02  0.7546771E-02  0.1259629E+00
         11   -1    0    0    0    0  0.00000000000E+00  0.00000000000E+00  0.30000000000E+02  0.30000000000E+02  0.00000000000E+00 0.  1.
        -11   -1    0    0    0    0 -0.00000000000E+00 -0.00000000000E+00 -0.30000000000E+02  0.30000000000E+02  0.00000000000E+00 0. -1.
          5    1    1    2  501    0  0.16512342893E+02  0.11256349790E+02 -0.21875719910E+02  0.30000000000E+02  0.47000000000E+01 0. -1.
         -5    1    1    2    0  501 -0.16512342893E+02 -0.11256349790E+02  0.21875719910E+02  0.30000000000E+02  0.47000000000E+01 0.  1.
</event>
<event>
 4    1  0.7580225E-002  0.6000000E+02  0.7546771E-02  0.1259629E+00
         11   -1    0    0    0    0  0.00000000000E+00  0.00000000000E+00  0.30000000000E+02  0.30000000000E+02  0.00000000000E+00 0.  1.
        -11   -1    0    0    0    0 -0.00000000000E+00 -0.00000000000E+00 -0.30000000000E+02  0.30000000000E+02  0.00000000000E+00 0. -1.
          5    1    1    2  501    0  0.12568496972E+02  0.71360887391E+01 -0.25865403948E+02  0.30000000000E+02  0.47000000000E+01 0. -1.
         -5    1    1    2    0  501 -0.12568496972E+02 -0.71360887391E+01  0.25865403948E+02  0.30000000000E+02  0.47000000000E+01 0.  1.
</event>
<event>
 4    1  0.7580225E-002  0.6000000E+02  0.7546771E-02  0.1259629E+00
         11   -1    0    0    0    0  0.00000000000E+00  0.00000000000E+00  0.30000000000E+02  0.30000000000E+02  0.00000000000E+00 0.  1.
        -11   -1    0    0    0    0 -0.00000000000E+00 -0.00000000000E+00 -0.30000000000E+02  0.30000000000E+02  0.00000000000E+00 0. -1.
          5    1    1    2  501    0  0.11770885171E+02 -0.14423272927E+00 -0.27190723771E+02  0.30000000000E+02  0.47000000000E+01 0. -1.
         -5    1    1    2    0  501 -0.11770885171E+02  0.14423272927E+00  0.27190723771E+02  0.30000000000E+02  0.47000000000E+01 0.  1.
</event>
<event>
 4    1  0.7580225E-002  0.6000000E+02  0.7546771E-02  0.1259629E+00
         11   -1    0    0    0    0  0.00000000000E+00  0.00000000000E+00  0.30000000000E+02  0.30000000000E+02  0.00000000000E+00 0. -1.
        -11   -1    0    0    0    0 -0.00000000000E+00 -0.00000000000E+00 -0.30000000000E+02  0.30000000000E+02  0.00000000000E+00 0.  1.
          5    1    1    2  501    0  0.20910070876E+02 -0.74609223503E+01 -0.19621762756E+02  0.30000000000E+02  0.47000000000E+01 0.  1.
         -5    1    1    2    0  501 -0.20910070876E+02  0.74609223503E+01  0.19621762756E+02  0.30000000000E+02  0.47000000000E+01 0. -1.
</event>
<event>
 4    1  0.7580225E-002  0.6000000E+02  0.7546771E-02  0.1259629E+00
         11   -1    0    0    0    0  0.00000000000E+00  0.00000000000E+00  0.30000000000E+02  0.30000000000E+02  0.00000000000E+00 0.  1.
        -11   -1    0    0    0    0 -0.00000000000E+00 -0.00000000000E+00 -0.30000000000E+02  0.30000000000E+02  0.00000000000E+00 0. -1.
          5    1    1    2  501    0  0.13551634536E+02  0.15194176796E+02 -0.21526732053E+02  0.30000000000E+02  0.47000000000E+01 0. -1.
         -5    1    1    2    0  501 -0.13551634536E+02 -0.15194176796E+02  0.21526732053E+02  0.30000000000E+02  0.47000000000E+01 0.  1.
</event>
<event>
 4    1  0.7580225E-002  0.6000000E+02  0.7546771E-02  0.1259629E+00
         11   -1    0    0    0    0  0.00000000000E+00  0.00000000000E+00  0.30000000000E+02  0.30000000000E+02  0.00000000000E+00 0.  1.
        -11   -1    0    0    0    0 -0.00000000000E+00 -0.00000000000E+00 -0.30000000000E+02  0.30000000000E+02  0.00000000000E+00 0. -1.
          5    1    1    2  501    0  0.18980435129E+02  0.74630523628E+00 -0.22739747378E+02  0.30000000000E+02  0.47000000000E+01 0. -1.
         -5    1    1    2    0  501 -0.18980435129E+02 -0.74630523628E+00  0.22739747378E+02  0.30000000000E+02  0.47000000000E+01 0.  1.
</event>
<event>
 4    1  0.7580225E-002  0.6000000E+02  0.7546771E-02  0.1259629E+00
         11   -1    0    0    0    0  0.00000000000E+00  0.00000000000E+00  0.30000000000E+02  0.30000000000E+02  0.00000000000E+00 0.  1.
        -11   -1    0    0    0    0 -0.00000000000E+00 -0.00000000000E+00 -0.30000000000E+02  0.30000000000E+02  0.00000000000E+00 0. -1.
          5    1    1    2  501    0 -0.30980281080E+01 -0.24889374667E+02 -0.15774385900E+02  0.30000000000E+02  0.47000000000E+01 0. -1.
         -5    1    1    2    0  501  0.30980281080E+01  0.24889374667E+02  0.15774385900E+02  0.30000000000E+02  0.47000000000E+01 0.  1.
</event>
<event>
 4    1  0.7580225E-002  0.6000000E+02  0.7546771E-02  0.1259629E+00
         11   -1    0    0    0    0  0.00000000000E+00  0.00000000000E+00  0.30000000000E+02  0.30000000000E+02  0.00000000000E+00 0.  1.
        -11   -1    0    0    0    0 -0.00000000000E+00 -0.00000000000E+00 -0.30000000000E+02  0.30000000000E+02  0.00000000000E+00 0. -1.
          5    1    1    2  501    0  0.62079857210E+00  0.59780747558E+01 -0.29013569779E+02  0.30000000000E+02  0.47000000000E+01 0. -1.
         -5    1    1    2    0  501 -0.62079857210E+00 -0.59780747558E+01  0.29013569779E+02  0.30000000000E+02  0.47000000000E+01 0.  1.
</event>
<event>
 4    1  0.7580225E-002  0.6000000E+02  0.7546771E-02  0.1259629E+00
         11   -1    0    0    0    0  0.00000000000E+00  0.00000000000E+00  0.30000000000E+02  0.30000000000E+02  0.00000000000E+00 0.  1.
        -11   -1    0    0    0    0 -0.00000000000E+00 -0.00000000000E+00 -0.30000000000E+02  0.30000000000E+02  0.00000000000E+00 0. -1.
          5    1    1    2  501    0  0.98538214675E+01 -0.37086568725E+01 -0.27695813162E+02  0.30000000000E+02  0.47000000000E+01 0. -1.
         -5    1    1    2    0  501 -0.98538214675E+01  0.37086568725E+01  0.27695813162E+02  0.30000000000E+02  0.47000000000E+01 0.  1.
</event>
<event>
 4    1  0.7580225E-002  0.6000000E+02  0.7546771E-02  0.1259629E+00
         11   -1    0    0    0    0  0.00000000000E+00  0.00000000000E+00  0.30000000000E+02  0.30000000000E+02  0.00000000000E+00 0. -1.
        -11   -1    0    0    0    0 -0.00000000000E+00 -0.00000000000E+00 -0.30000000000E+02  0.30000000000E+02  0.00000000000E+00 0.  1.
          5    1    1    2  501    0 -0.12814564389E+02  0.18405839991E+02 -0.19362902513E+02  0.30000000000E+02  0.47000000000E+01 0.  1.
         -5    1    1    2    0  501  0.12814564389E+02 -0.18405839991E+02  0.19362902513E+02  0.30000000000E+02  0.47000000000E+01 0. -1.
</event>
<event>
 4    1  0.7580225E-002  0.6000000E+02  0.7546771E-02  0.1259629E+00
         11   -1    0    0    0    0  0.00000000000E+00  0.00000000000E+00  0.30000000000E+02  0.30000000000E+02  0.00000000000E+00 0.  1.
        -11   -1    0    0    0    0 -0.00000000000E+00 -0.00000000000E+00 -0.30000000000E+02  0.30000000000E+02  0.00000000000E+00 0. -1.
          5    1    1    2  501    0  0.84866505031E+01 -0.15373764155E+02 -0.23864914392E+02  0.30000000000E+02  0.47000000000E+01 0. -1.
         -5    1    1    2    0  501 -0.84866505031E+01  0.15373764155E+02  0.23864914392E+02  0.30000000000E+02  0.47000000000E+01 0.  1.
</event>
<event>
 4    1  0.7580225E-002  0.6000000E+02  0.7546771E-02  0.1259629E+00
         11   -1    0    0    0    0  0.00000000000E+00  0.00000000000E+00  0.30000000000E+02  0.30000000000E+02  0.00000000000E+00 0.  1.
        -11   -1    0    0    0    0 -0.00000000000E+00 -0.00000000000E+00 -0.30000000000E+02  0.30000000000E+02  0.00000000000E+00 0. -1.
          5    1    1    2  501    0 -0.60900347628E+01  0.28344580562E+00  0.28995536468E+02  0.30000000000E+02  0.47000000000E+01 0.  1.
         -5    1    1    2    0  501  0.60900347628E+01 -0.28344580562E+00 -0.28995536468E+02  0.30000000000E+02  0.47000000000E+01 0. -1.
</event>
<event>
 4    1  0.7580225E-002  0.6000000E+02  0.7546771E-02  0.1259629E+00
         11   -1    0    0    0    0  0.00000000000E+00  0.00000000000E+00  0.30000000000E+02  0.30000000000E+02  0.00000000000E+00 0.  1.
        -11   -1    0    0    0    0 -0.00000000000E+00 -0.00000000000E+00 -0.30000000000E+02  0.30000000000E+02  0.00000000000E+00 0. -1.
          5    1    1    2  501    0  0.25907769879E+02  0.21205587235E+01 -0.14219728922E+02  0.30000000000E+02  0.47000000000E+01 0. -1.
         -5    1    1    2    0  501 -0.25907769879E+02 -0.21205587235E+01  0.14219728922E+02  0.30000000000E+02  0.47000000000E+01 0.  1.
</event>
<event>
 4    1  0.7580225E-002  0.6000000E+02  0.7546771E-02  0.1259629E+00
         11   -1    0    0    0    0  0.00000000000E+00  0.00000000000E+00  0.30000000000E+02  0.30000000000E+02  0.00000000000E+00 0. -1.
        -11   -1    0    0    0    0 -0.00000000000E+00 -0.00000000000E+00 -0.30000000000E+02  0.30000000000E+02  0.00000000000E+00 0.  1.
          5    1    1    2  501    0 -0.27710585218E+02 -0.57373706364E+01  0.87815741783E+01  0.30000000000E+02  0.47000000000E+01 0. -1.
         -5    1    1    2    0  501  0.27710585218E+02  0.57373706364E+01 -0.87815741783E+01  0.30000000000E+02  0.47000000000E+01 0.  1.
</event>
<event>
 4    1  0.7580225E-002  0.6000000E+02  0.7546771E-02  0.1259629E+00
         11   -1    0    0    0    0  0.00000000000E+00  0.00000000000E+00  0.30000000000E+02  0.30000000000E+02  0.00000000000E+00 0. -1.
        -11   -1    0    0    0    0 -0.00000000000E+00 -0.00000000000E+00 -0.30000000000E+02  0.30000000000E+02  0.00000000000E+00 0.  1.
          5    1    1    2  501    0 -0.13535696293E+02  0.26114749623E+02  0.35657787356E+01  0.30000000000E+02  0.47000000000E+01 0.  1.
         -5    1    1    2    0  501  0.13535696293E+02 -0.26114749623E+02 -0.35657787356E+01  0.30000000000E+02  0.47000000000E+01 0. -1.
</event>
<event>
 4    1  0.7580225E-002  0.6000000E+02  0.7546771E-02  0.1259629E+00
         11   -1    0    0    0    0  0.00000000000E+00  0.00000000000E+00  0.30000000000E+02  0.30000000000E+02  0.00000000000E+00 0.  1.
        -11   -1    0    0    0    0 -0.00000000000E+00 -0.00000000000E+00 -0.30000000000E+02  0.30000000000E+02  0.00000000000E+00 0. -1.
          5    1    1    2  501    0  0.20332810382E+01  0.24156109490E+02  0.17036964005E+02  0.30000000000E+02  0.47000000000E+01 0.  1.
         -5    1    1    2    0  501 -0.20332810382E+01 -0.24156109490E+02 -0.17036964005E+02  0.30000000000E+02  0.47000000000E+01 0. -1.
</event>
<event>
 4    1  0.7580225E-002  0.6000000E+02  0.7546771E-02  0.1259629E+00
         11   -1    0    0    0    0  0.00000000000E+00  0.00000000000E+00  0.30000000000E+02  0.30000000000E+02  0.00000000000E+00 0.  1.
        -11   -1    0    0    0    0 -0.00000000000E+00 -0.00000000000E+00 -0.30000000000E+02  0.30000000000E+02  0.00000000000E+00 0. -1.
          5    1    1    2  501    0 -0.14789404577E+02 -0.11502551750E+01 -0.25648789938E+02  0.30000000000E+02  0.47000000000E+01 0. -1.
         -5    1    1    2    0  501  0.14789404577E+02  0.11502551750E+01  0.25648789938E+02  0.30000000000E+02  0.47000000000E+01 0.  1.
</event>
<event>
 4    1  0.7580225E-002  0.6000000E+02  0.7546771E-02  0.1259629E+00
         11   -1    0    0    0    0  0.00000000000E+00  0.00000000000E+00  0.30000000000E+02  0.30000000000E+02  0.00000000000E+00 0.  1.
        -11   -1    0    0    0    0 -0.00000000000E+00 -0.00000000000E+00 -0.30000000000E+02  0.30000000000E+02  0.00000000000E+00 0. -1.
          5    1    1    2  501    0 -0.15239361770E+02  0.18546790206E+02 -0.17369180346E+02  0.30000000000E+02  0.47000000000E+01 0. -1.
         -5    1    1    2    0  501  0.15239361770E+02 -0.18546790206E+02  0.17369180346E+02  0.30000000000E+02  0.47000000000E+01 0.  1.
</event>
<event>
 4    1  0.7580225E-002  0.6000000E+02  0.7546771E-02  0.1259629E+00
         11   -1    0    0    0    0  0.00000000000E+00  0.00000000000E+00  0.30000000000E+02  0.30000000000E+02  0.00000000000E+00 0.  1.
        -11   -1    0    0    0    0 -0.00000000000E+00 -0.00000000000E+00 -0.30000000000E+02  0.30000000000E+02  0.00000000000E+00 0. -1.
          5    1    1    2  501    0 -0.20104911432E+02  0.80222073183E+01 -0.20232318850E+02  0.30000000000E+02  0.47000000000E+01 0. -1.
         -5    1    1    2    0  501  0.20104911432E+02 -0.80222073183E+01  0.20232318850E+02  0.30000000000E+02  0.47000000000E+01 0.  1.
</event>
<event>
 4    1  0.7580225E-002  0.6000000E+02  0.7546771E-02  0.1259629E+00
         11   -1    0    0    0    0  0.00000000000E+00  0.00000000000E+00  0.30000000000E+02  0.30000000000E+02  0.00000000000E+00 0.  1.
        -11   -1    0    0    0    0 -0.00000000000E+00 -0.00000000000E+00 -0.30000000000E+02  0.30000000000E+02  0.00000000000E+00 0. -1.
          5    1    1    2  501    0 -0.30448953443E+00 -0.16396568091E+02  0.24677314298E+02  0.30000000000E+02  0.47000000000E+01 0.  1.
         -5    1    1    2    0  501  0.30448953443E+00  0.16396568091E+02 -0.24677314298E+02  0.30000000000E+02  0.47000000000E+01 0. -1.
</event>
<event>
 4    1  0.7580225E-002  0.6000000E+02  0.7546771E-02  0.1259629E+00
         11   -1    0    0    0    0  0.00000000000E+00  0.00000000000E+00  0.30000000000E+02  0.30000000000E+02  0.00000000000E+00 0.  1.
        -11   -1    0    0    0    0 -0.00000000000E+00 -0.00000000000E+00 -0.30000000000E+02  0.30000000000E+02  0.00000000000E+00 0. -1.
          5    1    1    2  501    0  0.12860484591E+02 -0.23815720873E+02 -0.12055263390E+02  0.30000000000E+02  0.47000000000E+01 0. -1.
         -5    1    1    2    0  501 -0.12860484591E+02  0.23815720873E+02  0.12055263390E+02  0.30000000000E+02  0.47000000000E+01 0.  1.
</event>
<event>
 4    1  0.7580225E-002  0.6000000E+02  0.7546771E-02  0.1259629E+00
         11   -1    0    0    0    0  0.00000000000E+00  0.00000000000E+00  0.30000000000E+02  0.30000000000E+02  0.00000000000E+00 0.  1.
        -11   -1    0    0    0    0 -0.00000000000E+00 -0.00000000000E+00 -0.30000000000E+02  0.30000000000E+02  0.00000000000E+00 0. -1.
          5    1    1    2  501    0 -0.94097290749E+01 -0.20413602714E+02 -0.19304191849E+02  0.30000000000E+02  0.47000000000E+01 0. -1.
         -5    1    1    2    0  501  0.94097290749E+01  0.20413602714E+02  0.19304191849E+02  0.30000000000E+02  0.47000000000E+01 0.  1.
</event>
<event>
 4    1  0.7580225E-002  0.6000000E+02  0.7546771E-02  0.1259629E+00
         11   -1    0    0    0    0  0.00000000000E+00  0.00000000000E+00  0.30000000000E+02  0.30000000000E+02  0.00000000000E+00 0.  1.
        -11   -1    0    0    0    0 -0.00000000000E+00 -0.00000000000E+00 -0.30000000000E+02  0.30000000000E+02  0.00000000000E+00 0. -1.
          5    1    1    2  501    0  0.28326592115E+02  0.18241589541E+01 -0.84962711399E+01  0.30000000000E+02  0.47000000000E+01 0. -1.
         -5    1    1    2    0  501 -0.28326592115E+02 -0.18241589541E+01  0.84962711399E+01  0.30000000000E+02  0.47000000000E+01 0.  1.
</event>
<event>
 4    1  0.7580225E-002  0.6000000E+02  0.7546771E-02  0.1259629E+00
         11   -1    0    0    0    0  0.00000000000E+00  0.00000000000E+00  0.30000000000E+02  0.30000000000E+02  0.00000000000E+00 0. -1.
        -11   -1    0    0    0    0 -0.00000000000E+00 -0.00000000000E+00 -0.30000000000E+02  0.30000000000E+02  0.00000000000E+00 0.  1.
          5    1    1    2  501    0  0.10624900151E+02 -0.26579252693E+02  0.76527657132E+01  0.30000000000E+02  0.47000000000E+01 0. -1.
         -5    1    1    2    0  501 -0.10624900151E+02  0.26579252693E+02 -0.76527657132E+01  0.30000000000E+02  0.47000000000E+01 0.  1.
</event>
<event>
 4    1  0.7580225E-002  0.6000000E+02  0.7546771E-02  0.1259629E+00
         11   -1    0    0    0    0  0.00000000000E+00  0.00000000000E+00  0.30000000000E+02  0.30000000000E+02  0.00000000000E+00 0.  1.
        -11   -1    0    0    0    0 -0.00000000000E+00 -0.00000000000E+00 -0.30000000000E+02  0.30000000000E+02  0.00000000000E+00 0. -1.
          5    1    1    2  501    0  0.14918542071E+02  0.18766179140E+02 -0.17411996524E+02  0.30000000000E+02  0.47000000000E+01 0. -1.
         -5    1    1    2    0  501 -0.14918542071E+02 -0.18766179140E+02  0.17411996524E+02  0.30000000000E+02  0.47000000000E+01 0.  1.
</event>
<event>
 4    1  0.7580225E-002  0.6000000E+02  0.7546771E-02  0.1259629E+00
         11   -1    0    0    0    0  0.00000000000E+00  0.00000000000E+00  0.30000000000E+02  0.30000000000E+02  0.00000000000E+00 0. -1.
        -11   -1    0    0    0    0 -0.00000000000E+00 -0.00000000000E+00 -0.30000000000E+02  0.30000000000E+02  0.00000000000E+00 0.  1.
          5    1    1    2  501    0 -0.29490086274E+02  0.28695928115E+01 -0.10123565224E+00  0.30000000000E+02  0.47000000000E+01 0.  1.
         -5    1    1    2    0  501  0.29490086274E+02 -0.28695928115E+01  0.10123565224E+00  0.30000000000E+02  0.47000000000E+01 0. -1.
</event>
<event>
 4    1  0.7580225E-002  0.6000000E+02  0.7546771E-02  0.1259629E+00
         11   -1    0    0    0    0  0.00000000000E+00  0.00000000000E+00  0.30000000000E+02  0.30000000000E+02  0.00000000000E+00 0.  1.
        -11   -1    0    0    0    0 -0.00000000000E+00 -0.00000000000E+00 -0.30000000000E+02  0.30000000000E+02  0.00000000000E+00 0. -1.
          5    1    1    2  501    0  0.83060613782E+00  0.27524069767E+02 -0.10938266632E+02  0.30000000000E+02  0.47000000000E+01 0. -1.
         -5    1    1    2    0  501 -0.83060613782E+00 -0.27524069767E+02  0.10938266632E+02  0.30000000000E+02  0.47000000000E+01 0.  1.
</event>
<event>
 4    1  0.7580225E-002  0.6000000E+02  0.7546771E-02  0.1259629E+00
         11   -1    0    0    0    0  0.00000000000E+00  0.00000000000E+00  0.30000000000E+02  0.30000000000E+02  0.00000000000E+00 0.  1.
        -11   -1    0    0    0    0 -0.00000000000E+00 -0.00000000000E+00 -0.30000000000E+02  0.30000000000E+02  0.00000000000E+00 0. -1.
          5    1    1    2  501    0  0.23521670285E+02  0.23953898277E+01 -0.17857859182E+02  0.30000000000E+02  0.47000000000E+01 0. -1.
         -5    1    1    2    0  501 -0.23521670285E+02 -0.23953898277E+01  0.17857859182E+02  0.30000000000E+02  0.47000000000E+01 0.  1.
</event>
<event>
 4    1  0.7580225E-002  0.6000000E+02  0.7546771E-02  0.1259629E+00
         11   -1    0    0    0    0  0.00000000000E+00  0.00000000000E+00  0.30000000000E+02  0.30000000000E+02  0.00000000000E+00 0.  1.
        -11   -1    0    0    0    0 -0.00000000000E+00 -0.00000000000E+00 -0.30000000000E+02  0.30000000000E+02  0.00000000000E+00 0. -1.
          5    1    1    2  501    0 -0.23789526099E+02 -0.73480346734E+00 -0.17647337246E+02  0.30000000000E+02  0.47000000000E+01 0. -1.
         -5    1    1    2    0  501  0.23789526099E+02  0.73480346734E+00  0.17647337246E+02  0.30000000000E+02  0.47000000000E+01 0.  1.
</event>
<event>
 4    1  0.7580225E-002  0.6000000E+02  0.7546771E-02  0.1259629E+00
         11   -1    0    0    0    0  0.00000000000E+00  0.00000000000E+00  0.30000000000E+02  0.30000000000E+02  0.00000000000E+00 0.  1.
        -11   -1    0    0    0    0 -0.00000000000E+00 -0.00000000000E+00 -0.30000000000E+02  0.30000000000E+02  0.00000000000E+00 0. -1.
          5    1    1    2  501    0 -0.22294767655E+02  0.10098868044E+02 -0.16699287393E+02  0.30000000000E+02  0.47000000000E+01 0. -1.
         -5    1    1    2    0  501  0.22294767655E+02 -0.10098868044E+02  0.16699287393E+02  0.30000000000E+02  0.47000000000E+01 0.  1.
</event>
<event>
 4    1  0.7580225E-002  0.6000000E+02  0.7546771E-02  0.1259629E+00
         11   -1    0    0    0    0  0.00000000000E+00  0.00000000000E+00  0.30000000000E+02  0.30000000000E+02  0.00000000000E+00 0. -1.
        -11   -1    0    0    0    0 -0.00000000000E+00 -0.00000000000E+00 -0.30000000000E+02  0.30000000000E+02  0.00000000000E+00 0.  1.
          5    1    1    2  501    0  0.23576126357E+02  0.14995198935E+02 -0.98600342246E+01  0.30000000000E+02  0.47000000000E+01 0.  1.
         -5    1    1    2    0  501 -0.23576126357E+02 -0.14995198935E+02  0.98600342246E+01  0.30000000000E+02  0.47000000000E+01 0. -1.
</event>
<event>
 4    1  0.7580225E-002  0.6000000E+02  0.7546771E-02  0.1259629E+00
         11   -1    0    0    0    0  0.00000000000E+00  0.00000000000E+00  0.30000000000E+02  0.30000000000E+02  0.00000000000E+00 0. -1.
        -11   -1    0    0    0    0 -0.00000000000E+00 -0.00000000000E+00 -0.30000000000E+02  0.30000000000E+02  0.00000000000E+00 0.  1.
          5    1    1    2  501    0  0.22255793113E+02  0.33691562215E+01 -0.19267549384E+02  0.30000000000E+02  0.47000000000E+01 0.  1.
         -5    1    1    2    0  501 -0.22255793113E+02 -0.33691562215E+01  0.19267549384E+02  0.30000000000E+02  0.47000000000E+01 0. -1.
</event>
<event>
 4    1  0.7580225E-002  0.6000000E+02  0.7546771E-02  0.1259629E+00
         11   -1    0    0    0    0  0.00000000000E+00  0.00000000000E+00  0.30000000000E+02  0.30000000000E+02  0.00000000000E+00 0.  1.
        -11   -1    0    0    0    0 -0.00000000000E+00 -0.00000000000E+00 -0.30000000000E+02  0.30000000000E+02  0.00000000000E+00 0. -1.
          5    1    1    2  501    0  0.16811878986E+02  0.24392097288E+02 -0.54434812453E+00  0.30000000000E+02  0.47000000000E+01 0. -1.
         -5    1    1    2    0  501 -0.16811878986E+02 -0.24392097288E+02  0.54434812453E+00  0.30000000000E+02  0.47000000000E+01 0.  1.
</event>
<event>
 4    1  0.7580225E-002  0.6000000E+02  0.7546771E-02  0.1259629E+00
         11   -1    0    0    0    0  0.00000000000E+00  0.00000000000E+00  0.30000000000E+02  0.30000000000E+02  0.00000000000E+00 0.  1.
        -11   -1    0    0    0    0 -0.00000000000E+00 -0.00000000000E+00 -0.30000000000E+02  0.30000000000E+02  0.00000000000E+00 0. -1.
          5    1    1    2  501    0  0.36771861123E+01 -0.21802818619E+02 -0.19723726893E+02  0.30000000000E+02  0.47000000000E+01 0. -1.
         -5    1    1    2    0  501 -0.36771861123E+01  0.21802818619E+02  0.19723726893E+02  0.30000000000E+02  0.47000000000E+01 0.  1.
</event>
<event>
 4    1  0.7580225E-002  0.6000000E+02  0.7546771E-02  0.1259629E+00
         11   -1    0    0    0    0  0.00000000000E+00  0.00000000000E+00  0.30000000000E+02  0.30000000000E+02  0.00000000000E+00 0.  1.
        -11   -1    0    0    0    0 -0.00000000000E+00 -0.00000000000E+00 -0.30000000000E+02  0.30000000000E+02  0.00000000000E+00 0. -1.
          5    1    1    2  501    0 -0.13087470898E+02 -0.20635781008E+02 -0.16756868672E+02  0.30000000000E+02  0.47000000000E+01 0. -1.
         -5    1    1    2    0  501  0.13087470898E+02  0.20635781008E+02  0.16756868672E+02  0.30000000000E+02  0.47000000000E+01 0.  1.
</event>
<event>
 4    1  0.7580225E-002  0.6000000E+02  0.7546771E-02  0.1259629E+00
         11   -1    0    0    0    0  0.00000000000E+00  0.00000000000E+00  0.30000000000E+02  0.30000000000E+02  0.00000000000E+00 0.  1.
        -11   -1    0    0    0    0 -0.00000000000E+00 -0.00000000000E+00 -0.30000000000E+02  0.30000000000E+02  0.00000000000E+00 0. -1.
          5    1    1    2  501    0 -0.27114403707E+02 -0.11946074671E+02 -0.10203707981E+00  0.30000000000E+02  0.47000000000E+01 0.  1.
         -5    1    1    2    0  501  0.27114403707E+02  0.11946074671E+02  0.10203707981E+00  0.30000000000E+02  0.47000000000E+01 0. -1.
</event>
<event>
 4    1  0.7580225E-002  0.6000000E+02  0.7546771E-02  0.1259629E+00
         11   -1    0    0    0    0  0.00000000000E+00  0.00000000000E+00  0.30000000000E+02  0.30000000000E+02  0.00000000000E+00 0.  1.
        -11   -1    0    0    0    0 -0.00000000000E+00 -0.00000000000E+00 -0.30000000000E+02  0.30000000000E+02  0.00000000000E+00 0. -1.
          5    1    1    2  501    0 -0.15920879740E+02  0.18502145292E+02 -0.16796017621E+02  0.30000000000E+02  0.47000000000E+01 0. -1.
         -5    1    1    2    0  501  0.15920879740E+02 -0.18502145292E+02  0.16796017621E+02  0.30000000000E+02  0.47000000000E+01 0.  1.
</event>
<event>
 4    1  0.7580225E-002  0.6000000E+02  0.7546771E-02  0.1259629E+00
         11   -1    0    0    0    0  0.00000000000E+00  0.00000000000E+00  0.30000000000E+02  0.30000000000E+02  0.00000000000E+00 0.  1.
        -11   -1    0    0    0    0 -0.00000000000E+00 -0.00000000000E+00 -0.30000000000E+02  0.30000000000E+02  0.00000000000E+00 0. -1.
          5    1    1    2  501    0  0.57012915058E+00 -0.46864027120E+01 -0.29251027031E+02  0.30000000000E+02  0.47000000000E+01 0. -1.
         -5    1    1    2    0  501 -0.57012915058E+00  0.46864027120E+01  0.29251027031E+02  0.30000000000E+02  0.47000000000E+01 0.  1.
</event>
<event>
 4    1  0.7580225E-002  0.6000000E+02  0.7546771E-02  0.1259629E+00
         11   -1    0    0    0    0  0.00000000000E+00  0.00000000000E+00  0.30000000000E+02  0.30000000000E+02  0.00000000000E+00 0.  1.
        -11   -1    0    0    0    0 -0.00000000000E+00 -0.00000000000E+00 -0.30000000000E+02  0.30000000000E+02  0.00000000000E+00 0. -1.
          5    1    1    2  501    0 -0.27948909130E+02 -0.98302220378E+01  0.36771341041E+00  0.30000000000E+02  0.47000000000E+01 0. -1.
         -5    1    1    2    0  501  0.27948909130E+02  0.98302220378E+01 -0.36771341041E+00  0.30000000000E+02  0.47000000000E+01 0.  1.
</event>
<event>
 4    1  0.7580225E-002  0.6000000E+02  0.7546771E-02  0.1259629E+00
         11   -1    0    0    0    0  0.00000000000E+00  0.00000000000E+00  0.30000000000E+02  0.30000000000E+02  0.00000000000E+00 0.  1.
        -11   -1    0    0    0    0 -0.00000000000E+00 -0.00000000000E+00 -0.30000000000E+02  0.30000000000E+02  0.00000000000E+00 0. -1.
          5    1    1    2  501    0  0.15305778923E+02  0.24327998024E+02 -0.71966411402E+01  0.30000000000E+02  0.47000000000E+01 0.  1.
         -5    1    1    2    0  501 -0.15305778923E+02 -0.24327998024E+02  0.71966411402E+01  0.30000000000E+02  0.47000000000E+01 0. -1.
</event>
<event>
 4    1  0.7580225E-002  0.6000000E+02  0.7546771E-02  0.1259629E+00
         11   -1    0    0    0    0  0.00000000000E+00  0.00000000000E+00  0.30000000000E+02  0.30000000000E+02  0.00000000000E+00 0.  1.
        -11   -1    0    0    0    0 -0.00000000000E+00 -0.00000000000E+00 -0.30000000000E+02  0.30000000000E+02  0.00000000000E+00 0. -1.
          5    1    1    2  501    0 -0.65179726430E+01 -0.10351287837E+02 -0.26986605432E+02  0.30000000000E+02  0.47000000000E+01 0. -1.
         -5    1    1    2    0  501  0.65179726430E+01  0.10351287837E+02  0.26986605432E+02  0.30000000000E+02  0.47000000000E+01 0.  1.
</event>
<event>
 4    1  0.7580225E-002  0.6000000E+02  0.7546771E-02  0.1259629E+00
         11   -1    0    0    0    0  0.00000000000E+00  0.00000000000E+00  0.30000000000E+02  0.30000000000E+02  0.00000000000E+00 0.  1.
        -11   -1    0    0    0    0 -0.00000000000E+00 -0.00000000000E+00 -0.30000000000E+02  0.30000000000E+02  0.00000000000E+00 0. -1.
          5    1    1    2  501    0  0.19628874309E+02 -0.22184099276E+02  0.69500550264E+00  0.30000000000E+02  0.47000000000E+01 0. -1.
         -5    1    1    2    0  501 -0.19628874309E+02  0.22184099276E+02 -0.69500550264E+00  0.30000000000E+02  0.47000000000E+01 0.  1.
</event>
<event>
 4    1  0.7580225E-002  0.6000000E+02  0.7546771E-02  0.1259629E+00
         11   -1    0    0    0    0  0.00000000000E+00  0.00000000000E+00  0.30000000000E+02  0.30000000000E+02  0.00000000000E+00 0.  1.
        -11   -1    0    0    0    0 -0.00000000000E+00 -0.00000000000E+00 -0.30000000000E+02  0.30000000000E+02  0.00000000000E+00 0. -1.
          5    1    1    2  501    0 -0.14596416468E+02  0.24249297778E+02 -0.87650546823E+01  0.30000000000E+02  0.47000000000E+01 0. -1.
         -5    1    1    2    0  501  0.14596416468E+02 -0.24249297778E+02  0.87650546823E+01  0.30000000000E+02  0.47000000000E+01 0.  1.
</event>
<event>
 4    1  0.7580225E-002  0.6000000E+02  0.7546771E-02  0.1259629E+00
         11   -1    0    0    0    0  0.00000000000E+00  0.00000000000E+00  0.30000000000E+02  0.30000000000E+02  0.00000000000E+00 0.  1.
        -11   -1    0    0    0    0 -0.00000000000E+00 -0.00000000000E+00 -0.30000000000E+02  0.30000000000E+02  0.00000000000E+00 0. -1.
          5    1    1    2  501    0  0.16862653559E+01  0.28486644119E+02 -0.79735572992E+01  0.30000000000E+02  0.47000000000E+01 0. -1.
         -5    1    1    2    0  501 -0.16862653559E+01 -0.28486644119E+02  0.79735572992E+01  0.30000000000E+02  0.47000000000E+01 0.  1.
</event>
<event>
 4    1  0.7580225E-002  0.6000000E+02  0.7546771E-02  0.1259629E+00
         11   -1    0    0    0    0  0.00000000000E+00  0.00000000000E+00  0.30000000000E+02  0.30000000000E+02  0.00000000000E+00 0.  1.
        -11   -1    0    0    0    0 -0.00000000000E+00 -0.00000000000E+00 -0.30000000000E+02  0.30000000000E+02  0.00000000000E+00 0. -1.
          5    1    1    2  501    0 -0.16587439674E+02  0.19316601602E+02 -0.15153737085E+02  0.30000000000E+02  0.47000000000E+01 0. -1.
         -5    1    1    2    0  501  0.16587439674E+02 -0.19316601602E+02  0.15153737085E+02  0.30000000000E+02  0.47000000000E+01 0.  1.
</event>
<event>
 4    1  0.7580225E-002  0.6000000E+02  0.7546771E-02  0.1259629E+00
         11   -1    0    0    0    0  0.00000000000E+00  0.00000000000E+00  0.30000000000E+02  0.30000000000E+02  0.00000000000E+00 0.  1.
        -11   -1    0    0    0    0 -0.00000000000E+00 -0.00000000000E+00 -0.30000000000E+02  0.30000000000E+02  0.00000000000E+00 0. -1.
          5    1    1    2  501    0  0.11440703763E+02  0.26097646558E+02 -0.81199225067E+01  0.30000000000E+02  0.47000000000E+01 0. -1.
         -5    1    1    2    0  501 -0.11440703763E+02 -0.26097646558E+02  0.81199225067E+01  0.30000000000E+02  0.47000000000E+01 0. -1.
</event>
<event>
 4    1  0.7580225E-002  0.6000000E+02  0.7546771E-02  0.1259629E+00
         11   -1    0    0    0    0  0.00000000000E+00  0.00000000000E+00  0.30000000000E+02  0.30000000000E+02  0.00000000000E+00 0.  1.
        -11   -1    0    0    0    0 -0.00000000000E+00 -0.00000000000E+00 -0.30000000000E+02  0.30000000000E+02  0.00000000000E+00 0. -1.
          5    1    1    2  501    0  0.18768731037E+02 -0.20520629115E+02 -0.10224896868E+02  0.30000000000E+02  0.47000000000E+01 0. -1.
         -5    1    1    2    0  501 -0.18768731037E+02  0.20520629115E+02  0.10224896868E+02  0.30000000000E+02  0.47000000000E+01 0.  1.
</event>
<event>
 4    1  0.7580225E-002  0.6000000E+02  0.7546771E-02  0.1259629E+00
         11   -1    0    0    0    0  0.00000000000E+00  0.00000000000E+00  0.30000000000E+02  0.30000000000E+02  0.00000000000E+00 0. -1.
        -11   -1    0    0    0    0 -0.00000000000E+00 -0.00000000000E+00 -0.30000000000E+02  0.30000000000E+02  0.00000000000E+00 0.  1.
          5    1    1    2  501    0 -0.26832035158E+02 -0.11648634085E+02 -0.47181790152E+01  0.30000000000E+02  0.47000000000E+01 0.  1.
         -5    1    1    2    0  501  0.26832035158E+02  0.11648634085E+02  0.47181790152E+01  0.30000000000E+02  0.47000000000E+01 0. -1.
</event>
<event>
 4    1  0.7580225E-002  0.6000000E+02  0.7546771E-02  0.1259629E+00
         11   -1    0    0    0    0  0.00000000000E+00  0.00000000000E+00  0.30000000000E+02  0.30000000000E+02  0.00000000000E+00 0. -1.
        -11   -1    0    0    0    0 -0.00000000000E+00 -0.00000000000E+00 -0.30000000000E+02  0.30000000000E+02  0.00000000000E+00 0.  1.
          5    1    1    2  501    0 -0.25850576831E+02  0.14477141432E+02  0.26467616424E+00  0.30000000000E+02  0.47000000000E+01 0.  1.
         -5    1    1    2    0  501  0.25850576831E+02 -0.14477141432E+02 -0.26467616424E+00  0.30000000000E+02  0.47000000000E+01 0. -1.
</event>
<event>
 4    1  0.7580225E-002  0.6000000E+02  0.7546771E-02  0.1259629E+00
         11   -1    0    0    0    0  0.00000000000E+00  0.00000000000E+00  0.30000000000E+02  0.30000000000E+02  0.00000000000E+00 0.  1.
        -11   -1    0    0    0    0 -0.00000000000E+00 -0.00000000000E+00 -0.30000000000E+02  0.30000000000E+02  0.00000000000E+00 0. -1.
          5    1    1    2  501    0  0.18322573223E+02  0.82382789350E+01  0.21778982315E+02  0.30000000000E+02  0.47000000000E+01 0.  1.
         -5    1    1    2    0  501 -0.18322573223E+02 -0.82382789350E+01 -0.21778982315E+02  0.30000000000E+02  0.47000000000E+01 0. -1.
</event>
<event>
 4    1  0.7580225E-002  0.6000000E+02  0.7546771E-02  0.1259629E+00
         11   -1    0    0    0    0  0.00000000000E+00  0.00000000000E+00  0.30000000000E+02  0.30000000000E+02  0.00000000000E+00 0.  1.
        -11   -1    0    0    0    0 -0.00000000000E+00 -0.00000000000E+00 -0.30000000000E+02  0.30000000000E+02  0.00000000000E+00 0. -1.
          5    1    1    2  501    0 -0.15361664366E+02 -0.23716199962E+02  0.89146580012E+01  0.30000000000E+02  0.47000000000E+01 0. -1.
         -5    1    1    2    0  501  0.15361664366E+02  0.23716199962E+02 -0.89146580012E+01  0.30000000000E+02  0.47000000000E+01 0.  1.
</event>
<event>
 4    1  0.7580225E-002  0.6000000E+02  0.7546771E-02  0.1259629E+00
         11   -1    0    0    0    0  0.00000000000E+00  0.00000000000E+00  0.30000000000E+02  0.30000000000E+02  0.00000000000E+00 0.  1.
        -11   -1    0    0    0    0 -0.00000000000E+00 -0.00000000000E+00 -0.30000000000E+02  0.30000000000E+02  0.00000000000E+00 0. -1.
          5    1    1    2  501    0 -0.10689458534E+02 -0.37199094713E+01 -0.27382617658E+02  0.30000000000E+02  0.47000000000E+01 0. -1.
         -5    1    1    2    0  501  0.10689458534E+02  0.37199094713E+01  0.27382617658E+02  0.30000000000E+02  0.47000000000E+01 0.  1.
</event>
<event>
 4    1  0.7580225E-002  0.6000000E+02  0.7546771E-02  0.1259629E+00
         11   -1    0    0    0    0  0.00000000000E+00  0.00000000000E+00  0.30000000000E+02  0.30000000000E+02  0.00000000000E+00 0. -1.
        -11   -1    0    0    0    0 -0.00000000000E+00 -0.00000000000E+00 -0.30000000000E+02  0.30000000000E+02  0.00000000000E+00 0.  1.
          5    1    1    2  501    0 -0.17483417381E+01  0.29031925919E+02 -0.56569053928E+01  0.30000000000E+02  0.47000000000E+01 0.  1.
         -5    1    1    2    0  501  0.17483417381E+01 -0.29031925919E+02  0.56569053928E+01  0.30000000000E+02  0.47000000000E+01 0. -1.
</event>
<event>
 4    1  0.7580225E-002  0.6000000E+02  0.7546771E-02  0.1259629E+00
         11   -1    0    0    0    0  0.00000000000E+00  0.00000000000E+00  0.30000000000E+02  0.30000000000E+02  0.00000000000E+00 0.  1.
        -11   -1    0    0    0    0 -0.00000000000E+00 -0.00000000000E+00 -0.30000000000E+02  0.30000000000E+02  0.00000000000E+00 0. -1.
          5    1    1    2  501    0 -0.10142779417E+02  0.16823320419E+02 -0.22181296530E+02  0.30000000000E+02  0.47000000000E+01 0. -1.
         -5    1    1    2    0  501  0.10142779417E+02 -0.16823320419E+02  0.22181296530E+02  0.30000000000E+02  0.47000000000E+01 0.  1.
</event>
<event>
 4    1  0.7580225E-002  0.6000000E+02  0.7546771E-02  0.1259629E+00
         11   -1    0    0    0    0  0.00000000000E+00  0.00000000000E+00  0.30000000000E+02  0.30000000000E+02  0.00000000000E+00 0.  1.
        -11   -1    0    0    0    0 -0.00000000000E+00 -0.00000000000E+00 -0.30000000000E+02  0.30000000000E+02  0.00000000000E+00 0. -1.
          5    1    1    2  501    0  0.28872901111E+01  0.13222385800E+02 -0.26357960269E+02  0.30000000000E+02  0.47000000000E+01 0. -1.
         -5    1    1    2    0  501 -0.28872901111E+01 -0.13222385800E+02  0.26357960269E+02  0.30000000000E+02  0.47000000000E+01 0.  1.
</event>
<event>
 4    1  0.7580225E-002  0.6000000E+02  0.7546771E-02  0.1259629E+00
         11   -1    0    0    0    0  0.00000000000E+00  0.00000000000E+00  0.30000000000E+02  0.30000000000E+02  0.00000000000E+00 0.  1.
        -11   -1    0    0    0    0 -0.00000000000E+00 -0.00000000000E+00 -0.30000000000E+02  0.30000000000E+02  0.00000000000E+00 0. -1.
          5    1    1    2  501    0  0.92646077078E+01 -0.27885061924E+02  0.38079345486E+01  0.30000000000E+02  0.47000000000E+01 0. -1.
         -5    1    1    2    0  501 -0.92646077078E+01  0.27885061924E+02 -0.38079345486E+01  0.30000000000E+02  0.47000000000E+01 0.  1.
</event>
<event>
 4    1  0.7580225E-002  0.6000000E+02  0.7546771E-02  0.1259629E+00
         11   -1    0    0    0    0  0.00000000000E+00  0.00000000000E+00  0.30000000000E+02  0.30000000000E+02  0.00000000000E+00 0.  1.
        -11   -1    0    0    0    0 -0.00000000000E+00 -0.00000000000E+00 -0.30000000000E+02  0.30000000000E+02  0.00000000000E+00 0. -1.
          5    1    1    2  501    0  0.18979782471E+02 -0.17317202028E+02  0.14757790190E+02  0.30000000000E+02  0.47000000000E+01 0. -1.
         -5    1    1    2    0  501 -0.18979782471E+02  0.17317202028E+02 -0.14757790190E+02  0.30000000000E+02  0.47000000000E+01 0.  1.
</event>
<event>
 4    1  0.7580225E-002  0.6000000E+02  0.7546771E-02  0.1259629E+00
         11   -1    0    0    0    0  0.00000000000E+00  0.00000000000E+00  0.30000000000E+02  0.30000000000E+02  0.00000000000E+00 0.  1.
        -11   -1    0    0    0    0 -0.00000000000E+00 -0.00000000000E+00 -0.30000000000E+02  0.30000000000E+02  0.00000000000E+00 0. -1.
          5    1    1    2  501    0  0.15836594984E+01 -0.18994578904E+02 -0.22684972886E+02  0.30000000000E+02  0.47000000000E+01 0. -1.
         -5    1    1    2    0  501 -0.15836594984E+01  0.18994578904E+02  0.22684972886E+02  0.30000000000E+02  0.47000000000E+01 0.  1.
</event>
<event>
 4    1  0.7580225E-002  0.6000000E+02  0.7546771E-02  0.1259629E+00
         11   -1    0    0    0    0  0.00000000000E+00  0.00000000000E+00  0.30000000000E+02  0.30000000000E+02  0.00000000000E+00 0.  1.
        -11   -1    0    0    0    0 -0.00000000000E+00 -0.00000000000E+00 -0.30000000000E+02  0.30000000000E+02  0.00000000000E+00 0. -1.
          5    1    1    2  501    0 -0.23083386409E+02  0.56955503994E+01 -0.17681288910E+02  0.30000000000E+02  0.47000000000E+01 0. -1.
         -5    1    1    2    0  501  0.23083386409E+02 -0.56955503994E+01  0.17681288910E+02  0.30000000000E+02  0.47000000000E+01 0.  1.
</event>
<event>
 4    1  0.7580225E-002  0.6000000E+02  0.7546771E-02  0.1259629E+00
         11   -1    0    0    0    0  0.00000000000E+00  0.00000000000E+00  0.30000000000E+02  0.30000000000E+02  0.00000000000E+00 0. -1.
        -11   -1    0    0    0    0 -0.00000000000E+00 -0.00000000000E+00 -0.30000000000E+02  0.30000000000E+02  0.00000000000E+00 0.  1.
          5    1    1    2  501    0  0.14921810382E+02  0.18559065664E+02 -0.17629822931E+02  0.30000000000E+02  0.47000000000E+01 0.  1.
         -5    1    1    2    0  501 -0.14921810382E+02 -0.18559065664E+02  0.17629822931E+02  0.30000000000E+02  0.47000000000E+01 0. -1.
</event>
<event>
 4    1  0.7580225E-002  0.6000000E+02  0.7546771E-02  0.1259629E+00
         11   -1    0    0    0    0  0.00000000000E+00  0.00000000000E+00  0.30000000000E+02  0.30000000000E+02  0.00000000000E+00 0.  1.
        -11   -1    0    0    0    0 -0.00000000000E+00 -0.00000000000E+00 -0.30000000000E+02  0.30000000000E+02  0.00000000000E+00 0. -1.
          5    1    1    2  501    0 -0.73000306350E+01 -0.28691102817E+02  0.12000716041E+01  0.30000000000E+02  0.47000000000E+01 0. -1.
         -5    1    1    2    0  501  0.73000306350E+01  0.28691102817E+02 -0.12000716041E+01  0.30000000000E+02  0.47000000000E+01 0.  1.
</event>
<event>
 4    1  0.7580225E-002  0.6000000E+02  0.7546771E-02  0.1259629E+00
         11   -1    0    0    0    0  0.00000000000E+00  0.00000000000E+00  0.30000000000E+02  0.30000000000E+02  0.00000000000E+00 0.  1.
        -11   -1    0    0    0    0 -0.00000000000E+00 -0.00000000000E+00 -0.30000000000E+02  0.30000000000E+02  0.00000000000E+00 0. -1.
          5    1    1    2  501    0 -0.17325040647E+02  0.50240729384E+01 -0.23505566526E+02  0.30000000000E+02  0.47000000000E+01 0. -1.
         -5    1    1    2    0  501  0.17325040647E+02 -0.50240729384E+01  0.23505566526E+02  0.30000000000E+02  0.47000000000E+01 0.  1.
</event>
<event>
 4    1  0.7580225E-002  0.6000000E+02  0.7546771E-02  0.1259629E+00
         11   -1    0    0    0    0  0.00000000000E+00  0.00000000000E+00  0.30000000000E+02  0.30000000000E+02  0.00000000000E+00 0. -1.
        -11   -1    0    0    0    0 -0.00000000000E+00 -0.00000000000E+00 -0.30000000000E+02  0.30000000000E+02  0.00000000000E+00 0.  1.
          5    1    1    2  501    0  0.15737820796E+02 -0.15503075862E+01 -0.25056487044E+02  0.30000000000E+02  0.47000000000E+01 0.  1.
         -5    1    1    2    0  501 -0.15737820796E+02  0.15503075862E+01  0.25056487044E+02  0.30000000000E+02  0.47000000000E+01 0. -1.
</event>
<event>
 4    1  0.7580225E-002  0.6000000E+02  0.7546771E-02  0.1259629E+00
         11   -1    0    0    0    0  0.00000000000E+00  0.00000000000E+00  0.30000000000E+02  0.30000000000E+02  0.00000000000E+00 0.  1.
        -11   -1    0    0    0    0 -0.00000000000E+00 -0.00000000000E+00 -0.30000000000E+02  0.30000000000E+02  0.00000000000E+00 0. -1.
          5    1    1    2  501    0  0.25859057945E+02  0.99932075961E+01 -0.10457290479E+02  0.30000000000E+02  0.47000000000E+01 0. -1.
         -5    1    1    2    0  501 -0.25859057945E+02 -0.99932075961E+01  0.10457290479E+02  0.30000000000E+02  0.47000000000E+01 0.  1.
</event>
<event>
 4    1  0.7580225E-002  0.6000000E+02  0.7546771E-02  0.1259629E+00
         11   -1    0    0    0    0  0.00000000000E+00  0.00000000000E+00  0.30000000000E+02  0.30000000000E+02  0.00000000000E+00 0.  1.
        -11   -1    0    0    0    0 -0.00000000000E+00 -0.00000000000E+00 -0.30000000000E+02  0.30000000000E+02  0.00000000000E+00 0. -1.
          5    1    1    2  501    0  0.28511072184E+02  0.30433799162E+01  0.74677039061E+01  0.30000000000E+02  0.47000000000E+01 0.  1.
         -5    1    1    2    0  501 -0.28511072184E+02 -0.30433799162E+01 -0.74677039061E+01  0.30000000000E+02  0.47000000000E+01 0. -1.
</event>
<event>
 4    1  0.7580225E-002  0.6000000E+02  0.7546771E-02  0.1259629E+00
         11   -1    0    0    0    0  0.00000000000E+00  0.00000000000E+00  0.30000000000E+02  0.30000000000E+02  0.00000000000E+00 0.  1.
        -11   -1    0    0    0    0 -0.00000000000E+00 -0.00000000000E+00 -0.30000000000E+02  0.30000000000E+02  0.00000000000E+00 0. -1.
          5    1    1    2  501    0 -0.13644997266E+02  0.70129454577E+01 -0.25348424914E+02  0.30000000000E+02  0.47000000000E+01 0. -1.
         -5    1    1    2    0  501  0.13644997266E+02 -0.70129454577E+01  0.25348424914E+02  0.30000000000E+02  0.47000000000E+01 0.  1.
</event>
<event>
 4    1  0.7580225E-002  0.6000000E+02  0.7546771E-02  0.1259629E+00
         11   -1    0    0    0    0  0.00000000000E+00  0.00000000000E+00  0.30000000000E+02  0.30000000000E+02  0.00000000000E+00 0. -1.
        -11   -1    0    0    0    0 -0.00000000000E+00 -0.00000000000E+00 -0.30000000000E+02  0.30000000000E+02  0.00000000000E+00 0.  1.
          5    1    1    2  501    0 -0.21145938665E+01  0.55654021714E+01 -0.29025244038E+02  0.30000000000E+02  0.47000000000E+01 0.  1.
         -5    1    1    2    0  501  0.21145938665E+01 -0.55654021714E+01  0.29025244038E+02  0.30000000000E+02  0.47000000000E+01 0. -1.
</event>
<event>
 4    1  0.7580225E-002  0.6000000E+02  0.7546771E-02  0.1259629E+00
         11   -1    0    0    0    0  0.00000000000E+00  0.00000000000E+00  0.30000000000E+02  0.30000000000E+02  0.00000000000E+00 0.  1.
        -11   -1    0    0    0    0 -0.00000000000E+00 -0.00000000000E+00 -0.30000000000E+02  0.30000000000E+02  0.00000000000E+00 0. -1.
          5    1    1    2  501    0 -0.91550011005E+01  0.25604919736E+02 -0.11767924208E+02  0.30000000000E+02  0.47000000000E+01 0. -1.
         -5    1    1    2    0  501  0.91550011005E+01 -0.25604919736E+02  0.11767924208E+02  0.30000000000E+02  0.47000000000E+01 0.  1.
</event>
<event>
 4    1  0.7580225E-002  0.6000000E+02  0.7546771E-02  0.1259629E+00
         11   -1    0    0    0    0  0.00000000000E+00  0.00000000000E+00  0.30000000000E+02  0.30000000000E+02  0.00000000000E+00 0. -1.
        -11   -1    0    0    0    0 -0.00000000000E+00 -0.00000000000E+00 -0.30000000000E+02  0.30000000000E+02  0.00000000000E+00 0.  1.
          5    1    1    2  501    0 -0.11483831465E+02 -0.26291102194E+02  0.74033479140E+01  0.30000000000E+02  0.47000000000E+01 0.  1.
         -5    1    1    2    0  501  0.11483831465E+02  0.26291102194E+02 -0.74033479140E+01  0.30000000000E+02  0.47000000000E+01 0. -1.
</event>
<event>
 4    1  0.7580225E-002  0.6000000E+02  0.7546771E-02  0.1259629E+00
         11   -1    0    0    0    0  0.00000000000E+00  0.00000000000E+00  0.30000000000E+02  0.30000000000E+02  0.00000000000E+00 0.  1.
        -11   -1    0    0    0    0 -0.00000000000E+00 -0.00000000000E+00 -0.30000000000E+02  0.30000000000E+02  0.00000000000E+00 0. -1.
          5    1    1    2  501    0 -0.67338580791E+01 -0.64645821580E+01  0.28120710035E+02  0.30000000000E+02  0.47000000000E+01 0.  1.
         -5    1    1    2    0  501  0.67338580791E+01  0.64645821580E+01 -0.28120710035E+02  0.30000000000E+02  0.47000000000E+01 0. -1.
</event>
<event>
 4    1  0.7580225E-002  0.6000000E+02  0.7546771E-02  0.1259629E+00
         11   -1    0    0    0    0  0.00000000000E+00  0.00000000000E+00  0.30000000000E+02  0.30000000000E+02  0.00000000000E+00 0.  1.
        -11   -1    0    0    0    0 -0.00000000000E+00 -0.00000000000E+00 -0.30000000000E+02  0.30000000000E+02  0.00000000000E+00 0. -1.
          5    1    1    2  501    0  0.34234050032E+01 -0.20119482217E+02 -0.21480147428E+02  0.30000000000E+02  0.47000000000E+01 0. -1.
         -5    1    1    2    0  501 -0.34234050032E+01  0.20119482217E+02  0.21480147428E+02  0.30000000000E+02  0.47000000000E+01 0.  1.
</event>
<event>
 4    1  0.7580225E-002  0.6000000E+02  0.7546771E-02  0.1259629E+00
         11   -1    0    0    0    0  0.00000000000E+00  0.00000000000E+00  0.30000000000E+02  0.30000000000E+02  0.00000000000E+00 0.  1.
        -11   -1    0    0    0    0 -0.00000000000E+00 -0.00000000000E+00 -0.30000000000E+02  0.30000000000E+02  0.00000000000E+00 0. -1.
          5    1    1    2  501    0  0.53485797771E+01 -0.74925632578E+01 -0.28163170812E+02  0.30000000000E+02  0.47000000000E+01 0. -1.
         -5    1    1    2    0  501 -0.53485797771E+01  0.74925632578E+01  0.28163170812E+02  0.30000000000E+02  0.47000000000E+01 0.  1.
</event>
<event>
 4    1  0.7580225E-002  0.6000000E+02  0.7546771E-02  0.1259629E+00
         11   -1    0    0    0    0  0.00000000000E+00  0.00000000000E+00  0.30000000000E+02  0.30000000000E+02  0.00000000000E+00 0.  1.
        -11   -1    0    0    0    0 -0.00000000000E+00 -0.00000000000E+00 -0.30000000000E+02  0.30000000000E+02  0.00000000000E+00 0. -1.
          5    1    1    2  501    0 -0.17097332799E+02 -0.51252876149E+01 -0.23650002918E+02  0.30000000000E+02  0.47000000000E+01 0. -1.
         -5    1    1    2    0  501  0.17097332799E+02  0.51252876149E+01  0.23650002918E+02  0.30000000000E+02  0.47000000000E+01 0.  1.
</event>
<event>
 4    1  0.7580225E-002  0.6000000E+02  0.7546771E-02  0.1259629E+00
         11   -1    0    0    0    0  0.00000000000E+00  0.00000000000E+00  0.30000000000E+02  0.30000000000E+02  0.00000000000E+00 0.  1.
        -11   -1    0    0    0    0 -0.00000000000E+00 -0.00000000000E+00 -0.30000000000E+02  0.30000000000E+02  0.00000000000E+00 0. -1.
          5    1    1    2  501    0 -0.28783780975E+02 -0.49042701141E+01 -0.50350856408E+01  0.30000000000E+02  0.47000000000E+01 0. -1.
         -5    1    1    2    0  501  0.28783780975E+02  0.49042701141E+01  0.50350856408E+01  0.30000000000E+02  0.47000000000E+01 0.  1.
</event>
<event>
 4    1  0.7580225E-002  0.6000000E+02  0.7546771E-02  0.1259629E+00
         11   -1    0    0    0    0  0.00000000000E+00  0.00000000000E+00  0.30000000000E+02  0.30000000000E+02  0.00000000000E+00 0. -1.
        -11   -1    0    0    0    0 -0.00000000000E+00 -0.00000000000E+00 -0.30000000000E+02  0.30000000000E+02  0.00000000000E+00 0.  1.
          5    1    1    2  501    0  0.13873665190E+02  0.18461234186E+02 -0.18563788582E+02  0.30000000000E+02  0.47000000000E+01 0.  1.
         -5    1    1    2    0  501 -0.13873665190E+02 -0.18461234186E+02  0.18563788582E+02  0.30000000000E+02  0.47000000000E+01 0. -1.
</event>
<event>
 4    1  0.7580225E-002  0.6000000E+02  0.7546771E-02  0.1259629E+00
         11   -1    0    0    0    0  0.00000000000E+00  0.00000000000E+00  0.30000000000E+02  0.30000000000E+02  0.00000000000E+00 0.  1.
        -11   -1    0    0    0    0 -0.00000000000E+00 -0.00000000000E+00 -0.30000000000E+02  0.30000000000E+02  0.00000000000E+00 0. -1.
          5    1    1    2  501    0 -0.14171922409E+02  0.19356909292E+02 -0.17388981508E+02  0.30000000000E+02  0.47000000000E+01 0. -1.
         -5    1    1    2    0  501  0.14171922409E+02 -0.19356909292E+02  0.17388981508E+02  0.30000000000E+02  0.47000000000E+01 0.  1.
</event>
<event>
 4    1  0.7580225E-002  0.6000000E+02  0.7546771E-02  0.1259629E+00
         11   -1    0    0    0    0  0.00000000000E+00  0.00000000000E+00  0.30000000000E+02  0.30000000000E+02  0.00000000000E+00 0.  1.
        -11   -1    0    0    0    0 -0.00000000000E+00 -0.00000000000E+00 -0.30000000000E+02  0.30000000000E+02  0.00000000000E+00 0. -1.
          5    1    1    2  501    0  0.12841913261E+02  0.17083852496E+02 -0.20521628778E+02  0.30000000000E+02  0.47000000000E+01 0. -1.
         -5    1    1    2    0  501 -0.12841913261E+02 -0.17083852496E+02  0.20521628778E+02  0.30000000000E+02  0.47000000000E+01 0.  1.
</event>
<event>
 4    1  0.7580225E-002  0.6000000E+02  0.7546771E-02  0.1259629E+00
         11   -1    0    0    0    0  0.00000000000E+00  0.00000000000E+00  0.30000000000E+02  0.30000000000E+02  0.00000000000E+00 0.  1.
        -11   -1    0    0    0    0 -0.00000000000E+00 -0.00000000000E+00 -0.30000000000E+02  0.30000000000E+02  0.00000000000E+00 0. -1.
          5    1    1    2  501    0  0.17155605204E+02 -0.78394404556E+00 -0.24144992065E+02  0.30000000000E+02  0.47000000000E+01 0. -1.
         -5    1    1    2    0  501 -0.17155605204E+02  0.78394404556E+00  0.24144992065E+02  0.30000000000E+02  0.47000000000E+01 0.  1.
</event>
<event>
 4    1  0.7580225E-002  0.6000000E+02  0.7546771E-02  0.1259629E+00
         11   -1    0    0    0    0  0.00000000000E+00  0.00000000000E+00  0.30000000000E+02  0.30000000000E+02  0.00000000000E+00 0.  1.
        -11   -1    0    0    0    0 -0.00000000000E+00 -0.00000000000E+00 -0.30000000000E+02  0.30000000000E+02  0.00000000000E+00 0. -1.
          5    1    1    2  501    0  0.15628599885E+02  0.16709113789E+02 -0.18827171376E+02  0.30000000000E+02  0.47000000000E+01 0. -1.
         -5    1    1    2    0  501 -0.15628599885E+02 -0.16709113789E+02  0.18827171376E+02  0.30000000000E+02  0.47000000000E+01 0.  1.
</event>
<event>
 4    1  0.7580225E-002  0.6000000E+02  0.7546771E-02  0.1259629E+00
         11   -1    0    0    0    0  0.00000000000E+00  0.00000000000E+00  0.30000000000E+02  0.30000000000E+02  0.00000000000E+00 0. -1.
        -11   -1    0    0    0    0 -0.00000000000E+00 -0.00000000000E+00 -0.30000000000E+02  0.30000000000E+02  0.00000000000E+00 0.  1.
          5    1    1    2  501    0  0.29244675878E+02  0.27870111793E+00 -0.47519741672E+01  0.30000000000E+02  0.47000000000E+01 0.  1.
         -5    1    1    2    0  501 -0.29244675878E+02 -0.27870111793E+00  0.47519741672E+01  0.30000000000E+02  0.47000000000E+01 0. -1.
</event>
<event>
 4    1  0.7580225E-002  0.6000000E+02  0.7546771E-02  0.1259629E+00
         11   -1    0    0    0    0  0.00000000000E+00  0.00000000000E+00  0.30000000000E+02  0.30000000000E+02  0.00000000000E+00 0.  1.
        -11   -1    0    0    0    0 -0.00000000000E+00 -0.00000000000E+00 -0.30000000000E+02  0.30000000000E+02  0.00000000000E+00 0. -1.
          5    1    1    2  501    0  0.63663360079E+01  0.27419420556E+02 -0.92496022743E+01  0.30000000000E+02  0.47000000000E+01 0. -1.
         -5    1    1    2    0  501 -0.63663360079E+01 -0.27419420556E+02  0.92496022743E+01  0.30000000000E+02  0.47000000000E+01 0.  1.
</event>
<event>
 4    1  0.7580225E-002  0.6000000E+02  0.7546771E-02  0.1259629E+00
         11   -1    0    0    0    0  0.00000000000E+00  0.00000000000E+00  0.30000000000E+02  0.30000000000E+02  0.00000000000E+00 0.  1.
        -11   -1    0    0    0    0 -0.00000000000E+00 -0.00000000000E+00 -0.30000000000E+02  0.30000000000E+02  0.00000000000E+00 0. -1.
          5    1    1    2  501    0  0.63116034561E+01  0.27260667526E+02 -0.97431857146E+01  0.30000000000E+02  0.47000000000E+01 0. -1.
         -5    1    1    2    0  501 -0.63116034561E+01 -0.27260667526E+02  0.97431857146E+01  0.30000000000E+02  0.47000000000E+01 0.  1.
</event>
<event>
 4    1  0.7580225E-002  0.6000000E+02  0.7546771E-02  0.1259629E+00
         11   -1    0    0    0    0  0.00000000000E+00  0.00000000000E+00  0.30000000000E+02  0.30000000000E+02  0.00000000000E+00 0. -1.
        -11   -1    0    0    0    0 -0.00000000000E+00 -0.00000000000E+00 -0.30000000000E+02  0.30000000000E+02  0.00000000000E+00 0.  1.
          5    1    1    2  501    0 -0.85472686194E+01 -0.13118789896E+02 -0.25154553282E+02  0.30000000000E+02  0.47000000000E+01 0.  1.
         -5    1    1    2    0  501  0.85472686194E+01  0.13118789896E+02  0.25154553282E+02  0.30000000000E+02  0.47000000000E+01 0. -1.
</event>
<event>
 4    1  0.7580225E-002  0.6000000E+02  0.7546771E-02  0.1259629E+00
         11   -1    0    0    0    0  0.00000000000E+00  0.00000000000E+00  0.30000000000E+02  0.30000000000E+02  0.00000000000E+00 0.  1.
        -11   -1    0    0    0    0 -0.00000000000E+00 -0.00000000000E+00 -0.30000000000E+02  0.30000000000E+02  0.00000000000E+00 0. -1.
          5    1    1    2  501    0 -0.15128858375E+02 -0.15891076652E+02 -0.19912341076E+02  0.30000000000E+02  0.47000000000E+01 0. -1.
         -5    1    1    2    0  501  0.15128858375E+02  0.15891076652E+02  0.19912341076E+02  0.30000000000E+02  0.47000000000E+01 0.  1.
</event>
<event>
 4    1  0.7580225E-002  0.6000000E+02  0.7546771E-02  0.1259629E+00
         11   -1    0    0    0    0  0.00000000000E+00  0.00000000000E+00  0.30000000000E+02  0.30000000000E+02  0.00000000000E+00 0.  1.
        -11   -1    0    0    0    0 -0.00000000000E+00 -0.00000000000E+00 -0.30000000000E+02  0.30000000000E+02  0.00000000000E+00 0. -1.
          5    1    1    2  501    0 -0.23598354000E+02  0.81062754078E+00 -0.17898898611E+02  0.30000000000E+02  0.47000000000E+01 0. -1.
         -5    1    1    2    0  501  0.23598354000E+02 -0.81062754078E+00  0.17898898611E+02  0.30000000000E+02  0.47000000000E+01 0.  1.
</event>
<event>
 4    1  0.7580225E-002  0.6000000E+02  0.7546771E-02  0.1259629E+00
         11   -1    0    0    0    0  0.00000000000E+00  0.00000000000E+00  0.30000000000E+02  0.30000000000E+02  0.00000000000E+00 0. -1.
        -11   -1    0    0    0    0 -0.00000000000E+00 -0.00000000000E+00 -0.30000000000E+02  0.30000000000E+02  0.00000000000E+00 0.  1.
          5    1    1    2  501    0 -0.20233698551E+02 -0.16843566365E+02 -0.13594179456E+02  0.30000000000E+02  0.47000000000E+01 0.  1.
         -5    1    1    2    0  501  0.20233698551E+02  0.16843566365E+02  0.13594179456E+02  0.30000000000E+02  0.47000000000E+01 0. -1.
</event>
<event>
 4    1  0.7580225E-002  0.6000000E+02  0.7546771E-02  0.1259629E+00
         11   -1    0    0    0    0  0.00000000000E+00  0.00000000000E+00  0.30000000000E+02  0.30000000000E+02  0.00000000000E+00 0.  1.
        -11   -1    0    0    0    0 -0.00000000000E+00 -0.00000000000E+00 -0.30000000000E+02  0.30000000000E+02  0.00000000000E+00 0. -1.
          5    1    1    2  501    0  0.60153190522E+01  0.19543139124E+02  0.21442752852E+02  0.30000000000E+02  0.47000000000E+01 0. -1.
         -5    1    1    2    0  501 -0.60153190522E+01 -0.19543139124E+02 -0.21442752852E+02  0.30000000000E+02  0.47000000000E+01 0.  1.
</event>
<event>
 4    1  0.7580225E-002  0.6000000E+02  0.7546771E-02  0.1259629E+00
         11   -1    0    0    0    0  0.00000000000E+00  0.00000000000E+00  0.30000000000E+02  0.30000000000E+02  0.00000000000E+00 0.  1.
        -11   -1    0    0    0    0 -0.00000000000E+00 -0.00000000000E+00 -0.30000000000E+02  0.30000000000E+02  0.00000000000E+00 0. -1.
          5    1    1    2  501    0  0.18706855009E+02  0.22852001683E+02  0.23978312642E+01  0.30000000000E+02  0.47000000000E+01 0. -1.
         -5    1    1    2    0  501 -0.18706855009E+02 -0.22852001683E+02 -0.23978312642E+01  0.30000000000E+02  0.47000000000E+01 0.  1.
</event>
<event>
 4    1  0.7580225E-002  0.6000000E+02  0.7546771E-02  0.1259629E+00
         11   -1    0    0    0    0  0.00000000000E+00  0.00000000000E+00  0.30000000000E+02  0.30000000000E+02  0.00000000000E+00 0.  1.
        -11   -1    0    0    0    0 -0.00000000000E+00 -0.00000000000E+00 -0.30000000000E+02  0.30000000000E+02  0.00000000000E+00 0. -1.
          5    1    1    2  501    0  0.24289887084E+02  0.16877962292E+02 -0.17452146812E+01  0.30000000000E+02  0.47000000000E+01 0. -1.
         -5    1    1    2    0  501 -0.24289887084E+02 -0.16877962292E+02  0.17452146812E+01  0.30000000000E+02  0.47000000000E+01 0.  1.
</event>
<event>
 4    1  0.7580225E-002  0.6000000E+02  0.7546771E-02  0.1259629E+00
         11   -1    0    0    0    0  0.00000000000E+00  0.00000000000E+00  0.30000000000E+02  0.30000000000E+02  0.00000000000E+00 0.  1.
        -11   -1    0    0    0    0 -0.00000000000E+00 -0.00000000000E+00 -0.30000000000E+02  0.30000000000E+02  0.00000000000E+00 0. -1.
          5    1    1    2  501    0  0.25597329953E+02 -0.14390185780E+02  0.39508546509E+01  0.30000000000E+02  0.47000000000E+01 0. -1.
         -5    1    1    2    0  501 -0.25597329953E+02  0.14390185780E+02 -0.39508546509E+01  0.30000000000E+02  0.47000000000E+01 0.  1.
</event>
<event>
 4    1  0.7580225E-002  0.6000000E+02  0.7546771E-02  0.1259629E+00
         11   -1    0    0    0    0  0.00000000000E+00  0.00000000000E+00  0.30000000000E+02  0.30000000000E+02  0.00000000000E+00 0.  1.
        -11   -1    0    0    0    0 -0.00000000000E+00 -0.00000000000E+00 -0.30000000000E+02  0.30000000000E+02  0.00000000000E+00 0. -1.
          5    1    1    2  501    0 -0.18642989248E+01  0.25380259750E+02 -0.15174874120E+02  0.30000000000E+02  0.47000000000E+01 0. -1.
         -5    1    1    2    0  501  0.18642989248E+01 -0.25380259750E+02  0.15174874120E+02  0.30000000000E+02  0.47000000000E+01 0.  1.
</event>
<event>
 4    1  0.7580225E-002  0.6000000E+02  0.7546771E-02  0.1259629E+00
         11   -1    0    0    0    0  0.00000000000E+00  0.00000000000E+00  0.30000000000E+02  0.30000000000E+02  0.00000000000E+00 0. -1.
        -11   -1    0    0    0    0 -0.00000000000E+00 -0.00000000000E+00 -0.30000000000E+02  0.30000000000E+02  0.00000000000E+00 0.  1.
          5    1    1    2  501    0  0.27576068972E+02 -0.91680785462E+01  0.57807227757E+01  0.30000000000E+02  0.47000000000E+01 0.  1.
         -5    1    1    2    0  501 -0.27576068972E+02  0.91680785462E+01 -0.57807227757E+01  0.30000000000E+02  0.47000000000E+01 0. -1.
</event>
<event>
 4    1  0.7580225E-002  0.6000000E+02  0.7546771E-02  0.1259629E+00
         11   -1    0    0    0    0  0.00000000000E+00  0.00000000000E+00  0.30000000000E+02  0.30000000000E+02  0.00000000000E+00 0.  1.
        -11   -1    0    0    0    0 -0.00000000000E+00 -0.00000000000E+00 -0.30000000000E+02  0.30000000000E+02  0.00000000000E+00 0. -1.
          5    1    1    2  501    0 -0.16171897826E+02  0.11335912770E+02 -0.22087933412E+02  0.30000000000E+02  0.47000000000E+01 0. -1.
         -5    1    1    2    0  501  0.16171897826E+02 -0.11335912770E+02  0.22087933412E+02  0.30000000000E+02  0.47000000000E+01 0.  1.
</event>
<event>
 4    1  0.7580225E-002  0.6000000E+02  0.7546771E-02  0.1259629E+00
         11   -1    0    0    0    0  0.00000000000E+00  0.00000000000E+00  0.30000000000E+02  0.30000000000E+02  0.00000000000E+00 0. -1.
        -11   -1    0    0    0    0 -0.00000000000E+00 -0.00000000000E+00 -0.30000000000E+02  0.30000000000E+02  0.00000000000E+00 0.  1.
          5    1    1    2  501    0  0.21216992478E+02  0.17187726766E+02 -0.11503533319E+02  0.30000000000E+02  0.47000000000E+01 0.  1.
         -5    1    1    2    0  501 -0.21216992478E+02 -0.17187726766E+02  0.11503533319E+02  0.30000000000E+02  0.47000000000E+01 0. -1.
</event>
<event>
 4    1  0.7580225E-002  0.6000000E+02  0.7546771E-02  0.1259629E+00
         11   -1    0    0    0    0  0.00000000000E+00  0.00000000000E+00  0.30000000000E+02  0.30000000000E+02  0.00000000000E+00 0.  1.
        -11   -1    0    0    0    0 -0.00000000000E+00 -0.00000000000E+00 -0.30000000000E+02  0.30000000000E+02  0.00000000000E+00 0. -1.
          5    1    1    2  501    0 -0.12987376589E+02  0.20473266334E+02 -0.17031835337E+02  0.30000000000E+02  0.47000000000E+01 0. -1.
         -5    1    1    2    0  501  0.12987376589E+02 -0.20473266334E+02  0.17031835337E+02  0.30000000000E+02  0.47000000000E+01 0.  1.
</event>
<event>
 4    1  0.7580225E-002  0.6000000E+02  0.7546771E-02  0.1259629E+00
         11   -1    0    0    0    0  0.00000000000E+00  0.00000000000E+00  0.30000000000E+02  0.30000000000E+02  0.00000000000E+00 0.  1.
        -11   -1    0    0    0    0 -0.00000000000E+00 -0.00000000000E+00 -0.30000000000E+02  0.30000000000E+02  0.00000000000E+00 0. -1.
          5    1    1    2  501    0 -0.15995149972E+02 -0.23505218517E+02 -0.83408560597E+01  0.30000000000E+02  0.47000000000E+01 0. -1.
         -5    1    1    2    0  501  0.15995149972E+02  0.23505218517E+02  0.83408560597E+01  0.30000000000E+02  0.47000000000E+01 0.  1.
</event>
<event>
 4    1  0.7580225E-002  0.6000000E+02  0.7546771E-02  0.1259629E+00
         11   -1    0    0    0    0  0.00000000000E+00  0.00000000000E+00  0.30000000000E+02  0.30000000000E+02  0.00000000000E+00 0.  1.
        -11   -1    0    0    0    0 -0.00000000000E+00 -0.00000000000E+00 -0.30000000000E+02  0.30000000000E+02  0.00000000000E+00 0. -1.
          5    1    1    2  501    0  0.22743563210E+01 -0.91973748231E+01 -0.28073930963E+02  0.30000000000E+02  0.47000000000E+01 0. -1.
         -5    1    1    2    0  501 -0.22743563210E+01  0.91973748231E+01  0.28073930963E+02  0.30000000000E+02  0.47000000000E+01 0.  1.
</event>
<event>
 4    1  0.7580225E-002  0.6000000E+02  0.7546771E-02  0.1259629E+00
         11   -1    0    0    0    0  0.00000000000E+00  0.00000000000E+00  0.30000000000E+02  0.30000000000E+02  0.00000000000E+00 0. -1.
        -11   -1    0    0    0    0 -0.00000000000E+00 -0.00000000000E+00 -0.30000000000E+02  0.30000000000E+02  0.00000000000E+00 0.  1.
          5    1    1    2  501    0 -0.22241138763E+02  0.10238182809E+02 -0.16685962942E+02  0.30000000000E+02  0.47000000000E+01 0.  1.
         -5    1    1    2    0  501  0.22241138763E+02 -0.10238182809E+02  0.16685962942E+02  0.30000000000E+02  0.47000000000E+01 0. -1.
</event>
<event>
 4    1  0.7580225E-002  0.6000000E+02  0.7546771E-02  0.1259629E+00
         11   -1    0    0    0    0  0.00000000000E+00  0.00000000000E+00  0.30000000000E+02  0.30000000000E+02  0.00000000000E+00 0.  1.
        -11   -1    0    0    0    0 -0.00000000000E+00 -0.00000000000E+00 -0.30000000000E+02  0.30000000000E+02  0.00000000000E+00 0. -1.
          5    1    1    2  501    0  0.10320531319E+02  0.22407847624E+02 -0.16409905489E+02  0.30000000000E+02  0.47000000000E+01 0. -1.
         -5    1    1    2    0  501 -0.10320531319E+02 -0.22407847624E+02  0.16409905489E+02  0.30000000000E+02  0.47000000000E+01 0.  1.
</event>
<event>
 4    1  0.7580225E-002  0.6000000E+02  0.7546771E-02  0.1259629E+00
         11   -1    0    0    0    0  0.00000000000E+00  0.00000000000E+00  0.30000000000E+02  0.30000000000E+02  0.00000000000E+00 0.  1.
        -11   -1    0    0    0    0 -0.00000000000E+00 -0.00000000000E+00 -0.30000000000E+02  0.30000000000E+02  0.00000000000E+00 0. -1.
          5    1    1    2  501    0  0.13268281299E+02  0.11621457717E+02 -0.23807654901E+02  0.30000000000E+02  0.47000000000E+01 0. -1.
         -5    1    1    2    0  501 -0.13268281299E+02 -0.11621457717E+02  0.23807654901E+02  0.30000000000E+02  0.47000000000E+01 0.  1.
</event>
<event>
 4    1  0.7580225E-002  0.6000000E+02  0.7546771E-02  0.1259629E+00
         11   -1    0    0    0    0  0.00000000000E+00  0.00000000000E+00  0.30000000000E+02  0.30000000000E+02  0.00000000000E+00 0.  1.
        -11   -1    0    0    0    0 -0.00000000000E+00 -0.00000000000E+00 -0.30000000000E+02  0.30000000000E+02  0.00000000000E+00 0. -1.
          5    1    1    2  501    0 -0.13416181197E+02 -0.25766270177E+01 -0.26292148548E+02  0.30000000000E+02  0.47000000000E+01 0. -1.
         -5    1    1    2    0  501  0.13416181197E+02  0.25766270177E+01  0.26292148548E+02  0.30000000000E+02  0.47000000000E+01 0.  1.
</event>
<event>
 4    1  0.7580225E-002  0.6000000E+02  0.7546771E-02  0.1259629E+00
         11   -1    0    0    0    0  0.00000000000E+00  0.00000000000E+00  0.30000000000E+02  0.30000000000E+02  0.00000000000E+00 0.  1.
        -11   -1    0    0    0    0 -0.00000000000E+00 -0.00000000000E+00 -0.30000000000E+02  0.30000000000E+02  0.00000000000E+00 0. -1.
          5    1    1    2  501    0  0.13661598683E+02 -0.26164575246E+02  0.25856766285E+01  0.30000000000E+02  0.47000000000E+01 0. -1.
         -5    1    1    2    0  501 -0.13661598683E+02  0.26164575246E+02 -0.25856766285E+01  0.30000000000E+02  0.47000000000E+01 0.  1.
</event>
<event>
 4    1  0.7580225E-002  0.6000000E+02  0.7546771E-02  0.1259629E+00
         11   -1    0    0    0    0  0.00000000000E+00  0.00000000000E+00  0.30000000000E+02  0.30000000000E+02  0.00000000000E+00 0.  1.
        -11   -1    0    0    0    0 -0.00000000000E+00 -0.00000000000E+00 -0.30000000000E+02  0.30000000000E+02  0.00000000000E+00 0. -1.
          5    1    1    2  501    0 -0.16751611035E+02  0.45927504840E+01 -0.24004169861E+02  0.30000000000E+02  0.47000000000E+01 0. -1.
         -5    1    1    2    0  501  0.16751611035E+02 -0.45927504840E+01  0.24004169861E+02  0.30000000000E+02  0.47000000000E+01 0.  1.
</event>
<event>
 4    1  0.7580225E-002  0.6000000E+02  0.7546771E-02  0.1259629E+00
         11   -1    0    0    0    0  0.00000000000E+00  0.00000000000E+00  0.30000000000E+02  0.30000000000E+02  0.00000000000E+00 0.  1.
        -11   -1    0    0    0    0 -0.00000000000E+00 -0.00000000000E+00 -0.30000000000E+02  0.30000000000E+02  0.00000000000E+00 0. -1.
          5    1    1    2  501    0 -0.20496142253E+02  0.21304184909E+02  0.19874249863E+01  0.30000000000E+02  0.47000000000E+01 0. -1.
         -5    1    1    2    0  501  0.20496142253E+02 -0.21304184909E+02 -0.19874249863E+01  0.30000000000E+02  0.47000000000E+01 0.  1.
</event>
<event>
 4    1  0.7580225E-002  0.6000000E+02  0.7546771E-02  0.1259629E+00
         11   -1    0    0    0    0  0.00000000000E+00  0.00000000000E+00  0.30000000000E+02  0.30000000000E+02  0.00000000000E+00 0.  1.
        -11   -1    0    0    0    0 -0.00000000000E+00 -0.00000000000E+00 -0.30000000000E+02  0.30000000000E+02  0.00000000000E+00 0. -1.
          5    1    1    2  501    0 -0.10294568210E+02 -0.25799016657E+02  0.10312255084E+02  0.30000000000E+02  0.47000000000E+01 0. -1.
         -5    1    1    2    0  501  0.10294568210E+02  0.25799016657E+02 -0.10312255084E+02  0.30000000000E+02  0.47000000000E+01 0.  1.
</event>
<event>
 4    1  0.7580225E-002  0.6000000E+02  0.7546771E-02  0.1259629E+00
         11   -1    0    0    0    0  0.00000000000E+00  0.00000000000E+00  0.30000000000E+02  0.30000000000E+02  0.00000000000E+00 0.  1.
        -11   -1    0    0    0    0 -0.00000000000E+00 -0.00000000000E+00 -0.30000000000E+02  0.30000000000E+02  0.00000000000E+00 0. -1.
          5    1    1    2  501    0  0.19141183921E+02 -0.10251508512E+01 -0.22593674863E+02  0.30000000000E+02  0.47000000000E+01 0. -1.
         -5    1    1    2    0  501 -0.19141183921E+02  0.10251508512E+01  0.22593674863E+02  0.30000000000E+02  0.47000000000E+01 0.  1.
</event>
<event>
 4    1  0.7580225E-002  0.6000000E+02  0.7546771E-02  0.1259629E+00
         11   -1    0    0    0    0  0.00000000000E+00  0.00000000000E+00  0.30000000000E+02  0.30000000000E+02  0.00000000000E+00 0.  1.
        -11   -1    0    0    0    0 -0.00000000000E+00 -0.00000000000E+00 -0.30000000000E+02  0.30000000000E+02  0.00000000000E+00 0. -1.
          5    1    1    2  501    0 -0.69671459318E+01 -0.96671429966E+00  0.28782535347E+02  0.30000000000E+02  0.47000000000E+01 0.  1.
         -5    1    1    2    0  501  0.69671459318E+01  0.96671429966E+00 -0.28782535347E+02  0.30000000000E+02  0.47000000000E+01 0. -1.
</event>
<event>
 4    1  0.7580225E-002  0.6000000E+02  0.7546771E-02  0.1259629E+00
         11   -1    0    0    0    0  0.00000000000E+00  0.00000000000E+00  0.30000000000E+02  0.30000000000E+02  0.00000000000E+00 0.  1.
        -11   -1    0    0    0    0 -0.00000000000E+00 -0.00000000000E+00 -0.30000000000E+02  0.30000000000E+02  0.00000000000E+00 0. -1.
          5    1    1    2  501    0  0.10937503764E+02  0.26744551708E+02  0.65581983292E+01  0.30000000000E+02  0.47000000000E+01 0. -1.
         -5    1    1    2    0  501 -0.10937503764E+02 -0.26744551708E+02 -0.65581983292E+01  0.30000000000E+02  0.47000000000E+01 0.  1.
</event>
<event>
 4    1  0.7580225E-002  0.6000000E+02  0.7546771E-02  0.1259629E+00
         11   -1    0    0    0    0  0.00000000000E+00  0.00000000000E+00  0.30000000000E+02  0.30000000000E+02  0.00000000000E+00 0. -1.
        -11   -1    0    0    0    0 -0.00000000000E+00 -0.00000000000E+00 -0.30000000000E+02  0.30000000000E+02  0.00000000000E+00 0.  1.
          5    1    1    2  501    0 -0.51045746365E+01  0.38405321758E+01 -0.28932743223E+02  0.30000000000E+02  0.47000000000E+01 0.  1.
         -5    1    1    2    0  501  0.51045746365E+01 -0.38405321758E+01  0.28932743223E+02  0.30000000000E+02  0.47000000000E+01 0. -1.
</event>
<event>
 4    1  0.7580225E-002  0.6000000E+02  0.7546771E-02  0.1259629E+00
         11   -1    0    0    0    0  0.00000000000E+00  0.00000000000E+00  0.30000000000E+02  0.30000000000E+02  0.00000000000E+00 0.  1.
        -11   -1    0    0    0    0 -0.00000000000E+00 -0.00000000000E+00 -0.30000000000E+02  0.30000000000E+02  0.00000000000E+00 0. -1.
          5    1    1    2  501    0  0.28977340421E+01 -0.15776776615E+02 -0.24911974171E+02  0.30000000000E+02  0.47000000000E+01 0. -1.
         -5    1    1    2    0  501 -0.28977340421E+01  0.15776776615E+02  0.24911974171E+02  0.30000000000E+02  0.47000000000E+01 0.  1.
</event>
<event>
 4    1  0.7580225E-002  0.6000000E+02  0.7546771E-02  0.1259629E+00
         11   -1    0    0    0    0  0.00000000000E+00  0.00000000000E+00  0.30000000000E+02  0.30000000000E+02  0.00000000000E+00 0.  1.
        -11   -1    0    0    0    0 -0.00000000000E+00 -0.00000000000E+00 -0.30000000000E+02  0.30000000000E+02  0.00000000000E+00 0. -1.
          5    1    1    2  501    0  0.21139020781E+00 -0.27471233664E+02 -0.11099397964E+02  0.30000000000E+02  0.47000000000E+01 0. -1.
         -5    1    1    2    0  501 -0.21139020781E+00  0.27471233664E+02  0.11099397964E+02  0.30000000000E+02  0.47000000000E+01 0.  1.
</event>
<event>
 4    1  0.7580225E-002  0.6000000E+02  0.7546771E-02  0.1259629E+00
         11   -1    0    0    0    0  0.00000000000E+00  0.00000000000E+00  0.30000000000E+02  0.30000000000E+02  0.00000000000E+00 0.  1.
        -11   -1    0    0    0    0 -0.00000000000E+00 -0.00000000000E+00 -0.30000000000E+02  0.30000000000E+02  0.00000000000E+00 0. -1.
          5    1    1    2  501    0 -0.26657723863E+02 -0.39847872649E+01  0.12304358126E+02  0.30000000000E+02  0.47000000000E+01 0. -1.
         -5    1    1    2    0  501  0.26657723863E+02  0.39847872649E+01 -0.12304358126E+02  0.30000000000E+02  0.47000000000E+01 0.  1.
</event>
<event>
 4    1  0.7580225E-002  0.6000000E+02  0.7546771E-02  0.1259629E+00
         11   -1    0    0    0    0  0.00000000000E+00  0.00000000000E+00  0.30000000000E+02  0.30000000000E+02  0.00000000000E+00 0.  1.
        -11   -1    0    0    0    0 -0.00000000000E+00 -0.00000000000E+00 -0.30000000000E+02  0.30000000000E+02  0.00000000000E+00 0. -1.
          5    1    1    2  501    0 -0.20394811325E+02  0.25169794384E+01 -0.21345409003E+02  0.30000000000E+02  0.47000000000E+01 0. -1.
         -5    1    1    2    0  501  0.20394811325E+02 -0.25169794384E+01  0.21345409003E+02  0.30000000000E+02  0.47000000000E+01 0.  1.
</event>
<event>
 4    1  0.7580225E-002  0.6000000E+02  0.7546771E-02  0.1259629E+00
         11   -1    0    0    0    0  0.00000000000E+00  0.00000000000E+00  0.30000000000E+02  0.30000000000E+02  0.00000000000E+00 0.  1.
        -11   -1    0    0    0    0 -0.00000000000E+00 -0.00000000000E+00 -0.30000000000E+02  0.30000000000E+02  0.00000000000E+00 0. -1.
          5    1    1    2  501    0 -0.53528340714E+01  0.24206825857E+02 -0.16226113193E+02  0.30000000000E+02  0.47000000000E+01 0. -1.
         -5    1    1    2    0  501  0.53528340714E+01 -0.24206825857E+02  0.16226113193E+02  0.30000000000E+02  0.47000000000E+01 0.  1.
</event>
<event>
 4    1  0.7580225E-002  0.6000000E+02  0.7546771E-02  0.1259629E+00
         11   -1    0    0    0    0  0.00000000000E+00  0.00000000000E+00  0.30000000000E+02  0.30000000000E+02  0.00000000000E+00 0.  1.
        -11   -1    0    0    0    0 -0.00000000000E+00 -0.00000000000E+00 -0.30000000000E+02  0.30000000000E+02  0.00000000000E+00 0. -1.
          5    1    1    2  501    0  0.26325698723E+02  0.13394293342E+02 -0.23367696947E+01  0.30000000000E+02  0.47000000000E+01 0. -1.
         -5    1    1    2    0  501 -0.26325698723E+02 -0.13394293342E+02  0.23367696947E+01  0.30000000000E+02  0.47000000000E+01 0.  1.
</event>
<event>
 4    1  0.7580225E-002  0.6000000E+02  0.7546771E-02  0.1259629E+00
         11   -1    0    0    0    0  0.00000000000E+00  0.00000000000E+00  0.30000000000E+02  0.30000000000E+02  0.00000000000E+00 0.  1.
        -11   -1    0    0    0    0 -0.00000000000E+00 -0.00000000000E+00 -0.30000000000E+02  0.30000000000E+02  0.00000000000E+00 0. -1.
          5    1    1    2  501    0  0.23329935008E+02 -0.12765546099E+02 -0.13063880179E+02  0.30000000000E+02  0.47000000000E+01 0. -1.
         -5    1    1    2    0  501 -0.23329935008E+02  0.12765546099E+02  0.13063880179E+02  0.30000000000E+02  0.47000000000E+01 0.  1.
</event>
<event>
 4    1  0.7580225E-002  0.6000000E+02  0.7546771E-02  0.1259629E+00
         11   -1    0    0    0    0  0.00000000000E+00  0.00000000000E+00  0.30000000000E+02  0.30000000000E+02  0.00000000000E+00 0.  1.
        -11   -1    0    0    0    0 -0.00000000000E+00 -0.00000000000E+00 -0.30000000000E+02  0.30000000000E+02  0.00000000000E+00 0. -1.
          5    1    1    2  501    0  0.98909419932E+01  0.16096268673E+02 -0.22825192251E+02  0.30000000000E+02  0.47000000000E+01 0. -1.
         -5    1    1    2    0  501 -0.98909419932E+01 -0.16096268673E+02  0.22825192251E+02  0.30000000000E+02  0.47000000000E+01 0.  1.
</event>
<event>
 4    1  0.7580225E-002  0.6000000E+02  0.7546771E-02  0.1259629E+00
         11   -1    0    0    0    0  0.00000000000E+00  0.00000000000E+00  0.30000000000E+02  0.30000000000E+02  0.00000000000E+00 0. -1.
        -11   -1    0    0    0    0 -0.00000000000E+00 -0.00000000000E+00 -0.30000000000E+02  0.30000000000E+02  0.00000000000E+00 0.  1.
          5    1    1    2  501    0 -0.14614255974E+02 -0.25768828762E+02 -0.54862240489E+00  0.30000000000E+02  0.47000000000E+01 0.  1.
         -5    1    1    2    0  501  0.14614255974E+02  0.25768828762E+02  0.54862240489E+00  0.30000000000E+02  0.47000000000E+01 0. -1.
</event>
<event>
 4    1  0.7580225E-002  0.6000000E+02  0.7546771E-02  0.1259629E+00
         11   -1    0    0    0    0  0.00000000000E+00  0.00000000000E+00  0.30000000000E+02  0.30000000000E+02  0.00000000000E+00 0.  1.
        -11   -1    0    0    0    0 -0.00000000000E+00 -0.00000000000E+00 -0.30000000000E+02  0.30000000000E+02  0.00000000000E+00 0. -1.
          5    1    1    2  501    0  0.28237687749E+02  0.75279923164E+01  0.48859310563E+01  0.30000000000E+02  0.47000000000E+01 0. -1.
         -5    1    1    2    0  501 -0.28237687749E+02 -0.75279923164E+01 -0.48859310563E+01  0.30000000000E+02  0.47000000000E+01 0.  1.
</event>
<event>
 4    1  0.7580225E-002  0.6000000E+02  0.7546771E-02  0.1259629E+00
         11   -1    0    0    0    0  0.00000000000E+00  0.00000000000E+00  0.30000000000E+02  0.30000000000E+02  0.00000000000E+00 0.  1.
        -11   -1    0    0    0    0 -0.00000000000E+00 -0.00000000000E+00 -0.30000000000E+02  0.30000000000E+02  0.00000000000E+00 0. -1.
          5    1    1    2  501    0 -0.96646859596E+01  0.13366992879E+02 -0.24613560219E+02  0.30000000000E+02  0.47000000000E+01 0. -1.
         -5    1    1    2    0  501  0.96646859596E+01 -0.13366992879E+02  0.24613560219E+02  0.30000000000E+02  0.47000000000E+01 0.  1.
</event>
<event>
 4    1  0.7580225E-002  0.6000000E+02  0.7546771E-02  0.1259629E+00
         11   -1    0    0    0    0  0.00000000000E+00  0.00000000000E+00  0.30000000000E+02  0.30000000000E+02  0.00000000000E+00 0. -1.
        -11   -1    0    0    0    0 -0.00000000000E+00 -0.00000000000E+00 -0.30000000000E+02  0.30000000000E+02  0.00000000000E+00 0.  1.
          5    1    1    2  501    0  0.19414526817E+02 -0.21624474362E+02 -0.57765263787E+01  0.30000000000E+02  0.47000000000E+01 0.  1.
         -5    1    1    2    0  501 -0.19414526817E+02  0.21624474362E+02  0.57765263787E+01  0.30000000000E+02  0.47000000000E+01 0. -1.
</event>
<event>
 4    1  0.7580225E-002  0.6000000E+02  0.7546771E-02  0.1259629E+00
         11   -1    0    0    0    0  0.00000000000E+00  0.00000000000E+00  0.30000000000E+02  0.30000000000E+02  0.00000000000E+00 0.  1.
        -11   -1    0    0    0    0 -0.00000000000E+00 -0.00000000000E+00 -0.30000000000E+02  0.30000000000E+02  0.00000000000E+00 0. -1.
          5    1    1    2  501    0  0.27964399087E+02 -0.97901267551E+01 -0.23622412744E+00  0.30000000000E+02  0.47000000000E+01 0. -1.
         -5    1    1    2    0  501 -0.27964399087E+02  0.97901267551E+01  0.23622412744E+00  0.30000000000E+02  0.47000000000E+01 0.  1.
</event>
<event>
 4    1  0.7580225E-002  0.6000000E+02  0.7546771E-02  0.1259629E+00
         11   -1    0    0    0    0  0.00000000000E+00  0.00000000000E+00  0.30000000000E+02  0.30000000000E+02  0.00000000000E+00 0.  1.
        -11   -1    0    0    0    0 -0.00000000000E+00 -0.00000000000E+00 -0.30000000000E+02  0.30000000000E+02  0.00000000000E+00 0. -1.
          5    1    1    2  501    0  0.29016871975E+02  0.49079375330E+01 -0.34414081333E+01  0.30000000000E+02  0.47000000000E+01 0. -1.
         -5    1    1    2    0  501 -0.29016871975E+02 -0.49079375330E+01  0.34414081333E+01  0.30000000000E+02  0.47000000000E+01 0.  1.
</event>
<event>
 4    1  0.7580225E-002  0.6000000E+02  0.7546771E-02  0.1259629E+00
         11   -1    0    0    0    0  0.00000000000E+00  0.00000000000E+00  0.30000000000E+02  0.30000000000E+02  0.00000000000E+00 0.  1.
        -11   -1    0    0    0    0 -0.00000000000E+00 -0.00000000000E+00 -0.30000000000E+02  0.30000000000E+02  0.00000000000E+00 0. -1.
          5    1    1    2  501    0  0.43550622479E+01  0.26576237899E+02  0.12355039940E+02  0.30000000000E+02  0.47000000000E+01 0.  1.
         -5    1    1    2    0  501 -0.43550622479E+01 -0.26576237899E+02 -0.12355039940E+02  0.30000000000E+02  0.47000000000E+01 0. -1.
</event>
<event>
 4    1  0.7580225E-002  0.6000000E+02  0.7546771E-02  0.1259629E+00
         11   -1    0    0    0    0  0.00000000000E+00  0.00000000000E+00  0.30000000000E+02  0.30000000000E+02  0.00000000000E+00 0.  1.
        -11   -1    0    0    0    0 -0.00000000000E+00 -0.00000000000E+00 -0.30000000000E+02  0.30000000000E+02  0.00000000000E+00 0. -1.
          5    1    1    2  501    0  0.13116670826E+02 -0.41472755316E+01 -0.26242390366E+02  0.30000000000E+02  0.47000000000E+01 0. -1.
         -5    1    1    2    0  501 -0.13116670826E+02  0.41472755316E+01  0.26242390366E+02  0.30000000000E+02  0.47000000000E+01 0.  1.
</event>
<event>
 4    1  0.7580225E-002  0.6000000E+02  0.7546771E-02  0.1259629E+00
         11   -1    0    0    0    0  0.00000000000E+00  0.00000000000E+00  0.30000000000E+02  0.30000000000E+02  0.00000000000E+00 0.  1.
        -11   -1    0    0    0    0 -0.00000000000E+00 -0.00000000000E+00 -0.30000000000E+02  0.30000000000E+02  0.00000000000E+00 0. -1.
          5    1    1    2  501    0  0.17064658784E+02 -0.11282191637E+02 -0.21434075032E+02  0.30000000000E+02  0.47000000000E+01 0. -1.
         -5    1    1    2    0  501 -0.17064658784E+02  0.11282191637E+02  0.21434075032E+02  0.30000000000E+02  0.47000000000E+01 0.  1.
</event>
<event>
 4    1  0.7580225E-002  0.6000000E+02  0.7546771E-02  0.1259629E+00
         11   -1    0    0    0    0  0.00000000000E+00  0.00000000000E+00  0.30000000000E+02  0.30000000000E+02  0.00000000000E+00 0.  1.
        -11   -1    0    0    0    0 -0.00000000000E+00 -0.00000000000E+00 -0.30000000000E+02  0.30000000000E+02  0.00000000000E+00 0. -1.
          5    1    1    2  501    0 -0.75359423138E+01 -0.27890635624E+02  0.65751059243E+01  0.30000000000E+02  0.47000000000E+01 0. -1.
         -5    1    1    2    0  501  0.75359423138E+01  0.27890635624E+02 -0.65751059243E+01  0.30000000000E+02  0.47000000000E+01 0.  1.
</event>
<event>
 4    1  0.7580225E-002  0.6000000E+02  0.7546771E-02  0.1259629E+00
         11   -1    0    0    0    0  0.00000000000E+00  0.00000000000E+00  0.30000000000E+02  0.30000000000E+02  0.00000000000E+00 0.  1.
        -11   -1    0    0    0    0 -0.00000000000E+00 -0.00000000000E+00 -0.30000000000E+02  0.30000000000E+02  0.00000000000E+00 0. -1.
          5    1    1    2  501    0 -0.95728518318E+01  0.26272799489E+02 -0.97984955377E+01  0.30000000000E+02  0.47000000000E+01 0. -1.
         -5    1    1    2    0  501  0.95728518318E+01 -0.26272799489E+02  0.97984955377E+01  0.30000000000E+02  0.47000000000E+01 0.  1.
</event>
<event>
 4    1  0.7580225E-002  0.6000000E+02  0.7546771E-02  0.1259629E+00
         11   -1    0    0    0    0  0.00000000000E+00  0.00000000000E+00  0.30000000000E+02  0.30000000000E+02  0.00000000000E+00 0.  1.
        -11   -1    0    0    0    0 -0.00000000000E+00 -0.00000000000E+00 -0.30000000000E+02  0.30000000000E+02  0.00000000000E+00 0. -1.
          5    1    1    2  501    0  0.72224438531E+01 -0.18495496626E+02 -0.21992337514E+02  0.30000000000E+02  0.47000000000E+01 0. -1.
         -5    1    1    2    0  501 -0.72224438531E+01  0.18495496626E+02  0.21992337514E+02  0.30000000000E+02  0.47000000000E+01 0.  1.
</event>
<event>
 4    1  0.7580225E-002  0.6000000E+02  0.7546771E-02  0.1259629E+00
         11   -1    0    0    0    0  0.00000000000E+00  0.00000000000E+00  0.30000000000E+02  0.30000000000E+02  0.00000000000E+00 0.  1.
        -11   -1    0    0    0    0 -0.00000000000E+00 -0.00000000000E+00 -0.30000000000E+02  0.30000000000E+02  0.00000000000E+00 0. -1.
          5    1    1    2  501    0 -0.14540255771E+02 -0.21855168274E+02 -0.13742000649E+02  0.30000000000E+02  0.47000000000E+01 0. -1.
         -5    1    1    2    0  501  0.14540255771E+02  0.21855168274E+02  0.13742000649E+02  0.30000000000E+02  0.47000000000E+01 0.  1.
</event>
<event>
 4    1  0.7580225E-002  0.6000000E+02  0.7546771E-02  0.1259629E+00
         11   -1    0    0    0    0  0.00000000000E+00  0.00000000000E+00  0.30000000000E+02  0.30000000000E+02  0.00000000000E+00 0.  1.
        -11   -1    0    0    0    0 -0.00000000000E+00 -0.00000000000E+00 -0.30000000000E+02  0.30000000000E+02  0.00000000000E+00 0. -1.
          5    1    1    2  501    0  0.12506236367E+01  0.12277715113E+00 -0.29602886114E+02  0.30000000000E+02  0.47000000000E+01 0. -1.
         -5    1    1    2    0  501 -0.12506236367E+01 -0.12277715113E+00  0.29602886114E+02  0.30000000000E+02  0.47000000000E+01 0.  1.
</event>
<event>
 4    1  0.7580225E-002  0.6000000E+02  0.7546771E-02  0.1259629E+00
         11   -1    0    0    0    0  0.00000000000E+00  0.00000000000E+00  0.30000000000E+02  0.30000000000E+02  0.00000000000E+00 0.  1.
        -11   -1    0    0    0    0 -0.00000000000E+00 -0.00000000000E+00 -0.30000000000E+02  0.30000000000E+02  0.00000000000E+00 0. -1.
          5    1    1    2  501    0  0.38891410691E+01 -0.20165039782E+02 -0.21357803078E+02  0.30000000000E+02  0.47000000000E+01 0. -1.
         -5    1    1    2    0  501 -0.38891410691E+01  0.20165039782E+02  0.21357803078E+02  0.30000000000E+02  0.47000000000E+01 0.  1.
</event>
<event>
 4    1  0.7580225E-002  0.6000000E+02  0.7546771E-02  0.1259629E+00
         11   -1    0    0    0    0  0.00000000000E+00  0.00000000000E+00  0.30000000000E+02  0.30000000000E+02  0.00000000000E+00 0.  1.
        -11   -1    0    0    0    0 -0.00000000000E+00 -0.00000000000E+00 -0.30000000000E+02  0.30000000000E+02  0.00000000000E+00 0. -1.
          5    1    1    2  501    0  0.10404411966E+02  0.27553679411E+02 -0.32331041673E+01  0.30000000000E+02  0.47000000000E+01 0. -1.
         -5    1    1    2    0  501 -0.10404411966E+02 -0.27553679411E+02  0.32331041673E+01  0.30000000000E+02  0.47000000000E+01 0.  1.
</event>
<event>
 4    1  0.7580225E-002  0.6000000E+02  0.7546771E-02  0.1259629E+00
         11   -1    0    0    0    0  0.00000000000E+00  0.00000000000E+00  0.30000000000E+02  0.30000000000E+02  0.00000000000E+00 0.  1.
        -11   -1    0    0    0    0 -0.00000000000E+00 -0.00000000000E+00 -0.30000000000E+02  0.30000000000E+02  0.00000000000E+00 0. -1.
          5    1    1    2  501    0 -0.64542105545E+01  0.90176081694E+01 -0.27476097049E+02  0.30000000000E+02  0.47000000000E+01 0. -1.
         -5    1    1    2    0  501  0.64542105545E+01 -0.90176081694E+01  0.27476097049E+02  0.30000000000E+02  0.47000000000E+01 0.  1.
</event>
<event>
 4    1  0.7580225E-002  0.6000000E+02  0.7546771E-02  0.1259629E+00
         11   -1    0    0    0    0  0.00000000000E+00  0.00000000000E+00  0.30000000000E+02  0.30000000000E+02  0.00000000000E+00 0. -1.
        -11   -1    0    0    0    0 -0.00000000000E+00 -0.00000000000E+00 -0.30000000000E+02  0.30000000000E+02  0.00000000000E+00 0.  1.
          5    1    1    2  501    0  0.11241468774E+02  0.26187074623E+02 -0.81102714206E+01  0.30000000000E+02  0.47000000000E+01 0.  1.
         -5    1    1    2    0  501 -0.11241468774E+02 -0.26187074623E+02  0.81102714206E+01  0.30000000000E+02  0.47000000000E+01 0. -1.
</event>
<event>
 4    1  0.7580225E-002  0.6000000E+02  0.7546771E-02  0.1259629E+00
         11   -1    0    0    0    0  0.00000000000E+00  0.00000000000E+00  0.30000000000E+02  0.30000000000E+02  0.00000000000E+00 0. -1.
        -11   -1    0    0    0    0 -0.00000000000E+00 -0.00000000000E+00 -0.30000000000E+02  0.30000000000E+02  0.00000000000E+00 0.  1.
          5    1    1    2  501    0  0.19611568993E+02  0.53655182206E+01 -0.21552437817E+02  0.30000000000E+02  0.47000000000E+01 0.  1.
         -5    1    1    2    0  501 -0.19611568993E+02 -0.53655182206E+01  0.21552437817E+02  0.30000000000E+02  0.47000000000E+01 0. -1.
</event>
<event>
 4    1  0.7580225E-002  0.6000000E+02  0.7546771E-02  0.1259629E+00
         11   -1    0    0    0    0  0.00000000000E+00  0.00000000000E+00  0.30000000000E+02  0.30000000000E+02  0.00000000000E+00 0.  1.
        -11   -1    0    0    0    0 -0.00000000000E+00 -0.00000000000E+00 -0.30000000000E+02  0.30000000000E+02  0.00000000000E+00 0. -1.
          5    1    1    2  501    0 -0.12976727275E+02 -0.11749125152E+02 -0.23905493247E+02  0.30000000000E+02  0.47000000000E+01 0. -1.
         -5    1    1    2    0  501  0.12976727275E+02  0.11749125152E+02  0.23905493247E+02  0.30000000000E+02  0.47000000000E+01 0.  1.
</event>
<event>
 4    1  0.7580225E-002  0.6000000E+02  0.7546771E-02  0.1259629E+00
         11   -1    0    0    0    0  0.00000000000E+00  0.00000000000E+00  0.30000000000E+02  0.30000000000E+02  0.00000000000E+00 0.  1.
        -11   -1    0    0    0    0 -0.00000000000E+00 -0.00000000000E+00 -0.30000000000E+02  0.30000000000E+02  0.00000000000E+00 0. -1.
          5    1    1    2  501    0  0.29107431098E+02  0.36902310727E+01 -0.41291221211E+01  0.30000000000E+02  0.47000000000E+01 0. -1.
         -5    1    1    2    0  501 -0.29107431098E+02 -0.36902310727E+01  0.41291221211E+01  0.30000000000E+02  0.47000000000E+01 0.  1.
</event>
<event>
 4    1  0.7580225E-002  0.6000000E+02  0.7546771E-02  0.1259629E+00
         11   -1    0    0    0    0  0.00000000000E+00  0.00000000000E+00  0.30000000000E+02  0.30000000000E+02  0.00000000000E+00 0. -1.
        -11   -1    0    0    0    0 -0.00000000000E+00 -0.00000000000E+00 -0.30000000000E+02  0.30000000000E+02  0.00000000000E+00 0.  1.
          5    1    1    2  501    0 -0.28784261433E+02  0.25488158957E+00 -0.70222025832E+01  0.30000000000E+02  0.47000000000E+01 0.  1.
         -5    1    1    2    0  501  0.28784261433E+02 -0.25488158957E+00  0.70222025832E+01  0.30000000000E+02  0.47000000000E+01 0. -1.
</event>
<event>
 4    1  0.7580225E-002  0.6000000E+02  0.7546771E-02  0.1259629E+00
         11   -1    0    0    0    0  0.00000000000E+00  0.00000000000E+00  0.30000000000E+02  0.30000000000E+02  0.00000000000E+00 0.  1.
        -11   -1    0    0    0    0 -0.00000000000E+00 -0.00000000000E+00 -0.30000000000E+02  0.30000000000E+02  0.00000000000E+00 0. -1.
          5    1    1    2  501    0 -0.23873200225E+02  0.17334142455E+02  0.27400394805E+01  0.30000000000E+02  0.47000000000E+01 0. -1.
         -5    1    1    2    0  501  0.23873200225E+02 -0.17334142455E+02 -0.27400394805E+01  0.30000000000E+02  0.47000000000E+01 0.  1.
</event>
<event>
 4    1  0.7580225E-002  0.6000000E+02  0.7546771E-02  0.1259629E+00
         11   -1    0    0    0    0  0.00000000000E+00  0.00000000000E+00  0.30000000000E+02  0.30000000000E+02  0.00000000000E+00 0. -1.
        -11   -1    0    0    0    0 -0.00000000000E+00 -0.00000000000E+00 -0.30000000000E+02  0.30000000000E+02  0.00000000000E+00 0.  1.
          5    1    1    2  501    0 -0.14700414229E+02 -0.17056144247E+01 -0.25669022204E+02  0.30000000000E+02  0.47000000000E+01 0.  1.
         -5    1    1    2    0  501  0.14700414229E+02  0.17056144247E+01  0.25669022204E+02  0.30000000000E+02  0.47000000000E+01 0. -1.
</event>
<event>
 4    1  0.7580225E-002  0.6000000E+02  0.7546771E-02  0.1259629E+00
         11   -1    0    0    0    0  0.00000000000E+00  0.00000000000E+00  0.30000000000E+02  0.30000000000E+02  0.00000000000E+00 0.  1.
        -11   -1    0    0    0    0 -0.00000000000E+00 -0.00000000000E+00 -0.30000000000E+02  0.30000000000E+02  0.00000000000E+00 0. -1.
          5    1    1    2  501    0  0.50766767869E+01 -0.34392950810E+01 -0.28988076896E+02  0.30000000000E+02  0.47000000000E+01 0. -1.
         -5    1    1    2    0  501 -0.50766767869E+01  0.34392950810E+01  0.28988076896E+02  0.30000000000E+02  0.47000000000E+01 0.  1.
</event>
<event>
 4    1  0.7580225E-002  0.6000000E+02  0.7546771E-02  0.1259629E+00
         11   -1    0    0    0    0  0.00000000000E+00  0.00000000000E+00  0.30000000000E+02  0.30000000000E+02  0.00000000000E+00 0.  1.
        -11   -1    0    0    0    0 -0.00000000000E+00 -0.00000000000E+00 -0.30000000000E+02  0.30000000000E+02  0.00000000000E+00 0. -1.
          5    1    1    2  501    0 -0.12537844728E+02  0.22853154113E+02  0.14087079068E+02  0.30000000000E+02  0.47000000000E+01 0.  1.
         -5    1    1    2    0  501  0.12537844728E+02 -0.22853154113E+02 -0.14087079068E+02  0.30000000000E+02  0.47000000000E+01 0. -1.
</event>
<event>
 4    1  0.7580225E-002  0.6000000E+02  0.7546771E-02  0.1259629E+00
         11   -1    0    0    0    0  0.00000000000E+00  0.00000000000E+00  0.30000000000E+02  0.30000000000E+02  0.00000000000E+00 0.  1.
        -11   -1    0    0    0    0 -0.00000000000E+00 -0.00000000000E+00 -0.30000000000E+02  0.30000000000E+02  0.00000000000E+00 0. -1.
          5    1    1    2  501    0  0.18324183199E+02 -0.83446476533E+01 -0.21737091931E+02  0.30000000000E+02  0.47000000000E+01 0. -1.
         -5    1    1    2    0  501 -0.18324183199E+02  0.83446476533E+01  0.21737091931E+02  0.30000000000E+02  0.47000000000E+01 0.  1.
</event>
<event>
 4    1  0.7580225E-002  0.6000000E+02  0.7546771E-02  0.1259629E+00
         11   -1    0    0    0    0  0.00000000000E+00  0.00000000000E+00  0.30000000000E+02  0.30000000000E+02  0.00000000000E+00 0.  1.
        -11   -1    0    0    0    0 -0.00000000000E+00 -0.00000000000E+00 -0.30000000000E+02  0.30000000000E+02  0.00000000000E+00 0. -1.
          5    1    1    2  501    0  0.12483795811E+02  0.86542743633E+01 -0.25439504268E+02  0.30000000000E+02  0.47000000000E+01 0. -1.
         -5    1    1    2    0  501 -0.12483795811E+02 -0.86542743633E+01  0.25439504268E+02  0.30000000000E+02  0.47000000000E+01 0.  1.
</event>
<event>
 4    1  0.7580225E-002  0.6000000E+02  0.7546771E-02  0.1259629E+00
         11   -1    0    0    0    0  0.00000000000E+00  0.00000000000E+00  0.30000000000E+02  0.30000000000E+02  0.00000000000E+00 0.  1.
        -11   -1    0    0    0    0 -0.00000000000E+00 -0.00000000000E+00 -0.30000000000E+02  0.30000000000E+02  0.00000000000E+00 0. -1.
          5    1    1    2  501    0 -0.83471516620E+01  0.54402223567E+01 -0.27904104355E+02  0.30000000000E+02  0.47000000000E+01 0. -1.
         -5    1    1    2    0  501  0.83471516620E+01 -0.54402223567E+01  0.27904104355E+02  0.30000000000E+02  0.47000000000E+01 0.  1.
</event>
<event>
 4    1  0.7580225E-002  0.6000000E+02  0.7546771E-02  0.1259629E+00
         11   -1    0    0    0    0  0.00000000000E+00  0.00000000000E+00  0.30000000000E+02  0.30000000000E+02  0.00000000000E+00 0.  1.
        -11   -1    0    0    0    0 -0.00000000000E+00 -0.00000000000E+00 -0.30000000000E+02  0.30000000000E+02  0.00000000000E+00 0. -1.
          5    1    1    2  501    0  0.19166880204E+02 -0.21813946780E+02 -0.58900279396E+01  0.30000000000E+02  0.47000000000E+01 0. -1.
         -5    1    1    2    0  501 -0.19166880204E+02  0.21813946780E+02  0.58900279396E+01  0.30000000000E+02  0.47000000000E+01 0.  1.
</event>
<event>
 4    1  0.7580225E-002  0.6000000E+02  0.7546771E-02  0.1259629E+00
         11   -1    0    0    0    0  0.00000000000E+00  0.00000000000E+00  0.30000000000E+02  0.30000000000E+02  0.00000000000E+00 0.  1.
        -11   -1    0    0    0    0 -0.00000000000E+00 -0.00000000000E+00 -0.30000000000E+02  0.30000000000E+02  0.00000000000E+00 0. -1.
          5    1    1    2  501    0 -0.15598525768E+01  0.30098398071E+01 -0.29434974508E+02  0.30000000000E+02  0.47000000000E+01 0. -1.
         -5    1    1    2    0  501  0.15598525768E+01 -0.30098398071E+01  0.29434974508E+02  0.30000000000E+02  0.47000000000E+01 0.  1.
</event>
<event>
 4    1  0.7580225E-002  0.6000000E+02  0.7546771E-02  0.1259629E+00
         11   -1    0    0    0    0  0.00000000000E+00  0.00000000000E+00  0.30000000000E+02  0.30000000000E+02  0.00000000000E+00 0.  1.
        -11   -1    0    0    0    0 -0.00000000000E+00 -0.00000000000E+00 -0.30000000000E+02  0.30000000000E+02  0.00000000000E+00 0. -1.
          5    1    1    2  501    0  0.61235312219E+01 -0.21767108789E+02 -0.19146940757E+02  0.30000000000E+02  0.47000000000E+01 0. -1.
         -5    1    1    2    0  501 -0.61235312219E+01  0.21767108789E+02  0.19146940757E+02  0.30000000000E+02  0.47000000000E+01 0.  1.
</event>
<event>
 4    1  0.7580225E-002  0.6000000E+02  0.7546771E-02  0.1259629E+00
         11   -1    0    0    0    0  0.00000000000E+00  0.00000000000E+00  0.30000000000E+02  0.30000000000E+02  0.00000000000E+00 0. -1.
        -11   -1    0    0    0    0 -0.00000000000E+00 -0.00000000000E+00 -0.30000000000E+02  0.30000000000E+02  0.00000000000E+00 0.  1.
          5    1    1    2  501    0 -0.24169529081E+02 -0.16033850035E+02 -0.60547103200E+01  0.30000000000E+02  0.47000000000E+01 0.  1.
         -5    1    1    2    0  501  0.24169529081E+02  0.16033850035E+02  0.60547103200E+01  0.30000000000E+02  0.47000000000E+01 0. -1.
</event>
<event>
 4    1  0.7580225E-002  0.6000000E+02  0.7546771E-02  0.1259629E+00
         11   -1    0    0    0    0  0.00000000000E+00  0.00000000000E+00  0.30000000000E+02  0.30000000000E+02  0.00000000000E+00 0. -1.
        -11   -1    0    0    0    0 -0.00000000000E+00 -0.00000000000E+00 -0.30000000000E+02  0.30000000000E+02  0.00000000000E+00 0.  1.
          5    1    1    2  501    0  0.20092749599E+02 -0.98442415347E+01 -0.19423756644E+02  0.30000000000E+02  0.47000000000E+01 0.  1.
         -5    1    1    2    0  501 -0.20092749599E+02  0.98442415347E+01  0.19423756644E+02  0.30000000000E+02  0.47000000000E+01 0. -1.
</event>
<event>
 4    1  0.7580225E-002  0.6000000E+02  0.7546771E-02  0.1259629E+00
         11   -1    0    0    0    0  0.00000000000E+00  0.00000000000E+00  0.30000000000E+02  0.30000000000E+02  0.00000000000E+00 0.  1.
        -11   -1    0    0    0    0 -0.00000000000E+00 -0.00000000000E+00 -0.30000000000E+02  0.30000000000E+02  0.00000000000E+00 0. -1.
          5    1    1    2  501    0  0.11362086924E+02 -0.19094214562E+01 -0.27297748816E+02  0.30000000000E+02  0.47000000000E+01 0. -1.
         -5    1    1    2    0  501 -0.11362086924E+02  0.19094214562E+01  0.27297748816E+02  0.30000000000E+02  0.47000000000E+01 0.  1.
</event>
<event>
 4    1  0.7580225E-002  0.6000000E+02  0.7546771E-02  0.1259629E+00
         11   -1    0    0    0    0  0.00000000000E+00  0.00000000000E+00  0.30000000000E+02  0.30000000000E+02  0.00000000000E+00 0.  1.
        -11   -1    0    0    0    0 -0.00000000000E+00 -0.00000000000E+00 -0.30000000000E+02  0.30000000000E+02  0.00000000000E+00 0. -1.
          5    1    1    2  501    0 -0.73867798550E-02  0.29475943956E+02 -0.30130836955E+01  0.30000000000E+02  0.47000000000E+01 0.  1.
         -5    1    1    2    0  501  0.73867798550E-02 -0.29475943956E+02  0.30130836955E+01  0.30000000000E+02  0.47000000000E+01 0. -1.
</event>
<event>
 4    1  0.7580225E-002  0.6000000E+02  0.7546771E-02  0.1259629E+00
         11   -1    0    0    0    0  0.00000000000E+00  0.00000000000E+00  0.30000000000E+02  0.30000000000E+02  0.00000000000E+00 0.  1.
        -11   -1    0    0    0    0 -0.00000000000E+00 -0.00000000000E+00 -0.30000000000E+02  0.30000000000E+02  0.00000000000E+00 0. -1.
          5    1    1    2  501    0  0.29569249356E+02  0.11722791964E+01 -0.14816389663E+01  0.30000000000E+02  0.47000000000E+01 0. -1.
         -5    1    1    2    0  501 -0.29569249356E+02 -0.11722791964E+01  0.14816389663E+01  0.30000000000E+02  0.47000000000E+01 0.  1.
</event>
<event>
 4    1  0.7580225E-002  0.6000000E+02  0.7546771E-02  0.1259629E+00
         11   -1    0    0    0    0  0.00000000000E+00  0.00000000000E+00  0.30000000000E+02  0.30000000000E+02  0.00000000000E+00 0.  1.
        -11   -1    0    0    0    0 -0.00000000000E+00 -0.00000000000E+00 -0.30000000000E+02  0.30000000000E+02  0.00000000000E+00 0. -1.
          5    1    1    2  501    0 -0.17271626820E+02 -0.23280789225E+02 -0.61323535490E+01  0.30000000000E+02  0.47000000000E+01 0. -1.
         -5    1    1    2    0  501  0.17271626820E+02  0.23280789225E+02  0.61323535490E+01  0.30000000000E+02  0.47000000000E+01 0.  1.
</event>
<event>
 4    1  0.7580225E-002  0.6000000E+02  0.7546771E-02  0.1259629E+00
         11   -1    0    0    0    0  0.00000000000E+00  0.00000000000E+00  0.30000000000E+02  0.30000000000E+02  0.00000000000E+00 0. -1.
        -11   -1    0    0    0    0 -0.00000000000E+00 -0.00000000000E+00 -0.30000000000E+02  0.30000000000E+02  0.00000000000E+00 0.  1.
          5    1    1    2  501    0 -0.28761148365E+02  0.48270429405E+01 -0.52350741349E+01  0.30000000000E+02  0.47000000000E+01 0.  1.
         -5    1    1    2    0  501  0.28761148365E+02 -0.48270429405E+01  0.52350741349E+01  0.30000000000E+02  0.47000000000E+01 0. -1.
</event>
<event>
 4    1  0.7580225E-002  0.6000000E+02  0.7546771E-02  0.1259629E+00
         11   -1    0    0    0    0  0.00000000000E+00  0.00000000000E+00  0.30000000000E+02  0.30000000000E+02  0.00000000000E+00 0.  1.
        -11   -1    0    0    0    0 -0.00000000000E+00 -0.00000000000E+00 -0.30000000000E+02  0.30000000000E+02  0.00000000000E+00 0. -1.
          5    1    1    2  501    0  0.16883359935E+02  0.93623028675E-01 -0.24348580904E+02  0.30000000000E+02  0.47000000000E+01 0. -1.
         -5    1    1    2    0  501 -0.16883359935E+02 -0.93623028675E-01  0.24348580904E+02  0.30000000000E+02  0.47000000000E+01 0.  1.
</event>
<event>
 4    1  0.7580225E-002  0.6000000E+02  0.7546771E-02  0.1259629E+00
         11   -1    0    0    0    0  0.00000000000E+00  0.00000000000E+00  0.30000000000E+02  0.30000000000E+02  0.00000000000E+00 0.  1.
        -11   -1    0    0    0    0 -0.00000000000E+00 -0.00000000000E+00 -0.30000000000E+02  0.30000000000E+02  0.00000000000E+00 0. -1.
          5    1    1    2  501    0 -0.23392635684E+02 -0.13816319175E+02 -0.11823870779E+02  0.30000000000E+02  0.47000000000E+01 0. -1.
         -5    1    1    2    0  501  0.23392635684E+02  0.13816319175E+02  0.11823870779E+02  0.30000000000E+02  0.47000000000E+01 0.  1.
</event>
<event>
 4    1  0.7580225E-002  0.6000000E+02  0.7546771E-02  0.1259629E+00
         11   -1    0    0    0    0  0.00000000000E+00  0.00000000000E+00  0.30000000000E+02  0.30000000000E+02  0.00000000000E+00 0.  1.
        -11   -1    0    0    0    0 -0.00000000000E+00 -0.00000000000E+00 -0.30000000000E+02  0.30000000000E+02  0.00000000000E+00 0. -1.
          5    1    1    2  501    0 -0.26360614370E+02 -0.13014885703E+02  0.36933399792E+01  0.30000000000E+02  0.47000000000E+01 0.  1.
         -5    1    1    2    0  501  0.26360614370E+02  0.13014885703E+02 -0.36933399792E+01  0.30000000000E+02  0.47000000000E+01 0. -1.
</event>
<event>
 4    1  0.7580225E-002  0.6000000E+02  0.7546771E-02  0.1259629E+00
         11   -1    0    0    0    0  0.00000000000E+00  0.00000000000E+00  0.30000000000E+02  0.30000000000E+02  0.00000000000E+00 0.  1.
        -11   -1    0    0    0    0 -0.00000000000E+00 -0.00000000000E+00 -0.30000000000E+02  0.30000000000E+02  0.00000000000E+00 0. -1.
          5    1    1    2  501    0  0.75247049931E+01 -0.12928350951E+02 -0.25576288950E+02  0.30000000000E+02  0.47000000000E+01 0. -1.
         -5    1    1    2    0  501 -0.75247049931E+01  0.12928350951E+02  0.25576288950E+02  0.30000000000E+02  0.47000000000E+01 0.  1.
</event>
<event>
 4    1  0.7580225E-002  0.6000000E+02  0.7546771E-02  0.1259629E+00
         11   -1    0    0    0    0  0.00000000000E+00  0.00000000000E+00  0.30000000000E+02  0.30000000000E+02  0.00000000000E+00 0.  1.
        -11   -1    0    0    0    0 -0.00000000000E+00 -0.00000000000E+00 -0.30000000000E+02  0.30000000000E+02  0.00000000000E+00 0. -1.
          5    1    1    2  501    0 -0.26104630663E+02 -0.97887717450E+01  0.10031859531E+02  0.30000000000E+02  0.47000000000E+01 0. -1.
         -5    1    1    2    0  501  0.26104630663E+02  0.97887717450E+01 -0.10031859531E+02  0.30000000000E+02  0.47000000000E+01 0.  1.
</event>
<event>
 4    1  0.7580225E-002  0.6000000E+02  0.7546771E-02  0.1259629E+00
         11   -1    0    0    0    0  0.00000000000E+00  0.00000000000E+00  0.30000000000E+02  0.30000000000E+02  0.00000000000E+00 0.  1.
        -11   -1    0    0    0    0 -0.00000000000E+00 -0.00000000000E+00 -0.30000000000E+02  0.30000000000E+02  0.00000000000E+00 0. -1.
          5    1    1    2  501    0  0.20664146456E+02 -0.17771544350E+02 -0.11622188376E+02  0.30000000000E+02  0.47000000000E+01 0. -1.
         -5    1    1    2    0  501 -0.20664146456E+02  0.17771544350E+02  0.11622188376E+02  0.30000000000E+02  0.47000000000E+01 0.  1.
</event>
<event>
 4    1  0.7580225E-002  0.6000000E+02  0.7546771E-02  0.1259629E+00
         11   -1    0    0    0    0  0.00000000000E+00  0.00000000000E+00  0.30000000000E+02  0.30000000000E+02  0.00000000000E+00 0.  1.
        -11   -1    0    0    0    0 -0.00000000000E+00 -0.00000000000E+00 -0.30000000000E+02  0.30000000000E+02  0.00000000000E+00 0. -1.
          5    1    1    2  501    0  0.34944320271E+01  0.12076049680E+02 -0.26830355363E+02  0.30000000000E+02  0.47000000000E+01 0. -1.
         -5    1    1    2    0  501 -0.34944320271E+01 -0.12076049680E+02  0.26830355363E+02  0.30000000000E+02  0.47000000000E+01 0.  1.
</event>
<event>
 4    1  0.7580225E-002  0.6000000E+02  0.7546771E-02  0.1259629E+00
         11   -1    0    0    0    0  0.00000000000E+00  0.00000000000E+00  0.30000000000E+02  0.30000000000E+02  0.00000000000E+00 0.  1.
        -11   -1    0    0    0    0 -0.00000000000E+00 -0.00000000000E+00 -0.30000000000E+02  0.30000000000E+02  0.00000000000E+00 0. -1.
          5    1    1    2  501    0  0.20578985672E+01 -0.15344507117E+02 -0.25263039303E+02  0.30000000000E+02  0.47000000000E+01 0. -1.
         -5    1    1    2    0  501 -0.20578985672E+01  0.15344507117E+02  0.25263039303E+02  0.30000000000E+02  0.47000000000E+01 0.  1.
</event>
<event>
 4    1  0.7580225E-002  0.6000000E+02  0.7546771E-02  0.1259629E+00
         11   -1    0    0    0    0  0.00000000000E+00  0.00000000000E+00  0.30000000000E+02  0.30000000000E+02  0.00000000000E+00 0. -1.
        -11   -1    0    0    0    0 -0.00000000000E+00 -0.00000000000E+00 -0.30000000000E+02  0.30000000000E+02  0.00000000000E+00 0.  1.
          5    1    1    2  501    0  0.10914212297E+02  0.21156310716E+02 -0.17640875456E+02  0.30000000000E+02  0.47000000000E+01 0.  1.
         -5    1    1    2    0  501 -0.10914212297E+02 -0.21156310716E+02  0.17640875456E+02  0.30000000000E+02  0.47000000000E+01 0. -1.
</event>
<event>
 4    1  0.7580225E-002  0.6000000E+02  0.7546771E-02  0.1259629E+00
         11   -1    0    0    0    0  0.00000000000E+00  0.00000000000E+00  0.30000000000E+02  0.30000000000E+02  0.00000000000E+00 0.  1.
        -11   -1    0    0    0    0 -0.00000000000E+00 -0.00000000000E+00 -0.30000000000E+02  0.30000000000E+02  0.00000000000E+00 0. -1.
          5    1    1    2  501    0 -0.18674114267E+02 -0.20067751369E+02 -0.11246013131E+02  0.30000000000E+02  0.47000000000E+01 0. -1.
         -5    1    1    2    0  501  0.18674114267E+02  0.20067751369E+02  0.11246013131E+02  0.30000000000E+02  0.47000000000E+01 0.  1.
</event>
<event>
 4    1  0.7580225E-002  0.6000000E+02  0.7546771E-02  0.1259629E+00
         11   -1    0    0    0    0  0.00000000000E+00  0.00000000000E+00  0.30000000000E+02  0.30000000000E+02  0.00000000000E+00 0.  1.
        -11   -1    0    0    0    0 -0.00000000000E+00 -0.00000000000E+00 -0.30000000000E+02  0.30000000000E+02  0.00000000000E+00 0. -1.
          5    1    1    2  501    0 -0.41581783697E+01  0.18821355319E+02 -0.22502802861E+02  0.30000000000E+02  0.47000000000E+01 0. -1.
         -5    1    1    2    0  501  0.41581783697E+01 -0.18821355319E+02  0.22502802861E+02  0.30000000000E+02  0.47000000000E+01 0.  1.
</event>
<event>
 4    1  0.7580225E-002  0.6000000E+02  0.7546771E-02  0.1259629E+00
         11   -1    0    0    0    0  0.00000000000E+00  0.00000000000E+00  0.30000000000E+02  0.30000000000E+02  0.00000000000E+00 0.  1.
        -11   -1    0    0    0    0 -0.00000000000E+00 -0.00000000000E+00 -0.30000000000E+02  0.30000000000E+02  0.00000000000E+00 0. -1.
          5    1    1    2  501    0 -0.71468125678E+01 -0.28741527676E+02  0.87043494200E+00  0.30000000000E+02  0.47000000000E+01 0. -1.
         -5    1    1    2    0  501  0.71468125678E+01  0.28741527676E+02 -0.87043494200E+00  0.30000000000E+02  0.47000000000E+01 0.  1.
</event>
<event>
 4    1  0.7580225E-002  0.6000000E+02  0.7546771E-02  0.1259629E+00
         11   -1    0    0    0    0  0.00000000000E+00  0.00000000000E+00  0.30000000000E+02  0.30000000000E+02  0.00000000000E+00 0.  1.
        -11   -1    0    0    0    0 -0.00000000000E+00 -0.00000000000E+00 -0.30000000000E+02  0.30000000000E+02  0.00000000000E+00 0. -1.
          5    1    1    2  501    0  0.16551853249E+01 -0.19561809009E+02 -0.22192475973E+02  0.30000000000E+02  0.47000000000E+01 0. -1.
         -5    1    1    2    0  501 -0.16551853249E+01  0.19561809009E+02  0.22192475973E+02  0.30000000000E+02  0.47000000000E+01 0.  1.
</event>
<event>
 4    1  0.7580225E-002  0.6000000E+02  0.7546771E-02  0.1259629E+00
         11   -1    0    0    0    0  0.00000000000E+00  0.00000000000E+00  0.30000000000E+02  0.30000000000E+02  0.00000000000E+00 0.  1.
        -11   -1    0    0    0    0 -0.00000000000E+00 -0.00000000000E+00 -0.30000000000E+02  0.30000000000E+02  0.00000000000E+00 0. -1.
          5    1    1    2  501    0  0.10681529879E+02  0.31493727192E+01 -0.27457173396E+02  0.30000000000E+02  0.47000000000E+01 0. -1.
         -5    1    1    2    0  501 -0.10681529879E+02 -0.31493727192E+01  0.27457173396E+02  0.30000000000E+02  0.47000000000E+01 0.  1.
</event>
<event>
 4    1  0.7580225E-002  0.6000000E+02  0.7546771E-02  0.1259629E+00
         11   -1    0    0    0    0  0.00000000000E+00  0.00000000000E+00  0.30000000000E+02  0.30000000000E+02  0.00000000000E+00 0.  1.
        -11   -1    0    0    0    0 -0.00000000000E+00 -0.00000000000E+00 -0.30000000000E+02  0.30000000000E+02  0.00000000000E+00 0. -1.
          5    1    1    2  501    0 -0.40495688671E+01  0.54625841702E+01 -0.28838709510E+02  0.30000000000E+02  0.47000000000E+01 0. -1.
         -5    1    1    2    0  501  0.40495688671E+01 -0.54625841702E+01  0.28838709510E+02  0.30000000000E+02  0.47000000000E+01 0.  1.
</event>
<event>
 4    1  0.7580225E-002  0.6000000E+02  0.7546771E-02  0.1259629E+00
         11   -1    0    0    0    0  0.00000000000E+00  0.00000000000E+00  0.30000000000E+02  0.30000000000E+02  0.00000000000E+00 0. -1.
        -11   -1    0    0    0    0 -0.00000000000E+00 -0.00000000000E+00 -0.30000000000E+02  0.30000000000E+02  0.00000000000E+00 0.  1.
          5    1    1    2  501    0  0.89216116061E+01 -0.42832792955E+01 -0.27927913721E+02  0.30000000000E+02  0.47000000000E+01 0.  1.
         -5    1    1    2    0  501 -0.89216116061E+01  0.42832792955E+01  0.27927913721E+02  0.30000000000E+02  0.47000000000E+01 0. -1.
</event>
<event>
 4    1  0.7580225E-002  0.6000000E+02  0.7546771E-02  0.1259629E+00
         11   -1    0    0    0    0  0.00000000000E+00  0.00000000000E+00  0.30000000000E+02  0.30000000000E+02  0.00000000000E+00 0.  1.
        -11   -1    0    0    0    0 -0.00000000000E+00 -0.00000000000E+00 -0.30000000000E+02  0.30000000000E+02  0.00000000000E+00 0. -1.
          5    1    1    2  501    0 -0.27829503490E+01 -0.10765216884E+02 -0.27464072764E+02  0.30000000000E+02  0.47000000000E+01 0. -1.
         -5    1    1    2    0  501  0.27829503490E+01  0.10765216884E+02  0.27464072764E+02  0.30000000000E+02  0.47000000000E+01 0.  1.
</event>
<event>
 4    1  0.7580225E-002  0.6000000E+02  0.7546771E-02  0.1259629E+00
         11   -1    0    0    0    0  0.00000000000E+00  0.00000000000E+00  0.30000000000E+02  0.30000000000E+02  0.00000000000E+00 0. -1.
        -11   -1    0    0    0    0 -0.00000000000E+00 -0.00000000000E+00 -0.30000000000E+02  0.30000000000E+02  0.00000000000E+00 0.  1.
          5    1    1    2  501    0  0.17870321034E+01  0.29503646405E+02 -0.20618838648E+01  0.30000000000E+02  0.47000000000E+01 0.  1.
         -5    1    1    2    0  501 -0.17870321034E+01 -0.29503646405E+02  0.20618838648E+01  0.30000000000E+02  0.47000000000E+01 0. -1.
</event>
<event>
 4    1  0.7580225E-002  0.6000000E+02  0.7546771E-02  0.1259629E+00
         11   -1    0    0    0    0  0.00000000000E+00  0.00000000000E+00  0.30000000000E+02  0.30000000000E+02  0.00000000000E+00 0.  1.
        -11   -1    0    0    0    0 -0.00000000000E+00 -0.00000000000E+00 -0.30000000000E+02  0.30000000000E+02  0.00000000000E+00 0. -1.
          5    1    1    2  501    0 -0.57140731938E+01  0.89111673260E+01 -0.27674003404E+02  0.30000000000E+02  0.47000000000E+01 0. -1.
         -5    1    1    2    0  501  0.57140731938E+01 -0.89111673260E+01  0.27674003404E+02  0.30000000000E+02  0.47000000000E+01 0.  1.
</event>
<event>
 4    1  0.7580225E-002  0.6000000E+02  0.7546771E-02  0.1259629E+00
         11   -1    0    0    0    0  0.00000000000E+00  0.00000000000E+00  0.30000000000E+02  0.30000000000E+02  0.00000000000E+00 0.  1.
        -11   -1    0    0    0    0 -0.00000000000E+00 -0.00000000000E+00 -0.30000000000E+02  0.30000000000E+02  0.00000000000E+00 0. -1.
          5    1    1    2  501    0  0.89303258603E-01 -0.18167868328E+02  0.23405781024E+02  0.30000000000E+02  0.47000000000E+01 0.  1.
         -5    1    1    2    0  501 -0.89303258603E-01  0.18167868328E+02 -0.23405781024E+02  0.30000000000E+02  0.47000000000E+01 0. -1.
</event>
<event>
 4    1  0.7580225E-002  0.6000000E+02  0.7546771E-02  0.1259629E+00
         11   -1    0    0    0    0  0.00000000000E+00  0.00000000000E+00  0.30000000000E+02  0.30000000000E+02  0.00000000000E+00 0. -1.
        -11   -1    0    0    0    0 -0.00000000000E+00 -0.00000000000E+00 -0.30000000000E+02  0.30000000000E+02  0.00000000000E+00 0.  1.
          5    1    1    2  501    0  0.16687717310E+02  0.24165036354E+02 -0.39346040454E+01  0.30000000000E+02  0.47000000000E+01 0.  1.
         -5    1    1    2    0  501 -0.16687717310E+02 -0.24165036354E+02  0.39346040454E+01  0.30000000000E+02  0.47000000000E+01 0. -1.
</event>
<event>
 4    1  0.7580225E-002  0.6000000E+02  0.7546771E-02  0.1259629E+00
         11   -1    0    0    0    0  0.00000000000E+00  0.00000000000E+00  0.30000000000E+02  0.30000000000E+02  0.00000000000E+00 0. -1.
        -11   -1    0    0    0    0 -0.00000000000E+00 -0.00000000000E+00 -0.30000000000E+02  0.30000000000E+02  0.00000000000E+00 0.  1.
          5    1    1    2  501    0 -0.12231957132E+00 -0.27709014713E+02 -0.10493118772E+02  0.30000000000E+02  0.47000000000E+01 0.  1.
         -5    1    1    2    0  501  0.12231957132E+00  0.27709014713E+02  0.10493118772E+02  0.30000000000E+02  0.47000000000E+01 0. -1.
</event>
<event>
 4    1  0.7580225E-002  0.6000000E+02  0.7546771E-02  0.1259629E+00
         11   -1    0    0    0    0  0.00000000000E+00  0.00000000000E+00  0.30000000000E+02  0.30000000000E+02  0.00000000000E+00 0.  1.
        -11   -1    0    0    0    0 -0.00000000000E+00 -0.00000000000E+00 -0.30000000000E+02  0.30000000000E+02  0.00000000000E+00 0. -1.
          5    1    1    2  501    0  0.90733787614E+01  0.28061491372E+02  0.28524550575E+01  0.30000000000E+02  0.47000000000E+01 0. -1.
         -5    1    1    2    0  501 -0.90733787614E+01 -0.28061491372E+02 -0.28524550575E+01  0.30000000000E+02  0.47000000000E+01 0.  1.
</event>
<event>
 4    1  0.7580225E-002  0.6000000E+02  0.7546771E-02  0.1259629E+00
         11   -1    0    0    0    0  0.00000000000E+00  0.00000000000E+00  0.30000000000E+02  0.30000000000E+02  0.00000000000E+00 0.  1.
        -11   -1    0    0    0    0 -0.00000000000E+00 -0.00000000000E+00 -0.30000000000E+02  0.30000000000E+02  0.00000000000E+00 0. -1.
          5    1    1    2  501    0  0.22491277933E+02 -0.16590537910E+02 -0.98390278382E+01  0.30000000000E+02  0.47000000000E+01 0. -1.
         -5    1    1    2    0  501 -0.22491277933E+02  0.16590537910E+02  0.98390278382E+01  0.30000000000E+02  0.47000000000E+01 0.  1.
</event>
<event>
 4    1  0.7580225E-002  0.6000000E+02  0.7546771E-02  0.1259629E+00
         11   -1    0    0    0    0  0.00000000000E+00  0.00000000000E+00  0.30000000000E+02  0.30000000000E+02  0.00000000000E+00 0.  1.
        -11   -1    0    0    0    0 -0.00000000000E+00 -0.00000000000E+00 -0.30000000000E+02  0.30000000000E+02  0.00000000000E+00 0. -1.
          5    1    1    2  501    0 -0.21074215237E+02 -0.20306589703E+02  0.46292404119E+01  0.30000000000E+02  0.47000000000E+01 0. -1.
         -5    1    1    2    0  501  0.21074215237E+02  0.20306589703E+02 -0.46292404119E+01  0.30000000000E+02  0.47000000000E+01 0.  1.
</event>
<event>
 4    1  0.7580225E-002  0.6000000E+02  0.7546771E-02  0.1259629E+00
         11   -1    0    0    0    0  0.00000000000E+00  0.00000000000E+00  0.30000000000E+02  0.30000000000E+02  0.00000000000E+00 0. -1.
        -11   -1    0    0    0    0 -0.00000000000E+00 -0.00000000000E+00 -0.30000000000E+02  0.30000000000E+02  0.00000000000E+00 0.  1.
          5    1    1    2  501    0  0.23211057128E+02 -0.17419015386E+02  0.59778532897E+01  0.30000000000E+02  0.47000000000E+01 0.  1.
         -5    1    1    2    0  501 -0.23211057128E+02  0.17419015386E+02 -0.59778532897E+01  0.30000000000E+02  0.47000000000E+01 0. -1.
</event>
<event>
 4    1  0.7580225E-002  0.6000000E+02  0.7546771E-02  0.1259629E+00
         11   -1    0    0    0    0  0.00000000000E+00  0.00000000000E+00  0.30000000000E+02  0.30000000000E+02  0.00000000000E+00 0. -1.
        -11   -1    0    0    0    0 -0.00000000000E+00 -0.00000000000E+00 -0.30000000000E+02  0.30000000000E+02  0.00000000000E+00 0.  1.
          5    1    1    2  501    0 -0.11501053693E+01  0.15696067919E+00 -0.29606800249E+02  0.30000000000E+02  0.47000000000E+01 0.  1.
         -5    1    1    2    0  501  0.11501053693E+01 -0.15696067919E+00  0.29606800249E+02  0.30000000000E+02  0.47000000000E+01 0. -1.
</event>
<event>
 4    1  0.7580225E-002  0.6000000E+02  0.7546771E-02  0.1259629E+00
         11   -1    0    0    0    0  0.00000000000E+00  0.00000000000E+00  0.30000000000E+02  0.30000000000E+02  0.00000000000E+00 0.  1.
        -11   -1    0    0    0    0 -0.00000000000E+00 -0.00000000000E+00 -0.30000000000E+02  0.30000000000E+02  0.00000000000E+00 0. -1.
          5    1    1    2  501    0  0.11925062945E+02 -0.16322368618E+02 -0.21662944317E+02  0.30000000000E+02  0.47000000000E+01 0. -1.
         -5    1    1    2    0  501 -0.11925062945E+02  0.16322368618E+02  0.21662944317E+02  0.30000000000E+02  0.47000000000E+01 0.  1.
</event>
<event>
 4    1  0.7580225E-002  0.6000000E+02  0.7546771E-02  0.1259629E+00
         11   -1    0    0    0    0  0.00000000000E+00  0.00000000000E+00  0.30000000000E+02  0.30000000000E+02  0.00000000000E+00 0.  1.
        -11   -1    0    0    0    0 -0.00000000000E+00 -0.00000000000E+00 -0.30000000000E+02  0.30000000000E+02  0.00000000000E+00 0. -1.
          5    1    1    2  501    0 -0.15322808542E+01  0.23126617541E+01 -0.29499384926E+02  0.30000000000E+02  0.47000000000E+01 0. -1.
         -5    1    1    2    0  501  0.15322808542E+01 -0.23126617541E+01  0.29499384926E+02  0.30000000000E+02  0.47000000000E+01 0.  1.
</event>
<event>
 4    1  0.7580225E-002  0.6000000E+02  0.7546771E-02  0.1259629E+00
         11   -1    0    0    0    0  0.00000000000E+00  0.00000000000E+00  0.30000000000E+02  0.30000000000E+02  0.00000000000E+00 0.  1.
        -11   -1    0    0    0    0 -0.00000000000E+00 -0.00000000000E+00 -0.30000000000E+02  0.30000000000E+02  0.00000000000E+00 0. -1.
          5    1    1    2  501    0  0.50730785652E+01 -0.10767462171E+02 -0.27133662345E+02  0.30000000000E+02  0.47000000000E+01 0. -1.
         -5    1    1    2    0  501 -0.50730785652E+01  0.10767462171E+02  0.27133662345E+02  0.30000000000E+02  0.47000000000E+01 0.  1.
</event>
<event>
 4    1  0.7580225E-002  0.6000000E+02  0.7546771E-02  0.1259629E+00
         11   -1    0    0    0    0  0.00000000000E+00  0.00000000000E+00  0.30000000000E+02  0.30000000000E+02  0.00000000000E+00 0.  1.
        -11   -1    0    0    0    0 -0.00000000000E+00 -0.00000000000E+00 -0.30000000000E+02  0.30000000000E+02  0.00000000000E+00 0. -1.
          5    1    1    2  501    0 -0.42482990527E+01 -0.27875965275E+02 -0.90990392423E+01  0.30000000000E+02  0.47000000000E+01 0.  1.
         -5    1    1    2    0  501  0.42482990527E+01  0.27875965275E+02  0.90990392423E+01  0.30000000000E+02  0.47000000000E+01 0.  1.
</event>
<event>
 4    1  0.7580225E-002  0.6000000E+02  0.7546771E-02  0.1259629E+00
         11   -1    0    0    0    0  0.00000000000E+00  0.00000000000E+00  0.30000000000E+02  0.30000000000E+02  0.00000000000E+00 0. -1.
        -11   -1    0    0    0    0 -0.00000000000E+00 -0.00000000000E+00 -0.30000000000E+02  0.30000000000E+02  0.00000000000E+00 0.  1.
          5    1    1    2  501    0  0.53928568159E+01 -0.87707064334E+01 -0.27783120847E+02  0.30000000000E+02  0.47000000000E+01 0.  1.
         -5    1    1    2    0  501 -0.53928568159E+01  0.87707064334E+01  0.27783120847E+02  0.30000000000E+02  0.47000000000E+01 0. -1.
</event>
<event>
 4    1  0.7580225E-002  0.6000000E+02  0.7546771E-02  0.1259629E+00
         11   -1    0    0    0    0  0.00000000000E+00  0.00000000000E+00  0.30000000000E+02  0.30000000000E+02  0.00000000000E+00 0.  1.
        -11   -1    0    0    0    0 -0.00000000000E+00 -0.00000000000E+00 -0.30000000000E+02  0.30000000000E+02  0.00000000000E+00 0. -1.
          5    1    1    2  501    0  0.27113398160E+02  0.84821950031E+01 -0.84158189232E+01  0.30000000000E+02  0.47000000000E+01 0. -1.
         -5    1    1    2    0  501 -0.27113398160E+02 -0.84821950031E+01  0.84158189232E+01  0.30000000000E+02  0.47000000000E+01 0.  1.
</event>
<event>
 4    1  0.7580225E-002  0.6000000E+02  0.7546771E-02  0.1259629E+00
         11   -1    0    0    0    0  0.00000000000E+00  0.00000000000E+00  0.30000000000E+02  0.30000000000E+02  0.00000000000E+00 0.  1.
        -11   -1    0    0    0    0 -0.00000000000E+00 -0.00000000000E+00 -0.30000000000E+02  0.30000000000E+02  0.00000000000E+00 0. -1.
          5    1    1    2  501    0 -0.27469824880E+02  0.66952358412E+01 -0.88596014629E+01  0.30000000000E+02  0.47000000000E+01 0. -1.
         -5    1    1    2    0  501  0.27469824880E+02 -0.66952358412E+01  0.88596014629E+01  0.30000000000E+02  0.47000000000E+01 0.  1.
</event>
<event>
 4    1  0.7580225E-002  0.6000000E+02  0.7546771E-02  0.1259629E+00
         11   -1    0    0    0    0  0.00000000000E+00  0.00000000000E+00  0.30000000000E+02  0.30000000000E+02  0.00000000000E+00 0. -1.
        -11   -1    0    0    0    0 -0.00000000000E+00 -0.00000000000E+00 -0.30000000000E+02  0.30000000000E+02  0.00000000000E+00 0.  1.
          5    1    1    2  501    0  0.53842442374E+01 -0.14828601818E+02 -0.25080519973E+02  0.30000000000E+02  0.47000000000E+01 0.  1.
         -5    1    1    2    0  501 -0.53842442374E+01  0.14828601818E+02  0.25080519973E+02  0.30000000000E+02  0.47000000000E+01 0. -1.
</event>
<event>
 4    1  0.7580225E-002  0.6000000E+02  0.7546771E-02  0.1259629E+00
         11   -1    0    0    0    0  0.00000000000E+00  0.00000000000E+00  0.30000000000E+02  0.30000000000E+02  0.00000000000E+00 0.  1.
        -11   -1    0    0    0    0 -0.00000000000E+00 -0.00000000000E+00 -0.30000000000E+02  0.30000000000E+02  0.00000000000E+00 0. -1.
          5    1    1    2  501    0 -0.23411633838E+02  0.13999652613E+02 -0.11567848881E+02  0.30000000000E+02  0.47000000000E+01 0.  1.
         -5    1    1    2    0  501  0.23411633838E+02 -0.13999652613E+02  0.11567848881E+02  0.30000000000E+02  0.47000000000E+01 0. -1.
</event>
<event>
 4    1  0.7580225E-002  0.6000000E+02  0.7546771E-02  0.1259629E+00
         11   -1    0    0    0    0  0.00000000000E+00  0.00000000000E+00  0.30000000000E+02  0.30000000000E+02  0.00000000000E+00 0.  1.
        -11   -1    0    0    0    0 -0.00000000000E+00 -0.00000000000E+00 -0.30000000000E+02  0.30000000000E+02  0.00000000000E+00 0. -1.
          5    1    1    2  501    0 -0.13746406183E+02 -0.32742688587E+01 -0.26042762536E+02  0.30000000000E+02  0.47000000000E+01 0. -1.
         -5    1    1    2    0  501  0.13746406183E+02  0.32742688587E+01  0.26042762536E+02  0.30000000000E+02  0.47000000000E+01 0.  1.
</event>
<event>
 4    1  0.7580225E-002  0.6000000E+02  0.7546771E-02  0.1259629E+00
         11   -1    0    0    0    0  0.00000000000E+00  0.00000000000E+00  0.30000000000E+02  0.30000000000E+02  0.00000000000E+00 0.  1.
        -11   -1    0    0    0    0 -0.00000000000E+00 -0.00000000000E+00 -0.30000000000E+02  0.30000000000E+02  0.00000000000E+00 0. -1.
          5    1    1    2  501    0 -0.79219992163E+01 -0.15905632956E+02  0.23709971925E+02  0.30000000000E+02  0.47000000000E+01 0. -1.
         -5    1    1    2    0  501  0.79219992163E+01  0.15905632956E+02 -0.23709971925E+02  0.30000000000E+02  0.47000000000E+01 0.  1.
</event>
<event>
 4    1  0.7580225E-002  0.6000000E+02  0.7546771E-02  0.1259629E+00
         11   -1    0    0    0    0  0.00000000000E+00  0.00000000000E+00  0.30000000000E+02  0.30000000000E+02  0.00000000000E+00 0.  1.
        -11   -1    0    0    0    0 -0.00000000000E+00 -0.00000000000E+00 -0.30000000000E+02  0.30000000000E+02  0.00000000000E+00 0. -1.
          5    1    1    2  501    0 -0.26325194099E+02 -0.12060426094E+02 -0.62801495254E+01  0.30000000000E+02  0.47000000000E+01 0. -1.
         -5    1    1    2    0  501  0.26325194099E+02  0.12060426094E+02  0.62801495254E+01  0.30000000000E+02  0.47000000000E+01 0.  1.
</event>
<event>
 4    1  0.7580225E-002  0.6000000E+02  0.7546771E-02  0.1259629E+00
         11   -1    0    0    0    0  0.00000000000E+00  0.00000000000E+00  0.30000000000E+02  0.30000000000E+02  0.00000000000E+00 0.  1.
        -11   -1    0    0    0    0 -0.00000000000E+00 -0.00000000000E+00 -0.30000000000E+02  0.30000000000E+02  0.00000000000E+00 0. -1.
          5    1    1    2  501    0 -0.25541058221E+02 -0.13584621778E+02 -0.64048728413E+01  0.30000000000E+02  0.47000000000E+01 0. -1.
         -5    1    1    2    0  501  0.25541058221E+02  0.13584621778E+02  0.64048728413E+01  0.30000000000E+02  0.47000000000E+01 0.  1.
</event>
<event>
 4    1  0.7580225E-002  0.6000000E+02  0.7546771E-02  0.1259629E+00
         11   -1    0    0    0    0  0.00000000000E+00  0.00000000000E+00  0.30000000000E+02  0.30000000000E+02  0.00000000000E+00 0.  1.
        -11   -1    0    0    0    0 -0.00000000000E+00 -0.00000000000E+00 -0.30000000000E+02  0.30000000000E+02  0.00000000000E+00 0. -1.
          5    1    1    2  501    0 -0.19474626729E+02 -0.13039488259E+02 -0.18127897278E+02  0.30000000000E+02  0.47000000000E+01 0. -1.
         -5    1    1    2    0  501  0.19474626729E+02  0.13039488259E+02  0.18127897278E+02  0.30000000000E+02  0.47000000000E+01 0.  1.
</event>
<event>
 4    1  0.7580225E-002  0.6000000E+02  0.7546771E-02  0.1259629E+00
         11   -1    0    0    0    0  0.00000000000E+00  0.00000000000E+00  0.30000000000E+02  0.30000000000E+02  0.00000000000E+00 0. -1.
        -11   -1    0    0    0    0 -0.00000000000E+00 -0.00000000000E+00 -0.30000000000E+02  0.30000000000E+02  0.00000000000E+00 0.  1.
          5    1    1    2  501    0 -0.68295064749E+01  0.96568664331E+01 -0.27166390485E+02  0.30000000000E+02  0.47000000000E+01 0.  1.
         -5    1    1    2    0  501  0.68295064749E+01 -0.96568664331E+01  0.27166390485E+02  0.30000000000E+02  0.47000000000E+01 0. -1.
</event>
<event>
 4    1  0.7580225E-002  0.6000000E+02  0.7546771E-02  0.1259629E+00
         11   -1    0    0    0    0  0.00000000000E+00  0.00000000000E+00  0.30000000000E+02  0.30000000000E+02  0.00000000000E+00 0.  1.
        -11   -1    0    0    0    0 -0.00000000000E+00 -0.00000000000E+00 -0.30000000000E+02  0.30000000000E+02  0.00000000000E+00 0. -1.
          5    1    1    2  501    0 -0.12908608056E+02  0.25468698942E+02 -0.79134829414E+01  0.30000000000E+02  0.47000000000E+01 0. -1.
         -5    1    1    2    0  501  0.12908608056E+02 -0.25468698942E+02  0.79134829414E+01  0.30000000000E+02  0.47000000000E+01 0.  1.
</event>
<event>
 4    1  0.7580225E-002  0.6000000E+02  0.7546771E-02  0.1259629E+00
         11   -1    0    0    0    0  0.00000000000E+00  0.00000000000E+00  0.30000000000E+02  0.30000000000E+02  0.00000000000E+00 0.  1.
        -11   -1    0    0    0    0 -0.00000000000E+00 -0.00000000000E+00 -0.30000000000E+02  0.30000000000E+02  0.00000000000E+00 0. -1.
          5    1    1    2  501    0 -0.84104389802E+01  0.32709882166E+00 -0.28408933850E+02  0.30000000000E+02  0.47000000000E+01 0. -1.
         -5    1    1    2    0  501  0.84104389802E+01 -0.32709882166E+00  0.28408933850E+02  0.30000000000E+02  0.47000000000E+01 0.  1.
</event>
<event>
 4    1  0.7580225E-002  0.6000000E+02  0.7546771E-02  0.1259629E+00
         11   -1    0    0    0    0  0.00000000000E+00  0.00000000000E+00  0.30000000000E+02  0.30000000000E+02  0.00000000000E+00 0.  1.
        -11   -1    0    0    0    0 -0.00000000000E+00 -0.00000000000E+00 -0.30000000000E+02  0.30000000000E+02  0.00000000000E+00 0. -1.
          5    1    1    2  501    0 -0.29561393741E+01  0.29152556492E+02  0.43931412421E+01  0.30000000000E+02  0.47000000000E+01 0. -1.
         -5    1    1    2    0  501  0.29561393741E+01 -0.29152556492E+02 -0.43931412421E+01  0.30000000000E+02  0.47000000000E+01 0.  1.
</event>
<event>
 4    1  0.7580225E-002  0.6000000E+02  0.7546771E-02  0.1259629E+00
         11   -1    0    0    0    0  0.00000000000E+00  0.00000000000E+00  0.30000000000E+02  0.30000000000E+02  0.00000000000E+00 0.  1.
        -11   -1    0    0    0    0 -0.00000000000E+00 -0.00000000000E+00 -0.30000000000E+02  0.30000000000E+02  0.00000000000E+00 0. -1.
          5    1    1    2  501    0  0.11623239194E+02  0.26789935718E+02 -0.50109534866E+01  0.30000000000E+02  0.47000000000E+01 0. -1.
         -5    1    1    2    0  501 -0.11623239194E+02 -0.26789935718E+02  0.50109534866E+01  0.30000000000E+02  0.47000000000E+01 0.  1.
</event>
<event>
 4    1  0.7580225E-002  0.6000000E+02  0.7546771E-02  0.1259629E+00
         11   -1    0    0    0    0  0.00000000000E+00  0.00000000000E+00  0.30000000000E+02  0.30000000000E+02  0.00000000000E+00 0. -1.
        -11   -1    0    0    0    0 -0.00000000000E+00 -0.00000000000E+00 -0.30000000000E+02  0.30000000000E+02  0.00000000000E+00 0.  1.
          5    1    1    2  501    0  0.12338776294E+02 -0.17728381210E+02  0.20282236051E+02  0.30000000000E+02  0.47000000000E+01 0. -1.
         -5    1    1    2    0  501 -0.12338776294E+02  0.17728381210E+02 -0.20282236051E+02  0.30000000000E+02  0.47000000000E+01 0.  1.
</event>
<event>
 4    1  0.7580225E-002  0.6000000E+02  0.7546771E-02  0.1259629E+00
         11   -1    0    0    0    0  0.00000000000E+00  0.00000000000E+00  0.30000000000E+02  0.30000000000E+02  0.00000000000E+00 0. -1.
        -11   -1    0    0    0    0 -0.00000000000E+00 -0.00000000000E+00 -0.30000000000E+02  0.30000000000E+02  0.00000000000E+00 0.  1.
          5    1    1    2  501    0 -0.19269593284E+02 -0.58875558788E+00  0.22499914256E+02  0.30000000000E+02  0.47000000000E+01 0. -1.
         -5    1    1    2    0  501  0.19269593284E+02  0.58875558788E+00 -0.22499914256E+02  0.30000000000E+02  0.47000000000E+01 0.  1.
</event>
<event>
 4    1  0.7580225E-002  0.6000000E+02  0.7546771E-02  0.1259629E+00
         11   -1    0    0    0    0  0.00000000000E+00  0.00000000000E+00  0.30000000000E+02  0.30000000000E+02  0.00000000000E+00 0.  1.
        -11   -1    0    0    0    0 -0.00000000000E+00 -0.00000000000E+00 -0.30000000000E+02  0.30000000000E+02  0.00000000000E+00 0. -1.
          5    1    1    2  501    0 -0.14041514777E+02 -0.43989061534E+01 -0.25717610453E+02  0.30000000000E+02  0.47000000000E+01 0. -1.
         -5    1    1    2    0  501  0.14041514777E+02  0.43989061534E+01  0.25717610453E+02  0.30000000000E+02  0.47000000000E+01 0.  1.
</event>
<event>
 4    1  0.7580225E-002  0.6000000E+02  0.7546771E-02  0.1259629E+00
         11   -1    0    0    0    0  0.00000000000E+00  0.00000000000E+00  0.30000000000E+02  0.30000000000E+02  0.00000000000E+00 0.  1.
        -11   -1    0    0    0    0 -0.00000000000E+00 -0.00000000000E+00 -0.30000000000E+02  0.30000000000E+02  0.00000000000E+00 0. -1.
          5    1    1    2  501    0  0.13796227907E+02  0.15059362774E+02 -0.21466012400E+02  0.30000000000E+02  0.47000000000E+01 0. -1.
         -5    1    1    2    0  501 -0.13796227907E+02 -0.15059362774E+02  0.21466012400E+02  0.30000000000E+02  0.47000000000E+01 0.  1.
</event>
<event>
 4    1  0.7580225E-002  0.6000000E+02  0.7546771E-02  0.1259629E+00
         11   -1    0    0    0    0  0.00000000000E+00  0.00000000000E+00  0.30000000000E+02  0.30000000000E+02  0.00000000000E+00 0. -1.
        -11   -1    0    0    0    0 -0.00000000000E+00 -0.00000000000E+00 -0.30000000000E+02  0.30000000000E+02  0.00000000000E+00 0.  1.
          5    1    1    2  501    0  0.12973197739E+02  0.11467864840E+01 -0.26613737452E+02  0.30000000000E+02  0.47000000000E+01 0.  1.
         -5    1    1    2    0  501 -0.12973197739E+02 -0.11467864840E+01  0.26613737452E+02  0.30000000000E+02  0.47000000000E+01 0. -1.
</event>
<event>
 4    1  0.7580225E-002  0.6000000E+02  0.7546771E-02  0.1259629E+00
         11   -1    0    0    0    0  0.00000000000E+00  0.00000000000E+00  0.30000000000E+02  0.30000000000E+02  0.00000000000E+00 0.  1.
        -11   -1    0    0    0    0 -0.00000000000E+00 -0.00000000000E+00 -0.30000000000E+02  0.30000000000E+02  0.00000000000E+00 0. -1.
          5    1    1    2  501    0 -0.11633527652E+02 -0.25328186631E+02 -0.10052561680E+02  0.30000000000E+02  0.47000000000E+01 0. -1.
         -5    1    1    2    0  501  0.11633527652E+02  0.25328186631E+02  0.10052561680E+02  0.30000000000E+02  0.47000000000E+01 0.  1.
</event>
<event>
 4    1  0.7580225E-002  0.6000000E+02  0.7546771E-02  0.1259629E+00
         11   -1    0    0    0    0  0.00000000000E+00  0.00000000000E+00  0.30000000000E+02  0.30000000000E+02  0.00000000000E+00 0.  1.
        -11   -1    0    0    0    0 -0.00000000000E+00 -0.00000000000E+00 -0.30000000000E+02  0.30000000000E+02  0.00000000000E+00 0. -1.
          5    1    1    2  501    0 -0.37762478712E+01  0.82064115167E+01  0.28218872444E+02  0.30000000000E+02  0.47000000000E+01 0.  1.
         -5    1    1    2    0  501  0.37762478712E+01 -0.82064115167E+01 -0.28218872444E+02  0.30000000000E+02  0.47000000000E+01 0. -1.
</event>
<event>
 4    1  0.7580225E-002  0.6000000E+02  0.7546771E-02  0.1259629E+00
         11   -1    0    0    0    0  0.00000000000E+00  0.00000000000E+00  0.30000000000E+02  0.30000000000E+02  0.00000000000E+00 0. -1.
        -11   -1    0    0    0    0 -0.00000000000E+00 -0.00000000000E+00 -0.30000000000E+02  0.30000000000E+02  0.00000000000E+00 0.  1.
          5    1    1    2  501    0  0.17520970199E+02 -0.84770258461E+00 -0.23879007593E+02  0.30000000000E+02  0.47000000000E+01 0.  1.
         -5    1    1    2    0  501 -0.17520970199E+02  0.84770258461E+00  0.23879007593E+02  0.30000000000E+02  0.47000000000E+01 0. -1.
</event>
<event>
 4    1  0.7580225E-002  0.6000000E+02  0.7546771E-02  0.1259629E+00
         11   -1    0    0    0    0  0.00000000000E+00  0.00000000000E+00  0.30000000000E+02  0.30000000000E+02  0.00000000000E+00 0. -1.
        -11   -1    0    0    0    0 -0.00000000000E+00 -0.00000000000E+00 -0.30000000000E+02  0.30000000000E+02  0.00000000000E+00 0.  1.
          5    1    1    2  501    0  0.41030399525E+00  0.72003145749E+01 -0.28738425856E+02  0.30000000000E+02  0.47000000000E+01 0.  1.
         -5    1    1    2    0  501 -0.41030399525E+00 -0.72003145749E+01  0.28738425856E+02  0.30000000000E+02  0.47000000000E+01 0. -1.
</event>
<event>
 4    1  0.7580225E-002  0.6000000E+02  0.7546771E-02  0.1259629E+00
         11   -1    0    0    0    0  0.00000000000E+00  0.00000000000E+00  0.30000000000E+02  0.30000000000E+02  0.00000000000E+00 0.  1.
        -11   -1    0    0    0    0 -0.00000000000E+00 -0.00000000000E+00 -0.30000000000E+02  0.30000000000E+02  0.00000000000E+00 0. -1.
          5    1    1    2  501    0 -0.59322687499E+01 -0.28932286898E+02 -0.23750710168E+01  0.30000000000E+02  0.47000000000E+01 0. -1.
         -5    1    1    2    0  501  0.59322687499E+01  0.28932286898E+02  0.23750710168E+01  0.30000000000E+02  0.47000000000E+01 0.  1.
</event>
<event>
 4    1  0.7580225E-002  0.6000000E+02  0.7546771E-02  0.1259629E+00
         11   -1    0    0    0    0  0.00000000000E+00  0.00000000000E+00  0.30000000000E+02  0.30000000000E+02  0.00000000000E+00 0.  1.
        -11   -1    0    0    0    0 -0.00000000000E+00 -0.00000000000E+00 -0.30000000000E+02  0.30000000000E+02  0.00000000000E+00 0. -1.
          5    1    1    2  501    0  0.21529687071E+02 -0.15038441280E+02 -0.13719615829E+02  0.30000000000E+02  0.47000000000E+01 0. -1.
         -5    1    1    2    0  501 -0.21529687071E+02  0.15038441280E+02  0.13719615829E+02  0.30000000000E+02  0.47000000000E+01 0.  1.
</event>
<event>
 4    1  0.7580225E-002  0.6000000E+02  0.7546771E-02  0.1259629E+00
         11   -1    0    0    0    0  0.00000000000E+00  0.00000000000E+00  0.30000000000E+02  0.30000000000E+02  0.00000000000E+00 0.  1.
        -11   -1    0    0    0    0 -0.00000000000E+00 -0.00000000000E+00 -0.30000000000E+02  0.30000000000E+02  0.00000000000E+00 0. -1.
          5    1    1    2  501    0 -0.22799391594E+02 -0.18150246961E+02 -0.53540898571E+01  0.30000000000E+02  0.47000000000E+01 0.  1.
         -5    1    1    2    0  501  0.22799391594E+02  0.18150246961E+02  0.53540898571E+01  0.30000000000E+02  0.47000000000E+01 0.  1.
</event>
<event>
 4    1  0.7580225E-002  0.6000000E+02  0.7546771E-02  0.1259629E+00
         11   -1    0    0    0    0  0.00000000000E+00  0.00000000000E+00  0.30000000000E+02  0.30000000000E+02  0.00000000000E+00 0.  1.
        -11   -1    0    0    0    0 -0.00000000000E+00 -0.00000000000E+00 -0.30000000000E+02  0.30000000000E+02  0.00000000000E+00 0. -1.
          5    1    1    2  501    0  0.12634102796E+01 -0.19944702615E+02 -0.21875160161E+02  0.30000000000E+02  0.47000000000E+01 0. -1.
         -5    1    1    2    0  501 -0.12634102796E+01  0.19944702615E+02  0.21875160161E+02  0.30000000000E+02  0.47000000000E+01 0.  1.
</event>
<event>
 4    1  0.7580225E-002  0.6000000E+02  0.7546771E-02  0.1259629E+00
         11   -1    0    0    0    0  0.00000000000E+00  0.00000000000E+00  0.30000000000E+02  0.30000000000E+02  0.00000000000E+00 0.  1.
        -11   -1    0    0    0    0 -0.00000000000E+00 -0.00000000000E+00 -0.30000000000E+02  0.30000000000E+02  0.00000000000E+00 0. -1.
          5    1    1    2  501    0 -0.84601179577E+01 -0.57895918634E+01 -0.27799586871E+02  0.30000000000E+02  0.47000000000E+01 0. -1.
         -5    1    1    2    0  501  0.84601179577E+01  0.57895918634E+01  0.27799586871E+02  0.30000000000E+02  0.47000000000E+01 0.  1.
</event>
<event>
 4    1  0.7580225E-002  0.6000000E+02  0.7546771E-02  0.1259629E+00
         11   -1    0    0    0    0  0.00000000000E+00  0.00000000000E+00  0.30000000000E+02  0.30000000000E+02  0.00000000000E+00 0. -1.
        -11   -1    0    0    0    0 -0.00000000000E+00 -0.00000000000E+00 -0.30000000000E+02  0.30000000000E+02  0.00000000000E+00 0.  1.
          5    1    1    2  501    0  0.75413790572E+01 -0.26435505081E+02  0.11054486556E+02  0.30000000000E+02  0.47000000000E+01 0.  1.
         -5    1    1    2    0  501 -0.75413790572E+01  0.26435505081E+02 -0.11054486556E+02  0.30000000000E+02  0.47000000000E+01 0. -1.
</event>
<event>
 4    1  0.7580225E-002  0.6000000E+02  0.7546771E-02  0.1259629E+00
         11   -1    0    0    0    0  0.00000000000E+00  0.00000000000E+00  0.30000000000E+02  0.30000000000E+02  0.00000000000E+00 0. -1.
        -11   -1    0    0    0    0 -0.00000000000E+00 -0.00000000000E+00 -0.30000000000E+02  0.30000000000E+02  0.00000000000E+00 0.  1.
          5    1    1    2  501    0 -0.14901985872E+02  0.73063437520E+01 -0.24545023081E+02  0.30000000000E+02  0.47000000000E+01 0.  1.
         -5    1    1    2    0  501  0.14901985872E+02 -0.73063437520E+01  0.24545023081E+02  0.30000000000E+02  0.47000000000E+01 0. -1.
</event>
<event>
 4    1  0.7580225E-002  0.6000000E+02  0.7546771E-02  0.1259629E+00
         11   -1    0    0    0    0  0.00000000000E+00  0.00000000000E+00  0.30000000000E+02  0.30000000000E+02  0.00000000000E+00 0.  1.
        -11   -1    0    0    0    0 -0.00000000000E+00 -0.00000000000E+00 -0.30000000000E+02  0.30000000000E+02  0.00000000000E+00 0. -1.
          5    1    1    2  501    0 -0.93453952961E+01  0.24658084013E+02 -0.13511198303E+02  0.30000000000E+02  0.47000000000E+01 0. -1.
         -5    1    1    2    0  501  0.93453952961E+01 -0.24658084013E+02  0.13511198303E+02  0.30000000000E+02  0.47000000000E+01 0.  1.
</event>
<event>
 4    1  0.7580225E-002  0.6000000E+02  0.7546771E-02  0.1259629E+00
         11   -1    0    0    0    0  0.00000000000E+00  0.00000000000E+00  0.30000000000E+02  0.30000000000E+02  0.00000000000E+00 0.  1.
        -11   -1    0    0    0    0 -0.00000000000E+00 -0.00000000000E+00 -0.30000000000E+02  0.30000000000E+02  0.00000000000E+00 0. -1.
          5    1    1    2  501    0  0.13594606699E+02  0.26288476772E+02 -0.14186816915E+01  0.30000000000E+02  0.47000000000E+01 0. -1.
         -5    1    1    2    0  501 -0.13594606699E+02 -0.26288476772E+02  0.14186816915E+01  0.30000000000E+02  0.47000000000E+01 0.  1.
</event>
<event>
 4    1  0.7580225E-002  0.6000000E+02  0.7546771E-02  0.1259629E+00
         11   -1    0    0    0    0  0.00000000000E+00  0.00000000000E+00  0.30000000000E+02  0.30000000000E+02  0.00000000000E+00 0.  1.
        -11   -1    0    0    0    0 -0.00000000000E+00 -0.00000000000E+00 -0.30000000000E+02  0.30000000000E+02  0.00000000000E+00 0. -1.
          5    1    1    2  501    0 -0.15324576028E+02 -0.62395707939E+01 -0.24579160398E+02  0.30000000000E+02  0.47000000000E+01 0. -1.
         -5    1    1    2    0  501  0.15324576028E+02  0.62395707939E+01  0.24579160398E+02  0.30000000000E+02  0.47000000000E+01 0.  1.
</event>
<event>
 4    1  0.7580225E-002  0.6000000E+02  0.7546771E-02  0.1259629E+00
         11   -1    0    0    0    0  0.00000000000E+00  0.00000000000E+00  0.30000000000E+02  0.30000000000E+02  0.00000000000E+00 0. -1.
        -11   -1    0    0    0    0 -0.00000000000E+00 -0.00000000000E+00 -0.30000000000E+02  0.30000000000E+02  0.00000000000E+00 0.  1.
          5    1    1    2  501    0  0.42349606192E+01 -0.25903923981E+02 -0.13746338820E+02  0.30000000000E+02  0.47000000000E+01 0.  1.
         -5    1    1    2    0  501 -0.42349606192E+01  0.25903923981E+02  0.13746338820E+02  0.30000000000E+02  0.47000000000E+01 0. -1.
</event>
<event>
 4    1  0.7580225E-002  0.6000000E+02  0.7546771E-02  0.1259629E+00
         11   -1    0    0    0    0  0.00000000000E+00  0.00000000000E+00  0.30000000000E+02  0.30000000000E+02  0.00000000000E+00 0. -1.
        -11   -1    0    0    0    0 -0.00000000000E+00 -0.00000000000E+00 -0.30000000000E+02  0.30000000000E+02  0.00000000000E+00 0.  1.
          5    1    1    2  501    0  0.10541017465E+01  0.29115527891E+02  0.53930422881E+01  0.30000000000E+02  0.47000000000E+01 0.  1.
         -5    1    1    2    0  501 -0.10541017465E+01 -0.29115527891E+02 -0.53930422881E+01  0.30000000000E+02  0.47000000000E+01 0. -1.
</event>
<event>
 4    1  0.7580225E-002  0.6000000E+02  0.7546771E-02  0.1259629E+00
         11   -1    0    0    0    0  0.00000000000E+00  0.00000000000E+00  0.30000000000E+02  0.30000000000E+02  0.00000000000E+00 0.  1.
        -11   -1    0    0    0    0 -0.00000000000E+00 -0.00000000000E+00 -0.30000000000E+02  0.30000000000E+02  0.00000000000E+00 0. -1.
          5    1    1    2  501    0 -0.17876596982E+02 -0.94181377438E+01  0.21671085847E+02  0.30000000000E+02  0.47000000000E+01 0. -1.
         -5    1    1    2    0  501  0.17876596982E+02  0.94181377438E+01 -0.21671085847E+02  0.30000000000E+02  0.47000000000E+01 0.  1.
</event>
<event>
 4    1  0.7580225E-002  0.6000000E+02  0.7546771E-02  0.1259629E+00
         11   -1    0    0    0    0  0.00000000000E+00  0.00000000000E+00  0.30000000000E+02  0.30000000000E+02  0.00000000000E+00 0.  1.
        -11   -1    0    0    0    0 -0.00000000000E+00 -0.00000000000E+00 -0.30000000000E+02  0.30000000000E+02  0.00000000000E+00 0. -1.
          5    1    1    2  501    0 -0.68579933953E+01 -0.28820785472E+02 -0.49015441509E+00  0.30000000000E+02  0.47000000000E+01 0. -1.
         -5    1    1    2    0  501  0.68579933953E+01  0.28820785472E+02  0.49015441509E+00  0.30000000000E+02  0.47000000000E+01 0.  1.
</event>
<event>
 4    1  0.7580225E-002  0.6000000E+02  0.7546771E-02  0.1259629E+00
         11   -1    0    0    0    0  0.00000000000E+00  0.00000000000E+00  0.30000000000E+02  0.30000000000E+02  0.00000000000E+00 0.  1.
        -11   -1    0    0    0    0 -0.00000000000E+00 -0.00000000000E+00 -0.30000000000E+02  0.30000000000E+02  0.00000000000E+00 0. -1.
          5    1    1    2  501    0 -0.84755948205E+01 -0.19134658124E+02  0.20974726480E+02  0.30000000000E+02  0.47000000000E+01 0.  1.
         -5    1    1    2    0  501  0.84755948205E+01  0.19134658124E+02 -0.20974726480E+02  0.30000000000E+02  0.47000000000E+01 0. -1.
</event>
<event>
 4    1  0.7580225E-002  0.6000000E+02  0.7546771E-02  0.1259629E+00
         11   -1    0    0    0    0  0.00000000000E+00  0.00000000000E+00  0.30000000000E+02  0.30000000000E+02  0.00000000000E+00 0.  1.
        -11   -1    0    0    0    0 -0.00000000000E+00 -0.00000000000E+00 -0.30000000000E+02  0.30000000000E+02  0.00000000000E+00 0. -1.
          5    1    1    2  501    0 -0.94166954021E+01 -0.11079823961E+00 -0.28093123206E+02  0.30000000000E+02  0.47000000000E+01 0. -1.
         -5    1    1    2    0  501  0.94166954021E+01  0.11079823961E+00  0.28093123206E+02  0.30000000000E+02  0.47000000000E+01 0.  1.
</event>
<event>
 4    1  0.7580225E-002  0.6000000E+02  0.7546771E-02  0.1259629E+00
         11   -1    0    0    0    0  0.00000000000E+00  0.00000000000E+00  0.30000000000E+02  0.30000000000E+02  0.00000000000E+00 0. -1.
        -11   -1    0    0    0    0 -0.00000000000E+00 -0.00000000000E+00 -0.30000000000E+02  0.30000000000E+02  0.00000000000E+00 0.  1.
          5    1    1    2  501    0  0.16443085728E+02  0.20957125015E+01 -0.24558968237E+02  0.30000000000E+02  0.47000000000E+01 0.  1.
         -5    1    1    2    0  501 -0.16443085728E+02 -0.20957125015E+01  0.24558968237E+02  0.30000000000E+02  0.47000000000E+01 0. -1.
</event>
<event>
 4    1  0.7580225E-002  0.6000000E+02  0.7546771E-02  0.1259629E+00
         11   -1    0    0    0    0  0.00000000000E+00  0.00000000000E+00  0.30000000000E+02  0.30000000000E+02  0.00000000000E+00 0.  1.
        -11   -1    0    0    0    0 -0.00000000000E+00 -0.00000000000E+00 -0.30000000000E+02  0.30000000000E+02  0.00000000000E+00 0. -1.
          5    1    1    2  501    0  0.20885666412E+02  0.16346689806E+02 -0.13209264587E+02  0.30000000000E+02  0.47000000000E+01 0. -1.
         -5    1    1    2    0  501 -0.20885666412E+02 -0.16346689806E+02  0.13209264587E+02  0.30000000000E+02  0.47000000000E+01 0.  1.
</event>
<event>
 4    1  0.7580225E-002  0.6000000E+02  0.7546771E-02  0.1259629E+00
         11   -1    0    0    0    0  0.00000000000E+00  0.00000000000E+00  0.30000000000E+02  0.30000000000E+02  0.00000000000E+00 0.  1.
        -11   -1    0    0    0    0 -0.00000000000E+00 -0.00000000000E+00 -0.30000000000E+02  0.30000000000E+02  0.00000000000E+00 0. -1.
          5    1    1    2  501    0  0.10905045916E+02 -0.10322961637E+02 -0.25542639578E+02  0.30000000000E+02  0.47000000000E+01 0. -1.
         -5    1    1    2    0  501 -0.10905045916E+02  0.10322961637E+02  0.25542639578E+02  0.30000000000E+02  0.47000000000E+01 0.  1.
</event>
<event>
 4    1  0.7580225E-002  0.6000000E+02  0.7546771E-02  0.1259629E+00
         11   -1    0    0    0    0  0.00000000000E+00  0.00000000000E+00  0.30000000000E+02  0.30000000000E+02  0.00000000000E+00 0. -1.
        -11   -1    0    0    0    0 -0.00000000000E+00 -0.00000000000E+00 -0.30000000000E+02  0.30000000000E+02  0.00000000000E+00 0.  1.
          5    1    1    2  501    0  0.24494453662E+02 -0.41695518000E+01 -0.16141455251E+02  0.30000000000E+02  0.47000000000E+01 0.  1.
         -5    1    1    2    0  501 -0.24494453662E+02  0.41695518000E+01  0.16141455251E+02  0.30000000000E+02  0.47000000000E+01 0. -1.
</event>
<event>
 4    1  0.7580225E-002  0.6000000E+02  0.7546771E-02  0.1259629E+00
         11   -1    0    0    0    0  0.00000000000E+00  0.00000000000E+00  0.30000000000E+02  0.30000000000E+02  0.00000000000E+00 0. -1.
        -11   -1    0    0    0    0 -0.00000000000E+00 -0.00000000000E+00 -0.30000000000E+02  0.30000000000E+02  0.00000000000E+00 0.  1.
          5    1    1    2  501    0 -0.65375710854E+01  0.13228891555E+02 -0.25693707255E+02  0.30000000000E+02  0.47000000000E+01 0.  1.
         -5    1    1    2    0  501  0.65375710854E+01 -0.13228891555E+02  0.25693707255E+02  0.30000000000E+02  0.47000000000E+01 0. -1.
</event>
<event>
 4    1  0.7580225E-002  0.6000000E+02  0.7546771E-02  0.1259629E+00
         11   -1    0    0    0    0  0.00000000000E+00  0.00000000000E+00  0.30000000000E+02  0.30000000000E+02  0.00000000000E+00 0.  1.
        -11   -1    0    0    0    0 -0.00000000000E+00 -0.00000000000E+00 -0.30000000000E+02  0.30000000000E+02  0.00000000000E+00 0. -1.
          5    1    1    2  501    0 -0.14430627385E+02  0.15263816552E+02 -0.20896959050E+02  0.30000000000E+02  0.47000000000E+01 0. -1.
         -5    1    1    2    0  501  0.14430627385E+02 -0.15263816552E+02  0.20896959050E+02  0.30000000000E+02  0.47000000000E+01 0.  1.
</event>
<event>
 4    1  0.7580225E-002  0.6000000E+02  0.7546771E-02  0.1259629E+00
         11   -1    0    0    0    0  0.00000000000E+00  0.00000000000E+00  0.30000000000E+02  0.30000000000E+02  0.00000000000E+00 0.  1.
        -11   -1    0    0    0    0 -0.00000000000E+00 -0.00000000000E+00 -0.30000000000E+02  0.30000000000E+02  0.00000000000E+00 0. -1.
          5    1    1    2  501    0  0.49260257958E+01 -0.14871411499E+01 -0.29179319407E+02  0.30000000000E+02  0.47000000000E+01 0. -1.
         -5    1    1    2    0  501 -0.49260257958E+01  0.14871411499E+01  0.29179319407E+02  0.30000000000E+02  0.47000000000E+01 0.  1.
</event>
<event>
 4    1  0.7580225E-002  0.6000000E+02  0.7546771E-02  0.1259629E+00
         11   -1    0    0    0    0  0.00000000000E+00  0.00000000000E+00  0.30000000000E+02  0.30000000000E+02  0.00000000000E+00 0. -1.
        -11   -1    0    0    0    0 -0.00000000000E+00 -0.00000000000E+00 -0.30000000000E+02  0.30000000000E+02  0.00000000000E+00 0.  1.
          5    1    1    2  501    0 -0.29555419833E+02  0.48138340744E+00  0.20384868175E+01  0.30000000000E+02  0.47000000000E+01 0.  1.
         -5    1    1    2    0  501  0.29555419833E+02 -0.48138340744E+00 -0.20384868175E+01  0.30000000000E+02  0.47000000000E+01 0. -1.
</event>
<event>
 4    1  0.7580225E-002  0.6000000E+02  0.7546771E-02  0.1259629E+00
         11   -1    0    0    0    0  0.00000000000E+00  0.00000000000E+00  0.30000000000E+02  0.30000000000E+02  0.00000000000E+00 0.  1.
        -11   -1    0    0    0    0 -0.00000000000E+00 -0.00000000000E+00 -0.30000000000E+02  0.30000000000E+02  0.00000000000E+00 0. -1.
          5    1    1    2  501    0  0.89422903571E+01 -0.13241977836E+02 -0.24951862980E+02  0.30000000000E+02  0.47000000000E+01 0. -1.
         -5    1    1    2    0  501 -0.89422903571E+01  0.13241977836E+02  0.24951862980E+02  0.30000000000E+02  0.47000000000E+01 0.  1.
</event>
<event>
 4    1  0.7580225E-002  0.6000000E+02  0.7546771E-02  0.1259629E+00
         11   -1    0    0    0    0  0.00000000000E+00  0.00000000000E+00  0.30000000000E+02  0.30000000000E+02  0.00000000000E+00 0.  1.
        -11   -1    0    0    0    0 -0.00000000000E+00 -0.00000000000E+00 -0.30000000000E+02  0.30000000000E+02  0.00000000000E+00 0. -1.
          5    1    1    2  501    0 -0.27380570394E+02 -0.54814156514E+01  0.99079991598E+01  0.30000000000E+02  0.47000000000E+01 0. -1.
         -5    1    1    2    0  501  0.27380570394E+02  0.54814156514E+01 -0.99079991598E+01  0.30000000000E+02  0.47000000000E+01 0.  1.
</event>
<event>
 4    1  0.7580225E-002  0.6000000E+02  0.7546771E-02  0.1259629E+00
         11   -1    0    0    0    0  0.00000000000E+00  0.00000000000E+00  0.30000000000E+02  0.30000000000E+02  0.00000000000E+00 0.  1.
        -11   -1    0    0    0    0 -0.00000000000E+00 -0.00000000000E+00 -0.30000000000E+02  0.30000000000E+02  0.00000000000E+00 0. -1.
          5    1    1    2  501    0  0.27609984856E+01 -0.70462606882E+01  0.28646764175E+02  0.30000000000E+02  0.47000000000E+01 0.  1.
         -5    1    1    2    0  501 -0.27609984856E+01  0.70462606882E+01 -0.28646764175E+02  0.30000000000E+02  0.47000000000E+01 0. -1.
</event>
<event>
 4    1  0.7580225E-002  0.6000000E+02  0.7546771E-02  0.1259629E+00
         11   -1    0    0    0    0  0.00000000000E+00  0.00000000000E+00  0.30000000000E+02  0.30000000000E+02  0.00000000000E+00 0. -1.
        -11   -1    0    0    0    0 -0.00000000000E+00 -0.00000000000E+00 -0.30000000000E+02  0.30000000000E+02  0.00000000000E+00 0.  1.
          5    1    1    2  501    0 -0.18961101700E+02 -0.99443757302E+01  0.20481601833E+02  0.30000000000E+02  0.47000000000E+01 0. -1.
         -5    1    1    2    0  501  0.18961101700E+02  0.99443757302E+01 -0.20481601833E+02  0.30000000000E+02  0.47000000000E+01 0.  1.
</event>
<event>
 4    1  0.7580225E-002  0.6000000E+02  0.7546771E-02  0.1259629E+00
         11   -1    0    0    0    0  0.00000000000E+00  0.00000000000E+00  0.30000000000E+02  0.30000000000E+02  0.00000000000E+00 0.  1.
        -11   -1    0    0    0    0 -0.00000000000E+00 -0.00000000000E+00 -0.30000000000E+02  0.30000000000E+02  0.00000000000E+00 0. -1.
          5    1    1    2  501    0  0.68541886475E+01 -0.27194413653E+02 -0.95600190404E+01  0.30000000000E+02  0.47000000000E+01 0. -1.
         -5    1    1    2    0  501 -0.68541886475E+01  0.27194413653E+02  0.95600190404E+01  0.30000000000E+02  0.47000000000E+01 0.  1.
</event>
<event>
 4    1  0.7580225E-002  0.6000000E+02  0.7546771E-02  0.1259629E+00
         11   -1    0    0    0    0  0.00000000000E+00  0.00000000000E+00  0.30000000000E+02  0.30000000000E+02  0.00000000000E+00 0.  1.
        -11   -1    0    0    0    0 -0.00000000000E+00 -0.00000000000E+00 -0.30000000000E+02  0.30000000000E+02  0.00000000000E+00 0. -1.
          5    1    1    2  501    0  0.11889121895E+02  0.24750242489E+02 -0.11134822733E+02  0.30000000000E+02  0.47000000000E+01 0. -1.
         -5    1    1    2    0  501 -0.11889121895E+02 -0.24750242489E+02  0.11134822733E+02  0.30000000000E+02  0.47000000000E+01 0.  1.
</event>
<event>
 4    1  0.7580225E-002  0.6000000E+02  0.7546771E-02  0.1259629E+00
         11   -1    0    0    0    0  0.00000000000E+00  0.00000000000E+00  0.30000000000E+02  0.30000000000E+02  0.00000000000E+00 0.  1.
        -11   -1    0    0    0    0 -0.00000000000E+00 -0.00000000000E+00 -0.30000000000E+02  0.30000000000E+02  0.00000000000E+00 0. -1.
          5    1    1    2  501    0  0.22939117342E+02  0.13102871051E+02 -0.13417215278E+02  0.30000000000E+02  0.47000000000E+01 0. -1.
         -5    1    1    2    0  501 -0.22939117342E+02 -0.13102871051E+02  0.13417215278E+02  0.30000000000E+02  0.47000000000E+01 0.  1.
</event>
<event>
 4    1  0.7580225E-002  0.6000000E+02  0.7546771E-02  0.1259629E+00
         11   -1    0    0    0    0  0.00000000000E+00  0.00000000000E+00  0.30000000000E+02  0.30000000000E+02  0.00000000000E+00 0.  1.
        -11   -1    0    0    0    0 -0.00000000000E+00 -0.00000000000E+00 -0.30000000000E+02  0.30000000000E+02  0.00000000000E+00 0. -1.
          5    1    1    2  501    0  0.25751870444E+02  0.13709640441E+02  0.51765748897E+01  0.30000000000E+02  0.47000000000E+01 0. -1.
         -5    1    1    2    0  501 -0.25751870444E+02 -0.13709640441E+02 -0.51765748897E+01  0.30000000000E+02  0.47000000000E+01 0.  1.
</event>
<event>
 4    1  0.7580225E-002  0.6000000E+02  0.7546771E-02  0.1259629E+00
         11   -1    0    0    0    0  0.00000000000E+00  0.00000000000E+00  0.30000000000E+02  0.30000000000E+02  0.00000000000E+00 0.  1.
        -11   -1    0    0    0    0 -0.00000000000E+00 -0.00000000000E+00 -0.30000000000E+02  0.30000000000E+02  0.00000000000E+00 0. -1.
          5    1    1    2  501    0 -0.34282443217E+01  0.10660005327E+02 -0.27432124003E+02  0.30000000000E+02  0.47000000000E+01 0. -1.
         -5    1    1    2    0  501  0.34282443217E+01 -0.10660005327E+02  0.27432124003E+02  0.30000000000E+02  0.47000000000E+01 0.  1.
</event>
<event>
 4    1  0.7580225E-002  0.6000000E+02  0.7546771E-02  0.1259629E+00
         11   -1    0    0    0    0  0.00000000000E+00  0.00000000000E+00  0.30000000000E+02  0.30000000000E+02  0.00000000000E+00 0.  1.
        -11   -1    0    0    0    0 -0.00000000000E+00 -0.00000000000E+00 -0.30000000000E+02  0.30000000000E+02  0.00000000000E+00 0. -1.
          5    1    1    2  501    0 -0.25991580319E+00  0.13145778433E+02  0.26552418970E+02  0.30000000000E+02  0.47000000000E+01 0.  1.
         -5    1    1    2    0  501  0.25991580319E+00 -0.13145778433E+02 -0.26552418970E+02  0.30000000000E+02  0.47000000000E+01 0. -1.
</event>
<event>
 4    1  0.7580225E-002  0.6000000E+02  0.7546771E-02  0.1259629E+00
         11   -1    0    0    0    0  0.00000000000E+00  0.00000000000E+00  0.30000000000E+02  0.30000000000E+02  0.00000000000E+00 0.  1.
        -11   -1    0    0    0    0 -0.00000000000E+00 -0.00000000000E+00 -0.30000000000E+02  0.30000000000E+02  0.00000000000E+00 0. -1.
          5    1    1    2  501    0  0.13347251984E+02 -0.16393920758E+01  0.26402144953E+02  0.30000000000E+02  0.47000000000E+01 0.  1.
         -5    1    1    2    0  501 -0.13347251984E+02  0.16393920758E+01 -0.26402144953E+02  0.30000000000E+02  0.47000000000E+01 0. -1.
</event>
<event>
 4    1  0.7580225E-002  0.6000000E+02  0.7546771E-02  0.1259629E+00
         11   -1    0    0    0    0  0.00000000000E+00  0.00000000000E+00  0.30000000000E+02  0.30000000000E+02  0.00000000000E+00 0.  1.
        -11   -1    0    0    0    0 -0.00000000000E+00 -0.00000000000E+00 -0.30000000000E+02  0.30000000000E+02  0.00000000000E+00 0. -1.
          5    1    1    2  501    0 -0.13400618672E+02  0.26265287225E+02 -0.29100010631E+01  0.30000000000E+02  0.47000000000E+01 0. -1.
         -5    1    1    2    0  501  0.13400618672E+02 -0.26265287225E+02  0.29100010631E+01  0.30000000000E+02  0.47000000000E+01 0.  1.
</event>
<event>
 4    1  0.7580225E-002  0.6000000E+02  0.7546771E-02  0.1259629E+00
         11   -1    0    0    0    0  0.00000000000E+00  0.00000000000E+00  0.30000000000E+02  0.30000000000E+02  0.00000000000E+00 0.  1.
        -11   -1    0    0    0    0 -0.00000000000E+00 -0.00000000000E+00 -0.30000000000E+02  0.30000000000E+02  0.00000000000E+00 0. -1.
          5    1    1    2  501    0  0.12671332562E+02 -0.19742625840E+02 -0.18099062298E+02  0.30000000000E+02  0.47000000000E+01 0. -1.
         -5    1    1    2    0  501 -0.12671332562E+02  0.19742625840E+02  0.18099062298E+02  0.30000000000E+02  0.47000000000E+01 0.  1.
</event>
<event>
 4    1  0.7580225E-002  0.6000000E+02  0.7546771E-02  0.1259629E+00
         11   -1    0    0    0    0  0.00000000000E+00  0.00000000000E+00  0.30000000000E+02  0.30000000000E+02  0.00000000000E+00 0.  1.
        -11   -1    0    0    0    0 -0.00000000000E+00 -0.00000000000E+00 -0.30000000000E+02  0.30000000000E+02  0.00000000000E+00 0. -1.
          5    1    1    2  501    0 -0.90155948054E+01 -0.25356491623E+02 -0.12396668218E+02  0.30000000000E+02  0.47000000000E+01 0. -1.
         -5    1    1    2    0  501  0.90155948054E+01  0.25356491623E+02  0.12396668218E+02  0.30000000000E+02  0.47000000000E+01 0.  1.
</event>
<event>
 4    1  0.7580225E-002  0.6000000E+02  0.7546771E-02  0.1259629E+00
         11   -1    0    0    0    0  0.00000000000E+00  0.00000000000E+00  0.30000000000E+02  0.30000000000E+02  0.00000000000E+00 0.  1.
        -11   -1    0    0    0    0 -0.00000000000E+00 -0.00000000000E+00 -0.30000000000E+02  0.30000000000E+02  0.00000000000E+00 0. -1.
          5    1    1    2  501    0 -0.24294035559E+02 -0.15170171085E+02  0.75878683105E+01  0.30000000000E+02  0.47000000000E+01 0. -1.
         -5    1    1    2    0  501  0.24294035559E+02  0.15170171085E+02 -0.75878683105E+01  0.30000000000E+02  0.47000000000E+01 0.  1.
</event>
<event>
 4    1  0.7580225E-002  0.6000000E+02  0.7546771E-02  0.1259629E+00
         11   -1    0    0    0    0  0.00000000000E+00  0.00000000000E+00  0.30000000000E+02  0.30000000000E+02  0.00000000000E+00 0. -1.
        -11   -1    0    0    0    0 -0.00000000000E+00 -0.00000000000E+00 -0.30000000000E+02  0.30000000000E+02  0.00000000000E+00 0.  1.
          5    1    1    2  501    0 -0.21406831419E+02 -0.95669501187E+01 -0.18114387487E+02  0.30000000000E+02  0.47000000000E+01 0.  1.
         -5    1    1    2    0  501  0.21406831419E+02  0.95669501187E+01  0.18114387487E+02  0.30000000000E+02  0.47000000000E+01 0. -1.
</event>
<event>
 4    1  0.7580225E-002  0.6000000E+02  0.7546771E-02  0.1259629E+00
         11   -1    0    0    0    0  0.00000000000E+00  0.00000000000E+00  0.30000000000E+02  0.30000000000E+02  0.00000000000E+00 0.  1.
        -11   -1    0    0    0    0 -0.00000000000E+00 -0.00000000000E+00 -0.30000000000E+02  0.30000000000E+02  0.00000000000E+00 0. -1.
          5    1    1    2  501    0  0.26143461623E+02  0.13570402828E+02  0.32052428113E+01  0.30000000000E+02  0.47000000000E+01 0. -1.
         -5    1    1    2    0  501 -0.26143461623E+02 -0.13570402828E+02 -0.32052428113E+01  0.30000000000E+02  0.47000000000E+01 0.  1.
</event>
<event>
 4    1  0.7580225E-002  0.6000000E+02  0.7546771E-02  0.1259629E+00
         11   -1    0    0    0    0  0.00000000000E+00  0.00000000000E+00  0.30000000000E+02  0.30000000000E+02  0.00000000000E+00 0.  1.
        -11   -1    0    0    0    0 -0.00000000000E+00 -0.00000000000E+00 -0.30000000000E+02  0.30000000000E+02  0.00000000000E+00 0. -1.
          5    1    1    2  501    0 -0.86368838308E+01  0.28323022752E+02  0.10585933418E+01  0.30000000000E+02  0.47000000000E+01 0. -1.
         -5    1    1    2    0  501  0.86368838308E+01 -0.28323022752E+02 -0.10585933418E+01  0.30000000000E+02  0.47000000000E+01 0.  1.
</event>
<event>
 4    1  0.7580225E-002  0.6000000E+02  0.7546771E-02  0.1259629E+00
         11   -1    0    0    0    0  0.00000000000E+00  0.00000000000E+00  0.30000000000E+02  0.30000000000E+02  0.00000000000E+00 0.  1.
        -11   -1    0    0    0    0 -0.00000000000E+00 -0.00000000000E+00 -0.30000000000E+02  0.30000000000E+02  0.00000000000E+00 0. -1.
          5    1    1    2  501    0 -0.62222485713E+01  0.23908194858E+02 -0.16358234665E+02  0.30000000000E+02  0.47000000000E+01 0. -1.
         -5    1    1    2    0  501  0.62222485713E+01 -0.23908194858E+02  0.16358234665E+02  0.30000000000E+02  0.47000000000E+01 0.  1.
</event>
<event>
 4    1  0.7580225E-002  0.6000000E+02  0.7546771E-02  0.1259629E+00
         11   -1    0    0    0    0  0.00000000000E+00  0.00000000000E+00  0.30000000000E+02  0.30000000000E+02  0.00000000000E+00 0.  1.
        -11   -1    0    0    0    0 -0.00000000000E+00 -0.00000000000E+00 -0.30000000000E+02  0.30000000000E+02  0.00000000000E+00 0. -1.
          5    1    1    2  501    0  0.30307208933E+01  0.23677794739E+02  0.17552400610E+02  0.30000000000E+02  0.47000000000E+01 0. -1.
         -5    1    1    2    0  501 -0.30307208933E+01 -0.23677794739E+02 -0.17552400610E+02  0.30000000000E+02  0.47000000000E+01 0.  1.
</event>
<event>
 4    1  0.7580225E-002  0.6000000E+02  0.7546771E-02  0.1259629E+00
         11   -1    0    0    0    0  0.00000000000E+00  0.00000000000E+00  0.30000000000E+02  0.30000000000E+02  0.00000000000E+00 0. -1.
        -11   -1    0    0    0    0 -0.00000000000E+00 -0.00000000000E+00 -0.30000000000E+02  0.30000000000E+02  0.00000000000E+00 0.  1.
          5    1    1    2  501    0  0.19704483233E+02 -0.12247048923E+02 -0.18429680768E+02  0.30000000000E+02  0.47000000000E+01 0.  1.
         -5    1    1    2    0  501 -0.19704483233E+02  0.12247048923E+02  0.18429680768E+02  0.30000000000E+02  0.47000000000E+01 0. -1.
</event>
<event>
 4    1  0.7580225E-002  0.6000000E+02  0.7546771E-02  0.1259629E+00
         11   -1    0    0    0    0  0.00000000000E+00  0.00000000000E+00  0.30000000000E+02  0.30000000000E+02  0.00000000000E+00 0.  1.
        -11   -1    0    0    0    0 -0.00000000000E+00 -0.00000000000E+00 -0.30000000000E+02  0.30000000000E+02  0.00000000000E+00 0. -1.
          5    1    1    2  501    0 -0.12275322841E+02  0.26371591942E+02 -0.56360968429E+01  0.30000000000E+02  0.47000000000E+01 0. -1.
         -5    1    1    2    0  501  0.12275322841E+02 -0.26371591942E+02  0.56360968429E+01  0.30000000000E+02  0.47000000000E+01 0.  1.
</event>
<event>
 4    1  0.7580225E-002  0.6000000E+02  0.7546771E-02  0.1259629E+00
         11   -1    0    0    0    0  0.00000000000E+00  0.00000000000E+00  0.30000000000E+02  0.30000000000E+02  0.00000000000E+00 0.  1.
        -11   -1    0    0    0    0 -0.00000000000E+00 -0.00000000000E+00 -0.30000000000E+02  0.30000000000E+02  0.00000000000E+00 0. -1.
          5    1    1    2  501    0 -0.37619505948E+01  0.34561156689E+01 -0.29185835472E+02  0.30000000000E+02  0.47000000000E+01 0. -1.
         -5    1    1    2    0  501  0.37619505948E+01 -0.34561156689E+01  0.29185835472E+02  0.30000000000E+02  0.47000000000E+01 0.  1.
</event>
<event>
 4    1  0.7580225E-002  0.6000000E+02  0.7546771E-02  0.1259629E+00
         11   -1    0    0    0    0  0.00000000000E+00  0.00000000000E+00  0.30000000000E+02  0.30000000000E+02  0.00000000000E+00 0.  1.
        -11   -1    0    0    0    0 -0.00000000000E+00 -0.00000000000E+00 -0.30000000000E+02  0.30000000000E+02  0.00000000000E+00 0. -1.
          5    1    1    2  501    0 -0.21546006669E+02 -0.12360956169E+02 -0.16151976944E+02  0.30000000000E+02  0.47000000000E+01 0. -1.
         -5    1    1    2    0  501  0.21546006669E+02  0.12360956169E+02  0.16151976944E+02  0.30000000000E+02  0.47000000000E+01 0.  1.
</event>
<event>
 4    1  0.7580225E-002  0.6000000E+02  0.7546771E-02  0.1259629E+00
         11   -1    0    0    0    0  0.00000000000E+00  0.00000000000E+00  0.30000000000E+02  0.30000000000E+02  0.00000000000E+00 0.  1.
        -11   -1    0    0    0    0 -0.00000000000E+00 -0.00000000000E+00 -0.30000000000E+02  0.30000000000E+02  0.00000000000E+00 0. -1.
          5    1    1    2  501    0 -0.15201957754E+02  0.16997862056E+02 -0.18917800241E+02  0.30000000000E+02  0.47000000000E+01 0. -1.
         -5    1    1    2    0  501  0.15201957754E+02 -0.16997862056E+02  0.18917800241E+02  0.30000000000E+02  0.47000000000E+01 0.  1.
</event>
<event>
 4    1  0.7580225E-002  0.6000000E+02  0.7546771E-02  0.1259629E+00
         11   -1    0    0    0    0  0.00000000000E+00  0.00000000000E+00  0.30000000000E+02  0.30000000000E+02  0.00000000000E+00 0. -1.
        -11   -1    0    0    0    0 -0.00000000000E+00 -0.00000000000E+00 -0.30000000000E+02  0.30000000000E+02  0.00000000000E+00 0.  1.
          5    1    1    2  501    0 -0.20276956528E+01  0.29526950157E+02 -0.13991657300E+01  0.30000000000E+02  0.47000000000E+01 0.  1.
         -5    1    1    2    0  501  0.20276956528E+01 -0.29526950157E+02  0.13991657300E+01  0.30000000000E+02  0.47000000000E+01 0. -1.
</event>
<event>
 4    1  0.7580225E-002  0.6000000E+02  0.7546771E-02  0.1259629E+00
         11   -1    0    0    0    0  0.00000000000E+00  0.00000000000E+00  0.30000000000E+02  0.30000000000E+02  0.00000000000E+00 0.  1.
        -11   -1    0    0    0    0 -0.00000000000E+00 -0.00000000000E+00 -0.30000000000E+02  0.30000000000E+02  0.00000000000E+00 0. -1.
          5    1    1    2  501    0 -0.15122800229E+02  0.17839405147E+02  0.18192485735E+02  0.30000000000E+02  0.47000000000E+01 0.  1.
         -5    1    1    2    0  501  0.15122800229E+02 -0.17839405147E+02 -0.18192485735E+02  0.30000000000E+02  0.47000000000E+01 0. -1.
</event>
<event>
 4    1  0.7580225E-002  0.6000000E+02  0.7546771E-02  0.1259629E+00
         11   -1    0    0    0    0  0.00000000000E+00  0.00000000000E+00  0.30000000000E+02  0.30000000000E+02  0.00000000000E+00 0.  1.
        -11   -1    0    0    0    0 -0.00000000000E+00 -0.00000000000E+00 -0.30000000000E+02  0.30000000000E+02  0.00000000000E+00 0. -1.
          5    1    1    2  501    0  0.80173234145E+01 -0.52624090395E+01 -0.28034613897E+02  0.30000000000E+02  0.47000000000E+01 0. -1.
         -5    1    1    2    0  501 -0.80173234145E+01  0.52624090395E+01  0.28034613897E+02  0.30000000000E+02  0.47000000000E+01 0.  1.
</event>
<event>
 4    1  0.7580225E-002  0.6000000E+02  0.7546771E-02  0.1259629E+00
         11   -1    0    0    0    0  0.00000000000E+00  0.00000000000E+00  0.30000000000E+02  0.30000000000E+02  0.00000000000E+00 0.  1.
        -11   -1    0    0    0    0 -0.00000000000E+00 -0.00000000000E+00 -0.30000000000E+02  0.30000000000E+02  0.00000000000E+00 0. -1.
          5    1    1    2  501    0  0.17518536086E+02 -0.23889898729E+02 -0.53257121432E+00  0.30000000000E+02  0.47000000000E+01 0. -1.
         -5    1    1    2    0  501 -0.17518536086E+02  0.23889898729E+02  0.53257121432E+00  0.30000000000E+02  0.47000000000E+01 0.  1.
</event>
<event>
 4    1  0.7580225E-002  0.6000000E+02  0.7546771E-02  0.1259629E+00
         11   -1    0    0    0    0  0.00000000000E+00  0.00000000000E+00  0.30000000000E+02  0.30000000000E+02  0.00000000000E+00 0.  1.
        -11   -1    0    0    0    0 -0.00000000000E+00 -0.00000000000E+00 -0.30000000000E+02  0.30000000000E+02  0.00000000000E+00 0. -1.
          5    1    1    2  501    0  0.23153853122E+02 -0.78765084701E+01 -0.16726317583E+02  0.30000000000E+02  0.47000000000E+01 0. -1.
         -5    1    1    2    0  501 -0.23153853122E+02  0.78765084701E+01  0.16726317583E+02  0.30000000000E+02  0.47000000000E+01 0.  1.
</event>
<event>
 4    1  0.7580225E-002  0.6000000E+02  0.7546771E-02  0.1259629E+00
         11   -1    0    0    0    0  0.00000000000E+00  0.00000000000E+00  0.30000000000E+02  0.30000000000E+02  0.00000000000E+00 0.  1.
        -11   -1    0    0    0    0 -0.00000000000E+00 -0.00000000000E+00 -0.30000000000E+02  0.30000000000E+02  0.00000000000E+00 0. -1.
          5    1    1    2  501    0 -0.28433095657E+02 -0.20333338807E+01 -0.80829836505E+01  0.30000000000E+02  0.47000000000E+01 0. -1.
         -5    1    1    2    0  501  0.28433095657E+02  0.20333338807E+01  0.80829836505E+01  0.30000000000E+02  0.47000000000E+01 0.  1.
</event>
<event>
 4    1  0.7580225E-002  0.6000000E+02  0.7546771E-02  0.1259629E+00
         11   -1    0    0    0    0  0.00000000000E+00  0.00000000000E+00  0.30000000000E+02  0.30000000000E+02  0.00000000000E+00 0.  1.
        -11   -1    0    0    0    0 -0.00000000000E+00 -0.00000000000E+00 -0.30000000000E+02  0.30000000000E+02  0.00000000000E+00 0. -1.
          5    1    1    2  501    0  0.75134814877E+01 -0.28585426725E+02  0.20810994351E+01  0.30000000000E+02  0.47000000000E+01 0. -1.
         -5    1    1    2    0  501 -0.75134814877E+01  0.28585426725E+02 -0.20810994351E+01  0.30000000000E+02  0.47000000000E+01 0.  1.
</event>
<event>
 4    1  0.7580225E-002  0.6000000E+02  0.7546771E-02  0.1259629E+00
         11   -1    0    0    0    0  0.00000000000E+00  0.00000000000E+00  0.30000000000E+02  0.30000000000E+02  0.00000000000E+00 0.  1.
        -11   -1    0    0    0    0 -0.00000000000E+00 -0.00000000000E+00 -0.30000000000E+02  0.30000000000E+02  0.00000000000E+00 0. -1.
          5    1    1    2  501    0  0.91102676120E+01  0.84419991858E-01 -0.28194075571E+02  0.30000000000E+02  0.47000000000E+01 0. -1.
         -5    1    1    2    0  501 -0.91102676120E+01 -0.84419991858E-01  0.28194075571E+02  0.30000000000E+02  0.47000000000E+01 0.  1.
</event>
<event>
 4    1  0.7580225E-002  0.6000000E+02  0.7546771E-02  0.1259629E+00
         11   -1    0    0    0    0  0.00000000000E+00  0.00000000000E+00  0.30000000000E+02  0.30000000000E+02  0.00000000000E+00 0.  1.
        -11   -1    0    0    0    0 -0.00000000000E+00 -0.00000000000E+00 -0.30000000000E+02  0.30000000000E+02  0.00000000000E+00 0. -1.
          5    1    1    2  501    0  0.52428851965E+01  0.23106357803E+02  0.17790963546E+02  0.30000000000E+02  0.47000000000E+01 0. -1.
         -5    1    1    2    0  501 -0.52428851965E+01 -0.23106357803E+02 -0.17790963546E+02  0.30000000000E+02  0.47000000000E+01 0.  1.
</event>
<event>
 4    1  0.7580225E-002  0.6000000E+02  0.7546771E-02  0.1259629E+00
         11   -1    0    0    0    0  0.00000000000E+00  0.00000000000E+00  0.30000000000E+02  0.30000000000E+02  0.00000000000E+00 0. -1.
        -11   -1    0    0    0    0 -0.00000000000E+00 -0.00000000000E+00 -0.30000000000E+02  0.30000000000E+02  0.00000000000E+00 0.  1.
          5    1    1    2  501    0 -0.24825199745E+02 -0.11635732395E+02 -0.11235176424E+02  0.30000000000E+02  0.47000000000E+01 0.  1.
         -5    1    1    2    0  501  0.24825199745E+02  0.11635732395E+02  0.11235176424E+02  0.30000000000E+02  0.47000000000E+01 0. -1.
</event>
<event>
 4    1  0.7580225E-002  0.6000000E+02  0.7546771E-02  0.1259629E+00
         11   -1    0    0    0    0  0.00000000000E+00  0.00000000000E+00  0.30000000000E+02  0.30000000000E+02  0.00000000000E+00 0. -1.
        -11   -1    0    0    0    0 -0.00000000000E+00 -0.00000000000E+00 -0.30000000000E+02  0.30000000000E+02  0.00000000000E+00 0.  1.
          5    1    1    2  501    0  0.51694426322E+01 -0.19996923509E+02 -0.21244055946E+02  0.30000000000E+02  0.47000000000E+01 0.  1.
         -5    1    1    2    0  501 -0.51694426322E+01  0.19996923509E+02  0.21244055946E+02  0.30000000000E+02  0.47000000000E+01 0. -1.
</event>
<event>
 4    1  0.7580225E-002  0.6000000E+02  0.7546771E-02  0.1259629E+00
         11   -1    0    0    0    0  0.00000000000E+00  0.00000000000E+00  0.30000000000E+02  0.30000000000E+02  0.00000000000E+00 0.  1.
        -11   -1    0    0    0    0 -0.00000000000E+00 -0.00000000000E+00 -0.30000000000E+02  0.30000000000E+02  0.00000000000E+00 0. -1.
          5    1    1    2  501    0 -0.28265237644E+02  0.26501557805E+01  0.84831017491E+01  0.30000000000E+02  0.47000000000E+01 0. -1.
         -5    1    1    2    0  501  0.28265237644E+02 -0.26501557805E+01 -0.84831017491E+01  0.30000000000E+02  0.47000000000E+01 0.  1.
</event>
<event>
 4    1  0.7580225E-002  0.6000000E+02  0.7546771E-02  0.1259629E+00
         11   -1    0    0    0    0  0.00000000000E+00  0.00000000000E+00  0.30000000000E+02  0.30000000000E+02  0.00000000000E+00 0.  1.
        -11   -1    0    0    0    0 -0.00000000000E+00 -0.00000000000E+00 -0.30000000000E+02  0.30000000000E+02  0.00000000000E+00 0. -1.
          5    1    1    2  501    0 -0.23368525084E+02 -0.16545576838E+01 -0.18140685607E+02  0.30000000000E+02  0.47000000000E+01 0. -1.
         -5    1    1    2    0  501  0.23368525084E+02  0.16545576838E+01  0.18140685607E+02  0.30000000000E+02  0.47000000000E+01 0.  1.
</event>
<event>
 4    1  0.7580225E-002  0.6000000E+02  0.7546771E-02  0.1259629E+00
         11   -1    0    0    0    0  0.00000000000E+00  0.00000000000E+00  0.30000000000E+02  0.30000000000E+02  0.00000000000E+00 0. -1.
        -11   -1    0    0    0    0 -0.00000000000E+00 -0.00000000000E+00 -0.30000000000E+02  0.30000000000E+02  0.00000000000E+00 0.  1.
          5    1    1    2  501    0 -0.66882380643E+01 -0.28858129153E+02 -0.62117096393E+00  0.30000000000E+02  0.47000000000E+01 0.  1.
         -5    1    1    2    0  501  0.66882380643E+01  0.28858129153E+02  0.62117096393E+00  0.30000000000E+02  0.47000000000E+01 0. -1.
</event>
<event>
 4    1  0.7580225E-002  0.6000000E+02  0.7546771E-02  0.1259629E+00
         11   -1    0    0    0    0  0.00000000000E+00  0.00000000000E+00  0.30000000000E+02  0.30000000000E+02  0.00000000000E+00 0.  1.
        -11   -1    0    0    0    0 -0.00000000000E+00 -0.00000000000E+00 -0.30000000000E+02  0.30000000000E+02  0.00000000000E+00 0. -1.
          5    1    1    2  501    0 -0.23203681701E+02  0.63860518778E+01 -0.17283445748E+02  0.30000000000E+02  0.47000000000E+01 0. -1.
         -5    1    1    2    0  501  0.23203681701E+02 -0.63860518778E+01  0.17283445748E+02  0.30000000000E+02  0.47000000000E+01 0.  1.
</event>
<event>
 4    1  0.7580225E-002  0.6000000E+02  0.7546771E-02  0.1259629E+00
         11   -1    0    0    0    0  0.00000000000E+00  0.00000000000E+00  0.30000000000E+02  0.30000000000E+02  0.00000000000E+00 0. -1.
        -11   -1    0    0    0    0 -0.00000000000E+00 -0.00000000000E+00 -0.30000000000E+02  0.30000000000E+02  0.00000000000E+00 0.  1.
          5    1    1    2  501    0 -0.26703365306E+02  0.83092814789E+01 -0.97875493686E+01  0.30000000000E+02  0.47000000000E+01 0.  1.
         -5    1    1    2    0  501  0.26703365306E+02 -0.83092814789E+01  0.97875493686E+01  0.30000000000E+02  0.47000000000E+01 0. -1.
</event>
<event>
 4    1  0.7580225E-002  0.6000000E+02  0.7546771E-02  0.1259629E+00
         11   -1    0    0    0    0  0.00000000000E+00  0.00000000000E+00  0.30000000000E+02  0.30000000000E+02  0.00000000000E+00 0.  1.
        -11   -1    0    0    0    0 -0.00000000000E+00 -0.00000000000E+00 -0.30000000000E+02  0.30000000000E+02  0.00000000000E+00 0. -1.
          5    1    1    2  501    0 -0.32942811690E+01  0.15064647062E+02 -0.25300476685E+02  0.30000000000E+02  0.47000000000E+01 0. -1.
         -5    1    1    2    0  501  0.32942811690E+01 -0.15064647062E+02  0.25300476685E+02  0.30000000000E+02  0.47000000000E+01 0.  1.
</event>
<event>
 4    1  0.7580225E-002  0.6000000E+02  0.7546771E-02  0.1259629E+00
         11   -1    0    0    0    0  0.00000000000E+00  0.00000000000E+00  0.30000000000E+02  0.30000000000E+02  0.00000000000E+00 0.  1.
        -11   -1    0    0    0    0 -0.00000000000E+00 -0.00000000000E+00 -0.30000000000E+02  0.30000000000E+02  0.00000000000E+00 0. -1.
          5    1    1    2  501    0  0.17345689728E+02  0.78124935853E+01 -0.22715677226E+02  0.30000000000E+02  0.47000000000E+01 0. -1.
         -5    1    1    2    0  501 -0.17345689728E+02 -0.78124935853E+01  0.22715677226E+02  0.30000000000E+02  0.47000000000E+01 0.  1.
</event>
<event>
 4    1  0.7580225E-002  0.6000000E+02  0.7546771E-02  0.1259629E+00
         11   -1    0    0    0    0  0.00000000000E+00  0.00000000000E+00  0.30000000000E+02  0.30000000000E+02  0.00000000000E+00 0.  1.
        -11   -1    0    0    0    0 -0.00000000000E+00 -0.00000000000E+00 -0.30000000000E+02  0.30000000000E+02  0.00000000000E+00 0. -1.
          5    1    1    2  501    0  0.10960211108E+02 -0.10446015103E+02 -0.25468893595E+02  0.30000000000E+02  0.47000000000E+01 0. -1.
         -5    1    1    2    0  501 -0.10960211108E+02  0.10446015103E+02  0.25468893595E+02  0.30000000000E+02  0.47000000000E+01 0.  1.
</event>
<event>
 4    1  0.7580225E-002  0.6000000E+02  0.7546771E-02  0.1259629E+00
         11   -1    0    0    0    0  0.00000000000E+00  0.00000000000E+00  0.30000000000E+02  0.30000000000E+02  0.00000000000E+00 0.  1.
        -11   -1    0    0    0    0 -0.00000000000E+00 -0.00000000000E+00 -0.30000000000E+02  0.30000000000E+02  0.00000000000E+00 0. -1.
          5    1    1    2  501    0 -0.11102836010E+02  0.14283188468E+02 -0.23465454603E+02  0.30000000000E+02  0.47000000000E+01 0. -1.
         -5    1    1    2    0  501  0.11102836010E+02 -0.14283188468E+02  0.23465454603E+02  0.30000000000E+02  0.47000000000E+01 0.  1.
</event>
<event>
 4    1  0.7580225E-002  0.6000000E+02  0.7546771E-02  0.1259629E+00
         11   -1    0    0    0    0  0.00000000000E+00  0.00000000000E+00  0.30000000000E+02  0.30000000000E+02  0.00000000000E+00 0.  1.
        -11   -1    0    0    0    0 -0.00000000000E+00 -0.00000000000E+00 -0.30000000000E+02  0.30000000000E+02  0.00000000000E+00 0. -1.
          5    1    1    2  501    0  0.13825287369E+01 -0.10652252647E+02 -0.27613911853E+02  0.30000000000E+02  0.47000000000E+01 0. -1.
         -5    1    1    2    0  501 -0.13825287369E+01  0.10652252647E+02  0.27613911853E+02  0.30000000000E+02  0.47000000000E+01 0.  1.
</event>
<event>
 4    1  0.7580225E-002  0.6000000E+02  0.7546771E-02  0.1259629E+00
         11   -1    0    0    0    0  0.00000000000E+00  0.00000000000E+00  0.30000000000E+02  0.30000000000E+02  0.00000000000E+00 0.  1.
        -11   -1    0    0    0    0 -0.00000000000E+00 -0.00000000000E+00 -0.30000000000E+02  0.30000000000E+02  0.00000000000E+00 0. -1.
          5    1    1    2  501    0 -0.10518940779E+02  0.20869559380E+02 -0.18213274724E+02  0.30000000000E+02  0.47000000000E+01 0. -1.
         -5    1    1    2    0  501  0.10518940779E+02 -0.20869559380E+02  0.18213274724E+02  0.30000000000E+02  0.47000000000E+01 0.  1.
</event>
<event>
 4    1  0.7580225E-002  0.6000000E+02  0.7546771E-02  0.1259629E+00
         11   -1    0    0    0    0  0.00000000000E+00  0.00000000000E+00  0.30000000000E+02  0.30000000000E+02  0.00000000000E+00 0.  1.
        -11   -1    0    0    0    0 -0.00000000000E+00 -0.00000000000E+00 -0.30000000000E+02  0.30000000000E+02  0.00000000000E+00 0. -1.
          5    1    1    2  501    0  0.18912111406E+02 -0.22760288496E+02  0.14870473189E+01  0.30000000000E+02  0.47000000000E+01 0. -1.
         -5    1    1    2    0  501 -0.18912111406E+02  0.22760288496E+02 -0.14870473189E+01  0.30000000000E+02  0.47000000000E+01 0.  1.
</event>
<event>
 4    1  0.7580225E-002  0.6000000E+02  0.7546771E-02  0.1259629E+00
         11   -1    0    0    0    0  0.00000000000E+00  0.00000000000E+00  0.30000000000E+02  0.30000000000E+02  0.00000000000E+00 0.  1.
        -11   -1    0    0    0    0 -0.00000000000E+00 -0.00000000000E+00 -0.30000000000E+02  0.30000000000E+02  0.00000000000E+00 0. -1.
          5    1    1    2  501    0  0.21192725447E+02 -0.93727727683E+01  0.18464276827E+02  0.30000000000E+02  0.47000000000E+01 0.  1.
         -5    1    1    2    0  501 -0.21192725447E+02  0.93727727683E+01 -0.18464276827E+02  0.30000000000E+02  0.47000000000E+01 0. -1.
</event>
<event>
 4    1  0.7580225E-002  0.6000000E+02  0.7546771E-02  0.1259629E+00
         11   -1    0    0    0    0  0.00000000000E+00  0.00000000000E+00  0.30000000000E+02  0.30000000000E+02  0.00000000000E+00 0.  1.
        -11   -1    0    0    0    0 -0.00000000000E+00 -0.00000000000E+00 -0.30000000000E+02  0.30000000000E+02  0.00000000000E+00 0. -1.
          5    1    1    2  501    0 -0.13805049956E+01  0.12192490885E+02 -0.26969378413E+02  0.30000000000E+02  0.47000000000E+01 0. -1.
         -5    1    1    2    0  501  0.13805049956E+01 -0.12192490885E+02  0.26969378413E+02  0.30000000000E+02  0.47000000000E+01 0.  1.
</event>
<event>
 4    1  0.7580225E-002  0.6000000E+02  0.7546771E-02  0.1259629E+00
         11   -1    0    0    0    0  0.00000000000E+00  0.00000000000E+00  0.30000000000E+02  0.30000000000E+02  0.00000000000E+00 0. -1.
        -11   -1    0    0    0    0 -0.00000000000E+00 -0.00000000000E+00 -0.30000000000E+02  0.30000000000E+02  0.00000000000E+00 0.  1.
          5    1    1    2  501    0  0.32456374743E+01  0.15844079933E+02  0.24826215347E+02  0.30000000000E+02  0.47000000000E+01 0. -1.
         -5    1    1    2    0  501 -0.32456374743E+01 -0.15844079933E+02 -0.24826215347E+02  0.30000000000E+02  0.47000000000E+01 0.  1.
</event>
<event>
 4    1  0.7580225E-002  0.6000000E+02  0.7546771E-02  0.1259629E+00
         11   -1    0    0    0    0  0.00000000000E+00  0.00000000000E+00  0.30000000000E+02  0.30000000000E+02  0.00000000000E+00 0. -1.
        -11   -1    0    0    0    0 -0.00000000000E+00 -0.00000000000E+00 -0.30000000000E+02  0.30000000000E+02  0.00000000000E+00 0.  1.
          5    1    1    2  501    0 -0.29520050488E+01  0.17755365821E+02 -0.23535986292E+02  0.30000000000E+02  0.47000000000E+01 0.  1.
         -5    1    1    2    0  501  0.29520050488E+01 -0.17755365821E+02  0.23535986292E+02  0.30000000000E+02  0.47000000000E+01 0. -1.
</event>
<event>
 4    1  0.7580225E-002  0.6000000E+02  0.7546771E-02  0.1259629E+00
         11   -1    0    0    0    0  0.00000000000E+00  0.00000000000E+00  0.30000000000E+02  0.30000000000E+02  0.00000000000E+00 0.  1.
        -11   -1    0    0    0    0 -0.00000000000E+00 -0.00000000000E+00 -0.30000000000E+02  0.30000000000E+02  0.00000000000E+00 0. -1.
          5    1    1    2  501    0 -0.79172693907E+00 -0.94176509494E+00 -0.29603990389E+02  0.30000000000E+02  0.47000000000E+01 0. -1.
         -5    1    1    2    0  501  0.79172693907E+00  0.94176509494E+00  0.29603990389E+02  0.30000000000E+02  0.47000000000E+01 0.  1.
</event>
<event>
 4    1  0.7580225E-002  0.6000000E+02  0.7546771E-02  0.1259629E+00
         11   -1    0    0    0    0  0.00000000000E+00  0.00000000000E+00  0.30000000000E+02  0.30000000000E+02  0.00000000000E+00 0.  1.
        -11   -1    0    0    0    0 -0.00000000000E+00 -0.00000000000E+00 -0.30000000000E+02  0.30000000000E+02  0.00000000000E+00 0. -1.
          5    1    1    2  501    0 -0.22311311487E+02  0.55073003092E+01 -0.18702540550E+02  0.30000000000E+02  0.47000000000E+01 0. -1.
         -5    1    1    2    0  501  0.22311311487E+02 -0.55073003092E+01  0.18702540550E+02  0.30000000000E+02  0.47000000000E+01 0.  1.
</event>
<event>
 4    1  0.7580225E-002  0.6000000E+02  0.7546771E-02  0.1259629E+00
         11   -1    0    0    0    0  0.00000000000E+00  0.00000000000E+00  0.30000000000E+02  0.30000000000E+02  0.00000000000E+00 0.  1.
        -11   -1    0    0    0    0 -0.00000000000E+00 -0.00000000000E+00 -0.30000000000E+02  0.30000000000E+02  0.00000000000E+00 0. -1.
          5    1    1    2  501    0  0.27277472010E+02  0.50634976651E+01  0.10402428184E+02  0.30000000000E+02  0.47000000000E+01 0.  1.
         -5    1    1    2    0  501 -0.27277472010E+02 -0.50634976651E+01 -0.10402428184E+02  0.30000000000E+02  0.47000000000E+01 0. -1.
</event>
<event>
 4    1  0.7580225E-002  0.6000000E+02  0.7546771E-02  0.1259629E+00
         11   -1    0    0    0    0  0.00000000000E+00  0.00000000000E+00  0.30000000000E+02  0.30000000000E+02  0.00000000000E+00 0.  1.
        -11   -1    0    0    0    0 -0.00000000000E+00 -0.00000000000E+00 -0.30000000000E+02  0.30000000000E+02  0.00000000000E+00 0. -1.
          5    1    1    2  501    0  0.12875849561E+02 -0.10666214145E+02 -0.24461283161E+02  0.30000000000E+02  0.47000000000E+01 0. -1.
         -5    1    1    2    0  501 -0.12875849561E+02  0.10666214145E+02  0.24461283161E+02  0.30000000000E+02  0.47000000000E+01 0.  1.
</event>
<event>
 4    1  0.7580225E-002  0.6000000E+02  0.7546771E-02  0.1259629E+00
         11   -1    0    0    0    0  0.00000000000E+00  0.00000000000E+00  0.30000000000E+02  0.30000000000E+02  0.00000000000E+00 0.  1.
        -11   -1    0    0    0    0 -0.00000000000E+00 -0.00000000000E+00 -0.30000000000E+02  0.30000000000E+02  0.00000000000E+00 0. -1.
          5    1    1    2  501    0  0.48126368431E+01  0.34141329032E+01 -0.29036050405E+02  0.30000000000E+02  0.47000000000E+01 0. -1.
         -5    1    1    2    0  501 -0.48126368431E+01 -0.34141329032E+01  0.29036050405E+02  0.30000000000E+02  0.47000000000E+01 0.  1.
</event>
<event>
 4    1  0.7580225E-002  0.6000000E+02  0.7546771E-02  0.1259629E+00
         11   -1    0    0    0    0  0.00000000000E+00  0.00000000000E+00  0.30000000000E+02  0.30000000000E+02  0.00000000000E+00 0. -1.
        -11   -1    0    0    0    0 -0.00000000000E+00 -0.00000000000E+00 -0.30000000000E+02  0.30000000000E+02  0.00000000000E+00 0.  1.
          5    1    1    2  501    0  0.10122088978E+02 -0.19579429997E+02  0.19801495795E+02  0.30000000000E+02  0.47000000000E+01 0. -1.
         -5    1    1    2    0  501 -0.10122088978E+02  0.19579429997E+02 -0.19801495795E+02  0.30000000000E+02  0.47000000000E+01 0.  1.
</event>
<event>
 4    1  0.7580225E-002  0.6000000E+02  0.7546771E-02  0.1259629E+00
         11   -1    0    0    0    0  0.00000000000E+00  0.00000000000E+00  0.30000000000E+02  0.30000000000E+02  0.00000000000E+00 0.  1.
        -11   -1    0    0    0    0 -0.00000000000E+00 -0.00000000000E+00 -0.30000000000E+02  0.30000000000E+02  0.00000000000E+00 0. -1.
          5    1    1    2  501    0  0.15304793587E+02  0.15053530889E+02 -0.20422157110E+02  0.30000000000E+02  0.47000000000E+01 0. -1.
         -5    1    1    2    0  501 -0.15304793587E+02 -0.15053530889E+02  0.20422157110E+02  0.30000000000E+02  0.47000000000E+01 0.  1.
</event>
<event>
 4    1  0.7580225E-002  0.6000000E+02  0.7546771E-02  0.1259629E+00
         11   -1    0    0    0    0  0.00000000000E+00  0.00000000000E+00  0.30000000000E+02  0.30000000000E+02  0.00000000000E+00 0.  1.
        -11   -1    0    0    0    0 -0.00000000000E+00 -0.00000000000E+00 -0.30000000000E+02  0.30000000000E+02  0.00000000000E+00 0. -1.
          5    1    1    2  501    0 -0.17079055514E+02 -0.13846336630E+02  0.19861893783E+02  0.30000000000E+02  0.47000000000E+01 0. -1.
         -5    1    1    2    0  501  0.17079055514E+02  0.13846336630E+02 -0.19861893783E+02  0.30000000000E+02  0.47000000000E+01 0.  1.
</event>
<event>
 4    1  0.7580225E-002  0.6000000E+02  0.7546771E-02  0.1259629E+00
         11   -1    0    0    0    0  0.00000000000E+00  0.00000000000E+00  0.30000000000E+02  0.30000000000E+02  0.00000000000E+00 0.  1.
        -11   -1    0    0    0    0 -0.00000000000E+00 -0.00000000000E+00 -0.30000000000E+02  0.30000000000E+02  0.00000000000E+00 0. -1.
          5    1    1    2  501    0 -0.79265410679E+01  0.93330731331E+01 -0.26980987613E+02  0.30000000000E+02  0.47000000000E+01 0. -1.
         -5    1    1    2    0  501  0.79265410679E+01 -0.93330731331E+01  0.26980987613E+02  0.30000000000E+02  0.47000000000E+01 0.  1.
</event>
<event>
 4    1  0.7580225E-002  0.6000000E+02  0.7546771E-02  0.1259629E+00
         11   -1    0    0    0    0  0.00000000000E+00  0.00000000000E+00  0.30000000000E+02  0.30000000000E+02  0.00000000000E+00 0. -1.
        -11   -1    0    0    0    0 -0.00000000000E+00 -0.00000000000E+00 -0.30000000000E+02  0.30000000000E+02  0.00000000000E+00 0.  1.
          5    1    1    2  501    0 -0.59734450616E+01 -0.12359204789E+02 -0.26257913304E+02  0.30000000000E+02  0.47000000000E+01 0.  1.
         -5    1    1    2    0  501  0.59734450616E+01  0.12359204789E+02  0.26257913304E+02  0.30000000000E+02  0.47000000000E+01 0. -1.
</event>
<event>
 4    1  0.7580225E-002  0.6000000E+02  0.7546771E-02  0.1259629E+00
         11   -1    0    0    0    0  0.00000000000E+00  0.00000000000E+00  0.30000000000E+02  0.30000000000E+02  0.00000000000E+00 0.  1.
        -11   -1    0    0    0    0 -0.00000000000E+00 -0.00000000000E+00 -0.30000000000E+02  0.30000000000E+02  0.00000000000E+00 0. -1.
          5    1    1    2  501    0 -0.61133021397E+01 -0.40299644471E+01 -0.28710571633E+02  0.30000000000E+02  0.47000000000E+01 0. -1.
         -5    1    1    2    0  501  0.61133021397E+01  0.40299644471E+01  0.28710571633E+02  0.30000000000E+02  0.47000000000E+01 0.  1.
</event>
<event>
 4    1  0.7580225E-002  0.6000000E+02  0.7546771E-02  0.1259629E+00
         11   -1    0    0    0    0  0.00000000000E+00  0.00000000000E+00  0.30000000000E+02  0.30000000000E+02  0.00000000000E+00 0.  1.
        -11   -1    0    0    0    0 -0.00000000000E+00 -0.00000000000E+00 -0.30000000000E+02  0.30000000000E+02  0.00000000000E+00 0. -1.
          5    1    1    2  501    0  0.11160023394E+02  0.18952310664E+02 -0.19853810676E+02  0.30000000000E+02  0.47000000000E+01 0. -1.
         -5    1    1    2    0  501 -0.11160023394E+02 -0.18952310664E+02  0.19853810676E+02  0.30000000000E+02  0.47000000000E+01 0.  1.
</event>
<event>
 4    1  0.7580225E-002  0.6000000E+02  0.7546771E-02  0.1259629E+00
         11   -1    0    0    0    0  0.00000000000E+00  0.00000000000E+00  0.30000000000E+02  0.30000000000E+02  0.00000000000E+00 0.  1.
        -11   -1    0    0    0    0 -0.00000000000E+00 -0.00000000000E+00 -0.30000000000E+02  0.30000000000E+02  0.00000000000E+00 0. -1.
          5    1    1    2  501    0 -0.17411934049E+02  0.22601708332E+02 -0.79935807449E+01  0.30000000000E+02  0.47000000000E+01 0. -1.
         -5    1    1    2    0  501  0.17411934049E+02 -0.22601708332E+02  0.79935807449E+01  0.30000000000E+02  0.47000000000E+01 0.  1.
</event>
<event>
 4    1  0.7580225E-002  0.6000000E+02  0.7546771E-02  0.1259629E+00
         11   -1    0    0    0    0  0.00000000000E+00  0.00000000000E+00  0.30000000000E+02  0.30000000000E+02  0.00000000000E+00 0.  1.
        -11   -1    0    0    0    0 -0.00000000000E+00 -0.00000000000E+00 -0.30000000000E+02  0.30000000000E+02  0.00000000000E+00 0. -1.
          5    1    1    2  501    0  0.17303038041E+01  0.50064011633E+01 -0.29152221118E+02  0.30000000000E+02  0.47000000000E+01 0. -1.
         -5    1    1    2    0  501 -0.17303038041E+01 -0.50064011633E+01  0.29152221118E+02  0.30000000000E+02  0.47000000000E+01 0.  1.
</event>
<event>
 4    1  0.7580225E-002  0.6000000E+02  0.7546771E-02  0.1259629E+00
         11   -1    0    0    0    0  0.00000000000E+00  0.00000000000E+00  0.30000000000E+02  0.30000000000E+02  0.00000000000E+00 0.  1.
        -11   -1    0    0    0    0 -0.00000000000E+00 -0.00000000000E+00 -0.30000000000E+02  0.30000000000E+02  0.00000000000E+00 0. -1.
          5    1    1    2  501    0 -0.48636477570E+01 -0.28436336436E+02  0.67549759890E+01  0.30000000000E+02  0.47000000000E+01 0. -1.
         -5    1    1    2    0  501  0.48636477570E+01  0.28436336436E+02 -0.67549759890E+01  0.30000000000E+02  0.47000000000E+01 0.  1.
</event>
<event>
 4    1  0.7580225E-002  0.6000000E+02  0.7546771E-02  0.1259629E+00
         11   -1    0    0    0    0  0.00000000000E+00  0.00000000000E+00  0.30000000000E+02  0.30000000000E+02  0.00000000000E+00 0.  1.
        -11   -1    0    0    0    0 -0.00000000000E+00 -0.00000000000E+00 -0.30000000000E+02  0.30000000000E+02  0.00000000000E+00 0. -1.
          5    1    1    2  501    0 -0.19634685900E+02 -0.14037921760E+02 -0.17185047636E+02  0.30000000000E+02  0.47000000000E+01 0. -1.
         -5    1    1    2    0  501  0.19634685900E+02  0.14037921760E+02  0.17185047636E+02  0.30000000000E+02  0.47000000000E+01 0.  1.
</event>
<event>
 4    1  0.7580225E-002  0.6000000E+02  0.7546771E-02  0.1259629E+00
         11   -1    0    0    0    0  0.00000000000E+00  0.00000000000E+00  0.30000000000E+02  0.30000000000E+02  0.00000000000E+00 0.  1.
        -11   -1    0    0    0    0 -0.00000000000E+00 -0.00000000000E+00 -0.30000000000E+02  0.30000000000E+02  0.00000000000E+00 0. -1.
          5    1    1    2  501    0 -0.11657266159E+01  0.21936593106E+02 -0.19883082366E+02  0.30000000000E+02  0.47000000000E+01 0. -1.
         -5    1    1    2    0  501  0.11657266159E+01 -0.21936593106E+02  0.19883082366E+02  0.30000000000E+02  0.47000000000E+01 0.  1.
</event>
<event>
 4    1  0.7580225E-002  0.6000000E+02  0.7546771E-02  0.1259629E+00
         11   -1    0    0    0    0  0.00000000000E+00  0.00000000000E+00  0.30000000000E+02  0.30000000000E+02  0.00000000000E+00 0. -1.
        -11   -1    0    0    0    0 -0.00000000000E+00 -0.00000000000E+00 -0.30000000000E+02  0.30000000000E+02  0.00000000000E+00 0.  1.
          5    1    1    2  501    0  0.22113778221E+02 -0.16086228255E+02 -0.11407193928E+02  0.30000000000E+02  0.47000000000E+01 0. -1.
         -5    1    1    2    0  501 -0.22113778221E+02  0.16086228255E+02  0.11407193928E+02  0.30000000000E+02  0.47000000000E+01 0.  1.
</event>
<event>
 4    1  0.7580225E-002  0.6000000E+02  0.7546771E-02  0.1259629E+00
         11   -1    0    0    0    0  0.00000000000E+00  0.00000000000E+00  0.30000000000E+02  0.30000000000E+02  0.00000000000E+00 0.  1.
        -11   -1    0    0    0    0 -0.00000000000E+00 -0.00000000000E+00 -0.30000000000E+02  0.30000000000E+02  0.00000000000E+00 0. -1.
          5    1    1    2  501    0 -0.11777970010E+00 -0.29102915409E+02  0.55602556277E+01  0.30000000000E+02  0.47000000000E+01 0. -1.
         -5    1    1    2    0  501  0.11777970010E+00  0.29102915409E+02 -0.55602556277E+01  0.30000000000E+02  0.47000000000E+01 0.  1.
</event>
<event>
 4    1  0.7580225E-002  0.6000000E+02  0.7546771E-02  0.1259629E+00
         11   -1    0    0    0    0  0.00000000000E+00  0.00000000000E+00  0.30000000000E+02  0.30000000000E+02  0.00000000000E+00 0. -1.
        -11   -1    0    0    0    0 -0.00000000000E+00 -0.00000000000E+00 -0.30000000000E+02  0.30000000000E+02  0.00000000000E+00 0.  1.
          5    1    1    2  501    0 -0.40069723778E-01  0.28341478142E+02  0.86411232582E+01  0.30000000000E+02  0.47000000000E+01 0.  1.
         -5    1    1    2    0  501  0.40069723778E-01 -0.28341478142E+02 -0.86411232582E+01  0.30000000000E+02  0.47000000000E+01 0. -1.
</event>
<event>
 4    1  0.7580225E-002  0.6000000E+02  0.7546771E-02  0.1259629E+00
         11   -1    0    0    0    0  0.00000000000E+00  0.00000000000E+00  0.30000000000E+02  0.30000000000E+02  0.00000000000E+00 0.  1.
        -11   -1    0    0    0    0 -0.00000000000E+00 -0.00000000000E+00 -0.30000000000E+02  0.30000000000E+02  0.00000000000E+00 0. -1.
          5    1    1    2  501    0 -0.60254804361E+00 -0.28708872119E+02  0.73039439707E+01  0.30000000000E+02  0.47000000000E+01 0. -1.
         -5    1    1    2    0  501  0.60254804361E+00  0.28708872119E+02 -0.73039439707E+01  0.30000000000E+02  0.47000000000E+01 0.  1.
</event>
<event>
 4    1  0.7580225E-002  0.6000000E+02  0.7546771E-02  0.1259629E+00
         11   -1    0    0    0    0  0.00000000000E+00  0.00000000000E+00  0.30000000000E+02  0.30000000000E+02  0.00000000000E+00 0.  1.
        -11   -1    0    0    0    0 -0.00000000000E+00 -0.00000000000E+00 -0.30000000000E+02  0.30000000000E+02  0.00000000000E+00 0. -1.
          5    1    1    2  501    0  0.11194451701E+02 -0.27423540689E+02  0.73733792587E+00  0.30000000000E+02  0.47000000000E+01 0. -1.
         -5    1    1    2    0  501 -0.11194451701E+02  0.27423540689E+02 -0.73733792587E+00  0.30000000000E+02  0.47000000000E+01 0.  1.
</event>
<event>
 4    1  0.7580225E-002  0.6000000E+02  0.7546771E-02  0.1259629E+00
         11   -1    0    0    0    0  0.00000000000E+00  0.00000000000E+00  0.30000000000E+02  0.30000000000E+02  0.00000000000E+00 0. -1.
        -11   -1    0    0    0    0 -0.00000000000E+00 -0.00000000000E+00 -0.30000000000E+02  0.30000000000E+02  0.00000000000E+00 0.  1.
          5    1    1    2  501    0 -0.15022662703E+02 -0.71626238406E+01 -0.24513800705E+02  0.30000000000E+02  0.47000000000E+01 0.  1.
         -5    1    1    2    0  501  0.15022662703E+02  0.71626238406E+01  0.24513800705E+02  0.30000000000E+02  0.47000000000E+01 0. -1.
</event>
<event>
 4    1  0.7580225E-002  0.6000000E+02  0.7546771E-02  0.1259629E+00
         11   -1    0    0    0    0  0.00000000000E+00  0.00000000000E+00  0.30000000000E+02  0.30000000000E+02  0.00000000000E+00 0.  1.
        -11   -1    0    0    0    0 -0.00000000000E+00 -0.00000000000E+00 -0.30000000000E+02  0.30000000000E+02  0.00000000000E+00 0. -1.
          5    1    1    2  501    0  0.22537873046E+02  0.14066357684E+02 -0.13118378714E+02  0.30000000000E+02  0.47000000000E+01 0. -1.
         -5    1    1    2    0  501 -0.22537873046E+02 -0.14066357684E+02  0.13118378714E+02  0.30000000000E+02  0.47000000000E+01 0.  1.
</event>
<event>
 4    1  0.7580225E-002  0.6000000E+02  0.7546771E-02  0.1259629E+00
         11   -1    0    0    0    0  0.00000000000E+00  0.00000000000E+00  0.30000000000E+02  0.30000000000E+02  0.00000000000E+00 0.  1.
        -11   -1    0    0    0    0 -0.00000000000E+00 -0.00000000000E+00 -0.30000000000E+02  0.30000000000E+02  0.00000000000E+00 0. -1.
          5    1    1    2  501    0  0.16867907217E+02  0.21077740606E+02 -0.12211165261E+02  0.30000000000E+02  0.47000000000E+01 0. -1.
         -5    1    1    2    0  501 -0.16867907217E+02 -0.21077740606E+02  0.12211165261E+02  0.30000000000E+02  0.47000000000E+01 0.  1.
</event>
<event>
 4    1  0.7580225E-002  0.6000000E+02  0.7546771E-02  0.1259629E+00
         11   -1    0    0    0    0  0.00000000000E+00  0.00000000000E+00  0.30000000000E+02  0.30000000000E+02  0.00000000000E+00 0.  1.
        -11   -1    0    0    0    0 -0.00000000000E+00 -0.00000000000E+00 -0.30000000000E+02  0.30000000000E+02  0.00000000000E+00 0. -1.
          5    1    1    2  501    0  0.20238761169E+02  0.20629453171E+02  0.65366817429E+01  0.30000000000E+02  0.47000000000E+01 0. -1.
         -5    1    1    2    0  501 -0.20238761169E+02 -0.20629453171E+02 -0.65366817429E+01  0.30000000000E+02  0.47000000000E+01 0.  1.
</event>
<event>
 4    1  0.7580225E-002  0.6000000E+02  0.7546771E-02  0.1259629E+00
         11   -1    0    0    0    0  0.00000000000E+00  0.00000000000E+00  0.30000000000E+02  0.30000000000E+02  0.00000000000E+00 0.  1.
        -11   -1    0    0    0    0 -0.00000000000E+00 -0.00000000000E+00 -0.30000000000E+02  0.30000000000E+02  0.00000000000E+00 0. -1.
          5    1    1    2  501    0 -0.14422006256E+02  0.15667169815E+01 -0.25835269177E+02  0.30000000000E+02  0.47000000000E+01 0. -1.
         -5    1    1    2    0  501  0.14422006256E+02 -0.15667169815E+01  0.25835269177E+02  0.30000000000E+02  0.47000000000E+01 0. -1.
</event>
<event>
 4    1  0.7580225E-002  0.6000000E+02  0.7546771E-02  0.1259629E+00
         11   -1    0    0    0    0  0.00000000000E+00  0.00000000000E+00  0.30000000000E+02  0.30000000000E+02  0.00000000000E+00 0.  1.
        -11   -1    0    0    0    0 -0.00000000000E+00 -0.00000000000E+00 -0.30000000000E+02  0.30000000000E+02  0.00000000000E+00 0. -1.
          5    1    1    2  501    0  0.50959412951E+01  0.17123540137E+02 -0.23637380470E+02  0.30000000000E+02  0.47000000000E+01 0. -1.
         -5    1    1    2    0  501 -0.50959412951E+01 -0.17123540137E+02  0.23637380470E+02  0.30000000000E+02  0.47000000000E+01 0.  1.
</event>
<event>
 4    1  0.7580225E-002  0.6000000E+02  0.7546771E-02  0.1259629E+00
         11   -1    0    0    0    0  0.00000000000E+00  0.00000000000E+00  0.30000000000E+02  0.30000000000E+02  0.00000000000E+00 0. -1.
        -11   -1    0    0    0    0 -0.00000000000E+00 -0.00000000000E+00 -0.30000000000E+02  0.30000000000E+02  0.00000000000E+00 0.  1.
          5    1    1    2  501    0 -0.31040550221E+01  0.79147447900E+01 -0.28383651233E+02  0.30000000000E+02  0.47000000000E+01 0.  1.
         -5    1    1    2    0  501  0.31040550221E+01 -0.79147447900E+01  0.28383651233E+02  0.30000000000E+02  0.47000000000E+01 0. -1.
</event>
<event>
 4    1  0.7580225E-002  0.6000000E+02  0.7546771E-02  0.1259629E+00
         11   -1    0    0    0    0  0.00000000000E+00  0.00000000000E+00  0.30000000000E+02  0.30000000000E+02  0.00000000000E+00 0. -1.
        -11   -1    0    0    0    0 -0.00000000000E+00 -0.00000000000E+00 -0.30000000000E+02  0.30000000000E+02  0.00000000000E+00 0.  1.
          5    1    1    2  501    0  0.21482443508E+02 -0.12254688478E+02 -0.16316777600E+02  0.30000000000E+02  0.47000000000E+01 0.  1.
         -5    1    1    2    0  501 -0.21482443508E+02  0.12254688478E+02  0.16316777600E+02  0.30000000000E+02  0.47000000000E+01 0. -1.
</event>
<event>
 4    1  0.7580225E-002  0.6000000E+02  0.7546771E-02  0.1259629E+00
         11   -1    0    0    0    0  0.00000000000E+00  0.00000000000E+00  0.30000000000E+02  0.30000000000E+02  0.00000000000E+00 0.  1.
        -11   -1    0    0    0    0 -0.00000000000E+00 -0.00000000000E+00 -0.30000000000E+02  0.30000000000E+02  0.00000000000E+00 0. -1.
          5    1    1    2  501    0  0.23214776306E+02 -0.31857651022E+01 -0.18133809908E+02  0.30000000000E+02  0.47000000000E+01 0. -1.
         -5    1    1    2    0  501 -0.23214776306E+02  0.31857651022E+01  0.18133809908E+02  0.30000000000E+02  0.47000000000E+01 0.  1.
</event>
<event>
 4    1  0.7580225E-002  0.6000000E+02  0.7546771E-02  0.1259629E+00
         11   -1    0    0    0    0  0.00000000000E+00  0.00000000000E+00  0.30000000000E+02  0.30000000000E+02  0.00000000000E+00 0.  1.
        -11   -1    0    0    0    0 -0.00000000000E+00 -0.00000000000E+00 -0.30000000000E+02  0.30000000000E+02  0.00000000000E+00 0. -1.
          5    1    1    2  501    0  0.20163717415E+02 -0.19310903676E+02 -0.99208618184E+01  0.30000000000E+02  0.47000000000E+01 0. -1.
         -5    1    1    2    0  501 -0.20163717415E+02  0.19310903676E+02  0.99208618184E+01  0.30000000000E+02  0.47000000000E+01 0.  1.
</event>
<event>
 4    1  0.7580225E-002  0.6000000E+02  0.7546771E-02  0.1259629E+00
         11   -1    0    0    0    0  0.00000000000E+00  0.00000000000E+00  0.30000000000E+02  0.30000000000E+02  0.00000000000E+00 0. -1.
        -11   -1    0    0    0    0 -0.00000000000E+00 -0.00000000000E+00 -0.30000000000E+02  0.30000000000E+02  0.00000000000E+00 0.  1.
          5    1    1    2  501    0  0.62436256745E+01 -0.13552212594E+02 -0.25598138062E+02  0.30000000000E+02  0.47000000000E+01 0.  1.
         -5    1    1    2    0  501 -0.62436256745E+01  0.13552212594E+02  0.25598138062E+02  0.30000000000E+02  0.47000000000E+01 0. -1.
</event>
<event>
 4    1  0.7580225E-002  0.6000000E+02  0.7546771E-02  0.1259629E+00
         11   -1    0    0    0    0  0.00000000000E+00  0.00000000000E+00  0.30000000000E+02  0.30000000000E+02  0.00000000000E+00 0.  1.
        -11   -1    0    0    0    0 -0.00000000000E+00 -0.00000000000E+00 -0.30000000000E+02  0.30000000000E+02  0.00000000000E+00 0. -1.
          5    1    1    2  501    0  0.28288764133E+02  0.83505262045E+01 -0.28150552240E+01  0.30000000000E+02  0.47000000000E+01 0.  1.
         -5    1    1    2    0  501 -0.28288764133E+02 -0.83505262045E+01  0.28150552240E+01  0.30000000000E+02  0.47000000000E+01 0. -1.
</event>
<event>
 4    1  0.7580225E-002  0.6000000E+02  0.7546771E-02  0.1259629E+00
         11   -1    0    0    0    0  0.00000000000E+00  0.00000000000E+00  0.30000000000E+02  0.30000000000E+02  0.00000000000E+00 0.  1.
        -11   -1    0    0    0    0 -0.00000000000E+00 -0.00000000000E+00 -0.30000000000E+02  0.30000000000E+02  0.00000000000E+00 0. -1.
          5    1    1    2  501    0 -0.18537753413E+02  0.18487914737E+02 -0.13872948752E+02  0.30000000000E+02  0.47000000000E+01 0. -1.
         -5    1    1    2    0  501  0.18537753413E+02 -0.18487914737E+02  0.13872948752E+02  0.30000000000E+02  0.47000000000E+01 0.  1.
</event>
<event>
 4    1  0.7580225E-002  0.6000000E+02  0.7546771E-02  0.1259629E+00
         11   -1    0    0    0    0  0.00000000000E+00  0.00000000000E+00  0.30000000000E+02  0.30000000000E+02  0.00000000000E+00 0. -1.
        -11   -1    0    0    0    0 -0.00000000000E+00 -0.00000000000E+00 -0.30000000000E+02  0.30000000000E+02  0.00000000000E+00 0.  1.
          5    1    1    2  501    0 -0.26601560139E+02 -0.13038320208E+02  0.51884903203E+00  0.30000000000E+02  0.47000000000E+01 0.  1.
         -5    1    1    2    0  501  0.26601560139E+02  0.13038320208E+02 -0.51884903203E+00  0.30000000000E+02  0.47000000000E+01 0. -1.
</event>
<event>
 4    1  0.7580225E-002  0.6000000E+02  0.7546771E-02  0.1259629E+00
         11   -1    0    0    0    0  0.00000000000E+00  0.00000000000E+00  0.30000000000E+02  0.30000000000E+02  0.00000000000E+00 0.  1.
        -11   -1    0    0    0    0 -0.00000000000E+00 -0.00000000000E+00 -0.30000000000E+02  0.30000000000E+02  0.00000000000E+00 0. -1.
          5    1    1    2  501    0 -0.19525665360E+02  0.10161804038E+02 -0.19834216167E+02  0.30000000000E+02  0.47000000000E+01 0. -1.
         -5    1    1    2    0  501  0.19525665360E+02 -0.10161804038E+02  0.19834216167E+02  0.30000000000E+02  0.47000000000E+01 0.  1.
</event>
<event>
 4    1  0.7580225E-002  0.6000000E+02  0.7546771E-02  0.1259629E+00
         11   -1    0    0    0    0  0.00000000000E+00  0.00000000000E+00  0.30000000000E+02  0.30000000000E+02  0.00000000000E+00 0. -1.
        -11   -1    0    0    0    0 -0.00000000000E+00 -0.00000000000E+00 -0.30000000000E+02  0.30000000000E+02  0.00000000000E+00 0.  1.
          5    1    1    2  501    0 -0.24728921614E+02 -0.13168191840E+02 -0.96430886904E+01  0.30000000000E+02  0.47000000000E+01 0.  1.
         -5    1    1    2    0  501  0.24728921614E+02  0.13168191840E+02  0.96430886904E+01  0.30000000000E+02  0.47000000000E+01 0. -1.
</event>
<event>
 4    1  0.7580225E-002  0.6000000E+02  0.7546771E-02  0.1259629E+00
         11   -1    0    0    0    0  0.00000000000E+00  0.00000000000E+00  0.30000000000E+02  0.30000000000E+02  0.00000000000E+00 0.  1.
        -11   -1    0    0    0    0 -0.00000000000E+00 -0.00000000000E+00 -0.30000000000E+02  0.30000000000E+02  0.00000000000E+00 0. -1.
          5    1    1    2  501    0  0.62275118180E+01  0.39424550632E+01 -0.28698173193E+02  0.30000000000E+02  0.47000000000E+01 0. -1.
         -5    1    1    2    0  501 -0.62275118180E+01 -0.39424550632E+01  0.28698173193E+02  0.30000000000E+02  0.47000000000E+01 0.  1.
</event>
<event>
 4    1  0.7580225E-002  0.6000000E+02  0.7546771E-02  0.1259629E+00
         11   -1    0    0    0    0  0.00000000000E+00  0.00000000000E+00  0.30000000000E+02  0.30000000000E+02  0.00000000000E+00 0. -1.
        -11   -1    0    0    0    0 -0.00000000000E+00 -0.00000000000E+00 -0.30000000000E+02  0.30000000000E+02  0.00000000000E+00 0.  1.
          5    1    1    2  501    0 -0.62567124286E+01  0.24740352526E+01 -0.28855548845E+02  0.30000000000E+02  0.47000000000E+01 0.  1.
         -5    1    1    2    0  501  0.62567124286E+01 -0.24740352526E+01  0.28855548845E+02  0.30000000000E+02  0.47000000000E+01 0. -1.
</event>
<event>
 4    1  0.7580225E-002  0.6000000E+02  0.7546771E-02  0.1259629E+00
         11   -1    0    0    0    0  0.00000000000E+00  0.00000000000E+00  0.30000000000E+02  0.30000000000E+02  0.00000000000E+00 0.  1.
        -11   -1    0    0    0    0 -0.00000000000E+00 -0.00000000000E+00 -0.30000000000E+02  0.30000000000E+02  0.00000000000E+00 0. -1.
          5    1    1    2  501    0  0.40203888148E+01  0.29026009356E+02 -0.43860294872E+01  0.30000000000E+02  0.47000000000E+01 0.  1.
         -5    1    1    2    0  501 -0.40203888148E+01 -0.29026009356E+02  0.43860294872E+01  0.30000000000E+02  0.47000000000E+01 0. -1.
</event>
<event>
 4    1  0.7580225E-002  0.6000000E+02  0.7546771E-02  0.1259629E+00
         11   -1    0    0    0    0  0.00000000000E+00  0.00000000000E+00  0.30000000000E+02  0.30000000000E+02  0.00000000000E+00 0.  1.
        -11   -1    0    0    0    0 -0.00000000000E+00 -0.00000000000E+00 -0.30000000000E+02  0.30000000000E+02  0.00000000000E+00 0. -1.
          5    1    1    2  501    0  0.58022885670E+01  0.25079765554E+02 -0.14671360098E+02  0.30000000000E+02  0.47000000000E+01 0. -1.
         -5    1    1    2    0  501 -0.58022885670E+01 -0.25079765554E+02  0.14671360098E+02  0.30000000000E+02  0.47000000000E+01 0.  1.
</event>
<event>
 4    1  0.7580225E-002  0.6000000E+02  0.7546771E-02  0.1259629E+00
         11   -1    0    0    0    0  0.00000000000E+00  0.00000000000E+00  0.30000000000E+02  0.30000000000E+02  0.00000000000E+00 0.  1.
        -11   -1    0    0    0    0 -0.00000000000E+00 -0.00000000000E+00 -0.30000000000E+02  0.30000000000E+02  0.00000000000E+00 0. -1.
          5    1    1    2  501    0  0.16814027651E+02  0.22469195319E+02 -0.95044061284E+01  0.30000000000E+02  0.47000000000E+01 0. -1.
         -5    1    1    2    0  501 -0.16814027651E+02 -0.22469195319E+02  0.95044061284E+01  0.30000000000E+02  0.47000000000E+01 0.  1.
</event>
