<event>
 5    1  0.7693226E-002  0.6000000E+02  0.7546771E-02  0.1259629E+00
         11   -1    0    0    0    0  0.00000000000E+00  0.00000000000E+00  0.30000000000E+02  0.30000000000E+02  0.00000000000E+00 0.  1.
        -11   -1    0    0    0    0 -0.00000000000E+00 -0.00000000000E+00 -0.30000000000E+02  0.30000000000E+02  0.00000000000E+00 0. -1.
         23    2    1    2    0    0  0.00000000000E+00  0.00000000000E+00  0.00000000000E+00  0.60000000000E+02  0.60000000000E+02 0.  0.
          5    1    3    3  501    0 -0.57096935133E+01 -0.74217711640E+01  0.28110971395E+02  0.30000000000E+02  0.47000000000E+01 0.  1.
         -5    1    3    3    0  501  0.57096935133E+01  0.74217711640E+01 -0.28110971395E+02  0.30000000000E+02  0.47000000000E+01 0. -1.
</event>
<event>
 5    1  0.7693226E-002  0.6000000E+02  0.7546771E-02  0.1259629E+00
         11   -1    0    0    0    0  0.00000000000E+00  0.00000000000E+00  0.30000000000E+02  0.30000000000E+02  0.00000000000E+00 0.  1.
        -11   -1    0    0    0    0 -0.00000000000E+00 -0.00000000000E+00 -0.30000000000E+02  0.30000000000E+02  0.00000000000E+00 0. -1.
         23    2    1    2    0    0  0.00000000000E+00  0.00000000000E+00  0.00000000000E+00  0.60000000000E+02  0.60000000000E+02 0.  0.
          5    1    3    3  501    0 -0.81639962552E+01 -0.19594508246E+02 -0.20671584645E+02  0.30000000000E+02  0.47000000000E+01 0. -1.
         -5    1    3    3    0  501  0.81639962552E+01  0.19594508246E+02  0.20671584645E+02  0.30000000000E+02  0.47000000000E+01 0.  1.
</event>
<event>
 5    1  0.7693226E-002  0.6000000E+02  0.7546771E-02  0.1259629E+00
         11   -1    0    0    0    0  0.00000000000E+00  0.00000000000E+00  0.30000000000E+02  0.30000000000E+02  0.00000000000E+00 0.  1.
        -11   -1    0    0    0    0 -0.00000000000E+00 -0.00000000000E+00 -0.30000000000E+02  0.30000000000E+02  0.00000000000E+00 0. -1.
         23    2    1    2    0    0  0.00000000000E+00  0.00000000000E+00  0.00000000000E+00  0.60000000000E+02  0.60000000000E+02 0.  0.
          5    1    3    3  501    0  0.28512115771E+02 -0.42010260683E+01 -0.68789995071E+01  0.30000000000E+02  0.47000000000E+01 0. -1.
         -5    1    3    3    0  501 -0.28512115771E+02  0.42010260683E+01  0.68789995071E+01  0.30000000000E+02  0.47000000000E+01 0.  1.
</event>
<event>
 5    1  0.7693226E-002  0.6000000E+02  0.7546771E-02  0.1259629E+00
         11   -1    0    0    0    0  0.00000000000E+00  0.00000000000E+00  0.30000000000E+02  0.30000000000E+02  0.00000000000E+00 0. -1.
        -11   -1    0    0    0    0 -0.00000000000E+00 -0.00000000000E+00 -0.30000000000E+02  0.30000000000E+02  0.00000000000E+00 0.  1.
         23    2    1    2    0    0  0.00000000000E+00  0.00000000000E+00  0.00000000000E+00  0.60000000000E+02  0.60000000000E+02 0.  0.
          5    1    3    3  501    0  0.57183346666E+01 -0.14842905890E+02 -0.24997975785E+02  0.30000000000E+02  0.47000000000E+01 0.  1.
         -5    1    3    3    0  501 -0.57183346666E+01  0.14842905890E+02  0.24997975785E+02  0.30000000000E+02  0.47000000000E+01 0. -1.
</event>
<event>
 5    1  0.7693226E-002  0.6000000E+02  0.7546771E-02  0.1259629E+00
         11   -1    0    0    0    0  0.00000000000E+00  0.00000000000E+00  0.30000000000E+02  0.30000000000E+02  0.00000000000E+00 0.  1.
        -11   -1    0    0    0    0 -0.00000000000E+00 -0.00000000000E+00 -0.30000000000E+02  0.30000000000E+02  0.00000000000E+00 0. -1.
         23    2    1    2    0    0  0.00000000000E+00  0.00000000000E+00  0.00000000000E+00  0.60000000000E+02  0.60000000000E+02 0.  0.
          5    1    3    3  501    0  0.18624234166E+02  0.21126380700E+02 -0.92045608401E+01  0.30000000000E+02  0.47000000000E+01 0.  1.
         -5    1    3    3    0  501 -0.18624234166E+02 -0.21126380700E+02  0.92045608401E+01  0.30000000000E+02  0.47000000000E+01 0. -1.
</event>
<event>
 5    1  0.7693226E-002  0.6000000E+02  0.7546771E-02  0.1259629E+00
         11   -1    0    0    0    0  0.00000000000E+00  0.00000000000E+00  0.30000000000E+02  0.30000000000E+02  0.00000000000E+00 0. -1.
        -11   -1    0    0    0    0 -0.00000000000E+00 -0.00000000000E+00 -0.30000000000E+02  0.30000000000E+02  0.00000000000E+00 0.  1.
         23    2    1    2    0    0  0.00000000000E+00  0.00000000000E+00  0.00000000000E+00  0.60000000000E+02  0.60000000000E+02 0.  0.
          5    1    3    3  501    0 -0.23805780328E+02  0.17029183971E+02  0.46045321414E+01  0.30000000000E+02  0.47000000000E+01 0.  1.
         -5    1    3    3    0  501  0.23805780328E+02 -0.17029183971E+02 -0.46045321414E+01  0.30000000000E+02  0.47000000000E+01 0. -1.
</event>
<event>
 5    1  0.7693226E-002  0.6000000E+02  0.7546771E-02  0.1259629E+00
         11   -1    0    0    0    0  0.00000000000E+00  0.00000000000E+00  0.30000000000E+02  0.30000000000E+02  0.00000000000E+00 0.  1.
        -11   -1    0    0    0    0 -0.00000000000E+00 -0.00000000000E+00 -0.30000000000E+02  0.30000000000E+02  0.00000000000E+00 0. -1.
         23    2    1    2    0    0  0.00000000000E+00  0.00000000000E+00  0.00000000000E+00  0.60000000000E+02  0.60000000000E+02 0.  0.
          5    1    3    3  501    0  0.82045066718E+01  0.47039257974E+01 -0.28079692882E+02  0.30000000000E+02  0.47000000000E+01 0. -1.
         -5    1    3    3    0  501 -0.82045066718E+01 -0.47039257974E+01  0.28079692882E+02  0.30000000000E+02  0.47000000000E+01 0.  1.
</event>
<event>
 5    1  0.7693226E-002  0.6000000E+02  0.7546771E-02  0.1259629E+00
         11   -1    0    0    0    0  0.00000000000E+00  0.00000000000E+00  0.30000000000E+02  0.30000000000E+02  0.00000000000E+00 0.  1.
        -11   -1    0    0    0    0 -0.00000000000E+00 -0.00000000000E+00 -0.30000000000E+02  0.30000000000E+02  0.00000000000E+00 0. -1.
         23    2    1    2    0    0  0.00000000000E+00  0.00000000000E+00  0.00000000000E+00  0.60000000000E+02  0.60000000000E+02 0.  0.
          5    1    3    3  501    0  0.46962924799E+01  0.29090871567E+02  0.30945158658E+01  0.30000000000E+02  0.47000000000E+01 0.  1.
         -5    1    3    3    0  501 -0.46962924799E+01 -0.29090871567E+02 -0.30945158658E+01  0.30000000000E+02  0.47000000000E+01 0. -1.
</event>
<event>
 5    1  0.7693226E-002  0.6000000E+02  0.7546771E-02  0.1259629E+00
         11   -1    0    0    0    0  0.00000000000E+00  0.00000000000E+00  0.30000000000E+02  0.30000000000E+02  0.00000000000E+00 0.  1.
        -11   -1    0    0    0    0 -0.00000000000E+00 -0.00000000000E+00 -0.30000000000E+02  0.30000000000E+02  0.00000000000E+00 0. -1.
         23    2    1    2    0    0  0.00000000000E+00  0.00000000000E+00  0.00000000000E+00  0.60000000000E+02  0.60000000000E+02 0.  0.
          5    1    3    3  501    0  0.18430513141E+02  0.15755132539E+02 -0.17029444620E+02  0.30000000000E+02  0.47000000000E+01 0. -1.
         -5    1    3    3    0  501 -0.18430513141E+02 -0.15755132539E+02  0.17029444620E+02  0.30000000000E+02  0.47000000000E+01 0.  1.
</event>
<event>
 5    1  0.7693226E-002  0.6000000E+02  0.7546771E-02  0.1259629E+00
         11   -1    0    0    0    0  0.00000000000E+00  0.00000000000E+00  0.30000000000E+02  0.30000000000E+02  0.00000000000E+00 0. -1.
        -11   -1    0    0    0    0 -0.00000000000E+00 -0.00000000000E+00 -0.30000000000E+02  0.30000000000E+02  0.00000000000E+00 0.  1.
         23    2    1    2    0    0  0.00000000000E+00  0.00000000000E+00  0.00000000000E+00  0.60000000000E+02  0.60000000000E+02 0.  0.
          5    1    3    3  501    0  0.24561272473E+01  0.10515255872E+02 -0.27591789230E+02  0.30000000000E+02  0.47000000000E+01 0.  1.
         -5    1    3    3    0  501 -0.24561272473E+01 -0.10515255872E+02  0.27591789230E+02  0.30000000000E+02  0.47000000000E+01 0. -1.
</event>
<event>
 5    1  0.7693226E-002  0.6000000E+02  0.7546771E-02  0.1259629E+00
         11   -1    0    0    0    0  0.00000000000E+00  0.00000000000E+00  0.30000000000E+02  0.30000000000E+02  0.00000000000E+00 0.  1.
        -11   -1    0    0    0    0 -0.00000000000E+00 -0.00000000000E+00 -0.30000000000E+02  0.30000000000E+02  0.00000000000E+00 0. -1.
         23    2    1    2    0    0  0.00000000000E+00  0.00000000000E+00  0.00000000000E+00  0.60000000000E+02  0.60000000000E+02 0.  0.
          5    1    3    3  501    0  0.23940335441E+02  0.14076683085E+01 -0.17400827823E+02  0.30000000000E+02  0.47000000000E+01 0. -1.
         -5    1    3    3    0  501 -0.23940335441E+02 -0.14076683085E+01  0.17400827823E+02  0.30000000000E+02  0.47000000000E+01 0.  1.
</event>
<event>
 5    1  0.7693226E-002  0.6000000E+02  0.7546771E-02  0.1259629E+00
         11   -1    0    0    0    0  0.00000000000E+00  0.00000000000E+00  0.30000000000E+02  0.30000000000E+02  0.00000000000E+00 0.  1.
        -11   -1    0    0    0    0 -0.00000000000E+00 -0.00000000000E+00 -0.30000000000E+02  0.30000000000E+02  0.00000000000E+00 0. -1.
         23    2    1    2    0    0  0.00000000000E+00  0.00000000000E+00  0.00000000000E+00  0.60000000000E+02  0.60000000000E+02 0.  0.
          5    1    3    3  501    0 -0.31315820553E+01  0.22218602963E+02 -0.19350371475E+02  0.30000000000E+02  0.47000000000E+01 0. -1.
         -5    1    3    3    0  501  0.31315820553E+01 -0.22218602963E+02  0.19350371475E+02  0.30000000000E+02  0.47000000000E+01 0.  1.
</event>
<event>
 5    1  0.7693226E-002  0.6000000E+02  0.7546771E-02  0.1259629E+00
         11   -1    0    0    0    0  0.00000000000E+00  0.00000000000E+00  0.30000000000E+02  0.30000000000E+02  0.00000000000E+00 0.  1.
        -11   -1    0    0    0    0 -0.00000000000E+00 -0.00000000000E+00 -0.30000000000E+02  0.30000000000E+02  0.00000000000E+00 0. -1.
         23    2    1    2    0    0  0.00000000000E+00  0.00000000000E+00  0.00000000000E+00  0.60000000000E+02  0.60000000000E+02 0.  0.
          5    1    3    3  501    0 -0.18394158756E+02  0.18466416023E+02 -0.14091004325E+02  0.30000000000E+02  0.47000000000E+01 0. -1.
         -5    1    3    3    0  501  0.18394158756E+02 -0.18466416023E+02  0.14091004325E+02  0.30000000000E+02  0.47000000000E+01 0.  1.
</event>
<event>
 5    1  0.7693226E-002  0.6000000E+02  0.7546771E-02  0.1259629E+00
         11   -1    0    0    0    0  0.00000000000E+00  0.00000000000E+00  0.30000000000E+02  0.30000000000E+02  0.00000000000E+00 0. -1.
        -11   -1    0    0    0    0 -0.00000000000E+00 -0.00000000000E+00 -0.30000000000E+02  0.30000000000E+02  0.00000000000E+00 0.  1.
         23    2    1    2    0    0  0.00000000000E+00  0.00000000000E+00  0.00000000000E+00  0.60000000000E+02  0.60000000000E+02 0.  0.
          5    1    3    3  501    0 -0.22146146066E+02 -0.16530816767E+02 -0.10685986686E+02  0.30000000000E+02  0.47000000000E+01 0.  1.
         -5    1    3    3    0  501  0.22146146066E+02  0.16530816767E+02  0.10685986686E+02  0.30000000000E+02  0.47000000000E+01 0. -1.
</event>
<event>
 5    1  0.7693226E-002  0.6000000E+02  0.7546771E-02  0.1259629E+00
         11   -1    0    0    0    0  0.00000000000E+00  0.00000000000E+00  0.30000000000E+02  0.30000000000E+02  0.00000000000E+00 0.  1.
        -11   -1    0    0    0    0 -0.00000000000E+00 -0.00000000000E+00 -0.30000000000E+02  0.30000000000E+02  0.00000000000E+00 0. -1.
         23    2    1    2    0    0  0.00000000000E+00  0.00000000000E+00  0.00000000000E+00  0.60000000000E+02  0.60000000000E+02 0.  0.
          5    1    3    3  501    0 -0.29533007520E+02 -0.30445576178E+00 -0.23703952207E+01  0.30000000000E+02  0.47000000000E+01 0. -1.
         -5    1    3    3    0  501  0.29533007520E+02  0.30445576178E+00  0.23703952207E+01  0.30000000000E+02  0.47000000000E+01 0.  1.
</event>
<event>
 5    1  0.7693226E-002  0.6000000E+02  0.7546771E-02  0.1259629E+00
         11   -1    0    0    0    0  0.00000000000E+00  0.00000000000E+00  0.30000000000E+02  0.30000000000E+02  0.00000000000E+00 0.  1.
        -11   -1    0    0    0    0 -0.00000000000E+00 -0.00000000000E+00 -0.30000000000E+02  0.30000000000E+02  0.00000000000E+00 0. -1.
         23    2    1    2    0    0  0.00000000000E+00  0.00000000000E+00  0.00000000000E+00  0.60000000000E+02  0.60000000000E+02 0.  0.
          5    1    3    3  501    0 -0.21574069457E+02  0.12598000465E+02 -0.15929843419E+02  0.30000000000E+02  0.47000000000E+01 0. -1.
         -5    1    3    3    0  501  0.21574069457E+02 -0.12598000465E+02  0.15929843419E+02  0.30000000000E+02  0.47000000000E+01 0.  1.
</event>
<event>
 5    1  0.7693226E-002  0.6000000E+02  0.7546771E-02  0.1259629E+00
         11   -1    0    0    0    0  0.00000000000E+00  0.00000000000E+00  0.30000000000E+02  0.30000000000E+02  0.00000000000E+00 0.  1.
        -11   -1    0    0    0    0 -0.00000000000E+00 -0.00000000000E+00 -0.30000000000E+02  0.30000000000E+02  0.00000000000E+00 0. -1.
         23    2    1    2    0    0  0.00000000000E+00  0.00000000000E+00  0.00000000000E+00  0.60000000000E+02  0.60000000000E+02 0.  0.
          5    1    3    3  501    0 -0.27963064197E+01  0.25278306755E+01 -0.29388785999E+02  0.30000000000E+02  0.47000000000E+01 0. -1.
         -5    1    3    3    0  501  0.27963064197E+01 -0.25278306755E+01  0.29388785999E+02  0.30000000000E+02  0.47000000000E+01 0.  1.
</event>
<event>
 5    1  0.7693226E-002  0.6000000E+02  0.7546771E-02  0.1259629E+00
         11   -1    0    0    0    0  0.00000000000E+00  0.00000000000E+00  0.30000000000E+02  0.30000000000E+02  0.00000000000E+00 0.  1.
        -11   -1    0    0    0    0 -0.00000000000E+00 -0.00000000000E+00 -0.30000000000E+02  0.30000000000E+02  0.00000000000E+00 0. -1.
         23    2    1    2    0    0  0.00000000000E+00  0.00000000000E+00  0.00000000000E+00  0.60000000000E+02  0.60000000000E+02 0.  0.
          5    1    3    3  501    0 -0.73845233961E+01 -0.36357766958E+01 -0.28463308698E+02  0.30000000000E+02  0.47000000000E+01 0. -1.
         -5    1    3    3    0  501  0.73845233961E+01  0.36357766958E+01  0.28463308698E+02  0.30000000000E+02  0.47000000000E+01 0.  1.
</event>
<event>
 5    1  0.7693226E-002  0.6000000E+02  0.7546771E-02  0.1259629E+00
         11   -1    0    0    0    0  0.00000000000E+00  0.00000000000E+00  0.30000000000E+02  0.30000000000E+02  0.00000000000E+00 0. -1.
        -11   -1    0    0    0    0 -0.00000000000E+00 -0.00000000000E+00 -0.30000000000E+02  0.30000000000E+02  0.00000000000E+00 0.  1.
         23    2    1    2    0    0  0.00000000000E+00  0.00000000000E+00  0.00000000000E+00  0.60000000000E+02  0.60000000000E+02 0.  0.
          5    1    3    3  501    0  0.26930054016E+02  0.12312584389E+02 -0.10404116468E+01  0.30000000000E+02  0.47000000000E+01 0.  1.
         -5    1    3    3    0  501 -0.26930054016E+02 -0.12312584389E+02  0.10404116468E+01  0.30000000000E+02  0.47000000000E+01 0. -1.
</event>
<event>
 5    1  0.7693226E-002  0.6000000E+02  0.7546771E-02  0.1259629E+00
         11   -1    0    0    0    0  0.00000000000E+00  0.00000000000E+00  0.30000000000E+02  0.30000000000E+02  0.00000000000E+00 0.  1.
        -11   -1    0    0    0    0 -0.00000000000E+00 -0.00000000000E+00 -0.30000000000E+02  0.30000000000E+02  0.00000000000E+00 0. -1.
         23    2    1    2    0    0  0.00000000000E+00  0.00000000000E+00  0.00000000000E+00  0.60000000000E+02  0.60000000000E+02 0.  0.
          5    1    3    3  501    0  0.87304703929E+00 -0.65801987952E+01 -0.28876439751E+02  0.30000000000E+02  0.47000000000E+01 0. -1.
         -5    1    3    3    0  501 -0.87304703929E+00  0.65801987952E+01  0.28876439751E+02  0.30000000000E+02  0.47000000000E+01 0.  1.
</event>
<event>
 5    1  0.7693226E-002  0.6000000E+02  0.7546771E-02  0.1259629E+00
         11   -1    0    0    0    0  0.00000000000E+00  0.00000000000E+00  0.30000000000E+02  0.30000000000E+02  0.00000000000E+00 0.  1.
        -11   -1    0    0    0    0 -0.00000000000E+00 -0.00000000000E+00 -0.30000000000E+02  0.30000000000E+02  0.00000000000E+00 0. -1.
         23    2    1    2    0    0  0.00000000000E+00  0.00000000000E+00  0.00000000000E+00  0.60000000000E+02  0.60000000000E+02 0.  0.
          5    1    3    3  501    0 -0.20534358071E+02 -0.19441783884E+02 -0.88468739118E+01  0.30000000000E+02  0.47000000000E+01 0. -1.
         -5    1    3    3    0  501  0.20534358071E+02  0.19441783884E+02  0.88468739118E+01  0.30000000000E+02  0.47000000000E+01 0.  1.
</event>
<event>
 5    1  0.7693226E-002  0.6000000E+02  0.7546771E-02  0.1259629E+00
         11   -1    0    0    0    0  0.00000000000E+00  0.00000000000E+00  0.30000000000E+02  0.30000000000E+02  0.00000000000E+00 0.  1.
        -11   -1    0    0    0    0 -0.00000000000E+00 -0.00000000000E+00 -0.30000000000E+02  0.30000000000E+02  0.00000000000E+00 0. -1.
         23    2    1    2    0    0  0.00000000000E+00  0.00000000000E+00  0.00000000000E+00  0.60000000000E+02  0.60000000000E+02 0.  0.
          5    1    3    3  501    0  0.60089016423E+01 -0.25263456302E+02 -0.14267476186E+02  0.30000000000E+02  0.47000000000E+01 0. -1.
         -5    1    3    3    0  501 -0.60089016423E+01  0.25263456302E+02  0.14267476186E+02  0.30000000000E+02  0.47000000000E+01 0.  1.
</event>
<event>
 5    1  0.7693226E-002  0.6000000E+02  0.7546771E-02  0.1259629E+00
         11   -1    0    0    0    0  0.00000000000E+00  0.00000000000E+00  0.30000000000E+02  0.30000000000E+02  0.00000000000E+00 0.  1.
        -11   -1    0    0    0    0 -0.00000000000E+00 -0.00000000000E+00 -0.30000000000E+02  0.30000000000E+02  0.00000000000E+00 0. -1.
         23    2    1    2    0    0  0.00000000000E+00  0.00000000000E+00  0.00000000000E+00  0.60000000000E+02  0.60000000000E+02 0.  0.
          5    1    3    3  501    0  0.67352706265E+01 -0.28050050329E+02  0.67631949634E+01  0.30000000000E+02  0.47000000000E+01 0.  1.
         -5    1    3    3    0  501 -0.67352706265E+01  0.28050050329E+02 -0.67631949634E+01  0.30000000000E+02  0.47000000000E+01 0. -1.
</event>
<event>
 5    1  0.7693226E-002  0.6000000E+02  0.7546771E-02  0.1259629E+00
         11   -1    0    0    0    0  0.00000000000E+00  0.00000000000E+00  0.30000000000E+02  0.30000000000E+02  0.00000000000E+00 0. -1.
        -11   -1    0    0    0    0 -0.00000000000E+00 -0.00000000000E+00 -0.30000000000E+02  0.30000000000E+02  0.00000000000E+00 0.  1.
         23    2    1    2    0    0  0.00000000000E+00  0.00000000000E+00  0.00000000000E+00  0.60000000000E+02  0.60000000000E+02 0.  0.
          5    1    3    3  501    0 -0.97242384460E+01  0.25622237453E+02 -0.11262776502E+02  0.30000000000E+02  0.47000000000E+01 0.  1.
         -5    1    3    3    0  501  0.97242384460E+01 -0.25622237453E+02  0.11262776502E+02  0.30000000000E+02  0.47000000000E+01 0. -1.
</event>
<event>
 5    1  0.7693226E-002  0.6000000E+02  0.7546771E-02  0.1259629E+00
         11   -1    0    0    0    0  0.00000000000E+00  0.00000000000E+00  0.30000000000E+02  0.30000000000E+02  0.00000000000E+00 0.  1.
        -11   -1    0    0    0    0 -0.00000000000E+00 -0.00000000000E+00 -0.30000000000E+02  0.30000000000E+02  0.00000000000E+00 0. -1.
         23    2    1    2    0    0  0.00000000000E+00  0.00000000000E+00  0.00000000000E+00  0.60000000000E+02  0.60000000000E+02 0.  0.
          5    1    3    3  501    0 -0.20410644440E+02 -0.15624442258E+00 -0.21477690314E+02  0.30000000000E+02  0.47000000000E+01 0. -1.
         -5    1    3    3    0  501  0.20410644440E+02  0.15624442258E+00  0.21477690314E+02  0.30000000000E+02  0.47000000000E+01 0.  1.
</event>
<event>
 5    1  0.7693226E-002  0.6000000E+02  0.7546771E-02  0.1259629E+00
         11   -1    0    0    0    0  0.00000000000E+00  0.00000000000E+00  0.30000000000E+02  0.30000000000E+02  0.00000000000E+00 0.  1.
        -11   -1    0    0    0    0 -0.00000000000E+00 -0.00000000000E+00 -0.30000000000E+02  0.30000000000E+02  0.00000000000E+00 0. -1.
         23    2    1    2    0    0  0.00000000000E+00  0.00000000000E+00  0.00000000000E+00  0.60000000000E+02  0.60000000000E+02 0.  0.
          5    1    3    3  501    0  0.18925111221E+02 -0.21729797627E+02 -0.68968152338E+01  0.30000000000E+02  0.47000000000E+01 0. -1.
         -5    1    3    3    0  501 -0.18925111221E+02  0.21729797627E+02  0.68968152338E+01  0.30000000000E+02  0.47000000000E+01 0.  1.
</event>
<event>
 5    1  0.7693226E-002  0.6000000E+02  0.7546771E-02  0.1259629E+00
         11   -1    0    0    0    0  0.00000000000E+00  0.00000000000E+00  0.30000000000E+02  0.30000000000E+02  0.00000000000E+00 0.  1.
        -11   -1    0    0    0    0 -0.00000000000E+00 -0.00000000000E+00 -0.30000000000E+02  0.30000000000E+02  0.00000000000E+00 0. -1.
         23    2    1    2    0    0  0.00000000000E+00  0.00000000000E+00  0.00000000000E+00  0.60000000000E+02  0.60000000000E+02 0.  0.
          5    1    3    3  501    0  0.76683039063E+01  0.18780350364E+02 -0.21596424597E+02  0.30000000000E+02  0.47000000000E+01 0. -1.
         -5    1    3    3    0  501 -0.76683039063E+01 -0.18780350364E+02  0.21596424597E+02  0.30000000000E+02  0.47000000000E+01 0.  1.
</event>
<event>
 5    1  0.7693226E-002  0.6000000E+02  0.7546771E-02  0.1259629E+00
         11   -1    0    0    0    0  0.00000000000E+00  0.00000000000E+00  0.30000000000E+02  0.30000000000E+02  0.00000000000E+00 0.  1.
        -11   -1    0    0    0    0 -0.00000000000E+00 -0.00000000000E+00 -0.30000000000E+02  0.30000000000E+02  0.00000000000E+00 0. -1.
         23    2    1    2    0    0  0.00000000000E+00  0.00000000000E+00  0.00000000000E+00  0.60000000000E+02  0.60000000000E+02 0.  0.
          5    1    3    3  501    0 -0.11672236219E+02 -0.27702284639E+01 -0.27092337218E+02  0.30000000000E+02  0.47000000000E+01 0. -1.
         -5    1    3    3    0  501  0.11672236219E+02  0.27702284639E+01  0.27092337218E+02  0.30000000000E+02  0.47000000000E+01 0.  1.
</event>
<event>
 5    1  0.7693226E-002  0.6000000E+02  0.7546771E-02  0.1259629E+00
         11   -1    0    0    0    0  0.00000000000E+00  0.00000000000E+00  0.30000000000E+02  0.30000000000E+02  0.00000000000E+00 0.  1.
        -11   -1    0    0    0    0 -0.00000000000E+00 -0.00000000000E+00 -0.30000000000E+02  0.30000000000E+02  0.00000000000E+00 0. -1.
         23    2    1    2    0    0  0.00000000000E+00  0.00000000000E+00  0.00000000000E+00  0.60000000000E+02  0.60000000000E+02 0.  0.
          5    1    3    3  501    0 -0.48926595826E+01  0.23658395172E+02 -0.17153781510E+02  0.30000000000E+02  0.47000000000E+01 0. -1.
         -5    1    3    3    0  501  0.48926595826E+01 -0.23658395172E+02  0.17153781510E+02  0.30000000000E+02  0.47000000000E+01 0.  1.
</event>
<event>
 5    1  0.7693226E-002  0.6000000E+02  0.7546771E-02  0.1259629E+00
         11   -1    0    0    0    0  0.00000000000E+00  0.00000000000E+00  0.30000000000E+02  0.30000000000E+02  0.00000000000E+00 0.  1.
        -11   -1    0    0    0    0 -0.00000000000E+00 -0.00000000000E+00 -0.30000000000E+02  0.30000000000E+02  0.00000000000E+00 0. -1.
         23    2    1    2    0    0  0.00000000000E+00  0.00000000000E+00  0.00000000000E+00  0.60000000000E+02  0.60000000000E+02 0.  0.
          5    1    3    3  501    0  0.26122191181E+02 -0.48549165212E+01 -0.13113768089E+02  0.30000000000E+02  0.47000000000E+01 0. -1.
         -5    1    3    3    0  501 -0.26122191181E+02  0.48549165212E+01  0.13113768089E+02  0.30000000000E+02  0.47000000000E+01 0.  1.
</event>
<event>
 5    1  0.7693226E-002  0.6000000E+02  0.7546771E-02  0.1259629E+00
         11   -1    0    0    0    0  0.00000000000E+00  0.00000000000E+00  0.30000000000E+02  0.30000000000E+02  0.00000000000E+00 0. -1.
        -11   -1    0    0    0    0 -0.00000000000E+00 -0.00000000000E+00 -0.30000000000E+02  0.30000000000E+02  0.00000000000E+00 0.  1.
         23    2    1    2    0    0  0.00000000000E+00  0.00000000000E+00  0.00000000000E+00  0.60000000000E+02  0.60000000000E+02 0.  0.
          5    1    3    3  501    0 -0.13402737436E+02 -0.10190800674E+02  0.24380816452E+02  0.30000000000E+02  0.47000000000E+01 0. -1.
         -5    1    3    3    0  501  0.13402737436E+02  0.10190800674E+02 -0.24380816452E+02  0.30000000000E+02  0.47000000000E+01 0.  1.
</event>
<event>
 5    1  0.7693226E-002  0.6000000E+02  0.7546771E-02  0.1259629E+00
         11   -1    0    0    0    0  0.00000000000E+00  0.00000000000E+00  0.30000000000E+02  0.30000000000E+02  0.00000000000E+00 0.  1.
        -11   -1    0    0    0    0 -0.00000000000E+00 -0.00000000000E+00 -0.30000000000E+02  0.30000000000E+02  0.00000000000E+00 0. -1.
         23    2    1    2    0    0  0.00000000000E+00  0.00000000000E+00  0.00000000000E+00  0.60000000000E+02  0.60000000000E+02 0.  0.
          5    1    3    3  501    0  0.28751574452E+02 -0.40283468009E+01 -0.59185630488E+01  0.30000000000E+02  0.47000000000E+01 0. -1.
         -5    1    3    3    0  501 -0.28751574452E+02  0.40283468009E+01  0.59185630488E+01  0.30000000000E+02  0.47000000000E+01 0.  1.
</event>
<event>
 5    1  0.7693226E-002  0.6000000E+02  0.7546771E-02  0.1259629E+00
         11   -1    0    0    0    0  0.00000000000E+00  0.00000000000E+00  0.30000000000E+02  0.30000000000E+02  0.00000000000E+00 0.  1.
        -11   -1    0    0    0    0 -0.00000000000E+00 -0.00000000000E+00 -0.30000000000E+02  0.30000000000E+02  0.00000000000E+00 0. -1.
         23    2    1    2    0    0  0.00000000000E+00  0.00000000000E+00  0.00000000000E+00  0.60000000000E+02  0.60000000000E+02 0.  0.
          5    1    3    3  501    0 -0.88575153707E+01  0.25641910969E+02 -0.11914143835E+02  0.30000000000E+02  0.47000000000E+01 0. -1.
         -5    1    3    3    0  501  0.88575153707E+01 -0.25641910969E+02  0.11914143835E+02  0.30000000000E+02  0.47000000000E+01 0.  1.
</event>
<event>
 5    1  0.7693226E-002  0.6000000E+02  0.7546771E-02  0.1259629E+00
         11   -1    0    0    0    0  0.00000000000E+00  0.00000000000E+00  0.30000000000E+02  0.30000000000E+02  0.00000000000E+00 0.  1.
        -11   -1    0    0    0    0 -0.00000000000E+00 -0.00000000000E+00 -0.30000000000E+02  0.30000000000E+02  0.00000000000E+00 0. -1.
         23    2    1    2    0    0  0.00000000000E+00  0.00000000000E+00  0.00000000000E+00  0.60000000000E+02  0.60000000000E+02 0.  0.
          5    1    3    3  501    0  0.18152607345E+02  0.21060910992E+01 -0.23322890620E+02  0.30000000000E+02  0.47000000000E+01 0. -1.
         -5    1    3    3    0  501 -0.18152607345E+02 -0.21060910992E+01  0.23322890620E+02  0.30000000000E+02  0.47000000000E+01 0.  1.
</event>
<event>
 5    1  0.7693226E-002  0.6000000E+02  0.7546771E-02  0.1259629E+00
         11   -1    0    0    0    0  0.00000000000E+00  0.00000000000E+00  0.30000000000E+02  0.30000000000E+02  0.00000000000E+00 0. -1.
        -11   -1    0    0    0    0 -0.00000000000E+00 -0.00000000000E+00 -0.30000000000E+02  0.30000000000E+02  0.00000000000E+00 0.  1.
         23    2    1    2    0    0  0.00000000000E+00  0.00000000000E+00  0.00000000000E+00  0.60000000000E+02  0.60000000000E+02 0.  0.
          5    1    3    3  501    0 -0.22747054793E+01 -0.28088678203E+02 -0.91521512117E+01  0.30000000000E+02  0.47000000000E+01 0.  1.
         -5    1    3    3    0  501  0.22747054793E+01  0.28088678203E+02  0.91521512117E+01  0.30000000000E+02  0.47000000000E+01 0. -1.
</event>
<event>
 5    1  0.7693226E-002  0.6000000E+02  0.7546771E-02  0.1259629E+00
         11   -1    0    0    0    0  0.00000000000E+00  0.00000000000E+00  0.30000000000E+02  0.30000000000E+02  0.00000000000E+00 0. -1.
        -11   -1    0    0    0    0 -0.00000000000E+00 -0.00000000000E+00 -0.30000000000E+02  0.30000000000E+02  0.00000000000E+00 0.  1.
         23    2    1    2    0    0  0.00000000000E+00  0.00000000000E+00  0.00000000000E+00  0.60000000000E+02  0.60000000000E+02 0.  0.
          5    1    3    3  501    0  0.63281039127E+01 -0.77692756199E+01 -0.27883748981E+02  0.30000000000E+02  0.47000000000E+01 0.  1.
         -5    1    3    3    0  501 -0.63281039127E+01  0.77692756199E+01  0.27883748981E+02  0.30000000000E+02  0.47000000000E+01 0. -1.
</event>
<event>
 5    1  0.7693226E-002  0.6000000E+02  0.7546771E-02  0.1259629E+00
         11   -1    0    0    0    0  0.00000000000E+00  0.00000000000E+00  0.30000000000E+02  0.30000000000E+02  0.00000000000E+00 0.  1.
        -11   -1    0    0    0    0 -0.00000000000E+00 -0.00000000000E+00 -0.30000000000E+02  0.30000000000E+02  0.00000000000E+00 0. -1.
         23    2    1    2    0    0  0.00000000000E+00  0.00000000000E+00  0.00000000000E+00  0.60000000000E+02  0.60000000000E+02 0.  0.
          5    1    3    3  501    0  0.12594105725E+02 -0.26123503881E+02 -0.60713298354E+01  0.30000000000E+02  0.47000000000E+01 0. -1.
         -5    1    3    3    0  501 -0.12594105725E+02  0.26123503881E+02  0.60713298354E+01  0.30000000000E+02  0.47000000000E+01 0.  1.
</event>
<event>
 5    1  0.7693226E-002  0.6000000E+02  0.7546771E-02  0.1259629E+00
         11   -1    0    0    0    0  0.00000000000E+00  0.00000000000E+00  0.30000000000E+02  0.30000000000E+02  0.00000000000E+00 0.  1.
        -11   -1    0    0    0    0 -0.00000000000E+00 -0.00000000000E+00 -0.30000000000E+02  0.30000000000E+02  0.00000000000E+00 0. -1.
         23    2    1    2    0    0  0.00000000000E+00  0.00000000000E+00  0.00000000000E+00  0.60000000000E+02  0.60000000000E+02 0.  0.
          5    1    3    3  501    0  0.16437710075E+02 -0.76776008866E+01 -0.23425757877E+02  0.30000000000E+02  0.47000000000E+01 0. -1.
         -5    1    3    3    0  501 -0.16437710075E+02  0.76776008866E+01  0.23425757877E+02  0.30000000000E+02  0.47000000000E+01 0.  1.
</event>
<event>
 5    1  0.7693226E-002  0.6000000E+02  0.7546771E-02  0.1259629E+00
         11   -1    0    0    0    0  0.00000000000E+00  0.00000000000E+00  0.30000000000E+02  0.30000000000E+02  0.00000000000E+00 0.  1.
        -11   -1    0    0    0    0 -0.00000000000E+00 -0.00000000000E+00 -0.30000000000E+02  0.30000000000E+02  0.00000000000E+00 0. -1.
         23    2    1    2    0    0  0.00000000000E+00  0.00000000000E+00  0.00000000000E+00  0.60000000000E+02  0.60000000000E+02 0.  0.
          5    1    3    3  501    0  0.24836329209E+01 -0.95746036441E+01 -0.27929706990E+02  0.30000000000E+02  0.47000000000E+01 0. -1.
         -5    1    3    3    0  501 -0.24836329209E+01  0.95746036441E+01  0.27929706990E+02  0.30000000000E+02  0.47000000000E+01 0.  1.
</event>
<event>
 5    1  0.7693226E-002  0.6000000E+02  0.7546771E-02  0.1259629E+00
         11   -1    0    0    0    0  0.00000000000E+00  0.00000000000E+00  0.30000000000E+02  0.30000000000E+02  0.00000000000E+00 0.  1.
        -11   -1    0    0    0    0 -0.00000000000E+00 -0.00000000000E+00 -0.30000000000E+02  0.30000000000E+02  0.00000000000E+00 0. -1.
         23    2    1    2    0    0  0.00000000000E+00  0.00000000000E+00  0.00000000000E+00  0.60000000000E+02  0.60000000000E+02 0.  0.
          5    1    3    3  501    0  0.34078163420E+01  0.25166722088E+02 -0.15262139008E+02  0.30000000000E+02  0.47000000000E+01 0. -1.
         -5    1    3    3    0  501 -0.34078163420E+01 -0.25166722088E+02  0.15262139008E+02  0.30000000000E+02  0.47000000000E+01 0.  1.
</event>
<event>
 5    1  0.7693226E-002  0.6000000E+02  0.7546771E-02  0.1259629E+00
         11   -1    0    0    0    0  0.00000000000E+00  0.00000000000E+00  0.30000000000E+02  0.30000000000E+02  0.00000000000E+00 0. -1.
        -11   -1    0    0    0    0 -0.00000000000E+00 -0.00000000000E+00 -0.30000000000E+02  0.30000000000E+02  0.00000000000E+00 0.  1.
         23    2    1    2    0    0  0.00000000000E+00  0.00000000000E+00  0.00000000000E+00  0.60000000000E+02  0.60000000000E+02 0.  0.
          5    1    3    3  501    0  0.12397821862E+01 -0.23360775882E+02 -0.18183703976E+02  0.30000000000E+02  0.47000000000E+01 0.  1.
         -5    1    3    3    0  501 -0.12397821862E+01  0.23360775882E+02  0.18183703976E+02  0.30000000000E+02  0.47000000000E+01 0. -1.
</event>
<event>
 5    1  0.7693226E-002  0.6000000E+02  0.7546771E-02  0.1259629E+00
         11   -1    0    0    0    0  0.00000000000E+00  0.00000000000E+00  0.30000000000E+02  0.30000000000E+02  0.00000000000E+00 0.  1.
        -11   -1    0    0    0    0 -0.00000000000E+00 -0.00000000000E+00 -0.30000000000E+02  0.30000000000E+02  0.00000000000E+00 0. -1.
         23    2    1    2    0    0  0.00000000000E+00  0.00000000000E+00  0.00000000000E+00  0.60000000000E+02  0.60000000000E+02 0.  0.
          5    1    3    3  501    0  0.19502050945E+02  0.21124174287E+02 -0.71658404689E+01  0.30000000000E+02  0.47000000000E+01 0. -1.
         -5    1    3    3    0  501 -0.19502050945E+02 -0.21124174287E+02  0.71658404689E+01  0.30000000000E+02  0.47000000000E+01 0.  1.
</event>
<event>
 5    1  0.7693226E-002  0.6000000E+02  0.7546771E-02  0.1259629E+00
         11   -1    0    0    0    0  0.00000000000E+00  0.00000000000E+00  0.30000000000E+02  0.30000000000E+02  0.00000000000E+00 0.  1.
        -11   -1    0    0    0    0 -0.00000000000E+00 -0.00000000000E+00 -0.30000000000E+02  0.30000000000E+02  0.00000000000E+00 0. -1.
         23    2    1    2    0    0  0.00000000000E+00  0.00000000000E+00  0.00000000000E+00  0.60000000000E+02  0.60000000000E+02 0.  0.
          5    1    3    3  501    0  0.81763825096E+01 -0.18769613297E+02  0.21418645750E+02  0.30000000000E+02  0.47000000000E+01 0.  1.
         -5    1    3    3    0  501 -0.81763825096E+01  0.18769613297E+02 -0.21418645750E+02  0.30000000000E+02  0.47000000000E+01 0. -1.
</event>
<event>
 5    1  0.7693226E-002  0.6000000E+02  0.7546771E-02  0.1259629E+00
         11   -1    0    0    0    0  0.00000000000E+00  0.00000000000E+00  0.30000000000E+02  0.30000000000E+02  0.00000000000E+00 0.  1.
        -11   -1    0    0    0    0 -0.00000000000E+00 -0.00000000000E+00 -0.30000000000E+02  0.30000000000E+02  0.00000000000E+00 0. -1.
         23    2    1    2    0    0  0.00000000000E+00  0.00000000000E+00  0.00000000000E+00  0.60000000000E+02  0.60000000000E+02 0.  0.
          5    1    3    3  501    0  0.13265514148E+02  0.26299203592E+01 -0.26363225396E+02  0.30000000000E+02  0.47000000000E+01 0. -1.
         -5    1    3    3    0  501 -0.13265514148E+02 -0.26299203592E+01  0.26363225396E+02  0.30000000000E+02  0.47000000000E+01 0.  1.
</event>
<event>
 5    1  0.7693226E-002  0.6000000E+02  0.7546771E-02  0.1259629E+00
         11   -1    0    0    0    0  0.00000000000E+00  0.00000000000E+00  0.30000000000E+02  0.30000000000E+02  0.00000000000E+00 0.  1.
        -11   -1    0    0    0    0 -0.00000000000E+00 -0.00000000000E+00 -0.30000000000E+02  0.30000000000E+02  0.00000000000E+00 0. -1.
         23    2    1    2    0    0  0.00000000000E+00  0.00000000000E+00  0.00000000000E+00  0.60000000000E+02  0.60000000000E+02 0.  0.
          5    1    3    3  501    0 -0.28350092003E+02 -0.51566863338E+01  0.68986135908E+01  0.30000000000E+02  0.47000000000E+01 0.  1.
         -5    1    3    3    0  501  0.28350092003E+02  0.51566863338E+01 -0.68986135908E+01  0.30000000000E+02  0.47000000000E+01 0. -1.
</event>
<event>
 5    1  0.7693226E-002  0.6000000E+02  0.7546771E-02  0.1259629E+00
         11   -1    0    0    0    0  0.00000000000E+00  0.00000000000E+00  0.30000000000E+02  0.30000000000E+02  0.00000000000E+00 0.  1.
        -11   -1    0    0    0    0 -0.00000000000E+00 -0.00000000000E+00 -0.30000000000E+02  0.30000000000E+02  0.00000000000E+00 0. -1.
         23    2    1    2    0    0  0.00000000000E+00  0.00000000000E+00  0.00000000000E+00  0.60000000000E+02  0.60000000000E+02 0.  0.
          5    1    3    3  501    0  0.21845779135E+02 -0.56569847099E+01 -0.19200793160E+02  0.30000000000E+02  0.47000000000E+01 0. -1.
         -5    1    3    3    0  501 -0.21845779135E+02  0.56569847099E+01  0.19200793160E+02  0.30000000000E+02  0.47000000000E+01 0.  1.
</event>
<event>
 5    1  0.7693226E-002  0.6000000E+02  0.7546771E-02  0.1259629E+00
         11   -1    0    0    0    0  0.00000000000E+00  0.00000000000E+00  0.30000000000E+02  0.30000000000E+02  0.00000000000E+00 0.  1.
        -11   -1    0    0    0    0 -0.00000000000E+00 -0.00000000000E+00 -0.30000000000E+02  0.30000000000E+02  0.00000000000E+00 0. -1.
         23    2    1    2    0    0  0.00000000000E+00  0.00000000000E+00  0.00000000000E+00  0.60000000000E+02  0.60000000000E+02 0.  0.
          5    1    3    3  501    0  0.11386684426E+02  0.41885630540E+01 -0.27031636231E+02  0.30000000000E+02  0.47000000000E+01 0. -1.
         -5    1    3    3    0  501 -0.11386684426E+02 -0.41885630540E+01  0.27031636231E+02  0.30000000000E+02  0.47000000000E+01 0.  1.
</event>
<event>
 5    1  0.7693226E-002  0.6000000E+02  0.7546771E-02  0.1259629E+00
         11   -1    0    0    0    0  0.00000000000E+00  0.00000000000E+00  0.30000000000E+02  0.30000000000E+02  0.00000000000E+00 0.  1.
        -11   -1    0    0    0    0 -0.00000000000E+00 -0.00000000000E+00 -0.30000000000E+02  0.30000000000E+02  0.00000000000E+00 0. -1.
         23    2    1    2    0    0  0.00000000000E+00  0.00000000000E+00  0.00000000000E+00  0.60000000000E+02  0.60000000000E+02 0.  0.
          5    1    3    3  501    0  0.79264148867E+01  0.17924551670E+02 -0.22221439973E+02  0.30000000000E+02  0.47000000000E+01 0. -1.
         -5    1    3    3    0  501 -0.79264148867E+01 -0.17924551670E+02  0.22221439973E+02  0.30000000000E+02  0.47000000000E+01 0.  1.
</event>
<event>
 5    1  0.7693226E-002  0.6000000E+02  0.7546771E-02  0.1259629E+00
         11   -1    0    0    0    0  0.00000000000E+00  0.00000000000E+00  0.30000000000E+02  0.30000000000E+02  0.00000000000E+00 0. -1.
        -11   -1    0    0    0    0 -0.00000000000E+00 -0.00000000000E+00 -0.30000000000E+02  0.30000000000E+02  0.00000000000E+00 0.  1.
         23    2    1    2    0    0  0.00000000000E+00  0.00000000000E+00  0.00000000000E+00  0.60000000000E+02  0.60000000000E+02 0.  0.
          5    1    3    3  501    0  0.27328776004E+02  0.90594870024E+01 -0.69981209873E+01  0.30000000000E+02  0.47000000000E+01 0.  1.
         -5    1    3    3    0  501 -0.27328776004E+02 -0.90594870024E+01  0.69981209873E+01  0.30000000000E+02  0.47000000000E+01 0. -1.
</event>
<event>
 5    1  0.7693226E-002  0.6000000E+02  0.7546771E-02  0.1259629E+00
         11   -1    0    0    0    0  0.00000000000E+00  0.00000000000E+00  0.30000000000E+02  0.30000000000E+02  0.00000000000E+00 0.  1.
        -11   -1    0    0    0    0 -0.00000000000E+00 -0.00000000000E+00 -0.30000000000E+02  0.30000000000E+02  0.00000000000E+00 0. -1.
         23    2    1    2    0    0  0.00000000000E+00  0.00000000000E+00  0.00000000000E+00  0.60000000000E+02  0.60000000000E+02 0.  0.
          5    1    3    3  501    0 -0.10741389556E+02  0.74793008029E+01 -0.26581809756E+02  0.30000000000E+02  0.47000000000E+01 0. -1.
         -5    1    3    3    0  501  0.10741389556E+02 -0.74793008029E+01  0.26581809756E+02  0.30000000000E+02  0.47000000000E+01 0.  1.
</event>
<event>
 5    1  0.7693226E-002  0.6000000E+02  0.7546771E-02  0.1259629E+00
         11   -1    0    0    0    0  0.00000000000E+00  0.00000000000E+00  0.30000000000E+02  0.30000000000E+02  0.00000000000E+00 0. -1.
        -11   -1    0    0    0    0 -0.00000000000E+00 -0.00000000000E+00 -0.30000000000E+02  0.30000000000E+02  0.00000000000E+00 0.  1.
         23    2    1    2    0    0  0.00000000000E+00  0.00000000000E+00  0.00000000000E+00  0.60000000000E+02  0.60000000000E+02 0.  0.
          5    1    3    3  501    0  0.46096467116E+01  0.22032612852E+01 -0.29185729337E+02  0.30000000000E+02  0.47000000000E+01 0.  1.
         -5    1    3    3    0  501 -0.46096467116E+01 -0.22032612852E+01  0.29185729337E+02  0.30000000000E+02  0.47000000000E+01 0. -1.
</event>
<event>
 5    1  0.7693226E-002  0.6000000E+02  0.7546771E-02  0.1259629E+00
         11   -1    0    0    0    0  0.00000000000E+00  0.00000000000E+00  0.30000000000E+02  0.30000000000E+02  0.00000000000E+00 0.  1.
        -11   -1    0    0    0    0 -0.00000000000E+00 -0.00000000000E+00 -0.30000000000E+02  0.30000000000E+02  0.00000000000E+00 0. -1.
         23    2    1    2    0    0  0.00000000000E+00  0.00000000000E+00  0.00000000000E+00  0.60000000000E+02  0.60000000000E+02 0.  0.
          5    1    3    3  501    0 -0.18176858689E+02  0.13902029879E+02  0.18821407318E+02  0.30000000000E+02  0.47000000000E+01 0. -1.
         -5    1    3    3    0  501  0.18176858689E+02 -0.13902029879E+02 -0.18821407318E+02  0.30000000000E+02  0.47000000000E+01 0.  1.
</event>
<event>
 5    1  0.7693226E-002  0.6000000E+02  0.7546771E-02  0.1259629E+00
         11   -1    0    0    0    0  0.00000000000E+00  0.00000000000E+00  0.30000000000E+02  0.30000000000E+02  0.00000000000E+00 0.  1.
        -11   -1    0    0    0    0 -0.00000000000E+00 -0.00000000000E+00 -0.30000000000E+02  0.30000000000E+02  0.00000000000E+00 0. -1.
         23    2    1    2    0    0  0.00000000000E+00  0.00000000000E+00  0.00000000000E+00  0.60000000000E+02  0.60000000000E+02 0.  0.
          5    1    3    3  501    0 -0.43120622700E+01  0.23219306941E+02 -0.17893571588E+02  0.30000000000E+02  0.47000000000E+01 0. -1.
         -5    1    3    3    0  501  0.43120622700E+01 -0.23219306941E+02  0.17893571588E+02  0.30000000000E+02  0.47000000000E+01 0.  1.
</event>
<event>
 5    1  0.7693226E-002  0.6000000E+02  0.7546771E-02  0.1259629E+00
         11   -1    0    0    0    0  0.00000000000E+00  0.00000000000E+00  0.30000000000E+02  0.30000000000E+02  0.00000000000E+00 0.  1.
        -11   -1    0    0    0    0 -0.00000000000E+00 -0.00000000000E+00 -0.30000000000E+02  0.30000000000E+02  0.00000000000E+00 0. -1.
         23    2    1    2    0    0  0.00000000000E+00  0.00000000000E+00  0.00000000000E+00  0.60000000000E+02  0.60000000000E+02 0.  0.
          5    1    3    3  501    0  0.11565386501E+02  0.26297401137E+02 -0.72524843001E+01  0.30000000000E+02  0.47000000000E+01 0. -1.
         -5    1    3    3    0  501 -0.11565386501E+02 -0.26297401137E+02  0.72524843001E+01  0.30000000000E+02  0.47000000000E+01 0.  1.
</event>
<event>
 5    1  0.7693226E-002  0.6000000E+02  0.7546771E-02  0.1259629E+00
         11   -1    0    0    0    0  0.00000000000E+00  0.00000000000E+00  0.30000000000E+02  0.30000000000E+02  0.00000000000E+00 0.  1.
        -11   -1    0    0    0    0 -0.00000000000E+00 -0.00000000000E+00 -0.30000000000E+02  0.30000000000E+02  0.00000000000E+00 0. -1.
         23    2    1    2    0    0  0.00000000000E+00  0.00000000000E+00  0.00000000000E+00  0.60000000000E+02  0.60000000000E+02 0.  0.
          5    1    3    3  501    0  0.17338629379E+02 -0.49151528470E+01  0.23518571465E+02  0.30000000000E+02  0.47000000000E+01 0.  1.
         -5    1    3    3    0  501 -0.17338629379E+02  0.49151528470E+01 -0.23518571465E+02  0.30000000000E+02  0.47000000000E+01 0. -1.
</event>
<event>
 5    1  0.7693226E-002  0.6000000E+02  0.7546771E-02  0.1259629E+00
         11   -1    0    0    0    0  0.00000000000E+00  0.00000000000E+00  0.30000000000E+02  0.30000000000E+02  0.00000000000E+00 0.  1.
        -11   -1    0    0    0    0 -0.00000000000E+00 -0.00000000000E+00 -0.30000000000E+02  0.30000000000E+02  0.00000000000E+00 0. -1.
         23    2    1    2    0    0  0.00000000000E+00  0.00000000000E+00  0.00000000000E+00  0.60000000000E+02  0.60000000000E+02 0.  0.
          5    1    3    3  501    0  0.26799562746E+01 -0.17287497572E+02 -0.23913809025E+02  0.30000000000E+02  0.47000000000E+01 0. -1.
         -5    1    3    3    0  501 -0.26799562746E+01  0.17287497572E+02  0.23913809025E+02  0.30000000000E+02  0.47000000000E+01 0.  1.
</event>
<event>
 5    1  0.7693226E-002  0.6000000E+02  0.7546771E-02  0.1259629E+00
         11   -1    0    0    0    0  0.00000000000E+00  0.00000000000E+00  0.30000000000E+02  0.30000000000E+02  0.00000000000E+00 0. -1.
        -11   -1    0    0    0    0 -0.00000000000E+00 -0.00000000000E+00 -0.30000000000E+02  0.30000000000E+02  0.00000000000E+00 0.  1.
         23    2    1    2    0    0  0.00000000000E+00  0.00000000000E+00  0.00000000000E+00  0.60000000000E+02  0.60000000000E+02 0.  0.
          5    1    3    3  501    0 -0.97553975269E+01  0.70537525172E+00 -0.27968637165E+02  0.30000000000E+02  0.47000000000E+01 0.  1.
         -5    1    3    3    0  501  0.97553975269E+01 -0.70537525172E+00  0.27968637165E+02  0.30000000000E+02  0.47000000000E+01 0. -1.
</event>
<event>
 5    1  0.7693226E-002  0.6000000E+02  0.7546771E-02  0.1259629E+00
         11   -1    0    0    0    0  0.00000000000E+00  0.00000000000E+00  0.30000000000E+02  0.30000000000E+02  0.00000000000E+00 0.  1.
        -11   -1    0    0    0    0 -0.00000000000E+00 -0.00000000000E+00 -0.30000000000E+02  0.30000000000E+02  0.00000000000E+00 0. -1.
         23    2    1    2    0    0  0.00000000000E+00  0.00000000000E+00  0.00000000000E+00  0.60000000000E+02  0.60000000000E+02 0.  0.
          5    1    3    3  501    0  0.34346451789E+01  0.17259051989E+02 -0.23837750249E+02  0.30000000000E+02  0.47000000000E+01 0. -1.
         -5    1    3    3    0  501 -0.34346451789E+01 -0.17259051989E+02  0.23837750249E+02  0.30000000000E+02  0.47000000000E+01 0.  1.
</event>
<event>
 5    1  0.7693226E-002  0.6000000E+02  0.7546771E-02  0.1259629E+00
         11   -1    0    0    0    0  0.00000000000E+00  0.00000000000E+00  0.30000000000E+02  0.30000000000E+02  0.00000000000E+00 0.  1.
        -11   -1    0    0    0    0 -0.00000000000E+00 -0.00000000000E+00 -0.30000000000E+02  0.30000000000E+02  0.00000000000E+00 0. -1.
         23    2    1    2    0    0  0.00000000000E+00  0.00000000000E+00  0.00000000000E+00  0.60000000000E+02  0.60000000000E+02 0.  0.
          5    1    3    3  501    0  0.69439672853E+01  0.20711795664E+01  0.28729802184E+02  0.30000000000E+02  0.47000000000E+01 0.  1.
         -5    1    3    3    0  501 -0.69439672853E+01 -0.20711795664E+01 -0.28729802184E+02  0.30000000000E+02  0.47000000000E+01 0. -1.
</event>
<event>
 5    1  0.7693226E-002  0.6000000E+02  0.7546771E-02  0.1259629E+00
         11   -1    0    0    0    0  0.00000000000E+00  0.00000000000E+00  0.30000000000E+02  0.30000000000E+02  0.00000000000E+00 0.  1.
        -11   -1    0    0    0    0 -0.00000000000E+00 -0.00000000000E+00 -0.30000000000E+02  0.30000000000E+02  0.00000000000E+00 0. -1.
         23    2    1    2    0    0  0.00000000000E+00  0.00000000000E+00  0.00000000000E+00  0.60000000000E+02  0.60000000000E+02 0.  0.
          5    1    3    3  501    0  0.13606461091E+02 -0.12812745902E+02 -0.22991471441E+02  0.30000000000E+02  0.47000000000E+01 0. -1.
         -5    1    3    3    0  501 -0.13606461091E+02  0.12812745902E+02  0.22991471441E+02  0.30000000000E+02  0.47000000000E+01 0.  1.
</event>
<event>
 5    1  0.7693226E-002  0.6000000E+02  0.7546771E-02  0.1259629E+00
         11   -1    0    0    0    0  0.00000000000E+00  0.00000000000E+00  0.30000000000E+02  0.30000000000E+02  0.00000000000E+00 0. -1.
        -11   -1    0    0    0    0 -0.00000000000E+00 -0.00000000000E+00 -0.30000000000E+02  0.30000000000E+02  0.00000000000E+00 0.  1.
         23    2    1    2    0    0  0.00000000000E+00  0.00000000000E+00  0.00000000000E+00  0.60000000000E+02  0.60000000000E+02 0.  0.
          5    1    3    3  501    0 -0.54868415785E+01  0.18176095468E+01 -0.29060297057E+02  0.30000000000E+02  0.47000000000E+01 0.  1.
         -5    1    3    3    0  501  0.54868415785E+01 -0.18176095468E+01  0.29060297057E+02  0.30000000000E+02  0.47000000000E+01 0. -1.
</event>
<event>
 5    1  0.7693226E-002  0.6000000E+02  0.7546771E-02  0.1259629E+00
         11   -1    0    0    0    0  0.00000000000E+00  0.00000000000E+00  0.30000000000E+02  0.30000000000E+02  0.00000000000E+00 0.  1.
        -11   -1    0    0    0    0 -0.00000000000E+00 -0.00000000000E+00 -0.30000000000E+02  0.30000000000E+02  0.00000000000E+00 0. -1.
         23    2    1    2    0    0  0.00000000000E+00  0.00000000000E+00  0.00000000000E+00  0.60000000000E+02  0.60000000000E+02 0.  0.
          5    1    3    3  501    0  0.24286634647E+02  0.16315779954E+02  0.46759707020E+01  0.30000000000E+02  0.47000000000E+01 0.  1.
         -5    1    3    3    0  501 -0.24286634647E+02 -0.16315779954E+02 -0.46759707020E+01  0.30000000000E+02  0.47000000000E+01 0. -1.
</event>
<event>
 5    1  0.7693226E-002  0.6000000E+02  0.7546771E-02  0.1259629E+00
         11   -1    0    0    0    0  0.00000000000E+00  0.00000000000E+00  0.30000000000E+02  0.30000000000E+02  0.00000000000E+00 0.  1.
        -11   -1    0    0    0    0 -0.00000000000E+00 -0.00000000000E+00 -0.30000000000E+02  0.30000000000E+02  0.00000000000E+00 0. -1.
         23    2    1    2    0    0  0.00000000000E+00  0.00000000000E+00  0.00000000000E+00  0.60000000000E+02  0.60000000000E+02 0.  0.
          5    1    3    3  501    0  0.16458596395E+02 -0.23381885167E+02  0.77660833582E+01  0.30000000000E+02  0.47000000000E+01 0. -1.
         -5    1    3    3    0  501 -0.16458596395E+02  0.23381885167E+02 -0.77660833582E+01  0.30000000000E+02  0.47000000000E+01 0.  1.
</event>
<event>
 5    1  0.7693226E-002  0.6000000E+02  0.7546771E-02  0.1259629E+00
         11   -1    0    0    0    0  0.00000000000E+00  0.00000000000E+00  0.30000000000E+02  0.30000000000E+02  0.00000000000E+00 0.  1.
        -11   -1    0    0    0    0 -0.00000000000E+00 -0.00000000000E+00 -0.30000000000E+02  0.30000000000E+02  0.00000000000E+00 0. -1.
         23    2    1    2    0    0  0.00000000000E+00  0.00000000000E+00  0.00000000000E+00  0.60000000000E+02  0.60000000000E+02 0.  0.
          5    1    3    3  501    0  0.17675844812E+02  0.19607033741E+02 -0.13455063658E+02  0.30000000000E+02  0.47000000000E+01 0. -1.
         -5    1    3    3    0  501 -0.17675844812E+02 -0.19607033741E+02  0.13455063658E+02  0.30000000000E+02  0.47000000000E+01 0.  1.
</event>
<event>
 5    1  0.7693226E-002  0.6000000E+02  0.7546771E-02  0.1259629E+00
         11   -1    0    0    0    0  0.00000000000E+00  0.00000000000E+00  0.30000000000E+02  0.30000000000E+02  0.00000000000E+00 0.  1.
        -11   -1    0    0    0    0 -0.00000000000E+00 -0.00000000000E+00 -0.30000000000E+02  0.30000000000E+02  0.00000000000E+00 0. -1.
         23    2    1    2    0    0  0.00000000000E+00  0.00000000000E+00  0.00000000000E+00  0.60000000000E+02  0.60000000000E+02 0.  0.
          5    1    3    3  501    0  0.82843294983E+01 -0.23238940438E+02 -0.16408276328E+02  0.30000000000E+02  0.47000000000E+01 0. -1.
         -5    1    3    3    0  501 -0.82843294983E+01  0.23238940438E+02  0.16408276328E+02  0.30000000000E+02  0.47000000000E+01 0.  1.
</event>
<event>
 5    1  0.7693226E-002  0.6000000E+02  0.7546771E-02  0.1259629E+00
         11   -1    0    0    0    0  0.00000000000E+00  0.00000000000E+00  0.30000000000E+02  0.30000000000E+02  0.00000000000E+00 0. -1.
        -11   -1    0    0    0    0 -0.00000000000E+00 -0.00000000000E+00 -0.30000000000E+02  0.30000000000E+02  0.00000000000E+00 0.  1.
         23    2    1    2    0    0  0.00000000000E+00  0.00000000000E+00  0.00000000000E+00  0.60000000000E+02  0.60000000000E+02 0.  0.
          5    1    3    3  501    0  0.14646454427E+02  0.60397481574E+01 -0.25038227072E+02  0.30000000000E+02  0.47000000000E+01 0.  1.
         -5    1    3    3    0  501 -0.14646454427E+02 -0.60397481574E+01  0.25038227072E+02  0.30000000000E+02  0.47000000000E+01 0. -1.
</event>
<event>
 5    1  0.7693226E-002  0.6000000E+02  0.7546771E-02  0.1259629E+00
         11   -1    0    0    0    0  0.00000000000E+00  0.00000000000E+00  0.30000000000E+02  0.30000000000E+02  0.00000000000E+00 0.  1.
        -11   -1    0    0    0    0 -0.00000000000E+00 -0.00000000000E+00 -0.30000000000E+02  0.30000000000E+02  0.00000000000E+00 0. -1.
         23    2    1    2    0    0  0.00000000000E+00  0.00000000000E+00  0.00000000000E+00  0.60000000000E+02  0.60000000000E+02 0.  0.
          5    1    3    3  501    0 -0.91742493987E+00 -0.14265114683E+02 -0.25953320299E+02  0.30000000000E+02  0.47000000000E+01 0. -1.
         -5    1    3    3    0  501  0.91742493987E+00  0.14265114683E+02  0.25953320299E+02  0.30000000000E+02  0.47000000000E+01 0.  1.
</event>
<event>
 5    1  0.7693226E-002  0.6000000E+02  0.7546771E-02  0.1259629E+00
         11   -1    0    0    0    0  0.00000000000E+00  0.00000000000E+00  0.30000000000E+02  0.30000000000E+02  0.00000000000E+00 0.  1.
        -11   -1    0    0    0    0 -0.00000000000E+00 -0.00000000000E+00 -0.30000000000E+02  0.30000000000E+02  0.00000000000E+00 0. -1.
         23    2    1    2    0    0  0.00000000000E+00  0.00000000000E+00  0.00000000000E+00  0.60000000000E+02  0.60000000000E+02 0.  0.
          5    1    3    3  501    0 -0.63968313748E+01  0.24517700462E+02 -0.15358154590E+02  0.30000000000E+02  0.47000000000E+01 0. -1.
         -5    1    3    3    0  501  0.63968313748E+01 -0.24517700462E+02  0.15358154590E+02  0.30000000000E+02  0.47000000000E+01 0.  1.
</event>
<event>
 5    1  0.7693226E-002  0.6000000E+02  0.7546771E-02  0.1259629E+00
         11   -1    0    0    0    0  0.00000000000E+00  0.00000000000E+00  0.30000000000E+02  0.30000000000E+02  0.00000000000E+00 0.  1.
        -11   -1    0    0    0    0 -0.00000000000E+00 -0.00000000000E+00 -0.30000000000E+02  0.30000000000E+02  0.00000000000E+00 0. -1.
         23    2    1    2    0    0  0.00000000000E+00  0.00000000000E+00  0.00000000000E+00  0.60000000000E+02  0.60000000000E+02 0.  0.
          5    1    3    3  501    0  0.79640723722E+01  0.24508855410E+02 -0.14621886258E+02  0.30000000000E+02  0.47000000000E+01 0. -1.
         -5    1    3    3    0  501 -0.79640723722E+01 -0.24508855410E+02  0.14621886258E+02  0.30000000000E+02  0.47000000000E+01 0.  1.
</event>
<event>
 5    1  0.7693226E-002  0.6000000E+02  0.7546771E-02  0.1259629E+00
         11   -1    0    0    0    0  0.00000000000E+00  0.00000000000E+00  0.30000000000E+02  0.30000000000E+02  0.00000000000E+00 0.  1.
        -11   -1    0    0    0    0 -0.00000000000E+00 -0.00000000000E+00 -0.30000000000E+02  0.30000000000E+02  0.00000000000E+00 0. -1.
         23    2    1    2    0    0  0.00000000000E+00  0.00000000000E+00  0.00000000000E+00  0.60000000000E+02  0.60000000000E+02 0.  0.
          5    1    3    3  501    0  0.29460016318E+02 -0.28571710094E+01  0.13616212230E+01  0.30000000000E+02  0.47000000000E+01 0.  1.
         -5    1    3    3    0  501 -0.29460016318E+02  0.28571710094E+01 -0.13616212230E+01  0.30000000000E+02  0.47000000000E+01 0. -1.
</event>
<event>
 5    1  0.7693226E-002  0.6000000E+02  0.7546771E-02  0.1259629E+00
         11   -1    0    0    0    0  0.00000000000E+00  0.00000000000E+00  0.30000000000E+02  0.30000000000E+02  0.00000000000E+00 0.  1.
        -11   -1    0    0    0    0 -0.00000000000E+00 -0.00000000000E+00 -0.30000000000E+02  0.30000000000E+02  0.00000000000E+00 0. -1.
         23    2    1    2    0    0  0.00000000000E+00  0.00000000000E+00  0.00000000000E+00  0.60000000000E+02  0.60000000000E+02 0.  0.
          5    1    3    3  501    0  0.35560144191E+01  0.20531953333E+02 -0.21064274347E+02  0.30000000000E+02  0.47000000000E+01 0. -1.
         -5    1    3    3    0  501 -0.35560144191E+01 -0.20531953333E+02  0.21064274347E+02  0.30000000000E+02  0.47000000000E+01 0.  1.
</event>
<event>
 5    1  0.7693226E-002  0.6000000E+02  0.7546771E-02  0.1259629E+00
         11   -1    0    0    0    0  0.00000000000E+00  0.00000000000E+00  0.30000000000E+02  0.30000000000E+02  0.00000000000E+00 0. -1.
        -11   -1    0    0    0    0 -0.00000000000E+00 -0.00000000000E+00 -0.30000000000E+02  0.30000000000E+02  0.00000000000E+00 0.  1.
         23    2    1    2    0    0  0.00000000000E+00  0.00000000000E+00  0.00000000000E+00  0.60000000000E+02  0.60000000000E+02 0.  0.
          5    1    3    3  501    0  0.15268808217E+02  0.10425540553E+02 -0.23153436026E+02  0.30000000000E+02  0.47000000000E+01 0.  1.
         -5    1    3    3    0  501 -0.15268808217E+02 -0.10425540553E+02  0.23153436026E+02  0.30000000000E+02  0.47000000000E+01 0. -1.
</event>
<event>
 5    1  0.7693226E-002  0.6000000E+02  0.7546771E-02  0.1259629E+00
         11   -1    0    0    0    0  0.00000000000E+00  0.00000000000E+00  0.30000000000E+02  0.30000000000E+02  0.00000000000E+00 0.  1.
        -11   -1    0    0    0    0 -0.00000000000E+00 -0.00000000000E+00 -0.30000000000E+02  0.30000000000E+02  0.00000000000E+00 0. -1.
         23    2    1    2    0    0  0.00000000000E+00  0.00000000000E+00  0.00000000000E+00  0.60000000000E+02  0.60000000000E+02 0.  0.
          5    1    3    3  501    0  0.17622193867E+02 -0.99353100010E+01 -0.21648507997E+02  0.30000000000E+02  0.47000000000E+01 0. -1.
         -5    1    3    3    0  501 -0.17622193867E+02  0.99353100010E+01  0.21648507997E+02  0.30000000000E+02  0.47000000000E+01 0.  1.
</event>
<event>
 5    1  0.7693226E-002  0.6000000E+02  0.7546771E-02  0.1259629E+00
         11   -1    0    0    0    0  0.00000000000E+00  0.00000000000E+00  0.30000000000E+02  0.30000000000E+02  0.00000000000E+00 0.  1.
        -11   -1    0    0    0    0 -0.00000000000E+00 -0.00000000000E+00 -0.30000000000E+02  0.30000000000E+02  0.00000000000E+00 0. -1.
         23    2    1    2    0    0  0.00000000000E+00  0.00000000000E+00  0.00000000000E+00  0.60000000000E+02  0.60000000000E+02 0.  0.
          5    1    3    3  501    0  0.27959465424E+02 -0.76068362817E+01 -0.61898574287E+01  0.30000000000E+02  0.47000000000E+01 0. -1.
         -5    1    3    3    0  501 -0.27959465424E+02  0.76068362817E+01  0.61898574287E+01  0.30000000000E+02  0.47000000000E+01 0.  1.
</event>
<event>
 5    1  0.7693226E-002  0.6000000E+02  0.7546771E-02  0.1259629E+00
         11   -1    0    0    0    0  0.00000000000E+00  0.00000000000E+00  0.30000000000E+02  0.30000000000E+02  0.00000000000E+00 0.  1.
        -11   -1    0    0    0    0 -0.00000000000E+00 -0.00000000000E+00 -0.30000000000E+02  0.30000000000E+02  0.00000000000E+00 0. -1.
         23    2    1    2    0    0  0.00000000000E+00  0.00000000000E+00  0.00000000000E+00  0.60000000000E+02  0.60000000000E+02 0.  0.
          5    1    3    3  501    0 -0.20274696024E+02 -0.21156715121E+02 -0.43863545728E+01  0.30000000000E+02  0.47000000000E+01 0. -1.
         -5    1    3    3    0  501  0.20274696024E+02  0.21156715121E+02  0.43863545728E+01  0.30000000000E+02  0.47000000000E+01 0.  1.
</event>
<event>
 5    1  0.7693226E-002  0.6000000E+02  0.7546771E-02  0.1259629E+00
         11   -1    0    0    0    0  0.00000000000E+00  0.00000000000E+00  0.30000000000E+02  0.30000000000E+02  0.00000000000E+00 0.  1.
        -11   -1    0    0    0    0 -0.00000000000E+00 -0.00000000000E+00 -0.30000000000E+02  0.30000000000E+02  0.00000000000E+00 0. -1.
         23    2    1    2    0    0  0.00000000000E+00  0.00000000000E+00  0.00000000000E+00  0.60000000000E+02  0.60000000000E+02 0.  0.
          5    1    3    3  501    0  0.48083813576E+01  0.11089173783E+02  0.27052166152E+02  0.30000000000E+02  0.47000000000E+01 0.  1.
         -5    1    3    3    0  501 -0.48083813576E+01 -0.11089173783E+02 -0.27052166152E+02  0.30000000000E+02  0.47000000000E+01 0. -1.
</event>
<event>
 5    1  0.7693226E-002  0.6000000E+02  0.7546771E-02  0.1259629E+00
         11   -1    0    0    0    0  0.00000000000E+00  0.00000000000E+00  0.30000000000E+02  0.30000000000E+02  0.00000000000E+00 0.  1.
        -11   -1    0    0    0    0 -0.00000000000E+00 -0.00000000000E+00 -0.30000000000E+02  0.30000000000E+02  0.00000000000E+00 0. -1.
         23    2    1    2    0    0  0.00000000000E+00  0.00000000000E+00  0.00000000000E+00  0.60000000000E+02  0.60000000000E+02 0.  0.
          5    1    3    3  501    0  0.20876735387E+02  0.10683170949E+02 -0.18109162820E+02  0.30000000000E+02  0.47000000000E+01 0. -1.
         -5    1    3    3    0  501 -0.20876735387E+02 -0.10683170949E+02  0.18109162820E+02  0.30000000000E+02  0.47000000000E+01 0.  1.
</event>
<event>
 5    1  0.7693226E-002  0.6000000E+02  0.7546771E-02  0.1259629E+00
         11   -1    0    0    0    0  0.00000000000E+00  0.00000000000E+00  0.30000000000E+02  0.30000000000E+02  0.00000000000E+00 0.  1.
        -11   -1    0    0    0    0 -0.00000000000E+00 -0.00000000000E+00 -0.30000000000E+02  0.30000000000E+02  0.00000000000E+00 0. -1.
         23    2    1    2    0    0  0.00000000000E+00  0.00000000000E+00  0.00000000000E+00  0.60000000000E+02  0.60000000000E+02 0.  0.
          5    1    3    3  501    0 -0.10604549654E+02 -0.10896037702E+02 -0.25430884551E+02  0.30000000000E+02  0.47000000000E+01 0. -1.
         -5    1    3    3    0  501  0.10604549654E+02  0.10896037702E+02  0.25430884551E+02  0.30000000000E+02  0.47000000000E+01 0.  1.
</event>
<event>
 5    1  0.7693226E-002  0.6000000E+02  0.7546771E-02  0.1259629E+00
         11   -1    0    0    0    0  0.00000000000E+00  0.00000000000E+00  0.30000000000E+02  0.30000000000E+02  0.00000000000E+00 0.  1.
        -11   -1    0    0    0    0 -0.00000000000E+00 -0.00000000000E+00 -0.30000000000E+02  0.30000000000E+02  0.00000000000E+00 0. -1.
         23    2    1    2    0    0  0.00000000000E+00  0.00000000000E+00  0.00000000000E+00  0.60000000000E+02  0.60000000000E+02 0.  0.
          5    1    3    3  501    0 -0.14255170173E+02 -0.17926696438E+02 -0.18797172079E+02  0.30000000000E+02  0.47000000000E+01 0. -1.
         -5    1    3    3    0  501  0.14255170173E+02  0.17926696438E+02  0.18797172079E+02  0.30000000000E+02  0.47000000000E+01 0.  1.
</event>
<event>
 5    1  0.7693226E-002  0.6000000E+02  0.7546771E-02  0.1259629E+00
         11   -1    0    0    0    0  0.00000000000E+00  0.00000000000E+00  0.30000000000E+02  0.30000000000E+02  0.00000000000E+00 0.  1.
        -11   -1    0    0    0    0 -0.00000000000E+00 -0.00000000000E+00 -0.30000000000E+02  0.30000000000E+02  0.00000000000E+00 0. -1.
         23    2    1    2    0    0  0.00000000000E+00  0.00000000000E+00  0.00000000000E+00  0.60000000000E+02  0.60000000000E+02 0.  0.
          5    1    3    3  501    0  0.23947359371E+02  0.89205813746E+01 -0.14995239481E+02  0.30000000000E+02  0.47000000000E+01 0. -1.
         -5    1    3    3    0  501 -0.23947359371E+02 -0.89205813746E+01  0.14995239481E+02  0.30000000000E+02  0.47000000000E+01 0.  1.
</event>
<event>
 5    1  0.7693226E-002  0.6000000E+02  0.7546771E-02  0.1259629E+00
         11   -1    0    0    0    0  0.00000000000E+00  0.00000000000E+00  0.30000000000E+02  0.30000000000E+02  0.00000000000E+00 0.  1.
        -11   -1    0    0    0    0 -0.00000000000E+00 -0.00000000000E+00 -0.30000000000E+02  0.30000000000E+02  0.00000000000E+00 0. -1.
         23    2    1    2    0    0  0.00000000000E+00  0.00000000000E+00  0.00000000000E+00  0.60000000000E+02  0.60000000000E+02 0.  0.
          5    1    3    3  501    0  0.23953854231E+01 -0.20492794829E+01 -0.29461374413E+02  0.30000000000E+02  0.47000000000E+01 0. -1.
         -5    1    3    3    0  501 -0.23953854231E+01  0.20492794829E+01  0.29461374413E+02  0.30000000000E+02  0.47000000000E+01 0.  1.
</event>
<event>
 5    1  0.7693226E-002  0.6000000E+02  0.7546771E-02  0.1259629E+00
         11   -1    0    0    0    0  0.00000000000E+00  0.00000000000E+00  0.30000000000E+02  0.30000000000E+02  0.00000000000E+00 0.  1.
        -11   -1    0    0    0    0 -0.00000000000E+00 -0.00000000000E+00 -0.30000000000E+02  0.30000000000E+02  0.00000000000E+00 0. -1.
         23    2    1    2    0    0  0.00000000000E+00  0.00000000000E+00  0.00000000000E+00  0.60000000000E+02  0.60000000000E+02 0.  0.
          5    1    3    3  501    0  0.81746864593E+01  0.12444231101E+02 -0.25616900937E+02  0.30000000000E+02  0.47000000000E+01 0. -1.
         -5    1    3    3    0  501 -0.81746864593E+01 -0.12444231101E+02  0.25616900937E+02  0.30000000000E+02  0.47000000000E+01 0.  1.
</event>
<event>
 5    1  0.7693226E-002  0.6000000E+02  0.7546771E-02  0.1259629E+00
         11   -1    0    0    0    0  0.00000000000E+00  0.00000000000E+00  0.30000000000E+02  0.30000000000E+02  0.00000000000E+00 0.  1.
        -11   -1    0    0    0    0 -0.00000000000E+00 -0.00000000000E+00 -0.30000000000E+02  0.30000000000E+02  0.00000000000E+00 0. -1.
         23    2    1    2    0    0  0.00000000000E+00  0.00000000000E+00  0.00000000000E+00  0.60000000000E+02  0.60000000000E+02 0.  0.
          5    1    3    3  501    0  0.15297817681E+02 -0.15973509569E+02 -0.19716332474E+02  0.30000000000E+02  0.47000000000E+01 0. -1.
         -5    1    3    3    0  501 -0.15297817681E+02  0.15973509569E+02  0.19716332474E+02  0.30000000000E+02  0.47000000000E+01 0.  1.
</event>
<event>
 5    1  0.7693226E-002  0.6000000E+02  0.7546771E-02  0.1259629E+00
         11   -1    0    0    0    0  0.00000000000E+00  0.00000000000E+00  0.30000000000E+02  0.30000000000E+02  0.00000000000E+00 0.  1.
        -11   -1    0    0    0    0 -0.00000000000E+00 -0.00000000000E+00 -0.30000000000E+02  0.30000000000E+02  0.00000000000E+00 0. -1.
         23    2    1    2    0    0  0.00000000000E+00  0.00000000000E+00  0.00000000000E+00  0.60000000000E+02  0.60000000000E+02 0.  0.
          5    1    3    3  501    0 -0.16639639843E+02 -0.81965331126E+01 -0.23105177576E+02  0.30000000000E+02  0.47000000000E+01 0. -1.
         -5    1    3    3    0  501  0.16639639843E+02  0.81965331126E+01  0.23105177576E+02  0.30000000000E+02  0.47000000000E+01 0.  1.
</event>
<event>
 5    1  0.7693226E-002  0.6000000E+02  0.7546771E-02  0.1259629E+00
         11   -1    0    0    0    0  0.00000000000E+00  0.00000000000E+00  0.30000000000E+02  0.30000000000E+02  0.00000000000E+00 0.  1.
        -11   -1    0    0    0    0 -0.00000000000E+00 -0.00000000000E+00 -0.30000000000E+02  0.30000000000E+02  0.00000000000E+00 0. -1.
         23    2    1    2    0    0  0.00000000000E+00  0.00000000000E+00  0.00000000000E+00  0.60000000000E+02  0.60000000000E+02 0.  0.
          5    1    3    3  501    0 -0.61142039266E+01  0.41455063720E+01 -0.28693924222E+02  0.30000000000E+02  0.47000000000E+01 0. -1.
         -5    1    3    3    0  501  0.61142039266E+01 -0.41455063720E+01  0.28693924222E+02  0.30000000000E+02  0.47000000000E+01 0.  1.
</event>
<event>
 5    1  0.7693226E-002  0.6000000E+02  0.7546771E-02  0.1259629E+00
         11   -1    0    0    0    0  0.00000000000E+00  0.00000000000E+00  0.30000000000E+02  0.30000000000E+02  0.00000000000E+00 0.  1.
        -11   -1    0    0    0    0 -0.00000000000E+00 -0.00000000000E+00 -0.30000000000E+02  0.30000000000E+02  0.00000000000E+00 0. -1.
         23    2    1    2    0    0  0.00000000000E+00  0.00000000000E+00  0.00000000000E+00  0.60000000000E+02  0.60000000000E+02 0.  0.
          5    1    3    3  501    0  0.20987663167E+02  0.75443929058E+01 -0.19506668872E+02  0.30000000000E+02  0.47000000000E+01 0. -1.
         -5    1    3    3    0  501 -0.20987663167E+02 -0.75443929058E+01  0.19506668872E+02  0.30000000000E+02  0.47000000000E+01 0.  1.
</event>
<event>
 5    1  0.7693226E-002  0.6000000E+02  0.7546771E-02  0.1259629E+00
         11   -1    0    0    0    0  0.00000000000E+00  0.00000000000E+00  0.30000000000E+02  0.30000000000E+02  0.00000000000E+00 0. -1.
        -11   -1    0    0    0    0 -0.00000000000E+00 -0.00000000000E+00 -0.30000000000E+02  0.30000000000E+02  0.00000000000E+00 0.  1.
         23    2    1    2    0    0  0.00000000000E+00  0.00000000000E+00  0.00000000000E+00  0.60000000000E+02  0.60000000000E+02 0.  0.
          5    1    3    3  501    0  0.11193359012E+02 -0.19623276323E+02 -0.19171482477E+02  0.30000000000E+02  0.47000000000E+01 0.  1.
         -5    1    3    3    0  501 -0.11193359012E+02  0.19623276323E+02  0.19171482477E+02  0.30000000000E+02  0.47000000000E+01 0. -1.
</event>
<event>
 5    1  0.7693226E-002  0.6000000E+02  0.7546771E-02  0.1259629E+00
         11   -1    0    0    0    0  0.00000000000E+00  0.00000000000E+00  0.30000000000E+02  0.30000000000E+02  0.00000000000E+00 0. -1.
        -11   -1    0    0    0    0 -0.00000000000E+00 -0.00000000000E+00 -0.30000000000E+02  0.30000000000E+02  0.00000000000E+00 0.  1.
         23    2    1    2    0    0  0.00000000000E+00  0.00000000000E+00  0.00000000000E+00  0.60000000000E+02  0.60000000000E+02 0.  0.
          5    1    3    3  501    0 -0.14765502083E+02  0.25095839472E+02  0.54853249168E+01  0.30000000000E+02  0.47000000000E+01 0.  1.
         -5    1    3    3    0  501  0.14765502083E+02 -0.25095839472E+02 -0.54853249168E+01  0.30000000000E+02  0.47000000000E+01 0. -1.
</event>
<event>
 5    1  0.7693226E-002  0.6000000E+02  0.7546771E-02  0.1259629E+00
         11   -1    0    0    0    0  0.00000000000E+00  0.00000000000E+00  0.30000000000E+02  0.30000000000E+02  0.00000000000E+00 0.  1.
        -11   -1    0    0    0    0 -0.00000000000E+00 -0.00000000000E+00 -0.30000000000E+02  0.30000000000E+02  0.00000000000E+00 0. -1.
         23    2    1    2    0    0  0.00000000000E+00  0.00000000000E+00  0.00000000000E+00  0.60000000000E+02  0.60000000000E+02 0.  0.
          5    1    3    3  501    0 -0.49423633238E+00 -0.13288252681E+02 -0.26478067738E+02  0.30000000000E+02  0.47000000000E+01 0. -1.
         -5    1    3    3    0  501  0.49423633238E+00  0.13288252681E+02  0.26478067738E+02  0.30000000000E+02  0.47000000000E+01 0.  1.
</event>
<event>
 5    1  0.7693226E-002  0.6000000E+02  0.7546771E-02  0.1259629E+00
         11   -1    0    0    0    0  0.00000000000E+00  0.00000000000E+00  0.30000000000E+02  0.30000000000E+02  0.00000000000E+00 0. -1.
        -11   -1    0    0    0    0 -0.00000000000E+00 -0.00000000000E+00 -0.30000000000E+02  0.30000000000E+02  0.00000000000E+00 0.  1.
         23    2    1    2    0    0  0.00000000000E+00  0.00000000000E+00  0.00000000000E+00  0.60000000000E+02  0.60000000000E+02 0.  0.
          5    1    3    3  501    0 -0.66595822393E+01  0.34136871551E+01 -0.28668915299E+02  0.30000000000E+02  0.47000000000E+01 0.  1.
         -5    1    3    3    0  501  0.66595822393E+01 -0.34136871551E+01  0.28668915299E+02  0.30000000000E+02  0.47000000000E+01 0. -1.
</event>
<event>
 5    1  0.7693226E-002  0.6000000E+02  0.7546771E-02  0.1259629E+00
         11   -1    0    0    0    0  0.00000000000E+00  0.00000000000E+00  0.30000000000E+02  0.30000000000E+02  0.00000000000E+00 0.  1.
        -11   -1    0    0    0    0 -0.00000000000E+00 -0.00000000000E+00 -0.30000000000E+02  0.30000000000E+02  0.00000000000E+00 0. -1.
         23    2    1    2    0    0  0.00000000000E+00  0.00000000000E+00  0.00000000000E+00  0.60000000000E+02  0.60000000000E+02 0.  0.
          5    1    3    3  501    0  0.19321795772E+02  0.10763514066E+02  0.19716109481E+02  0.30000000000E+02  0.47000000000E+01 0.  1.
         -5    1    3    3    0  501 -0.19321795772E+02 -0.10763514066E+02 -0.19716109481E+02  0.30000000000E+02  0.47000000000E+01 0. -1.
</event>
<event>
 5    1  0.7693226E-002  0.6000000E+02  0.7546771E-02  0.1259629E+00
         11   -1    0    0    0    0  0.00000000000E+00  0.00000000000E+00  0.30000000000E+02  0.30000000000E+02  0.00000000000E+00 0.  1.
        -11   -1    0    0    0    0 -0.00000000000E+00 -0.00000000000E+00 -0.30000000000E+02  0.30000000000E+02  0.00000000000E+00 0. -1.
         23    2    1    2    0    0  0.00000000000E+00  0.00000000000E+00  0.00000000000E+00  0.60000000000E+02  0.60000000000E+02 0.  0.
          5    1    3    3  501    0  0.16366319451E+02 -0.67763328457E+01 -0.23751524178E+02  0.30000000000E+02  0.47000000000E+01 0. -1.
         -5    1    3    3    0  501 -0.16366319451E+02  0.67763328457E+01  0.23751524178E+02  0.30000000000E+02  0.47000000000E+01 0.  1.
</event>
<event>
 5    1  0.7693226E-002  0.6000000E+02  0.7546771E-02  0.1259629E+00
         11   -1    0    0    0    0  0.00000000000E+00  0.00000000000E+00  0.30000000000E+02  0.30000000000E+02  0.00000000000E+00 0. -1.
        -11   -1    0    0    0    0 -0.00000000000E+00 -0.00000000000E+00 -0.30000000000E+02  0.30000000000E+02  0.00000000000E+00 0.  1.
         23    2    1    2    0    0  0.00000000000E+00  0.00000000000E+00  0.00000000000E+00  0.60000000000E+02  0.60000000000E+02 0.  0.
          5    1    3    3  501    0  0.61002167496E+01 -0.41246527424E+01 -0.28699905842E+02  0.30000000000E+02  0.47000000000E+01 0.  1.
         -5    1    3    3    0  501 -0.61002167496E+01  0.41246527424E+01  0.28699905842E+02  0.30000000000E+02  0.47000000000E+01 0. -1.
</event>
<event>
 5    1  0.7693226E-002  0.6000000E+02  0.7546771E-02  0.1259629E+00
         11   -1    0    0    0    0  0.00000000000E+00  0.00000000000E+00  0.30000000000E+02  0.30000000000E+02  0.00000000000E+00 0.  1.
        -11   -1    0    0    0    0 -0.00000000000E+00 -0.00000000000E+00 -0.30000000000E+02  0.30000000000E+02  0.00000000000E+00 0. -1.
         23    2    1    2    0    0  0.00000000000E+00  0.00000000000E+00  0.00000000000E+00  0.60000000000E+02  0.60000000000E+02 0.  0.
          5    1    3    3  501    0 -0.14877723820E+02 -0.14575918209E+02 -0.21073821255E+02  0.30000000000E+02  0.47000000000E+01 0. -1.
         -5    1    3    3    0  501  0.14877723820E+02  0.14575918209E+02  0.21073821255E+02  0.30000000000E+02  0.47000000000E+01 0.  1.
</event>
<event>
 5    1  0.7693226E-002  0.6000000E+02  0.7546771E-02  0.1259629E+00
         11   -1    0    0    0    0  0.00000000000E+00  0.00000000000E+00  0.30000000000E+02  0.30000000000E+02  0.00000000000E+00 0. -1.
        -11   -1    0    0    0    0 -0.00000000000E+00 -0.00000000000E+00 -0.30000000000E+02  0.30000000000E+02  0.00000000000E+00 0.  1.
         23    2    1    2    0    0  0.00000000000E+00  0.00000000000E+00  0.00000000000E+00  0.60000000000E+02  0.60000000000E+02 0.  0.
          5    1    3    3  501    0  0.12308038587E+02 -0.14295459072E+02 -0.22848676900E+02  0.30000000000E+02  0.47000000000E+01 0.  1.
         -5    1    3    3    0  501 -0.12308038587E+02  0.14295459072E+02  0.22848676900E+02  0.30000000000E+02  0.47000000000E+01 0. -1.
</event>
<event>
 5    1  0.7693226E-002  0.6000000E+02  0.7546771E-02  0.1259629E+00
         11   -1    0    0    0    0  0.00000000000E+00  0.00000000000E+00  0.30000000000E+02  0.30000000000E+02  0.00000000000E+00 0.  1.
        -11   -1    0    0    0    0 -0.00000000000E+00 -0.00000000000E+00 -0.30000000000E+02  0.30000000000E+02  0.00000000000E+00 0. -1.
         23    2    1    2    0    0  0.00000000000E+00  0.00000000000E+00  0.00000000000E+00  0.60000000000E+02  0.60000000000E+02 0.  0.
          5    1    3    3  501    0  0.14733356155E+02  0.24350894264E+02 -0.82384564675E+01  0.30000000000E+02  0.47000000000E+01 0. -1.
         -5    1    3    3    0  501 -0.14733356155E+02 -0.24350894264E+02  0.82384564675E+01  0.30000000000E+02  0.47000000000E+01 0.  1.
</event>
<event>
 5    1  0.7693226E-002  0.6000000E+02  0.7546771E-02  0.1259629E+00
         11   -1    0    0    0    0  0.00000000000E+00  0.00000000000E+00  0.30000000000E+02  0.30000000000E+02  0.00000000000E+00 0.  1.
        -11   -1    0    0    0    0 -0.00000000000E+00 -0.00000000000E+00 -0.30000000000E+02  0.30000000000E+02  0.00000000000E+00 0. -1.
         23    2    1    2    0    0  0.00000000000E+00  0.00000000000E+00  0.00000000000E+00  0.60000000000E+02  0.60000000000E+02 0.  0.
          5    1    3    3  501    0 -0.29162499751E+02 -0.37689900746E+00 -0.52265242176E+01  0.30000000000E+02  0.47000000000E+01 0.  1.
         -5    1    3    3    0  501  0.29162499751E+02  0.37689900746E+00  0.52265242176E+01  0.30000000000E+02  0.47000000000E+01 0. -1.
</event>
<event>
 5    1  0.7693226E-002  0.6000000E+02  0.7546771E-02  0.1259629E+00
         11   -1    0    0    0    0  0.00000000000E+00  0.00000000000E+00  0.30000000000E+02  0.30000000000E+02  0.00000000000E+00 0.  1.
        -11   -1    0    0    0    0 -0.00000000000E+00 -0.00000000000E+00 -0.30000000000E+02  0.30000000000E+02  0.00000000000E+00 0. -1.
         23    2    1    2    0    0  0.00000000000E+00  0.00000000000E+00  0.00000000000E+00  0.60000000000E+02  0.60000000000E+02 0.  0.
          5    1    3    3  501    0 -0.27224597528E+02  0.10337444478E+02  0.54652109849E+01  0.30000000000E+02  0.47000000000E+01 0. -1.
         -5    1    3    3    0  501  0.27224597528E+02 -0.10337444478E+02 -0.54652109849E+01  0.30000000000E+02  0.47000000000E+01 0.  1.
</event>
<event>
 5    1  0.7693226E-002  0.6000000E+02  0.7546771E-02  0.1259629E+00
         11   -1    0    0    0    0  0.00000000000E+00  0.00000000000E+00  0.30000000000E+02  0.30000000000E+02  0.00000000000E+00 0.  1.
        -11   -1    0    0    0    0 -0.00000000000E+00 -0.00000000000E+00 -0.30000000000E+02  0.30000000000E+02  0.00000000000E+00 0. -1.
         23    2    1    2    0    0  0.00000000000E+00  0.00000000000E+00  0.00000000000E+00  0.60000000000E+02  0.60000000000E+02 0.  0.
          5    1    3    3  501    0  0.99194054489E+01 -0.16357640349E+02 -0.22626157380E+02  0.30000000000E+02  0.47000000000E+01 0. -1.
         -5    1    3    3    0  501 -0.99194054489E+01  0.16357640349E+02  0.22626157380E+02  0.30000000000E+02  0.47000000000E+01 0.  1.
</event>
<event>
 5    1  0.7693226E-002  0.6000000E+02  0.7546771E-02  0.1259629E+00
         11   -1    0    0    0    0  0.00000000000E+00  0.00000000000E+00  0.30000000000E+02  0.30000000000E+02  0.00000000000E+00 0.  1.
        -11   -1    0    0    0    0 -0.00000000000E+00 -0.00000000000E+00 -0.30000000000E+02  0.30000000000E+02  0.00000000000E+00 0. -1.
         23    2    1    2    0    0  0.00000000000E+00  0.00000000000E+00  0.00000000000E+00  0.60000000000E+02  0.60000000000E+02 0.  0.
          5    1    3    3  501    0 -0.24699188693E+02  0.97966380044E+01 -0.13110528658E+02  0.30000000000E+02  0.47000000000E+01 0. -1.
         -5    1    3    3    0  501  0.24699188693E+02 -0.97966380044E+01  0.13110528658E+02  0.30000000000E+02  0.47000000000E+01 0.  1.
</event>
<event>
 5    1  0.7693226E-002  0.6000000E+02  0.7546771E-02  0.1259629E+00
         11   -1    0    0    0    0  0.00000000000E+00  0.00000000000E+00  0.30000000000E+02  0.30000000000E+02  0.00000000000E+00 0. -1.
        -11   -1    0    0    0    0 -0.00000000000E+00 -0.00000000000E+00 -0.30000000000E+02  0.30000000000E+02  0.00000000000E+00 0.  1.
         23    2    1    2    0    0  0.00000000000E+00  0.00000000000E+00  0.00000000000E+00  0.60000000000E+02  0.60000000000E+02 0.  0.
          5    1    3    3  501    0 -0.22254130008E+02  0.61625017731E+01 -0.18565755290E+02  0.30000000000E+02  0.47000000000E+01 0.  1.
         -5    1    3    3    0  501  0.22254130008E+02 -0.61625017731E+01  0.18565755290E+02  0.30000000000E+02  0.47000000000E+01 0. -1.
</event>
<event>
 5    1  0.7693226E-002  0.6000000E+02  0.7546771E-02  0.1259629E+00
         11   -1    0    0    0    0  0.00000000000E+00  0.00000000000E+00  0.30000000000E+02  0.30000000000E+02  0.00000000000E+00 0.  1.
        -11   -1    0    0    0    0 -0.00000000000E+00 -0.00000000000E+00 -0.30000000000E+02  0.30000000000E+02  0.00000000000E+00 0. -1.
         23    2    1    2    0    0  0.00000000000E+00  0.00000000000E+00  0.00000000000E+00  0.60000000000E+02  0.60000000000E+02 0.  0.
          5    1    3    3  501    0  0.20713726246E+02 -0.13936374370E+02 -0.15957099185E+02  0.30000000000E+02  0.47000000000E+01 0. -1.
         -5    1    3    3    0  501 -0.20713726246E+02  0.13936374370E+02  0.15957099185E+02  0.30000000000E+02  0.47000000000E+01 0.  1.
</event>
<event>
 5    1  0.7693226E-002  0.6000000E+02  0.7546771E-02  0.1259629E+00
         11   -1    0    0    0    0  0.00000000000E+00  0.00000000000E+00  0.30000000000E+02  0.30000000000E+02  0.00000000000E+00 0.  1.
        -11   -1    0    0    0    0 -0.00000000000E+00 -0.00000000000E+00 -0.30000000000E+02  0.30000000000E+02  0.00000000000E+00 0. -1.
         23    2    1    2    0    0  0.00000000000E+00  0.00000000000E+00  0.00000000000E+00  0.60000000000E+02  0.60000000000E+02 0.  0.
          5    1    3    3  501    0  0.20631472594E+02 -0.15236742124E+02 -0.14835566320E+02  0.30000000000E+02  0.47000000000E+01 0. -1.
         -5    1    3    3    0  501 -0.20631472594E+02  0.15236742124E+02  0.14835566320E+02  0.30000000000E+02  0.47000000000E+01 0.  1.
</event>
<event>
 5    1  0.7693226E-002  0.6000000E+02  0.7546771E-02  0.1259629E+00
         11   -1    0    0    0    0  0.00000000000E+00  0.00000000000E+00  0.30000000000E+02  0.30000000000E+02  0.00000000000E+00 0.  1.
        -11   -1    0    0    0    0 -0.00000000000E+00 -0.00000000000E+00 -0.30000000000E+02  0.30000000000E+02  0.00000000000E+00 0. -1.
         23    2    1    2    0    0  0.00000000000E+00  0.00000000000E+00  0.00000000000E+00  0.60000000000E+02  0.60000000000E+02 0.  0.
          5    1    3    3  501    0 -0.16234700563E+02 -0.27237779031E+01 -0.24635858653E+02  0.30000000000E+02  0.47000000000E+01 0. -1.
         -5    1    3    3    0  501  0.16234700563E+02  0.27237779031E+01  0.24635858653E+02  0.30000000000E+02  0.47000000000E+01 0.  1.
</event>
<event>
 5    1  0.7693226E-002  0.6000000E+02  0.7546771E-02  0.1259629E+00
         11   -1    0    0    0    0  0.00000000000E+00  0.00000000000E+00  0.30000000000E+02  0.30000000000E+02  0.00000000000E+00 0.  1.
        -11   -1    0    0    0    0 -0.00000000000E+00 -0.00000000000E+00 -0.30000000000E+02  0.30000000000E+02  0.00000000000E+00 0. -1.
         23    2    1    2    0    0  0.00000000000E+00  0.00000000000E+00  0.00000000000E+00  0.60000000000E+02  0.60000000000E+02 0.  0.
          5    1    3    3  501    0 -0.26211140063E+02 -0.32029558737E+01 -0.13439762285E+02  0.30000000000E+02  0.47000000000E+01 0. -1.
         -5    1    3    3    0  501  0.26211140063E+02  0.32029558737E+01  0.13439762285E+02  0.30000000000E+02  0.47000000000E+01 0.  1.
</event>
<event>
 5    1  0.7693226E-002  0.6000000E+02  0.7546771E-02  0.1259629E+00
         11   -1    0    0    0    0  0.00000000000E+00  0.00000000000E+00  0.30000000000E+02  0.30000000000E+02  0.00000000000E+00 0. -1.
        -11   -1    0    0    0    0 -0.00000000000E+00 -0.00000000000E+00 -0.30000000000E+02  0.30000000000E+02  0.00000000000E+00 0.  1.
         23    2    1    2    0    0  0.00000000000E+00  0.00000000000E+00  0.00000000000E+00  0.60000000000E+02  0.60000000000E+02 0.  0.
          5    1    3    3  501    0  0.10967761964E+01  0.97424289670E+01 -0.27960546486E+02  0.30000000000E+02  0.47000000000E+01 0.  1.
         -5    1    3    3    0  501 -0.10967761964E+01 -0.97424289670E+01  0.27960546486E+02  0.30000000000E+02  0.47000000000E+01 0. -1.
</event>
<event>
 5    1  0.7693226E-002  0.6000000E+02  0.7546771E-02  0.1259629E+00
         11   -1    0    0    0    0  0.00000000000E+00  0.00000000000E+00  0.30000000000E+02  0.30000000000E+02  0.00000000000E+00 0. -1.
        -11   -1    0    0    0    0 -0.00000000000E+00 -0.00000000000E+00 -0.30000000000E+02  0.30000000000E+02  0.00000000000E+00 0.  1.
         23    2    1    2    0    0  0.00000000000E+00  0.00000000000E+00  0.00000000000E+00  0.60000000000E+02  0.60000000000E+02 0.  0.
          5    1    3    3  501    0  0.20631016082E+02  0.20945655495E+02 -0.36811263681E+01  0.30000000000E+02  0.47000000000E+01 0.  1.
         -5    1    3    3    0  501 -0.20631016082E+02 -0.20945655495E+02  0.36811263681E+01  0.30000000000E+02  0.47000000000E+01 0. -1.
</event>
<event>
 5    1  0.7693226E-002  0.6000000E+02  0.7546771E-02  0.1259629E+00
         11   -1    0    0    0    0  0.00000000000E+00  0.00000000000E+00  0.30000000000E+02  0.30000000000E+02  0.00000000000E+00 0. -1.
        -11   -1    0    0    0    0 -0.00000000000E+00 -0.00000000000E+00 -0.30000000000E+02  0.30000000000E+02  0.00000000000E+00 0.  1.
         23    2    1    2    0    0  0.00000000000E+00  0.00000000000E+00  0.00000000000E+00  0.60000000000E+02  0.60000000000E+02 0.  0.
          5    1    3    3  501    0  0.53134627372E+01  0.28376129155E+02  0.66687635955E+01  0.30000000000E+02  0.47000000000E+01 0.  1.
         -5    1    3    3    0  501 -0.53134627372E+01 -0.28376129155E+02 -0.66687635955E+01  0.30000000000E+02  0.47000000000E+01 0. -1.
</event>
<event>
 5    1  0.7693226E-002  0.6000000E+02  0.7546771E-02  0.1259629E+00
         11   -1    0    0    0    0  0.00000000000E+00  0.00000000000E+00  0.30000000000E+02  0.30000000000E+02  0.00000000000E+00 0. -1.
        -11   -1    0    0    0    0 -0.00000000000E+00 -0.00000000000E+00 -0.30000000000E+02  0.30000000000E+02  0.00000000000E+00 0.  1.
         23    2    1    2    0    0  0.00000000000E+00  0.00000000000E+00  0.00000000000E+00  0.60000000000E+02  0.60000000000E+02 0.  0.
          5    1    3    3  501    0  0.14632288255E+02 -0.54929185087E+01 -0.25172087452E+02  0.30000000000E+02  0.47000000000E+01 0.  1.
         -5    1    3    3    0  501 -0.14632288255E+02  0.54929185087E+01  0.25172087452E+02  0.30000000000E+02  0.47000000000E+01 0. -1.
</event>
<event>
 5    1  0.7693226E-002  0.6000000E+02  0.7546771E-02  0.1259629E+00
         11   -1    0    0    0    0  0.00000000000E+00  0.00000000000E+00  0.30000000000E+02  0.30000000000E+02  0.00000000000E+00 0.  1.
        -11   -1    0    0    0    0 -0.00000000000E+00 -0.00000000000E+00 -0.30000000000E+02  0.30000000000E+02  0.00000000000E+00 0. -1.
         23    2    1    2    0    0  0.00000000000E+00  0.00000000000E+00  0.00000000000E+00  0.60000000000E+02  0.60000000000E+02 0.  0.
          5    1    3    3  501    0  0.19226599368E+01 -0.20773231178E+01 -0.29494035116E+02  0.30000000000E+02  0.47000000000E+01 0. -1.
         -5    1    3    3    0  501 -0.19226599368E+01  0.20773231178E+01  0.29494035116E+02  0.30000000000E+02  0.47000000000E+01 0.  1.
</event>
<event>
 5    1  0.7693226E-002  0.6000000E+02  0.7546771E-02  0.1259629E+00
         11   -1    0    0    0    0  0.00000000000E+00  0.00000000000E+00  0.30000000000E+02  0.30000000000E+02  0.00000000000E+00 0.  1.
        -11   -1    0    0    0    0 -0.00000000000E+00 -0.00000000000E+00 -0.30000000000E+02  0.30000000000E+02  0.00000000000E+00 0. -1.
         23    2    1    2    0    0  0.00000000000E+00  0.00000000000E+00  0.00000000000E+00  0.60000000000E+02  0.60000000000E+02 0.  0.
          5    1    3    3  501    0 -0.18084942404E+02  0.93253404322E+01 -0.21537940572E+02  0.30000000000E+02  0.47000000000E+01 0. -1.
         -5    1    3    3    0  501  0.18084942404E+02 -0.93253404322E+01  0.21537940572E+02  0.30000000000E+02  0.47000000000E+01 0.  1.
</event>
<event>
 5    1  0.7693226E-002  0.6000000E+02  0.7546771E-02  0.1259629E+00
         11   -1    0    0    0    0  0.00000000000E+00  0.00000000000E+00  0.30000000000E+02  0.30000000000E+02  0.00000000000E+00 0.  1.
        -11   -1    0    0    0    0 -0.00000000000E+00 -0.00000000000E+00 -0.30000000000E+02  0.30000000000E+02  0.00000000000E+00 0. -1.
         23    2    1    2    0    0  0.00000000000E+00  0.00000000000E+00  0.00000000000E+00  0.60000000000E+02  0.60000000000E+02 0.  0.
          5    1    3    3  501    0 -0.18947009336E+02  0.98216870352E+01 -0.20553717450E+02  0.30000000000E+02  0.47000000000E+01 0. -1.
         -5    1    3    3    0  501  0.18947009336E+02 -0.98216870352E+01  0.20553717450E+02  0.30000000000E+02  0.47000000000E+01 0.  1.
</event>
<event>
 5    1  0.7693226E-002  0.6000000E+02  0.7546771E-02  0.1259629E+00
         11   -1    0    0    0    0  0.00000000000E+00  0.00000000000E+00  0.30000000000E+02  0.30000000000E+02  0.00000000000E+00 0.  1.
        -11   -1    0    0    0    0 -0.00000000000E+00 -0.00000000000E+00 -0.30000000000E+02  0.30000000000E+02  0.00000000000E+00 0. -1.
         23    2    1    2    0    0  0.00000000000E+00  0.00000000000E+00  0.00000000000E+00  0.60000000000E+02  0.60000000000E+02 0.  0.
          5    1    3    3  501    0  0.16420864103E+01 -0.26225520298E+02  0.13690713544E+02  0.30000000000E+02  0.47000000000E+01 0.  1.
         -5    1    3    3    0  501 -0.16420864103E+01  0.26225520298E+02 -0.13690713544E+02  0.30000000000E+02  0.47000000000E+01 0. -1.
</event>
<event>
 5    1  0.7693226E-002  0.6000000E+02  0.7546771E-02  0.1259629E+00
         11   -1    0    0    0    0  0.00000000000E+00  0.00000000000E+00  0.30000000000E+02  0.30000000000E+02  0.00000000000E+00 0.  1.
        -11   -1    0    0    0    0 -0.00000000000E+00 -0.00000000000E+00 -0.30000000000E+02  0.30000000000E+02  0.00000000000E+00 0. -1.
         23    2    1    2    0    0  0.00000000000E+00  0.00000000000E+00  0.00000000000E+00  0.60000000000E+02  0.60000000000E+02 0.  0.
          5    1    3    3  501    0 -0.34516447366E+01 -0.10574986982E+02 -0.27462079290E+02  0.30000000000E+02  0.47000000000E+01 0. -1.
         -5    1    3    3    0  501  0.34516447366E+01  0.10574986982E+02  0.27462079290E+02  0.30000000000E+02  0.47000000000E+01 0.  1.
</event>
<event>
 5    1  0.7693226E-002  0.6000000E+02  0.7546771E-02  0.1259629E+00
         11   -1    0    0    0    0  0.00000000000E+00  0.00000000000E+00  0.30000000000E+02  0.30000000000E+02  0.00000000000E+00 0.  1.
        -11   -1    0    0    0    0 -0.00000000000E+00 -0.00000000000E+00 -0.30000000000E+02  0.30000000000E+02  0.00000000000E+00 0. -1.
         23    2    1    2    0    0  0.00000000000E+00  0.00000000000E+00  0.00000000000E+00  0.60000000000E+02  0.60000000000E+02 0.  0.
          5    1    3    3  501    0  0.76995418182E+01  0.22510684583E+02 -0.17660581401E+02  0.30000000000E+02  0.47000000000E+01 0. -1.
         -5    1    3    3    0  501 -0.76995418182E+01 -0.22510684583E+02  0.17660581401E+02  0.30000000000E+02  0.47000000000E+01 0.  1.
</event>
<event>
 5    1  0.7693226E-002  0.6000000E+02  0.7546771E-02  0.1259629E+00
         11   -1    0    0    0    0  0.00000000000E+00  0.00000000000E+00  0.30000000000E+02  0.30000000000E+02  0.00000000000E+00 0. -1.
        -11   -1    0    0    0    0 -0.00000000000E+00 -0.00000000000E+00 -0.30000000000E+02  0.30000000000E+02  0.00000000000E+00 0.  1.
         23    2    1    2    0    0  0.00000000000E+00  0.00000000000E+00  0.00000000000E+00  0.60000000000E+02  0.60000000000E+02 0.  0.
          5    1    3    3  501    0  0.20085844083E+01 -0.10672869822E+02  0.27567470657E+02  0.30000000000E+02  0.47000000000E+01 0. -1.
         -5    1    3    3    0  501 -0.20085844083E+01  0.10672869822E+02 -0.27567470657E+02  0.30000000000E+02  0.47000000000E+01 0.  1.
</event>
<event>
 5    1  0.7693226E-002  0.6000000E+02  0.7546771E-02  0.1259629E+00
         11   -1    0    0    0    0  0.00000000000E+00  0.00000000000E+00  0.30000000000E+02  0.30000000000E+02  0.00000000000E+00 0.  1.
        -11   -1    0    0    0    0 -0.00000000000E+00 -0.00000000000E+00 -0.30000000000E+02  0.30000000000E+02  0.00000000000E+00 0. -1.
         23    2    1    2    0    0  0.00000000000E+00  0.00000000000E+00  0.00000000000E+00  0.60000000000E+02  0.60000000000E+02 0.  0.
          5    1    3    3  501    0 -0.21586134068E+02 -0.17875145991E+01 -0.20217655837E+02  0.30000000000E+02  0.47000000000E+01 0. -1.
         -5    1    3    3    0  501  0.21586134068E+02  0.17875145991E+01  0.20217655837E+02  0.30000000000E+02  0.47000000000E+01 0.  1.
</event>
<event>
 5    1  0.7693226E-002  0.6000000E+02  0.7546771E-02  0.1259629E+00
         11   -1    0    0    0    0  0.00000000000E+00  0.00000000000E+00  0.30000000000E+02  0.30000000000E+02  0.00000000000E+00 0.  1.
        -11   -1    0    0    0    0 -0.00000000000E+00 -0.00000000000E+00 -0.30000000000E+02  0.30000000000E+02  0.00000000000E+00 0. -1.
         23    2    1    2    0    0  0.00000000000E+00  0.00000000000E+00  0.00000000000E+00  0.60000000000E+02  0.60000000000E+02 0.  0.
          5    1    3    3  501    0  0.27743192670E+02 -0.85964178771E+01  0.58589128836E+01  0.30000000000E+02  0.47000000000E+01 0. -1.
         -5    1    3    3    0  501 -0.27743192670E+02  0.85964178771E+01 -0.58589128836E+01  0.30000000000E+02  0.47000000000E+01 0.  1.
</event>
<event>
 5    1  0.7693226E-002  0.6000000E+02  0.7546771E-02  0.1259629E+00
         11   -1    0    0    0    0  0.00000000000E+00  0.00000000000E+00  0.30000000000E+02  0.30000000000E+02  0.00000000000E+00 0.  1.
        -11   -1    0    0    0    0 -0.00000000000E+00 -0.00000000000E+00 -0.30000000000E+02  0.30000000000E+02  0.00000000000E+00 0. -1.
         23    2    1    2    0    0  0.00000000000E+00  0.00000000000E+00  0.00000000000E+00  0.60000000000E+02  0.60000000000E+02 0.  0.
          5    1    3    3  501    0 -0.25648635634E+01  0.47609899257E+00 -0.29514484658E+02  0.30000000000E+02  0.47000000000E+01 0. -1.
         -5    1    3    3    0  501  0.25648635634E+01 -0.47609899257E+00  0.29514484658E+02  0.30000000000E+02  0.47000000000E+01 0.  1.
</event>
<event>
 5    1  0.7693226E-002  0.6000000E+02  0.7546771E-02  0.1259629E+00
         11   -1    0    0    0    0  0.00000000000E+00  0.00000000000E+00  0.30000000000E+02  0.30000000000E+02  0.00000000000E+00 0.  1.
        -11   -1    0    0    0    0 -0.00000000000E+00 -0.00000000000E+00 -0.30000000000E+02  0.30000000000E+02  0.00000000000E+00 0. -1.
         23    2    1    2    0    0  0.00000000000E+00  0.00000000000E+00  0.00000000000E+00  0.60000000000E+02  0.60000000000E+02 0.  0.
          5    1    3    3  501    0  0.93766075557E+00  0.71258810184E+01 -0.28744610139E+02  0.30000000000E+02  0.47000000000E+01 0. -1.
         -5    1    3    3    0  501 -0.93766075557E+00 -0.71258810184E+01  0.28744610139E+02  0.30000000000E+02  0.47000000000E+01 0.  1.
</event>
<event>
 5    1  0.7693226E-002  0.6000000E+02  0.7546771E-02  0.1259629E+00
         11   -1    0    0    0    0  0.00000000000E+00  0.00000000000E+00  0.30000000000E+02  0.30000000000E+02  0.00000000000E+00 0.  1.
        -11   -1    0    0    0    0 -0.00000000000E+00 -0.00000000000E+00 -0.30000000000E+02  0.30000000000E+02  0.00000000000E+00 0. -1.
         23    2    1    2    0    0  0.00000000000E+00  0.00000000000E+00  0.00000000000E+00  0.60000000000E+02  0.60000000000E+02 0.  0.
          5    1    3    3  501    0 -0.26229297961E+02 -0.72279749035E+01 -0.11734151323E+02  0.30000000000E+02  0.47000000000E+01 0. -1.
         -5    1    3    3    0  501  0.26229297961E+02  0.72279749035E+01  0.11734151323E+02  0.30000000000E+02  0.47000000000E+01 0.  1.
</event>
<event>
 5    1  0.7693226E-002  0.6000000E+02  0.7546771E-02  0.1259629E+00
         11   -1    0    0    0    0  0.00000000000E+00  0.00000000000E+00  0.30000000000E+02  0.30000000000E+02  0.00000000000E+00 0.  1.
        -11   -1    0    0    0    0 -0.00000000000E+00 -0.00000000000E+00 -0.30000000000E+02  0.30000000000E+02  0.00000000000E+00 0. -1.
         23    2    1    2    0    0  0.00000000000E+00  0.00000000000E+00  0.00000000000E+00  0.60000000000E+02  0.60000000000E+02 0.  0.
          5    1    3    3  501    0 -0.25647897024E+00 -0.25569598277E+02 -0.14967961201E+02  0.30000000000E+02  0.47000000000E+01 0. -1.
         -5    1    3    3    0  501  0.25647897024E+00  0.25569598277E+02  0.14967961201E+02  0.30000000000E+02  0.47000000000E+01 0.  1.
</event>
<event>
 5    1  0.7693226E-002  0.6000000E+02  0.7546771E-02  0.1259629E+00
         11   -1    0    0    0    0  0.00000000000E+00  0.00000000000E+00  0.30000000000E+02  0.30000000000E+02  0.00000000000E+00 0. -1.
        -11   -1    0    0    0    0 -0.00000000000E+00 -0.00000000000E+00 -0.30000000000E+02  0.30000000000E+02  0.00000000000E+00 0.  1.
         23    2    1    2    0    0  0.00000000000E+00  0.00000000000E+00  0.00000000000E+00  0.60000000000E+02  0.60000000000E+02 0.  0.
          5    1    3    3  501    0 -0.14077094881E+02 -0.11814352592E+02 -0.23241481720E+02  0.30000000000E+02  0.47000000000E+01 0.  1.
         -5    1    3    3    0  501  0.14077094881E+02  0.11814352592E+02  0.23241481720E+02  0.30000000000E+02  0.47000000000E+01 0. -1.
</event>
<event>
 5    1  0.7693226E-002  0.6000000E+02  0.7546771E-02  0.1259629E+00
         11   -1    0    0    0    0  0.00000000000E+00  0.00000000000E+00  0.30000000000E+02  0.30000000000E+02  0.00000000000E+00 0.  1.
        -11   -1    0    0    0    0 -0.00000000000E+00 -0.00000000000E+00 -0.30000000000E+02  0.30000000000E+02  0.00000000000E+00 0. -1.
         23    2    1    2    0    0  0.00000000000E+00  0.00000000000E+00  0.00000000000E+00  0.60000000000E+02  0.60000000000E+02 0.  0.
          5    1    3    3  501    0 -0.12013056619E+02 -0.19950189644E+02  0.18319017545E+02  0.30000000000E+02  0.47000000000E+01 0.  1.
         -5    1    3    3    0  501  0.12013056619E+02  0.19950189644E+02 -0.18319017545E+02  0.30000000000E+02  0.47000000000E+01 0.  1.
</event>
<event>
 5    1  0.7693226E-002  0.6000000E+02  0.7546771E-02  0.1259629E+00
         11   -1    0    0    0    0  0.00000000000E+00  0.00000000000E+00  0.30000000000E+02  0.30000000000E+02  0.00000000000E+00 0.  1.
        -11   -1    0    0    0    0 -0.00000000000E+00 -0.00000000000E+00 -0.30000000000E+02  0.30000000000E+02  0.00000000000E+00 0. -1.
         23    2    1    2    0    0  0.00000000000E+00  0.00000000000E+00  0.00000000000E+00  0.60000000000E+02  0.60000000000E+02 0.  0.
          5    1    3    3  501    0  0.15764762573E+02  0.23048317175E+02  0.99074384389E+01  0.30000000000E+02  0.47000000000E+01 0. -1.
         -5    1    3    3    0  501 -0.15764762573E+02 -0.23048317175E+02 -0.99074384389E+01  0.30000000000E+02  0.47000000000E+01 0.  1.
</event>
<event>
 5    1  0.7693226E-002  0.6000000E+02  0.7546771E-02  0.1259629E+00
         11   -1    0    0    0    0  0.00000000000E+00  0.00000000000E+00  0.30000000000E+02  0.30000000000E+02  0.00000000000E+00 0. -1.
        -11   -1    0    0    0    0 -0.00000000000E+00 -0.00000000000E+00 -0.30000000000E+02  0.30000000000E+02  0.00000000000E+00 0.  1.
         23    2    1    2    0    0  0.00000000000E+00  0.00000000000E+00  0.00000000000E+00  0.60000000000E+02  0.60000000000E+02 0.  0.
          5    1    3    3  501    0 -0.17131834269E+02  0.93355350866E+00 -0.24156546368E+02  0.30000000000E+02  0.47000000000E+01 0.  1.
         -5    1    3    3    0  501  0.17131834269E+02 -0.93355350866E+00  0.24156546368E+02  0.30000000000E+02  0.47000000000E+01 0. -1.
</event>
<event>
 5    1  0.7693226E-002  0.6000000E+02  0.7546771E-02  0.1259629E+00
         11   -1    0    0    0    0  0.00000000000E+00  0.00000000000E+00  0.30000000000E+02  0.30000000000E+02  0.00000000000E+00 0.  1.
        -11   -1    0    0    0    0 -0.00000000000E+00 -0.00000000000E+00 -0.30000000000E+02  0.30000000000E+02  0.00000000000E+00 0. -1.
         23    2    1    2    0    0  0.00000000000E+00  0.00000000000E+00  0.00000000000E+00  0.60000000000E+02  0.60000000000E+02 0.  0.
          5    1    3    3  501    0  0.47152351916E+00 -0.16301238159E+02  0.24737770717E+02  0.30000000000E+02  0.47000000000E+01 0.  1.
         -5    1    3    3    0  501 -0.47152351916E+00  0.16301238159E+02 -0.24737770717E+02  0.30000000000E+02  0.47000000000E+01 0. -1.
</event>
<event>
 5    1  0.7693226E-002  0.6000000E+02  0.7546771E-02  0.1259629E+00
         11   -1    0    0    0    0  0.00000000000E+00  0.00000000000E+00  0.30000000000E+02  0.30000000000E+02  0.00000000000E+00 0. -1.
        -11   -1    0    0    0    0 -0.00000000000E+00 -0.00000000000E+00 -0.30000000000E+02  0.30000000000E+02  0.00000000000E+00 0.  1.
         23    2    1    2    0    0  0.00000000000E+00  0.00000000000E+00  0.00000000000E+00  0.60000000000E+02  0.60000000000E+02 0.  0.
          5    1    3    3  501    0 -0.24797205669E+02  0.15718207275E+02 -0.39933132941E+01  0.30000000000E+02  0.47000000000E+01 0.  1.
         -5    1    3    3    0  501  0.24797205669E+02 -0.15718207275E+02  0.39933132941E+01  0.30000000000E+02  0.47000000000E+01 0. -1.
</event>
<event>
 5    1  0.7693226E-002  0.6000000E+02  0.7546771E-02  0.1259629E+00
         11   -1    0    0    0    0  0.00000000000E+00  0.00000000000E+00  0.30000000000E+02  0.30000000000E+02  0.00000000000E+00 0. -1.
        -11   -1    0    0    0    0 -0.00000000000E+00 -0.00000000000E+00 -0.30000000000E+02  0.30000000000E+02  0.00000000000E+00 0.  1.
         23    2    1    2    0    0  0.00000000000E+00  0.00000000000E+00  0.00000000000E+00  0.60000000000E+02  0.60000000000E+02 0.  0.
          5    1    3    3  501    0  0.13343497297E+02 -0.25336877893E+02 -0.76094479756E+01  0.30000000000E+02  0.47000000000E+01 0.  1.
         -5    1    3    3    0  501 -0.13343497297E+02  0.25336877893E+02  0.76094479756E+01  0.30000000000E+02  0.47000000000E+01 0. -1.
</event>
<event>
 5    1  0.7693226E-002  0.6000000E+02  0.7546771E-02  0.1259629E+00
         11   -1    0    0    0    0  0.00000000000E+00  0.00000000000E+00  0.30000000000E+02  0.30000000000E+02  0.00000000000E+00 0.  1.
        -11   -1    0    0    0    0 -0.00000000000E+00 -0.00000000000E+00 -0.30000000000E+02  0.30000000000E+02  0.00000000000E+00 0. -1.
         23    2    1    2    0    0  0.00000000000E+00  0.00000000000E+00  0.00000000000E+00  0.60000000000E+02  0.60000000000E+02 0.  0.
          5    1    3    3  501    0  0.14189948898E+02  0.12808785921E+02 -0.22638249789E+02  0.30000000000E+02  0.47000000000E+01 0. -1.
         -5    1    3    3    0  501 -0.14189948898E+02 -0.12808785921E+02  0.22638249789E+02  0.30000000000E+02  0.47000000000E+01 0.  1.
</event>
<event>
 5    1  0.7693226E-002  0.6000000E+02  0.7546771E-02  0.1259629E+00
         11   -1    0    0    0    0  0.00000000000E+00  0.00000000000E+00  0.30000000000E+02  0.30000000000E+02  0.00000000000E+00 0.  1.
        -11   -1    0    0    0    0 -0.00000000000E+00 -0.00000000000E+00 -0.30000000000E+02  0.30000000000E+02  0.00000000000E+00 0. -1.
         23    2    1    2    0    0  0.00000000000E+00  0.00000000000E+00  0.00000000000E+00  0.60000000000E+02  0.60000000000E+02 0.  0.
          5    1    3    3  501    0 -0.26339664450E+02 -0.13097807245E+02 -0.35467621930E+01  0.30000000000E+02  0.47000000000E+01 0. -1.
         -5    1    3    3    0  501  0.26339664450E+02  0.13097807245E+02  0.35467621930E+01  0.30000000000E+02  0.47000000000E+01 0.  1.
</event>
<event>
 5    1  0.7693226E-002  0.6000000E+02  0.7546771E-02  0.1259629E+00
         11   -1    0    0    0    0  0.00000000000E+00  0.00000000000E+00  0.30000000000E+02  0.30000000000E+02  0.00000000000E+00 0.  1.
        -11   -1    0    0    0    0 -0.00000000000E+00 -0.00000000000E+00 -0.30000000000E+02  0.30000000000E+02  0.00000000000E+00 0. -1.
         23    2    1    2    0    0  0.00000000000E+00  0.00000000000E+00  0.00000000000E+00  0.60000000000E+02  0.60000000000E+02 0.  0.
          5    1    3    3  501    0 -0.21703817948E+02 -0.14134356582E+02 -0.14390074722E+02  0.30000000000E+02  0.47000000000E+01 0. -1.
         -5    1    3    3    0  501  0.21703817948E+02  0.14134356582E+02  0.14390074722E+02  0.30000000000E+02  0.47000000000E+01 0.  1.
</event>
<event>
 5    1  0.7693226E-002  0.6000000E+02  0.7546771E-02  0.1259629E+00
         11   -1    0    0    0    0  0.00000000000E+00  0.00000000000E+00  0.30000000000E+02  0.30000000000E+02  0.00000000000E+00 0.  1.
        -11   -1    0    0    0    0 -0.00000000000E+00 -0.00000000000E+00 -0.30000000000E+02  0.30000000000E+02  0.00000000000E+00 0. -1.
         23    2    1    2    0    0  0.00000000000E+00  0.00000000000E+00  0.00000000000E+00  0.60000000000E+02  0.60000000000E+02 0.  0.
          5    1    3    3  501    0 -0.24392336415E+02 -0.15458291953E+02 -0.66306209431E+01  0.30000000000E+02  0.47000000000E+01 0. -1.
         -5    1    3    3    0  501  0.24392336415E+02  0.15458291953E+02  0.66306209431E+01  0.30000000000E+02  0.47000000000E+01 0.  1.
</event>
<event>
 5    1  0.7693226E-002  0.6000000E+02  0.7546771E-02  0.1259629E+00
         11   -1    0    0    0    0  0.00000000000E+00  0.00000000000E+00  0.30000000000E+02  0.30000000000E+02  0.00000000000E+00 0.  1.
        -11   -1    0    0    0    0 -0.00000000000E+00 -0.00000000000E+00 -0.30000000000E+02  0.30000000000E+02  0.00000000000E+00 0. -1.
         23    2    1    2    0    0  0.00000000000E+00  0.00000000000E+00  0.00000000000E+00  0.60000000000E+02  0.60000000000E+02 0.  0.
          5    1    3    3  501    0  0.17899172069E+02  0.23593394454E+02 -0.93881701820E+00  0.30000000000E+02  0.47000000000E+01 0. -1.
         -5    1    3    3    0  501 -0.17899172069E+02 -0.23593394454E+02  0.93881701820E+00  0.30000000000E+02  0.47000000000E+01 0.  1.
</event>
<event>
 5    1  0.7693226E-002  0.6000000E+02  0.7546771E-02  0.1259629E+00
         11   -1    0    0    0    0  0.00000000000E+00  0.00000000000E+00  0.30000000000E+02  0.30000000000E+02  0.00000000000E+00 0.  1.
        -11   -1    0    0    0    0 -0.00000000000E+00 -0.00000000000E+00 -0.30000000000E+02  0.30000000000E+02  0.00000000000E+00 0. -1.
         23    2    1    2    0    0  0.00000000000E+00  0.00000000000E+00  0.00000000000E+00  0.60000000000E+02  0.60000000000E+02 0.  0.
          5    1    3    3  501    0 -0.26462987876E+02 -0.19285437483E+01 -0.13187152523E+02  0.30000000000E+02  0.47000000000E+01 0. -1.
         -5    1    3    3    0  501  0.26462987876E+02  0.19285437483E+01  0.13187152523E+02  0.30000000000E+02  0.47000000000E+01 0.  1.
</event>
<event>
 5    1  0.7693226E-002  0.6000000E+02  0.7546771E-02  0.1259629E+00
         11   -1    0    0    0    0  0.00000000000E+00  0.00000000000E+00  0.30000000000E+02  0.30000000000E+02  0.00000000000E+00 0.  1.
        -11   -1    0    0    0    0 -0.00000000000E+00 -0.00000000000E+00 -0.30000000000E+02  0.30000000000E+02  0.00000000000E+00 0. -1.
         23    2    1    2    0    0  0.00000000000E+00  0.00000000000E+00  0.00000000000E+00  0.60000000000E+02  0.60000000000E+02 0.  0.
          5    1    3    3  501    0 -0.22570356228E+02 -0.18754066951E+02 -0.40956064951E+01  0.30000000000E+02  0.47000000000E+01 0. -1.
         -5    1    3    3    0  501  0.22570356228E+02  0.18754066951E+02  0.40956064951E+01  0.30000000000E+02  0.47000000000E+01 0.  1.
</event>
<event>
 5    1  0.7693226E-002  0.6000000E+02  0.7546771E-02  0.1259629E+00
         11   -1    0    0    0    0  0.00000000000E+00  0.00000000000E+00  0.30000000000E+02  0.30000000000E+02  0.00000000000E+00 0.  1.
        -11   -1    0    0    0    0 -0.00000000000E+00 -0.00000000000E+00 -0.30000000000E+02  0.30000000000E+02  0.00000000000E+00 0. -1.
         23    2    1    2    0    0  0.00000000000E+00  0.00000000000E+00  0.00000000000E+00  0.60000000000E+02  0.60000000000E+02 0.  0.
          5    1    3    3  501    0  0.15137764659E+02  0.54091975558E+01 -0.24889730070E+02  0.30000000000E+02  0.47000000000E+01 0. -1.
         -5    1    3    3    0  501 -0.15137764659E+02 -0.54091975558E+01  0.24889730070E+02  0.30000000000E+02  0.47000000000E+01 0.  1.
</event>
<event>
 5    1  0.7693226E-002  0.6000000E+02  0.7546771E-02  0.1259629E+00
         11   -1    0    0    0    0  0.00000000000E+00  0.00000000000E+00  0.30000000000E+02  0.30000000000E+02  0.00000000000E+00 0. -1.
        -11   -1    0    0    0    0 -0.00000000000E+00 -0.00000000000E+00 -0.30000000000E+02  0.30000000000E+02  0.00000000000E+00 0.  1.
         23    2    1    2    0    0  0.00000000000E+00  0.00000000000E+00  0.00000000000E+00  0.60000000000E+02  0.60000000000E+02 0.  0.
          5    1    3    3  501    0  0.21858379281E+02  0.12602761538E+02  0.15533565490E+02  0.30000000000E+02  0.47000000000E+01 0. -1.
         -5    1    3    3    0  501 -0.21858379281E+02 -0.12602761538E+02 -0.15533565490E+02  0.30000000000E+02  0.47000000000E+01 0.  1.
</event>
<event>
 5    1  0.7693226E-002  0.6000000E+02  0.7546771E-02  0.1259629E+00
         11   -1    0    0    0    0  0.00000000000E+00  0.00000000000E+00  0.30000000000E+02  0.30000000000E+02  0.00000000000E+00 0.  1.
        -11   -1    0    0    0    0 -0.00000000000E+00 -0.00000000000E+00 -0.30000000000E+02  0.30000000000E+02  0.00000000000E+00 0. -1.
         23    2    1    2    0    0  0.00000000000E+00  0.00000000000E+00  0.00000000000E+00  0.60000000000E+02  0.60000000000E+02 0.  0.
          5    1    3    3  501    0 -0.23426319244E+02 -0.96889160884E+01 -0.15337616232E+02  0.30000000000E+02  0.47000000000E+01 0. -1.
         -5    1    3    3    0  501  0.23426319244E+02  0.96889160884E+01  0.15337616232E+02  0.30000000000E+02  0.47000000000E+01 0.  1.
</event>
<event>
 5    1  0.7693226E-002  0.6000000E+02  0.7546771E-02  0.1259629E+00
         11   -1    0    0    0    0  0.00000000000E+00  0.00000000000E+00  0.30000000000E+02  0.30000000000E+02  0.00000000000E+00 0. -1.
        -11   -1    0    0    0    0 -0.00000000000E+00 -0.00000000000E+00 -0.30000000000E+02  0.30000000000E+02  0.00000000000E+00 0.  1.
         23    2    1    2    0    0  0.00000000000E+00  0.00000000000E+00  0.00000000000E+00  0.60000000000E+02  0.60000000000E+02 0.  0.
          5    1    3    3  501    0 -0.44338221589E+01 -0.82654740542E+01 -0.28105749585E+02  0.30000000000E+02  0.47000000000E+01 0.  1.
         -5    1    3    3    0  501  0.44338221589E+01  0.82654740542E+01  0.28105749585E+02  0.30000000000E+02  0.47000000000E+01 0. -1.
</event>
<event>
 5    1  0.7693226E-002  0.6000000E+02  0.7546771E-02  0.1259629E+00
         11   -1    0    0    0    0  0.00000000000E+00  0.00000000000E+00  0.30000000000E+02  0.30000000000E+02  0.00000000000E+00 0. -1.
        -11   -1    0    0    0    0 -0.00000000000E+00 -0.00000000000E+00 -0.30000000000E+02  0.30000000000E+02  0.00000000000E+00 0.  1.
         23    2    1    2    0    0  0.00000000000E+00  0.00000000000E+00  0.00000000000E+00  0.60000000000E+02  0.60000000000E+02 0.  0.
          5    1    3    3  501    0  0.23040350670E+02 -0.53402199726E+01 -0.17847529006E+02  0.30000000000E+02  0.47000000000E+01 0.  1.
         -5    1    3    3    0  501 -0.23040350670E+02  0.53402199726E+01  0.17847529006E+02  0.30000000000E+02  0.47000000000E+01 0. -1.
</event>
<event>
 5    1  0.7693226E-002  0.6000000E+02  0.7546771E-02  0.1259629E+00
         11   -1    0    0    0    0  0.00000000000E+00  0.00000000000E+00  0.30000000000E+02  0.30000000000E+02  0.00000000000E+00 0.  1.
        -11   -1    0    0    0    0 -0.00000000000E+00 -0.00000000000E+00 -0.30000000000E+02  0.30000000000E+02  0.00000000000E+00 0. -1.
         23    2    1    2    0    0  0.00000000000E+00  0.00000000000E+00  0.00000000000E+00  0.60000000000E+02  0.60000000000E+02 0.  0.
          5    1    3    3  501    0 -0.62895037193E+01 -0.18209652458E+02 -0.22511346035E+02  0.30000000000E+02  0.47000000000E+01 0. -1.
         -5    1    3    3    0  501  0.62895037193E+01  0.18209652458E+02  0.22511346035E+02  0.30000000000E+02  0.47000000000E+01 0.  1.
</event>
<event>
 5    1  0.7693226E-002  0.6000000E+02  0.7546771E-02  0.1259629E+00
         11   -1    0    0    0    0  0.00000000000E+00  0.00000000000E+00  0.30000000000E+02  0.30000000000E+02  0.00000000000E+00 0. -1.
        -11   -1    0    0    0    0 -0.00000000000E+00 -0.00000000000E+00 -0.30000000000E+02  0.30000000000E+02  0.00000000000E+00 0.  1.
         23    2    1    2    0    0  0.00000000000E+00  0.00000000000E+00  0.00000000000E+00  0.60000000000E+02  0.60000000000E+02 0.  0.
          5    1    3    3  501    0 -0.17691380883E+02  0.72950893647E+01  0.22620935295E+02  0.30000000000E+02  0.47000000000E+01 0. -1.
         -5    1    3    3    0  501  0.17691380883E+02 -0.72950893647E+01 -0.22620935295E+02  0.30000000000E+02  0.47000000000E+01 0.  1.
</event>
<event>
 5    1  0.7693226E-002  0.6000000E+02  0.7546771E-02  0.1259629E+00
         11   -1    0    0    0    0  0.00000000000E+00  0.00000000000E+00  0.30000000000E+02  0.30000000000E+02  0.00000000000E+00 0.  1.
        -11   -1    0    0    0    0 -0.00000000000E+00 -0.00000000000E+00 -0.30000000000E+02  0.30000000000E+02  0.00000000000E+00 0. -1.
         23    2    1    2    0    0  0.00000000000E+00  0.00000000000E+00  0.00000000000E+00  0.60000000000E+02  0.60000000000E+02 0.  0.
          5    1    3    3  501    0 -0.34751524986E+01 -0.14265287122E+02 -0.25735867936E+02  0.30000000000E+02  0.47000000000E+01 0. -1.
         -5    1    3    3    0  501  0.34751524986E+01  0.14265287122E+02  0.25735867936E+02  0.30000000000E+02  0.47000000000E+01 0.  1.
</event>
<event>
 5    1  0.7693226E-002  0.6000000E+02  0.7546771E-02  0.1259629E+00
         11   -1    0    0    0    0  0.00000000000E+00  0.00000000000E+00  0.30000000000E+02  0.30000000000E+02  0.00000000000E+00 0. -1.
        -11   -1    0    0    0    0 -0.00000000000E+00 -0.00000000000E+00 -0.30000000000E+02  0.30000000000E+02  0.00000000000E+00 0.  1.
         23    2    1    2    0    0  0.00000000000E+00  0.00000000000E+00  0.00000000000E+00  0.60000000000E+02  0.60000000000E+02 0.  0.
          5    1    3    3  501    0  0.12551589290E+02 -0.72683086062E+01 -0.25836781849E+02  0.30000000000E+02  0.47000000000E+01 0.  1.
         -5    1    3    3    0  501 -0.12551589290E+02  0.72683086062E+01  0.25836781849E+02  0.30000000000E+02  0.47000000000E+01 0. -1.
</event>
<event>
 5    1  0.7693226E-002  0.6000000E+02  0.7546771E-02  0.1259629E+00
         11   -1    0    0    0    0  0.00000000000E+00  0.00000000000E+00  0.30000000000E+02  0.30000000000E+02  0.00000000000E+00 0.  1.
        -11   -1    0    0    0    0 -0.00000000000E+00 -0.00000000000E+00 -0.30000000000E+02  0.30000000000E+02  0.00000000000E+00 0. -1.
         23    2    1    2    0    0  0.00000000000E+00  0.00000000000E+00  0.00000000000E+00  0.60000000000E+02  0.60000000000E+02 0.  0.
          5    1    3    3  501    0 -0.53502860462E+01 -0.12822774912E+02 -0.26169846824E+02  0.30000000000E+02  0.47000000000E+01 0. -1.
         -5    1    3    3    0  501  0.53502860462E+01  0.12822774912E+02  0.26169846824E+02  0.30000000000E+02  0.47000000000E+01 0.  1.
</event>
<event>
 5    1  0.7693226E-002  0.6000000E+02  0.7546771E-02  0.1259629E+00
         11   -1    0    0    0    0  0.00000000000E+00  0.00000000000E+00  0.30000000000E+02  0.30000000000E+02  0.00000000000E+00 0.  1.
        -11   -1    0    0    0    0 -0.00000000000E+00 -0.00000000000E+00 -0.30000000000E+02  0.30000000000E+02  0.00000000000E+00 0. -1.
         23    2    1    2    0    0  0.00000000000E+00  0.00000000000E+00  0.00000000000E+00  0.60000000000E+02  0.60000000000E+02 0.  0.
          5    1    3    3  501    0  0.47092750484E+01  0.27472120813E+02  0.10050637122E+02  0.30000000000E+02  0.47000000000E+01 0. -1.
         -5    1    3    3    0  501 -0.47092750484E+01 -0.27472120813E+02 -0.10050637122E+02  0.30000000000E+02  0.47000000000E+01 0.  1.
</event>
<event>
 5    1  0.7693226E-002  0.6000000E+02  0.7546771E-02  0.1259629E+00
         11   -1    0    0    0    0  0.00000000000E+00  0.00000000000E+00  0.30000000000E+02  0.30000000000E+02  0.00000000000E+00 0.  1.
        -11   -1    0    0    0    0 -0.00000000000E+00 -0.00000000000E+00 -0.30000000000E+02  0.30000000000E+02  0.00000000000E+00 0. -1.
         23    2    1    2    0    0  0.00000000000E+00  0.00000000000E+00  0.00000000000E+00  0.60000000000E+02  0.60000000000E+02 0.  0.
          5    1    3    3  501    0 -0.22022273368E+02  0.17617809205E+02 -0.90852778999E+01  0.30000000000E+02  0.47000000000E+01 0. -1.
         -5    1    3    3    0  501  0.22022273368E+02 -0.17617809205E+02  0.90852778999E+01  0.30000000000E+02  0.47000000000E+01 0.  1.
</event>
<event>
 5    1  0.7693226E-002  0.6000000E+02  0.7546771E-02  0.1259629E+00
         11   -1    0    0    0    0  0.00000000000E+00  0.00000000000E+00  0.30000000000E+02  0.30000000000E+02  0.00000000000E+00 0.  1.
        -11   -1    0    0    0    0 -0.00000000000E+00 -0.00000000000E+00 -0.30000000000E+02  0.30000000000E+02  0.00000000000E+00 0. -1.
         23    2    1    2    0    0  0.00000000000E+00  0.00000000000E+00  0.00000000000E+00  0.60000000000E+02  0.60000000000E+02 0.  0.
          5    1    3    3  501    0  0.59896983887E+01 -0.43974119129E+01 -0.28682682610E+02  0.30000000000E+02  0.47000000000E+01 0. -1.
         -5    1    3    3    0  501 -0.59896983887E+01  0.43974119129E+01  0.28682682610E+02  0.30000000000E+02  0.47000000000E+01 0.  1.
</event>
<event>
 5    1  0.7693226E-002  0.6000000E+02  0.7546771E-02  0.1259629E+00
         11   -1    0    0    0    0  0.00000000000E+00  0.00000000000E+00  0.30000000000E+02  0.30000000000E+02  0.00000000000E+00 0. -1.
        -11   -1    0    0    0    0 -0.00000000000E+00 -0.00000000000E+00 -0.30000000000E+02  0.30000000000E+02  0.00000000000E+00 0.  1.
         23    2    1    2    0    0  0.00000000000E+00  0.00000000000E+00  0.00000000000E+00  0.60000000000E+02  0.60000000000E+02 0.  0.
          5    1    3    3  501    0 -0.28659764492E+02  0.60252198615E+01 -0.44971796596E+01  0.30000000000E+02  0.47000000000E+01 0.  1.
         -5    1    3    3    0  501  0.28659764492E+02 -0.60252198615E+01  0.44971796596E+01  0.30000000000E+02  0.47000000000E+01 0. -1.
</event>
<event>
 5    1  0.7693226E-002  0.6000000E+02  0.7546771E-02  0.1259629E+00
         11   -1    0    0    0    0  0.00000000000E+00  0.00000000000E+00  0.30000000000E+02  0.30000000000E+02  0.00000000000E+00 0. -1.
        -11   -1    0    0    0    0 -0.00000000000E+00 -0.00000000000E+00 -0.30000000000E+02  0.30000000000E+02  0.00000000000E+00 0.  1.
         23    2    1    2    0    0  0.00000000000E+00  0.00000000000E+00  0.00000000000E+00  0.60000000000E+02  0.60000000000E+02 0.  0.
          5    1    3    3  501    0 -0.93654871874E+01 -0.12544974084E+02 -0.25155939159E+02  0.30000000000E+02  0.47000000000E+01 0.  1.
         -5    1    3    3    0  501  0.93654871874E+01  0.12544974084E+02  0.25155939159E+02  0.30000000000E+02  0.47000000000E+01 0. -1.
</event>
<event>
 5    1  0.7693226E-002  0.6000000E+02  0.7546771E-02  0.1259629E+00
         11   -1    0    0    0    0  0.00000000000E+00  0.00000000000E+00  0.30000000000E+02  0.30000000000E+02  0.00000000000E+00 0. -1.
        -11   -1    0    0    0    0 -0.00000000000E+00 -0.00000000000E+00 -0.30000000000E+02  0.30000000000E+02  0.00000000000E+00 0.  1.
         23    2    1    2    0    0  0.00000000000E+00  0.00000000000E+00  0.00000000000E+00  0.60000000000E+02  0.60000000000E+02 0.  0.
          5    1    3    3  501    0 -0.45885701393E+01 -0.12311167546E+02 -0.26557299895E+02  0.30000000000E+02  0.47000000000E+01 0.  1.
         -5    1    3    3    0  501  0.45885701393E+01  0.12311167546E+02  0.26557299895E+02  0.30000000000E+02  0.47000000000E+01 0. -1.
</event>
<event>
 5    1  0.7693226E-002  0.6000000E+02  0.7546771E-02  0.1259629E+00
         11   -1    0    0    0    0  0.00000000000E+00  0.00000000000E+00  0.30000000000E+02  0.30000000000E+02  0.00000000000E+00 0.  1.
        -11   -1    0    0    0    0 -0.00000000000E+00 -0.00000000000E+00 -0.30000000000E+02  0.30000000000E+02  0.00000000000E+00 0. -1.
         23    2    1    2    0    0  0.00000000000E+00  0.00000000000E+00  0.00000000000E+00  0.60000000000E+02  0.60000000000E+02 0.  0.
          5    1    3    3  501    0 -0.23208864551E+02  0.17190443670E+02 -0.66141705971E+01  0.30000000000E+02  0.47000000000E+01 0. -1.
         -5    1    3    3    0  501  0.23208864551E+02 -0.17190443670E+02  0.66141705971E+01  0.30000000000E+02  0.47000000000E+01 0.  1.
</event>
<event>
 5    1  0.7693226E-002  0.6000000E+02  0.7546771E-02  0.1259629E+00
         11   -1    0    0    0    0  0.00000000000E+00  0.00000000000E+00  0.30000000000E+02  0.30000000000E+02  0.00000000000E+00 0.  1.
        -11   -1    0    0    0    0 -0.00000000000E+00 -0.00000000000E+00 -0.30000000000E+02  0.30000000000E+02  0.00000000000E+00 0. -1.
         23    2    1    2    0    0  0.00000000000E+00  0.00000000000E+00  0.00000000000E+00  0.60000000000E+02  0.60000000000E+02 0.  0.
          5    1    3    3  501    0  0.22571265163E+02 -0.91060309344E+01 -0.16897579400E+02  0.30000000000E+02  0.47000000000E+01 0. -1.
         -5    1    3    3    0  501 -0.22571265163E+02  0.91060309344E+01  0.16897579400E+02  0.30000000000E+02  0.47000000000E+01 0.  1.
</event>
<event>
 5    1  0.7693226E-002  0.6000000E+02  0.7546771E-02  0.1259629E+00
         11   -1    0    0    0    0  0.00000000000E+00  0.00000000000E+00  0.30000000000E+02  0.30000000000E+02  0.00000000000E+00 0.  1.
        -11   -1    0    0    0    0 -0.00000000000E+00 -0.00000000000E+00 -0.30000000000E+02  0.30000000000E+02  0.00000000000E+00 0. -1.
         23    2    1    2    0    0  0.00000000000E+00  0.00000000000E+00  0.00000000000E+00  0.60000000000E+02  0.60000000000E+02 0.  0.
          5    1    3    3  501    0  0.21931791550E+02  0.19724300809E+02 -0.28032975240E+01  0.30000000000E+02  0.47000000000E+01 0. -1.
         -5    1    3    3    0  501 -0.21931791550E+02 -0.19724300809E+02  0.28032975240E+01  0.30000000000E+02  0.47000000000E+01 0.  1.
</event>
<event>
 5    1  0.7693226E-002  0.6000000E+02  0.7546771E-02  0.1259629E+00
         11   -1    0    0    0    0  0.00000000000E+00  0.00000000000E+00  0.30000000000E+02  0.30000000000E+02  0.00000000000E+00 0.  1.
        -11   -1    0    0    0    0 -0.00000000000E+00 -0.00000000000E+00 -0.30000000000E+02  0.30000000000E+02  0.00000000000E+00 0. -1.
         23    2    1    2    0    0  0.00000000000E+00  0.00000000000E+00  0.00000000000E+00  0.60000000000E+02  0.60000000000E+02 0.  0.
          5    1    3    3  501    0  0.27118002232E+02  0.11121923805E+02 -0.43389821162E+01  0.30000000000E+02  0.47000000000E+01 0. -1.
         -5    1    3    3    0  501 -0.27118002232E+02 -0.11121923805E+02  0.43389821162E+01  0.30000000000E+02  0.47000000000E+01 0.  1.
</event>
<event>
 5    1  0.7693226E-002  0.6000000E+02  0.7546771E-02  0.1259629E+00
         11   -1    0    0    0    0  0.00000000000E+00  0.00000000000E+00  0.30000000000E+02  0.30000000000E+02  0.00000000000E+00 0. -1.
        -11   -1    0    0    0    0 -0.00000000000E+00 -0.00000000000E+00 -0.30000000000E+02  0.30000000000E+02  0.00000000000E+00 0.  1.
         23    2    1    2    0    0  0.00000000000E+00  0.00000000000E+00  0.00000000000E+00  0.60000000000E+02  0.60000000000E+02 0.  0.
          5    1    3    3  501    0 -0.83611124449E+00 -0.11844037047E+02 -0.27146449205E+02  0.30000000000E+02  0.47000000000E+01 0.  1.
         -5    1    3    3    0  501  0.83611124449E+00  0.11844037047E+02  0.27146449205E+02  0.30000000000E+02  0.47000000000E+01 0. -1.
</event>
<event>
 5    1  0.7693226E-002  0.6000000E+02  0.7546771E-02  0.1259629E+00
         11   -1    0    0    0    0  0.00000000000E+00  0.00000000000E+00  0.30000000000E+02  0.30000000000E+02  0.00000000000E+00 0.  1.
        -11   -1    0    0    0    0 -0.00000000000E+00 -0.00000000000E+00 -0.30000000000E+02  0.30000000000E+02  0.00000000000E+00 0. -1.
         23    2    1    2    0    0  0.00000000000E+00  0.00000000000E+00  0.00000000000E+00  0.60000000000E+02  0.60000000000E+02 0.  0.
          5    1    3    3  501    0 -0.27990039707E+01 -0.24914662059E+02 -0.15790351208E+02  0.30000000000E+02  0.47000000000E+01 0. -1.
         -5    1    3    3    0  501  0.27990039707E+01  0.24914662059E+02  0.15790351208E+02  0.30000000000E+02  0.47000000000E+01 0.  1.
</event>
<event>
 5    1  0.7693226E-002  0.6000000E+02  0.7546771E-02  0.1259629E+00
         11   -1    0    0    0    0  0.00000000000E+00  0.00000000000E+00  0.30000000000E+02  0.30000000000E+02  0.00000000000E+00 0.  1.
        -11   -1    0    0    0    0 -0.00000000000E+00 -0.00000000000E+00 -0.30000000000E+02  0.30000000000E+02  0.00000000000E+00 0. -1.
         23    2    1    2    0    0  0.00000000000E+00  0.00000000000E+00  0.00000000000E+00  0.60000000000E+02  0.60000000000E+02 0.  0.
          5    1    3    3  501    0  0.21650461217E+02  0.89551226714E+01 -0.18137621317E+02  0.30000000000E+02  0.47000000000E+01 0. -1.
         -5    1    3    3    0  501 -0.21650461217E+02 -0.89551226714E+01  0.18137621317E+02  0.30000000000E+02  0.47000000000E+01 0.  1.
</event>
<event>
 5    1  0.7693226E-002  0.6000000E+02  0.7546771E-02  0.1259629E+00
         11   -1    0    0    0    0  0.00000000000E+00  0.00000000000E+00  0.30000000000E+02  0.30000000000E+02  0.00000000000E+00 0. -1.
        -11   -1    0    0    0    0 -0.00000000000E+00 -0.00000000000E+00 -0.30000000000E+02  0.30000000000E+02  0.00000000000E+00 0.  1.
         23    2    1    2    0    0  0.00000000000E+00  0.00000000000E+00  0.00000000000E+00  0.60000000000E+02  0.60000000000E+02 0.  0.
          5    1    3    3  501    0 -0.29450798574E+02  0.32445872430E+01 -0.18198072076E+00  0.30000000000E+02  0.47000000000E+01 0.  1.
         -5    1    3    3    0  501  0.29450798574E+02 -0.32445872430E+01  0.18198072076E+00  0.30000000000E+02  0.47000000000E+01 0. -1.
</event>
<event>
 5    1  0.7693226E-002  0.6000000E+02  0.7546771E-02  0.1259629E+00
         11   -1    0    0    0    0  0.00000000000E+00  0.00000000000E+00  0.30000000000E+02  0.30000000000E+02  0.00000000000E+00 0.  1.
        -11   -1    0    0    0    0 -0.00000000000E+00 -0.00000000000E+00 -0.30000000000E+02  0.30000000000E+02  0.00000000000E+00 0. -1.
         23    2    1    2    0    0  0.00000000000E+00  0.00000000000E+00  0.00000000000E+00  0.60000000000E+02  0.60000000000E+02 0.  0.
          5    1    3    3  501    0 -0.27575135178E+02  0.36948408506E+01 -0.10191666743E+02  0.30000000000E+02  0.47000000000E+01 0. -1.
         -5    1    3    3    0  501  0.27575135178E+02 -0.36948408506E+01  0.10191666743E+02  0.30000000000E+02  0.47000000000E+01 0.  1.
</event>
<event>
 5    1  0.7693226E-002  0.6000000E+02  0.7546771E-02  0.1259629E+00
         11   -1    0    0    0    0  0.00000000000E+00  0.00000000000E+00  0.30000000000E+02  0.30000000000E+02  0.00000000000E+00 0.  1.
        -11   -1    0    0    0    0 -0.00000000000E+00 -0.00000000000E+00 -0.30000000000E+02  0.30000000000E+02  0.00000000000E+00 0. -1.
         23    2    1    2    0    0  0.00000000000E+00  0.00000000000E+00  0.00000000000E+00  0.60000000000E+02  0.60000000000E+02 0.  0.
          5    1    3    3  501    0 -0.49744526961E+01 -0.16889550827E+02 -0.23830818140E+02  0.30000000000E+02  0.47000000000E+01 0. -1.
         -5    1    3    3    0  501  0.49744526961E+01  0.16889550827E+02  0.23830818140E+02  0.30000000000E+02  0.47000000000E+01 0.  1.
</event>
<event>
 5    1  0.7693226E-002  0.6000000E+02  0.7546771E-02  0.1259629E+00
         11   -1    0    0    0    0  0.00000000000E+00  0.00000000000E+00  0.30000000000E+02  0.30000000000E+02  0.00000000000E+00 0.  1.
        -11   -1    0    0    0    0 -0.00000000000E+00 -0.00000000000E+00 -0.30000000000E+02  0.30000000000E+02  0.00000000000E+00 0. -1.
         23    2    1    2    0    0  0.00000000000E+00  0.00000000000E+00  0.00000000000E+00  0.60000000000E+02  0.60000000000E+02 0.  0.
          5    1    3    3  501    0 -0.11984780566E+02  0.86839925341E+01 -0.25668332794E+02  0.30000000000E+02  0.47000000000E+01 0. -1.
         -5    1    3    3    0  501  0.11984780566E+02 -0.86839925341E+01  0.25668332794E+02  0.30000000000E+02  0.47000000000E+01 0.  1.
</event>
<event>
 5    1  0.7693226E-002  0.6000000E+02  0.7546771E-02  0.1259629E+00
         11   -1    0    0    0    0  0.00000000000E+00  0.00000000000E+00  0.30000000000E+02  0.30000000000E+02  0.00000000000E+00 0.  1.
        -11   -1    0    0    0    0 -0.00000000000E+00 -0.00000000000E+00 -0.30000000000E+02  0.30000000000E+02  0.00000000000E+00 0. -1.
         23    2    1    2    0    0  0.00000000000E+00  0.00000000000E+00  0.00000000000E+00  0.60000000000E+02  0.60000000000E+02 0.  0.
          5    1    3    3  501    0 -0.13694883826E+02  0.14944978874E+02 -0.21610362409E+02  0.30000000000E+02  0.47000000000E+01 0. -1.
         -5    1    3    3    0  501  0.13694883826E+02 -0.14944978874E+02  0.21610362409E+02  0.30000000000E+02  0.47000000000E+01 0.  1.
</event>
<event>
 5    1  0.7693226E-002  0.6000000E+02  0.7546771E-02  0.1259629E+00
         11   -1    0    0    0    0  0.00000000000E+00  0.00000000000E+00  0.30000000000E+02  0.30000000000E+02  0.00000000000E+00 0. -1.
        -11   -1    0    0    0    0 -0.00000000000E+00 -0.00000000000E+00 -0.30000000000E+02  0.30000000000E+02  0.00000000000E+00 0.  1.
         23    2    1    2    0    0  0.00000000000E+00  0.00000000000E+00  0.00000000000E+00  0.60000000000E+02  0.60000000000E+02 0.  0.
          5    1    3    3  501    0 -0.12255882803E+02  0.92362106806E+01 -0.25345527199E+02  0.30000000000E+02  0.47000000000E+01 0.  1.
         -5    1    3    3    0  501  0.12255882803E+02 -0.92362106806E+01  0.25345527199E+02  0.30000000000E+02  0.47000000000E+01 0. -1.
</event>
<event>
 5    1  0.7693226E-002  0.6000000E+02  0.7546771E-02  0.1259629E+00
         11   -1    0    0    0    0  0.00000000000E+00  0.00000000000E+00  0.30000000000E+02  0.30000000000E+02  0.00000000000E+00 0.  1.
        -11   -1    0    0    0    0 -0.00000000000E+00 -0.00000000000E+00 -0.30000000000E+02  0.30000000000E+02  0.00000000000E+00 0. -1.
         23    2    1    2    0    0  0.00000000000E+00  0.00000000000E+00  0.00000000000E+00  0.60000000000E+02  0.60000000000E+02 0.  0.
          5    1    3    3  501    0  0.13134808743E+02  0.23760356565E+02 -0.11867276655E+02  0.30000000000E+02  0.47000000000E+01 0. -1.
         -5    1    3    3    0  501 -0.13134808743E+02 -0.23760356565E+02  0.11867276655E+02  0.30000000000E+02  0.47000000000E+01 0.  1.
</event>
<event>
 5    1  0.7693226E-002  0.6000000E+02  0.7546771E-02  0.1259629E+00
         11   -1    0    0    0    0  0.00000000000E+00  0.00000000000E+00  0.30000000000E+02  0.30000000000E+02  0.00000000000E+00 0.  1.
        -11   -1    0    0    0    0 -0.00000000000E+00 -0.00000000000E+00 -0.30000000000E+02  0.30000000000E+02  0.00000000000E+00 0. -1.
         23    2    1    2    0    0  0.00000000000E+00  0.00000000000E+00  0.00000000000E+00  0.60000000000E+02  0.60000000000E+02 0.  0.
          5    1    3    3  501    0 -0.17670943673E+02 -0.11013404851E+02  0.21079674174E+02  0.30000000000E+02  0.47000000000E+01 0.  1.
         -5    1    3    3    0  501  0.17670943673E+02  0.11013404851E+02 -0.21079674174E+02  0.30000000000E+02  0.47000000000E+01 0. -1.
</event>
<event>
 5    1  0.7693226E-002  0.6000000E+02  0.7546771E-02  0.1259629E+00
         11   -1    0    0    0    0  0.00000000000E+00  0.00000000000E+00  0.30000000000E+02  0.30000000000E+02  0.00000000000E+00 0.  1.
        -11   -1    0    0    0    0 -0.00000000000E+00 -0.00000000000E+00 -0.30000000000E+02  0.30000000000E+02  0.00000000000E+00 0. -1.
         23    2    1    2    0    0  0.00000000000E+00  0.00000000000E+00  0.00000000000E+00  0.60000000000E+02  0.60000000000E+02 0.  0.
          5    1    3    3  501    0  0.19869486298E+01 -0.27030163613E+02 -0.11972146431E+02  0.30000000000E+02  0.47000000000E+01 0. -1.
         -5    1    3    3    0  501 -0.19869486298E+01  0.27030163613E+02  0.11972146431E+02  0.30000000000E+02  0.47000000000E+01 0.  1.
</event>
<event>
 5    1  0.7693226E-002  0.6000000E+02  0.7546771E-02  0.1259629E+00
         11   -1    0    0    0    0  0.00000000000E+00  0.00000000000E+00  0.30000000000E+02  0.30000000000E+02  0.00000000000E+00 0.  1.
        -11   -1    0    0    0    0 -0.00000000000E+00 -0.00000000000E+00 -0.30000000000E+02  0.30000000000E+02  0.00000000000E+00 0. -1.
         23    2    1    2    0    0  0.00000000000E+00  0.00000000000E+00  0.00000000000E+00  0.60000000000E+02  0.60000000000E+02 0.  0.
          5    1    3    3  501    0 -0.66370328251E+01 -0.26660741239E+02 -0.11093451755E+02  0.30000000000E+02  0.47000000000E+01 0. -1.
         -5    1    3    3    0  501  0.66370328251E+01  0.26660741239E+02  0.11093451755E+02  0.30000000000E+02  0.47000000000E+01 0.  1.
</event>
<event>
 5    1  0.7693226E-002  0.6000000E+02  0.7546771E-02  0.1259629E+00
         11   -1    0    0    0    0  0.00000000000E+00  0.00000000000E+00  0.30000000000E+02  0.30000000000E+02  0.00000000000E+00 0.  1.
        -11   -1    0    0    0    0 -0.00000000000E+00 -0.00000000000E+00 -0.30000000000E+02  0.30000000000E+02  0.00000000000E+00 0. -1.
         23    2    1    2    0    0  0.00000000000E+00  0.00000000000E+00  0.00000000000E+00  0.60000000000E+02  0.60000000000E+02 0.  0.
          5    1    3    3  501    0  0.92697046597E+01  0.16829202988E+02 -0.22555719947E+02  0.30000000000E+02  0.47000000000E+01 0. -1.
         -5    1    3    3    0  501 -0.92697046597E+01 -0.16829202988E+02  0.22555719947E+02  0.30000000000E+02  0.47000000000E+01 0.  1.
</event>
<event>
 5    1  0.7693226E-002  0.6000000E+02  0.7546771E-02  0.1259629E+00
         11   -1    0    0    0    0  0.00000000000E+00  0.00000000000E+00  0.30000000000E+02  0.30000000000E+02  0.00000000000E+00 0. -1.
        -11   -1    0    0    0    0 -0.00000000000E+00 -0.00000000000E+00 -0.30000000000E+02  0.30000000000E+02  0.00000000000E+00 0.  1.
         23    2    1    2    0    0  0.00000000000E+00  0.00000000000E+00  0.00000000000E+00  0.60000000000E+02  0.60000000000E+02 0.  0.
          5    1    3    3  501    0 -0.17809471914E+02  0.65882421096E+01 -0.22744840647E+02  0.30000000000E+02  0.47000000000E+01 0.  1.
         -5    1    3    3    0  501  0.17809471914E+02 -0.65882421096E+01  0.22744840647E+02  0.30000000000E+02  0.47000000000E+01 0. -1.
</event>
<event>
 5    1  0.7693226E-002  0.6000000E+02  0.7546771E-02  0.1259629E+00
         11   -1    0    0    0    0  0.00000000000E+00  0.00000000000E+00  0.30000000000E+02  0.30000000000E+02  0.00000000000E+00 0.  1.
        -11   -1    0    0    0    0 -0.00000000000E+00 -0.00000000000E+00 -0.30000000000E+02  0.30000000000E+02  0.00000000000E+00 0. -1.
         23    2    1    2    0    0  0.00000000000E+00  0.00000000000E+00  0.00000000000E+00  0.60000000000E+02  0.60000000000E+02 0.  0.
          5    1    3    3  501    0  0.88793271077E+00  0.15848984695E+01 -0.29573800438E+02  0.30000000000E+02  0.47000000000E+01 0. -1.
         -5    1    3    3    0  501 -0.88793271077E+00 -0.15848984695E+01  0.29573800438E+02  0.30000000000E+02  0.47000000000E+01 0.  1.
</event>
<event>
 5    1  0.7693226E-002  0.6000000E+02  0.7546771E-02  0.1259629E+00
         11   -1    0    0    0    0  0.00000000000E+00  0.00000000000E+00  0.30000000000E+02  0.30000000000E+02  0.00000000000E+00 0.  1.
        -11   -1    0    0    0    0 -0.00000000000E+00 -0.00000000000E+00 -0.30000000000E+02  0.30000000000E+02  0.00000000000E+00 0. -1.
         23    2    1    2    0    0  0.00000000000E+00  0.00000000000E+00  0.00000000000E+00  0.60000000000E+02  0.60000000000E+02 0.  0.
          5    1    3    3  501    0 -0.25501934632E+02 -0.14452257531E+02 -0.43236075580E+01  0.30000000000E+02  0.47000000000E+01 0. -1.
         -5    1    3    3    0  501  0.25501934632E+02  0.14452257531E+02  0.43236075580E+01  0.30000000000E+02  0.47000000000E+01 0.  1.
</event>
<event>
 5    1  0.7693226E-002  0.6000000E+02  0.7546771E-02  0.1259629E+00
         11   -1    0    0    0    0  0.00000000000E+00  0.00000000000E+00  0.30000000000E+02  0.30000000000E+02  0.00000000000E+00 0.  1.
        -11   -1    0    0    0    0 -0.00000000000E+00 -0.00000000000E+00 -0.30000000000E+02  0.30000000000E+02  0.00000000000E+00 0. -1.
         23    2    1    2    0    0  0.00000000000E+00  0.00000000000E+00  0.00000000000E+00  0.60000000000E+02  0.60000000000E+02 0.  0.
          5    1    3    3  501    0 -0.15503688810E+02 -0.11727932818E+02 -0.22360707169E+02  0.30000000000E+02  0.47000000000E+01 0. -1.
         -5    1    3    3    0  501  0.15503688810E+02  0.11727932818E+02  0.22360707169E+02  0.30000000000E+02  0.47000000000E+01 0.  1.
</event>
<event>
 5    1  0.7693226E-002  0.6000000E+02  0.7546771E-02  0.1259629E+00
         11   -1    0    0    0    0  0.00000000000E+00  0.00000000000E+00  0.30000000000E+02  0.30000000000E+02  0.00000000000E+00 0.  1.
        -11   -1    0    0    0    0 -0.00000000000E+00 -0.00000000000E+00 -0.30000000000E+02  0.30000000000E+02  0.00000000000E+00 0. -1.
         23    2    1    2    0    0  0.00000000000E+00  0.00000000000E+00  0.00000000000E+00  0.60000000000E+02  0.60000000000E+02 0.  0.
          5    1    3    3  501    0 -0.21198864139E+02 -0.20586099314E+02 -0.21750113257E+01  0.30000000000E+02  0.47000000000E+01 0. -1.
         -5    1    3    3    0  501  0.21198864139E+02  0.20586099314E+02  0.21750113257E+01  0.30000000000E+02  0.47000000000E+01 0.  1.
</event>
<event>
 5    1  0.7693226E-002  0.6000000E+02  0.7546771E-02  0.1259629E+00
         11   -1    0    0    0    0  0.00000000000E+00  0.00000000000E+00  0.30000000000E+02  0.30000000000E+02  0.00000000000E+00 0.  1.
        -11   -1    0    0    0    0 -0.00000000000E+00 -0.00000000000E+00 -0.30000000000E+02  0.30000000000E+02  0.00000000000E+00 0. -1.
         23    2    1    2    0    0  0.00000000000E+00  0.00000000000E+00  0.00000000000E+00  0.60000000000E+02  0.60000000000E+02 0.  0.
          5    1    3    3  501    0  0.11764978238E+02  0.23915992760E+02 -0.12942974055E+02  0.30000000000E+02  0.47000000000E+01 0. -1.
         -5    1    3    3    0  501 -0.11764978238E+02 -0.23915992760E+02  0.12942974055E+02  0.30000000000E+02  0.47000000000E+01 0.  1.
</event>
<event>
 5    1  0.7693226E-002  0.6000000E+02  0.7546771E-02  0.1259629E+00
         11   -1    0    0    0    0  0.00000000000E+00  0.00000000000E+00  0.30000000000E+02  0.30000000000E+02  0.00000000000E+00 0. -1.
        -11   -1    0    0    0    0 -0.00000000000E+00 -0.00000000000E+00 -0.30000000000E+02  0.30000000000E+02  0.00000000000E+00 0.  1.
         23    2    1    2    0    0  0.00000000000E+00  0.00000000000E+00  0.00000000000E+00  0.60000000000E+02  0.60000000000E+02 0.  0.
          5    1    3    3  501    0 -0.73629540215E+01  0.99195297604E+00 -0.28682972952E+02  0.30000000000E+02  0.47000000000E+01 0.  1.
         -5    1    3    3    0  501  0.73629540215E+01 -0.99195297604E+00  0.28682972952E+02  0.30000000000E+02  0.47000000000E+01 0. -1.
</event>
<event>
 5    1  0.7693226E-002  0.6000000E+02  0.7546771E-02  0.1259629E+00
         11   -1    0    0    0    0  0.00000000000E+00  0.00000000000E+00  0.30000000000E+02  0.30000000000E+02  0.00000000000E+00 0.  1.
        -11   -1    0    0    0    0 -0.00000000000E+00 -0.00000000000E+00 -0.30000000000E+02  0.30000000000E+02  0.00000000000E+00 0. -1.
         23    2    1    2    0    0  0.00000000000E+00  0.00000000000E+00  0.00000000000E+00  0.60000000000E+02  0.60000000000E+02 0.  0.
          5    1    3    3  501    0 -0.16739328288E+02  0.18260453234E+02 -0.16256098430E+02  0.30000000000E+02  0.47000000000E+01 0. -1.
         -5    1    3    3    0  501  0.16739328288E+02 -0.18260453234E+02  0.16256098430E+02  0.30000000000E+02  0.47000000000E+01 0.  1.
</event>
<event>
 5    1  0.7693226E-002  0.6000000E+02  0.7546771E-02  0.1259629E+00
         11   -1    0    0    0    0  0.00000000000E+00  0.00000000000E+00  0.30000000000E+02  0.30000000000E+02  0.00000000000E+00 0.  1.
        -11   -1    0    0    0    0 -0.00000000000E+00 -0.00000000000E+00 -0.30000000000E+02  0.30000000000E+02  0.00000000000E+00 0. -1.
         23    2    1    2    0    0  0.00000000000E+00  0.00000000000E+00  0.00000000000E+00  0.60000000000E+02  0.60000000000E+02 0.  0.
          5    1    3    3  501    0 -0.11263419132E+02  0.23358009933E+02 -0.14333483925E+02  0.30000000000E+02  0.47000000000E+01 0. -1.
         -5    1    3    3    0  501  0.11263419132E+02 -0.23358009933E+02  0.14333483925E+02  0.30000000000E+02  0.47000000000E+01 0.  1.
</event>
<event>
 5    1  0.7693226E-002  0.6000000E+02  0.7546771E-02  0.1259629E+00
         11   -1    0    0    0    0  0.00000000000E+00  0.00000000000E+00  0.30000000000E+02  0.30000000000E+02  0.00000000000E+00 0. -1.
        -11   -1    0    0    0    0 -0.00000000000E+00 -0.00000000000E+00 -0.30000000000E+02  0.30000000000E+02  0.00000000000E+00 0.  1.
         23    2    1    2    0    0  0.00000000000E+00  0.00000000000E+00  0.00000000000E+00  0.60000000000E+02  0.60000000000E+02 0.  0.
          5    1    3    3  501    0  0.12616943286E+02  0.14651283933E+02 -0.22451338963E+02  0.30000000000E+02  0.47000000000E+01 0.  1.
         -5    1    3    3    0  501 -0.12616943286E+02 -0.14651283933E+02  0.22451338963E+02  0.30000000000E+02  0.47000000000E+01 0. -1.
</event>
<event>
 5    1  0.7693226E-002  0.6000000E+02  0.7546771E-02  0.1259629E+00
         11   -1    0    0    0    0  0.00000000000E+00  0.00000000000E+00  0.30000000000E+02  0.30000000000E+02  0.00000000000E+00 0.  1.
        -11   -1    0    0    0    0 -0.00000000000E+00 -0.00000000000E+00 -0.30000000000E+02  0.30000000000E+02  0.00000000000E+00 0. -1.
         23    2    1    2    0    0  0.00000000000E+00  0.00000000000E+00  0.00000000000E+00  0.60000000000E+02  0.60000000000E+02 0.  0.
          5    1    3    3  501    0  0.28571191857E+02 -0.77306546151E+01 -0.13542433562E+01  0.30000000000E+02  0.47000000000E+01 0. -1.
         -5    1    3    3    0  501 -0.28571191857E+02  0.77306546151E+01  0.13542433562E+01  0.30000000000E+02  0.47000000000E+01 0.  1.
</event>
<event>
 5    1  0.7693226E-002  0.6000000E+02  0.7546771E-02  0.1259629E+00
         11   -1    0    0    0    0  0.00000000000E+00  0.00000000000E+00  0.30000000000E+02  0.30000000000E+02  0.00000000000E+00 0.  1.
        -11   -1    0    0    0    0 -0.00000000000E+00 -0.00000000000E+00 -0.30000000000E+02  0.30000000000E+02  0.00000000000E+00 0. -1.
         23    2    1    2    0    0  0.00000000000E+00  0.00000000000E+00  0.00000000000E+00  0.60000000000E+02  0.60000000000E+02 0.  0.
          5    1    3    3  501    0 -0.13828079968E+02  0.19898912418E+02 -0.17050732799E+02  0.30000000000E+02  0.47000000000E+01 0. -1.
         -5    1    3    3    0  501  0.13828079968E+02 -0.19898912418E+02  0.17050732799E+02  0.30000000000E+02  0.47000000000E+01 0.  1.
</event>
<event>
 5    1  0.7693226E-002  0.6000000E+02  0.7546771E-02  0.1259629E+00
         11   -1    0    0    0    0  0.00000000000E+00  0.00000000000E+00  0.30000000000E+02  0.30000000000E+02  0.00000000000E+00 0.  1.
        -11   -1    0    0    0    0 -0.00000000000E+00 -0.00000000000E+00 -0.30000000000E+02  0.30000000000E+02  0.00000000000E+00 0. -1.
         23    2    1    2    0    0  0.00000000000E+00  0.00000000000E+00  0.00000000000E+00  0.60000000000E+02  0.60000000000E+02 0.  0.
          5    1    3    3  501    0  0.18210291470E+02  0.10949564806E+01 -0.23347298663E+02  0.30000000000E+02  0.47000000000E+01 0. -1.
         -5    1    3    3    0  501 -0.18210291470E+02 -0.10949564806E+01  0.23347298663E+02  0.30000000000E+02  0.47000000000E+01 0.  1.
</event>
<event>
 5    1  0.7693226E-002  0.6000000E+02  0.7546771E-02  0.1259629E+00
         11   -1    0    0    0    0  0.00000000000E+00  0.00000000000E+00  0.30000000000E+02  0.30000000000E+02  0.00000000000E+00 0.  1.
        -11   -1    0    0    0    0 -0.00000000000E+00 -0.00000000000E+00 -0.30000000000E+02  0.30000000000E+02  0.00000000000E+00 0. -1.
         23    2    1    2    0    0  0.00000000000E+00  0.00000000000E+00  0.00000000000E+00  0.60000000000E+02  0.60000000000E+02 0.  0.
          5    1    3    3  501    0  0.14951736076E+02  0.22520909264E+02 -0.12131126668E+02  0.30000000000E+02  0.47000000000E+01 0. -1.
         -5    1    3    3    0  501 -0.14951736076E+02 -0.22520909264E+02  0.12131126668E+02  0.30000000000E+02  0.47000000000E+01 0.  1.
</event>
<event>
 5    1  0.7693226E-002  0.6000000E+02  0.7546771E-02  0.1259629E+00
         11   -1    0    0    0    0  0.00000000000E+00  0.00000000000E+00  0.30000000000E+02  0.30000000000E+02  0.00000000000E+00 0. -1.
        -11   -1    0    0    0    0 -0.00000000000E+00 -0.00000000000E+00 -0.30000000000E+02  0.30000000000E+02  0.00000000000E+00 0.  1.
         23    2    1    2    0    0  0.00000000000E+00  0.00000000000E+00  0.00000000000E+00  0.60000000000E+02  0.60000000000E+02 0.  0.
          5    1    3    3  501    0 -0.10005572244E+01  0.20529133009E+02 -0.21341592798E+02  0.30000000000E+02  0.47000000000E+01 0.  1.
         -5    1    3    3    0  501  0.10005572244E+01 -0.20529133009E+02  0.21341592798E+02  0.30000000000E+02  0.47000000000E+01 0. -1.
</event>
<event>
 5    1  0.7693226E-002  0.6000000E+02  0.7546771E-02  0.1259629E+00
         11   -1    0    0    0    0  0.00000000000E+00  0.00000000000E+00  0.30000000000E+02  0.30000000000E+02  0.00000000000E+00 0.  1.
        -11   -1    0    0    0    0 -0.00000000000E+00 -0.00000000000E+00 -0.30000000000E+02  0.30000000000E+02  0.00000000000E+00 0. -1.
         23    2    1    2    0    0  0.00000000000E+00  0.00000000000E+00  0.00000000000E+00  0.60000000000E+02  0.60000000000E+02 0.  0.
          5    1    3    3  501    0 -0.25535104724E+02 -0.13538547697E+02 -0.65250404578E+01  0.30000000000E+02  0.47000000000E+01 0. -1.
         -5    1    3    3    0  501  0.25535104724E+02  0.13538547697E+02  0.65250404578E+01  0.30000000000E+02  0.47000000000E+01 0.  1.
</event>
<event>
 5    1  0.7693226E-002  0.6000000E+02  0.7546771E-02  0.1259629E+00
         11   -1    0    0    0    0  0.00000000000E+00  0.00000000000E+00  0.30000000000E+02  0.30000000000E+02  0.00000000000E+00 0. -1.
        -11   -1    0    0    0    0 -0.00000000000E+00 -0.00000000000E+00 -0.30000000000E+02  0.30000000000E+02  0.00000000000E+00 0.  1.
         23    2    1    2    0    0  0.00000000000E+00  0.00000000000E+00  0.00000000000E+00  0.60000000000E+02  0.60000000000E+02 0.  0.
          5    1    3    3  501    0 -0.19132074310E+02 -0.20109203401E+02 -0.10367915468E+02  0.30000000000E+02  0.47000000000E+01 0.  1.
         -5    1    3    3    0  501  0.19132074310E+02  0.20109203401E+02  0.10367915468E+02  0.30000000000E+02  0.47000000000E+01 0. -1.
</event>
<event>
 5    1  0.7693226E-002  0.6000000E+02  0.7546771E-02  0.1259629E+00
         11   -1    0    0    0    0  0.00000000000E+00  0.00000000000E+00  0.30000000000E+02  0.30000000000E+02  0.00000000000E+00 0. -1.
        -11   -1    0    0    0    0 -0.00000000000E+00 -0.00000000000E+00 -0.30000000000E+02  0.30000000000E+02  0.00000000000E+00 0.  1.
         23    2    1    2    0    0  0.00000000000E+00  0.00000000000E+00  0.00000000000E+00  0.60000000000E+02  0.60000000000E+02 0.  0.
          5    1    3    3  501    0  0.12168757989E+02  0.25881087040E+02 -0.77460094650E+01  0.30000000000E+02  0.47000000000E+01 0. -1.
         -5    1    3    3    0  501 -0.12168757989E+02 -0.25881087040E+02  0.77460094650E+01  0.30000000000E+02  0.47000000000E+01 0.  1.
</event>
<event>
 5    1  0.7693226E-002  0.6000000E+02  0.7546771E-02  0.1259629E+00
         11   -1    0    0    0    0  0.00000000000E+00  0.00000000000E+00  0.30000000000E+02  0.30000000000E+02  0.00000000000E+00 0.  1.
        -11   -1    0    0    0    0 -0.00000000000E+00 -0.00000000000E+00 -0.30000000000E+02  0.30000000000E+02  0.00000000000E+00 0. -1.
         23    2    1    2    0    0  0.00000000000E+00  0.00000000000E+00  0.00000000000E+00  0.60000000000E+02  0.60000000000E+02 0.  0.
          5    1    3    3  501    0  0.19381894069E+02 -0.19780173012E+02 -0.10535508433E+02  0.30000000000E+02  0.47000000000E+01 0. -1.
         -5    1    3    3    0  501 -0.19381894069E+02  0.19780173012E+02  0.10535508433E+02  0.30000000000E+02  0.47000000000E+01 0.  1.
</event>
<event>
 5    1  0.7693226E-002  0.6000000E+02  0.7546771E-02  0.1259629E+00
         11   -1    0    0    0    0  0.00000000000E+00  0.00000000000E+00  0.30000000000E+02  0.30000000000E+02  0.00000000000E+00 0.  1.
        -11   -1    0    0    0    0 -0.00000000000E+00 -0.00000000000E+00 -0.30000000000E+02  0.30000000000E+02  0.00000000000E+00 0. -1.
         23    2    1    2    0    0  0.00000000000E+00  0.00000000000E+00  0.00000000000E+00  0.60000000000E+02  0.60000000000E+02 0.  0.
          5    1    3    3  501    0  0.23165727781E+02 -0.17297461012E+02  0.64851290585E+01  0.30000000000E+02  0.47000000000E+01 0. -1.
         -5    1    3    3    0  501 -0.23165727781E+02  0.17297461012E+02 -0.64851290585E+01  0.30000000000E+02  0.47000000000E+01 0.  1.
</event>
<event>
 5    1  0.7693226E-002  0.6000000E+02  0.7546771E-02  0.1259629E+00
         11   -1    0    0    0    0  0.00000000000E+00  0.00000000000E+00  0.30000000000E+02  0.30000000000E+02  0.00000000000E+00 0.  1.
        -11   -1    0    0    0    0 -0.00000000000E+00 -0.00000000000E+00 -0.30000000000E+02  0.30000000000E+02  0.00000000000E+00 0. -1.
         23    2    1    2    0    0  0.00000000000E+00  0.00000000000E+00  0.00000000000E+00  0.60000000000E+02  0.60000000000E+02 0.  0.
          5    1    3    3  501    0  0.21863436987E+02  0.15110125975E+01 -0.19940335104E+02  0.30000000000E+02  0.47000000000E+01 0. -1.
         -5    1    3    3    0  501 -0.21863436987E+02 -0.15110125975E+01  0.19940335104E+02  0.30000000000E+02  0.47000000000E+01 0.  1.
</event>
<event>
 5    1  0.7693226E-002  0.6000000E+02  0.7546771E-02  0.1259629E+00
         11   -1    0    0    0    0  0.00000000000E+00  0.00000000000E+00  0.30000000000E+02  0.30000000000E+02  0.00000000000E+00 0.  1.
        -11   -1    0    0    0    0 -0.00000000000E+00 -0.00000000000E+00 -0.30000000000E+02  0.30000000000E+02  0.00000000000E+00 0. -1.
         23    2    1    2    0    0  0.00000000000E+00  0.00000000000E+00  0.00000000000E+00  0.60000000000E+02  0.60000000000E+02 0.  0.
          5    1    3    3  501    0  0.16114584612E+02  0.24859980745E+02 -0.45991317428E+00  0.30000000000E+02  0.47000000000E+01 0. -1.
         -5    1    3    3    0  501 -0.16114584612E+02 -0.24859980745E+02  0.45991317428E+00  0.30000000000E+02  0.47000000000E+01 0.  1.
</event>
<event>
 5    1  0.7693226E-002  0.6000000E+02  0.7546771E-02  0.1259629E+00
         11   -1    0    0    0    0  0.00000000000E+00  0.00000000000E+00  0.30000000000E+02  0.30000000000E+02  0.00000000000E+00 0.  1.
        -11   -1    0    0    0    0 -0.00000000000E+00 -0.00000000000E+00 -0.30000000000E+02  0.30000000000E+02  0.00000000000E+00 0. -1.
         23    2    1    2    0    0  0.00000000000E+00  0.00000000000E+00  0.00000000000E+00  0.60000000000E+02  0.60000000000E+02 0.  0.
          5    1    3    3  501    0  0.40431892967E+01  0.26135970557E+02  0.13359403556E+02  0.30000000000E+02  0.47000000000E+01 0. -1.
         -5    1    3    3    0  501 -0.40431892967E+01 -0.26135970557E+02 -0.13359403556E+02  0.30000000000E+02  0.47000000000E+01 0.  1.
</event>
<event>
 5    1  0.7693226E-002  0.6000000E+02  0.7546771E-02  0.1259629E+00
         11   -1    0    0    0    0  0.00000000000E+00  0.00000000000E+00  0.30000000000E+02  0.30000000000E+02  0.00000000000E+00 0.  1.
        -11   -1    0    0    0    0 -0.00000000000E+00 -0.00000000000E+00 -0.30000000000E+02  0.30000000000E+02  0.00000000000E+00 0. -1.
         23    2    1    2    0    0  0.00000000000E+00  0.00000000000E+00  0.00000000000E+00  0.60000000000E+02  0.60000000000E+02 0.  0.
          5    1    3    3  501    0  0.29287486524E+02  0.28903594533E+01 -0.34349607497E+01  0.30000000000E+02  0.47000000000E+01 0. -1.
         -5    1    3    3    0  501 -0.29287486524E+02 -0.28903594533E+01  0.34349607497E+01  0.30000000000E+02  0.47000000000E+01 0.  1.
</event>
<event>
 5    1  0.7693226E-002  0.6000000E+02  0.7546771E-02  0.1259629E+00
         11   -1    0    0    0    0  0.00000000000E+00  0.00000000000E+00  0.30000000000E+02  0.30000000000E+02  0.00000000000E+00 0.  1.
        -11   -1    0    0    0    0 -0.00000000000E+00 -0.00000000000E+00 -0.30000000000E+02  0.30000000000E+02  0.00000000000E+00 0. -1.
         23    2    1    2    0    0  0.00000000000E+00  0.00000000000E+00  0.00000000000E+00  0.60000000000E+02  0.60000000000E+02 0.  0.
          5    1    3    3  501    0  0.20194937547E+01 -0.13947655587E+02  0.26063279698E+02  0.30000000000E+02  0.47000000000E+01 0.  1.
         -5    1    3    3    0  501 -0.20194937547E+01  0.13947655587E+02 -0.26063279698E+02  0.30000000000E+02  0.47000000000E+01 0. -1.
</event>
<event>
 5    1  0.7693226E-002  0.6000000E+02  0.7546771E-02  0.1259629E+00
         11   -1    0    0    0    0  0.00000000000E+00  0.00000000000E+00  0.30000000000E+02  0.30000000000E+02  0.00000000000E+00 0.  1.
        -11   -1    0    0    0    0 -0.00000000000E+00 -0.00000000000E+00 -0.30000000000E+02  0.30000000000E+02  0.00000000000E+00 0. -1.
         23    2    1    2    0    0  0.00000000000E+00  0.00000000000E+00  0.00000000000E+00  0.60000000000E+02  0.60000000000E+02 0.  0.
          5    1    3    3  501    0  0.12343201916E+02 -0.26802894652E+02  0.26758558827E+01  0.30000000000E+02  0.47000000000E+01 0. -1.
         -5    1    3    3    0  501 -0.12343201916E+02  0.26802894652E+02 -0.26758558827E+01  0.30000000000E+02  0.47000000000E+01 0.  1.
</event>
<event>
 5    1  0.7693226E-002  0.6000000E+02  0.7546771E-02  0.1259629E+00
         11   -1    0    0    0    0  0.00000000000E+00  0.00000000000E+00  0.30000000000E+02  0.30000000000E+02  0.00000000000E+00 0.  1.
        -11   -1    0    0    0    0 -0.00000000000E+00 -0.00000000000E+00 -0.30000000000E+02  0.30000000000E+02  0.00000000000E+00 0. -1.
         23    2    1    2    0    0  0.00000000000E+00  0.00000000000E+00  0.00000000000E+00  0.60000000000E+02  0.60000000000E+02 0.  0.
          5    1    3    3  501    0  0.25977676692E+02 -0.92885084463E+01  0.10807123787E+02  0.30000000000E+02  0.47000000000E+01 0. -1.
         -5    1    3    3    0  501 -0.25977676692E+02  0.92885084463E+01 -0.10807123787E+02  0.30000000000E+02  0.47000000000E+01 0.  1.
</event>
<event>
 5    1  0.7693226E-002  0.6000000E+02  0.7546771E-02  0.1259629E+00
         11   -1    0    0    0    0  0.00000000000E+00  0.00000000000E+00  0.30000000000E+02  0.30000000000E+02  0.00000000000E+00 0. -1.
        -11   -1    0    0    0    0 -0.00000000000E+00 -0.00000000000E+00 -0.30000000000E+02  0.30000000000E+02  0.00000000000E+00 0.  1.
         23    2    1    2    0    0  0.00000000000E+00  0.00000000000E+00  0.00000000000E+00  0.60000000000E+02  0.60000000000E+02 0.  0.
          5    1    3    3  501    0 -0.75814250163E+01  0.21965567980E+01  0.28558836338E+02  0.30000000000E+02  0.47000000000E+01 0. -1.
         -5    1    3    3    0  501  0.75814250163E+01 -0.21965567980E+01 -0.28558836338E+02  0.30000000000E+02  0.47000000000E+01 0.  1.
</event>
<event>
 5    1  0.7693226E-002  0.6000000E+02  0.7546771E-02  0.1259629E+00
         11   -1    0    0    0    0  0.00000000000E+00  0.00000000000E+00  0.30000000000E+02  0.30000000000E+02  0.00000000000E+00 0. -1.
        -11   -1    0    0    0    0 -0.00000000000E+00 -0.00000000000E+00 -0.30000000000E+02  0.30000000000E+02  0.00000000000E+00 0.  1.
         23    2    1    2    0    0  0.00000000000E+00  0.00000000000E+00  0.00000000000E+00  0.60000000000E+02  0.60000000000E+02 0.  0.
          5    1    3    3  501    0  0.22521113214E+02  0.43165959031E+01 -0.18763700579E+02  0.30000000000E+02  0.47000000000E+01 0.  1.
         -5    1    3    3    0  501 -0.22521113214E+02 -0.43165959031E+01  0.18763700579E+02  0.30000000000E+02  0.47000000000E+01 0. -1.
</event>
<event>
 5    1  0.7693226E-002  0.6000000E+02  0.7546771E-02  0.1259629E+00
         11   -1    0    0    0    0  0.00000000000E+00  0.00000000000E+00  0.30000000000E+02  0.30000000000E+02  0.00000000000E+00 0. -1.
        -11   -1    0    0    0    0 -0.00000000000E+00 -0.00000000000E+00 -0.30000000000E+02  0.30000000000E+02  0.00000000000E+00 0.  1.
         23    2    1    2    0    0  0.00000000000E+00  0.00000000000E+00  0.00000000000E+00  0.60000000000E+02  0.60000000000E+02 0.  0.
          5    1    3    3  501    0  0.22609877894E+02  0.19047416252E+02  0.19746786476E+01  0.30000000000E+02  0.47000000000E+01 0. -1.
         -5    1    3    3    0  501 -0.22609877894E+02 -0.19047416252E+02 -0.19746786476E+01  0.30000000000E+02  0.47000000000E+01 0.  1.
</event>
<event>
 5    1  0.7693226E-002  0.6000000E+02  0.7546771E-02  0.1259629E+00
         11   -1    0    0    0    0  0.00000000000E+00  0.00000000000E+00  0.30000000000E+02  0.30000000000E+02  0.00000000000E+00 0.  1.
        -11   -1    0    0    0    0 -0.00000000000E+00 -0.00000000000E+00 -0.30000000000E+02  0.30000000000E+02  0.00000000000E+00 0. -1.
         23    2    1    2    0    0  0.00000000000E+00  0.00000000000E+00  0.00000000000E+00  0.60000000000E+02  0.60000000000E+02 0.  0.
          5    1    3    3  501    0 -0.16868173346E+02 -0.21042915287E+02  0.12270714901E+02  0.30000000000E+02  0.47000000000E+01 0. -1.
         -5    1    3    3    0  501  0.16868173346E+02  0.21042915287E+02 -0.12270714901E+02  0.30000000000E+02  0.47000000000E+01 0.  1.
</event>
<event>
 5    1  0.7693226E-002  0.6000000E+02  0.7546771E-02  0.1259629E+00
         11   -1    0    0    0    0  0.00000000000E+00  0.00000000000E+00  0.30000000000E+02  0.30000000000E+02  0.00000000000E+00 0.  1.
        -11   -1    0    0    0    0 -0.00000000000E+00 -0.00000000000E+00 -0.30000000000E+02  0.30000000000E+02  0.00000000000E+00 0. -1.
         23    2    1    2    0    0  0.00000000000E+00  0.00000000000E+00  0.00000000000E+00  0.60000000000E+02  0.60000000000E+02 0.  0.
          5    1    3    3  501    0  0.13471597250E+02 -0.24638062372E+02 -0.94547316249E+01  0.30000000000E+02  0.47000000000E+01 0. -1.
         -5    1    3    3    0  501 -0.13471597250E+02  0.24638062372E+02  0.94547316249E+01  0.30000000000E+02  0.47000000000E+01 0.  1.
</event>
<event>
 5    1  0.7693226E-002  0.6000000E+02  0.7546771E-02  0.1259629E+00
         11   -1    0    0    0    0  0.00000000000E+00  0.00000000000E+00  0.30000000000E+02  0.30000000000E+02  0.00000000000E+00 0.  1.
        -11   -1    0    0    0    0 -0.00000000000E+00 -0.00000000000E+00 -0.30000000000E+02  0.30000000000E+02  0.00000000000E+00 0. -1.
         23    2    1    2    0    0  0.00000000000E+00  0.00000000000E+00  0.00000000000E+00  0.60000000000E+02  0.60000000000E+02 0.  0.
          5    1    3    3  501    0 -0.26806403444E+01 -0.28668099076E+02 -0.69902977548E+01  0.30000000000E+02  0.47000000000E+01 0. -1.
         -5    1    3    3    0  501  0.26806403444E+01  0.28668099076E+02  0.69902977548E+01  0.30000000000E+02  0.47000000000E+01 0.  1.
</event>
<event>
 5    1  0.7693226E-002  0.6000000E+02  0.7546771E-02  0.1259629E+00
         11   -1    0    0    0    0  0.00000000000E+00  0.00000000000E+00  0.30000000000E+02  0.30000000000E+02  0.00000000000E+00 0. -1.
        -11   -1    0    0    0    0 -0.00000000000E+00 -0.00000000000E+00 -0.30000000000E+02  0.30000000000E+02  0.00000000000E+00 0.  1.
         23    2    1    2    0    0  0.00000000000E+00  0.00000000000E+00  0.00000000000E+00  0.60000000000E+02  0.60000000000E+02 0.  0.
          5    1    3    3  501    0 -0.83613418818E+01  0.19526481018E+02  0.20657069032E+02  0.30000000000E+02  0.47000000000E+01 0. -1.
         -5    1    3    3    0  501  0.83613418818E+01 -0.19526481018E+02 -0.20657069032E+02  0.30000000000E+02  0.47000000000E+01 0.  1.
</event>
<event>
 5    1  0.7693226E-002  0.6000000E+02  0.7546771E-02  0.1259629E+00
         11   -1    0    0    0    0  0.00000000000E+00  0.00000000000E+00  0.30000000000E+02  0.30000000000E+02  0.00000000000E+00 0.  1.
        -11   -1    0    0    0    0 -0.00000000000E+00 -0.00000000000E+00 -0.30000000000E+02  0.30000000000E+02  0.00000000000E+00 0. -1.
         23    2    1    2    0    0  0.00000000000E+00  0.00000000000E+00  0.00000000000E+00  0.60000000000E+02  0.60000000000E+02 0.  0.
          5    1    3    3  501    0 -0.16340907088E+02  0.12219537797E+02 -0.21484125571E+02  0.30000000000E+02  0.47000000000E+01 0. -1.
         -5    1    3    3    0  501  0.16340907088E+02 -0.12219537797E+02  0.21484125571E+02  0.30000000000E+02  0.47000000000E+01 0.  1.
</event>
<event>
 5    1  0.7693226E-002  0.6000000E+02  0.7546771E-02  0.1259629E+00
         11   -1    0    0    0    0  0.00000000000E+00  0.00000000000E+00  0.30000000000E+02  0.30000000000E+02  0.00000000000E+00 0.  1.
        -11   -1    0    0    0    0 -0.00000000000E+00 -0.00000000000E+00 -0.30000000000E+02  0.30000000000E+02  0.00000000000E+00 0. -1.
         23    2    1    2    0    0  0.00000000000E+00  0.00000000000E+00  0.00000000000E+00  0.60000000000E+02  0.60000000000E+02 0.  0.
          5    1    3    3  501    0 -0.37632290970E+01  0.13395469787E+02  0.26159309929E+02  0.30000000000E+02  0.47000000000E+01 0.  1.
         -5    1    3    3    0  501  0.37632290970E+01 -0.13395469787E+02 -0.26159309929E+02  0.30000000000E+02  0.47000000000E+01 0. -1.
</event>
<event>
 5    1  0.7693226E-002  0.6000000E+02  0.7546771E-02  0.1259629E+00
         11   -1    0    0    0    0  0.00000000000E+00  0.00000000000E+00  0.30000000000E+02  0.30000000000E+02  0.00000000000E+00 0.  1.
        -11   -1    0    0    0    0 -0.00000000000E+00 -0.00000000000E+00 -0.30000000000E+02  0.30000000000E+02  0.00000000000E+00 0. -1.
         23    2    1    2    0    0  0.00000000000E+00  0.00000000000E+00  0.00000000000E+00  0.60000000000E+02  0.60000000000E+02 0.  0.
          5    1    3    3  501    0 -0.14139277668E+02 -0.12352817044E+02 -0.22921578002E+02  0.30000000000E+02  0.47000000000E+01 0. -1.
         -5    1    3    3    0  501  0.14139277668E+02  0.12352817044E+02  0.22921578002E+02  0.30000000000E+02  0.47000000000E+01 0.  1.
</event>
<event>
 5    1  0.7693226E-002  0.6000000E+02  0.7546771E-02  0.1259629E+00
         11   -1    0    0    0    0  0.00000000000E+00  0.00000000000E+00  0.30000000000E+02  0.30000000000E+02  0.00000000000E+00 0.  1.
        -11   -1    0    0    0    0 -0.00000000000E+00 -0.00000000000E+00 -0.30000000000E+02  0.30000000000E+02  0.00000000000E+00 0. -1.
         23    2    1    2    0    0  0.00000000000E+00  0.00000000000E+00  0.00000000000E+00  0.60000000000E+02  0.60000000000E+02 0.  0.
          5    1    3    3  501    0  0.92108826355E+01  0.15906981352E+02 -0.23238708771E+02  0.30000000000E+02  0.47000000000E+01 0. -1.
         -5    1    3    3    0  501 -0.92108826355E+01 -0.15906981352E+02  0.23238708771E+02  0.30000000000E+02  0.47000000000E+01 0.  1.
</event>
<event>
 5    1  0.7693226E-002  0.6000000E+02  0.7546771E-02  0.1259629E+00
         11   -1    0    0    0    0  0.00000000000E+00  0.00000000000E+00  0.30000000000E+02  0.30000000000E+02  0.00000000000E+00 0. -1.
        -11   -1    0    0    0    0 -0.00000000000E+00 -0.00000000000E+00 -0.30000000000E+02  0.30000000000E+02  0.00000000000E+00 0.  1.
         23    2    1    2    0    0  0.00000000000E+00  0.00000000000E+00  0.00000000000E+00  0.60000000000E+02  0.60000000000E+02 0.  0.
          5    1    3    3  501    0 -0.17122664689E+02 -0.11420493410E+02 -0.21314236655E+02  0.30000000000E+02  0.47000000000E+01 0.  1.
         -5    1    3    3    0  501  0.17122664689E+02  0.11420493410E+02  0.21314236655E+02  0.30000000000E+02  0.47000000000E+01 0. -1.
</event>
<event>
 5    1  0.7693226E-002  0.6000000E+02  0.7546771E-02  0.1259629E+00
         11   -1    0    0    0    0  0.00000000000E+00  0.00000000000E+00  0.30000000000E+02  0.30000000000E+02  0.00000000000E+00 0.  1.
        -11   -1    0    0    0    0 -0.00000000000E+00 -0.00000000000E+00 -0.30000000000E+02  0.30000000000E+02  0.00000000000E+00 0. -1.
         23    2    1    2    0    0  0.00000000000E+00  0.00000000000E+00  0.00000000000E+00  0.60000000000E+02  0.60000000000E+02 0.  0.
          5    1    3    3  501    0  0.66646695519E+01 -0.17438181500E+02  0.23008737595E+02  0.30000000000E+02  0.47000000000E+01 0.  1.
         -5    1    3    3    0  501 -0.66646695519E+01  0.17438181500E+02 -0.23008737595E+02  0.30000000000E+02  0.47000000000E+01 0. -1.
</event>
<event>
 5    1  0.7693226E-002  0.6000000E+02  0.7546771E-02  0.1259629E+00
         11   -1    0    0    0    0  0.00000000000E+00  0.00000000000E+00  0.30000000000E+02  0.30000000000E+02  0.00000000000E+00 0. -1.
        -11   -1    0    0    0    0 -0.00000000000E+00 -0.00000000000E+00 -0.30000000000E+02  0.30000000000E+02  0.00000000000E+00 0.  1.
         23    2    1    2    0    0  0.00000000000E+00  0.00000000000E+00  0.00000000000E+00  0.60000000000E+02  0.60000000000E+02 0.  0.
          5    1    3    3  501    0  0.13187678993E+02  0.41467205247E+01 -0.26206866117E+02  0.30000000000E+02  0.47000000000E+01 0.  1.
         -5    1    3    3    0  501 -0.13187678993E+02 -0.41467205247E+01  0.26206866117E+02  0.30000000000E+02  0.47000000000E+01 0. -1.
</event>
<event>
 5    1  0.7693226E-002  0.6000000E+02  0.7546771E-02  0.1259629E+00
         11   -1    0    0    0    0  0.00000000000E+00  0.00000000000E+00  0.30000000000E+02  0.30000000000E+02  0.00000000000E+00 0.  1.
        -11   -1    0    0    0    0 -0.00000000000E+00 -0.00000000000E+00 -0.30000000000E+02  0.30000000000E+02  0.00000000000E+00 0. -1.
         23    2    1    2    0    0  0.00000000000E+00  0.00000000000E+00  0.00000000000E+00  0.60000000000E+02  0.60000000000E+02 0.  0.
          5    1    3    3  501    0  0.53769002844E+01 -0.39567953339E+00 -0.29134899709E+02  0.30000000000E+02  0.47000000000E+01 0. -1.
         -5    1    3    3    0  501 -0.53769002844E+01  0.39567953339E+00  0.29134899709E+02  0.30000000000E+02  0.47000000000E+01 0.  1.
</event>
<event>
 5    1  0.7693226E-002  0.6000000E+02  0.7546771E-02  0.1259629E+00
         11   -1    0    0    0    0  0.00000000000E+00  0.00000000000E+00  0.30000000000E+02  0.30000000000E+02  0.00000000000E+00 0.  1.
        -11   -1    0    0    0    0 -0.00000000000E+00 -0.00000000000E+00 -0.30000000000E+02  0.30000000000E+02  0.00000000000E+00 0. -1.
         23    2    1    2    0    0  0.00000000000E+00  0.00000000000E+00  0.00000000000E+00  0.60000000000E+02  0.60000000000E+02 0.  0.
          5    1    3    3  501    0  0.58015341993E+01  0.77147968176E+01 -0.28013106058E+02  0.30000000000E+02  0.47000000000E+01 0. -1.
         -5    1    3    3    0  501 -0.58015341993E+01 -0.77147968176E+01  0.28013106058E+02  0.30000000000E+02  0.47000000000E+01 0.  1.
</event>
<event>
 5    1  0.7693226E-002  0.6000000E+02  0.7546771E-02  0.1259629E+00
         11   -1    0    0    0    0  0.00000000000E+00  0.00000000000E+00  0.30000000000E+02  0.30000000000E+02  0.00000000000E+00 0.  1.
        -11   -1    0    0    0    0 -0.00000000000E+00 -0.00000000000E+00 -0.30000000000E+02  0.30000000000E+02  0.00000000000E+00 0. -1.
         23    2    1    2    0    0  0.00000000000E+00  0.00000000000E+00  0.00000000000E+00  0.60000000000E+02  0.60000000000E+02 0.  0.
          5    1    3    3  501    0  0.24704072377E+02  0.12111756026E+02 -0.10996552822E+02  0.30000000000E+02  0.47000000000E+01 0. -1.
         -5    1    3    3    0  501 -0.24704072377E+02 -0.12111756026E+02  0.10996552822E+02  0.30000000000E+02  0.47000000000E+01 0.  1.
</event>
<event>
 5    1  0.7693226E-002  0.6000000E+02  0.7546771E-02  0.1259629E+00
         11   -1    0    0    0    0  0.00000000000E+00  0.00000000000E+00  0.30000000000E+02  0.30000000000E+02  0.00000000000E+00 0.  1.
        -11   -1    0    0    0    0 -0.00000000000E+00 -0.00000000000E+00 -0.30000000000E+02  0.30000000000E+02  0.00000000000E+00 0. -1.
         23    2    1    2    0    0  0.00000000000E+00  0.00000000000E+00  0.00000000000E+00  0.60000000000E+02  0.60000000000E+02 0.  0.
          5    1    3    3  501    0  0.12116625283E+02  0.25494237296E+02  0.90078441625E+01  0.30000000000E+02  0.47000000000E+01 0. -1.
         -5    1    3    3    0  501 -0.12116625283E+02 -0.25494237296E+02 -0.90078441625E+01  0.30000000000E+02  0.47000000000E+01 0.  1.
</event>
<event>
 5    1  0.7693226E-002  0.6000000E+02  0.7546771E-02  0.1259629E+00
         11   -1    0    0    0    0  0.00000000000E+00  0.00000000000E+00  0.30000000000E+02  0.30000000000E+02  0.00000000000E+00 0. -1.
        -11   -1    0    0    0    0 -0.00000000000E+00 -0.00000000000E+00 -0.30000000000E+02  0.30000000000E+02  0.00000000000E+00 0.  1.
         23    2    1    2    0    0  0.00000000000E+00  0.00000000000E+00  0.00000000000E+00  0.60000000000E+02  0.60000000000E+02 0.  0.
          5    1    3    3  501    0  0.11273586308E+02 -0.24557440686E+02 -0.12155178266E+02  0.30000000000E+02  0.47000000000E+01 0.  1.
         -5    1    3    3    0  501 -0.11273586308E+02  0.24557440686E+02  0.12155178266E+02  0.30000000000E+02  0.47000000000E+01 0. -1.
</event>
<event>
 5    1  0.7693226E-002  0.6000000E+02  0.7546771E-02  0.1259629E+00
         11   -1    0    0    0    0  0.00000000000E+00  0.00000000000E+00  0.30000000000E+02  0.30000000000E+02  0.00000000000E+00 0.  1.
        -11   -1    0    0    0    0 -0.00000000000E+00 -0.00000000000E+00 -0.30000000000E+02  0.30000000000E+02  0.00000000000E+00 0. -1.
         23    2    1    2    0    0  0.00000000000E+00  0.00000000000E+00  0.00000000000E+00  0.60000000000E+02  0.60000000000E+02 0.  0.
          5    1    3    3  501    0  0.25294937154E+01 -0.23868258059E+00 -0.29520411450E+02  0.30000000000E+02  0.47000000000E+01 0. -1.
         -5    1    3    3    0  501 -0.25294937154E+01  0.23868258059E+00  0.29520411450E+02  0.30000000000E+02  0.47000000000E+01 0.  1.
</event>
<event>
 5    1  0.7693226E-002  0.6000000E+02  0.7546771E-02  0.1259629E+00
         11   -1    0    0    0    0  0.00000000000E+00  0.00000000000E+00  0.30000000000E+02  0.30000000000E+02  0.00000000000E+00 0.  1.
        -11   -1    0    0    0    0 -0.00000000000E+00 -0.00000000000E+00 -0.30000000000E+02  0.30000000000E+02  0.00000000000E+00 0. -1.
         23    2    1    2    0    0  0.00000000000E+00  0.00000000000E+00  0.00000000000E+00  0.60000000000E+02  0.60000000000E+02 0.  0.
          5    1    3    3  501    0 -0.28667796196E+02 -0.74582895481E+01  0.66436307143E+00  0.30000000000E+02  0.47000000000E+01 0. -1.
         -5    1    3    3    0  501  0.28667796196E+02  0.74582895481E+01 -0.66436307143E+00  0.30000000000E+02  0.47000000000E+01 0.  1.
</event>
<event>
 5    1  0.7693226E-002  0.6000000E+02  0.7546771E-02  0.1259629E+00
         11   -1    0    0    0    0  0.00000000000E+00  0.00000000000E+00  0.30000000000E+02  0.30000000000E+02  0.00000000000E+00 0.  1.
        -11   -1    0    0    0    0 -0.00000000000E+00 -0.00000000000E+00 -0.30000000000E+02  0.30000000000E+02  0.00000000000E+00 0. -1.
         23    2    1    2    0    0  0.00000000000E+00  0.00000000000E+00  0.00000000000E+00  0.60000000000E+02  0.60000000000E+02 0.  0.
          5    1    3    3  501    0  0.36699685429E+01 -0.22795392625E+02 -0.18569098146E+02  0.30000000000E+02  0.47000000000E+01 0. -1.
         -5    1    3    3    0  501 -0.36699685429E+01  0.22795392625E+02  0.18569098146E+02  0.30000000000E+02  0.47000000000E+01 0.  1.
</event>
<event>
 5    1  0.7693226E-002  0.6000000E+02  0.7546771E-02  0.1259629E+00
         11   -1    0    0    0    0  0.00000000000E+00  0.00000000000E+00  0.30000000000E+02  0.30000000000E+02  0.00000000000E+00 0.  1.
        -11   -1    0    0    0    0 -0.00000000000E+00 -0.00000000000E+00 -0.30000000000E+02  0.30000000000E+02  0.00000000000E+00 0. -1.
         23    2    1    2    0    0  0.00000000000E+00  0.00000000000E+00  0.00000000000E+00  0.60000000000E+02  0.60000000000E+02 0.  0.
          5    1    3    3  501    0  0.21695470376E+02  0.13055224949E+02 -0.15387581574E+02  0.30000000000E+02  0.47000000000E+01 0. -1.
         -5    1    3    3    0  501 -0.21695470376E+02 -0.13055224949E+02  0.15387581574E+02  0.30000000000E+02  0.47000000000E+01 0.  1.
</event>
<event>
 5    1  0.7693226E-002  0.6000000E+02  0.7546771E-02  0.1259629E+00
         11   -1    0    0    0    0  0.00000000000E+00  0.00000000000E+00  0.30000000000E+02  0.30000000000E+02  0.00000000000E+00 0. -1.
        -11   -1    0    0    0    0 -0.00000000000E+00 -0.00000000000E+00 -0.30000000000E+02  0.30000000000E+02  0.00000000000E+00 0.  1.
         23    2    1    2    0    0  0.00000000000E+00  0.00000000000E+00  0.00000000000E+00  0.60000000000E+02  0.60000000000E+02 0.  0.
          5    1    3    3  501    0  0.13122832243E+02 -0.13088647635E+02  0.23116846173E+02  0.30000000000E+02  0.47000000000E+01 0. -1.
         -5    1    3    3    0  501 -0.13122832243E+02  0.13088647635E+02 -0.23116846173E+02  0.30000000000E+02  0.47000000000E+01 0.  1.
</event>
<event>
 5    1  0.7693226E-002  0.6000000E+02  0.7546771E-02  0.1259629E+00
         11   -1    0    0    0    0  0.00000000000E+00  0.00000000000E+00  0.30000000000E+02  0.30000000000E+02  0.00000000000E+00 0.  1.
        -11   -1    0    0    0    0 -0.00000000000E+00 -0.00000000000E+00 -0.30000000000E+02  0.30000000000E+02  0.00000000000E+00 0. -1.
         23    2    1    2    0    0  0.00000000000E+00  0.00000000000E+00  0.00000000000E+00  0.60000000000E+02  0.60000000000E+02 0.  0.
          5    1    3    3  501    0 -0.98129034451E+01  0.27600263804E+02 -0.44544768386E+01  0.30000000000E+02  0.47000000000E+01 0. -1.
         -5    1    3    3    0  501  0.98129034451E+01 -0.27600263804E+02  0.44544768386E+01  0.30000000000E+02  0.47000000000E+01 0.  1.
</event>
<event>
 5    1  0.7693226E-002  0.6000000E+02  0.7546771E-02  0.1259629E+00
         11   -1    0    0    0    0  0.00000000000E+00  0.00000000000E+00  0.30000000000E+02  0.30000000000E+02  0.00000000000E+00 0.  1.
        -11   -1    0    0    0    0 -0.00000000000E+00 -0.00000000000E+00 -0.30000000000E+02  0.30000000000E+02  0.00000000000E+00 0. -1.
         23    2    1    2    0    0  0.00000000000E+00  0.00000000000E+00  0.00000000000E+00  0.60000000000E+02  0.60000000000E+02 0.  0.
          5    1    3    3  501    0 -0.20309747339E+01  0.52337917764E+01 -0.29092826698E+02  0.30000000000E+02  0.47000000000E+01 0. -1.
         -5    1    3    3    0  501  0.20309747339E+01 -0.52337917764E+01  0.29092826698E+02  0.30000000000E+02  0.47000000000E+01 0.  1.
</event>
<event>
 5    1  0.7693226E-002  0.6000000E+02  0.7546771E-02  0.1259629E+00
         11   -1    0    0    0    0  0.00000000000E+00  0.00000000000E+00  0.30000000000E+02  0.30000000000E+02  0.00000000000E+00 0. -1.
        -11   -1    0    0    0    0 -0.00000000000E+00 -0.00000000000E+00 -0.30000000000E+02  0.30000000000E+02  0.00000000000E+00 0.  1.
         23    2    1    2    0    0  0.00000000000E+00  0.00000000000E+00  0.00000000000E+00  0.60000000000E+02  0.60000000000E+02 0.  0.
          5    1    3    3  501    0 -0.19343578217E+02 -0.13438973812E+02  0.17975816105E+02  0.30000000000E+02  0.47000000000E+01 0. -1.
         -5    1    3    3    0  501  0.19343578217E+02  0.13438973812E+02 -0.17975816105E+02  0.30000000000E+02  0.47000000000E+01 0.  1.
</event>
<event>
 5    1  0.7693226E-002  0.6000000E+02  0.7546771E-02  0.1259629E+00
         11   -1    0    0    0    0  0.00000000000E+00  0.00000000000E+00  0.30000000000E+02  0.30000000000E+02  0.00000000000E+00 0.  1.
        -11   -1    0    0    0    0 -0.00000000000E+00 -0.00000000000E+00 -0.30000000000E+02  0.30000000000E+02  0.00000000000E+00 0. -1.
         23    2    1    2    0    0  0.00000000000E+00  0.00000000000E+00  0.00000000000E+00  0.60000000000E+02  0.60000000000E+02 0.  0.
          5    1    3    3  501    0  0.72139427570E+01 -0.23446126060E+02 -0.16617707503E+02  0.30000000000E+02  0.47000000000E+01 0. -1.
         -5    1    3    3    0  501 -0.72139427570E+01  0.23446126060E+02  0.16617707503E+02  0.30000000000E+02  0.47000000000E+01 0.  1.
</event>
<event>
 5    1  0.7693226E-002  0.6000000E+02  0.7546771E-02  0.1259629E+00
         11   -1    0    0    0    0  0.00000000000E+00  0.00000000000E+00  0.30000000000E+02  0.30000000000E+02  0.00000000000E+00 0.  1.
        -11   -1    0    0    0    0 -0.00000000000E+00 -0.00000000000E+00 -0.30000000000E+02  0.30000000000E+02  0.00000000000E+00 0. -1.
         23    2    1    2    0    0  0.00000000000E+00  0.00000000000E+00  0.00000000000E+00  0.60000000000E+02  0.60000000000E+02 0.  0.
          5    1    3    3  501    0  0.66644701987E+01 -0.23031352030E+02 -0.17408379035E+02  0.30000000000E+02  0.47000000000E+01 0. -1.
         -5    1    3    3    0  501 -0.66644701987E+01  0.23031352030E+02  0.17408379035E+02  0.30000000000E+02  0.47000000000E+01 0.  1.
</event>
<event>
 5    1  0.7693226E-002  0.6000000E+02  0.7546771E-02  0.1259629E+00
         11   -1    0    0    0    0  0.00000000000E+00  0.00000000000E+00  0.30000000000E+02  0.30000000000E+02  0.00000000000E+00 0.  1.
        -11   -1    0    0    0    0 -0.00000000000E+00 -0.00000000000E+00 -0.30000000000E+02  0.30000000000E+02  0.00000000000E+00 0. -1.
         23    2    1    2    0    0  0.00000000000E+00  0.00000000000E+00  0.00000000000E+00  0.60000000000E+02  0.60000000000E+02 0.  0.
          5    1    3    3  501    0  0.69340673397E+01 -0.16318016020E+02 -0.23739230470E+02  0.30000000000E+02  0.47000000000E+01 0. -1.
         -5    1    3    3    0  501 -0.69340673397E+01  0.16318016020E+02  0.23739230470E+02  0.30000000000E+02  0.47000000000E+01 0.  1.
</event>
<event>
 5    1  0.7693226E-002  0.6000000E+02  0.7546771E-02  0.1259629E+00
         11   -1    0    0    0    0  0.00000000000E+00  0.00000000000E+00  0.30000000000E+02  0.30000000000E+02  0.00000000000E+00 0.  1.
        -11   -1    0    0    0    0 -0.00000000000E+00 -0.00000000000E+00 -0.30000000000E+02  0.30000000000E+02  0.00000000000E+00 0. -1.
         23    2    1    2    0    0  0.00000000000E+00  0.00000000000E+00  0.00000000000E+00  0.60000000000E+02  0.60000000000E+02 0.  0.
          5    1    3    3  501    0  0.25062458221E+02  0.15543769533E+02  0.28590936714E+01  0.30000000000E+02  0.47000000000E+01 0. -1.
         -5    1    3    3    0  501 -0.25062458221E+02 -0.15543769533E+02 -0.28590936714E+01  0.30000000000E+02  0.47000000000E+01 0.  1.
</event>
<event>
 5    1  0.7693226E-002  0.6000000E+02  0.7546771E-02  0.1259629E+00
         11   -1    0    0    0    0  0.00000000000E+00  0.00000000000E+00  0.30000000000E+02  0.30000000000E+02  0.00000000000E+00 0.  1.
        -11   -1    0    0    0    0 -0.00000000000E+00 -0.00000000000E+00 -0.30000000000E+02  0.30000000000E+02  0.00000000000E+00 0. -1.
         23    2    1    2    0    0  0.00000000000E+00  0.00000000000E+00  0.00000000000E+00  0.60000000000E+02  0.60000000000E+02 0.  0.
          5    1    3    3  501    0 -0.10593904304E+01 -0.14778686777E+02 -0.25658879732E+02  0.30000000000E+02  0.47000000000E+01 0. -1.
         -5    1    3    3    0  501  0.10593904304E+01  0.14778686777E+02  0.25658879732E+02  0.30000000000E+02  0.47000000000E+01 0.  1.
</event>
<event>
 5    1  0.7693226E-002  0.6000000E+02  0.7546771E-02  0.1259629E+00
         11   -1    0    0    0    0  0.00000000000E+00  0.00000000000E+00  0.30000000000E+02  0.30000000000E+02  0.00000000000E+00 0. -1.
        -11   -1    0    0    0    0 -0.00000000000E+00 -0.00000000000E+00 -0.30000000000E+02  0.30000000000E+02  0.00000000000E+00 0.  1.
         23    2    1    2    0    0  0.00000000000E+00  0.00000000000E+00  0.00000000000E+00  0.60000000000E+02  0.60000000000E+02 0.  0.
          5    1    3    3  501    0  0.18101933876E+02  0.33931958240E+01  0.23210260921E+02  0.30000000000E+02  0.47000000000E+01 0. -1.
         -5    1    3    3    0  501 -0.18101933876E+02 -0.33931958240E+01 -0.23210260921E+02  0.30000000000E+02  0.47000000000E+01 0.  1.
</event>
<event>
 5    1  0.7693226E-002  0.6000000E+02  0.7546771E-02  0.1259629E+00
         11   -1    0    0    0    0  0.00000000000E+00  0.00000000000E+00  0.30000000000E+02  0.30000000000E+02  0.00000000000E+00 0.  1.
        -11   -1    0    0    0    0 -0.00000000000E+00 -0.00000000000E+00 -0.30000000000E+02  0.30000000000E+02  0.00000000000E+00 0. -1.
         23    2    1    2    0    0  0.00000000000E+00  0.00000000000E+00  0.00000000000E+00  0.60000000000E+02  0.60000000000E+02 0.  0.
          5    1    3    3  501    0  0.11829187778E+01  0.67883751787E+01  0.28817159222E+02  0.30000000000E+02  0.47000000000E+01 0.  1.
         -5    1    3    3    0  501 -0.11829187778E+01 -0.67883751787E+01 -0.28817159222E+02  0.30000000000E+02  0.47000000000E+01 0. -1.
</event>
<event>
 5    1  0.7693226E-002  0.6000000E+02  0.7546771E-02  0.1259629E+00
         11   -1    0    0    0    0  0.00000000000E+00  0.00000000000E+00  0.30000000000E+02  0.30000000000E+02  0.00000000000E+00 0.  1.
        -11   -1    0    0    0    0 -0.00000000000E+00 -0.00000000000E+00 -0.30000000000E+02  0.30000000000E+02  0.00000000000E+00 0. -1.
         23    2    1    2    0    0  0.00000000000E+00  0.00000000000E+00  0.00000000000E+00  0.60000000000E+02  0.60000000000E+02 0.  0.
          5    1    3    3  501    0  0.20669368819E+02  0.19595336463E+02 -0.81676178605E+01  0.30000000000E+02  0.47000000000E+01 0. -1.
         -5    1    3    3    0  501 -0.20669368819E+02 -0.19595336463E+02  0.81676178605E+01  0.30000000000E+02  0.47000000000E+01 0.  1.
</event>
<event>
 5    1  0.7693226E-002  0.6000000E+02  0.7546771E-02  0.1259629E+00
         11   -1    0    0    0    0  0.00000000000E+00  0.00000000000E+00  0.30000000000E+02  0.30000000000E+02  0.00000000000E+00 0. -1.
        -11   -1    0    0    0    0 -0.00000000000E+00 -0.00000000000E+00 -0.30000000000E+02  0.30000000000E+02  0.00000000000E+00 0.  1.
         23    2    1    2    0    0  0.00000000000E+00  0.00000000000E+00  0.00000000000E+00  0.60000000000E+02  0.60000000000E+02 0.  0.
          5    1    3    3  501    0  0.25028343468E+02 -0.10650621783E+02  0.11749735269E+02  0.30000000000E+02  0.47000000000E+01 0. -1.
         -5    1    3    3    0  501 -0.25028343468E+02  0.10650621783E+02 -0.11749735269E+02  0.30000000000E+02  0.47000000000E+01 0.  1.
</event>
<event>
 5    1  0.7693226E-002  0.6000000E+02  0.7546771E-02  0.1259629E+00
         11   -1    0    0    0    0  0.00000000000E+00  0.00000000000E+00  0.30000000000E+02  0.30000000000E+02  0.00000000000E+00 0.  1.
        -11   -1    0    0    0    0 -0.00000000000E+00 -0.00000000000E+00 -0.30000000000E+02  0.30000000000E+02  0.00000000000E+00 0. -1.
         23    2    1    2    0    0  0.00000000000E+00  0.00000000000E+00  0.00000000000E+00  0.60000000000E+02  0.60000000000E+02 0.  0.
          5    1    3    3  501    0 -0.24899870487E+02 -0.93829417929E+01 -0.13033297858E+02  0.30000000000E+02  0.47000000000E+01 0. -1.
         -5    1    3    3    0  501  0.24899870487E+02  0.93829417929E+01  0.13033297858E+02  0.30000000000E+02  0.47000000000E+01 0.  1.
</event>
<event>
 5    1  0.7693226E-002  0.6000000E+02  0.7546771E-02  0.1259629E+00
         11   -1    0    0    0    0  0.00000000000E+00  0.00000000000E+00  0.30000000000E+02  0.30000000000E+02  0.00000000000E+00 0.  1.
        -11   -1    0    0    0    0 -0.00000000000E+00 -0.00000000000E+00 -0.30000000000E+02  0.30000000000E+02  0.00000000000E+00 0. -1.
         23    2    1    2    0    0  0.00000000000E+00  0.00000000000E+00  0.00000000000E+00  0.60000000000E+02  0.60000000000E+02 0.  0.
          5    1    3    3  501    0 -0.16696359143E+02  0.47874077510E+01 -0.24004631186E+02  0.30000000000E+02  0.47000000000E+01 0. -1.
         -5    1    3    3    0  501  0.16696359143E+02 -0.47874077510E+01  0.24004631186E+02  0.30000000000E+02  0.47000000000E+01 0.  1.
</event>
<event>
 5    1  0.7693226E-002  0.6000000E+02  0.7546771E-02  0.1259629E+00
         11   -1    0    0    0    0  0.00000000000E+00  0.00000000000E+00  0.30000000000E+02  0.30000000000E+02  0.00000000000E+00 0.  1.
        -11   -1    0    0    0    0 -0.00000000000E+00 -0.00000000000E+00 -0.30000000000E+02  0.30000000000E+02  0.00000000000E+00 0. -1.
         23    2    1    2    0    0  0.00000000000E+00  0.00000000000E+00  0.00000000000E+00  0.60000000000E+02  0.60000000000E+02 0.  0.
          5    1    3    3  501    0 -0.26086428137E+02 -0.11651556771E+02  0.78517190384E+01  0.30000000000E+02  0.47000000000E+01 0. -1.
         -5    1    3    3    0  501  0.26086428137E+02  0.11651556771E+02 -0.78517190384E+01  0.30000000000E+02  0.47000000000E+01 0.  1.
</event>
<event>
 5    1  0.7693226E-002  0.6000000E+02  0.7546771E-02  0.1259629E+00
         11   -1    0    0    0    0  0.00000000000E+00  0.00000000000E+00  0.30000000000E+02  0.30000000000E+02  0.00000000000E+00 0. -1.
        -11   -1    0    0    0    0 -0.00000000000E+00 -0.00000000000E+00 -0.30000000000E+02  0.30000000000E+02  0.00000000000E+00 0.  1.
         23    2    1    2    0    0  0.00000000000E+00  0.00000000000E+00  0.00000000000E+00  0.60000000000E+02  0.60000000000E+02 0.  0.
          5    1    3    3  501    0  0.28261301755E+02 -0.61386788866E+01 -0.64440239497E+01  0.30000000000E+02  0.47000000000E+01 0.  1.
         -5    1    3    3    0  501 -0.28261301755E+02  0.61386788866E+01  0.64440239497E+01  0.30000000000E+02  0.47000000000E+01 0. -1.
</event>
<event>
 5    1  0.7693226E-002  0.6000000E+02  0.7546771E-02  0.1259629E+00
         11   -1    0    0    0    0  0.00000000000E+00  0.00000000000E+00  0.30000000000E+02  0.30000000000E+02  0.00000000000E+00 0.  1.
        -11   -1    0    0    0    0 -0.00000000000E+00 -0.00000000000E+00 -0.30000000000E+02  0.30000000000E+02  0.00000000000E+00 0. -1.
         23    2    1    2    0    0  0.00000000000E+00  0.00000000000E+00  0.00000000000E+00  0.60000000000E+02  0.60000000000E+02 0.  0.
          5    1    3    3  501    0 -0.13271023044E+02 -0.15463835673E+02 -0.21509526579E+02  0.30000000000E+02  0.47000000000E+01 0. -1.
         -5    1    3    3    0  501  0.13271023044E+02  0.15463835673E+02  0.21509526579E+02  0.30000000000E+02  0.47000000000E+01 0.  1.
</event>
<event>
 5    1  0.7693226E-002  0.6000000E+02  0.7546771E-02  0.1259629E+00
         11   -1    0    0    0    0  0.00000000000E+00  0.00000000000E+00  0.30000000000E+02  0.30000000000E+02  0.00000000000E+00 0. -1.
        -11   -1    0    0    0    0 -0.00000000000E+00 -0.00000000000E+00 -0.30000000000E+02  0.30000000000E+02  0.00000000000E+00 0.  1.
         23    2    1    2    0    0  0.00000000000E+00  0.00000000000E+00  0.00000000000E+00  0.60000000000E+02  0.60000000000E+02 0.  0.
          5    1    3    3  501    0 -0.12590434760E+02  0.14025932790E+02 -0.22861849486E+02  0.30000000000E+02  0.47000000000E+01 0.  1.
         -5    1    3    3    0  501  0.12590434760E+02 -0.14025932790E+02  0.22861849486E+02  0.30000000000E+02  0.47000000000E+01 0. -1.
</event>
<event>
 5    1  0.7693226E-002  0.6000000E+02  0.7546771E-02  0.1259629E+00
         11   -1    0    0    0    0  0.00000000000E+00  0.00000000000E+00  0.30000000000E+02  0.30000000000E+02  0.00000000000E+00 0.  1.
        -11   -1    0    0    0    0 -0.00000000000E+00 -0.00000000000E+00 -0.30000000000E+02  0.30000000000E+02  0.00000000000E+00 0. -1.
         23    2    1    2    0    0  0.00000000000E+00  0.00000000000E+00  0.00000000000E+00  0.60000000000E+02  0.60000000000E+02 0.  0.
          5    1    3    3  501    0  0.16203776272E+02  0.24220866989E+02 -0.53569801961E+01  0.30000000000E+02  0.47000000000E+01 0. -1.
         -5    1    3    3    0  501 -0.16203776272E+02 -0.24220866989E+02  0.53569801961E+01  0.30000000000E+02  0.47000000000E+01 0.  1.
</event>
<event>
 5    1  0.7693226E-002  0.6000000E+02  0.7546771E-02  0.1259629E+00
         11   -1    0    0    0    0  0.00000000000E+00  0.00000000000E+00  0.30000000000E+02  0.30000000000E+02  0.00000000000E+00 0.  1.
        -11   -1    0    0    0    0 -0.00000000000E+00 -0.00000000000E+00 -0.30000000000E+02  0.30000000000E+02  0.00000000000E+00 0. -1.
         23    2    1    2    0    0  0.00000000000E+00  0.00000000000E+00  0.00000000000E+00  0.60000000000E+02  0.60000000000E+02 0.  0.
          5    1    3    3  501    0 -0.20270631064E+02 -0.21076655827E+02  0.47734783370E+01  0.30000000000E+02  0.47000000000E+01 0. -1.
         -5    1    3    3    0  501  0.20270631064E+02  0.21076655827E+02 -0.47734783370E+01  0.30000000000E+02  0.47000000000E+01 0.  1.
</event>
<event>
 5    1  0.7693226E-002  0.6000000E+02  0.7546771E-02  0.1259629E+00
         11   -1    0    0    0    0  0.00000000000E+00  0.00000000000E+00  0.30000000000E+02  0.30000000000E+02  0.00000000000E+00 0.  1.
        -11   -1    0    0    0    0 -0.00000000000E+00 -0.00000000000E+00 -0.30000000000E+02  0.30000000000E+02  0.00000000000E+00 0. -1.
         23    2    1    2    0    0  0.00000000000E+00  0.00000000000E+00  0.00000000000E+00  0.60000000000E+02  0.60000000000E+02 0.  0.
          5    1    3    3  501    0  0.10115618168E+02  0.14651669587E+01 -0.27810745313E+02  0.30000000000E+02  0.47000000000E+01 0. -1.
         -5    1    3    3    0  501 -0.10115618168E+02 -0.14651669587E+01  0.27810745313E+02  0.30000000000E+02  0.47000000000E+01 0.  1.
</event>
<event>
 5    1  0.7693226E-002  0.6000000E+02  0.7546771E-02  0.1259629E+00
         11   -1    0    0    0    0  0.00000000000E+00  0.00000000000E+00  0.30000000000E+02  0.30000000000E+02  0.00000000000E+00 0. -1.
        -11   -1    0    0    0    0 -0.00000000000E+00 -0.00000000000E+00 -0.30000000000E+02  0.30000000000E+02  0.00000000000E+00 0.  1.
         23    2    1    2    0    0  0.00000000000E+00  0.00000000000E+00  0.00000000000E+00  0.60000000000E+02  0.60000000000E+02 0.  0.
          5    1    3    3  501    0  0.23116375997E+02 -0.15779929138E+02 -0.97230137913E+01  0.30000000000E+02  0.47000000000E+01 0.  1.
         -5    1    3    3    0  501 -0.23116375997E+02  0.15779929138E+02  0.97230137913E+01  0.30000000000E+02  0.47000000000E+01 0. -1.
</event>
<event>
 5    1  0.7693226E-002  0.6000000E+02  0.7546771E-02  0.1259629E+00
         11   -1    0    0    0    0  0.00000000000E+00  0.00000000000E+00  0.30000000000E+02  0.30000000000E+02  0.00000000000E+00 0.  1.
        -11   -1    0    0    0    0 -0.00000000000E+00 -0.00000000000E+00 -0.30000000000E+02  0.30000000000E+02  0.00000000000E+00 0. -1.
         23    2    1    2    0    0  0.00000000000E+00  0.00000000000E+00  0.00000000000E+00  0.60000000000E+02  0.60000000000E+02 0.  0.
          5    1    3    3  501    0  0.20022576696E+02  0.21250384004E+02  0.50425789186E+01  0.30000000000E+02  0.47000000000E+01 0. -1.
         -5    1    3    3    0  501 -0.20022576696E+02 -0.21250384004E+02 -0.50425789186E+01  0.30000000000E+02  0.47000000000E+01 0.  1.
</event>
<event>
 5    1  0.7693226E-002  0.6000000E+02  0.7546771E-02  0.1259629E+00
         11   -1    0    0    0    0  0.00000000000E+00  0.00000000000E+00  0.30000000000E+02  0.30000000000E+02  0.00000000000E+00 0. -1.
        -11   -1    0    0    0    0 -0.00000000000E+00 -0.00000000000E+00 -0.30000000000E+02  0.30000000000E+02  0.00000000000E+00 0.  1.
         23    2    1    2    0    0  0.00000000000E+00  0.00000000000E+00  0.00000000000E+00  0.60000000000E+02  0.60000000000E+02 0.  0.
          5    1    3    3  501    0  0.19979384179E+02 -0.21815863720E+02 -0.16740065651E+01  0.30000000000E+02  0.47000000000E+01 0.  1.
         -5    1    3    3    0  501 -0.19979384179E+02  0.21815863720E+02  0.16740065651E+01  0.30000000000E+02  0.47000000000E+01 0. -1.
</event>
<event>
 5    1  0.7693226E-002  0.6000000E+02  0.7546771E-02  0.1259629E+00
         11   -1    0    0    0    0  0.00000000000E+00  0.00000000000E+00  0.30000000000E+02  0.30000000000E+02  0.00000000000E+00 0.  1.
        -11   -1    0    0    0    0 -0.00000000000E+00 -0.00000000000E+00 -0.30000000000E+02  0.30000000000E+02  0.00000000000E+00 0. -1.
         23    2    1    2    0    0  0.00000000000E+00  0.00000000000E+00  0.00000000000E+00  0.60000000000E+02  0.60000000000E+02 0.  0.
          5    1    3    3  501    0 -0.42880531608E+01  0.28839886346E+02 -0.52710108736E+01  0.30000000000E+02  0.47000000000E+01 0. -1.
         -5    1    3    3    0  501  0.42880531608E+01 -0.28839886346E+02  0.52710108736E+01  0.30000000000E+02  0.47000000000E+01 0.  1.
</event>
<event>
 5    1  0.7693226E-002  0.6000000E+02  0.7546771E-02  0.1259629E+00
         11   -1    0    0    0    0  0.00000000000E+00  0.00000000000E+00  0.30000000000E+02  0.30000000000E+02  0.00000000000E+00 0. -1.
        -11   -1    0    0    0    0 -0.00000000000E+00 -0.00000000000E+00 -0.30000000000E+02  0.30000000000E+02  0.00000000000E+00 0.  1.
         23    2    1    2    0    0  0.00000000000E+00  0.00000000000E+00  0.00000000000E+00  0.60000000000E+02  0.60000000000E+02 0.  0.
          5    1    3    3  501    0 -0.82652562250E+01 -0.23139301234E+02 -0.16558027598E+02  0.30000000000E+02  0.47000000000E+01 0.  1.
         -5    1    3    3    0  501  0.82652562250E+01  0.23139301234E+02  0.16558027598E+02  0.30000000000E+02  0.47000000000E+01 0. -1.
</event>
<event>
 5    1  0.7693226E-002  0.6000000E+02  0.7546771E-02  0.1259629E+00
         11   -1    0    0    0    0  0.00000000000E+00  0.00000000000E+00  0.30000000000E+02  0.30000000000E+02  0.00000000000E+00 0.  1.
        -11   -1    0    0    0    0 -0.00000000000E+00 -0.00000000000E+00 -0.30000000000E+02  0.30000000000E+02  0.00000000000E+00 0. -1.
         23    2    1    2    0    0  0.00000000000E+00  0.00000000000E+00  0.00000000000E+00  0.60000000000E+02  0.60000000000E+02 0.  0.
          5    1    3    3  501    0 -0.22237082068E+02  0.18227352119E+02 -0.71544263115E+01  0.30000000000E+02  0.47000000000E+01 0. -1.
         -5    1    3    3    0  501  0.22237082068E+02 -0.18227352119E+02  0.71544263115E+01  0.30000000000E+02  0.47000000000E+01 0.  1.
</event>
<event>
 5    1  0.7693226E-002  0.6000000E+02  0.7546771E-02  0.1259629E+00
         11   -1    0    0    0    0  0.00000000000E+00  0.00000000000E+00  0.30000000000E+02  0.30000000000E+02  0.00000000000E+00 0.  1.
        -11   -1    0    0    0    0 -0.00000000000E+00 -0.00000000000E+00 -0.30000000000E+02  0.30000000000E+02  0.00000000000E+00 0. -1.
         23    2    1    2    0    0  0.00000000000E+00  0.00000000000E+00  0.00000000000E+00  0.60000000000E+02  0.60000000000E+02 0.  0.
          5    1    3    3  501    0  0.10258535176E+00 -0.29221691348E+02 -0.48981864994E+01  0.30000000000E+02  0.47000000000E+01 0. -1.
         -5    1    3    3    0  501 -0.10258535176E+00  0.29221691348E+02  0.48981864994E+01  0.30000000000E+02  0.47000000000E+01 0.  1.
</event>
<event>
 5    1  0.7693226E-002  0.6000000E+02  0.7546771E-02  0.1259629E+00
         11   -1    0    0    0    0  0.00000000000E+00  0.00000000000E+00  0.30000000000E+02  0.30000000000E+02  0.00000000000E+00 0. -1.
        -11   -1    0    0    0    0 -0.00000000000E+00 -0.00000000000E+00 -0.30000000000E+02  0.30000000000E+02  0.00000000000E+00 0.  1.
         23    2    1    2    0    0  0.00000000000E+00  0.00000000000E+00  0.00000000000E+00  0.60000000000E+02  0.60000000000E+02 0.  0.
          5    1    3    3  501    0  0.17821453782E+02 -0.21046047211E+02 -0.10833728901E+02  0.30000000000E+02  0.47000000000E+01 0.  1.
         -5    1    3    3    0  501 -0.17821453782E+02  0.21046047211E+02  0.10833728901E+02  0.30000000000E+02  0.47000000000E+01 0. -1.
</event>
<event>
 5    1  0.7693226E-002  0.6000000E+02  0.7546771E-02  0.1259629E+00
         11   -1    0    0    0    0  0.00000000000E+00  0.00000000000E+00  0.30000000000E+02  0.30000000000E+02  0.00000000000E+00 0.  1.
        -11   -1    0    0    0    0 -0.00000000000E+00 -0.00000000000E+00 -0.30000000000E+02  0.30000000000E+02  0.00000000000E+00 0. -1.
         23    2    1    2    0    0  0.00000000000E+00  0.00000000000E+00  0.00000000000E+00  0.60000000000E+02  0.60000000000E+02 0.  0.
          5    1    3    3  501    0 -0.20491280332E+02  0.21105181327E+02 -0.35480630641E+01  0.30000000000E+02  0.47000000000E+01 0.  1.
         -5    1    3    3    0  501  0.20491280332E+02 -0.21105181327E+02  0.35480630641E+01  0.30000000000E+02  0.47000000000E+01 0. -1.
</event>
<event>
 5    1  0.7693226E-002  0.6000000E+02  0.7546771E-02  0.1259629E+00
         11   -1    0    0    0    0  0.00000000000E+00  0.00000000000E+00  0.30000000000E+02  0.30000000000E+02  0.00000000000E+00 0.  1.
        -11   -1    0    0    0    0 -0.00000000000E+00 -0.00000000000E+00 -0.30000000000E+02  0.30000000000E+02  0.00000000000E+00 0. -1.
         23    2    1    2    0    0  0.00000000000E+00  0.00000000000E+00  0.00000000000E+00  0.60000000000E+02  0.60000000000E+02 0.  0.
          5    1    3    3  501    0  0.17857275193E+02  0.12265117908E+02 -0.20213723194E+02  0.30000000000E+02  0.47000000000E+01 0. -1.
         -5    1    3    3    0  501 -0.17857275193E+02 -0.12265117908E+02  0.20213723194E+02  0.30000000000E+02  0.47000000000E+01 0.  1.
</event>
<event>
 5    1  0.7693226E-002  0.6000000E+02  0.7546771E-02  0.1259629E+00
         11   -1    0    0    0    0  0.00000000000E+00  0.00000000000E+00  0.30000000000E+02  0.30000000000E+02  0.00000000000E+00 0.  1.
        -11   -1    0    0    0    0 -0.00000000000E+00 -0.00000000000E+00 -0.30000000000E+02  0.30000000000E+02  0.00000000000E+00 0. -1.
         23    2    1    2    0    0  0.00000000000E+00  0.00000000000E+00  0.00000000000E+00  0.60000000000E+02  0.60000000000E+02 0.  0.
          5    1    3    3  501    0  0.16405980845E+01 -0.15088466491E+02  0.25447133765E+02  0.30000000000E+02  0.47000000000E+01 0.  1.
         -5    1    3    3    0  501 -0.16405980845E+01  0.15088466491E+02 -0.25447133765E+02  0.30000000000E+02  0.47000000000E+01 0. -1.
</event>
<event>
 5    1  0.7693226E-002  0.6000000E+02  0.7546771E-02  0.1259629E+00
         11   -1    0    0    0    0  0.00000000000E+00  0.00000000000E+00  0.30000000000E+02  0.30000000000E+02  0.00000000000E+00 0.  1.
        -11   -1    0    0    0    0 -0.00000000000E+00 -0.00000000000E+00 -0.30000000000E+02  0.30000000000E+02  0.00000000000E+00 0. -1.
         23    2    1    2    0    0  0.00000000000E+00  0.00000000000E+00  0.00000000000E+00  0.60000000000E+02  0.60000000000E+02 0.  0.
          5    1    3    3  501    0  0.24828413183E+02  0.15759030571E+02  0.36211675330E+01  0.30000000000E+02  0.47000000000E+01 0. -1.
         -5    1    3    3    0  501 -0.24828413183E+02 -0.15759030571E+02 -0.36211675330E+01  0.30000000000E+02  0.47000000000E+01 0.  1.
</event>
<event>
 5    1  0.7693226E-002  0.6000000E+02  0.7546771E-02  0.1259629E+00
         11   -1    0    0    0    0  0.00000000000E+00  0.00000000000E+00  0.30000000000E+02  0.30000000000E+02  0.00000000000E+00 0.  1.
        -11   -1    0    0    0    0 -0.00000000000E+00 -0.00000000000E+00 -0.30000000000E+02  0.30000000000E+02  0.00000000000E+00 0. -1.
         23    2    1    2    0    0  0.00000000000E+00  0.00000000000E+00  0.00000000000E+00  0.60000000000E+02  0.60000000000E+02 0.  0.
          5    1    3    3  501    0 -0.20060375200E+01  0.10182369842E+02 -0.27752570293E+02  0.30000000000E+02  0.47000000000E+01 0. -1.
         -5    1    3    3    0  501  0.20060375200E+01 -0.10182369842E+02  0.27752570293E+02  0.30000000000E+02  0.47000000000E+01 0.  1.
</event>
<event>
 5    1  0.7693226E-002  0.6000000E+02  0.7546771E-02  0.1259629E+00
         11   -1    0    0    0    0  0.00000000000E+00  0.00000000000E+00  0.30000000000E+02  0.30000000000E+02  0.00000000000E+00 0.  1.
        -11   -1    0    0    0    0 -0.00000000000E+00 -0.00000000000E+00 -0.30000000000E+02  0.30000000000E+02  0.00000000000E+00 0. -1.
         23    2    1    2    0    0  0.00000000000E+00  0.00000000000E+00  0.00000000000E+00  0.60000000000E+02  0.60000000000E+02 0.  0.
          5    1    3    3  501    0 -0.19025294665E+02  0.41416196035E+01 -0.22333722260E+02  0.30000000000E+02  0.47000000000E+01 0. -1.
         -5    1    3    3    0  501  0.19025294665E+02 -0.41416196035E+01  0.22333722260E+02  0.30000000000E+02  0.47000000000E+01 0.  1.
</event>
<event>
 5    1  0.7693226E-002  0.6000000E+02  0.7546771E-02  0.1259629E+00
         11   -1    0    0    0    0  0.00000000000E+00  0.00000000000E+00  0.30000000000E+02  0.30000000000E+02  0.00000000000E+00 0.  1.
        -11   -1    0    0    0    0 -0.00000000000E+00 -0.00000000000E+00 -0.30000000000E+02  0.30000000000E+02  0.00000000000E+00 0. -1.
         23    2    1    2    0    0  0.00000000000E+00  0.00000000000E+00  0.00000000000E+00  0.60000000000E+02  0.60000000000E+02 0.  0.
          5    1    3    3  501    0 -0.15985706897E+01 -0.12622320851E+02 -0.26758766565E+02  0.30000000000E+02  0.47000000000E+01 0. -1.
         -5    1    3    3    0  501  0.15985706897E+01  0.12622320851E+02  0.26758766565E+02  0.30000000000E+02  0.47000000000E+01 0.  1.
</event>
<event>
 5    1  0.7693226E-002  0.6000000E+02  0.7546771E-02  0.1259629E+00
         11   -1    0    0    0    0  0.00000000000E+00  0.00000000000E+00  0.30000000000E+02  0.30000000000E+02  0.00000000000E+00 0.  1.
        -11   -1    0    0    0    0 -0.00000000000E+00 -0.00000000000E+00 -0.30000000000E+02  0.30000000000E+02  0.00000000000E+00 0. -1.
         23    2    1    2    0    0  0.00000000000E+00  0.00000000000E+00  0.00000000000E+00  0.60000000000E+02  0.60000000000E+02 0.  0.
          5    1    3    3  501    0 -0.15817755307E+02  0.15491955268E+02 -0.19690300633E+02  0.30000000000E+02  0.47000000000E+01 0. -1.
         -5    1    3    3    0  501  0.15817755307E+02 -0.15491955268E+02  0.19690300633E+02  0.30000000000E+02  0.47000000000E+01 0.  1.
</event>
<event>
 5    1  0.7693226E-002  0.6000000E+02  0.7546771E-02  0.1259629E+00
         11   -1    0    0    0    0  0.00000000000E+00  0.00000000000E+00  0.30000000000E+02  0.30000000000E+02  0.00000000000E+00 0.  1.
        -11   -1    0    0    0    0 -0.00000000000E+00 -0.00000000000E+00 -0.30000000000E+02  0.30000000000E+02  0.00000000000E+00 0. -1.
         23    2    1    2    0    0  0.00000000000E+00  0.00000000000E+00  0.00000000000E+00  0.60000000000E+02  0.60000000000E+02 0.  0.
          5    1    3    3  501    0 -0.18084887481E+02 -0.71893430947E+01 -0.22341893175E+02  0.30000000000E+02  0.47000000000E+01 0. -1.
         -5    1    3    3    0  501  0.18084887481E+02  0.71893430947E+01  0.22341893175E+02  0.30000000000E+02  0.47000000000E+01 0.  1.
</event>
<event>
 5    1  0.7693226E-002  0.6000000E+02  0.7546771E-02  0.1259629E+00
         11   -1    0    0    0    0  0.00000000000E+00  0.00000000000E+00  0.30000000000E+02  0.30000000000E+02  0.00000000000E+00 0.  1.
        -11   -1    0    0    0    0 -0.00000000000E+00 -0.00000000000E+00 -0.30000000000E+02  0.30000000000E+02  0.00000000000E+00 0. -1.
         23    2    1    2    0    0  0.00000000000E+00  0.00000000000E+00  0.00000000000E+00  0.60000000000E+02  0.60000000000E+02 0.  0.
          5    1    3    3  501    0  0.96666603768E+01 -0.27174380177E+02 -0.67837113106E+01  0.30000000000E+02  0.47000000000E+01 0. -1.
         -5    1    3    3    0  501 -0.96666603768E+01  0.27174380177E+02  0.67837113106E+01  0.30000000000E+02  0.47000000000E+01 0.  1.
</event>
<event>
 5    1  0.7693226E-002  0.6000000E+02  0.7546771E-02  0.1259629E+00
         11   -1    0    0    0    0  0.00000000000E+00  0.00000000000E+00  0.30000000000E+02  0.30000000000E+02  0.00000000000E+00 0.  1.
        -11   -1    0    0    0    0 -0.00000000000E+00 -0.00000000000E+00 -0.30000000000E+02  0.30000000000E+02  0.00000000000E+00 0. -1.
         23    2    1    2    0    0  0.00000000000E+00  0.00000000000E+00  0.00000000000E+00  0.60000000000E+02  0.60000000000E+02 0.  0.
          5    1    3    3  501    0  0.29627385804E+01 -0.25876856101E+02 -0.14125172510E+02  0.30000000000E+02  0.47000000000E+01 0. -1.
         -5    1    3    3    0  501 -0.29627385804E+01  0.25876856101E+02  0.14125172510E+02  0.30000000000E+02  0.47000000000E+01 0.  1.
</event>
<event>
 5    1  0.7693226E-002  0.6000000E+02  0.7546771E-02  0.1259629E+00
         11   -1    0    0    0    0  0.00000000000E+00  0.00000000000E+00  0.30000000000E+02  0.30000000000E+02  0.00000000000E+00 0. -1.
        -11   -1    0    0    0    0 -0.00000000000E+00 -0.00000000000E+00 -0.30000000000E+02  0.30000000000E+02  0.00000000000E+00 0.  1.
         23    2    1    2    0    0  0.00000000000E+00  0.00000000000E+00  0.00000000000E+00  0.60000000000E+02  0.60000000000E+02 0.  0.
          5    1    3    3  501    0 -0.23285410403E+02  0.15801138692E+02  0.92748950603E+01  0.30000000000E+02  0.47000000000E+01 0.  1.
         -5    1    3    3    0  501  0.23285410403E+02 -0.15801138692E+02 -0.92748950603E+01  0.30000000000E+02  0.47000000000E+01 0. -1.
</event>
<event>
 5    1  0.7693226E-002  0.6000000E+02  0.7546771E-02  0.1259629E+00
         11   -1    0    0    0    0  0.00000000000E+00  0.00000000000E+00  0.30000000000E+02  0.30000000000E+02  0.00000000000E+00 0.  1.
        -11   -1    0    0    0    0 -0.00000000000E+00 -0.00000000000E+00 -0.30000000000E+02  0.30000000000E+02  0.00000000000E+00 0. -1.
         23    2    1    2    0    0  0.00000000000E+00  0.00000000000E+00  0.00000000000E+00  0.60000000000E+02  0.60000000000E+02 0.  0.
          5    1    3    3  501    0 -0.26344403419E+02  0.80140880898E+01 -0.10938775096E+02  0.30000000000E+02  0.47000000000E+01 0. -1.
         -5    1    3    3    0  501  0.26344403419E+02 -0.80140880898E+01  0.10938775096E+02  0.30000000000E+02  0.47000000000E+01 0.  1.
</event>
<event>
 5    1  0.7693226E-002  0.6000000E+02  0.7546771E-02  0.1259629E+00
         11   -1    0    0    0    0  0.00000000000E+00  0.00000000000E+00  0.30000000000E+02  0.30000000000E+02  0.00000000000E+00 0.  1.
        -11   -1    0    0    0    0 -0.00000000000E+00 -0.00000000000E+00 -0.30000000000E+02  0.30000000000E+02  0.00000000000E+00 0. -1.
         23    2    1    2    0    0  0.00000000000E+00  0.00000000000E+00  0.00000000000E+00  0.60000000000E+02  0.60000000000E+02 0.  0.
          5    1    3    3  501    0 -0.14618895703E+02  0.16295214853E+02 -0.19966568591E+02  0.30000000000E+02  0.47000000000E+01 0. -1.
         -5    1    3    3    0  501  0.14618895703E+02 -0.16295214853E+02  0.19966568591E+02  0.30000000000E+02  0.47000000000E+01 0.  1.
</event>
<event>
 5    1  0.7693226E-002  0.6000000E+02  0.7546771E-02  0.1259629E+00
         11   -1    0    0    0    0  0.00000000000E+00  0.00000000000E+00  0.30000000000E+02  0.30000000000E+02  0.00000000000E+00 0. -1.
        -11   -1    0    0    0    0 -0.00000000000E+00 -0.00000000000E+00 -0.30000000000E+02  0.30000000000E+02  0.00000000000E+00 0.  1.
         23    2    1    2    0    0  0.00000000000E+00  0.00000000000E+00  0.00000000000E+00  0.60000000000E+02  0.60000000000E+02 0.  0.
          5    1    3    3  501    0  0.79750044393E+00  0.62573538797E+01 -0.28950293875E+02  0.30000000000E+02  0.47000000000E+01 0.  1.
         -5    1    3    3    0  501 -0.79750044393E+00 -0.62573538797E+01  0.28950293875E+02  0.30000000000E+02  0.47000000000E+01 0. -1.
</event>
<event>
 5    1  0.7693226E-002  0.6000000E+02  0.7546771E-02  0.1259629E+00
         11   -1    0    0    0    0  0.00000000000E+00  0.00000000000E+00  0.30000000000E+02  0.30000000000E+02  0.00000000000E+00 0. -1.
        -11   -1    0    0    0    0 -0.00000000000E+00 -0.00000000000E+00 -0.30000000000E+02  0.30000000000E+02  0.00000000000E+00 0.  1.
         23    2    1    2    0    0  0.00000000000E+00  0.00000000000E+00  0.00000000000E+00  0.60000000000E+02  0.60000000000E+02 0.  0.
          5    1    3    3  501    0  0.26101686735E+01  0.95816013484E+01 -0.27915764992E+02  0.30000000000E+02  0.47000000000E+01 0.  1.
         -5    1    3    3    0  501 -0.26101686735E+01 -0.95816013484E+01  0.27915764992E+02  0.30000000000E+02  0.47000000000E+01 0. -1.
</event>
<event>
 5    1  0.7693226E-002  0.6000000E+02  0.7546771E-02  0.1259629E+00
         11   -1    0    0    0    0  0.00000000000E+00  0.00000000000E+00  0.30000000000E+02  0.30000000000E+02  0.00000000000E+00 0.  1.
        -11   -1    0    0    0    0 -0.00000000000E+00 -0.00000000000E+00 -0.30000000000E+02  0.30000000000E+02  0.00000000000E+00 0. -1.
         23    2    1    2    0    0  0.00000000000E+00  0.00000000000E+00  0.00000000000E+00  0.60000000000E+02  0.60000000000E+02 0.  0.
          5    1    3    3  501    0  0.12943617480E+02  0.17320090281E+02 -0.20258016665E+02  0.30000000000E+02  0.47000000000E+01 0. -1.
         -5    1    3    3    0  501 -0.12943617480E+02 -0.17320090281E+02  0.20258016665E+02  0.30000000000E+02  0.47000000000E+01 0.  1.
</event>
<event>
 5    1  0.7693226E-002  0.6000000E+02  0.7546771E-02  0.1259629E+00
         11   -1    0    0    0    0  0.00000000000E+00  0.00000000000E+00  0.30000000000E+02  0.30000000000E+02  0.00000000000E+00 0. -1.
        -11   -1    0    0    0    0 -0.00000000000E+00 -0.00000000000E+00 -0.30000000000E+02  0.30000000000E+02  0.00000000000E+00 0.  1.
         23    2    1    2    0    0  0.00000000000E+00  0.00000000000E+00  0.00000000000E+00  0.60000000000E+02  0.60000000000E+02 0.  0.
          5    1    3    3  501    0 -0.67904956728E+01 -0.26925521577E+02 -0.10335156329E+02  0.30000000000E+02  0.47000000000E+01 0.  1.
         -5    1    3    3    0  501  0.67904956728E+01  0.26925521577E+02  0.10335156329E+02  0.30000000000E+02  0.47000000000E+01 0. -1.
</event>
<event>
 5    1  0.7693226E-002  0.6000000E+02  0.7546771E-02  0.1259629E+00
         11   -1    0    0    0    0  0.00000000000E+00  0.00000000000E+00  0.30000000000E+02  0.30000000000E+02  0.00000000000E+00 0.  1.
        -11   -1    0    0    0    0 -0.00000000000E+00 -0.00000000000E+00 -0.30000000000E+02  0.30000000000E+02  0.00000000000E+00 0. -1.
         23    2    1    2    0    0  0.00000000000E+00  0.00000000000E+00  0.00000000000E+00  0.60000000000E+02  0.60000000000E+02 0.  0.
          5    1    3    3  501    0 -0.19138063142E+02  0.15134453355E+02 -0.16810498530E+02  0.30000000000E+02  0.47000000000E+01 0. -1.
         -5    1    3    3    0  501  0.19138063142E+02 -0.15134453355E+02  0.16810498530E+02  0.30000000000E+02  0.47000000000E+01 0.  1.
</event>
<event>
 5    1  0.7693226E-002  0.6000000E+02  0.7546771E-02  0.1259629E+00
         11   -1    0    0    0    0  0.00000000000E+00  0.00000000000E+00  0.30000000000E+02  0.30000000000E+02  0.00000000000E+00 0.  1.
        -11   -1    0    0    0    0 -0.00000000000E+00 -0.00000000000E+00 -0.30000000000E+02  0.30000000000E+02  0.00000000000E+00 0. -1.
         23    2    1    2    0    0  0.00000000000E+00  0.00000000000E+00  0.00000000000E+00  0.60000000000E+02  0.60000000000E+02 0.  0.
          5    1    3    3  501    0 -0.92783457650E+01  0.16495350072E+02 -0.22797493851E+02  0.30000000000E+02  0.47000000000E+01 0. -1.
         -5    1    3    3    0  501  0.92783457650E+01 -0.16495350072E+02  0.22797493851E+02  0.30000000000E+02  0.47000000000E+01 0.  1.
</event>
<event>
 5    1  0.7693226E-002  0.6000000E+02  0.7546771E-02  0.1259629E+00
         11   -1    0    0    0    0  0.00000000000E+00  0.00000000000E+00  0.30000000000E+02  0.30000000000E+02  0.00000000000E+00 0. -1.
        -11   -1    0    0    0    0 -0.00000000000E+00 -0.00000000000E+00 -0.30000000000E+02  0.30000000000E+02  0.00000000000E+00 0.  1.
         23    2    1    2    0    0  0.00000000000E+00  0.00000000000E+00  0.00000000000E+00  0.60000000000E+02  0.60000000000E+02 0.  0.
          5    1    3    3  501    0  0.10466743320E+02 -0.26877007132E+02 -0.67811335248E+01  0.30000000000E+02  0.47000000000E+01 0.  1.
         -5    1    3    3    0  501 -0.10466743320E+02  0.26877007132E+02  0.67811335248E+01  0.30000000000E+02  0.47000000000E+01 0. -1.
</event>
<event>
 5    1  0.7693226E-002  0.6000000E+02  0.7546771E-02  0.1259629E+00
         11   -1    0    0    0    0  0.00000000000E+00  0.00000000000E+00  0.30000000000E+02  0.30000000000E+02  0.00000000000E+00 0.  1.
        -11   -1    0    0    0    0 -0.00000000000E+00 -0.00000000000E+00 -0.30000000000E+02  0.30000000000E+02  0.00000000000E+00 0. -1.
         23    2    1    2    0    0  0.00000000000E+00  0.00000000000E+00  0.00000000000E+00  0.60000000000E+02  0.60000000000E+02 0.  0.
          5    1    3    3  501    0  0.26127175029E+02  0.80757740554E+01 -0.11404499043E+02  0.30000000000E+02  0.47000000000E+01 0. -1.
         -5    1    3    3    0  501 -0.26127175029E+02 -0.80757740554E+01  0.11404499043E+02  0.30000000000E+02  0.47000000000E+01 0.  1.
</event>
<event>
 5    1  0.7693226E-002  0.6000000E+02  0.7546771E-02  0.1259629E+00
         11   -1    0    0    0    0  0.00000000000E+00  0.00000000000E+00  0.30000000000E+02  0.30000000000E+02  0.00000000000E+00 0.  1.
        -11   -1    0    0    0    0 -0.00000000000E+00 -0.00000000000E+00 -0.30000000000E+02  0.30000000000E+02  0.00000000000E+00 0. -1.
         23    2    1    2    0    0  0.00000000000E+00  0.00000000000E+00  0.00000000000E+00  0.60000000000E+02  0.60000000000E+02 0.  0.
          5    1    3    3  501    0  0.24021901646E+02 -0.14306709123E+02 -0.98069524004E+01  0.30000000000E+02  0.47000000000E+01 0. -1.
         -5    1    3    3    0  501 -0.24021901646E+02  0.14306709123E+02  0.98069524004E+01  0.30000000000E+02  0.47000000000E+01 0.  1.
</event>
<event>
 5    1  0.7693226E-002  0.6000000E+02  0.7546771E-02  0.1259629E+00
         11   -1    0    0    0    0  0.00000000000E+00  0.00000000000E+00  0.30000000000E+02  0.30000000000E+02  0.00000000000E+00 0.  1.
        -11   -1    0    0    0    0 -0.00000000000E+00 -0.00000000000E+00 -0.30000000000E+02  0.30000000000E+02  0.00000000000E+00 0. -1.
         23    2    1    2    0    0  0.00000000000E+00  0.00000000000E+00  0.00000000000E+00  0.60000000000E+02  0.60000000000E+02 0.  0.
          5    1    3    3  501    0 -0.35400377844E+01  0.10874226982E+02 -0.27333666421E+02  0.30000000000E+02  0.47000000000E+01 0. -1.
         -5    1    3    3    0  501  0.35400377844E+01 -0.10874226982E+02  0.27333666421E+02  0.30000000000E+02  0.47000000000E+01 0.  1.
</event>
<event>
 5    1  0.7693226E-002  0.6000000E+02  0.7546771E-02  0.1259629E+00
         11   -1    0    0    0    0  0.00000000000E+00  0.00000000000E+00  0.30000000000E+02  0.30000000000E+02  0.00000000000E+00 0. -1.
        -11   -1    0    0    0    0 -0.00000000000E+00 -0.00000000000E+00 -0.30000000000E+02  0.30000000000E+02  0.00000000000E+00 0.  1.
         23    2    1    2    0    0  0.00000000000E+00  0.00000000000E+00  0.00000000000E+00  0.60000000000E+02  0.60000000000E+02 0.  0.
          5    1    3    3  501    0  0.88508640163E+01 -0.75321535038E+01  0.27255070533E+02  0.30000000000E+02  0.47000000000E+01 0. -1.
         -5    1    3    3    0  501 -0.88508640163E+01  0.75321535038E+01 -0.27255070533E+02  0.30000000000E+02  0.47000000000E+01 0.  1.
</event>
<event>
 5    1  0.7693226E-002  0.6000000E+02  0.7546771E-02  0.1259629E+00
         11   -1    0    0    0    0  0.00000000000E+00  0.00000000000E+00  0.30000000000E+02  0.30000000000E+02  0.00000000000E+00 0.  1.
        -11   -1    0    0    0    0 -0.00000000000E+00 -0.00000000000E+00 -0.30000000000E+02  0.30000000000E+02  0.00000000000E+00 0. -1.
         23    2    1    2    0    0  0.00000000000E+00  0.00000000000E+00  0.00000000000E+00  0.60000000000E+02  0.60000000000E+02 0.  0.
          5    1    3    3  501    0  0.27266446020E+02 -0.36266923722E+01 -0.11013538209E+02  0.30000000000E+02  0.47000000000E+01 0. -1.
         -5    1    3    3    0  501 -0.27266446020E+02  0.36266923722E+01  0.11013538209E+02  0.30000000000E+02  0.47000000000E+01 0.  1.
</event>
<event>
 5    1  0.7693226E-002  0.6000000E+02  0.7546771E-02  0.1259629E+00
         11   -1    0    0    0    0  0.00000000000E+00  0.00000000000E+00  0.30000000000E+02  0.30000000000E+02  0.00000000000E+00 0.  1.
        -11   -1    0    0    0    0 -0.00000000000E+00 -0.00000000000E+00 -0.30000000000E+02  0.30000000000E+02  0.00000000000E+00 0. -1.
         23    2    1    2    0    0  0.00000000000E+00  0.00000000000E+00  0.00000000000E+00  0.60000000000E+02  0.60000000000E+02 0.  0.
          5    1    3    3  501    0 -0.15265667563E+02 -0.70222596505E+00 -0.25384567606E+02  0.30000000000E+02  0.47000000000E+01 0. -1.
         -5    1    3    3    0  501  0.15265667563E+02  0.70222596505E+00  0.25384567606E+02  0.30000000000E+02  0.47000000000E+01 0.  1.
</event>
<event>
 5    1  0.7693226E-002  0.6000000E+02  0.7546771E-02  0.1259629E+00
         11   -1    0    0    0    0  0.00000000000E+00  0.00000000000E+00  0.30000000000E+02  0.30000000000E+02  0.00000000000E+00 0.  1.
        -11   -1    0    0    0    0 -0.00000000000E+00 -0.00000000000E+00 -0.30000000000E+02  0.30000000000E+02  0.00000000000E+00 0. -1.
         23    2    1    2    0    0  0.00000000000E+00  0.00000000000E+00  0.00000000000E+00  0.60000000000E+02  0.60000000000E+02 0.  0.
          5    1    3    3  501    0  0.76595256735E+01  0.44247400437E+01  0.28278319292E+02  0.30000000000E+02  0.47000000000E+01 0.  1.
         -5    1    3    3    0  501 -0.76595256735E+01 -0.44247400437E+01 -0.28278319292E+02  0.30000000000E+02  0.47000000000E+01 0. -1.
</event>
<event>
 5    1  0.7693226E-002  0.6000000E+02  0.7546771E-02  0.1259629E+00
         11   -1    0    0    0    0  0.00000000000E+00  0.00000000000E+00  0.30000000000E+02  0.30000000000E+02  0.00000000000E+00 0. -1.
        -11   -1    0    0    0    0 -0.00000000000E+00 -0.00000000000E+00 -0.30000000000E+02  0.30000000000E+02  0.00000000000E+00 0.  1.
         23    2    1    2    0    0  0.00000000000E+00  0.00000000000E+00  0.00000000000E+00  0.60000000000E+02  0.60000000000E+02 0.  0.
          5    1    3    3  501    0 -0.26673607801E+02 -0.10277134728E+01  0.12859722077E+02  0.30000000000E+02  0.47000000000E+01 0. -1.
         -5    1    3    3    0  501  0.26673607801E+02  0.10277134728E+01 -0.12859722077E+02  0.30000000000E+02  0.47000000000E+01 0.  1.
</event>
<event>
 5    1  0.7693226E-002  0.6000000E+02  0.7546771E-02  0.1259629E+00
         11   -1    0    0    0    0  0.00000000000E+00  0.00000000000E+00  0.30000000000E+02  0.30000000000E+02  0.00000000000E+00 0.  1.
        -11   -1    0    0    0    0 -0.00000000000E+00 -0.00000000000E+00 -0.30000000000E+02  0.30000000000E+02  0.00000000000E+00 0. -1.
         23    2    1    2    0    0  0.00000000000E+00  0.00000000000E+00  0.00000000000E+00  0.60000000000E+02  0.60000000000E+02 0.  0.
          5    1    3    3  501    0 -0.23891324724E+01 -0.28980787507E+01 -0.29390528842E+02  0.30000000000E+02  0.47000000000E+01 0. -1.
         -5    1    3    3    0  501  0.23891324724E+01  0.28980787507E+01  0.29390528842E+02  0.30000000000E+02  0.47000000000E+01 0.  1.
</event>
<event>
 5    1  0.7693226E-002  0.6000000E+02  0.7546771E-02  0.1259629E+00
         11   -1    0    0    0    0  0.00000000000E+00  0.00000000000E+00  0.30000000000E+02  0.30000000000E+02  0.00000000000E+00 0. -1.
        -11   -1    0    0    0    0 -0.00000000000E+00 -0.00000000000E+00 -0.30000000000E+02  0.30000000000E+02  0.00000000000E+00 0.  1.
         23    2    1    2    0    0  0.00000000000E+00  0.00000000000E+00  0.00000000000E+00  0.60000000000E+02  0.60000000000E+02 0.  0.
          5    1    3    3  501    0  0.27481792567E+02 -0.51455972404E+01 -0.98073394124E+01  0.30000000000E+02  0.47000000000E+01 0.  1.
         -5    1    3    3    0  501 -0.27481792567E+02  0.51455972404E+01  0.98073394124E+01  0.30000000000E+02  0.47000000000E+01 0. -1.
</event>
<event>
 5    1  0.7693226E-002  0.6000000E+02  0.7546771E-02  0.1259629E+00
         11   -1    0    0    0    0  0.00000000000E+00  0.00000000000E+00  0.30000000000E+02  0.30000000000E+02  0.00000000000E+00 0. -1.
        -11   -1    0    0    0    0 -0.00000000000E+00 -0.00000000000E+00 -0.30000000000E+02  0.30000000000E+02  0.00000000000E+00 0.  1.
         23    2    1    2    0    0  0.00000000000E+00  0.00000000000E+00  0.00000000000E+00  0.60000000000E+02  0.60000000000E+02 0.  0.
          5    1    3    3  501    0  0.11258621603E+02  0.24400701239E+02 -0.12480353307E+02  0.30000000000E+02  0.47000000000E+01 0.  1.
         -5    1    3    3    0  501 -0.11258621603E+02 -0.24400701239E+02  0.12480353307E+02  0.30000000000E+02  0.47000000000E+01 0. -1.
</event>
<event>
 5    1  0.7693226E-002  0.6000000E+02  0.7546771E-02  0.1259629E+00
         11   -1    0    0    0    0  0.00000000000E+00  0.00000000000E+00  0.30000000000E+02  0.30000000000E+02  0.00000000000E+00 0.  1.
        -11   -1    0    0    0    0 -0.00000000000E+00 -0.00000000000E+00 -0.30000000000E+02  0.30000000000E+02  0.00000000000E+00 0. -1.
         23    2    1    2    0    0  0.00000000000E+00  0.00000000000E+00  0.00000000000E+00  0.60000000000E+02  0.60000000000E+02 0.  0.
          5    1    3    3  501    0  0.25148393638E+02  0.15445786066E+02  0.26260217457E+01  0.30000000000E+02  0.47000000000E+01 0. -1.
         -5    1    3    3    0  501 -0.25148393638E+02 -0.15445786066E+02 -0.26260217457E+01  0.30000000000E+02  0.47000000000E+01 0.  1.
</event>
<event>
 5    1  0.7693226E-002  0.6000000E+02  0.7546771E-02  0.1259629E+00
         11   -1    0    0    0    0  0.00000000000E+00  0.00000000000E+00  0.30000000000E+02  0.30000000000E+02  0.00000000000E+00 0.  1.
        -11   -1    0    0    0    0 -0.00000000000E+00 -0.00000000000E+00 -0.30000000000E+02  0.30000000000E+02  0.00000000000E+00 0. -1.
         23    2    1    2    0    0  0.00000000000E+00  0.00000000000E+00  0.00000000000E+00  0.60000000000E+02  0.60000000000E+02 0.  0.
          5    1    3    3  501    0 -0.54324541887E+00 -0.29279800971E+02  0.45064553126E+01  0.30000000000E+02  0.47000000000E+01 0. -1.
         -5    1    3    3    0  501  0.54324541887E+00  0.29279800971E+02 -0.45064553126E+01  0.30000000000E+02  0.47000000000E+01 0.  1.
</event>
<event>
 5    1  0.7693226E-002  0.6000000E+02  0.7546771E-02  0.1259629E+00
         11   -1    0    0    0    0  0.00000000000E+00  0.00000000000E+00  0.30000000000E+02  0.30000000000E+02  0.00000000000E+00 0.  1.
        -11   -1    0    0    0    0 -0.00000000000E+00 -0.00000000000E+00 -0.30000000000E+02  0.30000000000E+02  0.00000000000E+00 0. -1.
         23    2    1    2    0    0  0.00000000000E+00  0.00000000000E+00  0.00000000000E+00  0.60000000000E+02  0.60000000000E+02 0.  0.
          5    1    3    3  501    0 -0.16521762673E+02 -0.21514939985E+02 -0.11918419174E+02  0.30000000000E+02  0.47000000000E+01 0. -1.
         -5    1    3    3    0  501  0.16521762673E+02  0.21514939985E+02  0.11918419174E+02  0.30000000000E+02  0.47000000000E+01 0.  1.
</event>
<event>
 5    1  0.7693226E-002  0.6000000E+02  0.7546771E-02  0.1259629E+00
         11   -1    0    0    0    0  0.00000000000E+00  0.00000000000E+00  0.30000000000E+02  0.30000000000E+02  0.00000000000E+00 0.  1.
        -11   -1    0    0    0    0 -0.00000000000E+00 -0.00000000000E+00 -0.30000000000E+02  0.30000000000E+02  0.00000000000E+00 0. -1.
         23    2    1    2    0    0  0.00000000000E+00  0.00000000000E+00  0.00000000000E+00  0.60000000000E+02  0.60000000000E+02 0.  0.
          5    1    3    3  501    0 -0.14979508374E+02  0.17832016095E+02 -0.18317847331E+02  0.30000000000E+02  0.47000000000E+01 0. -1.
         -5    1    3    3    0  501  0.14979508374E+02 -0.17832016095E+02  0.18317847331E+02  0.30000000000E+02  0.47000000000E+01 0.  1.
</event>
<event>
 5    1  0.7693226E-002  0.6000000E+02  0.7546771E-02  0.1259629E+00
         11   -1    0    0    0    0  0.00000000000E+00  0.00000000000E+00  0.30000000000E+02  0.30000000000E+02  0.00000000000E+00 0.  1.
        -11   -1    0    0    0    0 -0.00000000000E+00 -0.00000000000E+00 -0.30000000000E+02  0.30000000000E+02  0.00000000000E+00 0. -1.
         23    2    1    2    0    0  0.00000000000E+00  0.00000000000E+00  0.00000000000E+00  0.60000000000E+02  0.60000000000E+02 0.  0.
          5    1    3    3  501    0  0.30419203344E+01 -0.22345870248E+01 -0.29388149678E+02  0.30000000000E+02  0.47000000000E+01 0. -1.
         -5    1    3    3    0  501 -0.30419203344E+01  0.22345870248E+01  0.29388149678E+02  0.30000000000E+02  0.47000000000E+01 0.  1.
</event>
<event>
 5    1  0.7693226E-002  0.6000000E+02  0.7546771E-02  0.1259629E+00
         11   -1    0    0    0    0  0.00000000000E+00  0.00000000000E+00  0.30000000000E+02  0.30000000000E+02  0.00000000000E+00 0.  1.
        -11   -1    0    0    0    0 -0.00000000000E+00 -0.00000000000E+00 -0.30000000000E+02  0.30000000000E+02  0.00000000000E+00 0. -1.
         23    2    1    2    0    0  0.00000000000E+00  0.00000000000E+00  0.00000000000E+00  0.60000000000E+02  0.60000000000E+02 0.  0.
          5    1    3    3  501    0  0.25637284689E+01 -0.21080952555E+02  0.20662302284E+02  0.30000000000E+02  0.47000000000E+01 0.  1.
         -5    1    3    3    0  501 -0.25637284689E+01  0.21080952555E+02 -0.20662302284E+02  0.30000000000E+02  0.47000000000E+01 0.  1.
</event>
<event>
 5    1  0.7693226E-002  0.6000000E+02  0.7546771E-02  0.1259629E+00
         11   -1    0    0    0    0  0.00000000000E+00  0.00000000000E+00  0.30000000000E+02  0.30000000000E+02  0.00000000000E+00 0.  1.
        -11   -1    0    0    0    0 -0.00000000000E+00 -0.00000000000E+00 -0.30000000000E+02  0.30000000000E+02  0.00000000000E+00 0. -1.
         23    2    1    2    0    0  0.00000000000E+00  0.00000000000E+00  0.00000000000E+00  0.60000000000E+02  0.60000000000E+02 0.  0.
          5    1    3    3  501    0 -0.75376375217E+01  0.18638812196E+02  0.21764390653E+02  0.30000000000E+02  0.47000000000E+01 0.  1.
         -5    1    3    3    0  501  0.75376375217E+01 -0.18638812196E+02 -0.21764390653E+02  0.30000000000E+02  0.47000000000E+01 0. -1.
</event>
<event>
 5    1  0.7693226E-002  0.6000000E+02  0.7546771E-02  0.1259629E+00
         11   -1    0    0    0    0  0.00000000000E+00  0.00000000000E+00  0.30000000000E+02  0.30000000000E+02  0.00000000000E+00 0.  1.
        -11   -1    0    0    0    0 -0.00000000000E+00 -0.00000000000E+00 -0.30000000000E+02  0.30000000000E+02  0.00000000000E+00 0. -1.
         23    2    1    2    0    0  0.00000000000E+00  0.00000000000E+00  0.00000000000E+00  0.60000000000E+02  0.60000000000E+02 0.  0.
          5    1    3    3  501    0  0.91486752005E+01  0.27081165541E+02 -0.77988598526E+01  0.30000000000E+02  0.47000000000E+01 0. -1.
         -5    1    3    3    0  501 -0.91486752005E+01 -0.27081165541E+02  0.77988598526E+01  0.30000000000E+02  0.47000000000E+01 0.  1.
</event>
<event>
 5    1  0.7693226E-002  0.6000000E+02  0.7546771E-02  0.1259629E+00
         11   -1    0    0    0    0  0.00000000000E+00  0.00000000000E+00  0.30000000000E+02  0.30000000000E+02  0.00000000000E+00 0. -1.
        -11   -1    0    0    0    0 -0.00000000000E+00 -0.00000000000E+00 -0.30000000000E+02  0.30000000000E+02  0.00000000000E+00 0.  1.
         23    2    1    2    0    0  0.00000000000E+00  0.00000000000E+00  0.00000000000E+00  0.60000000000E+02  0.60000000000E+02 0.  0.
          5    1    3    3  501    0  0.19905277676E+02  0.17118752223E+02  0.13734563807E+02  0.30000000000E+02  0.47000000000E+01 0.  1.
         -5    1    3    3    0  501 -0.19905277676E+02 -0.17118752223E+02 -0.13734563807E+02  0.30000000000E+02  0.47000000000E+01 0. -1.
</event>
<event>
 5    1  0.7693226E-002  0.6000000E+02  0.7546771E-02  0.1259629E+00
         11   -1    0    0    0    0  0.00000000000E+00  0.00000000000E+00  0.30000000000E+02  0.30000000000E+02  0.00000000000E+00 0.  1.
        -11   -1    0    0    0    0 -0.00000000000E+00 -0.00000000000E+00 -0.30000000000E+02  0.30000000000E+02  0.00000000000E+00 0. -1.
         23    2    1    2    0    0  0.00000000000E+00  0.00000000000E+00  0.00000000000E+00  0.60000000000E+02  0.60000000000E+02 0.  0.
          5    1    3    3  501    0 -0.14374109195E+02  0.22444845619E+02 -0.12943102023E+02  0.30000000000E+02  0.47000000000E+01 0. -1.
         -5    1    3    3    0  501  0.14374109195E+02 -0.22444845619E+02  0.12943102023E+02  0.30000000000E+02  0.47000000000E+01 0.  1.
</event>
<event>
 5    1  0.7693226E-002  0.6000000E+02  0.7546771E-02  0.1259629E+00
         11   -1    0    0    0    0  0.00000000000E+00  0.00000000000E+00  0.30000000000E+02  0.30000000000E+02  0.00000000000E+00 0.  1.
        -11   -1    0    0    0    0 -0.00000000000E+00 -0.00000000000E+00 -0.30000000000E+02  0.30000000000E+02  0.00000000000E+00 0. -1.
         23    2    1    2    0    0  0.00000000000E+00  0.00000000000E+00  0.00000000000E+00  0.60000000000E+02  0.60000000000E+02 0.  0.
          5    1    3    3  501    0  0.23555790860E+02 -0.23351147724E+00 -0.17971649600E+02  0.30000000000E+02  0.47000000000E+01 0. -1.
         -5    1    3    3    0  501 -0.23555790860E+02  0.23351147724E+00  0.17971649600E+02  0.30000000000E+02  0.47000000000E+01 0.  1.
</event>
<event>
 5    1  0.7693226E-002  0.6000000E+02  0.7546771E-02  0.1259629E+00
         11   -1    0    0    0    0  0.00000000000E+00  0.00000000000E+00  0.30000000000E+02  0.30000000000E+02  0.00000000000E+00 0.  1.
        -11   -1    0    0    0    0 -0.00000000000E+00 -0.00000000000E+00 -0.30000000000E+02  0.30000000000E+02  0.00000000000E+00 0. -1.
         23    2    1    2    0    0  0.00000000000E+00  0.00000000000E+00  0.00000000000E+00  0.60000000000E+02  0.60000000000E+02 0.  0.
          5    1    3    3  501    0 -0.20770096244E+02  0.13877431064E+02 -0.15935181489E+02  0.30000000000E+02  0.47000000000E+01 0. -1.
         -5    1    3    3    0  501  0.20770096244E+02 -0.13877431064E+02  0.15935181489E+02  0.30000000000E+02  0.47000000000E+01 0.  1.
</event>
<event>
 5    1  0.7693226E-002  0.6000000E+02  0.7546771E-02  0.1259629E+00
         11   -1    0    0    0    0  0.00000000000E+00  0.00000000000E+00  0.30000000000E+02  0.30000000000E+02  0.00000000000E+00 0.  1.
        -11   -1    0    0    0    0 -0.00000000000E+00 -0.00000000000E+00 -0.30000000000E+02  0.30000000000E+02  0.00000000000E+00 0. -1.
         23    2    1    2    0    0  0.00000000000E+00  0.00000000000E+00  0.00000000000E+00  0.60000000000E+02  0.60000000000E+02 0.  0.
          5    1    3    3  501    0 -0.16769380429E+02 -0.10171041066E+01 -0.24406215996E+02  0.30000000000E+02  0.47000000000E+01 0. -1.
         -5    1    3    3    0  501  0.16769380429E+02  0.10171041066E+01  0.24406215996E+02  0.30000000000E+02  0.47000000000E+01 0.  1.
</event>
<event>
 5    1  0.7693226E-002  0.6000000E+02  0.7546771E-02  0.1259629E+00
         11   -1    0    0    0    0  0.00000000000E+00  0.00000000000E+00  0.30000000000E+02  0.30000000000E+02  0.00000000000E+00 0.  1.
        -11   -1    0    0    0    0 -0.00000000000E+00 -0.00000000000E+00 -0.30000000000E+02  0.30000000000E+02  0.00000000000E+00 0. -1.
         23    2    1    2    0    0  0.00000000000E+00  0.00000000000E+00  0.00000000000E+00  0.60000000000E+02  0.60000000000E+02 0.  0.
          5    1    3    3  501    0 -0.17803417508E+01 -0.29489386437E+02  0.22619617211E+01  0.30000000000E+02  0.47000000000E+01 0. -1.
         -5    1    3    3    0  501  0.17803417508E+01  0.29489386437E+02 -0.22619617211E+01  0.30000000000E+02  0.47000000000E+01 0.  1.
</event>
<event>
 5    1  0.7693226E-002  0.6000000E+02  0.7546771E-02  0.1259629E+00
         11   -1    0    0    0    0  0.00000000000E+00  0.00000000000E+00  0.30000000000E+02  0.30000000000E+02  0.00000000000E+00 0.  1.
        -11   -1    0    0    0    0 -0.00000000000E+00 -0.00000000000E+00 -0.30000000000E+02  0.30000000000E+02  0.00000000000E+00 0. -1.
         23    2    1    2    0    0  0.00000000000E+00  0.00000000000E+00  0.00000000000E+00  0.60000000000E+02  0.60000000000E+02 0.  0.
          5    1    3    3  501    0  0.28895081256E+02 -0.65094867953E+01  0.78157587398E+00  0.30000000000E+02  0.47000000000E+01 0.  1.
         -5    1    3    3    0  501 -0.28895081256E+02  0.65094867953E+01 -0.78157587398E+00  0.30000000000E+02  0.47000000000E+01 0. -1.
</event>
<event>
 5    1  0.7693226E-002  0.6000000E+02  0.7546771E-02  0.1259629E+00
         11   -1    0    0    0    0  0.00000000000E+00  0.00000000000E+00  0.30000000000E+02  0.30000000000E+02  0.00000000000E+00 0.  1.
        -11   -1    0    0    0    0 -0.00000000000E+00 -0.00000000000E+00 -0.30000000000E+02  0.30000000000E+02  0.00000000000E+00 0. -1.
         23    2    1    2    0    0  0.00000000000E+00  0.00000000000E+00  0.00000000000E+00  0.60000000000E+02  0.60000000000E+02 0.  0.
          5    1    3    3  501    0  0.12792797215E+02 -0.25628771583E+02 -0.75776253899E+01  0.30000000000E+02  0.47000000000E+01 0. -1.
         -5    1    3    3    0  501 -0.12792797215E+02  0.25628771583E+02  0.75776253899E+01  0.30000000000E+02  0.47000000000E+01 0.  1.
</event>
<event>
 5    1  0.7693226E-002  0.6000000E+02  0.7546771E-02  0.1259629E+00
         11   -1    0    0    0    0  0.00000000000E+00  0.00000000000E+00  0.30000000000E+02  0.30000000000E+02  0.00000000000E+00 0.  1.
        -11   -1    0    0    0    0 -0.00000000000E+00 -0.00000000000E+00 -0.30000000000E+02  0.30000000000E+02  0.00000000000E+00 0. -1.
         23    2    1    2    0    0  0.00000000000E+00  0.00000000000E+00  0.00000000000E+00  0.60000000000E+02  0.60000000000E+02 0.  0.
          5    1    3    3  501    0  0.13663260436E+02 -0.15639503231E+02 -0.21133652145E+02  0.30000000000E+02  0.47000000000E+01 0. -1.
         -5    1    3    3    0  501 -0.13663260436E+02  0.15639503231E+02  0.21133652145E+02  0.30000000000E+02  0.47000000000E+01 0.  1.
</event>
<event>
 5    1  0.7693226E-002  0.6000000E+02  0.7546771E-02  0.1259629E+00
         11   -1    0    0    0    0  0.00000000000E+00  0.00000000000E+00  0.30000000000E+02  0.30000000000E+02  0.00000000000E+00 0.  1.
        -11   -1    0    0    0    0 -0.00000000000E+00 -0.00000000000E+00 -0.30000000000E+02  0.30000000000E+02  0.00000000000E+00 0. -1.
         23    2    1    2    0    0  0.00000000000E+00  0.00000000000E+00  0.00000000000E+00  0.60000000000E+02  0.60000000000E+02 0.  0.
          5    1    3    3  501    0  0.86252003654E+01  0.27955536258E+02 -0.46908326765E+01  0.30000000000E+02  0.47000000000E+01 0. -1.
         -5    1    3    3    0  501 -0.86252003654E+01 -0.27955536258E+02  0.46908326765E+01  0.30000000000E+02  0.47000000000E+01 0.  1.
</event>
<event>
 5    1  0.7693226E-002  0.6000000E+02  0.7546771E-02  0.1259629E+00
         11   -1    0    0    0    0  0.00000000000E+00  0.00000000000E+00  0.30000000000E+02  0.30000000000E+02  0.00000000000E+00 0. -1.
        -11   -1    0    0    0    0 -0.00000000000E+00 -0.00000000000E+00 -0.30000000000E+02  0.30000000000E+02  0.00000000000E+00 0.  1.
         23    2    1    2    0    0  0.00000000000E+00  0.00000000000E+00  0.00000000000E+00  0.60000000000E+02  0.60000000000E+02 0.  0.
          5    1    3    3  501    0  0.52012187999E+01  0.65142613850E+01 -0.28432757897E+02  0.30000000000E+02  0.47000000000E+01 0.  1.
         -5    1    3    3    0  501 -0.52012187999E+01 -0.65142613850E+01  0.28432757897E+02  0.30000000000E+02  0.47000000000E+01 0. -1.
</event>
<event>
 5    1  0.7693226E-002  0.6000000E+02  0.7546771E-02  0.1259629E+00
         11   -1    0    0    0    0  0.00000000000E+00  0.00000000000E+00  0.30000000000E+02  0.30000000000E+02  0.00000000000E+00 0. -1.
        -11   -1    0    0    0    0 -0.00000000000E+00 -0.00000000000E+00 -0.30000000000E+02  0.30000000000E+02  0.00000000000E+00 0.  1.
         23    2    1    2    0    0  0.00000000000E+00  0.00000000000E+00  0.00000000000E+00  0.60000000000E+02  0.60000000000E+02 0.  0.
          5    1    3    3  501    0  0.19846332747E+02 -0.19682528080E+01 -0.21912531971E+02  0.30000000000E+02  0.47000000000E+01 0.  1.
         -5    1    3    3    0  501 -0.19846332747E+02  0.19682528080E+01  0.21912531971E+02  0.30000000000E+02  0.47000000000E+01 0. -1.
</event>
<event>
 5    1  0.7693226E-002  0.6000000E+02  0.7546771E-02  0.1259629E+00
         11   -1    0    0    0    0  0.00000000000E+00  0.00000000000E+00  0.30000000000E+02  0.30000000000E+02  0.00000000000E+00 0.  1.
        -11   -1    0    0    0    0 -0.00000000000E+00 -0.00000000000E+00 -0.30000000000E+02  0.30000000000E+02  0.00000000000E+00 0. -1.
         23    2    1    2    0    0  0.00000000000E+00  0.00000000000E+00  0.00000000000E+00  0.60000000000E+02  0.60000000000E+02 0.  0.
          5    1    3    3  501    0  0.15210875958E+02 -0.87222782118E+01 -0.23884327819E+02  0.30000000000E+02  0.47000000000E+01 0. -1.
         -5    1    3    3    0  501 -0.15210875958E+02  0.87222782118E+01  0.23884327819E+02  0.30000000000E+02  0.47000000000E+01 0.  1.
</event>
<event>
 5    1  0.7693226E-002  0.6000000E+02  0.7546771E-02  0.1259629E+00
         11   -1    0    0    0    0  0.00000000000E+00  0.00000000000E+00  0.30000000000E+02  0.30000000000E+02  0.00000000000E+00 0. -1.
        -11   -1    0    0    0    0 -0.00000000000E+00 -0.00000000000E+00 -0.30000000000E+02  0.30000000000E+02  0.00000000000E+00 0.  1.
         23    2    1    2    0    0  0.00000000000E+00  0.00000000000E+00  0.00000000000E+00  0.60000000000E+02  0.60000000000E+02 0.  0.
          5    1    3    3  501    0 -0.16175497209E+02  0.83370532391E+01 -0.23382832021E+02  0.30000000000E+02  0.47000000000E+01 0.  1.
         -5    1    3    3    0  501  0.16175497209E+02 -0.83370532391E+01  0.23382832021E+02  0.30000000000E+02  0.47000000000E+01 0. -1.
</event>
<event>
 5    1  0.7693226E-002  0.6000000E+02  0.7546771E-02  0.1259629E+00
         11   -1    0    0    0    0  0.00000000000E+00  0.00000000000E+00  0.30000000000E+02  0.30000000000E+02  0.00000000000E+00 0. -1.
        -11   -1    0    0    0    0 -0.00000000000E+00 -0.00000000000E+00 -0.30000000000E+02  0.30000000000E+02  0.00000000000E+00 0.  1.
         23    2    1    2    0    0  0.00000000000E+00  0.00000000000E+00  0.00000000000E+00  0.60000000000E+02  0.60000000000E+02 0.  0.
          5    1    3    3  501    0  0.28176562570E+02 -0.71429882215E+01 -0.57418673800E+01  0.30000000000E+02  0.47000000000E+01 0.  1.
         -5    1    3    3    0  501 -0.28176562570E+02  0.71429882215E+01  0.57418673800E+01  0.30000000000E+02  0.47000000000E+01 0. -1.
</event>
<event>
 5    1  0.7693226E-002  0.6000000E+02  0.7546771E-02  0.1259629E+00
         11   -1    0    0    0    0  0.00000000000E+00  0.00000000000E+00  0.30000000000E+02  0.30000000000E+02  0.00000000000E+00 0.  1.
        -11   -1    0    0    0    0 -0.00000000000E+00 -0.00000000000E+00 -0.30000000000E+02  0.30000000000E+02  0.00000000000E+00 0. -1.
         23    2    1    2    0    0  0.00000000000E+00  0.00000000000E+00  0.00000000000E+00  0.60000000000E+02  0.60000000000E+02 0.  0.
          5    1    3    3  501    0 -0.27749080471E+02 -0.10241818923E+02  0.17331122749E+01  0.30000000000E+02  0.47000000000E+01 0. -1.
         -5    1    3    3    0  501  0.27749080471E+02  0.10241818923E+02 -0.17331122749E+01  0.30000000000E+02  0.47000000000E+01 0.  1.
</event>
<event>
 5    1  0.7693226E-002  0.6000000E+02  0.7546771E-02  0.1259629E+00
         11   -1    0    0    0    0  0.00000000000E+00  0.00000000000E+00  0.30000000000E+02  0.30000000000E+02  0.00000000000E+00 0.  1.
        -11   -1    0    0    0    0 -0.00000000000E+00 -0.00000000000E+00 -0.30000000000E+02  0.30000000000E+02  0.00000000000E+00 0. -1.
         23    2    1    2    0    0  0.00000000000E+00  0.00000000000E+00  0.00000000000E+00  0.60000000000E+02  0.60000000000E+02 0.  0.
          5    1    3    3  501    0  0.14806074989E+02  0.22690847551E+02 -0.11992313407E+02  0.30000000000E+02  0.47000000000E+01 0. -1.
         -5    1    3    3    0  501 -0.14806074989E+02 -0.22690847551E+02  0.11992313407E+02  0.30000000000E+02  0.47000000000E+01 0.  1.
</event>
<event>
 5    1  0.7693226E-002  0.6000000E+02  0.7546771E-02  0.1259629E+00
         11   -1    0    0    0    0  0.00000000000E+00  0.00000000000E+00  0.30000000000E+02  0.30000000000E+02  0.00000000000E+00 0.  1.
        -11   -1    0    0    0    0 -0.00000000000E+00 -0.00000000000E+00 -0.30000000000E+02  0.30000000000E+02  0.00000000000E+00 0. -1.
         23    2    1    2    0    0  0.00000000000E+00  0.00000000000E+00  0.00000000000E+00  0.60000000000E+02  0.60000000000E+02 0.  0.
          5    1    3    3  501    0  0.26641461422E+02 -0.99404361982E+01  0.83264795377E+01  0.30000000000E+02  0.47000000000E+01 0. -1.
         -5    1    3    3    0  501 -0.26641461422E+02  0.99404361982E+01 -0.83264795377E+01  0.30000000000E+02  0.47000000000E+01 0.  1.
</event>
<event>
 5    1  0.7693226E-002  0.6000000E+02  0.7546771E-02  0.1259629E+00
         11   -1    0    0    0    0  0.00000000000E+00  0.00000000000E+00  0.30000000000E+02  0.30000000000E+02  0.00000000000E+00 0. -1.
        -11   -1    0    0    0    0 -0.00000000000E+00 -0.00000000000E+00 -0.30000000000E+02  0.30000000000E+02  0.00000000000E+00 0.  1.
         23    2    1    2    0    0  0.00000000000E+00  0.00000000000E+00  0.00000000000E+00  0.60000000000E+02  0.60000000000E+02 0.  0.
          5    1    3    3  501    0 -0.70955008918E+00  0.26363472689E+00  0.29619875682E+02  0.30000000000E+02  0.47000000000E+01 0. -1.
         -5    1    3    3    0  501  0.70955008918E+00 -0.26363472689E+00 -0.29619875682E+02  0.30000000000E+02  0.47000000000E+01 0.  1.
</event>
<event>
 5    1  0.7693226E-002  0.6000000E+02  0.7546771E-02  0.1259629E+00
         11   -1    0    0    0    0  0.00000000000E+00  0.00000000000E+00  0.30000000000E+02  0.30000000000E+02  0.00000000000E+00 0.  1.
        -11   -1    0    0    0    0 -0.00000000000E+00 -0.00000000000E+00 -0.30000000000E+02  0.30000000000E+02  0.00000000000E+00 0. -1.
         23    2    1    2    0    0  0.00000000000E+00  0.00000000000E+00  0.00000000000E+00  0.60000000000E+02  0.60000000000E+02 0.  0.
          5    1    3    3  501    0 -0.14820014219E+02  0.12768551951E+01 -0.25625120865E+02  0.30000000000E+02  0.47000000000E+01 0. -1.
         -5    1    3    3    0  501  0.14820014219E+02 -0.12768551951E+01  0.25625120865E+02  0.30000000000E+02  0.47000000000E+01 0.  1.
</event>
<event>
 5    1  0.7693226E-002  0.6000000E+02  0.7546771E-02  0.1259629E+00
         11   -1    0    0    0    0  0.00000000000E+00  0.00000000000E+00  0.30000000000E+02  0.30000000000E+02  0.00000000000E+00 0.  1.
        -11   -1    0    0    0    0 -0.00000000000E+00 -0.00000000000E+00 -0.30000000000E+02  0.30000000000E+02  0.00000000000E+00 0. -1.
         23    2    1    2    0    0  0.00000000000E+00  0.00000000000E+00  0.00000000000E+00  0.60000000000E+02  0.60000000000E+02 0.  0.
          5    1    3    3  501    0 -0.21277643496E+01 -0.71046653051E+01 -0.28686344308E+02  0.30000000000E+02  0.47000000000E+01 0. -1.
         -5    1    3    3    0  501  0.21277643496E+01  0.71046653051E+01  0.28686344308E+02  0.30000000000E+02  0.47000000000E+01 0.  1.
</event>
<event>
 5    1  0.7693226E-002  0.6000000E+02  0.7546771E-02  0.1259629E+00
         11   -1    0    0    0    0  0.00000000000E+00  0.00000000000E+00  0.30000000000E+02  0.30000000000E+02  0.00000000000E+00 0.  1.
        -11   -1    0    0    0    0 -0.00000000000E+00 -0.00000000000E+00 -0.30000000000E+02  0.30000000000E+02  0.00000000000E+00 0. -1.
         23    2    1    2    0    0  0.00000000000E+00  0.00000000000E+00  0.00000000000E+00  0.60000000000E+02  0.60000000000E+02 0.  0.
          5    1    3    3  501    0  0.23462584280E+02  0.17278727902E+02 -0.53724017905E+01  0.30000000000E+02  0.47000000000E+01 0. -1.
         -5    1    3    3    0  501 -0.23462584280E+02 -0.17278727902E+02  0.53724017905E+01  0.30000000000E+02  0.47000000000E+01 0.  1.
</event>
<event>
 5    1  0.7693226E-002  0.6000000E+02  0.7546771E-02  0.1259629E+00
         11   -1    0    0    0    0  0.00000000000E+00  0.00000000000E+00  0.30000000000E+02  0.30000000000E+02  0.00000000000E+00 0.  1.
        -11   -1    0    0    0    0 -0.00000000000E+00 -0.00000000000E+00 -0.30000000000E+02  0.30000000000E+02  0.00000000000E+00 0. -1.
         23    2    1    2    0    0  0.00000000000E+00  0.00000000000E+00  0.00000000000E+00  0.60000000000E+02  0.60000000000E+02 0.  0.
          5    1    3    3  501    0  0.21256614371E+01 -0.29381919091E+02  0.31771676061E+01  0.30000000000E+02  0.47000000000E+01 0.  1.
         -5    1    3    3    0  501 -0.21256614371E+01  0.29381919091E+02 -0.31771676061E+01  0.30000000000E+02  0.47000000000E+01 0. -1.
</event>
<event>
 5    1  0.7693226E-002  0.6000000E+02  0.7546771E-02  0.1259629E+00
         11   -1    0    0    0    0  0.00000000000E+00  0.00000000000E+00  0.30000000000E+02  0.30000000000E+02  0.00000000000E+00 0. -1.
        -11   -1    0    0    0    0 -0.00000000000E+00 -0.00000000000E+00 -0.30000000000E+02  0.30000000000E+02  0.00000000000E+00 0.  1.
         23    2    1    2    0    0  0.00000000000E+00  0.00000000000E+00  0.00000000000E+00  0.60000000000E+02  0.60000000000E+02 0.  0.
          5    1    3    3  501    0  0.17628860058E+02  0.15881677661E+02  0.17745579949E+02  0.30000000000E+02  0.47000000000E+01 0. -1.
         -5    1    3    3    0  501 -0.17628860058E+02 -0.15881677661E+02 -0.17745579949E+02  0.30000000000E+02  0.47000000000E+01 0.  1.
</event>
<event>
 5    1  0.7693226E-002  0.6000000E+02  0.7546771E-02  0.1259629E+00
         11   -1    0    0    0    0  0.00000000000E+00  0.00000000000E+00  0.30000000000E+02  0.30000000000E+02  0.00000000000E+00 0.  1.
        -11   -1    0    0    0    0 -0.00000000000E+00 -0.00000000000E+00 -0.30000000000E+02  0.30000000000E+02  0.00000000000E+00 0. -1.
         23    2    1    2    0    0  0.00000000000E+00  0.00000000000E+00  0.00000000000E+00  0.60000000000E+02  0.60000000000E+02 0.  0.
          5    1    3    3  501    0  0.22700708842E+02 -0.74941807204E+01 -0.17505001382E+02  0.30000000000E+02  0.47000000000E+01 0. -1.
         -5    1    3    3    0  501 -0.22700708842E+02  0.74941807204E+01  0.17505001382E+02  0.30000000000E+02  0.47000000000E+01 0.  1.
</event>
<event>
 5    1  0.7693226E-002  0.6000000E+02  0.7546771E-02  0.1259629E+00
         11   -1    0    0    0    0  0.00000000000E+00  0.00000000000E+00  0.30000000000E+02  0.30000000000E+02  0.00000000000E+00 0. -1.
        -11   -1    0    0    0    0 -0.00000000000E+00 -0.00000000000E+00 -0.30000000000E+02  0.30000000000E+02  0.00000000000E+00 0.  1.
         23    2    1    2    0    0  0.00000000000E+00  0.00000000000E+00  0.00000000000E+00  0.60000000000E+02  0.60000000000E+02 0.  0.
          5    1    3    3  501    0 -0.77949710367E+01 -0.13582926927E+02 -0.25152584810E+02  0.30000000000E+02  0.47000000000E+01 0.  1.
         -5    1    3    3    0  501  0.77949710367E+01  0.13582926927E+02  0.25152584810E+02  0.30000000000E+02  0.47000000000E+01 0. -1.
</event>
<event>
 5    1  0.7693226E-002  0.6000000E+02  0.7546771E-02  0.1259629E+00
         11   -1    0    0    0    0  0.00000000000E+00  0.00000000000E+00  0.30000000000E+02  0.30000000000E+02  0.00000000000E+00 0. -1.
        -11   -1    0    0    0    0 -0.00000000000E+00 -0.00000000000E+00 -0.30000000000E+02  0.30000000000E+02  0.00000000000E+00 0.  1.
         23    2    1    2    0    0  0.00000000000E+00  0.00000000000E+00  0.00000000000E+00  0.60000000000E+02  0.60000000000E+02 0.  0.
          5    1    3    3  501    0 -0.62645571053E+01 -0.13184573236E+02 -0.25784343173E+02  0.30000000000E+02  0.47000000000E+01 0.  1.
         -5    1    3    3    0  501  0.62645571053E+01  0.13184573236E+02  0.25784343173E+02  0.30000000000E+02  0.47000000000E+01 0. -1.
</event>
<event>
 5    1  0.7693226E-002  0.6000000E+02  0.7546771E-02  0.1259629E+00
         11   -1    0    0    0    0  0.00000000000E+00  0.00000000000E+00  0.30000000000E+02  0.30000000000E+02  0.00000000000E+00 0.  1.
        -11   -1    0    0    0    0 -0.00000000000E+00 -0.00000000000E+00 -0.30000000000E+02  0.30000000000E+02  0.00000000000E+00 0. -1.
         23    2    1    2    0    0  0.00000000000E+00  0.00000000000E+00  0.00000000000E+00  0.60000000000E+02  0.60000000000E+02 0.  0.
          5    1    3    3  501    0  0.25881229788E+01 -0.17081029930E+02 -0.24071768443E+02  0.30000000000E+02  0.47000000000E+01 0. -1.
         -5    1    3    3    0  501 -0.25881229788E+01  0.17081029930E+02  0.24071768443E+02  0.30000000000E+02  0.47000000000E+01 0.  1.
</event>
<event>
 5    1  0.7693226E-002  0.6000000E+02  0.7546771E-02  0.1259629E+00
         11   -1    0    0    0    0  0.00000000000E+00  0.00000000000E+00  0.30000000000E+02  0.30000000000E+02  0.00000000000E+00 0.  1.
        -11   -1    0    0    0    0 -0.00000000000E+00 -0.00000000000E+00 -0.30000000000E+02  0.30000000000E+02  0.00000000000E+00 0. -1.
         23    2    1    2    0    0  0.00000000000E+00  0.00000000000E+00  0.00000000000E+00  0.60000000000E+02  0.60000000000E+02 0.  0.
          5    1    3    3  501    0 -0.18577428835E+02  0.13042591386E+02 -0.19044157840E+02  0.30000000000E+02  0.47000000000E+01 0. -1.
         -5    1    3    3    0  501  0.18577428835E+02 -0.13042591386E+02  0.19044157840E+02  0.30000000000E+02  0.47000000000E+01 0.  1.
</event>
<event>
 5    1  0.7693226E-002  0.6000000E+02  0.7546771E-02  0.1259629E+00
         11   -1    0    0    0    0  0.00000000000E+00  0.00000000000E+00  0.30000000000E+02  0.30000000000E+02  0.00000000000E+00 0.  1.
        -11   -1    0    0    0    0 -0.00000000000E+00 -0.00000000000E+00 -0.30000000000E+02  0.30000000000E+02  0.00000000000E+00 0. -1.
         23    2    1    2    0    0  0.00000000000E+00  0.00000000000E+00  0.00000000000E+00  0.60000000000E+02  0.60000000000E+02 0.  0.
          5    1    3    3  501    0 -0.98860781502E+01  0.13184611639E+02 -0.24624002005E+02  0.30000000000E+02  0.47000000000E+01 0. -1.
         -5    1    3    3    0  501  0.98860781502E+01 -0.13184611639E+02  0.24624002005E+02  0.30000000000E+02  0.47000000000E+01 0.  1.
</event>
<event>
 5    1  0.7693226E-002  0.6000000E+02  0.7546771E-02  0.1259629E+00
         11   -1    0    0    0    0  0.00000000000E+00  0.00000000000E+00  0.30000000000E+02  0.30000000000E+02  0.00000000000E+00 0.  1.
        -11   -1    0    0    0    0 -0.00000000000E+00 -0.00000000000E+00 -0.30000000000E+02  0.30000000000E+02  0.00000000000E+00 0. -1.
         23    2    1    2    0    0  0.00000000000E+00  0.00000000000E+00  0.00000000000E+00  0.60000000000E+02  0.60000000000E+02 0.  0.
          5    1    3    3  501    0 -0.50594092898E+01 -0.16951887486E+02  0.23768590372E+02  0.30000000000E+02  0.47000000000E+01 0.  1.
         -5    1    3    3    0  501  0.50594092898E+01  0.16951887486E+02 -0.23768590372E+02  0.30000000000E+02  0.47000000000E+01 0. -1.
</event>
<event>
 5    1  0.7693226E-002  0.6000000E+02  0.7546771E-02  0.1259629E+00
         11   -1    0    0    0    0  0.00000000000E+00  0.00000000000E+00  0.30000000000E+02  0.30000000000E+02  0.00000000000E+00 0.  1.
        -11   -1    0    0    0    0 -0.00000000000E+00 -0.00000000000E+00 -0.30000000000E+02  0.30000000000E+02  0.00000000000E+00 0. -1.
         23    2    1    2    0    0  0.00000000000E+00  0.00000000000E+00  0.00000000000E+00  0.60000000000E+02  0.60000000000E+02 0.  0.
          5    1    3    3  501    0  0.14969116248E+02 -0.21847230178E+02 -0.13286613275E+02  0.30000000000E+02  0.47000000000E+01 0. -1.
         -5    1    3    3    0  501 -0.14969116248E+02  0.21847230178E+02  0.13286613275E+02  0.30000000000E+02  0.47000000000E+01 0.  1.
</event>
<event>
 5    1  0.7693226E-002  0.6000000E+02  0.7546771E-02  0.1259629E+00
         11   -1    0    0    0    0  0.00000000000E+00  0.00000000000E+00  0.30000000000E+02  0.30000000000E+02  0.00000000000E+00 0.  1.
        -11   -1    0    0    0    0 -0.00000000000E+00 -0.00000000000E+00 -0.30000000000E+02  0.30000000000E+02  0.00000000000E+00 0. -1.
         23    2    1    2    0    0  0.00000000000E+00  0.00000000000E+00  0.00000000000E+00  0.60000000000E+02  0.60000000000E+02 0.  0.
          5    1    3    3  501    0 -0.23732983671E+02  0.15728375854E+02  0.82020533433E+01  0.30000000000E+02  0.47000000000E+01 0. -1.
         -5    1    3    3    0  501  0.23732983671E+02 -0.15728375854E+02 -0.82020533433E+01  0.30000000000E+02  0.47000000000E+01 0.  1.
</event>
<event>
 5    1  0.7693226E-002  0.6000000E+02  0.7546771E-02  0.1259629E+00
         11   -1    0    0    0    0  0.00000000000E+00  0.00000000000E+00  0.30000000000E+02  0.30000000000E+02  0.00000000000E+00 0.  1.
        -11   -1    0    0    0    0 -0.00000000000E+00 -0.00000000000E+00 -0.30000000000E+02  0.30000000000E+02  0.00000000000E+00 0. -1.
         23    2    1    2    0    0  0.00000000000E+00  0.00000000000E+00  0.00000000000E+00  0.60000000000E+02  0.60000000000E+02 0.  0.
          5    1    3    3  501    0  0.47917298922E+01 -0.28329516017E+02 -0.72379449349E+01  0.30000000000E+02  0.47000000000E+01 0. -1.
         -5    1    3    3    0  501 -0.47917298922E+01  0.28329516017E+02  0.72379449349E+01  0.30000000000E+02  0.47000000000E+01 0.  1.
</event>
<event>
 5    1  0.7693226E-002  0.6000000E+02  0.7546771E-02  0.1259629E+00
         11   -1    0    0    0    0  0.00000000000E+00  0.00000000000E+00  0.30000000000E+02  0.30000000000E+02  0.00000000000E+00 0.  1.
        -11   -1    0    0    0    0 -0.00000000000E+00 -0.00000000000E+00 -0.30000000000E+02  0.30000000000E+02  0.00000000000E+00 0. -1.
         23    2    1    2    0    0  0.00000000000E+00  0.00000000000E+00  0.00000000000E+00  0.60000000000E+02  0.60000000000E+02 0.  0.
          5    1    3    3  501    0  0.13737510740E+02 -0.25360198835E+02 -0.67860970901E+01  0.30000000000E+02  0.47000000000E+01 0. -1.
         -5    1    3    3    0  501 -0.13737510740E+02  0.25360198835E+02  0.67860970901E+01  0.30000000000E+02  0.47000000000E+01 0.  1.
</event>
<event>
 5    1  0.7693226E-002  0.6000000E+02  0.7546771E-02  0.1259629E+00
         11   -1    0    0    0    0  0.00000000000E+00  0.00000000000E+00  0.30000000000E+02  0.30000000000E+02  0.00000000000E+00 0.  1.
        -11   -1    0    0    0    0 -0.00000000000E+00 -0.00000000000E+00 -0.30000000000E+02  0.30000000000E+02  0.00000000000E+00 0. -1.
         23    2    1    2    0    0  0.00000000000E+00  0.00000000000E+00  0.00000000000E+00  0.60000000000E+02  0.60000000000E+02 0.  0.
          5    1    3    3  501    0 -0.16319029337E+02 -0.19525967016E+02 -0.15176820931E+02  0.30000000000E+02  0.47000000000E+01 0. -1.
         -5    1    3    3    0  501  0.16319029337E+02  0.19525967016E+02  0.15176820931E+02  0.30000000000E+02  0.47000000000E+01 0.  1.
</event>
<event>
 5    1  0.7693226E-002  0.6000000E+02  0.7546771E-02  0.1259629E+00
         11   -1    0    0    0    0  0.00000000000E+00  0.00000000000E+00  0.30000000000E+02  0.30000000000E+02  0.00000000000E+00 0.  1.
        -11   -1    0    0    0    0 -0.00000000000E+00 -0.00000000000E+00 -0.30000000000E+02  0.30000000000E+02  0.00000000000E+00 0. -1.
         23    2    1    2    0    0  0.00000000000E+00  0.00000000000E+00  0.00000000000E+00  0.60000000000E+02  0.60000000000E+02 0.  0.
          5    1    3    3  501    0 -0.13089271093E+02  0.10827701170E+02 -0.24276364424E+02  0.30000000000E+02  0.47000000000E+01 0. -1.
         -5    1    3    3    0  501  0.13089271093E+02 -0.10827701170E+02  0.24276364424E+02  0.30000000000E+02  0.47000000000E+01 0.  1.
</event>
<event>
 5    1  0.7693226E-002  0.6000000E+02  0.7546771E-02  0.1259629E+00
         11   -1    0    0    0    0  0.00000000000E+00  0.00000000000E+00  0.30000000000E+02  0.30000000000E+02  0.00000000000E+00 0.  1.
        -11   -1    0    0    0    0 -0.00000000000E+00 -0.00000000000E+00 -0.30000000000E+02  0.30000000000E+02  0.00000000000E+00 0. -1.
         23    2    1    2    0    0  0.00000000000E+00  0.00000000000E+00  0.00000000000E+00  0.60000000000E+02  0.60000000000E+02 0.  0.
          5    1    3    3  501    0 -0.84343280917E+01  0.24742386619E+02 -0.13949423431E+02  0.30000000000E+02  0.47000000000E+01 0. -1.
         -5    1    3    3    0  501  0.84343280917E+01 -0.24742386619E+02  0.13949423431E+02  0.30000000000E+02  0.47000000000E+01 0.  1.
</event>
<event>
 5    1  0.7693226E-002  0.6000000E+02  0.7546771E-02  0.1259629E+00
         11   -1    0    0    0    0  0.00000000000E+00  0.00000000000E+00  0.30000000000E+02  0.30000000000E+02  0.00000000000E+00 0.  1.
        -11   -1    0    0    0    0 -0.00000000000E+00 -0.00000000000E+00 -0.30000000000E+02  0.30000000000E+02  0.00000000000E+00 0. -1.
         23    2    1    2    0    0  0.00000000000E+00  0.00000000000E+00  0.00000000000E+00  0.60000000000E+02  0.60000000000E+02 0.  0.
          5    1    3    3  501    0 -0.45211946744E+01  0.25171042892E+02 -0.14962867320E+02  0.30000000000E+02  0.47000000000E+01 0. -1.
         -5    1    3    3    0  501  0.45211946744E+01 -0.25171042892E+02  0.14962867320E+02  0.30000000000E+02  0.47000000000E+01 0.  1.
</event>
<event>
 5    1  0.7693226E-002  0.6000000E+02  0.7546771E-02  0.1259629E+00
         11   -1    0    0    0    0  0.00000000000E+00  0.00000000000E+00  0.30000000000E+02  0.30000000000E+02  0.00000000000E+00 0.  1.
        -11   -1    0    0    0    0 -0.00000000000E+00 -0.00000000000E+00 -0.30000000000E+02  0.30000000000E+02  0.00000000000E+00 0. -1.
         23    2    1    2    0    0  0.00000000000E+00  0.00000000000E+00  0.00000000000E+00  0.60000000000E+02  0.60000000000E+02 0.  0.
          5    1    3    3  501    0 -0.28135555104E+02 -0.12238285110E+01  0.92088426413E+01  0.30000000000E+02  0.47000000000E+01 0.  1.
         -5    1    3    3    0  501  0.28135555104E+02  0.12238285110E+01 -0.92088426413E+01  0.30000000000E+02  0.47000000000E+01 0. -1.
</event>
<event>
 5    1  0.7693226E-002  0.6000000E+02  0.7546771E-02  0.1259629E+00
         11   -1    0    0    0    0  0.00000000000E+00  0.00000000000E+00  0.30000000000E+02  0.30000000000E+02  0.00000000000E+00 0.  1.
        -11   -1    0    0    0    0 -0.00000000000E+00 -0.00000000000E+00 -0.30000000000E+02  0.30000000000E+02  0.00000000000E+00 0. -1.
         23    2    1    2    0    0  0.00000000000E+00  0.00000000000E+00  0.00000000000E+00  0.60000000000E+02  0.60000000000E+02 0.  0.
          5    1    3    3  501    0 -0.18381769624E+02  0.84017024952E+01 -0.21666378116E+02  0.30000000000E+02  0.47000000000E+01 0. -1.
         -5    1    3    3    0  501  0.18381769624E+02 -0.84017024952E+01  0.21666378116E+02  0.30000000000E+02  0.47000000000E+01 0.  1.
</event>
<event>
 5    1  0.7693226E-002  0.6000000E+02  0.7546771E-02  0.1259629E+00
         11   -1    0    0    0    0  0.00000000000E+00  0.00000000000E+00  0.30000000000E+02  0.30000000000E+02  0.00000000000E+00 0.  1.
        -11   -1    0    0    0    0 -0.00000000000E+00 -0.00000000000E+00 -0.30000000000E+02  0.30000000000E+02  0.00000000000E+00 0. -1.
         23    2    1    2    0    0  0.00000000000E+00  0.00000000000E+00  0.00000000000E+00  0.60000000000E+02  0.60000000000E+02 0.  0.
          5    1    3    3  501    0  0.21782135967E+02  0.26138399885E+01 -0.19915230183E+02  0.30000000000E+02  0.47000000000E+01 0. -1.
         -5    1    3    3    0  501 -0.21782135967E+02 -0.26138399885E+01  0.19915230183E+02  0.30000000000E+02  0.47000000000E+01 0.  1.
</event>
<event>
 5    1  0.7693226E-002  0.6000000E+02  0.7546771E-02  0.1259629E+00
         11   -1    0    0    0    0  0.00000000000E+00  0.00000000000E+00  0.30000000000E+02  0.30000000000E+02  0.00000000000E+00 0.  1.
        -11   -1    0    0    0    0 -0.00000000000E+00 -0.00000000000E+00 -0.30000000000E+02  0.30000000000E+02  0.00000000000E+00 0. -1.
         23    2    1    2    0    0  0.00000000000E+00  0.00000000000E+00  0.00000000000E+00  0.60000000000E+02  0.60000000000E+02 0.  0.
          5    1    3    3  501    0  0.15443215706E+02 -0.24430924527E+02  0.65228073267E+01  0.30000000000E+02  0.47000000000E+01 0.  1.
         -5    1    3    3    0  501 -0.15443215706E+02  0.24430924527E+02 -0.65228073267E+01  0.30000000000E+02  0.47000000000E+01 0. -1.
</event>
<event>
 5    1  0.7693226E-002  0.6000000E+02  0.7546771E-02  0.1259629E+00
         11   -1    0    0    0    0  0.00000000000E+00  0.00000000000E+00  0.30000000000E+02  0.30000000000E+02  0.00000000000E+00 0.  1.
        -11   -1    0    0    0    0 -0.00000000000E+00 -0.00000000000E+00 -0.30000000000E+02  0.30000000000E+02  0.00000000000E+00 0. -1.
         23    2    1    2    0    0  0.00000000000E+00  0.00000000000E+00  0.00000000000E+00  0.60000000000E+02  0.60000000000E+02 0.  0.
          5    1    3    3  501    0  0.14493313040E+02 -0.47297770607E+01 -0.25406359166E+02  0.30000000000E+02  0.47000000000E+01 0. -1.
         -5    1    3    3    0  501 -0.14493313040E+02  0.47297770607E+01  0.25406359166E+02  0.30000000000E+02  0.47000000000E+01 0.  1.
</event>
<event>
 5    1  0.7693226E-002  0.6000000E+02  0.7546771E-02  0.1259629E+00
         11   -1    0    0    0    0  0.00000000000E+00  0.00000000000E+00  0.30000000000E+02  0.30000000000E+02  0.00000000000E+00 0.  1.
        -11   -1    0    0    0    0 -0.00000000000E+00 -0.00000000000E+00 -0.30000000000E+02  0.30000000000E+02  0.00000000000E+00 0. -1.
         23    2    1    2    0    0  0.00000000000E+00  0.00000000000E+00  0.00000000000E+00  0.60000000000E+02  0.60000000000E+02 0.  0.
          5    1    3    3  501    0 -0.39719343784E+01  0.27164614620E+02  0.11145288235E+02  0.30000000000E+02  0.47000000000E+01 0.  1.
         -5    1    3    3    0  501  0.39719343784E+01 -0.27164614620E+02 -0.11145288235E+02  0.30000000000E+02  0.47000000000E+01 0. -1.
</event>
<event>
 5    1  0.7693226E-002  0.6000000E+02  0.7546771E-02  0.1259629E+00
         11   -1    0    0    0    0  0.00000000000E+00  0.00000000000E+00  0.30000000000E+02  0.30000000000E+02  0.00000000000E+00 0.  1.
        -11   -1    0    0    0    0 -0.00000000000E+00 -0.00000000000E+00 -0.30000000000E+02  0.30000000000E+02  0.00000000000E+00 0. -1.
         23    2    1    2    0    0  0.00000000000E+00  0.00000000000E+00  0.00000000000E+00  0.60000000000E+02  0.60000000000E+02 0.  0.
          5    1    3    3  501    0 -0.25307515479E+02  0.47832718077E+01 -0.14647865752E+02  0.30000000000E+02  0.47000000000E+01 0. -1.
         -5    1    3    3    0  501  0.25307515479E+02 -0.47832718077E+01  0.14647865752E+02  0.30000000000E+02  0.47000000000E+01 0.  1.
</event>
<event>
 5    1  0.7693226E-002  0.6000000E+02  0.7546771E-02  0.1259629E+00
         11   -1    0    0    0    0  0.00000000000E+00  0.00000000000E+00  0.30000000000E+02  0.30000000000E+02  0.00000000000E+00 0.  1.
        -11   -1    0    0    0    0 -0.00000000000E+00 -0.00000000000E+00 -0.30000000000E+02  0.30000000000E+02  0.00000000000E+00 0. -1.
         23    2    1    2    0    0  0.00000000000E+00  0.00000000000E+00  0.00000000000E+00  0.60000000000E+02  0.60000000000E+02 0.  0.
          5    1    3    3  501    0  0.22001884740E+02  0.18628268244E+02 -0.68421261411E+01  0.30000000000E+02  0.47000000000E+01 0. -1.
         -5    1    3    3    0  501 -0.22001884740E+02 -0.18628268244E+02  0.68421261411E+01  0.30000000000E+02  0.47000000000E+01 0.  1.
</event>
<event>
 5    1  0.7693226E-002  0.6000000E+02  0.7546771E-02  0.1259629E+00
         11   -1    0    0    0    0  0.00000000000E+00  0.00000000000E+00  0.30000000000E+02  0.30000000000E+02  0.00000000000E+00 0.  1.
        -11   -1    0    0    0    0 -0.00000000000E+00 -0.00000000000E+00 -0.30000000000E+02  0.30000000000E+02  0.00000000000E+00 0. -1.
         23    2    1    2    0    0  0.00000000000E+00  0.00000000000E+00  0.00000000000E+00  0.60000000000E+02  0.60000000000E+02 0.  0.
          5    1    3    3  501    0  0.24254099612E+02  0.15241062128E+02  0.75735511627E+01  0.30000000000E+02  0.47000000000E+01 0. -1.
         -5    1    3    3    0  501 -0.24254099612E+02 -0.15241062128E+02 -0.75735511627E+01  0.30000000000E+02  0.47000000000E+01 0.  1.
</event>
<event>
 5    1  0.7693226E-002  0.6000000E+02  0.7546771E-02  0.1259629E+00
         11   -1    0    0    0    0  0.00000000000E+00  0.00000000000E+00  0.30000000000E+02  0.30000000000E+02  0.00000000000E+00 0.  1.
        -11   -1    0    0    0    0 -0.00000000000E+00 -0.00000000000E+00 -0.30000000000E+02  0.30000000000E+02  0.00000000000E+00 0. -1.
         23    2    1    2    0    0  0.00000000000E+00  0.00000000000E+00  0.00000000000E+00  0.60000000000E+02  0.60000000000E+02 0.  0.
          5    1    3    3  501    0 -0.24376387325E+02  0.15626082782E+02 -0.62870722810E+01  0.30000000000E+02  0.47000000000E+01 0. -1.
         -5    1    3    3    0  501  0.24376387325E+02 -0.15626082782E+02  0.62870722810E+01  0.30000000000E+02  0.47000000000E+01 0.  1.
</event>
<event>
 5    1  0.7693226E-002  0.6000000E+02  0.7546771E-02  0.1259629E+00
         11   -1    0    0    0    0  0.00000000000E+00  0.00000000000E+00  0.30000000000E+02  0.30000000000E+02  0.00000000000E+00 0. -1.
        -11   -1    0    0    0    0 -0.00000000000E+00 -0.00000000000E+00 -0.30000000000E+02  0.30000000000E+02  0.00000000000E+00 0.  1.
         23    2    1    2    0    0  0.00000000000E+00  0.00000000000E+00  0.00000000000E+00  0.60000000000E+02  0.60000000000E+02 0.  0.
          5    1    3    3  501    0  0.17263575246E+02 -0.70699856009E+01 -0.23019432516E+02  0.30000000000E+02  0.47000000000E+01 0.  1.
         -5    1    3    3    0  501 -0.17263575246E+02  0.70699856009E+01  0.23019432516E+02  0.30000000000E+02  0.47000000000E+01 0. -1.
</event>
<event>
 5    1  0.7693226E-002  0.6000000E+02  0.7546771E-02  0.1259629E+00
         11   -1    0    0    0    0  0.00000000000E+00  0.00000000000E+00  0.30000000000E+02  0.30000000000E+02  0.00000000000E+00 0.  1.
        -11   -1    0    0    0    0 -0.00000000000E+00 -0.00000000000E+00 -0.30000000000E+02  0.30000000000E+02  0.00000000000E+00 0. -1.
         23    2    1    2    0    0  0.00000000000E+00  0.00000000000E+00  0.00000000000E+00  0.60000000000E+02  0.60000000000E+02 0.  0.
          5    1    3    3  501    0  0.25728833717E+02  0.92214535324E+01 -0.11441237272E+02  0.30000000000E+02  0.47000000000E+01 0. -1.
         -5    1    3    3    0  501 -0.25728833717E+02 -0.92214535324E+01  0.11441237272E+02  0.30000000000E+02  0.47000000000E+01 0.  1.
</event>
<event>
 5    1  0.7693226E-002  0.6000000E+02  0.7546771E-02  0.1259629E+00
         11   -1    0    0    0    0  0.00000000000E+00  0.00000000000E+00  0.30000000000E+02  0.30000000000E+02  0.00000000000E+00 0.  1.
        -11   -1    0    0    0    0 -0.00000000000E+00 -0.00000000000E+00 -0.30000000000E+02  0.30000000000E+02  0.00000000000E+00 0. -1.
         23    2    1    2    0    0  0.00000000000E+00  0.00000000000E+00  0.00000000000E+00  0.60000000000E+02  0.60000000000E+02 0.  0.
          5    1    3    3  501    0  0.25915345131E+02 -0.90384798744E+01  0.11162919344E+02  0.30000000000E+02  0.47000000000E+01 0. -1.
         -5    1    3    3    0  501 -0.25915345131E+02  0.90384798744E+01 -0.11162919344E+02  0.30000000000E+02  0.47000000000E+01 0.  1.
</event>
<event>
 5    1  0.7693226E-002  0.6000000E+02  0.7546771E-02  0.1259629E+00
         11   -1    0    0    0    0  0.00000000000E+00  0.00000000000E+00  0.30000000000E+02  0.30000000000E+02  0.00000000000E+00 0.  1.
        -11   -1    0    0    0    0 -0.00000000000E+00 -0.00000000000E+00 -0.30000000000E+02  0.30000000000E+02  0.00000000000E+00 0. -1.
         23    2    1    2    0    0  0.00000000000E+00  0.00000000000E+00  0.00000000000E+00  0.60000000000E+02  0.60000000000E+02 0.  0.
          5    1    3    3  501    0 -0.96449717863E+01 -0.17718347744E+01 -0.27959705306E+02  0.30000000000E+02  0.47000000000E+01 0. -1.
         -5    1    3    3    0  501  0.96449717863E+01  0.17718347744E+01  0.27959705306E+02  0.30000000000E+02  0.47000000000E+01 0.  1.
</event>
<event>
 5    1  0.7693226E-002  0.6000000E+02  0.7546771E-02  0.1259629E+00
         11   -1    0    0    0    0  0.00000000000E+00  0.00000000000E+00  0.30000000000E+02  0.30000000000E+02  0.00000000000E+00 0. -1.
        -11   -1    0    0    0    0 -0.00000000000E+00 -0.00000000000E+00 -0.30000000000E+02  0.30000000000E+02  0.00000000000E+00 0.  1.
         23    2    1    2    0    0  0.00000000000E+00  0.00000000000E+00  0.00000000000E+00  0.60000000000E+02  0.60000000000E+02 0.  0.
          5    1    3    3  501    0  0.58653772387E+01  0.27700106453E+02  0.87299170865E+01  0.30000000000E+02  0.47000000000E+01 0.  1.
         -5    1    3    3    0  501 -0.58653772387E+01 -0.27700106453E+02 -0.87299170865E+01  0.30000000000E+02  0.47000000000E+01 0. -1.
</event>
<event>
 5    1  0.7693226E-002  0.6000000E+02  0.7546771E-02  0.1259629E+00
         11   -1    0    0    0    0  0.00000000000E+00  0.00000000000E+00  0.30000000000E+02  0.30000000000E+02  0.00000000000E+00 0.  1.
        -11   -1    0    0    0    0 -0.00000000000E+00 -0.00000000000E+00 -0.30000000000E+02  0.30000000000E+02  0.00000000000E+00 0. -1.
         23    2    1    2    0    0  0.00000000000E+00  0.00000000000E+00  0.00000000000E+00  0.60000000000E+02  0.60000000000E+02 0.  0.
          5    1    3    3  501    0 -0.10326681766E+02 -0.14784527384E+02 -0.23509304408E+02  0.30000000000E+02  0.47000000000E+01 0. -1.
         -5    1    3    3    0  501  0.10326681766E+02  0.14784527384E+02  0.23509304408E+02  0.30000000000E+02  0.47000000000E+01 0.  1.
</event>
<event>
 5    1  0.7693226E-002  0.6000000E+02  0.7546771E-02  0.1259629E+00
         11   -1    0    0    0    0  0.00000000000E+00  0.00000000000E+00  0.30000000000E+02  0.30000000000E+02  0.00000000000E+00 0.  1.
        -11   -1    0    0    0    0 -0.00000000000E+00 -0.00000000000E+00 -0.30000000000E+02  0.30000000000E+02  0.00000000000E+00 0. -1.
         23    2    1    2    0    0  0.00000000000E+00  0.00000000000E+00  0.00000000000E+00  0.60000000000E+02  0.60000000000E+02 0.  0.
          5    1    3    3  501    0 -0.27679365132E+02  0.10464797172E+02 -0.15002553247E+01  0.30000000000E+02  0.47000000000E+01 0. -1.
         -5    1    3    3    0  501  0.27679365132E+02 -0.10464797172E+02  0.15002553247E+01  0.30000000000E+02  0.47000000000E+01 0.  1.
</event>
<event>
 5    1  0.7693226E-002  0.6000000E+02  0.7546771E-02  0.1259629E+00
         11   -1    0    0    0    0  0.00000000000E+00  0.00000000000E+00  0.30000000000E+02  0.30000000000E+02  0.00000000000E+00 0.  1.
        -11   -1    0    0    0    0 -0.00000000000E+00 -0.00000000000E+00 -0.30000000000E+02  0.30000000000E+02  0.00000000000E+00 0. -1.
         23    2    1    2    0    0  0.00000000000E+00  0.00000000000E+00  0.00000000000E+00  0.60000000000E+02  0.60000000000E+02 0.  0.
          5    1    3    3  501    0  0.18209646378E+02  0.23336556809E+02 -0.13129718619E+01  0.30000000000E+02  0.47000000000E+01 0. -1.
         -5    1    3    3    0  501 -0.18209646378E+02 -0.23336556809E+02  0.13129718619E+01  0.30000000000E+02  0.47000000000E+01 0.  1.
</event>
<event>
 5    1  0.7693226E-002  0.6000000E+02  0.7546771E-02  0.1259629E+00
         11   -1    0    0    0    0  0.00000000000E+00  0.00000000000E+00  0.30000000000E+02  0.30000000000E+02  0.00000000000E+00 0.  1.
        -11   -1    0    0    0    0 -0.00000000000E+00 -0.00000000000E+00 -0.30000000000E+02  0.30000000000E+02  0.00000000000E+00 0. -1.
         23    2    1    2    0    0  0.00000000000E+00  0.00000000000E+00  0.00000000000E+00  0.60000000000E+02  0.60000000000E+02 0.  0.
          5    1    3    3  501    0  0.20389432366E+02 -0.37886449701E+01  0.21161928483E+02  0.30000000000E+02  0.47000000000E+01 0.  1.
         -5    1    3    3    0  501 -0.20389432366E+02  0.37886449701E+01 -0.21161928483E+02  0.30000000000E+02  0.47000000000E+01 0. -1.
</event>
<event>
 5    1  0.7693226E-002  0.6000000E+02  0.7546771E-02  0.1259629E+00
         11   -1    0    0    0    0  0.00000000000E+00  0.00000000000E+00  0.30000000000E+02  0.30000000000E+02  0.00000000000E+00 0.  1.
        -11   -1    0    0    0    0 -0.00000000000E+00 -0.00000000000E+00 -0.30000000000E+02  0.30000000000E+02  0.00000000000E+00 0. -1.
         23    2    1    2    0    0  0.00000000000E+00  0.00000000000E+00  0.00000000000E+00  0.60000000000E+02  0.60000000000E+02 0.  0.
          5    1    3    3  501    0 -0.38785372019E+01 -0.21516148124E+02 -0.19998057883E+02  0.30000000000E+02  0.47000000000E+01 0. -1.
         -5    1    3    3    0  501  0.38785372019E+01  0.21516148124E+02  0.19998057883E+02  0.30000000000E+02  0.47000000000E+01 0.  1.
</event>
<event>
 5    1  0.7693226E-002  0.6000000E+02  0.7546771E-02  0.1259629E+00
         11   -1    0    0    0    0  0.00000000000E+00  0.00000000000E+00  0.30000000000E+02  0.30000000000E+02  0.00000000000E+00 0.  1.
        -11   -1    0    0    0    0 -0.00000000000E+00 -0.00000000000E+00 -0.30000000000E+02  0.30000000000E+02  0.00000000000E+00 0. -1.
         23    2    1    2    0    0  0.00000000000E+00  0.00000000000E+00  0.00000000000E+00  0.60000000000E+02  0.60000000000E+02 0.  0.
          5    1    3    3  501    0  0.57601564531E+00  0.22885337590E+02 -0.18810622779E+02  0.30000000000E+02  0.47000000000E+01 0. -1.
         -5    1    3    3    0  501 -0.57601564531E+00 -0.22885337590E+02  0.18810622779E+02  0.30000000000E+02  0.47000000000E+01 0.  1.
</event>
<event>
 5    1  0.7693226E-002  0.6000000E+02  0.7546771E-02  0.1259629E+00
         11   -1    0    0    0    0  0.00000000000E+00  0.00000000000E+00  0.30000000000E+02  0.30000000000E+02  0.00000000000E+00 0.  1.
        -11   -1    0    0    0    0 -0.00000000000E+00 -0.00000000000E+00 -0.30000000000E+02  0.30000000000E+02  0.00000000000E+00 0. -1.
         23    2    1    2    0    0  0.00000000000E+00  0.00000000000E+00  0.00000000000E+00  0.60000000000E+02  0.60000000000E+02 0.  0.
          5    1    3    3  501    0 -0.21381327599E+02  0.17065846095E+01  0.20441046917E+02  0.30000000000E+02  0.47000000000E+01 0.  1.
         -5    1    3    3    0  501  0.21381327599E+02 -0.17065846095E+01 -0.20441046917E+02  0.30000000000E+02  0.47000000000E+01 0. -1.
</event>
<event>
 5    1  0.7693226E-002  0.6000000E+02  0.7546771E-02  0.1259629E+00
         11   -1    0    0    0    0  0.00000000000E+00  0.00000000000E+00  0.30000000000E+02  0.30000000000E+02  0.00000000000E+00 0. -1.
        -11   -1    0    0    0    0 -0.00000000000E+00 -0.00000000000E+00 -0.30000000000E+02  0.30000000000E+02  0.00000000000E+00 0.  1.
         23    2    1    2    0    0  0.00000000000E+00  0.00000000000E+00  0.00000000000E+00  0.60000000000E+02  0.60000000000E+02 0.  0.
          5    1    3    3  501    0  0.35888889902E+01 -0.10988119783E+02  0.27281698984E+02  0.30000000000E+02  0.47000000000E+01 0. -1.
         -5    1    3    3    0  501 -0.35888889902E+01  0.10988119783E+02 -0.27281698984E+02  0.30000000000E+02  0.47000000000E+01 0.  1.
</event>
<event>
 5    1  0.7693226E-002  0.6000000E+02  0.7546771E-02  0.1259629E+00
         11   -1    0    0    0    0  0.00000000000E+00  0.00000000000E+00  0.30000000000E+02  0.30000000000E+02  0.00000000000E+00 0.  1.
        -11   -1    0    0    0    0 -0.00000000000E+00 -0.00000000000E+00 -0.30000000000E+02  0.30000000000E+02  0.00000000000E+00 0. -1.
         23    2    1    2    0    0  0.00000000000E+00  0.00000000000E+00  0.00000000000E+00  0.60000000000E+02  0.60000000000E+02 0.  0.
          5    1    3    3  501    0  0.15897028701E+02  0.24962740011E+02 -0.14339071189E+01  0.30000000000E+02  0.47000000000E+01 0. -1.
         -5    1    3    3    0  501 -0.15897028701E+02 -0.24962740011E+02  0.14339071189E+01  0.30000000000E+02  0.47000000000E+01 0.  1.
</event>
<event>
 5    1  0.7693226E-002  0.6000000E+02  0.7546771E-02  0.1259629E+00
         11   -1    0    0    0    0  0.00000000000E+00  0.00000000000E+00  0.30000000000E+02  0.30000000000E+02  0.00000000000E+00 0.  1.
        -11   -1    0    0    0    0 -0.00000000000E+00 -0.00000000000E+00 -0.30000000000E+02  0.30000000000E+02  0.00000000000E+00 0. -1.
         23    2    1    2    0    0  0.00000000000E+00  0.00000000000E+00  0.00000000000E+00  0.60000000000E+02  0.60000000000E+02 0.  0.
          5    1    3    3  501    0  0.23460605580E+02 -0.67777191525E+01 -0.16780122435E+02  0.30000000000E+02  0.47000000000E+01 0. -1.
         -5    1    3    3    0  501 -0.23460605580E+02  0.67777191525E+01  0.16780122435E+02  0.30000000000E+02  0.47000000000E+01 0.  1.
</event>
<event>
 5    1  0.7693226E-002  0.6000000E+02  0.7546771E-02  0.1259629E+00
         11   -1    0    0    0    0  0.00000000000E+00  0.00000000000E+00  0.30000000000E+02  0.30000000000E+02  0.00000000000E+00 0. -1.
        -11   -1    0    0    0    0 -0.00000000000E+00 -0.00000000000E+00 -0.30000000000E+02  0.30000000000E+02  0.00000000000E+00 0.  1.
         23    2    1    2    0    0  0.00000000000E+00  0.00000000000E+00  0.00000000000E+00  0.60000000000E+02  0.60000000000E+02 0.  0.
          5    1    3    3  501    0 -0.10248505047E+02 -0.27345005188E+02  0.50128670041E+01  0.30000000000E+02  0.47000000000E+01 0.  1.
         -5    1    3    3    0  501  0.10248505047E+02  0.27345005188E+02 -0.50128670041E+01  0.30000000000E+02  0.47000000000E+01 0. -1.
</event>
<event>
 5    1  0.7693226E-002  0.6000000E+02  0.7546771E-02  0.1259629E+00
         11   -1    0    0    0    0  0.00000000000E+00  0.00000000000E+00  0.30000000000E+02  0.30000000000E+02  0.00000000000E+00 0.  1.
        -11   -1    0    0    0    0 -0.00000000000E+00 -0.00000000000E+00 -0.30000000000E+02  0.30000000000E+02  0.00000000000E+00 0. -1.
         23    2    1    2    0    0  0.00000000000E+00  0.00000000000E+00  0.00000000000E+00  0.60000000000E+02  0.60000000000E+02 0.  0.
          5    1    3    3  501    0  0.80029167317E+01 -0.18471137080E+02 -0.21741214749E+02  0.30000000000E+02  0.47000000000E+01 0. -1.
         -5    1    3    3    0  501 -0.80029167317E+01  0.18471137080E+02  0.21741214749E+02  0.30000000000E+02  0.47000000000E+01 0.  1.
</event>
<event>
 5    1  0.7693226E-002  0.6000000E+02  0.7546771E-02  0.1259629E+00
         11   -1    0    0    0    0  0.00000000000E+00  0.00000000000E+00  0.30000000000E+02  0.30000000000E+02  0.00000000000E+00 0.  1.
        -11   -1    0    0    0    0 -0.00000000000E+00 -0.00000000000E+00 -0.30000000000E+02  0.30000000000E+02  0.00000000000E+00 0. -1.
         23    2    1    2    0    0  0.00000000000E+00  0.00000000000E+00  0.00000000000E+00  0.60000000000E+02  0.60000000000E+02 0.  0.
          5    1    3    3  501    0 -0.36859291113E+01  0.26731215423E+02 -0.12237893962E+02  0.30000000000E+02  0.47000000000E+01 0. -1.
         -5    1    3    3    0  501  0.36859291113E+01 -0.26731215423E+02  0.12237893962E+02  0.30000000000E+02  0.47000000000E+01 0.  1.
</event>
<event>
 5    1  0.7693226E-002  0.6000000E+02  0.7546771E-02  0.1259629E+00
         11   -1    0    0    0    0  0.00000000000E+00  0.00000000000E+00  0.30000000000E+02  0.30000000000E+02  0.00000000000E+00 0.  1.
        -11   -1    0    0    0    0 -0.00000000000E+00 -0.00000000000E+00 -0.30000000000E+02  0.30000000000E+02  0.00000000000E+00 0. -1.
         23    2    1    2    0    0  0.00000000000E+00  0.00000000000E+00  0.00000000000E+00  0.60000000000E+02  0.60000000000E+02 0.  0.
          5    1    3    3  501    0  0.14945804726E+01  0.12152783634E+02  0.26981217155E+02  0.30000000000E+02  0.47000000000E+01 0.  1.
         -5    1    3    3    0  501 -0.14945804726E+01 -0.12152783634E+02 -0.26981217155E+02  0.30000000000E+02  0.47000000000E+01 0. -1.
</event>
<event>
 5    1  0.7693226E-002  0.6000000E+02  0.7546771E-02  0.1259629E+00
         11   -1    0    0    0    0  0.00000000000E+00  0.00000000000E+00  0.30000000000E+02  0.30000000000E+02  0.00000000000E+00 0. -1.
        -11   -1    0    0    0    0 -0.00000000000E+00 -0.00000000000E+00 -0.30000000000E+02  0.30000000000E+02  0.00000000000E+00 0.  1.
         23    2    1    2    0    0  0.00000000000E+00  0.00000000000E+00  0.00000000000E+00  0.60000000000E+02  0.60000000000E+02 0.  0.
          5    1    3    3  501    0 -0.19315614489E+02  0.16739461191E+02 -0.14986910154E+02  0.30000000000E+02  0.47000000000E+01 0.  1.
         -5    1    3    3    0  501  0.19315614489E+02 -0.16739461191E+02  0.14986910154E+02  0.30000000000E+02  0.47000000000E+01 0. -1.
</event>
<event>
 5    1  0.7693226E-002  0.6000000E+02  0.7546771E-02  0.1259629E+00
         11   -1    0    0    0    0  0.00000000000E+00  0.00000000000E+00  0.30000000000E+02  0.30000000000E+02  0.00000000000E+00 0.  1.
        -11   -1    0    0    0    0 -0.00000000000E+00 -0.00000000000E+00 -0.30000000000E+02  0.30000000000E+02  0.00000000000E+00 0. -1.
         23    2    1    2    0    0  0.00000000000E+00  0.00000000000E+00  0.00000000000E+00  0.60000000000E+02  0.60000000000E+02 0.  0.
          5    1    3    3  501    0  0.31228490417E+01 -0.28817313457E+02  0.61416820971E+01  0.30000000000E+02  0.47000000000E+01 0. -1.
         -5    1    3    3    0  501 -0.31228490417E+01  0.28817313457E+02 -0.61416820971E+01  0.30000000000E+02  0.47000000000E+01 0.  1.
</event>
<event>
 5    1  0.7693226E-002  0.6000000E+02  0.7546771E-02  0.1259629E+00
         11   -1    0    0    0    0  0.00000000000E+00  0.00000000000E+00  0.30000000000E+02  0.30000000000E+02  0.00000000000E+00 0.  1.
        -11   -1    0    0    0    0 -0.00000000000E+00 -0.00000000000E+00 -0.30000000000E+02  0.30000000000E+02  0.00000000000E+00 0. -1.
         23    2    1    2    0    0  0.00000000000E+00  0.00000000000E+00  0.00000000000E+00  0.60000000000E+02  0.60000000000E+02 0.  0.
          5    1    3    3  501    0 -0.21110822692E+02 -0.64556733168E+01 -0.19762779342E+02  0.30000000000E+02  0.47000000000E+01 0. -1.
         -5    1    3    3    0  501  0.21110822692E+02  0.64556733168E+01  0.19762779342E+02  0.30000000000E+02  0.47000000000E+01 0.  1.
</event>
<event>
 5    1  0.7693226E-002  0.6000000E+02  0.7546771E-02  0.1259629E+00
         11   -1    0    0    0    0  0.00000000000E+00  0.00000000000E+00  0.30000000000E+02  0.30000000000E+02  0.00000000000E+00 0.  1.
        -11   -1    0    0    0    0 -0.00000000000E+00 -0.00000000000E+00 -0.30000000000E+02  0.30000000000E+02  0.00000000000E+00 0. -1.
         23    2    1    2    0    0  0.00000000000E+00  0.00000000000E+00  0.00000000000E+00  0.60000000000E+02  0.60000000000E+02 0.  0.
          5    1    3    3  501    0  0.14531844586E+02  0.25169303812E+02 -0.57655562210E+01  0.30000000000E+02  0.47000000000E+01 0. -1.
         -5    1    3    3    0  501 -0.14531844586E+02 -0.25169303812E+02  0.57655562210E+01  0.30000000000E+02  0.47000000000E+01 0.  1.
</event>
<event>
 5    1  0.7693226E-002  0.6000000E+02  0.7546771E-02  0.1259629E+00
         11   -1    0    0    0    0  0.00000000000E+00  0.00000000000E+00  0.30000000000E+02  0.30000000000E+02  0.00000000000E+00 0.  1.
        -11   -1    0    0    0    0 -0.00000000000E+00 -0.00000000000E+00 -0.30000000000E+02  0.30000000000E+02  0.00000000000E+00 0. -1.
         23    2    1    2    0    0  0.00000000000E+00  0.00000000000E+00  0.00000000000E+00  0.60000000000E+02  0.60000000000E+02 0.  0.
          5    1    3    3  501    0  0.40141396716E+01  0.70648733559E+01 -0.28493582561E+02  0.30000000000E+02  0.47000000000E+01 0. -1.
         -5    1    3    3    0  501 -0.40141396716E+01 -0.70648733559E+01  0.28493582561E+02  0.30000000000E+02  0.47000000000E+01 0.  1.
</event>
<event>
 5    1  0.7693226E-002  0.6000000E+02  0.7546771E-02  0.1259629E+00
         11   -1    0    0    0    0  0.00000000000E+00  0.00000000000E+00  0.30000000000E+02  0.30000000000E+02  0.00000000000E+00 0.  1.
        -11   -1    0    0    0    0 -0.00000000000E+00 -0.00000000000E+00 -0.30000000000E+02  0.30000000000E+02  0.00000000000E+00 0. -1.
         23    2    1    2    0    0  0.00000000000E+00  0.00000000000E+00  0.00000000000E+00  0.60000000000E+02  0.60000000000E+02 0.  0.
          5    1    3    3  501    0 -0.37838910687E+01  0.17384132036E+02 -0.23693545993E+02  0.30000000000E+02  0.47000000000E+01 0.  1.
         -5    1    3    3    0  501  0.37838910687E+01 -0.17384132036E+02  0.23693545993E+02  0.30000000000E+02  0.47000000000E+01 0.  1.
</event>
<event>
 5    1  0.7693226E-002  0.6000000E+02  0.7546771E-02  0.1259629E+00
         11   -1    0    0    0    0  0.00000000000E+00  0.00000000000E+00  0.30000000000E+02  0.30000000000E+02  0.00000000000E+00 0.  1.
        -11   -1    0    0    0    0 -0.00000000000E+00 -0.00000000000E+00 -0.30000000000E+02  0.30000000000E+02  0.00000000000E+00 0. -1.
         23    2    1    2    0    0  0.00000000000E+00  0.00000000000E+00  0.00000000000E+00  0.60000000000E+02  0.60000000000E+02 0.  0.
          5    1    3    3  501    0  0.26857033132E+01 -0.29265868968E+01 -0.29362085874E+02  0.30000000000E+02  0.47000000000E+01 0. -1.
         -5    1    3    3    0  501 -0.26857033132E+01  0.29265868968E+01  0.29362085874E+02  0.30000000000E+02  0.47000000000E+01 0.  1.
</event>
<event>
 5    1  0.7693226E-002  0.6000000E+02  0.7546771E-02  0.1259629E+00
         11   -1    0    0    0    0  0.00000000000E+00  0.00000000000E+00  0.30000000000E+02  0.30000000000E+02  0.00000000000E+00 0.  1.
        -11   -1    0    0    0    0 -0.00000000000E+00 -0.00000000000E+00 -0.30000000000E+02  0.30000000000E+02  0.00000000000E+00 0. -1.
         23    2    1    2    0    0  0.00000000000E+00  0.00000000000E+00  0.00000000000E+00  0.60000000000E+02  0.60000000000E+02 0.  0.
          5    1    3    3  501    0  0.21352613196E+02  0.16564522704E+02 -0.12148765258E+02  0.30000000000E+02  0.47000000000E+01 0. -1.
         -5    1    3    3    0  501 -0.21352613196E+02 -0.16564522704E+02  0.12148765258E+02  0.30000000000E+02  0.47000000000E+01 0.  1.
</event>
<event>
 5    1  0.7693226E-002  0.6000000E+02  0.7546771E-02  0.1259629E+00
         11   -1    0    0    0    0  0.00000000000E+00  0.00000000000E+00  0.30000000000E+02  0.30000000000E+02  0.00000000000E+00 0.  1.
        -11   -1    0    0    0    0 -0.00000000000E+00 -0.00000000000E+00 -0.30000000000E+02  0.30000000000E+02  0.00000000000E+00 0. -1.
         23    2    1    2    0    0  0.00000000000E+00  0.00000000000E+00  0.00000000000E+00  0.60000000000E+02  0.60000000000E+02 0.  0.
          5    1    3    3  501    0  0.86487940394E+01  0.28026546849E+02 -0.41977414600E+01  0.30000000000E+02  0.47000000000E+01 0. -1.
         -5    1    3    3    0  501 -0.86487940394E+01 -0.28026546849E+02  0.41977414600E+01  0.30000000000E+02  0.47000000000E+01 0.  1.
</event>
<event>
 5    1  0.7693226E-002  0.6000000E+02  0.7546771E-02  0.1259629E+00
         11   -1    0    0    0    0  0.00000000000E+00  0.00000000000E+00  0.30000000000E+02  0.30000000000E+02  0.00000000000E+00 0.  1.
        -11   -1    0    0    0    0 -0.00000000000E+00 -0.00000000000E+00 -0.30000000000E+02  0.30000000000E+02  0.00000000000E+00 0. -1.
         23    2    1    2    0    0  0.00000000000E+00  0.00000000000E+00  0.00000000000E+00  0.60000000000E+02  0.60000000000E+02 0.  0.
          5    1    3    3  501    0 -0.16800670214E+02 -0.21437760477E+02 -0.11664900603E+02  0.30000000000E+02  0.47000000000E+01 0. -1.
         -5    1    3    3    0  501  0.16800670214E+02  0.21437760477E+02  0.11664900603E+02  0.30000000000E+02  0.47000000000E+01 0.  1.
</event>
<event>
 5    1  0.7693226E-002  0.6000000E+02  0.7546771E-02  0.1259629E+00
         11   -1    0    0    0    0  0.00000000000E+00  0.00000000000E+00  0.30000000000E+02  0.30000000000E+02  0.00000000000E+00 0.  1.
        -11   -1    0    0    0    0 -0.00000000000E+00 -0.00000000000E+00 -0.30000000000E+02  0.30000000000E+02  0.00000000000E+00 0. -1.
         23    2    1    2    0    0  0.00000000000E+00  0.00000000000E+00  0.00000000000E+00  0.60000000000E+02  0.60000000000E+02 0.  0.
          5    1    3    3  501    0 -0.77190804314E+01 -0.21451472494E+02 -0.18925118893E+02  0.30000000000E+02  0.47000000000E+01 0. -1.
         -5    1    3    3    0  501  0.77190804314E+01  0.21451472494E+02  0.18925118893E+02  0.30000000000E+02  0.47000000000E+01 0.  1.
</event>
<event>
 5    1  0.7693226E-002  0.6000000E+02  0.7546771E-02  0.1259629E+00
         11   -1    0    0    0    0  0.00000000000E+00  0.00000000000E+00  0.30000000000E+02  0.30000000000E+02  0.00000000000E+00 0.  1.
        -11   -1    0    0    0    0 -0.00000000000E+00 -0.00000000000E+00 -0.30000000000E+02  0.30000000000E+02  0.00000000000E+00 0. -1.
         23    2    1    2    0    0  0.00000000000E+00  0.00000000000E+00  0.00000000000E+00  0.60000000000E+02  0.60000000000E+02 0.  0.
          5    1    3    3  501    0 -0.72231865742E+01  0.16339695618E+02 -0.23637891675E+02  0.30000000000E+02  0.47000000000E+01 0. -1.
         -5    1    3    3    0  501  0.72231865742E+01 -0.16339695618E+02  0.23637891675E+02  0.30000000000E+02  0.47000000000E+01 0.  1.
</event>
<event>
 5    1  0.7693226E-002  0.6000000E+02  0.7546771E-02  0.1259629E+00
         11   -1    0    0    0    0  0.00000000000E+00  0.00000000000E+00  0.30000000000E+02  0.30000000000E+02  0.00000000000E+00 0.  1.
        -11   -1    0    0    0    0 -0.00000000000E+00 -0.00000000000E+00 -0.30000000000E+02  0.30000000000E+02  0.00000000000E+00 0. -1.
         23    2    1    2    0    0  0.00000000000E+00  0.00000000000E+00  0.00000000000E+00  0.60000000000E+02  0.60000000000E+02 0.  0.
          5    1    3    3  501    0  0.22540199997E+02 -0.98848989815E+01 -0.16496610447E+02  0.30000000000E+02  0.47000000000E+01 0. -1.
         -5    1    3    3    0  501 -0.22540199997E+02  0.98848989815E+01  0.16496610447E+02  0.30000000000E+02  0.47000000000E+01 0.  1.
</event>
<event>
 5    1  0.7693226E-002  0.6000000E+02  0.7546771E-02  0.1259629E+00
         11   -1    0    0    0    0  0.00000000000E+00  0.00000000000E+00  0.30000000000E+02  0.30000000000E+02  0.00000000000E+00 0. -1.
        -11   -1    0    0    0    0 -0.00000000000E+00 -0.00000000000E+00 -0.30000000000E+02  0.30000000000E+02  0.00000000000E+00 0.  1.
         23    2    1    2    0    0  0.00000000000E+00  0.00000000000E+00  0.00000000000E+00  0.60000000000E+02  0.60000000000E+02 0.  0.
          5    1    3    3  501    0  0.80827241101E+01 -0.28072115115E+02 -0.49533750054E+01  0.30000000000E+02  0.47000000000E+01 0.  1.
         -5    1    3    3    0  501 -0.80827241101E+01  0.28072115115E+02  0.49533750054E+01  0.30000000000E+02  0.47000000000E+01 0. -1.
</event>
<event>
 5    1  0.7693226E-002  0.6000000E+02  0.7546771E-02  0.1259629E+00
         11   -1    0    0    0    0  0.00000000000E+00  0.00000000000E+00  0.30000000000E+02  0.30000000000E+02  0.00000000000E+00 0. -1.
        -11   -1    0    0    0    0 -0.00000000000E+00 -0.00000000000E+00 -0.30000000000E+02  0.30000000000E+02  0.00000000000E+00 0.  1.
         23    2    1    2    0    0  0.00000000000E+00  0.00000000000E+00  0.00000000000E+00  0.60000000000E+02  0.60000000000E+02 0.  0.
          5    1    3    3  501    0  0.22307976734E+02  0.32811605942E+01 -0.19222334904E+02  0.30000000000E+02  0.47000000000E+01 0.  1.
         -5    1    3    3    0  501 -0.22307976734E+02 -0.32811605942E+01  0.19222334904E+02  0.30000000000E+02  0.47000000000E+01 0. -1.
</event>
<event>
 5    1  0.7693226E-002  0.6000000E+02  0.7546771E-02  0.1259629E+00
         11   -1    0    0    0    0  0.00000000000E+00  0.00000000000E+00  0.30000000000E+02  0.30000000000E+02  0.00000000000E+00 0.  1.
        -11   -1    0    0    0    0 -0.00000000000E+00 -0.00000000000E+00 -0.30000000000E+02  0.30000000000E+02  0.00000000000E+00 0. -1.
         23    2    1    2    0    0  0.00000000000E+00  0.00000000000E+00  0.00000000000E+00  0.60000000000E+02  0.60000000000E+02 0.  0.
          5    1    3    3  501    0 -0.29318684219E+02  0.24048511609E+01  0.35413904872E+01  0.30000000000E+02  0.47000000000E+01 0. -1.
         -5    1    3    3    0  501  0.29318684219E+02 -0.24048511609E+01 -0.35413904872E+01  0.30000000000E+02  0.47000000000E+01 0.  1.
</event>
<event>
 5    1  0.7693226E-002  0.6000000E+02  0.7546771E-02  0.1259629E+00
         11   -1    0    0    0    0  0.00000000000E+00  0.00000000000E+00  0.30000000000E+02  0.30000000000E+02  0.00000000000E+00 0.  1.
        -11   -1    0    0    0    0 -0.00000000000E+00 -0.00000000000E+00 -0.30000000000E+02  0.30000000000E+02  0.00000000000E+00 0. -1.
         23    2    1    2    0    0  0.00000000000E+00  0.00000000000E+00  0.00000000000E+00  0.60000000000E+02  0.60000000000E+02 0.  0.
          5    1    3    3  501    0  0.51928315050E+01  0.23054552010E+02 -0.17872664395E+02  0.30000000000E+02  0.47000000000E+01 0. -1.
         -5    1    3    3    0  501 -0.51928315050E+01 -0.23054552010E+02  0.17872664395E+02  0.30000000000E+02  0.47000000000E+01 0.  1.
</event>
<event>
 5    1  0.7693226E-002  0.6000000E+02  0.7546771E-02  0.1259629E+00
         11   -1    0    0    0    0  0.00000000000E+00  0.00000000000E+00  0.30000000000E+02  0.30000000000E+02  0.00000000000E+00 0.  1.
        -11   -1    0    0    0    0 -0.00000000000E+00 -0.00000000000E+00 -0.30000000000E+02  0.30000000000E+02  0.00000000000E+00 0. -1.
         23    2    1    2    0    0  0.00000000000E+00  0.00000000000E+00  0.00000000000E+00  0.60000000000E+02  0.60000000000E+02 0.  0.
          5    1    3    3  501    0  0.29349237098E+02  0.32038360103E+01 -0.25035408072E+01  0.30000000000E+02  0.47000000000E+01 0. -1.
         -5    1    3    3    0  501 -0.29349237098E+02 -0.32038360103E+01  0.25035408072E+01  0.30000000000E+02  0.47000000000E+01 0.  1.
</event>
<event>
 5    1  0.7693226E-002  0.6000000E+02  0.7546771E-02  0.1259629E+00
         11   -1    0    0    0    0  0.00000000000E+00  0.00000000000E+00  0.30000000000E+02  0.30000000000E+02  0.00000000000E+00 0.  1.
        -11   -1    0    0    0    0 -0.00000000000E+00 -0.00000000000E+00 -0.30000000000E+02  0.30000000000E+02  0.00000000000E+00 0. -1.
         23    2    1    2    0    0  0.00000000000E+00  0.00000000000E+00  0.00000000000E+00  0.60000000000E+02  0.60000000000E+02 0.  0.
          5    1    3    3  501    0 -0.17754928745E+02 -0.16487593316E+02 -0.17053790543E+02  0.30000000000E+02  0.47000000000E+01 0. -1.
         -5    1    3    3    0  501  0.17754928745E+02  0.16487593316E+02  0.17053790543E+02  0.30000000000E+02  0.47000000000E+01 0.  1.
</event>
<event>
 5    1  0.7693226E-002  0.6000000E+02  0.7546771E-02  0.1259629E+00
         11   -1    0    0    0    0  0.00000000000E+00  0.00000000000E+00  0.30000000000E+02  0.30000000000E+02  0.00000000000E+00 0. -1.
        -11   -1    0    0    0    0 -0.00000000000E+00 -0.00000000000E+00 -0.30000000000E+02  0.30000000000E+02  0.00000000000E+00 0.  1.
         23    2    1    2    0    0  0.00000000000E+00  0.00000000000E+00  0.00000000000E+00  0.60000000000E+02  0.60000000000E+02 0.  0.
          5    1    3    3  501    0  0.25641266116E+02  0.11850852878E+02 -0.89438670642E+01  0.30000000000E+02  0.47000000000E+01 0.  1.
         -5    1    3    3    0  501 -0.25641266116E+02 -0.11850852878E+02  0.89438670642E+01  0.30000000000E+02  0.47000000000E+01 0. -1.
</event>
<event>
 5    1  0.7693226E-002  0.6000000E+02  0.7546771E-02  0.1259629E+00
         11   -1    0    0    0    0  0.00000000000E+00  0.00000000000E+00  0.30000000000E+02  0.30000000000E+02  0.00000000000E+00 0.  1.
        -11   -1    0    0    0    0 -0.00000000000E+00 -0.00000000000E+00 -0.30000000000E+02  0.30000000000E+02  0.00000000000E+00 0. -1.
         23    2    1    2    0    0  0.00000000000E+00  0.00000000000E+00  0.00000000000E+00  0.60000000000E+02  0.60000000000E+02 0.  0.
          5    1    3    3  501    0  0.40018726664E+01  0.29337445444E+02 -0.10996862994E+01  0.30000000000E+02  0.47000000000E+01 0. -1.
         -5    1    3    3    0  501 -0.40018726664E+01 -0.29337445444E+02  0.10996862994E+01  0.30000000000E+02  0.47000000000E+01 0.  1.
</event>
<event>
 5    1  0.7693226E-002  0.6000000E+02  0.7546771E-02  0.1259629E+00
         11   -1    0    0    0    0  0.00000000000E+00  0.00000000000E+00  0.30000000000E+02  0.30000000000E+02  0.00000000000E+00 0.  1.
        -11   -1    0    0    0    0 -0.00000000000E+00 -0.00000000000E+00 -0.30000000000E+02  0.30000000000E+02  0.00000000000E+00 0. -1.
         23    2    1    2    0    0  0.00000000000E+00  0.00000000000E+00  0.00000000000E+00  0.60000000000E+02  0.60000000000E+02 0.  0.
          5    1    3    3  501    0  0.19043813854E+02 -0.10608373948E+02 -0.20067524912E+02  0.30000000000E+02  0.47000000000E+01 0. -1.
         -5    1    3    3    0  501 -0.19043813854E+02  0.10608373948E+02  0.20067524912E+02  0.30000000000E+02  0.47000000000E+01 0.  1.
</event>
<event>
 5    1  0.7693226E-002  0.6000000E+02  0.7546771E-02  0.1259629E+00
         11   -1    0    0    0    0  0.00000000000E+00  0.00000000000E+00  0.30000000000E+02  0.30000000000E+02  0.00000000000E+00 0.  1.
        -11   -1    0    0    0    0 -0.00000000000E+00 -0.00000000000E+00 -0.30000000000E+02  0.30000000000E+02  0.00000000000E+00 0. -1.
         23    2    1    2    0    0  0.00000000000E+00  0.00000000000E+00  0.00000000000E+00  0.60000000000E+02  0.60000000000E+02 0.  0.
          5    1    3    3  501    0  0.12020128514E+02 -0.88346686900E+01 -0.25600295694E+02  0.30000000000E+02  0.47000000000E+01 0. -1.
         -5    1    3    3    0  501 -0.12020128514E+02  0.88346686900E+01  0.25600295694E+02  0.30000000000E+02  0.47000000000E+01 0.  1.
</event>
<event>
 5    1  0.7693226E-002  0.6000000E+02  0.7546771E-02  0.1259629E+00
         11   -1    0    0    0    0  0.00000000000E+00  0.00000000000E+00  0.30000000000E+02  0.30000000000E+02  0.00000000000E+00 0.  1.
        -11   -1    0    0    0    0 -0.00000000000E+00 -0.00000000000E+00 -0.30000000000E+02  0.30000000000E+02  0.00000000000E+00 0. -1.
         23    2    1    2    0    0  0.00000000000E+00  0.00000000000E+00  0.00000000000E+00  0.60000000000E+02  0.60000000000E+02 0.  0.
          5    1    3    3  501    0 -0.14807021192E+02  0.22448347320E+02 -0.12439205201E+02  0.30000000000E+02  0.47000000000E+01 0. -1.
         -5    1    3    3    0  501  0.14807021192E+02 -0.22448347320E+02  0.12439205201E+02  0.30000000000E+02  0.47000000000E+01 0.  1.
</event>
<event>
 5    1  0.7693226E-002  0.6000000E+02  0.7546771E-02  0.1259629E+00
         11   -1    0    0    0    0  0.00000000000E+00  0.00000000000E+00  0.30000000000E+02  0.30000000000E+02  0.00000000000E+00 0. -1.
        -11   -1    0    0    0    0 -0.00000000000E+00 -0.00000000000E+00 -0.30000000000E+02  0.30000000000E+02  0.00000000000E+00 0.  1.
         23    2    1    2    0    0  0.00000000000E+00  0.00000000000E+00  0.00000000000E+00  0.60000000000E+02  0.60000000000E+02 0.  0.
          5    1    3    3  501    0 -0.15560245188E+02  0.51876698823E+00 -0.25209515079E+02  0.30000000000E+02  0.47000000000E+01 0.  1.
         -5    1    3    3    0  501  0.15560245188E+02 -0.51876698823E+00  0.25209515079E+02  0.30000000000E+02  0.47000000000E+01 0. -1.
</event>
<event>
 5    1  0.7693226E-002  0.6000000E+02  0.7546771E-02  0.1259629E+00
         11   -1    0    0    0    0  0.00000000000E+00  0.00000000000E+00  0.30000000000E+02  0.30000000000E+02  0.00000000000E+00 0. -1.
        -11   -1    0    0    0    0 -0.00000000000E+00 -0.00000000000E+00 -0.30000000000E+02  0.30000000000E+02  0.00000000000E+00 0.  1.
         23    2    1    2    0    0  0.00000000000E+00  0.00000000000E+00  0.00000000000E+00  0.60000000000E+02  0.60000000000E+02 0.  0.
          5    1    3    3  501    0  0.17959883101E+02  0.36501925213E+01 -0.23281509692E+02  0.30000000000E+02  0.47000000000E+01 0.  1.
         -5    1    3    3    0  501 -0.17959883101E+02 -0.36501925213E+01  0.23281509692E+02  0.30000000000E+02  0.47000000000E+01 0. -1.
</event>
<event>
 5    1  0.7693226E-002  0.6000000E+02  0.7546771E-02  0.1259629E+00
         11   -1    0    0    0    0  0.00000000000E+00  0.00000000000E+00  0.30000000000E+02  0.30000000000E+02  0.00000000000E+00 0.  1.
        -11   -1    0    0    0    0 -0.00000000000E+00 -0.00000000000E+00 -0.30000000000E+02  0.30000000000E+02  0.00000000000E+00 0. -1.
         23    2    1    2    0    0  0.00000000000E+00  0.00000000000E+00  0.00000000000E+00  0.60000000000E+02  0.60000000000E+02 0.  0.
          5    1    3    3  501    0  0.83731257882E+01 -0.26394006548E+02 -0.10543110683E+02  0.30000000000E+02  0.47000000000E+01 0. -1.
         -5    1    3    3    0  501 -0.83731257882E+01  0.26394006548E+02  0.10543110683E+02  0.30000000000E+02  0.47000000000E+01 0.  1.
</event>
<event>
 5    1  0.7693226E-002  0.6000000E+02  0.7546771E-02  0.1259629E+00
         11   -1    0    0    0    0  0.00000000000E+00  0.00000000000E+00  0.30000000000E+02  0.30000000000E+02  0.00000000000E+00 0. -1.
        -11   -1    0    0    0    0 -0.00000000000E+00 -0.00000000000E+00 -0.30000000000E+02  0.30000000000E+02  0.00000000000E+00 0.  1.
         23    2    1    2    0    0  0.00000000000E+00  0.00000000000E+00  0.00000000000E+00  0.60000000000E+02  0.60000000000E+02 0.  0.
          5    1    3    3  501    0  0.24220824703E+02 -0.46581134700E+01 -0.16418393027E+02  0.30000000000E+02  0.47000000000E+01 0.  1.
         -5    1    3    3    0  501 -0.24220824703E+02  0.46581134700E+01  0.16418393027E+02  0.30000000000E+02  0.47000000000E+01 0. -1.
</event>
<event>
 5    1  0.7693226E-002  0.6000000E+02  0.7546771E-02  0.1259629E+00
         11   -1    0    0    0    0  0.00000000000E+00  0.00000000000E+00  0.30000000000E+02  0.30000000000E+02  0.00000000000E+00 0. -1.
        -11   -1    0    0    0    0 -0.00000000000E+00 -0.00000000000E+00 -0.30000000000E+02  0.30000000000E+02  0.00000000000E+00 0.  1.
         23    2    1    2    0    0  0.00000000000E+00  0.00000000000E+00  0.00000000000E+00  0.60000000000E+02  0.60000000000E+02 0.  0.
          5    1    3    3  501    0 -0.13445735896E+02 -0.64087303390E+01 -0.25613480077E+02  0.30000000000E+02  0.47000000000E+01 0.  1.
         -5    1    3    3    0  501  0.13445735896E+02  0.64087303390E+01  0.25613480077E+02  0.30000000000E+02  0.47000000000E+01 0. -1.
</event>
<event>
 5    1  0.7693226E-002  0.6000000E+02  0.7546771E-02  0.1259629E+00
         11   -1    0    0    0    0  0.00000000000E+00  0.00000000000E+00  0.30000000000E+02  0.30000000000E+02  0.00000000000E+00 0.  1.
        -11   -1    0    0    0    0 -0.00000000000E+00 -0.00000000000E+00 -0.30000000000E+02  0.30000000000E+02  0.00000000000E+00 0. -1.
         23    2    1    2    0    0  0.00000000000E+00  0.00000000000E+00  0.00000000000E+00  0.60000000000E+02  0.60000000000E+02 0.  0.
          5    1    3    3  501    0 -0.13119186049E+01  0.11537510343E+02 -0.27259396997E+02  0.30000000000E+02  0.47000000000E+01 0. -1.
         -5    1    3    3    0  501  0.13119186049E+01 -0.11537510343E+02  0.27259396997E+02  0.30000000000E+02  0.47000000000E+01 0.  1.
</event>
<event>
 5    1  0.7693226E-002  0.6000000E+02  0.7546771E-02  0.1259629E+00
         11   -1    0    0    0    0  0.00000000000E+00  0.00000000000E+00  0.30000000000E+02  0.30000000000E+02  0.00000000000E+00 0.  1.
        -11   -1    0    0    0    0 -0.00000000000E+00 -0.00000000000E+00 -0.30000000000E+02  0.30000000000E+02  0.00000000000E+00 0. -1.
         23    2    1    2    0    0  0.00000000000E+00  0.00000000000E+00  0.00000000000E+00  0.60000000000E+02  0.60000000000E+02 0.  0.
          5    1    3    3  501    0 -0.26502184289E+02  0.12540286750E+02  0.42761473444E+01  0.30000000000E+02  0.47000000000E+01 0. -1.
         -5    1    3    3    0  501  0.26502184289E+02 -0.12540286750E+02 -0.42761473444E+01  0.30000000000E+02  0.47000000000E+01 0.  1.
</event>
<event>
 5    1  0.7693226E-002  0.6000000E+02  0.7546771E-02  0.1259629E+00
         11   -1    0    0    0    0  0.00000000000E+00  0.00000000000E+00  0.30000000000E+02  0.30000000000E+02  0.00000000000E+00 0.  1.
        -11   -1    0    0    0    0 -0.00000000000E+00 -0.00000000000E+00 -0.30000000000E+02  0.30000000000E+02  0.00000000000E+00 0. -1.
         23    2    1    2    0    0  0.00000000000E+00  0.00000000000E+00  0.00000000000E+00  0.60000000000E+02  0.60000000000E+02 0.  0.
          5    1    3    3  501    0 -0.51291238818E+01 -0.28474250966E+02 -0.63889842813E+01  0.30000000000E+02  0.47000000000E+01 0. -1.
         -5    1    3    3    0  501  0.51291238818E+01  0.28474250966E+02  0.63889842813E+01  0.30000000000E+02  0.47000000000E+01 0.  1.
</event>
<event>
 5    1  0.7693226E-002  0.6000000E+02  0.7546771E-02  0.1259629E+00
         11   -1    0    0    0    0  0.00000000000E+00  0.00000000000E+00  0.30000000000E+02  0.30000000000E+02  0.00000000000E+00 0.  1.
        -11   -1    0    0    0    0 -0.00000000000E+00 -0.00000000000E+00 -0.30000000000E+02  0.30000000000E+02  0.00000000000E+00 0. -1.
         23    2    1    2    0    0  0.00000000000E+00  0.00000000000E+00  0.00000000000E+00  0.60000000000E+02  0.60000000000E+02 0.  0.
          5    1    3    3  501    0 -0.10175714243E+02  0.19567044149E+02 -0.19786248328E+02  0.30000000000E+02  0.47000000000E+01 0. -1.
         -5    1    3    3    0  501  0.10175714243E+02 -0.19567044149E+02  0.19786248328E+02  0.30000000000E+02  0.47000000000E+01 0.  1.
</event>
<event>
 5    1  0.7693226E-002  0.6000000E+02  0.7546771E-02  0.1259629E+00
         11   -1    0    0    0    0  0.00000000000E+00  0.00000000000E+00  0.30000000000E+02  0.30000000000E+02  0.00000000000E+00 0.  1.
        -11   -1    0    0    0    0 -0.00000000000E+00 -0.00000000000E+00 -0.30000000000E+02  0.30000000000E+02  0.00000000000E+00 0. -1.
         23    2    1    2    0    0  0.00000000000E+00  0.00000000000E+00  0.00000000000E+00  0.60000000000E+02  0.60000000000E+02 0.  0.
          5    1    3    3  501    0 -0.73497912040E+01  0.26020854226E+02  0.12116340810E+02  0.30000000000E+02  0.47000000000E+01 0. -1.
         -5    1    3    3    0  501  0.73497912040E+01 -0.26020854226E+02 -0.12116340810E+02  0.30000000000E+02  0.47000000000E+01 0.  1.
</event>
<event>
 5    1  0.7693226E-002  0.6000000E+02  0.7546771E-02  0.1259629E+00
         11   -1    0    0    0    0  0.00000000000E+00  0.00000000000E+00  0.30000000000E+02  0.30000000000E+02  0.00000000000E+00 0.  1.
        -11   -1    0    0    0    0 -0.00000000000E+00 -0.00000000000E+00 -0.30000000000E+02  0.30000000000E+02  0.00000000000E+00 0. -1.
         23    2    1    2    0    0  0.00000000000E+00  0.00000000000E+00  0.00000000000E+00  0.60000000000E+02  0.60000000000E+02 0.  0.
          5    1    3    3  501    0 -0.12398963872E+02  0.19755953133E+02 -0.18272329100E+02  0.30000000000E+02  0.47000000000E+01 0. -1.
         -5    1    3    3    0  501  0.12398963872E+02 -0.19755953133E+02  0.18272329100E+02  0.30000000000E+02  0.47000000000E+01 0.  1.
</event>
<event>
 5    1  0.7693226E-002  0.6000000E+02  0.7546771E-02  0.1259629E+00
         11   -1    0    0    0    0  0.00000000000E+00  0.00000000000E+00  0.30000000000E+02  0.30000000000E+02  0.00000000000E+00 0.  1.
        -11   -1    0    0    0    0 -0.00000000000E+00 -0.00000000000E+00 -0.30000000000E+02  0.30000000000E+02  0.00000000000E+00 0. -1.
         23    2    1    2    0    0  0.00000000000E+00  0.00000000000E+00  0.00000000000E+00  0.60000000000E+02  0.60000000000E+02 0.  0.
          5    1    3    3  501    0  0.25479295578E+02  0.15065616481E+02  0.13201124617E+01  0.30000000000E+02  0.47000000000E+01 0.  1.
         -5    1    3    3    0  501 -0.25479295578E+02 -0.15065616481E+02 -0.13201124617E+01  0.30000000000E+02  0.47000000000E+01 0. -1.
</event>
<event>
 5    1  0.7693226E-002  0.6000000E+02  0.7546771E-02  0.1259629E+00
         11   -1    0    0    0    0  0.00000000000E+00  0.00000000000E+00  0.30000000000E+02  0.30000000000E+02  0.00000000000E+00 0.  1.
        -11   -1    0    0    0    0 -0.00000000000E+00 -0.00000000000E+00 -0.30000000000E+02  0.30000000000E+02  0.00000000000E+00 0. -1.
         23    2    1    2    0    0  0.00000000000E+00  0.00000000000E+00  0.00000000000E+00  0.60000000000E+02  0.60000000000E+02 0.  0.
          5    1    3    3  501    0  0.64353814180E+01  0.26168139574E+02 -0.12317643332E+02  0.30000000000E+02  0.47000000000E+01 0. -1.
         -5    1    3    3    0  501 -0.64353814180E+01 -0.26168139574E+02  0.12317643332E+02  0.30000000000E+02  0.47000000000E+01 0.  1.
</event>
<event>
 5    1  0.7693226E-002  0.6000000E+02  0.7546771E-02  0.1259629E+00
         11   -1    0    0    0    0  0.00000000000E+00  0.00000000000E+00  0.30000000000E+02  0.30000000000E+02  0.00000000000E+00 0.  1.
        -11   -1    0    0    0    0 -0.00000000000E+00 -0.00000000000E+00 -0.30000000000E+02  0.30000000000E+02  0.00000000000E+00 0. -1.
         23    2    1    2    0    0  0.00000000000E+00  0.00000000000E+00  0.00000000000E+00  0.60000000000E+02  0.60000000000E+02 0.  0.
          5    1    3    3  501    0  0.71260141111E+01 -0.77421999263E+01 -0.27698163535E+02  0.30000000000E+02  0.47000000000E+01 0. -1.
         -5    1    3    3    0  501 -0.71260141111E+01  0.77421999263E+01  0.27698163535E+02  0.30000000000E+02  0.47000000000E+01 0.  1.
</event>
<event>
 5    1  0.7693226E-002  0.6000000E+02  0.7546771E-02  0.1259629E+00
         11   -1    0    0    0    0  0.00000000000E+00  0.00000000000E+00  0.30000000000E+02  0.30000000000E+02  0.00000000000E+00 0. -1.
        -11   -1    0    0    0    0 -0.00000000000E+00 -0.00000000000E+00 -0.30000000000E+02  0.30000000000E+02  0.00000000000E+00 0.  1.
         23    2    1    2    0    0  0.00000000000E+00  0.00000000000E+00  0.00000000000E+00  0.60000000000E+02  0.60000000000E+02 0.  0.
          5    1    3    3  501    0  0.22807002694E+01  0.27116241976E+02 -0.11722535025E+02  0.30000000000E+02  0.47000000000E+01 0.  1.
         -5    1    3    3    0  501 -0.22807002694E+01 -0.27116241976E+02  0.11722535025E+02  0.30000000000E+02  0.47000000000E+01 0. -1.
</event>
<event>
 5    1  0.7693226E-002  0.6000000E+02  0.7546771E-02  0.1259629E+00
         11   -1    0    0    0    0  0.00000000000E+00  0.00000000000E+00  0.30000000000E+02  0.30000000000E+02  0.00000000000E+00 0.  1.
        -11   -1    0    0    0    0 -0.00000000000E+00 -0.00000000000E+00 -0.30000000000E+02  0.30000000000E+02  0.00000000000E+00 0. -1.
         23    2    1    2    0    0  0.00000000000E+00  0.00000000000E+00  0.00000000000E+00  0.60000000000E+02  0.60000000000E+02 0.  0.
          5    1    3    3  501    0 -0.40759595717E+01  0.20164490653E+02 -0.21323458216E+02  0.30000000000E+02  0.47000000000E+01 0. -1.
         -5    1    3    3    0  501  0.40759595717E+01 -0.20164490653E+02  0.21323458216E+02  0.30000000000E+02  0.47000000000E+01 0.  1.
</event>
<event>
 5    1  0.7693226E-002  0.6000000E+02  0.7546771E-02  0.1259629E+00
         11   -1    0    0    0    0  0.00000000000E+00  0.00000000000E+00  0.30000000000E+02  0.30000000000E+02  0.00000000000E+00 0. -1.
        -11   -1    0    0    0    0 -0.00000000000E+00 -0.00000000000E+00 -0.30000000000E+02  0.30000000000E+02  0.00000000000E+00 0.  1.
         23    2    1    2    0    0  0.00000000000E+00  0.00000000000E+00  0.00000000000E+00  0.60000000000E+02  0.60000000000E+02 0.  0.
          5    1    3    3  501    0 -0.39609792580E-01  0.27274034427E+01 -0.29503723520E+02  0.30000000000E+02  0.47000000000E+01 0.  1.
         -5    1    3    3    0  501  0.39609792580E-01 -0.27274034427E+01  0.29503723520E+02  0.30000000000E+02  0.47000000000E+01 0. -1.
</event>
<event>
 5    1  0.7693226E-002  0.6000000E+02  0.7546771E-02  0.1259629E+00
         11   -1    0    0    0    0  0.00000000000E+00  0.00000000000E+00  0.30000000000E+02  0.30000000000E+02  0.00000000000E+00 0.  1.
        -11   -1    0    0    0    0 -0.00000000000E+00 -0.00000000000E+00 -0.30000000000E+02  0.30000000000E+02  0.00000000000E+00 0. -1.
         23    2    1    2    0    0  0.00000000000E+00  0.00000000000E+00  0.00000000000E+00  0.60000000000E+02  0.60000000000E+02 0.  0.
          5    1    3    3  501    0  0.28686699569E+02 -0.11640030058E+01  0.73231390024E+01  0.30000000000E+02  0.47000000000E+01 0. -1.
         -5    1    3    3    0  501 -0.28686699569E+02  0.11640030058E+01 -0.73231390024E+01  0.30000000000E+02  0.47000000000E+01 0.  1.
</event>
<event>
 5    1  0.7693226E-002  0.6000000E+02  0.7546771E-02  0.1259629E+00
         11   -1    0    0    0    0  0.00000000000E+00  0.00000000000E+00  0.30000000000E+02  0.30000000000E+02  0.00000000000E+00 0.  1.
        -11   -1    0    0    0    0 -0.00000000000E+00 -0.00000000000E+00 -0.30000000000E+02  0.30000000000E+02  0.00000000000E+00 0. -1.
         23    2    1    2    0    0  0.00000000000E+00  0.00000000000E+00  0.00000000000E+00  0.60000000000E+02  0.60000000000E+02 0.  0.
          5    1    3    3  501    0  0.13229594332E+02 -0.67477153334E+01 -0.25638958083E+02  0.30000000000E+02  0.47000000000E+01 0. -1.
         -5    1    3    3    0  501 -0.13229594332E+02  0.67477153334E+01  0.25638958083E+02  0.30000000000E+02  0.47000000000E+01 0.  1.
</event>
<event>
 5    1  0.7693226E-002  0.6000000E+02  0.7546771E-02  0.1259629E+00
         11   -1    0    0    0    0  0.00000000000E+00  0.00000000000E+00  0.30000000000E+02  0.30000000000E+02  0.00000000000E+00 0.  1.
        -11   -1    0    0    0    0 -0.00000000000E+00 -0.00000000000E+00 -0.30000000000E+02  0.30000000000E+02  0.00000000000E+00 0. -1.
         23    2    1    2    0    0  0.00000000000E+00  0.00000000000E+00  0.00000000000E+00  0.60000000000E+02  0.60000000000E+02 0.  0.
          5    1    3    3  501    0 -0.15020048628E+02 -0.25298088558E+02  0.35092527031E+01  0.30000000000E+02  0.47000000000E+01 0. -1.
         -5    1    3    3    0  501  0.15020048628E+02  0.25298088558E+02 -0.35092527031E+01  0.30000000000E+02  0.47000000000E+01 0.  1.
</event>
<event>
 5    1  0.7693226E-002  0.6000000E+02  0.7546771E-02  0.1259629E+00
         11   -1    0    0    0    0  0.00000000000E+00  0.00000000000E+00  0.30000000000E+02  0.30000000000E+02  0.00000000000E+00 0.  1.
        -11   -1    0    0    0    0 -0.00000000000E+00 -0.00000000000E+00 -0.30000000000E+02  0.30000000000E+02  0.00000000000E+00 0. -1.
         23    2    1    2    0    0  0.00000000000E+00  0.00000000000E+00  0.00000000000E+00  0.60000000000E+02  0.60000000000E+02 0.  0.
          5    1    3    3  501    0  0.22668534822E+02  0.86132809218E+01 -0.17025243634E+02  0.30000000000E+02  0.47000000000E+01 0. -1.
         -5    1    3    3    0  501 -0.22668534822E+02 -0.86132809218E+01  0.17025243634E+02  0.30000000000E+02  0.47000000000E+01 0.  1.
</event>
<event>
 5    1  0.7693226E-002  0.6000000E+02  0.7546771E-02  0.1259629E+00
         11   -1    0    0    0    0  0.00000000000E+00  0.00000000000E+00  0.30000000000E+02  0.30000000000E+02  0.00000000000E+00 0.  1.
        -11   -1    0    0    0    0 -0.00000000000E+00 -0.00000000000E+00 -0.30000000000E+02  0.30000000000E+02  0.00000000000E+00 0. -1.
         23    2    1    2    0    0  0.00000000000E+00  0.00000000000E+00  0.00000000000E+00  0.60000000000E+02  0.60000000000E+02 0.  0.
          5    1    3    3  501    0 -0.26460584767E+01  0.23443588064E+02 -0.17925025892E+02  0.30000000000E+02  0.47000000000E+01 0. -1.
         -5    1    3    3    0  501  0.26460584767E+01 -0.23443588064E+02  0.17925025892E+02  0.30000000000E+02  0.47000000000E+01 0.  1.
</event>
<event>
 5    1  0.7693226E-002  0.6000000E+02  0.7546771E-02  0.1259629E+00
         11   -1    0    0    0    0  0.00000000000E+00  0.00000000000E+00  0.30000000000E+02  0.30000000000E+02  0.00000000000E+00 0.  1.
        -11   -1    0    0    0    0 -0.00000000000E+00 -0.00000000000E+00 -0.30000000000E+02  0.30000000000E+02  0.00000000000E+00 0. -1.
         23    2    1    2    0    0  0.00000000000E+00  0.00000000000E+00  0.00000000000E+00  0.60000000000E+02  0.60000000000E+02 0.  0.
          5    1    3    3  501    0  0.22977544402E+02  0.60206081287E+01 -0.17711429389E+02  0.30000000000E+02  0.47000000000E+01 0. -1.
         -5    1    3    3    0  501 -0.22977544402E+02 -0.60206081287E+01  0.17711429389E+02  0.30000000000E+02  0.47000000000E+01 0.  1.
</event>
<event>
 5    1  0.7693226E-002  0.6000000E+02  0.7546771E-02  0.1259629E+00
         11   -1    0    0    0    0  0.00000000000E+00  0.00000000000E+00  0.30000000000E+02  0.30000000000E+02  0.00000000000E+00 0.  1.
        -11   -1    0    0    0    0 -0.00000000000E+00 -0.00000000000E+00 -0.30000000000E+02  0.30000000000E+02  0.00000000000E+00 0. -1.
         23    2    1    2    0    0  0.00000000000E+00  0.00000000000E+00  0.00000000000E+00  0.60000000000E+02  0.60000000000E+02 0.  0.
          5    1    3    3  501    0 -0.22833784760E+02  0.15870013449E+02 -0.10230882007E+02  0.30000000000E+02  0.47000000000E+01 0. -1.
         -5    1    3    3    0  501  0.22833784760E+02 -0.15870013449E+02  0.10230882007E+02  0.30000000000E+02  0.47000000000E+01 0.  1.
</event>
<event>
 5    1  0.7693226E-002  0.6000000E+02  0.7546771E-02  0.1259629E+00
         11   -1    0    0    0    0  0.00000000000E+00  0.00000000000E+00  0.30000000000E+02  0.30000000000E+02  0.00000000000E+00 0.  1.
        -11   -1    0    0    0    0 -0.00000000000E+00 -0.00000000000E+00 -0.30000000000E+02  0.30000000000E+02  0.00000000000E+00 0. -1.
         23    2    1    2    0    0  0.00000000000E+00  0.00000000000E+00  0.00000000000E+00  0.60000000000E+02  0.60000000000E+02 0.  0.
          5    1    3    3  501    0  0.13179255031E+02 -0.15909161445E+02 -0.21239487257E+02  0.30000000000E+02  0.47000000000E+01 0. -1.
         -5    1    3    3    0  501 -0.13179255031E+02  0.15909161445E+02  0.21239487257E+02  0.30000000000E+02  0.47000000000E+01 0.  1.
</event>
<event>
 5    1  0.7693226E-002  0.6000000E+02  0.7546771E-02  0.1259629E+00
         11   -1    0    0    0    0  0.00000000000E+00  0.00000000000E+00  0.30000000000E+02  0.30000000000E+02  0.00000000000E+00 0.  1.
        -11   -1    0    0    0    0 -0.00000000000E+00 -0.00000000000E+00 -0.30000000000E+02  0.30000000000E+02  0.00000000000E+00 0. -1.
         23    2    1    2    0    0  0.00000000000E+00  0.00000000000E+00  0.00000000000E+00  0.60000000000E+02  0.60000000000E+02 0.  0.
          5    1    3    3  501    0 -0.23052360836E+01  0.22468833261E+02 -0.19176741602E+02  0.30000000000E+02  0.47000000000E+01 0. -1.
         -5    1    3    3    0  501  0.23052360836E+01 -0.22468833261E+02  0.19176741602E+02  0.30000000000E+02  0.47000000000E+01 0.  1.
</event>
<event>
 5    1  0.7693226E-002  0.6000000E+02  0.7546771E-02  0.1259629E+00
         11   -1    0    0    0    0  0.00000000000E+00  0.00000000000E+00  0.30000000000E+02  0.30000000000E+02  0.00000000000E+00 0.  1.
        -11   -1    0    0    0    0 -0.00000000000E+00 -0.00000000000E+00 -0.30000000000E+02  0.30000000000E+02  0.00000000000E+00 0. -1.
         23    2    1    2    0    0  0.00000000000E+00  0.00000000000E+00  0.00000000000E+00  0.60000000000E+02  0.60000000000E+02 0.  0.
          5    1    3    3  501    0 -0.14034316994E+02 -0.35581719456E+01 -0.25851254494E+02  0.30000000000E+02  0.47000000000E+01 0. -1.
         -5    1    3    3    0  501  0.14034316994E+02  0.35581719456E+01  0.25851254494E+02  0.30000000000E+02  0.47000000000E+01 0.  1.
</event>
<event>
 5    1  0.7693226E-002  0.6000000E+02  0.7546771E-02  0.1259629E+00
         11   -1    0    0    0    0  0.00000000000E+00  0.00000000000E+00  0.30000000000E+02  0.30000000000E+02  0.00000000000E+00 0. -1.
        -11   -1    0    0    0    0 -0.00000000000E+00 -0.00000000000E+00 -0.30000000000E+02  0.30000000000E+02  0.00000000000E+00 0.  1.
         23    2    1    2    0    0  0.00000000000E+00  0.00000000000E+00  0.00000000000E+00  0.60000000000E+02  0.60000000000E+02 0.  0.
          5    1    3    3  501    0 -0.11827121424E+02 -0.52896519360E+01  0.26646740536E+02  0.30000000000E+02  0.47000000000E+01 0. -1.
         -5    1    3    3    0  501  0.11827121424E+02  0.52896519360E+01 -0.26646740536E+02  0.30000000000E+02  0.47000000000E+01 0.  1.
</event>
<event>
 5    1  0.7693226E-002  0.6000000E+02  0.7546771E-02  0.1259629E+00
         11   -1    0    0    0    0  0.00000000000E+00  0.00000000000E+00  0.30000000000E+02  0.30000000000E+02  0.00000000000E+00 0.  1.
        -11   -1    0    0    0    0 -0.00000000000E+00 -0.00000000000E+00 -0.30000000000E+02  0.30000000000E+02  0.00000000000E+00 0. -1.
         23    2    1    2    0    0  0.00000000000E+00  0.00000000000E+00  0.00000000000E+00  0.60000000000E+02  0.60000000000E+02 0.  0.
          5    1    3    3  501    0  0.15179525036E+02  0.81591400220E+01  0.24102291464E+02  0.30000000000E+02  0.47000000000E+01 0.  1.
         -5    1    3    3    0  501 -0.15179525036E+02 -0.81591400220E+01 -0.24102291464E+02  0.30000000000E+02  0.47000000000E+01 0. -1.
</event>
<event>
 5    1  0.7693226E-002  0.6000000E+02  0.7546771E-02  0.1259629E+00
         11   -1    0    0    0    0  0.00000000000E+00  0.00000000000E+00  0.30000000000E+02  0.30000000000E+02  0.00000000000E+00 0.  1.
        -11   -1    0    0    0    0 -0.00000000000E+00 -0.00000000000E+00 -0.30000000000E+02  0.30000000000E+02  0.00000000000E+00 0. -1.
         23    2    1    2    0    0  0.00000000000E+00  0.00000000000E+00  0.00000000000E+00  0.60000000000E+02  0.60000000000E+02 0.  0.
          5    1    3    3  501    0  0.77511102994E+01 -0.47008058603E+01 -0.28208734700E+02  0.30000000000E+02  0.47000000000E+01 0. -1.
         -5    1    3    3    0  501 -0.77511102994E+01  0.47008058603E+01  0.28208734700E+02  0.30000000000E+02  0.47000000000E+01 0.  1.
</event>
<event>
 5    1  0.7693226E-002  0.6000000E+02  0.7546771E-02  0.1259629E+00
         11   -1    0    0    0    0  0.00000000000E+00  0.00000000000E+00  0.30000000000E+02  0.30000000000E+02  0.00000000000E+00 0. -1.
        -11   -1    0    0    0    0 -0.00000000000E+00 -0.00000000000E+00 -0.30000000000E+02  0.30000000000E+02  0.00000000000E+00 0.  1.
         23    2    1    2    0    0  0.00000000000E+00  0.00000000000E+00  0.00000000000E+00  0.60000000000E+02  0.60000000000E+02 0.  0.
          5    1    3    3  501    0 -0.79921080464E+01  0.19729477373E+02  0.20610287033E+02  0.30000000000E+02  0.47000000000E+01 0.  1.
         -5    1    3    3    0  501  0.79921080464E+01 -0.19729477373E+02 -0.20610287033E+02  0.30000000000E+02  0.47000000000E+01 0. -1.
</event>
<event>
 5    1  0.7693226E-002  0.6000000E+02  0.7546771E-02  0.1259629E+00
         11   -1    0    0    0    0  0.00000000000E+00  0.00000000000E+00  0.30000000000E+02  0.30000000000E+02  0.00000000000E+00 0.  1.
        -11   -1    0    0    0    0 -0.00000000000E+00 -0.00000000000E+00 -0.30000000000E+02  0.30000000000E+02  0.00000000000E+00 0. -1.
         23    2    1    2    0    0  0.00000000000E+00  0.00000000000E+00  0.00000000000E+00  0.60000000000E+02  0.60000000000E+02 0.  0.
          5    1    3    3  501    0 -0.11559195942E+02  0.24804775577E+02 -0.11358613373E+02  0.30000000000E+02  0.47000000000E+01 0. -1.
         -5    1    3    3    0  501  0.11559195942E+02 -0.24804775577E+02  0.11358613373E+02  0.30000000000E+02  0.47000000000E+01 0.  1.
</event>
<event>
 5    1  0.7693226E-002  0.6000000E+02  0.7546771E-02  0.1259629E+00
         11   -1    0    0    0    0  0.00000000000E+00  0.00000000000E+00  0.30000000000E+02  0.30000000000E+02  0.00000000000E+00 0.  1.
        -11   -1    0    0    0    0 -0.00000000000E+00 -0.00000000000E+00 -0.30000000000E+02  0.30000000000E+02  0.00000000000E+00 0. -1.
         23    2    1    2    0    0  0.00000000000E+00  0.00000000000E+00  0.00000000000E+00  0.60000000000E+02  0.60000000000E+02 0.  0.
          5    1    3    3  501    0 -0.10235600442E+02  0.26312402061E+02 -0.89888809845E+01  0.30000000000E+02  0.47000000000E+01 0. -1.
         -5    1    3    3    0  501  0.10235600442E+02 -0.26312402061E+02  0.89888809845E+01  0.30000000000E+02  0.47000000000E+01 0.  1.
</event>
<event>
 5    1  0.7693226E-002  0.6000000E+02  0.7546771E-02  0.1259629E+00
         11   -1    0    0    0    0  0.00000000000E+00  0.00000000000E+00  0.30000000000E+02  0.30000000000E+02  0.00000000000E+00 0.  1.
        -11   -1    0    0    0    0 -0.00000000000E+00 -0.00000000000E+00 -0.30000000000E+02  0.30000000000E+02  0.00000000000E+00 0. -1.
         23    2    1    2    0    0  0.00000000000E+00  0.00000000000E+00  0.00000000000E+00  0.60000000000E+02  0.60000000000E+02 0.  0.
          5    1    3    3  501    0 -0.22341318794E+02 -0.10436104281E+02 -0.16427513567E+02  0.30000000000E+02  0.47000000000E+01 0. -1.
         -5    1    3    3    0  501  0.22341318794E+02  0.10436104281E+02  0.16427513567E+02  0.30000000000E+02  0.47000000000E+01 0.  1.
</event>
<event>
 5    1  0.7693226E-002  0.6000000E+02  0.7546771E-02  0.1259629E+00
         11   -1    0    0    0    0  0.00000000000E+00  0.00000000000E+00  0.30000000000E+02  0.30000000000E+02  0.00000000000E+00 0. -1.
        -11   -1    0    0    0    0 -0.00000000000E+00 -0.00000000000E+00 -0.30000000000E+02  0.30000000000E+02  0.00000000000E+00 0.  1.
         23    2    1    2    0    0  0.00000000000E+00  0.00000000000E+00  0.00000000000E+00  0.60000000000E+02  0.60000000000E+02 0.  0.
          5    1    3    3  501    0 -0.77051267166E+00 -0.60286127665E+01 -0.28999519622E+02  0.30000000000E+02  0.47000000000E+01 0.  1.
         -5    1    3    3    0  501  0.77051267166E+00  0.60286127665E+01  0.28999519622E+02  0.30000000000E+02  0.47000000000E+01 0. -1.
</event>
<event>
 5    1  0.7693226E-002  0.6000000E+02  0.7546771E-02  0.1259629E+00
         11   -1    0    0    0    0  0.00000000000E+00  0.00000000000E+00  0.30000000000E+02  0.30000000000E+02  0.00000000000E+00 0. -1.
        -11   -1    0    0    0    0 -0.00000000000E+00 -0.00000000000E+00 -0.30000000000E+02  0.30000000000E+02  0.00000000000E+00 0.  1.
         23    2    1    2    0    0  0.00000000000E+00  0.00000000000E+00  0.00000000000E+00  0.60000000000E+02  0.60000000000E+02 0.  0.
          5    1    3    3  501    0  0.10520429207E+01 -0.11671166609E+01 -0.29587852987E+02  0.30000000000E+02  0.47000000000E+01 0.  1.
         -5    1    3    3    0  501 -0.10520429207E+01  0.11671166609E+01  0.29587852987E+02  0.30000000000E+02  0.47000000000E+01 0. -1.
</event>
<event>
 5    1  0.7693226E-002  0.6000000E+02  0.7546771E-02  0.1259629E+00
         11   -1    0    0    0    0  0.00000000000E+00  0.00000000000E+00  0.30000000000E+02  0.30000000000E+02  0.00000000000E+00 0.  1.
        -11   -1    0    0    0    0 -0.00000000000E+00 -0.00000000000E+00 -0.30000000000E+02  0.30000000000E+02  0.00000000000E+00 0. -1.
         23    2    1    2    0    0  0.00000000000E+00  0.00000000000E+00  0.00000000000E+00  0.60000000000E+02  0.60000000000E+02 0.  0.
          5    1    3    3  501    0 -0.11782981501E+02 -0.15765514968E+02 -0.22147683507E+02  0.30000000000E+02  0.47000000000E+01 0. -1.
         -5    1    3    3    0  501  0.11782981501E+02  0.15765514968E+02  0.22147683507E+02  0.30000000000E+02  0.47000000000E+01 0.  1.
</event>
<event>
 5    1  0.7693226E-002  0.6000000E+02  0.7546771E-02  0.1259629E+00
         11   -1    0    0    0    0  0.00000000000E+00  0.00000000000E+00  0.30000000000E+02  0.30000000000E+02  0.00000000000E+00 0.  1.
        -11   -1    0    0    0    0 -0.00000000000E+00 -0.00000000000E+00 -0.30000000000E+02  0.30000000000E+02  0.00000000000E+00 0. -1.
         23    2    1    2    0    0  0.00000000000E+00  0.00000000000E+00  0.00000000000E+00  0.60000000000E+02  0.60000000000E+02 0.  0.
          5    1    3    3  501    0 -0.79583381341E+01  0.92365823976E+01 -0.27004821787E+02  0.30000000000E+02  0.47000000000E+01 0. -1.
         -5    1    3    3    0  501  0.79583381341E+01 -0.92365823976E+01  0.27004821787E+02  0.30000000000E+02  0.47000000000E+01 0.  1.
</event>
<event>
 5    1  0.7693226E-002  0.6000000E+02  0.7546771E-02  0.1259629E+00
         11   -1    0    0    0    0  0.00000000000E+00  0.00000000000E+00  0.30000000000E+02  0.30000000000E+02  0.00000000000E+00 0.  1.
        -11   -1    0    0    0    0 -0.00000000000E+00 -0.00000000000E+00 -0.30000000000E+02  0.30000000000E+02  0.00000000000E+00 0. -1.
         23    2    1    2    0    0  0.00000000000E+00  0.00000000000E+00  0.00000000000E+00  0.60000000000E+02  0.60000000000E+02 0.  0.
          5    1    3    3  501    0 -0.65191994647E+01  0.11052880592E+02 -0.26706625937E+02  0.30000000000E+02  0.47000000000E+01 0. -1.
         -5    1    3    3    0  501  0.65191994647E+01 -0.11052880592E+02  0.26706625937E+02  0.30000000000E+02  0.47000000000E+01 0.  1.
</event>
<event>
 5    1  0.7693226E-002  0.6000000E+02  0.7546771E-02  0.1259629E+00
         11   -1    0    0    0    0  0.00000000000E+00  0.00000000000E+00  0.30000000000E+02  0.30000000000E+02  0.00000000000E+00 0.  1.
        -11   -1    0    0    0    0 -0.00000000000E+00 -0.00000000000E+00 -0.30000000000E+02  0.30000000000E+02  0.00000000000E+00 0. -1.
         23    2    1    2    0    0  0.00000000000E+00  0.00000000000E+00  0.00000000000E+00  0.60000000000E+02  0.60000000000E+02 0.  0.
          5    1    3    3  501    0  0.10297464367E+01 -0.73403302514E+00 -0.29602547488E+02  0.30000000000E+02  0.47000000000E+01 0. -1.
         -5    1    3    3    0  501 -0.10297464367E+01  0.73403302514E+00  0.29602547488E+02  0.30000000000E+02  0.47000000000E+01 0.  1.
</event>
<event>
 5    1  0.7693226E-002  0.6000000E+02  0.7546771E-02  0.1259629E+00
         11   -1    0    0    0    0  0.00000000000E+00  0.00000000000E+00  0.30000000000E+02  0.30000000000E+02  0.00000000000E+00 0.  1.
        -11   -1    0    0    0    0 -0.00000000000E+00 -0.00000000000E+00 -0.30000000000E+02  0.30000000000E+02  0.00000000000E+00 0. -1.
         23    2    1    2    0    0  0.00000000000E+00  0.00000000000E+00  0.00000000000E+00  0.60000000000E+02  0.60000000000E+02 0.  0.
          5    1    3    3  501    0 -0.71039250036E+01 -0.69064723144E+01 -0.27923912507E+02  0.30000000000E+02  0.47000000000E+01 0. -1.
         -5    1    3    3    0  501  0.71039250036E+01  0.69064723144E+01  0.27923912507E+02  0.30000000000E+02  0.47000000000E+01 0.  1.
</event>
<event>
 5    1  0.7693226E-002  0.6000000E+02  0.7546771E-02  0.1259629E+00
         11   -1    0    0    0    0  0.00000000000E+00  0.00000000000E+00  0.30000000000E+02  0.30000000000E+02  0.00000000000E+00 0.  1.
        -11   -1    0    0    0    0 -0.00000000000E+00 -0.00000000000E+00 -0.30000000000E+02  0.30000000000E+02  0.00000000000E+00 0. -1.
         23    2    1    2    0    0  0.00000000000E+00  0.00000000000E+00  0.00000000000E+00  0.60000000000E+02  0.60000000000E+02 0.  0.
          5    1    3    3  501    0  0.75304462217E+01 -0.39934653593E+01 -0.28377008548E+02  0.30000000000E+02  0.47000000000E+01 0. -1.
         -5    1    3    3    0  501 -0.75304462217E+01  0.39934653593E+01  0.28377008548E+02  0.30000000000E+02  0.47000000000E+01 0.  1.
</event>
<event>
 5    1  0.7693226E-002  0.6000000E+02  0.7546771E-02  0.1259629E+00
         11   -1    0    0    0    0  0.00000000000E+00  0.00000000000E+00  0.30000000000E+02  0.30000000000E+02  0.00000000000E+00 0.  1.
        -11   -1    0    0    0    0 -0.00000000000E+00 -0.00000000000E+00 -0.30000000000E+02  0.30000000000E+02  0.00000000000E+00 0. -1.
         23    2    1    2    0    0  0.00000000000E+00  0.00000000000E+00  0.00000000000E+00  0.60000000000E+02  0.60000000000E+02 0.  0.
          5    1    3    3  501    0  0.88881929554E+00 -0.47999539448E+01 -0.29224654701E+02  0.30000000000E+02  0.47000000000E+01 0. -1.
         -5    1    3    3    0  501 -0.88881929554E+00  0.47999539448E+01  0.29224654701E+02  0.30000000000E+02  0.47000000000E+01 0.  1.
</event>
<event>
 5    1  0.7693226E-002  0.6000000E+02  0.7546771E-02  0.1259629E+00
         11   -1    0    0    0    0  0.00000000000E+00  0.00000000000E+00  0.30000000000E+02  0.30000000000E+02  0.00000000000E+00 0.  1.
        -11   -1    0    0    0    0 -0.00000000000E+00 -0.00000000000E+00 -0.30000000000E+02  0.30000000000E+02  0.00000000000E+00 0. -1.
         23    2    1    2    0    0  0.00000000000E+00  0.00000000000E+00  0.00000000000E+00  0.60000000000E+02  0.60000000000E+02 0.  0.
          5    1    3    3  501    0  0.49183891382E+01  0.26173425297E+02 -0.12987349864E+02  0.30000000000E+02  0.47000000000E+01 0. -1.
         -5    1    3    3    0  501 -0.49183891382E+01 -0.26173425297E+02  0.12987349864E+02  0.30000000000E+02  0.47000000000E+01 0.  1.
</event>
<event>
 5    1  0.7693226E-002  0.6000000E+02  0.7546771E-02  0.1259629E+00
         11   -1    0    0    0    0  0.00000000000E+00  0.00000000000E+00  0.30000000000E+02  0.30000000000E+02  0.00000000000E+00 0. -1.
        -11   -1    0    0    0    0 -0.00000000000E+00 -0.00000000000E+00 -0.30000000000E+02  0.30000000000E+02  0.00000000000E+00 0.  1.
         23    2    1    2    0    0  0.00000000000E+00  0.00000000000E+00  0.00000000000E+00  0.60000000000E+02  0.60000000000E+02 0.  0.
          5    1    3    3  501    0  0.87784973591E+01 -0.74225401090E+01 -0.27308494694E+02  0.30000000000E+02  0.47000000000E+01 0.  1.
         -5    1    3    3    0  501 -0.87784973591E+01  0.74225401090E+01  0.27308494694E+02  0.30000000000E+02  0.47000000000E+01 0. -1.
</event>
<event>
 5    1  0.7693226E-002  0.6000000E+02  0.7546771E-02  0.1259629E+00
         11   -1    0    0    0    0  0.00000000000E+00  0.00000000000E+00  0.30000000000E+02  0.30000000000E+02  0.00000000000E+00 0.  1.
        -11   -1    0    0    0    0 -0.00000000000E+00 -0.00000000000E+00 -0.30000000000E+02  0.30000000000E+02  0.00000000000E+00 0. -1.
         23    2    1    2    0    0  0.00000000000E+00  0.00000000000E+00  0.00000000000E+00  0.60000000000E+02  0.60000000000E+02 0.  0.
          5    1    3    3  501    0 -0.58799439854E+01 -0.88569458707E+01 -0.27656658666E+02  0.30000000000E+02  0.47000000000E+01 0. -1.
         -5    1    3    3    0  501  0.58799439854E+01  0.88569458707E+01  0.27656658666E+02  0.30000000000E+02  0.47000000000E+01 0.  1.
</event>
<event>
 5    1  0.7693226E-002  0.6000000E+02  0.7546771E-02  0.1259629E+00
         11   -1    0    0    0    0  0.00000000000E+00  0.00000000000E+00  0.30000000000E+02  0.30000000000E+02  0.00000000000E+00 0. -1.
        -11   -1    0    0    0    0 -0.00000000000E+00 -0.00000000000E+00 -0.30000000000E+02  0.30000000000E+02  0.00000000000E+00 0.  1.
         23    2    1    2    0    0  0.00000000000E+00  0.00000000000E+00  0.00000000000E+00  0.60000000000E+02  0.60000000000E+02 0.  0.
          5    1    3    3  501    0  0.25461739006E+02  0.26712717629E+01 -0.14915567504E+02  0.30000000000E+02  0.47000000000E+01 0.  1.
         -5    1    3    3    0  501 -0.25461739006E+02 -0.26712717629E+01  0.14915567504E+02  0.30000000000E+02  0.47000000000E+01 0. -1.
</event>
<event>
 5    1  0.7693226E-002  0.6000000E+02  0.7546771E-02  0.1259629E+00
         11   -1    0    0    0    0  0.00000000000E+00  0.00000000000E+00  0.30000000000E+02  0.30000000000E+02  0.00000000000E+00 0.  1.
        -11   -1    0    0    0    0 -0.00000000000E+00 -0.00000000000E+00 -0.30000000000E+02  0.30000000000E+02  0.00000000000E+00 0. -1.
         23    2    1    2    0    0  0.00000000000E+00  0.00000000000E+00  0.00000000000E+00  0.60000000000E+02  0.60000000000E+02 0.  0.
          5    1    3    3  501    0  0.14176797917E+00 -0.13616425535E+02  0.26315069019E+02  0.30000000000E+02  0.47000000000E+01 0.  1.
         -5    1    3    3    0  501 -0.14176797917E+00  0.13616425535E+02 -0.26315069019E+02  0.30000000000E+02  0.47000000000E+01 0. -1.
</event>
<event>
 5    1  0.7693226E-002  0.6000000E+02  0.7546771E-02  0.1259629E+00
         11   -1    0    0    0    0  0.00000000000E+00  0.00000000000E+00  0.30000000000E+02  0.30000000000E+02  0.00000000000E+00 0.  1.
        -11   -1    0    0    0    0 -0.00000000000E+00 -0.00000000000E+00 -0.30000000000E+02  0.30000000000E+02  0.00000000000E+00 0. -1.
         23    2    1    2    0    0  0.00000000000E+00  0.00000000000E+00  0.00000000000E+00  0.60000000000E+02  0.60000000000E+02 0.  0.
          5    1    3    3  501    0 -0.14576612483E+02 -0.22277184381E+02  0.13006130268E+02  0.30000000000E+02  0.47000000000E+01 0.  1.
         -5    1    3    3    0  501  0.14576612483E+02  0.22277184381E+02 -0.13006130268E+02  0.30000000000E+02  0.47000000000E+01 0.  1.
</event>
<event>
 5    1  0.7693226E-002  0.6000000E+02  0.7546771E-02  0.1259629E+00
         11   -1    0    0    0    0  0.00000000000E+00  0.00000000000E+00  0.30000000000E+02  0.30000000000E+02  0.00000000000E+00 0.  1.
        -11   -1    0    0    0    0 -0.00000000000E+00 -0.00000000000E+00 -0.30000000000E+02  0.30000000000E+02  0.00000000000E+00 0. -1.
         23    2    1    2    0    0  0.00000000000E+00  0.00000000000E+00  0.00000000000E+00  0.60000000000E+02  0.60000000000E+02 0.  0.
          5    1    3    3  501    0  0.23196492554E+02 -0.88468881555E+01  0.16172980652E+02  0.30000000000E+02  0.47000000000E+01 0. -1.
         -5    1    3    3    0  501 -0.23196492554E+02  0.88468881555E+01 -0.16172980652E+02  0.30000000000E+02  0.47000000000E+01 0.  1.
</event>
<event>
 5    1  0.7693226E-002  0.6000000E+02  0.7546771E-02  0.1259629E+00
         11   -1    0    0    0    0  0.00000000000E+00  0.00000000000E+00  0.30000000000E+02  0.30000000000E+02  0.00000000000E+00 0.  1.
        -11   -1    0    0    0    0 -0.00000000000E+00 -0.00000000000E+00 -0.30000000000E+02  0.30000000000E+02  0.00000000000E+00 0. -1.
         23    2    1    2    0    0  0.00000000000E+00  0.00000000000E+00  0.00000000000E+00  0.60000000000E+02  0.60000000000E+02 0.  0.
          5    1    3    3  501    0  0.19231759821E+02 -0.18508388567E+02 -0.12864251508E+02  0.30000000000E+02  0.47000000000E+01 0. -1.
         -5    1    3    3    0  501 -0.19231759821E+02  0.18508388567E+02  0.12864251508E+02  0.30000000000E+02  0.47000000000E+01 0.  1.
</event>
<event>
 5    1  0.7693226E-002  0.6000000E+02  0.7546771E-02  0.1259629E+00
         11   -1    0    0    0    0  0.00000000000E+00  0.00000000000E+00  0.30000000000E+02  0.30000000000E+02  0.00000000000E+00 0.  1.
        -11   -1    0    0    0    0 -0.00000000000E+00 -0.00000000000E+00 -0.30000000000E+02  0.30000000000E+02  0.00000000000E+00 0. -1.
         23    2    1    2    0    0  0.00000000000E+00  0.00000000000E+00  0.00000000000E+00  0.60000000000E+02  0.60000000000E+02 0.  0.
          5    1    3    3  501    0  0.40816997876E+01  0.11771200661E+02 -0.26882867441E+02  0.30000000000E+02  0.47000000000E+01 0. -1.
         -5    1    3    3    0  501 -0.40816997876E+01 -0.11771200661E+02  0.26882867441E+02  0.30000000000E+02  0.47000000000E+01 0.  1.
</event>
<event>
 5    1  0.7693226E-002  0.6000000E+02  0.7546771E-02  0.1259629E+00
         11   -1    0    0    0    0  0.00000000000E+00  0.00000000000E+00  0.30000000000E+02  0.30000000000E+02  0.00000000000E+00 0.  1.
        -11   -1    0    0    0    0 -0.00000000000E+00 -0.00000000000E+00 -0.30000000000E+02  0.30000000000E+02  0.00000000000E+00 0. -1.
         23    2    1    2    0    0  0.00000000000E+00  0.00000000000E+00  0.00000000000E+00  0.60000000000E+02  0.60000000000E+02 0.  0.
          5    1    3    3  501    0 -0.75648968803E+01 -0.14045325972E+02  0.24968202849E+02  0.30000000000E+02  0.47000000000E+01 0.  1.
         -5    1    3    3    0  501  0.75648968803E+01  0.14045325972E+02 -0.24968202849E+02  0.30000000000E+02  0.47000000000E+01 0. -1.
</event>
<event>
 5    1  0.7693226E-002  0.6000000E+02  0.7546771E-02  0.1259629E+00
         11   -1    0    0    0    0  0.00000000000E+00  0.00000000000E+00  0.30000000000E+02  0.30000000000E+02  0.00000000000E+00 0.  1.
        -11   -1    0    0    0    0 -0.00000000000E+00 -0.00000000000E+00 -0.30000000000E+02  0.30000000000E+02  0.00000000000E+00 0. -1.
         23    2    1    2    0    0  0.00000000000E+00  0.00000000000E+00  0.00000000000E+00  0.60000000000E+02  0.60000000000E+02 0.  0.
          5    1    3    3  501    0  0.19004451139E+02 -0.68130866253E+01 -0.21686924345E+02  0.30000000000E+02  0.47000000000E+01 0. -1.
         -5    1    3    3    0  501 -0.19004451139E+02  0.68130866253E+01  0.21686924345E+02  0.30000000000E+02  0.47000000000E+01 0.  1.
</event>
<event>
 5    1  0.7693226E-002  0.6000000E+02  0.7546771E-02  0.1259629E+00
         11   -1    0    0    0    0  0.00000000000E+00  0.00000000000E+00  0.30000000000E+02  0.30000000000E+02  0.00000000000E+00 0.  1.
        -11   -1    0    0    0    0 -0.00000000000E+00 -0.00000000000E+00 -0.30000000000E+02  0.30000000000E+02  0.00000000000E+00 0. -1.
         23    2    1    2    0    0  0.00000000000E+00  0.00000000000E+00  0.00000000000E+00  0.60000000000E+02  0.60000000000E+02 0.  0.
          5    1    3    3  501    0  0.82708116875E+01  0.10928466511E+02  0.26269227125E+02  0.30000000000E+02  0.47000000000E+01 0.  1.
         -5    1    3    3    0  501 -0.82708116875E+01 -0.10928466511E+02 -0.26269227125E+02  0.30000000000E+02  0.47000000000E+01 0. -1.
</event>
<event>
 5    1  0.7693226E-002  0.6000000E+02  0.7546771E-02  0.1259629E+00
         11   -1    0    0    0    0  0.00000000000E+00  0.00000000000E+00  0.30000000000E+02  0.30000000000E+02  0.00000000000E+00 0.  1.
        -11   -1    0    0    0    0 -0.00000000000E+00 -0.00000000000E+00 -0.30000000000E+02  0.30000000000E+02  0.00000000000E+00 0. -1.
         23    2    1    2    0    0  0.00000000000E+00  0.00000000000E+00  0.00000000000E+00  0.60000000000E+02  0.60000000000E+02 0.  0.
          5    1    3    3  501    0  0.31851180399E+01 -0.54371043179E+01 -0.28951734313E+02  0.30000000000E+02  0.47000000000E+01 0. -1.
         -5    1    3    3    0  501 -0.31851180399E+01  0.54371043179E+01  0.28951734313E+02  0.30000000000E+02  0.47000000000E+01 0.  1.
</event>
<event>
 5    1  0.7693226E-002  0.6000000E+02  0.7546771E-02  0.1259629E+00
         11   -1    0    0    0    0  0.00000000000E+00  0.00000000000E+00  0.30000000000E+02  0.30000000000E+02  0.00000000000E+00 0.  1.
        -11   -1    0    0    0    0 -0.00000000000E+00 -0.00000000000E+00 -0.30000000000E+02  0.30000000000E+02  0.00000000000E+00 0. -1.
         23    2    1    2    0    0  0.00000000000E+00  0.00000000000E+00  0.00000000000E+00  0.60000000000E+02  0.60000000000E+02 0.  0.
          5    1    3    3  501    0  0.15868565039E+02  0.19023710404E+02 -0.16254140581E+02  0.30000000000E+02  0.47000000000E+01 0. -1.
         -5    1    3    3    0  501 -0.15868565039E+02 -0.19023710404E+02  0.16254140581E+02  0.30000000000E+02  0.47000000000E+01 0.  1.
</event>
<event>
 5    1  0.7693226E-002  0.6000000E+02  0.7546771E-02  0.1259629E+00
         11   -1    0    0    0    0  0.00000000000E+00  0.00000000000E+00  0.30000000000E+02  0.30000000000E+02  0.00000000000E+00 0.  1.
        -11   -1    0    0    0    0 -0.00000000000E+00 -0.00000000000E+00 -0.30000000000E+02  0.30000000000E+02  0.00000000000E+00 0. -1.
         23    2    1    2    0    0  0.00000000000E+00  0.00000000000E+00  0.00000000000E+00  0.60000000000E+02  0.60000000000E+02 0.  0.
          5    1    3    3  501    0 -0.41290395598E+01 -0.17151476660E+02 -0.23805207008E+02  0.30000000000E+02  0.47000000000E+01 0. -1.
         -5    1    3    3    0  501  0.41290395598E+01  0.17151476660E+02  0.23805207008E+02  0.30000000000E+02  0.47000000000E+01 0.  1.
</event>
<event>
 5    1  0.7693226E-002  0.6000000E+02  0.7546771E-02  0.1259629E+00
         11   -1    0    0    0    0  0.00000000000E+00  0.00000000000E+00  0.30000000000E+02  0.30000000000E+02  0.00000000000E+00 0.  1.
        -11   -1    0    0    0    0 -0.00000000000E+00 -0.00000000000E+00 -0.30000000000E+02  0.30000000000E+02  0.00000000000E+00 0. -1.
         23    2    1    2    0    0  0.00000000000E+00  0.00000000000E+00  0.00000000000E+00  0.60000000000E+02  0.60000000000E+02 0.  0.
          5    1    3    3  501    0 -0.24846731782E+00  0.28951313925E+02 -0.62983875743E+01  0.30000000000E+02  0.47000000000E+01 0. -1.
         -5    1    3    3    0  501  0.24846731782E+00 -0.28951313925E+02  0.62983875743E+01  0.30000000000E+02  0.47000000000E+01 0.  1.
</event>
<event>
 5    1  0.7693226E-002  0.6000000E+02  0.7546771E-02  0.1259629E+00
         11   -1    0    0    0    0  0.00000000000E+00  0.00000000000E+00  0.30000000000E+02  0.30000000000E+02  0.00000000000E+00 0.  1.
        -11   -1    0    0    0    0 -0.00000000000E+00 -0.00000000000E+00 -0.30000000000E+02  0.30000000000E+02  0.00000000000E+00 0. -1.
         23    2    1    2    0    0  0.00000000000E+00  0.00000000000E+00  0.00000000000E+00  0.60000000000E+02  0.60000000000E+02 0.  0.
          5    1    3    3  501    0 -0.98039169328E+01 -0.27959128786E+02  0.28342599783E+00  0.30000000000E+02  0.47000000000E+01 0. -1.
         -5    1    3    3    0  501  0.98039169328E+01  0.27959128786E+02 -0.28342599783E+00  0.30000000000E+02  0.47000000000E+01 0.  1.
</event>
<event>
 5    1  0.7693226E-002  0.6000000E+02  0.7546771E-02  0.1259629E+00
         11   -1    0    0    0    0  0.00000000000E+00  0.00000000000E+00  0.30000000000E+02  0.30000000000E+02  0.00000000000E+00 0.  1.
        -11   -1    0    0    0    0 -0.00000000000E+00 -0.00000000000E+00 -0.30000000000E+02  0.30000000000E+02  0.00000000000E+00 0. -1.
         23    2    1    2    0    0  0.00000000000E+00  0.00000000000E+00  0.00000000000E+00  0.60000000000E+02  0.60000000000E+02 0.  0.
          5    1    3    3  501    0  0.20850800666E+02  0.20851639464E+02 -0.28919272522E+01  0.30000000000E+02  0.47000000000E+01 0. -1.
         -5    1    3    3    0  501 -0.20850800666E+02 -0.20851639464E+02  0.28919272522E+01  0.30000000000E+02  0.47000000000E+01 0.  1.
</event>
<event>
 5    1  0.7693226E-002  0.6000000E+02  0.7546771E-02  0.1259629E+00
         11   -1    0    0    0    0  0.00000000000E+00  0.00000000000E+00  0.30000000000E+02  0.30000000000E+02  0.00000000000E+00 0. -1.
        -11   -1    0    0    0    0 -0.00000000000E+00 -0.00000000000E+00 -0.30000000000E+02  0.30000000000E+02  0.00000000000E+00 0.  1.
         23    2    1    2    0    0  0.00000000000E+00  0.00000000000E+00  0.00000000000E+00  0.60000000000E+02  0.60000000000E+02 0.  0.
          5    1    3    3  501    0 -0.17709924757E+02 -0.21513495607E+02  0.10071646930E+02  0.30000000000E+02  0.47000000000E+01 0.  1.
         -5    1    3    3    0  501  0.17709924757E+02  0.21513495607E+02 -0.10071646930E+02  0.30000000000E+02  0.47000000000E+01 0. -1.
</event>
<event>
 5    1  0.7693226E-002  0.6000000E+02  0.7546771E-02  0.1259629E+00
         11   -1    0    0    0    0  0.00000000000E+00  0.00000000000E+00  0.30000000000E+02  0.30000000000E+02  0.00000000000E+00 0.  1.
        -11   -1    0    0    0    0 -0.00000000000E+00 -0.00000000000E+00 -0.30000000000E+02  0.30000000000E+02  0.00000000000E+00 0. -1.
         23    2    1    2    0    0  0.00000000000E+00  0.00000000000E+00  0.00000000000E+00  0.60000000000E+02  0.60000000000E+02 0.  0.
          5    1    3    3  501    0 -0.83402024759E+00 -0.88062528267E+01 -0.28278336609E+02  0.30000000000E+02  0.47000000000E+01 0. -1.
         -5    1    3    3    0  501  0.83402024759E+00  0.88062528267E+01  0.28278336609E+02  0.30000000000E+02  0.47000000000E+01 0.  1.
</event>
<event>
 5    1  0.7693226E-002  0.6000000E+02  0.7546771E-02  0.1259629E+00
         11   -1    0    0    0    0  0.00000000000E+00  0.00000000000E+00  0.30000000000E+02  0.30000000000E+02  0.00000000000E+00 0.  1.
        -11   -1    0    0    0    0 -0.00000000000E+00 -0.00000000000E+00 -0.30000000000E+02  0.30000000000E+02  0.00000000000E+00 0. -1.
         23    2    1    2    0    0  0.00000000000E+00  0.00000000000E+00  0.00000000000E+00  0.60000000000E+02  0.60000000000E+02 0.  0.
          5    1    3    3  501    0  0.71768830023E+01 -0.26250960256E+02 -0.11717057482E+02  0.30000000000E+02  0.47000000000E+01 0. -1.
         -5    1    3    3    0  501 -0.71768830023E+01  0.26250960256E+02  0.11717057482E+02  0.30000000000E+02  0.47000000000E+01 0.  1.
</event>
<event>
 5    1  0.7693226E-002  0.6000000E+02  0.7546771E-02  0.1259629E+00
         11   -1    0    0    0    0  0.00000000000E+00  0.00000000000E+00  0.30000000000E+02  0.30000000000E+02  0.00000000000E+00 0. -1.
        -11   -1    0    0    0    0 -0.00000000000E+00 -0.00000000000E+00 -0.30000000000E+02  0.30000000000E+02  0.00000000000E+00 0.  1.
         23    2    1    2    0    0  0.00000000000E+00  0.00000000000E+00  0.00000000000E+00  0.60000000000E+02  0.60000000000E+02 0.  0.
          5    1    3    3  501    0  0.10796882601E+02  0.56040784387E+00  0.27586650198E+02  0.30000000000E+02  0.47000000000E+01 0. -1.
         -5    1    3    3    0  501 -0.10796882601E+02 -0.56040784387E+00 -0.27586650198E+02  0.30000000000E+02  0.47000000000E+01 0.  1.
</event>
<event>
 5    1  0.7693226E-002  0.6000000E+02  0.7546771E-02  0.1259629E+00
         11   -1    0    0    0    0  0.00000000000E+00  0.00000000000E+00  0.30000000000E+02  0.30000000000E+02  0.00000000000E+00 0.  1.
        -11   -1    0    0    0    0 -0.00000000000E+00 -0.00000000000E+00 -0.30000000000E+02  0.30000000000E+02  0.00000000000E+00 0. -1.
         23    2    1    2    0    0  0.00000000000E+00  0.00000000000E+00  0.00000000000E+00  0.60000000000E+02  0.60000000000E+02 0.  0.
          5    1    3    3  501    0  0.13196944501E+02 -0.16100560607E+02 -0.21083704702E+02  0.30000000000E+02  0.47000000000E+01 0. -1.
         -5    1    3    3    0  501 -0.13196944501E+02  0.16100560607E+02  0.21083704702E+02  0.30000000000E+02  0.47000000000E+01 0.  1.
</event>
<event>
 5    1  0.7693226E-002  0.6000000E+02  0.7546771E-02  0.1259629E+00
         11   -1    0    0    0    0  0.00000000000E+00  0.00000000000E+00  0.30000000000E+02  0.30000000000E+02  0.00000000000E+00 0. -1.
        -11   -1    0    0    0    0 -0.00000000000E+00 -0.00000000000E+00 -0.30000000000E+02  0.30000000000E+02  0.00000000000E+00 0.  1.
         23    2    1    2    0    0  0.00000000000E+00  0.00000000000E+00  0.00000000000E+00  0.60000000000E+02  0.60000000000E+02 0.  0.
          5    1    3    3  501    0 -0.18972549316E+02 -0.56423982835E+01  0.22048031977E+02  0.30000000000E+02  0.47000000000E+01 0. -1.
         -5    1    3    3    0  501  0.18972549316E+02  0.56423982835E+01 -0.22048031977E+02  0.30000000000E+02  0.47000000000E+01 0.  1.
</event>
<event>
 5    1  0.7693226E-002  0.6000000E+02  0.7546771E-02  0.1259629E+00
         11   -1    0    0    0    0  0.00000000000E+00  0.00000000000E+00  0.30000000000E+02  0.30000000000E+02  0.00000000000E+00 0.  1.
        -11   -1    0    0    0    0 -0.00000000000E+00 -0.00000000000E+00 -0.30000000000E+02  0.30000000000E+02  0.00000000000E+00 0. -1.
         23    2    1    2    0    0  0.00000000000E+00  0.00000000000E+00  0.00000000000E+00  0.60000000000E+02  0.60000000000E+02 0.  0.
          5    1    3    3  501    0  0.28622262333E+00 -0.95817698442E+01 -0.28036008333E+02  0.30000000000E+02  0.47000000000E+01 0. -1.
         -5    1    3    3    0  501 -0.28622262333E+00  0.95817698442E+01  0.28036008333E+02  0.30000000000E+02  0.47000000000E+01 0.  1.
</event>
<event>
 5    1  0.7693226E-002  0.6000000E+02  0.7546771E-02  0.1259629E+00
         11   -1    0    0    0    0  0.00000000000E+00  0.00000000000E+00  0.30000000000E+02  0.30000000000E+02  0.00000000000E+00 0. -1.
        -11   -1    0    0    0    0 -0.00000000000E+00 -0.00000000000E+00 -0.30000000000E+02  0.30000000000E+02  0.00000000000E+00 0.  1.
         23    2    1    2    0    0  0.00000000000E+00  0.00000000000E+00  0.00000000000E+00  0.60000000000E+02  0.60000000000E+02 0.  0.
          5    1    3    3  501    0  0.21707587756E+02  0.19901799648E+02  0.32571466913E+01  0.30000000000E+02  0.47000000000E+01 0. -1.
         -5    1    3    3    0  501 -0.21707587756E+02 -0.19901799648E+02 -0.32571466913E+01  0.30000000000E+02  0.47000000000E+01 0.  1.
</event>
<event>
 5    1  0.7693226E-002  0.6000000E+02  0.7546771E-02  0.1259629E+00
         11   -1    0    0    0    0  0.00000000000E+00  0.00000000000E+00  0.30000000000E+02  0.30000000000E+02  0.00000000000E+00 0.  1.
        -11   -1    0    0    0    0 -0.00000000000E+00 -0.00000000000E+00 -0.30000000000E+02  0.30000000000E+02  0.00000000000E+00 0. -1.
         23    2    1    2    0    0  0.00000000000E+00  0.00000000000E+00  0.00000000000E+00  0.60000000000E+02  0.60000000000E+02 0.  0.
          5    1    3    3  501    0 -0.24184990803E+02 -0.10487077048E+02 -0.13528393654E+02  0.30000000000E+02  0.47000000000E+01 0. -1.
         -5    1    3    3    0  501  0.24184990803E+02  0.10487077048E+02  0.13528393654E+02  0.30000000000E+02  0.47000000000E+01 0.  1.
</event>
<event>
 5    1  0.7693226E-002  0.6000000E+02  0.7546771E-02  0.1259629E+00
         11   -1    0    0    0    0  0.00000000000E+00  0.00000000000E+00  0.30000000000E+02  0.30000000000E+02  0.00000000000E+00 0.  1.
        -11   -1    0    0    0    0 -0.00000000000E+00 -0.00000000000E+00 -0.30000000000E+02  0.30000000000E+02  0.00000000000E+00 0. -1.
         23    2    1    2    0    0  0.00000000000E+00  0.00000000000E+00  0.00000000000E+00  0.60000000000E+02  0.60000000000E+02 0.  0.
          5    1    3    3  501    0 -0.22954988751E+02 -0.91281193181E+01  0.16360193432E+02  0.30000000000E+02  0.47000000000E+01 0.  1.
         -5    1    3    3    0  501  0.22954988751E+02  0.91281193181E+01 -0.16360193432E+02  0.30000000000E+02  0.47000000000E+01 0. -1.
</event>
<event>
 5    1  0.7693226E-002  0.6000000E+02  0.7546771E-02  0.1259629E+00
         11   -1    0    0    0    0  0.00000000000E+00  0.00000000000E+00  0.30000000000E+02  0.30000000000E+02  0.00000000000E+00 0.  1.
        -11   -1    0    0    0    0 -0.00000000000E+00 -0.00000000000E+00 -0.30000000000E+02  0.30000000000E+02  0.00000000000E+00 0. -1.
         23    2    1    2    0    0  0.00000000000E+00  0.00000000000E+00  0.00000000000E+00  0.60000000000E+02  0.60000000000E+02 0.  0.
          5    1    3    3  501    0 -0.23561154387E+02 -0.17871606624E+02  0.18405652993E+01  0.30000000000E+02  0.47000000000E+01 0. -1.
         -5    1    3    3    0  501  0.23561154387E+02  0.17871606624E+02 -0.18405652993E+01  0.30000000000E+02  0.47000000000E+01 0.  1.
</event>
<event>
 5    1  0.7693226E-002  0.6000000E+02  0.7546771E-02  0.1259629E+00
         11   -1    0    0    0    0  0.00000000000E+00  0.00000000000E+00  0.30000000000E+02  0.30000000000E+02  0.00000000000E+00 0.  1.
        -11   -1    0    0    0    0 -0.00000000000E+00 -0.00000000000E+00 -0.30000000000E+02  0.30000000000E+02  0.00000000000E+00 0. -1.
         23    2    1    2    0    0  0.00000000000E+00  0.00000000000E+00  0.00000000000E+00  0.60000000000E+02  0.60000000000E+02 0.  0.
          5    1    3    3  501    0  0.19130549485E+02  0.16414144057E+02 -0.15572666800E+02  0.30000000000E+02  0.47000000000E+01 0. -1.
         -5    1    3    3    0  501 -0.19130549485E+02 -0.16414144057E+02  0.15572666800E+02  0.30000000000E+02  0.47000000000E+01 0.  1.
</event>
<event>
 5    1  0.7693226E-002  0.6000000E+02  0.7546771E-02  0.1259629E+00
         11   -1    0    0    0    0  0.00000000000E+00  0.00000000000E+00  0.30000000000E+02  0.30000000000E+02  0.00000000000E+00 0.  1.
        -11   -1    0    0    0    0 -0.00000000000E+00 -0.00000000000E+00 -0.30000000000E+02  0.30000000000E+02  0.00000000000E+00 0. -1.
         23    2    1    2    0    0  0.00000000000E+00  0.00000000000E+00  0.00000000000E+00  0.60000000000E+02  0.60000000000E+02 0.  0.
          5    1    3    3  501    0  0.58957129251E+01 -0.28895699426E+02 -0.28616645083E+01  0.30000000000E+02  0.47000000000E+01 0. -1.
         -5    1    3    3    0  501 -0.58957129251E+01  0.28895699426E+02  0.28616645083E+01  0.30000000000E+02  0.47000000000E+01 0.  1.
</event>
<event>
 5    1  0.7693226E-002  0.6000000E+02  0.7546771E-02  0.1259629E+00
         11   -1    0    0    0    0  0.00000000000E+00  0.00000000000E+00  0.30000000000E+02  0.30000000000E+02  0.00000000000E+00 0.  1.
        -11   -1    0    0    0    0 -0.00000000000E+00 -0.00000000000E+00 -0.30000000000E+02  0.30000000000E+02  0.00000000000E+00 0. -1.
         23    2    1    2    0    0  0.00000000000E+00  0.00000000000E+00  0.00000000000E+00  0.60000000000E+02  0.60000000000E+02 0.  0.
          5    1    3    3  501    0 -0.27008856357E+02 -0.31999087523E+01 -0.11755520503E+02  0.30000000000E+02  0.47000000000E+01 0. -1.
         -5    1    3    3    0  501  0.27008856357E+02  0.31999087523E+01  0.11755520503E+02  0.30000000000E+02  0.47000000000E+01 0.  1.
</event>
<event>
 5    1  0.7693226E-002  0.6000000E+02  0.7546771E-02  0.1259629E+00
         11   -1    0    0    0    0  0.00000000000E+00  0.00000000000E+00  0.30000000000E+02  0.30000000000E+02  0.00000000000E+00 0.  1.
        -11   -1    0    0    0    0 -0.00000000000E+00 -0.00000000000E+00 -0.30000000000E+02  0.30000000000E+02  0.00000000000E+00 0. -1.
         23    2    1    2    0    0  0.00000000000E+00  0.00000000000E+00  0.00000000000E+00  0.60000000000E+02  0.60000000000E+02 0.  0.
          5    1    3    3  501    0 -0.18650602204E+02 -0.62688840660E+01 -0.22153241975E+02  0.30000000000E+02  0.47000000000E+01 0. -1.
         -5    1    3    3    0  501  0.18650602204E+02  0.62688840660E+01  0.22153241975E+02  0.30000000000E+02  0.47000000000E+01 0.  1.
</event>
<event>
 5    1  0.7693226E-002  0.6000000E+02  0.7546771E-02  0.1259629E+00
         11   -1    0    0    0    0  0.00000000000E+00  0.00000000000E+00  0.30000000000E+02  0.30000000000E+02  0.00000000000E+00 0.  1.
        -11   -1    0    0    0    0 -0.00000000000E+00 -0.00000000000E+00 -0.30000000000E+02  0.30000000000E+02  0.00000000000E+00 0. -1.
         23    2    1    2    0    0  0.00000000000E+00  0.00000000000E+00  0.00000000000E+00  0.60000000000E+02  0.60000000000E+02 0.  0.
          5    1    3    3  501    0 -0.17011283306E+02 -0.17503661178E+02 -0.16797264231E+02  0.30000000000E+02  0.47000000000E+01 0. -1.
         -5    1    3    3    0  501  0.17011283306E+02  0.17503661178E+02  0.16797264231E+02  0.30000000000E+02  0.47000000000E+01 0.  1.
</event>
<event>
 5    1  0.7693226E-002  0.6000000E+02  0.7546771E-02  0.1259629E+00
         11   -1    0    0    0    0  0.00000000000E+00  0.00000000000E+00  0.30000000000E+02  0.30000000000E+02  0.00000000000E+00 0.  1.
        -11   -1    0    0    0    0 -0.00000000000E+00 -0.00000000000E+00 -0.30000000000E+02  0.30000000000E+02  0.00000000000E+00 0. -1.
         23    2    1    2    0    0  0.00000000000E+00  0.00000000000E+00  0.00000000000E+00  0.60000000000E+02  0.60000000000E+02 0.  0.
          5    1    3    3  501    0 -0.16664811604E+02 -0.10926588043E+02 -0.21927237125E+02  0.30000000000E+02  0.47000000000E+01 0. -1.
         -5    1    3    3    0  501  0.16664811604E+02  0.10926588043E+02  0.21927237125E+02  0.30000000000E+02  0.47000000000E+01 0.  1.
</event>
<event>
 5    1  0.7693226E-002  0.6000000E+02  0.7546771E-02  0.1259629E+00
         11   -1    0    0    0    0  0.00000000000E+00  0.00000000000E+00  0.30000000000E+02  0.30000000000E+02  0.00000000000E+00 0.  1.
        -11   -1    0    0    0    0 -0.00000000000E+00 -0.00000000000E+00 -0.30000000000E+02  0.30000000000E+02  0.00000000000E+00 0. -1.
         23    2    1    2    0    0  0.00000000000E+00  0.00000000000E+00  0.00000000000E+00  0.60000000000E+02  0.60000000000E+02 0.  0.
          5    1    3    3  501    0 -0.99780318063E+01 -0.11772154010E+02 -0.25293581621E+02  0.30000000000E+02  0.47000000000E+01 0. -1.
         -5    1    3    3    0  501  0.99780318063E+01  0.11772154010E+02  0.25293581621E+02  0.30000000000E+02  0.47000000000E+01 0.  1.
</event>
<event>
 5    1  0.7693226E-002  0.6000000E+02  0.7546771E-02  0.1259629E+00
         11   -1    0    0    0    0  0.00000000000E+00  0.00000000000E+00  0.30000000000E+02  0.30000000000E+02  0.00000000000E+00 0.  1.
        -11   -1    0    0    0    0 -0.00000000000E+00 -0.00000000000E+00 -0.30000000000E+02  0.30000000000E+02  0.00000000000E+00 0. -1.
         23    2    1    2    0    0  0.00000000000E+00  0.00000000000E+00  0.00000000000E+00  0.60000000000E+02  0.60000000000E+02 0.  0.
          5    1    3    3  501    0 -0.20429044571E+02 -0.38542698487E+01 -0.21111815219E+02  0.30000000000E+02  0.47000000000E+01 0. -1.
         -5    1    3    3    0  501  0.20429044571E+02  0.38542698487E+01  0.21111815219E+02  0.30000000000E+02  0.47000000000E+01 0.  1.
</event>
<event>
 5    1  0.7693226E-002  0.6000000E+02  0.7546771E-02  0.1259629E+00
         11   -1    0    0    0    0  0.00000000000E+00  0.00000000000E+00  0.30000000000E+02  0.30000000000E+02  0.00000000000E+00 0.  1.
        -11   -1    0    0    0    0 -0.00000000000E+00 -0.00000000000E+00 -0.30000000000E+02  0.30000000000E+02  0.00000000000E+00 0. -1.
         23    2    1    2    0    0  0.00000000000E+00  0.00000000000E+00  0.00000000000E+00  0.60000000000E+02  0.60000000000E+02 0.  0.
          5    1    3    3  501    0 -0.32064832557E+01 -0.80101062868E+01  0.28345487514E+02  0.30000000000E+02  0.47000000000E+01 0.  1.
         -5    1    3    3    0  501  0.32064832557E+01  0.80101062868E+01 -0.28345487514E+02  0.30000000000E+02  0.47000000000E+01 0. -1.
</event>
<event>
 5    1  0.7693226E-002  0.6000000E+02  0.7546771E-02  0.1259629E+00
         11   -1    0    0    0    0  0.00000000000E+00  0.00000000000E+00  0.30000000000E+02  0.30000000000E+02  0.00000000000E+00 0. -1.
        -11   -1    0    0    0    0 -0.00000000000E+00 -0.00000000000E+00 -0.30000000000E+02  0.30000000000E+02  0.00000000000E+00 0.  1.
         23    2    1    2    0    0  0.00000000000E+00  0.00000000000E+00  0.00000000000E+00  0.60000000000E+02  0.60000000000E+02 0.  0.
          5    1    3    3  501    0 -0.20714683051E+02 -0.12984267449E+02  0.16739794052E+02  0.30000000000E+02  0.47000000000E+01 0. -1.
         -5    1    3    3    0  501  0.20714683051E+02  0.12984267449E+02 -0.16739794052E+02  0.30000000000E+02  0.47000000000E+01 0.  1.
</event>
<event>
 5    1  0.7693226E-002  0.6000000E+02  0.7546771E-02  0.1259629E+00
         11   -1    0    0    0    0  0.00000000000E+00  0.00000000000E+00  0.30000000000E+02  0.30000000000E+02  0.00000000000E+00 0.  1.
        -11   -1    0    0    0    0 -0.00000000000E+00 -0.00000000000E+00 -0.30000000000E+02  0.30000000000E+02  0.00000000000E+00 0. -1.
         23    2    1    2    0    0  0.00000000000E+00  0.00000000000E+00  0.00000000000E+00  0.60000000000E+02  0.60000000000E+02 0.  0.
          5    1    3    3  501    0 -0.29708962368E+01  0.21793831860E+02 -0.19852271114E+02  0.30000000000E+02  0.47000000000E+01 0. -1.
         -5    1    3    3    0  501  0.29708962368E+01 -0.21793831860E+02  0.19852271114E+02  0.30000000000E+02  0.47000000000E+01 0.  1.
</event>
<event>
 5    1  0.7693226E-002  0.6000000E+02  0.7546771E-02  0.1259629E+00
         11   -1    0    0    0    0  0.00000000000E+00  0.00000000000E+00  0.30000000000E+02  0.30000000000E+02  0.00000000000E+00 0. -1.
        -11   -1    0    0    0    0 -0.00000000000E+00 -0.00000000000E+00 -0.30000000000E+02  0.30000000000E+02  0.00000000000E+00 0.  1.
         23    2    1    2    0    0  0.00000000000E+00  0.00000000000E+00  0.00000000000E+00  0.60000000000E+02  0.60000000000E+02 0.  0.
          5    1    3    3  501    0 -0.42806352253E+01  0.28271654409E+02  0.77652893723E+01  0.30000000000E+02  0.47000000000E+01 0.  1.
         -5    1    3    3    0  501  0.42806352253E+01 -0.28271654409E+02 -0.77652893723E+01  0.30000000000E+02  0.47000000000E+01 0. -1.
</event>
<event>
 5    1  0.7693226E-002  0.6000000E+02  0.7546771E-02  0.1259629E+00
         11   -1    0    0    0    0  0.00000000000E+00  0.00000000000E+00  0.30000000000E+02  0.30000000000E+02  0.00000000000E+00 0.  1.
        -11   -1    0    0    0    0 -0.00000000000E+00 -0.00000000000E+00 -0.30000000000E+02  0.30000000000E+02  0.00000000000E+00 0. -1.
         23    2    1    2    0    0  0.00000000000E+00  0.00000000000E+00  0.00000000000E+00  0.60000000000E+02  0.60000000000E+02 0.  0.
          5    1    3    3  501    0 -0.64825169148E+01 -0.14158165610E+02 -0.25207802780E+02  0.30000000000E+02  0.47000000000E+01 0. -1.
         -5    1    3    3    0  501  0.64825169148E+01  0.14158165610E+02  0.25207802780E+02  0.30000000000E+02  0.47000000000E+01 0.  1.
</event>
<event>
 5    1  0.7693226E-002  0.6000000E+02  0.7546771E-02  0.1259629E+00
         11   -1    0    0    0    0  0.00000000000E+00  0.00000000000E+00  0.30000000000E+02  0.30000000000E+02  0.00000000000E+00 0. -1.
        -11   -1    0    0    0    0 -0.00000000000E+00 -0.00000000000E+00 -0.30000000000E+02  0.30000000000E+02  0.00000000000E+00 0.  1.
         23    2    1    2    0    0  0.00000000000E+00  0.00000000000E+00  0.00000000000E+00  0.60000000000E+02  0.60000000000E+02 0.  0.
          5    1    3    3  501    0  0.82180029259E+01 -0.10251791011E+02 -0.26557018074E+02  0.30000000000E+02  0.47000000000E+01 0.  1.
         -5    1    3    3    0  501 -0.82180029259E+01  0.10251791011E+02  0.26557018074E+02  0.30000000000E+02  0.47000000000E+01 0. -1.
</event>
<event>
 5    1  0.7693226E-002  0.6000000E+02  0.7546771E-02  0.1259629E+00
         11   -1    0    0    0    0  0.00000000000E+00  0.00000000000E+00  0.30000000000E+02  0.30000000000E+02  0.00000000000E+00 0.  1.
        -11   -1    0    0    0    0 -0.00000000000E+00 -0.00000000000E+00 -0.30000000000E+02  0.30000000000E+02  0.00000000000E+00 0. -1.
         23    2    1    2    0    0  0.00000000000E+00  0.00000000000E+00  0.00000000000E+00  0.60000000000E+02  0.60000000000E+02 0.  0.
          5    1    3    3  501    0  0.19790953978E+02  0.18484563989E+02  0.12022854684E+02  0.30000000000E+02  0.47000000000E+01 0.  1.
         -5    1    3    3    0  501 -0.19790953978E+02 -0.18484563989E+02 -0.12022854684E+02  0.30000000000E+02  0.47000000000E+01 0. -1.
</event>
<event>
 5    1  0.7693226E-002  0.6000000E+02  0.7546771E-02  0.1259629E+00
         11   -1    0    0    0    0  0.00000000000E+00  0.00000000000E+00  0.30000000000E+02  0.30000000000E+02  0.00000000000E+00 0.  1.
        -11   -1    0    0    0    0 -0.00000000000E+00 -0.00000000000E+00 -0.30000000000E+02  0.30000000000E+02  0.00000000000E+00 0. -1.
         23    2    1    2    0    0  0.00000000000E+00  0.00000000000E+00  0.00000000000E+00  0.60000000000E+02  0.60000000000E+02 0.  0.
          5    1    3    3  501    0  0.16846075867E+02  0.31507557260E+00 -0.24372534856E+02  0.30000000000E+02  0.47000000000E+01 0. -1.
         -5    1    3    3    0  501 -0.16846075867E+02 -0.31507557260E+00  0.24372534856E+02  0.30000000000E+02  0.47000000000E+01 0.  1.
</event>
<event>
 5    1  0.7693226E-002  0.6000000E+02  0.7546771E-02  0.1259629E+00
         11   -1    0    0    0    0  0.00000000000E+00  0.00000000000E+00  0.30000000000E+02  0.30000000000E+02  0.00000000000E+00 0. -1.
        -11   -1    0    0    0    0 -0.00000000000E+00 -0.00000000000E+00 -0.30000000000E+02  0.30000000000E+02  0.00000000000E+00 0.  1.
         23    2    1    2    0    0  0.00000000000E+00  0.00000000000E+00  0.00000000000E+00  0.60000000000E+02  0.60000000000E+02 0.  0.
          5    1    3    3  501    0 -0.20991874262E+02  0.97400922245E+01 -0.18503562317E+02  0.30000000000E+02  0.47000000000E+01 0.  1.
         -5    1    3    3    0  501  0.20991874262E+02 -0.97400922245E+01  0.18503562317E+02  0.30000000000E+02  0.47000000000E+01 0. -1.
</event>
<event>
 5    1  0.7693226E-002  0.6000000E+02  0.7546771E-02  0.1259629E+00
         11   -1    0    0    0    0  0.00000000000E+00  0.00000000000E+00  0.30000000000E+02  0.30000000000E+02  0.00000000000E+00 0.  1.
        -11   -1    0    0    0    0 -0.00000000000E+00 -0.00000000000E+00 -0.30000000000E+02  0.30000000000E+02  0.00000000000E+00 0. -1.
         23    2    1    2    0    0  0.00000000000E+00  0.00000000000E+00  0.00000000000E+00  0.60000000000E+02  0.60000000000E+02 0.  0.
          5    1    3    3  501    0 -0.18607768582E+02 -0.20408266710E+02 -0.10731430393E+02  0.30000000000E+02  0.47000000000E+01 0. -1.
         -5    1    3    3    0  501  0.18607768582E+02  0.20408266710E+02  0.10731430393E+02  0.30000000000E+02  0.47000000000E+01 0.  1.
</event>
<event>
 5    1  0.7693226E-002  0.6000000E+02  0.7546771E-02  0.1259629E+00
         11   -1    0    0    0    0  0.00000000000E+00  0.00000000000E+00  0.30000000000E+02  0.30000000000E+02  0.00000000000E+00 0.  1.
        -11   -1    0    0    0    0 -0.00000000000E+00 -0.00000000000E+00 -0.30000000000E+02  0.30000000000E+02  0.00000000000E+00 0. -1.
         23    2    1    2    0    0  0.00000000000E+00  0.00000000000E+00  0.00000000000E+00  0.60000000000E+02  0.60000000000E+02 0.  0.
          5    1    3    3  501    0 -0.19936702277E+02 -0.75241062996E+00 -0.21905975910E+02  0.30000000000E+02  0.47000000000E+01 0. -1.
         -5    1    3    3    0  501  0.19936702277E+02  0.75241062996E+00  0.21905975910E+02  0.30000000000E+02  0.47000000000E+01 0.  1.
</event>
<event>
 5    1  0.7693226E-002  0.6000000E+02  0.7546771E-02  0.1259629E+00
         11   -1    0    0    0    0  0.00000000000E+00  0.00000000000E+00  0.30000000000E+02  0.30000000000E+02  0.00000000000E+00 0.  1.
        -11   -1    0    0    0    0 -0.00000000000E+00 -0.00000000000E+00 -0.30000000000E+02  0.30000000000E+02  0.00000000000E+00 0. -1.
         23    2    1    2    0    0  0.00000000000E+00  0.00000000000E+00  0.00000000000E+00  0.60000000000E+02  0.60000000000E+02 0.  0.
          5    1    3    3  501    0  0.17740939292E+02 -0.11189550079E+02 -0.20927566559E+02  0.30000000000E+02  0.47000000000E+01 0. -1.
         -5    1    3    3    0  501 -0.17740939292E+02  0.11189550079E+02  0.20927566559E+02  0.30000000000E+02  0.47000000000E+01 0.  1.
</event>
<event>
 5    1  0.7693226E-002  0.6000000E+02  0.7546771E-02  0.1259629E+00
         11   -1    0    0    0    0  0.00000000000E+00  0.00000000000E+00  0.30000000000E+02  0.30000000000E+02  0.00000000000E+00 0.  1.
        -11   -1    0    0    0    0 -0.00000000000E+00 -0.00000000000E+00 -0.30000000000E+02  0.30000000000E+02  0.00000000000E+00 0. -1.
         23    2    1    2    0    0  0.00000000000E+00  0.00000000000E+00  0.00000000000E+00  0.60000000000E+02  0.60000000000E+02 0.  0.
          5    1    3    3  501    0 -0.66988425501E+01  0.28699911025E+02  0.30578776367E+01  0.30000000000E+02  0.47000000000E+01 0. -1.
         -5    1    3    3    0  501  0.66988425501E+01 -0.28699911025E+02 -0.30578776367E+01  0.30000000000E+02  0.47000000000E+01 0.  1.
</event>
<event>
 5    1  0.7693226E-002  0.6000000E+02  0.7546771E-02  0.1259629E+00
         11   -1    0    0    0    0  0.00000000000E+00  0.00000000000E+00  0.30000000000E+02  0.30000000000E+02  0.00000000000E+00 0.  1.
        -11   -1    0    0    0    0 -0.00000000000E+00 -0.00000000000E+00 -0.30000000000E+02  0.30000000000E+02  0.00000000000E+00 0. -1.
         23    2    1    2    0    0  0.00000000000E+00  0.00000000000E+00  0.00000000000E+00  0.60000000000E+02  0.60000000000E+02 0.  0.
          5    1    3    3  501    0  0.13819090779E+02 -0.19215700802E+02 -0.17824128947E+02  0.30000000000E+02  0.47000000000E+01 0. -1.
         -5    1    3    3    0  501 -0.13819090779E+02  0.19215700802E+02  0.17824128947E+02  0.30000000000E+02  0.47000000000E+01 0.  1.
</event>
<event>
 5    1  0.7693226E-002  0.6000000E+02  0.7546771E-02  0.1259629E+00
         11   -1    0    0    0    0  0.00000000000E+00  0.00000000000E+00  0.30000000000E+02  0.30000000000E+02  0.00000000000E+00 0.  1.
        -11   -1    0    0    0    0 -0.00000000000E+00 -0.00000000000E+00 -0.30000000000E+02  0.30000000000E+02  0.00000000000E+00 0. -1.
         23    2    1    2    0    0  0.00000000000E+00  0.00000000000E+00  0.00000000000E+00  0.60000000000E+02  0.60000000000E+02 0.  0.
          5    1    3    3  501    0 -0.62967914076E+01 -0.85084553305E+01 -0.27674295038E+02  0.30000000000E+02  0.47000000000E+01 0. -1.
         -5    1    3    3    0  501  0.62967914076E+01  0.85084553305E+01  0.27674295038E+02  0.30000000000E+02  0.47000000000E+01 0.  1.
</event>
<event>
 5    1  0.7693226E-002  0.6000000E+02  0.7546771E-02  0.1259629E+00
         11   -1    0    0    0    0  0.00000000000E+00  0.00000000000E+00  0.30000000000E+02  0.30000000000E+02  0.00000000000E+00 0.  1.
        -11   -1    0    0    0    0 -0.00000000000E+00 -0.00000000000E+00 -0.30000000000E+02  0.30000000000E+02  0.00000000000E+00 0. -1.
         23    2    1    2    0    0  0.00000000000E+00  0.00000000000E+00  0.00000000000E+00  0.60000000000E+02  0.60000000000E+02 0.  0.
          5    1    3    3  501    0 -0.11910782880E+02  0.12441646141E+02 -0.24109099786E+02  0.30000000000E+02  0.47000000000E+01 0. -1.
         -5    1    3    3    0  501  0.11910782880E+02 -0.12441646141E+02  0.24109099786E+02  0.30000000000E+02  0.47000000000E+01 0.  1.
</event>
<event>
 5    1  0.7693226E-002  0.6000000E+02  0.7546771E-02  0.1259629E+00
         11   -1    0    0    0    0  0.00000000000E+00  0.00000000000E+00  0.30000000000E+02  0.30000000000E+02  0.00000000000E+00 0.  1.
        -11   -1    0    0    0    0 -0.00000000000E+00 -0.00000000000E+00 -0.30000000000E+02  0.30000000000E+02  0.00000000000E+00 0. -1.
         23    2    1    2    0    0  0.00000000000E+00  0.00000000000E+00  0.00000000000E+00  0.60000000000E+02  0.60000000000E+02 0.  0.
          5    1    3    3  501    0 -0.97248134578E+01  0.27460177663E+01 -0.27853139673E+02  0.30000000000E+02  0.47000000000E+01 0. -1.
         -5    1    3    3    0  501  0.97248134578E+01 -0.27460177663E+01  0.27853139673E+02  0.30000000000E+02  0.47000000000E+01 0.  1.
</event>
<event>
 5    1  0.7693226E-002  0.6000000E+02  0.7546771E-02  0.1259629E+00
         11   -1    0    0    0    0  0.00000000000E+00  0.00000000000E+00  0.30000000000E+02  0.30000000000E+02  0.00000000000E+00 0. -1.
        -11   -1    0    0    0    0 -0.00000000000E+00 -0.00000000000E+00 -0.30000000000E+02  0.30000000000E+02  0.00000000000E+00 0.  1.
         23    2    1    2    0    0  0.00000000000E+00  0.00000000000E+00  0.00000000000E+00  0.60000000000E+02  0.60000000000E+02 0.  0.
          5    1    3    3  501    0  0.25573464183E+02  0.14627141524E+02  0.31551007108E+01  0.30000000000E+02  0.47000000000E+01 0. -1.
         -5    1    3    3    0  501 -0.25573464183E+02 -0.14627141524E+02 -0.31551007108E+01  0.30000000000E+02  0.47000000000E+01 0.  1.
</event>
<event>
 5    1  0.7693226E-002  0.6000000E+02  0.7546771E-02  0.1259629E+00
         11   -1    0    0    0    0  0.00000000000E+00  0.00000000000E+00  0.30000000000E+02  0.30000000000E+02  0.00000000000E+00 0.  1.
        -11   -1    0    0    0    0 -0.00000000000E+00 -0.00000000000E+00 -0.30000000000E+02  0.30000000000E+02  0.00000000000E+00 0. -1.
         23    2    1    2    0    0  0.00000000000E+00  0.00000000000E+00  0.00000000000E+00  0.60000000000E+02  0.60000000000E+02 0.  0.
          5    1    3    3  501    0 -0.25898831593E+02  0.88087510666E-01 -0.14392802462E+02  0.30000000000E+02  0.47000000000E+01 0. -1.
         -5    1    3    3    0  501  0.25898831593E+02 -0.88087510666E-01  0.14392802462E+02  0.30000000000E+02  0.47000000000E+01 0.  1.
</event>
<event>
 5    1  0.7693226E-002  0.6000000E+02  0.7546771E-02  0.1259629E+00
         11   -1    0    0    0    0  0.00000000000E+00  0.00000000000E+00  0.30000000000E+02  0.30000000000E+02  0.00000000000E+00 0. -1.
        -11   -1    0    0    0    0 -0.00000000000E+00 -0.00000000000E+00 -0.30000000000E+02  0.30000000000E+02  0.00000000000E+00 0.  1.
         23    2    1    2    0    0  0.00000000000E+00  0.00000000000E+00  0.00000000000E+00  0.60000000000E+02  0.60000000000E+02 0.  0.
          5    1    3    3  501    0 -0.63883234924E+00  0.20837821010E+02 -0.21054384550E+02  0.30000000000E+02  0.47000000000E+01 0.  1.
         -5    1    3    3    0  501  0.63883234924E+00 -0.20837821010E+02  0.21054384550E+02  0.30000000000E+02  0.47000000000E+01 0. -1.
</event>
<event>
 5    1  0.7693226E-002  0.6000000E+02  0.7546771E-02  0.1259629E+00
         11   -1    0    0    0    0  0.00000000000E+00  0.00000000000E+00  0.30000000000E+02  0.30000000000E+02  0.00000000000E+00 0.  1.
        -11   -1    0    0    0    0 -0.00000000000E+00 -0.00000000000E+00 -0.30000000000E+02  0.30000000000E+02  0.00000000000E+00 0. -1.
         23    2    1    2    0    0  0.00000000000E+00  0.00000000000E+00  0.00000000000E+00  0.60000000000E+02  0.60000000000E+02 0.  0.
          5    1    3    3  501    0 -0.10100275562E+02  0.26298565646E+02 -0.91804073181E+01  0.30000000000E+02  0.47000000000E+01 0. -1.
         -5    1    3    3    0  501  0.10100275562E+02 -0.26298565646E+02  0.91804073181E+01  0.30000000000E+02  0.47000000000E+01 0.  1.
</event>
<event>
 5    1  0.7693226E-002  0.6000000E+02  0.7546771E-02  0.1259629E+00
         11   -1    0    0    0    0  0.00000000000E+00  0.00000000000E+00  0.30000000000E+02  0.30000000000E+02  0.00000000000E+00 0.  1.
        -11   -1    0    0    0    0 -0.00000000000E+00 -0.00000000000E+00 -0.30000000000E+02  0.30000000000E+02  0.00000000000E+00 0. -1.
         23    2    1    2    0    0  0.00000000000E+00  0.00000000000E+00  0.00000000000E+00  0.60000000000E+02  0.60000000000E+02 0.  0.
          5    1    3    3  501    0  0.69126990176E+01  0.16825832987E+02 -0.23388371824E+02  0.30000000000E+02  0.47000000000E+01 0. -1.
         -5    1    3    3    0  501 -0.69126990176E+01 -0.16825832987E+02  0.23388371824E+02  0.30000000000E+02  0.47000000000E+01 0.  1.
</event>
<event>
 5    1  0.7693226E-002  0.6000000E+02  0.7546771E-02  0.1259629E+00
         11   -1    0    0    0    0  0.00000000000E+00  0.00000000000E+00  0.30000000000E+02  0.30000000000E+02  0.00000000000E+00 0.  1.
        -11   -1    0    0    0    0 -0.00000000000E+00 -0.00000000000E+00 -0.30000000000E+02  0.30000000000E+02  0.00000000000E+00 0. -1.
         23    2    1    2    0    0  0.00000000000E+00  0.00000000000E+00  0.00000000000E+00  0.60000000000E+02  0.60000000000E+02 0.  0.
          5    1    3    3  501    0 -0.28455142362E+02  0.42770477647E+01 -0.70655315138E+01  0.30000000000E+02  0.47000000000E+01 0. -1.
         -5    1    3    3    0  501  0.28455142362E+02 -0.42770477647E+01  0.70655315138E+01  0.30000000000E+02  0.47000000000E+01 0.  1.
</event>
<event>
 5    1  0.7693226E-002  0.6000000E+02  0.7546771E-02  0.1259629E+00
         11   -1    0    0    0    0  0.00000000000E+00  0.00000000000E+00  0.30000000000E+02  0.30000000000E+02  0.00000000000E+00 0.  1.
        -11   -1    0    0    0    0 -0.00000000000E+00 -0.00000000000E+00 -0.30000000000E+02  0.30000000000E+02  0.00000000000E+00 0. -1.
         23    2    1    2    0    0  0.00000000000E+00  0.00000000000E+00  0.00000000000E+00  0.60000000000E+02  0.60000000000E+02 0.  0.
          5    1    3    3  501    0 -0.72569561066E+01 -0.27966053383E+02 -0.65685954547E+01  0.30000000000E+02  0.47000000000E+01 0. -1.
         -5    1    3    3    0  501  0.72569561066E+01  0.27966053383E+02  0.65685954547E+01  0.30000000000E+02  0.47000000000E+01 0.  1.
</event>
<event>
 5    1  0.7693226E-002  0.6000000E+02  0.7546771E-02  0.1259629E+00
         11   -1    0    0    0    0  0.00000000000E+00  0.00000000000E+00  0.30000000000E+02  0.30000000000E+02  0.00000000000E+00 0.  1.
        -11   -1    0    0    0    0 -0.00000000000E+00 -0.00000000000E+00 -0.30000000000E+02  0.30000000000E+02  0.00000000000E+00 0. -1.
         23    2    1    2    0    0  0.00000000000E+00  0.00000000000E+00  0.00000000000E+00  0.60000000000E+02  0.60000000000E+02 0.  0.
          5    1    3    3  501    0 -0.82105275913E+01 -0.19325681184E+02 -0.20904910510E+02  0.30000000000E+02  0.47000000000E+01 0. -1.
         -5    1    3    3    0  501  0.82105275913E+01  0.19325681184E+02  0.20904910510E+02  0.30000000000E+02  0.47000000000E+01 0.  1.
</event>
<event>
 5    1  0.7693226E-002  0.6000000E+02  0.7546771E-02  0.1259629E+00
         11   -1    0    0    0    0  0.00000000000E+00  0.00000000000E+00  0.30000000000E+02  0.30000000000E+02  0.00000000000E+00 0.  1.
        -11   -1    0    0    0    0 -0.00000000000E+00 -0.00000000000E+00 -0.30000000000E+02  0.30000000000E+02  0.00000000000E+00 0. -1.
         23    2    1    2    0    0  0.00000000000E+00  0.00000000000E+00  0.00000000000E+00  0.60000000000E+02  0.60000000000E+02 0.  0.
          5    1    3    3  501    0  0.11504418237E+01  0.21870770230E+02 -0.19956349695E+02  0.30000000000E+02  0.47000000000E+01 0. -1.
         -5    1    3    3    0  501 -0.11504418237E+01 -0.21870770230E+02  0.19956349695E+02  0.30000000000E+02  0.47000000000E+01 0.  1.
</event>
<event>
 5    1  0.7693226E-002  0.6000000E+02  0.7546771E-02  0.1259629E+00
         11   -1    0    0    0    0  0.00000000000E+00  0.00000000000E+00  0.30000000000E+02  0.30000000000E+02  0.00000000000E+00 0.  1.
        -11   -1    0    0    0    0 -0.00000000000E+00 -0.00000000000E+00 -0.30000000000E+02  0.30000000000E+02  0.00000000000E+00 0. -1.
         23    2    1    2    0    0  0.00000000000E+00  0.00000000000E+00  0.00000000000E+00  0.60000000000E+02  0.60000000000E+02 0.  0.
          5    1    3    3  501    0 -0.72317583393E+01  0.81486901049E+01 -0.27553775075E+02  0.30000000000E+02  0.47000000000E+01 0. -1.
         -5    1    3    3    0  501  0.72317583393E+01 -0.81486901049E+01  0.27553775075E+02  0.30000000000E+02  0.47000000000E+01 0.  1.
</event>
<event>
 5    1  0.7693226E-002  0.6000000E+02  0.7546771E-02  0.1259629E+00
         11   -1    0    0    0    0  0.00000000000E+00  0.00000000000E+00  0.30000000000E+02  0.30000000000E+02  0.00000000000E+00 0.  1.
        -11   -1    0    0    0    0 -0.00000000000E+00 -0.00000000000E+00 -0.30000000000E+02  0.30000000000E+02  0.00000000000E+00 0. -1.
         23    2    1    2    0    0  0.00000000000E+00  0.00000000000E+00  0.00000000000E+00  0.60000000000E+02  0.60000000000E+02 0.  0.
          5    1    3    3  501    0 -0.27384087145E+02  0.97952005389E+01  0.56635516788E+01  0.30000000000E+02  0.47000000000E+01 0. -1.
         -5    1    3    3    0  501  0.27384087145E+02 -0.97952005389E+01 -0.56635516788E+01  0.30000000000E+02  0.47000000000E+01 0.  1.
</event>
<event>
 5    1  0.7693226E-002  0.6000000E+02  0.7546771E-02  0.1259629E+00
         11   -1    0    0    0    0  0.00000000000E+00  0.00000000000E+00  0.30000000000E+02  0.30000000000E+02  0.00000000000E+00 0. -1.
        -11   -1    0    0    0    0 -0.00000000000E+00 -0.00000000000E+00 -0.30000000000E+02  0.30000000000E+02  0.00000000000E+00 0.  1.
         23    2    1    2    0    0  0.00000000000E+00  0.00000000000E+00  0.00000000000E+00  0.60000000000E+02  0.60000000000E+02 0.  0.
          5    1    3    3  501    0  0.99653065906E+00  0.22320982085E+02 -0.19459976501E+02  0.30000000000E+02  0.47000000000E+01 0.  1.
         -5    1    3    3    0  501 -0.99653065906E+00 -0.22320982085E+02  0.19459976501E+02  0.30000000000E+02  0.47000000000E+01 0. -1.
</event>
<event>
 5    1  0.7693226E-002  0.6000000E+02  0.7546771E-02  0.1259629E+00
         11   -1    0    0    0    0  0.00000000000E+00  0.00000000000E+00  0.30000000000E+02  0.30000000000E+02  0.00000000000E+00 0.  1.
        -11   -1    0    0    0    0 -0.00000000000E+00 -0.00000000000E+00 -0.30000000000E+02  0.30000000000E+02  0.00000000000E+00 0. -1.
         23    2    1    2    0    0  0.00000000000E+00  0.00000000000E+00  0.00000000000E+00  0.60000000000E+02  0.60000000000E+02 0.  0.
          5    1    3    3  501    0 -0.26959574613E+02  0.92413836573E+01 -0.81048235496E+01  0.30000000000E+02  0.47000000000E+01 0. -1.
         -5    1    3    3    0  501  0.26959574613E+02 -0.92413836573E+01  0.81048235496E+01  0.30000000000E+02  0.47000000000E+01 0.  1.
</event>
<event>
 5    1  0.7693226E-002  0.6000000E+02  0.7546771E-02  0.1259629E+00
         11   -1    0    0    0    0  0.00000000000E+00  0.00000000000E+00  0.30000000000E+02  0.30000000000E+02  0.00000000000E+00 0.  1.
        -11   -1    0    0    0    0 -0.00000000000E+00 -0.00000000000E+00 -0.30000000000E+02  0.30000000000E+02  0.00000000000E+00 0. -1.
         23    2    1    2    0    0  0.00000000000E+00  0.00000000000E+00  0.00000000000E+00  0.60000000000E+02  0.60000000000E+02 0.  0.
          5    1    3    3  501    0  0.11503434088E+02  0.78980373571E+01 -0.26138133256E+02  0.30000000000E+02  0.47000000000E+01 0. -1.
         -5    1    3    3    0  501 -0.11503434088E+02 -0.78980373571E+01  0.26138133256E+02  0.30000000000E+02  0.47000000000E+01 0.  1.
</event>
<event>
 5    1  0.7693226E-002  0.6000000E+02  0.7546771E-02  0.1259629E+00
         11   -1    0    0    0    0  0.00000000000E+00  0.00000000000E+00  0.30000000000E+02  0.30000000000E+02  0.00000000000E+00 0.  1.
        -11   -1    0    0    0    0 -0.00000000000E+00 -0.00000000000E+00 -0.30000000000E+02  0.30000000000E+02  0.00000000000E+00 0. -1.
         23    2    1    2    0    0  0.00000000000E+00  0.00000000000E+00  0.00000000000E+00  0.60000000000E+02  0.60000000000E+02 0.  0.
          5    1    3    3  501    0 -0.87400519342E+01 -0.14811063647E+02 -0.24127865339E+02  0.30000000000E+02  0.47000000000E+01 0. -1.
         -5    1    3    3    0  501  0.87400519342E+01  0.14811063647E+02  0.24127865339E+02  0.30000000000E+02  0.47000000000E+01 0.  1.
</event>
<event>
 5    1  0.7693226E-002  0.6000000E+02  0.7546771E-02  0.1259629E+00
         11   -1    0    0    0    0  0.00000000000E+00  0.00000000000E+00  0.30000000000E+02  0.30000000000E+02  0.00000000000E+00 0.  1.
        -11   -1    0    0    0    0 -0.00000000000E+00 -0.00000000000E+00 -0.30000000000E+02  0.30000000000E+02  0.00000000000E+00 0. -1.
         23    2    1    2    0    0  0.00000000000E+00  0.00000000000E+00  0.00000000000E+00  0.60000000000E+02  0.60000000000E+02 0.  0.
          5    1    3    3  501    0 -0.22891805515E+02  0.75308201176E+01 -0.17238387065E+02  0.30000000000E+02  0.47000000000E+01 0. -1.
         -5    1    3    3    0  501  0.22891805515E+02 -0.75308201176E+01  0.17238387065E+02  0.30000000000E+02  0.47000000000E+01 0.  1.
</event>
<event>
 5    1  0.7693226E-002  0.6000000E+02  0.7546771E-02  0.1259629E+00
         11   -1    0    0    0    0  0.00000000000E+00  0.00000000000E+00  0.30000000000E+02  0.30000000000E+02  0.00000000000E+00 0.  1.
        -11   -1    0    0    0    0 -0.00000000000E+00 -0.00000000000E+00 -0.30000000000E+02  0.30000000000E+02  0.00000000000E+00 0. -1.
         23    2    1    2    0    0  0.00000000000E+00  0.00000000000E+00  0.00000000000E+00  0.60000000000E+02  0.60000000000E+02 0.  0.
          5    1    3    3  501    0 -0.28398995244E+02 -0.55383542793E+01 -0.63822959061E+01  0.30000000000E+02  0.47000000000E+01 0. -1.
         -5    1    3    3    0  501  0.28398995244E+02  0.55383542793E+01  0.63822959061E+01  0.30000000000E+02  0.47000000000E+01 0.  1.
</event>
<event>
 5    1  0.7693226E-002  0.6000000E+02  0.7546771E-02  0.1259629E+00
         11   -1    0    0    0    0  0.00000000000E+00  0.00000000000E+00  0.30000000000E+02  0.30000000000E+02  0.00000000000E+00 0. -1.
        -11   -1    0    0    0    0 -0.00000000000E+00 -0.00000000000E+00 -0.30000000000E+02  0.30000000000E+02  0.00000000000E+00 0.  1.
         23    2    1    2    0    0  0.00000000000E+00  0.00000000000E+00  0.00000000000E+00  0.60000000000E+02  0.60000000000E+02 0.  0.
          5    1    3    3  501    0  0.82721018676E+01  0.15919346700E+02 -0.23580855187E+02  0.30000000000E+02  0.47000000000E+01 0.  1.
         -5    1    3    3    0  501 -0.82721018676E+01 -0.15919346700E+02  0.23580855187E+02  0.30000000000E+02  0.47000000000E+01 0. -1.
</event>
<event>
 5    1  0.7693226E-002  0.6000000E+02  0.7546771E-02  0.1259629E+00
         11   -1    0    0    0    0  0.00000000000E+00  0.00000000000E+00  0.30000000000E+02  0.30000000000E+02  0.00000000000E+00 0.  1.
        -11   -1    0    0    0    0 -0.00000000000E+00 -0.00000000000E+00 -0.30000000000E+02  0.30000000000E+02  0.00000000000E+00 0. -1.
         23    2    1    2    0    0  0.00000000000E+00  0.00000000000E+00  0.00000000000E+00  0.60000000000E+02  0.60000000000E+02 0.  0.
          5    1    3    3  501    0 -0.18087516246E+02 -0.78966521966E+01 -0.22099652489E+02  0.30000000000E+02  0.47000000000E+01 0. -1.
         -5    1    3    3    0  501  0.18087516246E+02  0.78966521966E+01  0.22099652489E+02  0.30000000000E+02  0.47000000000E+01 0.  1.
</event>
<event>
 5    1  0.7693226E-002  0.6000000E+02  0.7546771E-02  0.1259629E+00
         11   -1    0    0    0    0  0.00000000000E+00  0.00000000000E+00  0.30000000000E+02  0.30000000000E+02  0.00000000000E+00 0.  1.
        -11   -1    0    0    0    0 -0.00000000000E+00 -0.00000000000E+00 -0.30000000000E+02  0.30000000000E+02  0.00000000000E+00 0. -1.
         23    2    1    2    0    0  0.00000000000E+00  0.00000000000E+00  0.00000000000E+00  0.60000000000E+02  0.60000000000E+02 0.  0.
          5    1    3    3  501    0 -0.22363154083E+02 -0.14122917582E+02 -0.13354495064E+02  0.30000000000E+02  0.47000000000E+01 0. -1.
         -5    1    3    3    0  501  0.22363154083E+02  0.14122917582E+02  0.13354495064E+02  0.30000000000E+02  0.47000000000E+01 0.  1.
</event>
<event>
 5    1  0.7693226E-002  0.6000000E+02  0.7546771E-02  0.1259629E+00
         11   -1    0    0    0    0  0.00000000000E+00  0.00000000000E+00  0.30000000000E+02  0.30000000000E+02  0.00000000000E+00 0.  1.
        -11   -1    0    0    0    0 -0.00000000000E+00 -0.00000000000E+00 -0.30000000000E+02  0.30000000000E+02  0.00000000000E+00 0. -1.
         23    2    1    2    0    0  0.00000000000E+00  0.00000000000E+00  0.00000000000E+00  0.60000000000E+02  0.60000000000E+02 0.  0.
          5    1    3    3  501    0  0.13723094177E+02 -0.20464516358E+02 -0.16455705894E+02  0.30000000000E+02  0.47000000000E+01 0. -1.
         -5    1    3    3    0  501 -0.13723094177E+02  0.20464516358E+02  0.16455705894E+02  0.30000000000E+02  0.47000000000E+01 0.  1.
</event>
<event>
 5    1  0.7693226E-002  0.6000000E+02  0.7546771E-02  0.1259629E+00
         11   -1    0    0    0    0  0.00000000000E+00  0.00000000000E+00  0.30000000000E+02  0.30000000000E+02  0.00000000000E+00 0.  1.
        -11   -1    0    0    0    0 -0.00000000000E+00 -0.00000000000E+00 -0.30000000000E+02  0.30000000000E+02  0.00000000000E+00 0. -1.
         23    2    1    2    0    0  0.00000000000E+00  0.00000000000E+00  0.00000000000E+00  0.60000000000E+02  0.60000000000E+02 0.  0.
          5    1    3    3  501    0  0.79351174552E+01  0.19106400507E+02 -0.21210595716E+02  0.30000000000E+02  0.47000000000E+01 0. -1.
         -5    1    3    3    0  501 -0.79351174552E+01 -0.19106400507E+02  0.21210595716E+02  0.30000000000E+02  0.47000000000E+01 0.  1.
</event>
<event>
 5    1  0.7693226E-002  0.6000000E+02  0.7546771E-02  0.1259629E+00
         11   -1    0    0    0    0  0.00000000000E+00  0.00000000000E+00  0.30000000000E+02  0.30000000000E+02  0.00000000000E+00 0. -1.
        -11   -1    0    0    0    0 -0.00000000000E+00 -0.00000000000E+00 -0.30000000000E+02  0.30000000000E+02  0.00000000000E+00 0.  1.
         23    2    1    2    0    0  0.00000000000E+00  0.00000000000E+00  0.00000000000E+00  0.60000000000E+02  0.60000000000E+02 0.  0.
          5    1    3    3  501    0  0.14508082459E+01 -0.85952901773E+01 -0.28318300482E+02  0.30000000000E+02  0.47000000000E+01 0.  1.
         -5    1    3    3    0  501 -0.14508082459E+01  0.85952901773E+01  0.28318300482E+02  0.30000000000E+02  0.47000000000E+01 0. -1.
</event>
<event>
 5    1  0.7693226E-002  0.6000000E+02  0.7546771E-02  0.1259629E+00
         11   -1    0    0    0    0  0.00000000000E+00  0.00000000000E+00  0.30000000000E+02  0.30000000000E+02  0.00000000000E+00 0. -1.
        -11   -1    0    0    0    0 -0.00000000000E+00 -0.00000000000E+00 -0.30000000000E+02  0.30000000000E+02  0.00000000000E+00 0.  1.
         23    2    1    2    0    0  0.00000000000E+00  0.00000000000E+00  0.00000000000E+00  0.60000000000E+02  0.60000000000E+02 0.  0.
          5    1    3    3  501    0 -0.30258242333E+01 -0.92615726090E+01 -0.27981737982E+02  0.30000000000E+02  0.47000000000E+01 0.  1.
         -5    1    3    3    0  501  0.30258242333E+01  0.92615726090E+01  0.27981737982E+02  0.30000000000E+02  0.47000000000E+01 0. -1.
</event>
<event>
 5    1  0.7693226E-002  0.6000000E+02  0.7546771E-02  0.1259629E+00
         11   -1    0    0    0    0  0.00000000000E+00  0.00000000000E+00  0.30000000000E+02  0.30000000000E+02  0.00000000000E+00 0. -1.
        -11   -1    0    0    0    0 -0.00000000000E+00 -0.00000000000E+00 -0.30000000000E+02  0.30000000000E+02  0.00000000000E+00 0.  1.
         23    2    1    2    0    0  0.00000000000E+00  0.00000000000E+00  0.00000000000E+00  0.60000000000E+02  0.60000000000E+02 0.  0.
          5    1    3    3  501    0  0.18220068849E+02 -0.23353425924E+02 -0.74604874934E+00  0.30000000000E+02  0.47000000000E+01 0.  1.
         -5    1    3    3    0  501 -0.18220068849E+02  0.23353425924E+02  0.74604874934E+00  0.30000000000E+02  0.47000000000E+01 0. -1.
</event>
<event>
 5    1  0.7693226E-002  0.6000000E+02  0.7546771E-02  0.1259629E+00
         11   -1    0    0    0    0  0.00000000000E+00  0.00000000000E+00  0.30000000000E+02  0.30000000000E+02  0.00000000000E+00 0.  1.
        -11   -1    0    0    0    0 -0.00000000000E+00 -0.00000000000E+00 -0.30000000000E+02  0.30000000000E+02  0.00000000000E+00 0. -1.
         23    2    1    2    0    0  0.00000000000E+00  0.00000000000E+00  0.00000000000E+00  0.60000000000E+02  0.60000000000E+02 0.  0.
          5    1    3    3  501    0 -0.11856643880E+02  0.12218177992E+02  0.24249662316E+02  0.30000000000E+02  0.47000000000E+01 0.  1.
         -5    1    3    3    0  501  0.11856643880E+02 -0.12218177992E+02 -0.24249662316E+02  0.30000000000E+02  0.47000000000E+01 0. -1.
</event>
<event>
 5    1  0.7693226E-002  0.6000000E+02  0.7546771E-02  0.1259629E+00
         11   -1    0    0    0    0  0.00000000000E+00  0.00000000000E+00  0.30000000000E+02  0.30000000000E+02  0.00000000000E+00 0.  1.
        -11   -1    0    0    0    0 -0.00000000000E+00 -0.00000000000E+00 -0.30000000000E+02  0.30000000000E+02  0.00000000000E+00 0. -1.
         23    2    1    2    0    0  0.00000000000E+00  0.00000000000E+00  0.00000000000E+00  0.60000000000E+02  0.60000000000E+02 0.  0.
          5    1    3    3  501    0 -0.49247143569E+01  0.10172670979E+02 -0.27389303636E+02  0.30000000000E+02  0.47000000000E+01 0. -1.
         -5    1    3    3    0  501  0.49247143569E+01 -0.10172670979E+02  0.27389303636E+02  0.30000000000E+02  0.47000000000E+01 0.  1.
</event>
<event>
 5    1  0.7693226E-002  0.6000000E+02  0.7546771E-02  0.1259629E+00
         11   -1    0    0    0    0  0.00000000000E+00  0.00000000000E+00  0.30000000000E+02  0.30000000000E+02  0.00000000000E+00 0.  1.
        -11   -1    0    0    0    0 -0.00000000000E+00 -0.00000000000E+00 -0.30000000000E+02  0.30000000000E+02  0.00000000000E+00 0. -1.
         23    2    1    2    0    0  0.00000000000E+00  0.00000000000E+00  0.00000000000E+00  0.60000000000E+02  0.60000000000E+02 0.  0.
          5    1    3    3  501    0 -0.24459863623E+02 -0.16713200197E+02 -0.54222758572E+00  0.30000000000E+02  0.47000000000E+01 0. -1.
         -5    1    3    3    0  501  0.24459863623E+02  0.16713200197E+02  0.54222758572E+00  0.30000000000E+02  0.47000000000E+01 0.  1.
</event>
<event>
 5    1  0.7693226E-002  0.6000000E+02  0.7546771E-02  0.1259629E+00
         11   -1    0    0    0    0  0.00000000000E+00  0.00000000000E+00  0.30000000000E+02  0.30000000000E+02  0.00000000000E+00 0.  1.
        -11   -1    0    0    0    0 -0.00000000000E+00 -0.00000000000E+00 -0.30000000000E+02  0.30000000000E+02  0.00000000000E+00 0. -1.
         23    2    1    2    0    0  0.00000000000E+00  0.00000000000E+00  0.00000000000E+00  0.60000000000E+02  0.60000000000E+02 0.  0.
          5    1    3    3  501    0  0.15760042187E+02  0.19744089154E+02 -0.15482312932E+02  0.30000000000E+02  0.47000000000E+01 0. -1.
         -5    1    3    3    0  501 -0.15760042187E+02 -0.19744089154E+02  0.15482312932E+02  0.30000000000E+02  0.47000000000E+01 0.  1.
</event>
<event>
 5    1  0.7693226E-002  0.6000000E+02  0.7546771E-02  0.1259629E+00
         11   -1    0    0    0    0  0.00000000000E+00  0.00000000000E+00  0.30000000000E+02  0.30000000000E+02  0.00000000000E+00 0.  1.
        -11   -1    0    0    0    0 -0.00000000000E+00 -0.00000000000E+00 -0.30000000000E+02  0.30000000000E+02  0.00000000000E+00 0. -1.
         23    2    1    2    0    0  0.00000000000E+00  0.00000000000E+00  0.00000000000E+00  0.60000000000E+02  0.60000000000E+02 0.  0.
          5    1    3    3  501    0 -0.25299785117E+02  0.86496219801E+01 -0.12767729346E+02  0.30000000000E+02  0.47000000000E+01 0. -1.
         -5    1    3    3    0  501  0.25299785117E+02 -0.86496219801E+01  0.12767729346E+02  0.30000000000E+02  0.47000000000E+01 0.  1.
</event>
<event>
 5    1  0.7693226E-002  0.6000000E+02  0.7546771E-02  0.1259629E+00
         11   -1    0    0    0    0  0.00000000000E+00  0.00000000000E+00  0.30000000000E+02  0.30000000000E+02  0.00000000000E+00 0. -1.
        -11   -1    0    0    0    0 -0.00000000000E+00 -0.00000000000E+00 -0.30000000000E+02  0.30000000000E+02  0.00000000000E+00 0.  1.
         23    2    1    2    0    0  0.00000000000E+00  0.00000000000E+00  0.00000000000E+00  0.60000000000E+02  0.60000000000E+02 0.  0.
          5    1    3    3  501    0  0.13846145818E+02 -0.19280139926E+02 -0.17733314704E+02  0.30000000000E+02  0.47000000000E+01 0.  1.
         -5    1    3    3    0  501 -0.13846145818E+02  0.19280139926E+02  0.17733314704E+02  0.30000000000E+02  0.47000000000E+01 0. -1.
</event>
<event>
 5    1  0.7693226E-002  0.6000000E+02  0.7546771E-02  0.1259629E+00
         11   -1    0    0    0    0  0.00000000000E+00  0.00000000000E+00  0.30000000000E+02  0.30000000000E+02  0.00000000000E+00 0.  1.
        -11   -1    0    0    0    0 -0.00000000000E+00 -0.00000000000E+00 -0.30000000000E+02  0.30000000000E+02  0.00000000000E+00 0. -1.
         23    2    1    2    0    0  0.00000000000E+00  0.00000000000E+00  0.00000000000E+00  0.60000000000E+02  0.60000000000E+02 0.  0.
          5    1    3    3  501    0  0.50378807485E+01  0.96258962302E+01 -0.27565773694E+02  0.30000000000E+02  0.47000000000E+01 0. -1.
         -5    1    3    3    0  501 -0.50378807485E+01 -0.96258962302E+01  0.27565773694E+02  0.30000000000E+02  0.47000000000E+01 0.  1.
</event>
<event>
 5    1  0.7693226E-002  0.6000000E+02  0.7546771E-02  0.1259629E+00
         11   -1    0    0    0    0  0.00000000000E+00  0.00000000000E+00  0.30000000000E+02  0.30000000000E+02  0.00000000000E+00 0.  1.
        -11   -1    0    0    0    0 -0.00000000000E+00 -0.00000000000E+00 -0.30000000000E+02  0.30000000000E+02  0.00000000000E+00 0. -1.
         23    2    1    2    0    0  0.00000000000E+00  0.00000000000E+00  0.00000000000E+00  0.60000000000E+02  0.60000000000E+02 0.  0.
          5    1    3    3  501    0 -0.81655049334E+01  0.60805094799E+01 -0.27825562594E+02  0.30000000000E+02  0.47000000000E+01 0. -1.
         -5    1    3    3    0  501  0.81655049334E+01 -0.60805094799E+01  0.27825562594E+02  0.30000000000E+02  0.47000000000E+01 0.  1.
</event>
<event>
 5    1  0.7693226E-002  0.6000000E+02  0.7546771E-02  0.1259629E+00
         11   -1    0    0    0    0  0.00000000000E+00  0.00000000000E+00  0.30000000000E+02  0.30000000000E+02  0.00000000000E+00 0.  1.
        -11   -1    0    0    0    0 -0.00000000000E+00 -0.00000000000E+00 -0.30000000000E+02  0.30000000000E+02  0.00000000000E+00 0. -1.
         23    2    1    2    0    0  0.00000000000E+00  0.00000000000E+00  0.00000000000E+00  0.60000000000E+02  0.60000000000E+02 0.  0.
          5    1    3    3  501    0 -0.25243002258E+02 -0.15200457996E+02  0.31059481127E+01  0.30000000000E+02  0.47000000000E+01 0. -1.
         -5    1    3    3    0  501  0.25243002258E+02  0.15200457996E+02 -0.31059481127E+01  0.30000000000E+02  0.47000000000E+01 0.  1.
</event>
<event>
 5    1  0.7693226E-002  0.6000000E+02  0.7546771E-02  0.1259629E+00
         11   -1    0    0    0    0  0.00000000000E+00  0.00000000000E+00  0.30000000000E+02  0.30000000000E+02  0.00000000000E+00 0.  1.
        -11   -1    0    0    0    0 -0.00000000000E+00 -0.00000000000E+00 -0.30000000000E+02  0.30000000000E+02  0.00000000000E+00 0. -1.
         23    2    1    2    0    0  0.00000000000E+00  0.00000000000E+00  0.00000000000E+00  0.60000000000E+02  0.60000000000E+02 0.  0.
          5    1    3    3  501    0  0.35073217001E+01  0.61599230635E+00 -0.29414779414E+02  0.30000000000E+02  0.47000000000E+01 0. -1.
         -5    1    3    3    0  501 -0.35073217001E+01 -0.61599230635E+00  0.29414779414E+02  0.30000000000E+02  0.47000000000E+01 0.  1.
</event>
<event>
 5    1  0.7693226E-002  0.6000000E+02  0.7546771E-02  0.1259629E+00
         11   -1    0    0    0    0  0.00000000000E+00  0.00000000000E+00  0.30000000000E+02  0.30000000000E+02  0.00000000000E+00 0.  1.
        -11   -1    0    0    0    0 -0.00000000000E+00 -0.00000000000E+00 -0.30000000000E+02  0.30000000000E+02  0.00000000000E+00 0. -1.
         23    2    1    2    0    0  0.00000000000E+00  0.00000000000E+00  0.00000000000E+00  0.60000000000E+02  0.60000000000E+02 0.  0.
          5    1    3    3  501    0 -0.11032540367E+01 -0.39023200889E+01 -0.29350719386E+02  0.30000000000E+02  0.47000000000E+01 0. -1.
         -5    1    3    3    0  501  0.11032540367E+01  0.39023200889E+01  0.29350719386E+02  0.30000000000E+02  0.47000000000E+01 0.  1.
</event>
<event>
 5    1  0.7693226E-002  0.6000000E+02  0.7546771E-02  0.1259629E+00
         11   -1    0    0    0    0  0.00000000000E+00  0.00000000000E+00  0.30000000000E+02  0.30000000000E+02  0.00000000000E+00 0.  1.
        -11   -1    0    0    0    0 -0.00000000000E+00 -0.00000000000E+00 -0.30000000000E+02  0.30000000000E+02  0.00000000000E+00 0. -1.
         23    2    1    2    0    0  0.00000000000E+00  0.00000000000E+00  0.00000000000E+00  0.60000000000E+02  0.60000000000E+02 0.  0.
          5    1    3    3  501    0  0.79763381425E+01 -0.28399282577E+02 -0.27872529391E+01  0.30000000000E+02  0.47000000000E+01 0. -1.
         -5    1    3    3    0  501 -0.79763381425E+01  0.28399282577E+02  0.27872529391E+01  0.30000000000E+02  0.47000000000E+01 0.  1.
</event>
<event>
 5    1  0.7693226E-002  0.6000000E+02  0.7546771E-02  0.1259629E+00
         11   -1    0    0    0    0  0.00000000000E+00  0.00000000000E+00  0.30000000000E+02  0.30000000000E+02  0.00000000000E+00 0. -1.
        -11   -1    0    0    0    0 -0.00000000000E+00 -0.00000000000E+00 -0.30000000000E+02  0.30000000000E+02  0.00000000000E+00 0.  1.
         23    2    1    2    0    0  0.00000000000E+00  0.00000000000E+00  0.00000000000E+00  0.60000000000E+02  0.60000000000E+02 0.  0.
          5    1    3    3  501    0  0.12214518652E+02 -0.25200717308E+02 -0.96767443530E+01  0.30000000000E+02  0.47000000000E+01 0.  1.
         -5    1    3    3    0  501 -0.12214518652E+02  0.25200717308E+02  0.96767443530E+01  0.30000000000E+02  0.47000000000E+01 0. -1.
</event>
<event>
 5    1  0.7693226E-002  0.6000000E+02  0.7546771E-02  0.1259629E+00
         11   -1    0    0    0    0  0.00000000000E+00  0.00000000000E+00  0.30000000000E+02  0.30000000000E+02  0.00000000000E+00 0. -1.
        -11   -1    0    0    0    0 -0.00000000000E+00 -0.00000000000E+00 -0.30000000000E+02  0.30000000000E+02  0.00000000000E+00 0.  1.
         23    2    1    2    0    0  0.00000000000E+00  0.00000000000E+00  0.00000000000E+00  0.60000000000E+02  0.60000000000E+02 0.  0.
          5    1    3    3  501    0  0.64768360429E+01 -0.10169231494E+02 -0.27065611497E+02  0.30000000000E+02  0.47000000000E+01 0.  1.
         -5    1    3    3    0  501 -0.64768360429E+01  0.10169231494E+02  0.27065611497E+02  0.30000000000E+02  0.47000000000E+01 0. -1.
</event>
<event>
 5    1  0.7693226E-002  0.6000000E+02  0.7546771E-02  0.1259629E+00
         11   -1    0    0    0    0  0.00000000000E+00  0.00000000000E+00  0.30000000000E+02  0.30000000000E+02  0.00000000000E+00 0. -1.
        -11   -1    0    0    0    0 -0.00000000000E+00 -0.00000000000E+00 -0.30000000000E+02  0.30000000000E+02  0.00000000000E+00 0.  1.
         23    2    1    2    0    0  0.00000000000E+00  0.00000000000E+00  0.00000000000E+00  0.60000000000E+02  0.60000000000E+02 0.  0.
          5    1    3    3  501    0  0.22915586305E+02  0.61471263865E+01 -0.17748203894E+02  0.30000000000E+02  0.47000000000E+01 0.  1.
         -5    1    3    3    0  501 -0.22915586305E+02 -0.61471263865E+01  0.17748203894E+02  0.30000000000E+02  0.47000000000E+01 0. -1.
</event>
<event>
 5    1  0.7693226E-002  0.6000000E+02  0.7546771E-02  0.1259629E+00
         11   -1    0    0    0    0  0.00000000000E+00  0.00000000000E+00  0.30000000000E+02  0.30000000000E+02  0.00000000000E+00 0.  1.
        -11   -1    0    0    0    0 -0.00000000000E+00 -0.00000000000E+00 -0.30000000000E+02  0.30000000000E+02  0.00000000000E+00 0. -1.
         23    2    1    2    0    0  0.00000000000E+00  0.00000000000E+00  0.00000000000E+00  0.60000000000E+02  0.60000000000E+02 0.  0.
          5    1    3    3  501    0 -0.28691462638E+02 -0.21170306723E+00 -0.73935886766E+01  0.30000000000E+02  0.47000000000E+01 0. -1.
         -5    1    3    3    0  501  0.28691462638E+02  0.21170306723E+00  0.73935886766E+01  0.30000000000E+02  0.47000000000E+01 0.  1.
</event>
<event>
 5    1  0.7693226E-002  0.6000000E+02  0.7546771E-02  0.1259629E+00
         11   -1    0    0    0    0  0.00000000000E+00  0.00000000000E+00  0.30000000000E+02  0.30000000000E+02  0.00000000000E+00 0.  1.
        -11   -1    0    0    0    0 -0.00000000000E+00 -0.00000000000E+00 -0.30000000000E+02  0.30000000000E+02  0.00000000000E+00 0. -1.
         23    2    1    2    0    0  0.00000000000E+00  0.00000000000E+00  0.00000000000E+00  0.60000000000E+02  0.60000000000E+02 0.  0.
          5    1    3    3  501    0 -0.17745495724E+02 -0.80091860062E+01 -0.22335181240E+02  0.30000000000E+02  0.47000000000E+01 0. -1.
         -5    1    3    3    0  501  0.17745495724E+02  0.80091860062E+01  0.22335181240E+02  0.30000000000E+02  0.47000000000E+01 0.  1.
</event>
<event>
 5    1  0.7693226E-002  0.6000000E+02  0.7546771E-02  0.1259629E+00
         11   -1    0    0    0    0  0.00000000000E+00  0.00000000000E+00  0.30000000000E+02  0.30000000000E+02  0.00000000000E+00 0.  1.
        -11   -1    0    0    0    0 -0.00000000000E+00 -0.00000000000E+00 -0.30000000000E+02  0.30000000000E+02  0.00000000000E+00 0. -1.
         23    2    1    2    0    0  0.00000000000E+00  0.00000000000E+00  0.00000000000E+00  0.60000000000E+02  0.60000000000E+02 0.  0.
          5    1    3    3  501    0  0.13619977229E+02 -0.21006811050E+02 -0.15846769696E+02  0.30000000000E+02  0.47000000000E+01 0. -1.
         -5    1    3    3    0  501 -0.13619977229E+02  0.21006811050E+02  0.15846769696E+02  0.30000000000E+02  0.47000000000E+01 0.  1.
</event>
<event>
 5    1  0.7693226E-002  0.6000000E+02  0.7546771E-02  0.1259629E+00
         11   -1    0    0    0    0  0.00000000000E+00  0.00000000000E+00  0.30000000000E+02  0.30000000000E+02  0.00000000000E+00 0.  1.
        -11   -1    0    0    0    0 -0.00000000000E+00 -0.00000000000E+00 -0.30000000000E+02  0.30000000000E+02  0.00000000000E+00 0. -1.
         23    2    1    2    0    0  0.00000000000E+00  0.00000000000E+00  0.00000000000E+00  0.60000000000E+02  0.60000000000E+02 0.  0.
          5    1    3    3  501    0 -0.29075275784E+02  0.16085765348E+01 -0.54727341987E+01  0.30000000000E+02  0.47000000000E+01 0. -1.
         -5    1    3    3    0  501  0.29075275784E+02 -0.16085765348E+01  0.54727341987E+01  0.30000000000E+02  0.47000000000E+01 0.  1.
</event>
<event>
 5    1  0.7693226E-002  0.6000000E+02  0.7546771E-02  0.1259629E+00
         11   -1    0    0    0    0  0.00000000000E+00  0.00000000000E+00  0.30000000000E+02  0.30000000000E+02  0.00000000000E+00 0. -1.
        -11   -1    0    0    0    0 -0.00000000000E+00 -0.00000000000E+00 -0.30000000000E+02  0.30000000000E+02  0.00000000000E+00 0.  1.
         23    2    1    2    0    0  0.00000000000E+00  0.00000000000E+00  0.00000000000E+00  0.60000000000E+02  0.60000000000E+02 0.  0.
          5    1    3    3  501    0  0.25070853168E+02 -0.11410224124E+02 -0.10916460363E+02  0.30000000000E+02  0.47000000000E+01 0.  1.
         -5    1    3    3    0  501 -0.25070853168E+02  0.11410224124E+02  0.10916460363E+02  0.30000000000E+02  0.47000000000E+01 0. -1.
</event>
<event>
 5    1  0.7693226E-002  0.6000000E+02  0.7546771E-02  0.1259629E+00
         11   -1    0    0    0    0  0.00000000000E+00  0.00000000000E+00  0.30000000000E+02  0.30000000000E+02  0.00000000000E+00 0.  1.
        -11   -1    0    0    0    0 -0.00000000000E+00 -0.00000000000E+00 -0.30000000000E+02  0.30000000000E+02  0.00000000000E+00 0. -1.
         23    2    1    2    0    0  0.00000000000E+00  0.00000000000E+00  0.00000000000E+00  0.60000000000E+02  0.60000000000E+02 0.  0.
          5    1    3    3  501    0 -0.12533110736E+01  0.29552383992E+02  0.17308413345E+01  0.30000000000E+02  0.47000000000E+01 0. -1.
         -5    1    3    3    0  501  0.12533110736E+01 -0.29552383992E+02 -0.17308413345E+01  0.30000000000E+02  0.47000000000E+01 0. -1.
</event>
<event>
 5    1  0.7693226E-002  0.6000000E+02  0.7546771E-02  0.1259629E+00
         11   -1    0    0    0    0  0.00000000000E+00  0.00000000000E+00  0.30000000000E+02  0.30000000000E+02  0.00000000000E+00 0. -1.
        -11   -1    0    0    0    0 -0.00000000000E+00 -0.00000000000E+00 -0.30000000000E+02  0.30000000000E+02  0.00000000000E+00 0.  1.
         23    2    1    2    0    0  0.00000000000E+00  0.00000000000E+00  0.00000000000E+00  0.60000000000E+02  0.60000000000E+02 0.  0.
          5    1    3    3  501    0 -0.48657723273E+01 -0.28767061311E+02 -0.51662794330E+01  0.30000000000E+02  0.47000000000E+01 0.  1.
         -5    1    3    3    0  501  0.48657723273E+01  0.28767061311E+02  0.51662794330E+01  0.30000000000E+02  0.47000000000E+01 0. -1.
</event>
<event>
 5    1  0.7693226E-002  0.6000000E+02  0.7546771E-02  0.1259629E+00
         11   -1    0    0    0    0  0.00000000000E+00  0.00000000000E+00  0.30000000000E+02  0.30000000000E+02  0.00000000000E+00 0.  1.
        -11   -1    0    0    0    0 -0.00000000000E+00 -0.00000000000E+00 -0.30000000000E+02  0.30000000000E+02  0.00000000000E+00 0. -1.
         23    2    1    2    0    0  0.00000000000E+00  0.00000000000E+00  0.00000000000E+00  0.60000000000E+02  0.60000000000E+02 0.  0.
          5    1    3    3  501    0  0.27438748963E+02 -0.10919074523E+02  0.24080836587E+01  0.30000000000E+02  0.47000000000E+01 0. -1.
         -5    1    3    3    0  501 -0.27438748963E+02  0.10919074523E+02 -0.24080836587E+01  0.30000000000E+02  0.47000000000E+01 0.  1.
</event>
<event>
 5    1  0.7693226E-002  0.6000000E+02  0.7546771E-02  0.1259629E+00
         11   -1    0    0    0    0  0.00000000000E+00  0.00000000000E+00  0.30000000000E+02  0.30000000000E+02  0.00000000000E+00 0.  1.
        -11   -1    0    0    0    0 -0.00000000000E+00 -0.00000000000E+00 -0.30000000000E+02  0.30000000000E+02  0.00000000000E+00 0. -1.
         23    2    1    2    0    0  0.00000000000E+00  0.00000000000E+00  0.00000000000E+00  0.60000000000E+02  0.60000000000E+02 0.  0.
          5    1    3    3  501    0  0.11714965789E+02 -0.70473458102E-01 -0.27215154052E+02  0.30000000000E+02  0.47000000000E+01 0. -1.
         -5    1    3    3    0  501 -0.11714965789E+02  0.70473458102E-01  0.27215154052E+02  0.30000000000E+02  0.47000000000E+01 0.  1.
</event>
<event>
 5    1  0.7693226E-002  0.6000000E+02  0.7546771E-02  0.1259629E+00
         11   -1    0    0    0    0  0.00000000000E+00  0.00000000000E+00  0.30000000000E+02  0.30000000000E+02  0.00000000000E+00 0.  1.
        -11   -1    0    0    0    0 -0.00000000000E+00 -0.00000000000E+00 -0.30000000000E+02  0.30000000000E+02  0.00000000000E+00 0. -1.
         23    2    1    2    0    0  0.00000000000E+00  0.00000000000E+00  0.00000000000E+00  0.60000000000E+02  0.60000000000E+02 0.  0.
          5    1    3    3  501    0  0.11951568286E+01 -0.54128801913E+01 -0.29106396689E+02  0.30000000000E+02  0.47000000000E+01 0. -1.
         -5    1    3    3    0  501 -0.11951568286E+01  0.54128801913E+01  0.29106396689E+02  0.30000000000E+02  0.47000000000E+01 0.  1.
</event>
<event>
 5    1  0.7693226E-002  0.6000000E+02  0.7546771E-02  0.1259629E+00
         11   -1    0    0    0    0  0.00000000000E+00  0.00000000000E+00  0.30000000000E+02  0.30000000000E+02  0.00000000000E+00 0.  1.
        -11   -1    0    0    0    0 -0.00000000000E+00 -0.00000000000E+00 -0.30000000000E+02  0.30000000000E+02  0.00000000000E+00 0. -1.
         23    2    1    2    0    0  0.00000000000E+00  0.00000000000E+00  0.00000000000E+00  0.60000000000E+02  0.60000000000E+02 0.  0.
          5    1    3    3  501    0 -0.26405926064E+02  0.19017510023E+01 -0.13304901798E+02  0.30000000000E+02  0.47000000000E+01 0. -1.
         -5    1    3    3    0  501  0.26405926064E+02 -0.19017510023E+01  0.13304901798E+02  0.30000000000E+02  0.47000000000E+01 0.  1.
</event>
<event>
 5    1  0.7693226E-002  0.6000000E+02  0.7546771E-02  0.1259629E+00
         11   -1    0    0    0    0  0.00000000000E+00  0.00000000000E+00  0.30000000000E+02  0.30000000000E+02  0.00000000000E+00 0.  1.
        -11   -1    0    0    0    0 -0.00000000000E+00 -0.00000000000E+00 -0.30000000000E+02  0.30000000000E+02  0.00000000000E+00 0. -1.
         23    2    1    2    0    0  0.00000000000E+00  0.00000000000E+00  0.00000000000E+00  0.60000000000E+02  0.60000000000E+02 0.  0.
          5    1    3    3  501    0 -0.76191495340E+01 -0.27216334007E+02 -0.88954889457E+01  0.30000000000E+02  0.47000000000E+01 0. -1.
         -5    1    3    3    0  501  0.76191495340E+01  0.27216334007E+02  0.88954889457E+01  0.30000000000E+02  0.47000000000E+01 0.  1.
</event>
<event>
 5    1  0.7693226E-002  0.6000000E+02  0.7546771E-02  0.1259629E+00
         11   -1    0    0    0    0  0.00000000000E+00  0.00000000000E+00  0.30000000000E+02  0.30000000000E+02  0.00000000000E+00 0.  1.
        -11   -1    0    0    0    0 -0.00000000000E+00 -0.00000000000E+00 -0.30000000000E+02  0.30000000000E+02  0.00000000000E+00 0. -1.
         23    2    1    2    0    0  0.00000000000E+00  0.00000000000E+00  0.00000000000E+00  0.60000000000E+02  0.60000000000E+02 0.  0.
          5    1    3    3  501    0 -0.48140942958E+01 -0.16321755939E+02 -0.24255613354E+02  0.30000000000E+02  0.47000000000E+01 0. -1.
         -5    1    3    3    0  501  0.48140942958E+01  0.16321755939E+02  0.24255613354E+02  0.30000000000E+02  0.47000000000E+01 0.  1.
</event>
<event>
 5    1  0.7693226E-002  0.6000000E+02  0.7546771E-02  0.1259629E+00
         11   -1    0    0    0    0  0.00000000000E+00  0.00000000000E+00  0.30000000000E+02  0.30000000000E+02  0.00000000000E+00 0.  1.
        -11   -1    0    0    0    0 -0.00000000000E+00 -0.00000000000E+00 -0.30000000000E+02  0.30000000000E+02  0.00000000000E+00 0. -1.
         23    2    1    2    0    0  0.00000000000E+00  0.00000000000E+00  0.00000000000E+00  0.60000000000E+02  0.60000000000E+02 0.  0.
          5    1    3    3  501    0 -0.32504777930E+01 -0.15542364836E+02 -0.25015580933E+02  0.30000000000E+02  0.47000000000E+01 0. -1.
         -5    1    3    3    0  501  0.32504777930E+01  0.15542364836E+02  0.25015580933E+02  0.30000000000E+02  0.47000000000E+01 0.  1.
</event>
<event>
 5    1  0.7693226E-002  0.6000000E+02  0.7546771E-02  0.1259629E+00
         11   -1    0    0    0    0  0.00000000000E+00  0.00000000000E+00  0.30000000000E+02  0.30000000000E+02  0.00000000000E+00 0. -1.
        -11   -1    0    0    0    0 -0.00000000000E+00 -0.00000000000E+00 -0.30000000000E+02  0.30000000000E+02  0.00000000000E+00 0.  1.
         23    2    1    2    0    0  0.00000000000E+00  0.00000000000E+00  0.00000000000E+00  0.60000000000E+02  0.60000000000E+02 0.  0.
          5    1    3    3  501    0 -0.46518617273E+01  0.14558801413E+02 -0.25383291431E+02  0.30000000000E+02  0.47000000000E+01 0.  1.
         -5    1    3    3    0  501  0.46518617273E+01 -0.14558801413E+02  0.25383291431E+02  0.30000000000E+02  0.47000000000E+01 0. -1.
</event>
<event>
 5    1  0.7693226E-002  0.6000000E+02  0.7546771E-02  0.1259629E+00
         11   -1    0    0    0    0  0.00000000000E+00  0.00000000000E+00  0.30000000000E+02  0.30000000000E+02  0.00000000000E+00 0.  1.
        -11   -1    0    0    0    0 -0.00000000000E+00 -0.00000000000E+00 -0.30000000000E+02  0.30000000000E+02  0.00000000000E+00 0. -1.
         23    2    1    2    0    0  0.00000000000E+00  0.00000000000E+00  0.00000000000E+00  0.60000000000E+02  0.60000000000E+02 0.  0.
          5    1    3    3  501    0  0.24365795017E+01  0.20212293693E+02 -0.21527569858E+02  0.30000000000E+02  0.47000000000E+01 0. -1.
         -5    1    3    3    0  501 -0.24365795017E+01 -0.20212293693E+02  0.21527569858E+02  0.30000000000E+02  0.47000000000E+01 0.  1.
</event>
<event>
 5    1  0.7693226E-002  0.6000000E+02  0.7546771E-02  0.1259629E+00
         11   -1    0    0    0    0  0.00000000000E+00  0.00000000000E+00  0.30000000000E+02  0.30000000000E+02  0.00000000000E+00 0. -1.
        -11   -1    0    0    0    0 -0.00000000000E+00 -0.00000000000E+00 -0.30000000000E+02  0.30000000000E+02  0.00000000000E+00 0.  1.
         23    2    1    2    0    0  0.00000000000E+00  0.00000000000E+00  0.00000000000E+00  0.60000000000E+02  0.60000000000E+02 0.  0.
          5    1    3    3  501    0  0.56787442360E+01 -0.21201373136E+02 -0.19903859954E+02  0.30000000000E+02  0.47000000000E+01 0.  1.
         -5    1    3    3    0  501 -0.56787442360E+01  0.21201373136E+02  0.19903859954E+02  0.30000000000E+02  0.47000000000E+01 0. -1.
</event>
<event>
 5    1  0.7693226E-002  0.6000000E+02  0.7546771E-02  0.1259629E+00
         11   -1    0    0    0    0  0.00000000000E+00  0.00000000000E+00  0.30000000000E+02  0.30000000000E+02  0.00000000000E+00 0.  1.
        -11   -1    0    0    0    0 -0.00000000000E+00 -0.00000000000E+00 -0.30000000000E+02  0.30000000000E+02  0.00000000000E+00 0. -1.
         23    2    1    2    0    0  0.00000000000E+00  0.00000000000E+00  0.00000000000E+00  0.60000000000E+02  0.60000000000E+02 0.  0.
          5    1    3    3  501    0 -0.28646577051E+02  0.28291864271E+01  0.70199236072E+01  0.30000000000E+02  0.47000000000E+01 0. -1.
         -5    1    3    3    0  501  0.28646577051E+02 -0.28291864271E+01 -0.70199236072E+01  0.30000000000E+02  0.47000000000E+01 0.  1.
</event>
<event>
 5    1  0.7693226E-002  0.6000000E+02  0.7546771E-02  0.1259629E+00
         11   -1    0    0    0    0  0.00000000000E+00  0.00000000000E+00  0.30000000000E+02  0.30000000000E+02  0.00000000000E+00 0.  1.
        -11   -1    0    0    0    0 -0.00000000000E+00 -0.00000000000E+00 -0.30000000000E+02  0.30000000000E+02  0.00000000000E+00 0. -1.
         23    2    1    2    0    0  0.00000000000E+00  0.00000000000E+00  0.00000000000E+00  0.60000000000E+02  0.60000000000E+02 0.  0.
          5    1    3    3  501    0  0.51586128962E+01  0.13416341733E+02 -0.25909467140E+02  0.30000000000E+02  0.47000000000E+01 0. -1.
         -5    1    3    3    0  501 -0.51586128962E+01 -0.13416341733E+02  0.25909467140E+02  0.30000000000E+02  0.47000000000E+01 0.  1.
</event>
<event>
 5    1  0.7693226E-002  0.6000000E+02  0.7546771E-02  0.1259629E+00
         11   -1    0    0    0    0  0.00000000000E+00  0.00000000000E+00  0.30000000000E+02  0.30000000000E+02  0.00000000000E+00 0.  1.
        -11   -1    0    0    0    0 -0.00000000000E+00 -0.00000000000E+00 -0.30000000000E+02  0.30000000000E+02  0.00000000000E+00 0. -1.
         23    2    1    2    0    0  0.00000000000E+00  0.00000000000E+00  0.00000000000E+00  0.60000000000E+02  0.60000000000E+02 0.  0.
          5    1    3    3  501    0 -0.19564798692E+02 -0.21486608802E+02  0.57839687348E+01  0.30000000000E+02  0.47000000000E+01 0. -1.
         -5    1    3    3    0  501  0.19564798692E+02  0.21486608802E+02 -0.57839687348E+01  0.30000000000E+02  0.47000000000E+01 0.  1.
</event>
<event>
 5    1  0.7693226E-002  0.6000000E+02  0.7546771E-02  0.1259629E+00
         11   -1    0    0    0    0  0.00000000000E+00  0.00000000000E+00  0.30000000000E+02  0.30000000000E+02  0.00000000000E+00 0. -1.
        -11   -1    0    0    0    0 -0.00000000000E+00 -0.00000000000E+00 -0.30000000000E+02  0.30000000000E+02  0.00000000000E+00 0.  1.
         23    2    1    2    0    0  0.00000000000E+00  0.00000000000E+00  0.00000000000E+00  0.60000000000E+02  0.60000000000E+02 0.  0.
          5    1    3    3  501    0  0.22842231079E+02 -0.10419158028E+02  0.15734790285E+02  0.30000000000E+02  0.47000000000E+01 0. -1.
         -5    1    3    3    0  501 -0.22842231079E+02  0.10419158028E+02 -0.15734790285E+02  0.30000000000E+02  0.47000000000E+01 0.  1.
</event>
<event>
 5    1  0.7693226E-002  0.6000000E+02  0.7546771E-02  0.1259629E+00
         11   -1    0    0    0    0  0.00000000000E+00  0.00000000000E+00  0.30000000000E+02  0.30000000000E+02  0.00000000000E+00 0.  1.
        -11   -1    0    0    0    0 -0.00000000000E+00 -0.00000000000E+00 -0.30000000000E+02  0.30000000000E+02  0.00000000000E+00 0. -1.
         23    2    1    2    0    0  0.00000000000E+00  0.00000000000E+00  0.00000000000E+00  0.60000000000E+02  0.60000000000E+02 0.  0.
          5    1    3    3  501    0  0.13340994332E+02  0.23126764479E+01 -0.26354874272E+02  0.30000000000E+02  0.47000000000E+01 0. -1.
         -5    1    3    3    0  501 -0.13340994332E+02 -0.23126764479E+01  0.26354874272E+02  0.30000000000E+02  0.47000000000E+01 0.  1.
</event>
<event>
 5    1  0.7693226E-002  0.6000000E+02  0.7546771E-02  0.1259629E+00
         11   -1    0    0    0    0  0.00000000000E+00  0.00000000000E+00  0.30000000000E+02  0.30000000000E+02  0.00000000000E+00 0. -1.
        -11   -1    0    0    0    0 -0.00000000000E+00 -0.00000000000E+00 -0.30000000000E+02  0.30000000000E+02  0.00000000000E+00 0.  1.
         23    2    1    2    0    0  0.00000000000E+00  0.00000000000E+00  0.00000000000E+00  0.60000000000E+02  0.60000000000E+02 0.  0.
          5    1    3    3  501    0  0.18466540975E+02  0.19209687231E+02 -0.12957035962E+02  0.30000000000E+02  0.47000000000E+01 0.  1.
         -5    1    3    3    0  501 -0.18466540975E+02 -0.19209687231E+02  0.12957035962E+02  0.30000000000E+02  0.47000000000E+01 0. -1.
</event>
<event>
 5    1  0.7693226E-002  0.6000000E+02  0.7546771E-02  0.1259629E+00
         11   -1    0    0    0    0  0.00000000000E+00  0.00000000000E+00  0.30000000000E+02  0.30000000000E+02  0.00000000000E+00 0. -1.
        -11   -1    0    0    0    0 -0.00000000000E+00 -0.00000000000E+00 -0.30000000000E+02  0.30000000000E+02  0.00000000000E+00 0.  1.
         23    2    1    2    0    0  0.00000000000E+00  0.00000000000E+00  0.00000000000E+00  0.60000000000E+02  0.60000000000E+02 0.  0.
          5    1    3    3  501    0 -0.27513613762E+01 -0.20960345797E+02 -0.20760633773E+02  0.30000000000E+02  0.47000000000E+01 0.  1.
         -5    1    3    3    0  501  0.27513613762E+01  0.20960345797E+02  0.20760633773E+02  0.30000000000E+02  0.47000000000E+01 0. -1.
</event>
<event>
 5    1  0.7693226E-002  0.6000000E+02  0.7546771E-02  0.1259629E+00
         11   -1    0    0    0    0  0.00000000000E+00  0.00000000000E+00  0.30000000000E+02  0.30000000000E+02  0.00000000000E+00 0.  1.
        -11   -1    0    0    0    0 -0.00000000000E+00 -0.00000000000E+00 -0.30000000000E+02  0.30000000000E+02  0.00000000000E+00 0. -1.
         23    2    1    2    0    0  0.00000000000E+00  0.00000000000E+00  0.00000000000E+00  0.60000000000E+02  0.60000000000E+02 0.  0.
          5    1    3    3  501    0  0.47614267913E+01 -0.10633096933E+02 -0.27242908518E+02  0.30000000000E+02  0.47000000000E+01 0. -1.
         -5    1    3    3    0  501 -0.47614267913E+01  0.10633096933E+02  0.27242908518E+02  0.30000000000E+02  0.47000000000E+01 0.  1.
</event>
<event>
 5    1  0.7693226E-002  0.6000000E+02  0.7546771E-02  0.1259629E+00
         11   -1    0    0    0    0  0.00000000000E+00  0.00000000000E+00  0.30000000000E+02  0.30000000000E+02  0.00000000000E+00 0.  1.
        -11   -1    0    0    0    0 -0.00000000000E+00 -0.00000000000E+00 -0.30000000000E+02  0.30000000000E+02  0.00000000000E+00 0. -1.
         23    2    1    2    0    0  0.00000000000E+00  0.00000000000E+00  0.00000000000E+00  0.60000000000E+02  0.60000000000E+02 0.  0.
          5    1    3    3  501    0 -0.45635909033E+01  0.17031825955E+01 -0.29226405990E+02  0.30000000000E+02  0.47000000000E+01 0. -1.
         -5    1    3    3    0  501  0.45635909033E+01 -0.17031825955E+01  0.29226405990E+02  0.30000000000E+02  0.47000000000E+01 0.  1.
</event>
<event>
 5    1  0.7693226E-002  0.6000000E+02  0.7546771E-02  0.1259629E+00
         11   -1    0    0    0    0  0.00000000000E+00  0.00000000000E+00  0.30000000000E+02  0.30000000000E+02  0.00000000000E+00 0.  1.
        -11   -1    0    0    0    0 -0.00000000000E+00 -0.00000000000E+00 -0.30000000000E+02  0.30000000000E+02  0.00000000000E+00 0. -1.
         23    2    1    2    0    0  0.00000000000E+00  0.00000000000E+00  0.00000000000E+00  0.60000000000E+02  0.60000000000E+02 0.  0.
          5    1    3    3  501    0  0.64788941270E+01 -0.27434978057E+02 -0.91244676507E+01  0.30000000000E+02  0.47000000000E+01 0.  1.
         -5    1    3    3    0  501 -0.64788941270E+01  0.27434978057E+02  0.91244676507E+01  0.30000000000E+02  0.47000000000E+01 0. -1.
</event>
<event>
 5    1  0.7693226E-002  0.6000000E+02  0.7546771E-02  0.1259629E+00
         11   -1    0    0    0    0  0.00000000000E+00  0.00000000000E+00  0.30000000000E+02  0.30000000000E+02  0.00000000000E+00 0.  1.
        -11   -1    0    0    0    0 -0.00000000000E+00 -0.00000000000E+00 -0.30000000000E+02  0.30000000000E+02  0.00000000000E+00 0. -1.
         23    2    1    2    0    0  0.00000000000E+00  0.00000000000E+00  0.00000000000E+00  0.60000000000E+02  0.60000000000E+02 0.  0.
          5    1    3    3  501    0  0.11732490598E+02  0.26951435342E+02  0.37254258007E+01  0.30000000000E+02  0.47000000000E+01 0. -1.
         -5    1    3    3    0  501 -0.11732490598E+02 -0.26951435342E+02 -0.37254258007E+01  0.30000000000E+02  0.47000000000E+01 0.  1.
</event>
<event>
 5    1  0.7693226E-002  0.6000000E+02  0.7546771E-02  0.1259629E+00
         11   -1    0    0    0    0  0.00000000000E+00  0.00000000000E+00  0.30000000000E+02  0.30000000000E+02  0.00000000000E+00 0.  1.
        -11   -1    0    0    0    0 -0.00000000000E+00 -0.00000000000E+00 -0.30000000000E+02  0.30000000000E+02  0.00000000000E+00 0. -1.
         23    2    1    2    0    0  0.00000000000E+00  0.00000000000E+00  0.00000000000E+00  0.60000000000E+02  0.60000000000E+02 0.  0.
          5    1    3    3  501    0 -0.15723604703E+02  0.21931407594E+02 -0.12234852516E+02  0.30000000000E+02  0.47000000000E+01 0. -1.
         -5    1    3    3    0  501  0.15723604703E+02 -0.21931407594E+02  0.12234852516E+02  0.30000000000E+02  0.47000000000E+01 0.  1.
</event>
<event>
 5    1  0.7693226E-002  0.6000000E+02  0.7546771E-02  0.1259629E+00
         11   -1    0    0    0    0  0.00000000000E+00  0.00000000000E+00  0.30000000000E+02  0.30000000000E+02  0.00000000000E+00 0.  1.
        -11   -1    0    0    0    0 -0.00000000000E+00 -0.00000000000E+00 -0.30000000000E+02  0.30000000000E+02  0.00000000000E+00 0. -1.
         23    2    1    2    0    0  0.00000000000E+00  0.00000000000E+00  0.00000000000E+00  0.60000000000E+02  0.60000000000E+02 0.  0.
          5    1    3    3  501    0  0.29294681389E+02 -0.33173910740E+01 -0.29540749488E+01  0.30000000000E+02  0.47000000000E+01 0. -1.
         -5    1    3    3    0  501 -0.29294681389E+02  0.33173910740E+01  0.29540749488E+01  0.30000000000E+02  0.47000000000E+01 0.  1.
</event>
<event>
 5    1  0.7693226E-002  0.6000000E+02  0.7546771E-02  0.1259629E+00
         11   -1    0    0    0    0  0.00000000000E+00  0.00000000000E+00  0.30000000000E+02  0.30000000000E+02  0.00000000000E+00 0.  1.
        -11   -1    0    0    0    0 -0.00000000000E+00 -0.00000000000E+00 -0.30000000000E+02  0.30000000000E+02  0.00000000000E+00 0. -1.
         23    2    1    2    0    0  0.00000000000E+00  0.00000000000E+00  0.00000000000E+00  0.60000000000E+02  0.60000000000E+02 0.  0.
          5    1    3    3  501    0  0.77242472573E+01 -0.13400857292E+01 -0.28573592258E+02  0.30000000000E+02  0.47000000000E+01 0. -1.
         -5    1    3    3    0  501 -0.77242472573E+01  0.13400857292E+01  0.28573592258E+02  0.30000000000E+02  0.47000000000E+01 0.  1.
</event>
<event>
 5    1  0.7693226E-002  0.6000000E+02  0.7546771E-02  0.1259629E+00
         11   -1    0    0    0    0  0.00000000000E+00  0.00000000000E+00  0.30000000000E+02  0.30000000000E+02  0.00000000000E+00 0.  1.
        -11   -1    0    0    0    0 -0.00000000000E+00 -0.00000000000E+00 -0.30000000000E+02  0.30000000000E+02  0.00000000000E+00 0. -1.
         23    2    1    2    0    0  0.00000000000E+00  0.00000000000E+00  0.00000000000E+00  0.60000000000E+02  0.60000000000E+02 0.  0.
          5    1    3    3  501    0 -0.10223221063E+02  0.12361090705E+01  0.27782508624E+02  0.30000000000E+02  0.47000000000E+01 0.  1.
         -5    1    3    3    0  501  0.10223221063E+02 -0.12361090705E+01 -0.27782508624E+02  0.30000000000E+02  0.47000000000E+01 0. -1.
</event>
<event>
 5    1  0.7693226E-002  0.6000000E+02  0.7546771E-02  0.1259629E+00
         11   -1    0    0    0    0  0.00000000000E+00  0.00000000000E+00  0.30000000000E+02  0.30000000000E+02  0.00000000000E+00 0.  1.
        -11   -1    0    0    0    0 -0.00000000000E+00 -0.00000000000E+00 -0.30000000000E+02  0.30000000000E+02  0.00000000000E+00 0. -1.
         23    2    1    2    0    0  0.00000000000E+00  0.00000000000E+00  0.00000000000E+00  0.60000000000E+02  0.60000000000E+02 0.  0.
          5    1    3    3  501    0  0.14486133234E+02 -0.10704431176E+02 -0.23526093962E+02  0.30000000000E+02  0.47000000000E+01 0. -1.
         -5    1    3    3    0  501 -0.14486133234E+02  0.10704431176E+02  0.23526093962E+02  0.30000000000E+02  0.47000000000E+01 0.  1.
</event>
<event>
 5    1  0.7693226E-002  0.6000000E+02  0.7546771E-02  0.1259629E+00
         11   -1    0    0    0    0  0.00000000000E+00  0.00000000000E+00  0.30000000000E+02  0.30000000000E+02  0.00000000000E+00 0.  1.
        -11   -1    0    0    0    0 -0.00000000000E+00 -0.00000000000E+00 -0.30000000000E+02  0.30000000000E+02  0.00000000000E+00 0. -1.
         23    2    1    2    0    0  0.00000000000E+00  0.00000000000E+00  0.00000000000E+00  0.60000000000E+02  0.60000000000E+02 0.  0.
          5    1    3    3  501    0  0.22195961702E+02  0.33272158637E+01 -0.19343704886E+02  0.30000000000E+02  0.47000000000E+01 0. -1.
         -5    1    3    3    0  501 -0.22195961702E+02 -0.33272158637E+01  0.19343704886E+02  0.30000000000E+02  0.47000000000E+01 0.  1.
</event>
<event>
 5    1  0.7693226E-002  0.6000000E+02  0.7546771E-02  0.1259629E+00
         11   -1    0    0    0    0  0.00000000000E+00  0.00000000000E+00  0.30000000000E+02  0.30000000000E+02  0.00000000000E+00 0.  1.
        -11   -1    0    0    0    0 -0.00000000000E+00 -0.00000000000E+00 -0.30000000000E+02  0.30000000000E+02  0.00000000000E+00 0. -1.
         23    2    1    2    0    0  0.00000000000E+00  0.00000000000E+00  0.00000000000E+00  0.60000000000E+02  0.60000000000E+02 0.  0.
          5    1    3    3  501    0 -0.22351077740E+02  0.12245198441E+02 -0.15112724406E+02  0.30000000000E+02  0.47000000000E+01 0. -1.
         -5    1    3    3    0  501  0.22351077740E+02 -0.12245198441E+02  0.15112724406E+02  0.30000000000E+02  0.47000000000E+01 0.  1.
</event>
<event>
 5    1  0.7693226E-002  0.6000000E+02  0.7546771E-02  0.1259629E+00
         11   -1    0    0    0    0  0.00000000000E+00  0.00000000000E+00  0.30000000000E+02  0.30000000000E+02  0.00000000000E+00 0.  1.
        -11   -1    0    0    0    0 -0.00000000000E+00 -0.00000000000E+00 -0.30000000000E+02  0.30000000000E+02  0.00000000000E+00 0. -1.
         23    2    1    2    0    0  0.00000000000E+00  0.00000000000E+00  0.00000000000E+00  0.60000000000E+02  0.60000000000E+02 0.  0.
          5    1    3    3  501    0 -0.59961169609E+01 -0.22036841903E+02 -0.18876815948E+02  0.30000000000E+02  0.47000000000E+01 0. -1.
         -5    1    3    3    0  501  0.59961169609E+01  0.22036841903E+02  0.18876815948E+02  0.30000000000E+02  0.47000000000E+01 0.  1.
</event>
<event>
 5    1  0.7693226E-002  0.6000000E+02  0.7546771E-02  0.1259629E+00
         11   -1    0    0    0    0  0.00000000000E+00  0.00000000000E+00  0.30000000000E+02  0.30000000000E+02  0.00000000000E+00 0.  1.
        -11   -1    0    0    0    0 -0.00000000000E+00 -0.00000000000E+00 -0.30000000000E+02  0.30000000000E+02  0.00000000000E+00 0. -1.
         23    2    1    2    0    0  0.00000000000E+00  0.00000000000E+00  0.00000000000E+00  0.60000000000E+02  0.60000000000E+02 0.  0.
          5    1    3    3  501    0 -0.93925129401E+01 -0.11596557813E+02 -0.25597080841E+02  0.30000000000E+02  0.47000000000E+01 0. -1.
         -5    1    3    3    0  501  0.93925129401E+01  0.11596557813E+02  0.25597080841E+02  0.30000000000E+02  0.47000000000E+01 0.  1.
</event>
<event>
 5    1  0.7693226E-002  0.6000000E+02  0.7546771E-02  0.1259629E+00
         11   -1    0    0    0    0  0.00000000000E+00  0.00000000000E+00  0.30000000000E+02  0.30000000000E+02  0.00000000000E+00 0.  1.
        -11   -1    0    0    0    0 -0.00000000000E+00 -0.00000000000E+00 -0.30000000000E+02  0.30000000000E+02  0.00000000000E+00 0. -1.
         23    2    1    2    0    0  0.00000000000E+00  0.00000000000E+00  0.00000000000E+00  0.60000000000E+02  0.60000000000E+02 0.  0.
          5    1    3    3  501    0 -0.15889250604E+02 -0.99144725852E+01 -0.22959637380E+02  0.30000000000E+02  0.47000000000E+01 0. -1.
         -5    1    3    3    0  501  0.15889250604E+02  0.99144725852E+01  0.22959637380E+02  0.30000000000E+02  0.47000000000E+01 0.  1.
</event>
<event>
 5    1  0.7693226E-002  0.6000000E+02  0.7546771E-02  0.1259629E+00
         11   -1    0    0    0    0  0.00000000000E+00  0.00000000000E+00  0.30000000000E+02  0.30000000000E+02  0.00000000000E+00 0.  1.
        -11   -1    0    0    0    0 -0.00000000000E+00 -0.00000000000E+00 -0.30000000000E+02  0.30000000000E+02  0.00000000000E+00 0. -1.
         23    2    1    2    0    0  0.00000000000E+00  0.00000000000E+00  0.00000000000E+00  0.60000000000E+02  0.60000000000E+02 0.  0.
          5    1    3    3  501    0 -0.42234499222E+01  0.28966596110E+02  0.45835336348E+01  0.30000000000E+02  0.47000000000E+01 0. -1.
         -5    1    3    3    0  501  0.42234499222E+01 -0.28966596110E+02 -0.45835336348E+01  0.30000000000E+02  0.47000000000E+01 0. -1.
</event>
<event>
 5    1  0.7693226E-002  0.6000000E+02  0.7546771E-02  0.1259629E+00
         11   -1    0    0    0    0  0.00000000000E+00  0.00000000000E+00  0.30000000000E+02  0.30000000000E+02  0.00000000000E+00 0.  1.
        -11   -1    0    0    0    0 -0.00000000000E+00 -0.00000000000E+00 -0.30000000000E+02  0.30000000000E+02  0.00000000000E+00 0. -1.
         23    2    1    2    0    0  0.00000000000E+00  0.00000000000E+00  0.00000000000E+00  0.60000000000E+02  0.60000000000E+02 0.  0.
          5    1    3    3  501    0 -0.10584104675E+02  0.26974636820E+02 -0.61851189690E+01  0.30000000000E+02  0.47000000000E+01 0. -1.
         -5    1    3    3    0  501  0.10584104675E+02 -0.26974636820E+02  0.61851189690E+01  0.30000000000E+02  0.47000000000E+01 0.  1.
</event>
<event>
 5    1  0.7693226E-002  0.6000000E+02  0.7546771E-02  0.1259629E+00
         11   -1    0    0    0    0  0.00000000000E+00  0.00000000000E+00  0.30000000000E+02  0.30000000000E+02  0.00000000000E+00 0. -1.
        -11   -1    0    0    0    0 -0.00000000000E+00 -0.00000000000E+00 -0.30000000000E+02  0.30000000000E+02  0.00000000000E+00 0.  1.
         23    2    1    2    0    0  0.00000000000E+00  0.00000000000E+00  0.00000000000E+00  0.60000000000E+02  0.60000000000E+02 0.  0.
          5    1    3    3  501    0  0.16380475771E+02 -0.16743988373E+02 -0.18144664970E+02  0.30000000000E+02  0.47000000000E+01 0.  1.
         -5    1    3    3    0  501 -0.16380475771E+02  0.16743988373E+02  0.18144664970E+02  0.30000000000E+02  0.47000000000E+01 0. -1.
</event>
<event>
 5    1  0.7693226E-002  0.6000000E+02  0.7546771E-02  0.1259629E+00
         11   -1    0    0    0    0  0.00000000000E+00  0.00000000000E+00  0.30000000000E+02  0.30000000000E+02  0.00000000000E+00 0.  1.
        -11   -1    0    0    0    0 -0.00000000000E+00 -0.00000000000E+00 -0.30000000000E+02  0.30000000000E+02  0.00000000000E+00 0. -1.
         23    2    1    2    0    0  0.00000000000E+00  0.00000000000E+00  0.00000000000E+00  0.60000000000E+02  0.60000000000E+02 0.  0.
          5    1    3    3  501    0  0.10176385641E+02  0.16168923593E+02  0.22647672841E+02  0.30000000000E+02  0.47000000000E+01 0.  1.
         -5    1    3    3    0  501 -0.10176385641E+02 -0.16168923593E+02 -0.22647672841E+02  0.30000000000E+02  0.47000000000E+01 0. -1.
</event>
<event>
 5    1  0.7693226E-002  0.6000000E+02  0.7546771E-02  0.1259629E+00
         11   -1    0    0    0    0  0.00000000000E+00  0.00000000000E+00  0.30000000000E+02  0.30000000000E+02  0.00000000000E+00 0.  1.
        -11   -1    0    0    0    0 -0.00000000000E+00 -0.00000000000E+00 -0.30000000000E+02  0.30000000000E+02  0.00000000000E+00 0. -1.
         23    2    1    2    0    0  0.00000000000E+00  0.00000000000E+00  0.00000000000E+00  0.60000000000E+02  0.60000000000E+02 0.  0.
          5    1    3    3  501    0  0.14454210876E+01 -0.22786501304E+02 -0.18883752704E+02  0.30000000000E+02  0.47000000000E+01 0. -1.
         -5    1    3    3    0  501 -0.14454210876E+01  0.22786501304E+02  0.18883752704E+02  0.30000000000E+02  0.47000000000E+01 0.  1.
</event>
<event>
 5    1  0.7693226E-002  0.6000000E+02  0.7546771E-02  0.1259629E+00
         11   -1    0    0    0    0  0.00000000000E+00  0.00000000000E+00  0.30000000000E+02  0.30000000000E+02  0.00000000000E+00 0. -1.
        -11   -1    0    0    0    0 -0.00000000000E+00 -0.00000000000E+00 -0.30000000000E+02  0.30000000000E+02  0.00000000000E+00 0.  1.
         23    2    1    2    0    0  0.00000000000E+00  0.00000000000E+00  0.00000000000E+00  0.60000000000E+02  0.60000000000E+02 0.  0.
          5    1    3    3  501    0  0.15315735447E+02 -0.50025251192E+01  0.24865900147E+02  0.30000000000E+02  0.47000000000E+01 0. -1.
         -5    1    3    3    0  501 -0.15315735447E+02  0.50025251192E+01 -0.24865900147E+02  0.30000000000E+02  0.47000000000E+01 0.  1.
</event>
<event>
 5    1  0.7693226E-002  0.6000000E+02  0.7546771E-02  0.1259629E+00
         11   -1    0    0    0    0  0.00000000000E+00  0.00000000000E+00  0.30000000000E+02  0.30000000000E+02  0.00000000000E+00 0.  1.
        -11   -1    0    0    0    0 -0.00000000000E+00 -0.00000000000E+00 -0.30000000000E+02  0.30000000000E+02  0.00000000000E+00 0. -1.
         23    2    1    2    0    0  0.00000000000E+00  0.00000000000E+00  0.00000000000E+00  0.60000000000E+02  0.60000000000E+02 0.  0.
          5    1    3    3  501    0  0.10483262044E+02 -0.22129960078E+02 -0.16681609150E+02  0.30000000000E+02  0.47000000000E+01 0. -1.
         -5    1    3    3    0  501 -0.10483262044E+02  0.22129960078E+02  0.16681609150E+02  0.30000000000E+02  0.47000000000E+01 0.  1.
</event>
<event>
 5    1  0.7693226E-002  0.6000000E+02  0.7546771E-02  0.1259629E+00
         11   -1    0    0    0    0  0.00000000000E+00  0.00000000000E+00  0.30000000000E+02  0.30000000000E+02  0.00000000000E+00 0.  1.
        -11   -1    0    0    0    0 -0.00000000000E+00 -0.00000000000E+00 -0.30000000000E+02  0.30000000000E+02  0.00000000000E+00 0. -1.
         23    2    1    2    0    0  0.00000000000E+00  0.00000000000E+00  0.00000000000E+00  0.60000000000E+02  0.60000000000E+02 0.  0.
          5    1    3    3  501    0  0.29232091347E+02 -0.98147765508E+00 -0.47361943684E+01  0.30000000000E+02  0.47000000000E+01 0. -1.
         -5    1    3    3    0  501 -0.29232091347E+02  0.98147765508E+00  0.47361943684E+01  0.30000000000E+02  0.47000000000E+01 0.  1.
</event>
<event>
 5    1  0.7693226E-002  0.6000000E+02  0.7546771E-02  0.1259629E+00
         11   -1    0    0    0    0  0.00000000000E+00  0.00000000000E+00  0.30000000000E+02  0.30000000000E+02  0.00000000000E+00 0. -1.
        -11   -1    0    0    0    0 -0.00000000000E+00 -0.00000000000E+00 -0.30000000000E+02  0.30000000000E+02  0.00000000000E+00 0.  1.
         23    2    1    2    0    0  0.00000000000E+00  0.00000000000E+00  0.00000000000E+00  0.60000000000E+02  0.60000000000E+02 0.  0.
          5    1    3    3  501    0 -0.19051575477E+01  0.26487382896E+02  0.13141496188E+02  0.30000000000E+02  0.47000000000E+01 0. -1.
         -5    1    3    3    0  501  0.19051575477E+01 -0.26487382896E+02 -0.13141496188E+02  0.30000000000E+02  0.47000000000E+01 0.  1.
</event>
<event>
 5    1  0.7693226E-002  0.6000000E+02  0.7546771E-02  0.1259629E+00
         11   -1    0    0    0    0  0.00000000000E+00  0.00000000000E+00  0.30000000000E+02  0.30000000000E+02  0.00000000000E+00 0.  1.
        -11   -1    0    0    0    0 -0.00000000000E+00 -0.00000000000E+00 -0.30000000000E+02  0.30000000000E+02  0.00000000000E+00 0. -1.
         23    2    1    2    0    0  0.00000000000E+00  0.00000000000E+00  0.00000000000E+00  0.60000000000E+02  0.60000000000E+02 0.  0.
          5    1    3    3  501    0  0.28394681321E+02  0.50549828753E+01  0.67896406985E+01  0.30000000000E+02  0.47000000000E+01 0. -1.
         -5    1    3    3    0  501 -0.28394681321E+02 -0.50549828753E+01 -0.67896406985E+01  0.30000000000E+02  0.47000000000E+01 0.  1.
</event>
<event>
 5    1  0.7693226E-002  0.6000000E+02  0.7546771E-02  0.1259629E+00
         11   -1    0    0    0    0  0.00000000000E+00  0.00000000000E+00  0.30000000000E+02  0.30000000000E+02  0.00000000000E+00 0.  1.
        -11   -1    0    0    0    0 -0.00000000000E+00 -0.00000000000E+00 -0.30000000000E+02  0.30000000000E+02  0.00000000000E+00 0. -1.
         23    2    1    2    0    0  0.00000000000E+00  0.00000000000E+00  0.00000000000E+00  0.60000000000E+02  0.60000000000E+02 0.  0.
          5    1    3    3  501    0  0.12124033104E+02  0.26667768205E+02  0.44438677150E+01  0.30000000000E+02  0.47000000000E+01 0. -1.
         -5    1    3    3    0  501 -0.12124033104E+02 -0.26667768205E+02 -0.44438677150E+01  0.30000000000E+02  0.47000000000E+01 0.  1.
</event>
<event>
 5    1  0.7693226E-002  0.6000000E+02  0.7546771E-02  0.1259629E+00
         11   -1    0    0    0    0  0.00000000000E+00  0.00000000000E+00  0.30000000000E+02  0.30000000000E+02  0.00000000000E+00 0.  1.
        -11   -1    0    0    0    0 -0.00000000000E+00 -0.00000000000E+00 -0.30000000000E+02  0.30000000000E+02  0.00000000000E+00 0. -1.
         23    2    1    2    0    0  0.00000000000E+00  0.00000000000E+00  0.00000000000E+00  0.60000000000E+02  0.60000000000E+02 0.  0.
          5    1    3    3  501    0 -0.17938515631E+02  0.19085391820E+02 -0.13851623588E+02  0.30000000000E+02  0.47000000000E+01 0. -1.
         -5    1    3    3    0  501  0.17938515631E+02 -0.19085391820E+02  0.13851623588E+02  0.30000000000E+02  0.47000000000E+01 0.  1.
</event>
<event>
 5    1  0.7693226E-002  0.6000000E+02  0.7546771E-02  0.1259629E+00
         11   -1    0    0    0    0  0.00000000000E+00  0.00000000000E+00  0.30000000000E+02  0.30000000000E+02  0.00000000000E+00 0. -1.
        -11   -1    0    0    0    0 -0.00000000000E+00 -0.00000000000E+00 -0.30000000000E+02  0.30000000000E+02  0.00000000000E+00 0.  1.
         23    2    1    2    0    0  0.00000000000E+00  0.00000000000E+00  0.00000000000E+00  0.60000000000E+02  0.60000000000E+02 0.  0.
          5    1    3    3  501    0  0.17326500460E+02  0.13386053800E+02 -0.19962864160E+02  0.30000000000E+02  0.47000000000E+01 0.  1.
         -5    1    3    3    0  501 -0.17326500460E+02 -0.13386053800E+02  0.19962864160E+02  0.30000000000E+02  0.47000000000E+01 0. -1.
</event>
<event>
 5    1  0.7693226E-002  0.6000000E+02  0.7546771E-02  0.1259629E+00
         11   -1    0    0    0    0  0.00000000000E+00  0.00000000000E+00  0.30000000000E+02  0.30000000000E+02  0.00000000000E+00 0. -1.
        -11   -1    0    0    0    0 -0.00000000000E+00 -0.00000000000E+00 -0.30000000000E+02  0.30000000000E+02  0.00000000000E+00 0.  1.
         23    2    1    2    0    0  0.00000000000E+00  0.00000000000E+00  0.00000000000E+00  0.60000000000E+02  0.60000000000E+02 0.  0.
          5    1    3    3  501    0 -0.70546044336E+01  0.22522986438E+02  0.17912499497E+02  0.30000000000E+02  0.47000000000E+01 0. -1.
         -5    1    3    3    0  501  0.70546044336E+01 -0.22522986438E+02 -0.17912499497E+02  0.30000000000E+02  0.47000000000E+01 0.  1.
</event>
<event>
 5    1  0.7693226E-002  0.6000000E+02  0.7546771E-02  0.1259629E+00
         11   -1    0    0    0    0  0.00000000000E+00  0.00000000000E+00  0.30000000000E+02  0.30000000000E+02  0.00000000000E+00 0.  1.
        -11   -1    0    0    0    0 -0.00000000000E+00 -0.00000000000E+00 -0.30000000000E+02  0.30000000000E+02  0.00000000000E+00 0. -1.
         23    2    1    2    0    0  0.00000000000E+00  0.00000000000E+00  0.00000000000E+00  0.60000000000E+02  0.60000000000E+02 0.  0.
          5    1    3    3  501    0 -0.11531392172E+02 -0.58576439848E+01 -0.26657550554E+02  0.30000000000E+02  0.47000000000E+01 0. -1.
         -5    1    3    3    0  501  0.11531392172E+02  0.58576439848E+01  0.26657550554E+02  0.30000000000E+02  0.47000000000E+01 0.  1.
</event>
<event>
 5    1  0.7693226E-002  0.6000000E+02  0.7546771E-02  0.1259629E+00
         11   -1    0    0    0    0  0.00000000000E+00  0.00000000000E+00  0.30000000000E+02  0.30000000000E+02  0.00000000000E+00 0.  1.
        -11   -1    0    0    0    0 -0.00000000000E+00 -0.00000000000E+00 -0.30000000000E+02  0.30000000000E+02  0.00000000000E+00 0. -1.
         23    2    1    2    0    0  0.00000000000E+00  0.00000000000E+00  0.00000000000E+00  0.60000000000E+02  0.60000000000E+02 0.  0.
          5    1    3    3  501    0 -0.18488382312E+01  0.93573113661E+01 -0.28052317573E+02  0.30000000000E+02  0.47000000000E+01 0. -1.
         -5    1    3    3    0  501  0.18488382312E+01 -0.93573113661E+01  0.28052317573E+02  0.30000000000E+02  0.47000000000E+01 0.  1.
</event>
<event>
 5    1  0.7693226E-002  0.6000000E+02  0.7546771E-02  0.1259629E+00
         11   -1    0    0    0    0  0.00000000000E+00  0.00000000000E+00  0.30000000000E+02  0.30000000000E+02  0.00000000000E+00 0.  1.
        -11   -1    0    0    0    0 -0.00000000000E+00 -0.00000000000E+00 -0.30000000000E+02  0.30000000000E+02  0.00000000000E+00 0. -1.
         23    2    1    2    0    0  0.00000000000E+00  0.00000000000E+00  0.00000000000E+00  0.60000000000E+02  0.60000000000E+02 0.  0.
          5    1    3    3  501    0 -0.20425279508E+02  0.13229132151E+02 -0.16902899738E+02  0.30000000000E+02  0.47000000000E+01 0. -1.
         -5    1    3    3    0  501  0.20425279508E+02 -0.13229132151E+02  0.16902899738E+02  0.30000000000E+02  0.47000000000E+01 0.  1.
</event>
<event>
 5    1  0.7693226E-002  0.6000000E+02  0.7546771E-02  0.1259629E+00
         11   -1    0    0    0    0  0.00000000000E+00  0.00000000000E+00  0.30000000000E+02  0.30000000000E+02  0.00000000000E+00 0.  1.
        -11   -1    0    0    0    0 -0.00000000000E+00 -0.00000000000E+00 -0.30000000000E+02  0.30000000000E+02  0.00000000000E+00 0. -1.
         23    2    1    2    0    0  0.00000000000E+00  0.00000000000E+00  0.00000000000E+00  0.60000000000E+02  0.60000000000E+02 0.  0.
          5    1    3    3  501    0  0.38805050712E+01  0.23637665052E+02 -0.17438820811E+02  0.30000000000E+02  0.47000000000E+01 0. -1.
         -5    1    3    3    0  501 -0.38805050712E+01 -0.23637665052E+02  0.17438820811E+02  0.30000000000E+02  0.47000000000E+01 0.  1.
</event>
<event>
 5    1  0.7693226E-002  0.6000000E+02  0.7546771E-02  0.1259629E+00
         11   -1    0    0    0    0  0.00000000000E+00  0.00000000000E+00  0.30000000000E+02  0.30000000000E+02  0.00000000000E+00 0. -1.
        -11   -1    0    0    0    0 -0.00000000000E+00 -0.00000000000E+00 -0.30000000000E+02  0.30000000000E+02  0.00000000000E+00 0.  1.
         23    2    1    2    0    0  0.00000000000E+00  0.00000000000E+00  0.00000000000E+00  0.60000000000E+02  0.60000000000E+02 0.  0.
          5    1    3    3  501    0 -0.10954116273E+02  0.22988065712E+02 -0.15148140860E+02  0.30000000000E+02  0.47000000000E+01 0.  1.
         -5    1    3    3    0  501  0.10954116273E+02 -0.22988065712E+02  0.15148140860E+02  0.30000000000E+02  0.47000000000E+01 0. -1.
</event>
<event>
 5    1  0.7693226E-002  0.6000000E+02  0.7546771E-02  0.1259629E+00
         11   -1    0    0    0    0  0.00000000000E+00  0.00000000000E+00  0.30000000000E+02  0.30000000000E+02  0.00000000000E+00 0.  1.
        -11   -1    0    0    0    0 -0.00000000000E+00 -0.00000000000E+00 -0.30000000000E+02  0.30000000000E+02  0.00000000000E+00 0. -1.
         23    2    1    2    0    0  0.00000000000E+00  0.00000000000E+00  0.00000000000E+00  0.60000000000E+02  0.60000000000E+02 0.  0.
          5    1    3    3  501    0  0.26027259165E+02 -0.45864919312E+01 -0.13396114068E+02  0.30000000000E+02  0.47000000000E+01 0. -1.
         -5    1    3    3    0  501 -0.26027259165E+02  0.45864919312E+01  0.13396114068E+02  0.30000000000E+02  0.47000000000E+01 0.  1.
</event>
<event>
 5    1  0.7693226E-002  0.6000000E+02  0.7546771E-02  0.1259629E+00
         11   -1    0    0    0    0  0.00000000000E+00  0.00000000000E+00  0.30000000000E+02  0.30000000000E+02  0.00000000000E+00 0.  1.
        -11   -1    0    0    0    0 -0.00000000000E+00 -0.00000000000E+00 -0.30000000000E+02  0.30000000000E+02  0.00000000000E+00 0. -1.
         23    2    1    2    0    0  0.00000000000E+00  0.00000000000E+00  0.00000000000E+00  0.60000000000E+02  0.60000000000E+02 0.  0.
          5    1    3    3  501    0  0.64985915331E+01  0.26632237332E+02 -0.11242875201E+02  0.30000000000E+02  0.47000000000E+01 0. -1.
         -5    1    3    3    0  501 -0.64985915331E+01 -0.26632237332E+02  0.11242875201E+02  0.30000000000E+02  0.47000000000E+01 0.  1.
</event>
<event>
 5    1  0.7693226E-002  0.6000000E+02  0.7546771E-02  0.1259629E+00
         11   -1    0    0    0    0  0.00000000000E+00  0.00000000000E+00  0.30000000000E+02  0.30000000000E+02  0.00000000000E+00 0.  1.
        -11   -1    0    0    0    0 -0.00000000000E+00 -0.00000000000E+00 -0.30000000000E+02  0.30000000000E+02  0.00000000000E+00 0. -1.
         23    2    1    2    0    0  0.00000000000E+00  0.00000000000E+00  0.00000000000E+00  0.60000000000E+02  0.60000000000E+02 0.  0.
          5    1    3    3  501    0  0.54431643117E+01 -0.28150783605E+02 -0.74709667848E+01  0.30000000000E+02  0.47000000000E+01 0. -1.
         -5    1    3    3    0  501 -0.54431643117E+01  0.28150783605E+02  0.74709667848E+01  0.30000000000E+02  0.47000000000E+01 0.  1.
</event>
<event>
 5    1  0.7693226E-002  0.6000000E+02  0.7546771E-02  0.1259629E+00
         11   -1    0    0    0    0  0.00000000000E+00  0.00000000000E+00  0.30000000000E+02  0.30000000000E+02  0.00000000000E+00 0.  1.
        -11   -1    0    0    0    0 -0.00000000000E+00 -0.00000000000E+00 -0.30000000000E+02  0.30000000000E+02  0.00000000000E+00 0. -1.
         23    2    1    2    0    0  0.00000000000E+00  0.00000000000E+00  0.00000000000E+00  0.60000000000E+02  0.60000000000E+02 0.  0.
          5    1    3    3  501    0 -0.50681456503E+01  0.45115648297E+01 -0.28842151141E+02  0.30000000000E+02  0.47000000000E+01 0. -1.
         -5    1    3    3    0  501  0.50681456503E+01 -0.45115648297E+01  0.28842151141E+02  0.30000000000E+02  0.47000000000E+01 0.  1.
</event>
<event>
 5    1  0.7693226E-002  0.6000000E+02  0.7546771E-02  0.1259629E+00
         11   -1    0    0    0    0  0.00000000000E+00  0.00000000000E+00  0.30000000000E+02  0.30000000000E+02  0.00000000000E+00 0.  1.
        -11   -1    0    0    0    0 -0.00000000000E+00 -0.00000000000E+00 -0.30000000000E+02  0.30000000000E+02  0.00000000000E+00 0. -1.
         23    2    1    2    0    0  0.00000000000E+00  0.00000000000E+00  0.00000000000E+00  0.60000000000E+02  0.60000000000E+02 0.  0.
          5    1    3    3  501    0 -0.79276779870E+00  0.29603930383E+02  0.94277522035E+00  0.30000000000E+02  0.47000000000E+01 0. -1.
         -5    1    3    3    0  501  0.79276779870E+00 -0.29603930383E+02 -0.94277522035E+00  0.30000000000E+02  0.47000000000E+01 0.  1.
</event>
<event>
 5    1  0.7693226E-002  0.6000000E+02  0.7546771E-02  0.1259629E+00
         11   -1    0    0    0    0  0.00000000000E+00  0.00000000000E+00  0.30000000000E+02  0.30000000000E+02  0.00000000000E+00 0.  1.
        -11   -1    0    0    0    0 -0.00000000000E+00 -0.00000000000E+00 -0.30000000000E+02  0.30000000000E+02  0.00000000000E+00 0. -1.
         23    2    1    2    0    0  0.00000000000E+00  0.00000000000E+00  0.00000000000E+00  0.60000000000E+02  0.60000000000E+02 0.  0.
          5    1    3    3  501    0  0.24182835940E+02  0.14450070735E+02 -0.91812799564E+01  0.30000000000E+02  0.47000000000E+01 0. -1.
         -5    1    3    3    0  501 -0.24182835940E+02 -0.14450070735E+02  0.91812799564E+01  0.30000000000E+02  0.47000000000E+01 0.  1.
</event>
<event>
 5    1  0.7693226E-002  0.6000000E+02  0.7546771E-02  0.1259629E+00
         11   -1    0    0    0    0  0.00000000000E+00  0.00000000000E+00  0.30000000000E+02  0.30000000000E+02  0.00000000000E+00 0.  1.
        -11   -1    0    0    0    0 -0.00000000000E+00 -0.00000000000E+00 -0.30000000000E+02  0.30000000000E+02  0.00000000000E+00 0. -1.
         23    2    1    2    0    0  0.00000000000E+00  0.00000000000E+00  0.00000000000E+00  0.60000000000E+02  0.60000000000E+02 0.  0.
          5    1    3    3  501    0  0.19856757220E+02 -0.10642490485E+02 -0.19244650918E+02  0.30000000000E+02  0.47000000000E+01 0. -1.
         -5    1    3    3    0  501 -0.19856757220E+02  0.10642490485E+02  0.19244650918E+02  0.30000000000E+02  0.47000000000E+01 0.  1.
</event>
<event>
 5    1  0.7693226E-002  0.6000000E+02  0.7546771E-02  0.1259629E+00
         11   -1    0    0    0    0  0.00000000000E+00  0.00000000000E+00  0.30000000000E+02  0.30000000000E+02  0.00000000000E+00 0.  1.
        -11   -1    0    0    0    0 -0.00000000000E+00 -0.00000000000E+00 -0.30000000000E+02  0.30000000000E+02  0.00000000000E+00 0. -1.
         23    2    1    2    0    0  0.00000000000E+00  0.00000000000E+00  0.00000000000E+00  0.60000000000E+02  0.60000000000E+02 0.  0.
          5    1    3    3  501    0 -0.15984414227E+02  0.12416041880E+02 -0.21639094386E+02  0.30000000000E+02  0.47000000000E+01 0. -1.
         -5    1    3    3    0  501  0.15984414227E+02 -0.12416041880E+02  0.21639094386E+02  0.30000000000E+02  0.47000000000E+01 0.  1.
</event>
<event>
 5    1  0.7693226E-002  0.6000000E+02  0.7546771E-02  0.1259629E+00
         11   -1    0    0    0    0  0.00000000000E+00  0.00000000000E+00  0.30000000000E+02  0.30000000000E+02  0.00000000000E+00 0.  1.
        -11   -1    0    0    0    0 -0.00000000000E+00 -0.00000000000E+00 -0.30000000000E+02  0.30000000000E+02  0.00000000000E+00 0. -1.
         23    2    1    2    0    0  0.00000000000E+00  0.00000000000E+00  0.00000000000E+00  0.60000000000E+02  0.60000000000E+02 0.  0.
          5    1    3    3  501    0 -0.13247902048E+02 -0.16428173542E+02 -0.20797072039E+02  0.30000000000E+02  0.47000000000E+01 0. -1.
         -5    1    3    3    0  501  0.13247902048E+02  0.16428173542E+02  0.20797072039E+02  0.30000000000E+02  0.47000000000E+01 0.  1.
</event>
<event>
 5    1  0.7693226E-002  0.6000000E+02  0.7546771E-02  0.1259629E+00
         11   -1    0    0    0    0  0.00000000000E+00  0.00000000000E+00  0.30000000000E+02  0.30000000000E+02  0.00000000000E+00 0.  1.
        -11   -1    0    0    0    0 -0.00000000000E+00 -0.00000000000E+00 -0.30000000000E+02  0.30000000000E+02  0.00000000000E+00 0. -1.
         23    2    1    2    0    0  0.00000000000E+00  0.00000000000E+00  0.00000000000E+00  0.60000000000E+02  0.60000000000E+02 0.  0.
          5    1    3    3  501    0  0.16756012161E+02 -0.27016465426E+00 -0.24435078627E+02  0.30000000000E+02  0.47000000000E+01 0. -1.
         -5    1    3    3    0  501 -0.16756012161E+02  0.27016465426E+00  0.24435078627E+02  0.30000000000E+02  0.47000000000E+01 0.  1.
</event>
<event>
 5    1  0.7693226E-002  0.6000000E+02  0.7546771E-02  0.1259629E+00
         11   -1    0    0    0    0  0.00000000000E+00  0.00000000000E+00  0.30000000000E+02  0.30000000000E+02  0.00000000000E+00 0. -1.
        -11   -1    0    0    0    0 -0.00000000000E+00 -0.00000000000E+00 -0.30000000000E+02  0.30000000000E+02  0.00000000000E+00 0.  1.
         23    2    1    2    0    0  0.00000000000E+00  0.00000000000E+00  0.00000000000E+00  0.60000000000E+02  0.60000000000E+02 0.  0.
          5    1    3    3  501    0 -0.20347321593E+02 -0.14819876717E+02 -0.15629067729E+02  0.30000000000E+02  0.47000000000E+01 0.  1.
         -5    1    3    3    0  501  0.20347321593E+02  0.14819876717E+02  0.15629067729E+02  0.30000000000E+02  0.47000000000E+01 0. -1.
</event>
<event>
 5    1  0.7693226E-002  0.6000000E+02  0.7546771E-02  0.1259629E+00
         11   -1    0    0    0    0  0.00000000000E+00  0.00000000000E+00  0.30000000000E+02  0.30000000000E+02  0.00000000000E+00 0. -1.
        -11   -1    0    0    0    0 -0.00000000000E+00 -0.00000000000E+00 -0.30000000000E+02  0.30000000000E+02  0.00000000000E+00 0.  1.
         23    2    1    2    0    0  0.00000000000E+00  0.00000000000E+00  0.00000000000E+00  0.60000000000E+02  0.60000000000E+02 0.  0.
          5    1    3    3  501    0 -0.17424082316E+00  0.29336004203E+02 -0.41567412126E+01  0.30000000000E+02  0.47000000000E+01 0.  1.
         -5    1    3    3    0  501  0.17424082316E+00 -0.29336004203E+02  0.41567412126E+01  0.30000000000E+02  0.47000000000E+01 0. -1.
</event>
<event>
 5    1  0.7693226E-002  0.6000000E+02  0.7546771E-02  0.1259629E+00
         11   -1    0    0    0    0  0.00000000000E+00  0.00000000000E+00  0.30000000000E+02  0.30000000000E+02  0.00000000000E+00 0.  1.
        -11   -1    0    0    0    0 -0.00000000000E+00 -0.00000000000E+00 -0.30000000000E+02  0.30000000000E+02  0.00000000000E+00 0. -1.
         23    2    1    2    0    0  0.00000000000E+00  0.00000000000E+00  0.00000000000E+00  0.60000000000E+02  0.60000000000E+02 0.  0.
          5    1    3    3  501    0  0.22181002288E+02  0.19006490438E+02 -0.49665338759E+01  0.30000000000E+02  0.47000000000E+01 0. -1.
         -5    1    3    3    0  501 -0.22181002288E+02 -0.19006490438E+02  0.49665338759E+01  0.30000000000E+02  0.47000000000E+01 0.  1.
</event>
<event>
 5    1  0.7693226E-002  0.6000000E+02  0.7546771E-02  0.1259629E+00
         11   -1    0    0    0    0  0.00000000000E+00  0.00000000000E+00  0.30000000000E+02  0.30000000000E+02  0.00000000000E+00 0.  1.
        -11   -1    0    0    0    0 -0.00000000000E+00 -0.00000000000E+00 -0.30000000000E+02  0.30000000000E+02  0.00000000000E+00 0. -1.
         23    2    1    2    0    0  0.00000000000E+00  0.00000000000E+00  0.00000000000E+00  0.60000000000E+02  0.60000000000E+02 0.  0.
          5    1    3    3  501    0 -0.26799374441E+02  0.89788614564E+01 -0.88928947224E+01  0.30000000000E+02  0.47000000000E+01 0. -1.
         -5    1    3    3    0  501  0.26799374441E+02 -0.89788614564E+01  0.88928947224E+01  0.30000000000E+02  0.47000000000E+01 0.  1.
</event>
<event>
 5    1  0.7693226E-002  0.6000000E+02  0.7546771E-02  0.1259629E+00
         11   -1    0    0    0    0  0.00000000000E+00  0.00000000000E+00  0.30000000000E+02  0.30000000000E+02  0.00000000000E+00 0. -1.
        -11   -1    0    0    0    0 -0.00000000000E+00 -0.00000000000E+00 -0.30000000000E+02  0.30000000000E+02  0.00000000000E+00 0.  1.
         23    2    1    2    0    0  0.00000000000E+00  0.00000000000E+00  0.00000000000E+00  0.60000000000E+02  0.60000000000E+02 0.  0.
          5    1    3    3  501    0  0.10991569608E+02  0.13635221925E+02  0.23899291216E+02  0.30000000000E+02  0.47000000000E+01 0. -1.
         -5    1    3    3    0  501 -0.10991569608E+02 -0.13635221925E+02 -0.23899291216E+02  0.30000000000E+02  0.47000000000E+01 0.  1.
</event>
<event>
 5    1  0.7693226E-002  0.6000000E+02  0.7546771E-02  0.1259629E+00
         11   -1    0    0    0    0  0.00000000000E+00  0.00000000000E+00  0.30000000000E+02  0.30000000000E+02  0.00000000000E+00 0. -1.
        -11   -1    0    0    0    0 -0.00000000000E+00 -0.00000000000E+00 -0.30000000000E+02  0.30000000000E+02  0.00000000000E+00 0.  1.
         23    2    1    2    0    0  0.00000000000E+00  0.00000000000E+00  0.00000000000E+00  0.60000000000E+02  0.60000000000E+02 0.  0.
          5    1    3    3  501    0  0.51749074684E+00  0.47997941039E+01 -0.29233613870E+02  0.30000000000E+02  0.47000000000E+01 0.  1.
         -5    1    3    3    0  501 -0.51749074684E+00 -0.47997941039E+01  0.29233613870E+02  0.30000000000E+02  0.47000000000E+01 0. -1.
</event>
<event>
 5    1  0.7693226E-002  0.6000000E+02  0.7546771E-02  0.1259629E+00
         11   -1    0    0    0    0  0.00000000000E+00  0.00000000000E+00  0.30000000000E+02  0.30000000000E+02  0.00000000000E+00 0.  1.
        -11   -1    0    0    0    0 -0.00000000000E+00 -0.00000000000E+00 -0.30000000000E+02  0.30000000000E+02  0.00000000000E+00 0. -1.
         23    2    1    2    0    0  0.00000000000E+00  0.00000000000E+00  0.00000000000E+00  0.60000000000E+02  0.60000000000E+02 0.  0.
          5    1    3    3  501    0 -0.81819193144E+01 -0.25657951206E+02 -0.12354583612E+02  0.30000000000E+02  0.47000000000E+01 0. -1.
         -5    1    3    3    0  501  0.81819193144E+01  0.25657951206E+02  0.12354583612E+02  0.30000000000E+02  0.47000000000E+01 0.  1.
</event>
<event>
 5    1  0.7693226E-002  0.6000000E+02  0.7546771E-02  0.1259629E+00
         11   -1    0    0    0    0  0.00000000000E+00  0.00000000000E+00  0.30000000000E+02  0.30000000000E+02  0.00000000000E+00 0.  1.
        -11   -1    0    0    0    0 -0.00000000000E+00 -0.00000000000E+00 -0.30000000000E+02  0.30000000000E+02  0.00000000000E+00 0. -1.
         23    2    1    2    0    0  0.00000000000E+00  0.00000000000E+00  0.00000000000E+00  0.60000000000E+02  0.60000000000E+02 0.  0.
          5    1    3    3  501    0  0.17197933711E+02 -0.11825060025E+02 -0.21031144321E+02  0.30000000000E+02  0.47000000000E+01 0. -1.
         -5    1    3    3    0  501 -0.17197933711E+02  0.11825060025E+02  0.21031144321E+02  0.30000000000E+02  0.47000000000E+01 0.  1.
</event>
<event>
 5    1  0.7693226E-002  0.6000000E+02  0.7546771E-02  0.1259629E+00
         11   -1    0    0    0    0  0.00000000000E+00  0.00000000000E+00  0.30000000000E+02  0.30000000000E+02  0.00000000000E+00 0.  1.
        -11   -1    0    0    0    0 -0.00000000000E+00 -0.00000000000E+00 -0.30000000000E+02  0.30000000000E+02  0.00000000000E+00 0. -1.
         23    2    1    2    0    0  0.00000000000E+00  0.00000000000E+00  0.00000000000E+00  0.60000000000E+02  0.60000000000E+02 0.  0.
          5    1    3    3  501    0  0.15152503264E+02 -0.25379154968E+02  0.20518620703E+01  0.30000000000E+02  0.47000000000E+01 0. -1.
         -5    1    3    3    0  501 -0.15152503264E+02  0.25379154968E+02 -0.20518620703E+01  0.30000000000E+02  0.47000000000E+01 0.  1.
</event>
<event>
 5    1  0.7693226E-002  0.6000000E+02  0.7546771E-02  0.1259629E+00
         11   -1    0    0    0    0  0.00000000000E+00  0.00000000000E+00  0.30000000000E+02  0.30000000000E+02  0.00000000000E+00 0. -1.
        -11   -1    0    0    0    0 -0.00000000000E+00 -0.00000000000E+00 -0.30000000000E+02  0.30000000000E+02  0.00000000000E+00 0.  1.
         23    2    1    2    0    0  0.00000000000E+00  0.00000000000E+00  0.00000000000E+00  0.60000000000E+02  0.60000000000E+02 0.  0.
          5    1    3    3  501    0 -0.11742527323E+02  0.88767434971E+01 -0.25714324354E+02  0.30000000000E+02  0.47000000000E+01 0.  1.
         -5    1    3    3    0  501  0.11742527323E+02 -0.88767434971E+01  0.25714324354E+02  0.30000000000E+02  0.47000000000E+01 0. -1.
</event>
<event>
 5    1  0.7693226E-002  0.6000000E+02  0.7546771E-02  0.1259629E+00
         11   -1    0    0    0    0  0.00000000000E+00  0.00000000000E+00  0.30000000000E+02  0.30000000000E+02  0.00000000000E+00 0.  1.
        -11   -1    0    0    0    0 -0.00000000000E+00 -0.00000000000E+00 -0.30000000000E+02  0.30000000000E+02  0.00000000000E+00 0. -1.
         23    2    1    2    0    0  0.00000000000E+00  0.00000000000E+00  0.00000000000E+00  0.60000000000E+02  0.60000000000E+02 0.  0.
          5    1    3    3  501    0 -0.12854632675E+02 -0.25601750962E+02 -0.75643087250E+01  0.30000000000E+02  0.47000000000E+01 0. -1.
         -5    1    3    3    0  501  0.12854632675E+02  0.25601750962E+02  0.75643087250E+01  0.30000000000E+02  0.47000000000E+01 0.  1.
</event>
<event>
 5    1  0.7693226E-002  0.6000000E+02  0.7546771E-02  0.1259629E+00
         11   -1    0    0    0    0  0.00000000000E+00  0.00000000000E+00  0.30000000000E+02  0.30000000000E+02  0.00000000000E+00 0.  1.
        -11   -1    0    0    0    0 -0.00000000000E+00 -0.00000000000E+00 -0.30000000000E+02  0.30000000000E+02  0.00000000000E+00 0. -1.
         23    2    1    2    0    0  0.00000000000E+00  0.00000000000E+00  0.00000000000E+00  0.60000000000E+02  0.60000000000E+02 0.  0.
          5    1    3    3  501    0  0.11037744132E+02 -0.10348863737E+02 -0.25475070635E+02  0.30000000000E+02  0.47000000000E+01 0. -1.
         -5    1    3    3    0  501 -0.11037744132E+02  0.10348863737E+02  0.25475070635E+02  0.30000000000E+02  0.47000000000E+01 0.  1.
</event>
<event>
 5    1  0.7693226E-002  0.6000000E+02  0.7546771E-02  0.1259629E+00
         11   -1    0    0    0    0  0.00000000000E+00  0.00000000000E+00  0.30000000000E+02  0.30000000000E+02  0.00000000000E+00 0.  1.
        -11   -1    0    0    0    0 -0.00000000000E+00 -0.00000000000E+00 -0.30000000000E+02  0.30000000000E+02  0.00000000000E+00 0. -1.
         23    2    1    2    0    0  0.00000000000E+00  0.00000000000E+00  0.00000000000E+00  0.60000000000E+02  0.60000000000E+02 0.  0.
          5    1    3    3  501    0 -0.89954561829E+01 -0.10978898723E+02 -0.26008759118E+02  0.30000000000E+02  0.47000000000E+01 0. -1.
         -5    1    3    3    0  501  0.89954561829E+01  0.10978898723E+02  0.26008759118E+02  0.30000000000E+02  0.47000000000E+01 0.  1.
</event>
<event>
 5    1  0.7693226E-002  0.6000000E+02  0.7546771E-02  0.1259629E+00
         11   -1    0    0    0    0  0.00000000000E+00  0.00000000000E+00  0.30000000000E+02  0.30000000000E+02  0.00000000000E+00 0.  1.
        -11   -1    0    0    0    0 -0.00000000000E+00 -0.00000000000E+00 -0.30000000000E+02  0.30000000000E+02  0.00000000000E+00 0. -1.
         23    2    1    2    0    0  0.00000000000E+00  0.00000000000E+00  0.00000000000E+00  0.60000000000E+02  0.60000000000E+02 0.  0.
          5    1    3    3  501    0 -0.28033598166E+02 -0.16698571704E+01 -0.94466370164E+01  0.30000000000E+02  0.47000000000E+01 0. -1.
         -5    1    3    3    0  501  0.28033598166E+02  0.16698571704E+01  0.94466370164E+01  0.30000000000E+02  0.47000000000E+01 0.  1.
</event>
<event>
 5    1  0.7693226E-002  0.6000000E+02  0.7546771E-02  0.1259629E+00
         11   -1    0    0    0    0  0.00000000000E+00  0.00000000000E+00  0.30000000000E+02  0.30000000000E+02  0.00000000000E+00 0.  1.
        -11   -1    0    0    0    0 -0.00000000000E+00 -0.00000000000E+00 -0.30000000000E+02  0.30000000000E+02  0.00000000000E+00 0. -1.
         23    2    1    2    0    0  0.00000000000E+00  0.00000000000E+00  0.00000000000E+00  0.60000000000E+02  0.60000000000E+02 0.  0.
          5    1    3    3  501    0  0.14114827263E+02  0.25892437841E+02 -0.28745980518E+01  0.30000000000E+02  0.47000000000E+01 0. -1.
         -5    1    3    3    0  501 -0.14114827263E+02 -0.25892437841E+02  0.28745980518E+01  0.30000000000E+02  0.47000000000E+01 0.  1.
</event>
<event>
 5    1  0.7693226E-002  0.6000000E+02  0.7546771E-02  0.1259629E+00
         11   -1    0    0    0    0  0.00000000000E+00  0.00000000000E+00  0.30000000000E+02  0.30000000000E+02  0.00000000000E+00 0.  1.
        -11   -1    0    0    0    0 -0.00000000000E+00 -0.00000000000E+00 -0.30000000000E+02  0.30000000000E+02  0.00000000000E+00 0. -1.
         23    2    1    2    0    0  0.00000000000E+00  0.00000000000E+00  0.00000000000E+00  0.60000000000E+02  0.60000000000E+02 0.  0.
          5    1    3    3  501    0 -0.82738865521E+01 -0.24837664993E+02 -0.13875993623E+02  0.30000000000E+02  0.47000000000E+01 0. -1.
         -5    1    3    3    0  501  0.82738865521E+01  0.24837664993E+02  0.13875993623E+02  0.30000000000E+02  0.47000000000E+01 0.  1.
</event>
<event>
 5    1  0.7693226E-002  0.6000000E+02  0.7546771E-02  0.1259629E+00
         11   -1    0    0    0    0  0.00000000000E+00  0.00000000000E+00  0.30000000000E+02  0.30000000000E+02  0.00000000000E+00 0.  1.
        -11   -1    0    0    0    0 -0.00000000000E+00 -0.00000000000E+00 -0.30000000000E+02  0.30000000000E+02  0.00000000000E+00 0. -1.
         23    2    1    2    0    0  0.00000000000E+00  0.00000000000E+00  0.00000000000E+00  0.60000000000E+02  0.60000000000E+02 0.  0.
          5    1    3    3  501    0 -0.24335350276E+02 -0.18195917754E+01 -0.16804458120E+02  0.30000000000E+02  0.47000000000E+01 0. -1.
         -5    1    3    3    0  501  0.24335350276E+02  0.18195917754E+01  0.16804458120E+02  0.30000000000E+02  0.47000000000E+01 0.  1.
</event>
<event>
 5    1  0.7693226E-002  0.6000000E+02  0.7546771E-02  0.1259629E+00
         11   -1    0    0    0    0  0.00000000000E+00  0.00000000000E+00  0.30000000000E+02  0.30000000000E+02  0.00000000000E+00 0. -1.
        -11   -1    0    0    0    0 -0.00000000000E+00 -0.00000000000E+00 -0.30000000000E+02  0.30000000000E+02  0.00000000000E+00 0.  1.
         23    2    1    2    0    0  0.00000000000E+00  0.00000000000E+00  0.00000000000E+00  0.60000000000E+02  0.60000000000E+02 0.  0.
          5    1    3    3  501    0 -0.10716477216E+02  0.27011440120E+02 -0.57835299512E+01  0.30000000000E+02  0.47000000000E+01 0.  1.
         -5    1    3    3    0  501  0.10716477216E+02 -0.27011440120E+02  0.57835299512E+01  0.30000000000E+02  0.47000000000E+01 0. -1.
</event>
<event>
 5    1  0.7693226E-002  0.6000000E+02  0.7546771E-02  0.1259629E+00
         11   -1    0    0    0    0  0.00000000000E+00  0.00000000000E+00  0.30000000000E+02  0.30000000000E+02  0.00000000000E+00 0.  1.
        -11   -1    0    0    0    0 -0.00000000000E+00 -0.00000000000E+00 -0.30000000000E+02  0.30000000000E+02  0.00000000000E+00 0. -1.
         23    2    1    2    0    0  0.00000000000E+00  0.00000000000E+00  0.00000000000E+00  0.60000000000E+02  0.60000000000E+02 0.  0.
          5    1    3    3  501    0  0.84703810051E+01  0.27048023369E+02 -0.86352230690E+01  0.30000000000E+02  0.47000000000E+01 0. -1.
         -5    1    3    3    0  501 -0.84703810051E+01 -0.27048023369E+02  0.86352230690E+01  0.30000000000E+02  0.47000000000E+01 0.  1.
</event>
<event>
 5    1  0.7693226E-002  0.6000000E+02  0.7546771E-02  0.1259629E+00
         11   -1    0    0    0    0  0.00000000000E+00  0.00000000000E+00  0.30000000000E+02  0.30000000000E+02  0.00000000000E+00 0.  1.
        -11   -1    0    0    0    0 -0.00000000000E+00 -0.00000000000E+00 -0.30000000000E+02  0.30000000000E+02  0.00000000000E+00 0. -1.
         23    2    1    2    0    0  0.00000000000E+00  0.00000000000E+00  0.00000000000E+00  0.60000000000E+02  0.60000000000E+02 0.  0.
          5    1    3    3  501    0  0.14950397528E+02 -0.33751645919E+01  0.25357521127E+02  0.30000000000E+02  0.47000000000E+01 0.  1.
         -5    1    3    3    0  501 -0.14950397528E+02  0.33751645919E+01 -0.25357521127E+02  0.30000000000E+02  0.47000000000E+01 0. -1.
</event>
<event>
 5    1  0.7693226E-002  0.6000000E+02  0.7546771E-02  0.1259629E+00
         11   -1    0    0    0    0  0.00000000000E+00  0.00000000000E+00  0.30000000000E+02  0.30000000000E+02  0.00000000000E+00 0. -1.
        -11   -1    0    0    0    0 -0.00000000000E+00 -0.00000000000E+00 -0.30000000000E+02  0.30000000000E+02  0.00000000000E+00 0.  1.
         23    2    1    2    0    0  0.00000000000E+00  0.00000000000E+00  0.00000000000E+00  0.60000000000E+02  0.60000000000E+02 0.  0.
          5    1    3    3  501    0 -0.15901414286E+02  0.24882914915E+02  0.24280792923E+01  0.30000000000E+02  0.47000000000E+01 0.  1.
         -5    1    3    3    0  501  0.15901414286E+02 -0.24882914915E+02 -0.24280792923E+01  0.30000000000E+02  0.47000000000E+01 0. -1.
</event>
<event>
 5    1  0.7693226E-002  0.6000000E+02  0.7546771E-02  0.1259629E+00
         11   -1    0    0    0    0  0.00000000000E+00  0.00000000000E+00  0.30000000000E+02  0.30000000000E+02  0.00000000000E+00 0.  1.
        -11   -1    0    0    0    0 -0.00000000000E+00 -0.00000000000E+00 -0.30000000000E+02  0.30000000000E+02  0.00000000000E+00 0. -1.
         23    2    1    2    0    0  0.00000000000E+00  0.00000000000E+00  0.00000000000E+00  0.60000000000E+02  0.60000000000E+02 0.  0.
          5    1    3    3  501    0 -0.13543402926E+02 -0.14993517151E+02 -0.21672117585E+02  0.30000000000E+02  0.47000000000E+01 0. -1.
         -5    1    3    3    0  501  0.13543402926E+02  0.14993517151E+02  0.21672117585E+02  0.30000000000E+02  0.47000000000E+01 0.  1.
</event>
<event>
 5    1  0.7693226E-002  0.6000000E+02  0.7546771E-02  0.1259629E+00
         11   -1    0    0    0    0  0.00000000000E+00  0.00000000000E+00  0.30000000000E+02  0.30000000000E+02  0.00000000000E+00 0. -1.
        -11   -1    0    0    0    0 -0.00000000000E+00 -0.00000000000E+00 -0.30000000000E+02  0.30000000000E+02  0.00000000000E+00 0.  1.
         23    2    1    2    0    0  0.00000000000E+00  0.00000000000E+00  0.00000000000E+00  0.60000000000E+02  0.60000000000E+02 0.  0.
          5    1    3    3  501    0 -0.19611684950E+02  0.17961841189E+01 -0.22137423880E+02  0.30000000000E+02  0.47000000000E+01 0.  1.
         -5    1    3    3    0  501  0.19611684950E+02 -0.17961841189E+01  0.22137423880E+02  0.30000000000E+02  0.47000000000E+01 0. -1.
</event>
<event>
 5    1  0.7693226E-002  0.6000000E+02  0.7546771E-02  0.1259629E+00
         11   -1    0    0    0    0  0.00000000000E+00  0.00000000000E+00  0.30000000000E+02  0.30000000000E+02  0.00000000000E+00 0.  1.
        -11   -1    0    0    0    0 -0.00000000000E+00 -0.00000000000E+00 -0.30000000000E+02  0.30000000000E+02  0.00000000000E+00 0. -1.
         23    2    1    2    0    0  0.00000000000E+00  0.00000000000E+00  0.00000000000E+00  0.60000000000E+02  0.60000000000E+02 0.  0.
          5    1    3    3  501    0  0.35259870653E+01  0.10801533193E+02 -0.27364288697E+02  0.30000000000E+02  0.47000000000E+01 0. -1.
         -5    1    3    3    0  501 -0.35259870653E+01 -0.10801533193E+02  0.27364288697E+02  0.30000000000E+02  0.47000000000E+01 0.  1.
</event>
<event>
 5    1  0.7693226E-002  0.6000000E+02  0.7546771E-02  0.1259629E+00
         11   -1    0    0    0    0  0.00000000000E+00  0.00000000000E+00  0.30000000000E+02  0.30000000000E+02  0.00000000000E+00 0. -1.
        -11   -1    0    0    0    0 -0.00000000000E+00 -0.00000000000E+00 -0.30000000000E+02  0.30000000000E+02  0.00000000000E+00 0.  1.
         23    2    1    2    0    0  0.00000000000E+00  0.00000000000E+00  0.00000000000E+00  0.60000000000E+02  0.60000000000E+02 0.  0.
          5    1    3    3  501    0  0.26729278791E+01 -0.25215163402E+02 -0.15328437335E+02  0.30000000000E+02  0.47000000000E+01 0. -1.
         -5    1    3    3    0  501 -0.26729278791E+01  0.25215163402E+02  0.15328437335E+02  0.30000000000E+02  0.47000000000E+01 0.  1.
</event>
<event>
 5    1  0.7693226E-002  0.6000000E+02  0.7546771E-02  0.1259629E+00
         11   -1    0    0    0    0  0.00000000000E+00  0.00000000000E+00  0.30000000000E+02  0.30000000000E+02  0.00000000000E+00 0.  1.
        -11   -1    0    0    0    0 -0.00000000000E+00 -0.00000000000E+00 -0.30000000000E+02  0.30000000000E+02  0.00000000000E+00 0. -1.
         23    2    1    2    0    0  0.00000000000E+00  0.00000000000E+00  0.00000000000E+00  0.60000000000E+02  0.60000000000E+02 0.  0.
          5    1    3    3  501    0  0.32571028251E+01 -0.30073128916E+01 -0.29296029601E+02  0.30000000000E+02  0.47000000000E+01 0. -1.
         -5    1    3    3    0  501 -0.32571028251E+01  0.30073128916E+01  0.29296029601E+02  0.30000000000E+02  0.47000000000E+01 0.  1.
</event>
<event>
 5    1  0.7693226E-002  0.6000000E+02  0.7546771E-02  0.1259629E+00
         11   -1    0    0    0    0  0.00000000000E+00  0.00000000000E+00  0.30000000000E+02  0.30000000000E+02  0.00000000000E+00 0.  1.
        -11   -1    0    0    0    0 -0.00000000000E+00 -0.00000000000E+00 -0.30000000000E+02  0.30000000000E+02  0.00000000000E+00 0. -1.
         23    2    1    2    0    0  0.00000000000E+00  0.00000000000E+00  0.00000000000E+00  0.60000000000E+02  0.60000000000E+02 0.  0.
          5    1    3    3  501    0 -0.21460999753E+02 -0.20261963046E+02 -0.26054448952E+01  0.30000000000E+02  0.47000000000E+01 0. -1.
         -5    1    3    3    0  501  0.21460999753E+02  0.20261963046E+02  0.26054448952E+01  0.30000000000E+02  0.47000000000E+01 0.  1.
</event>
<event>
 5    1  0.7693226E-002  0.6000000E+02  0.7546771E-02  0.1259629E+00
         11   -1    0    0    0    0  0.00000000000E+00  0.00000000000E+00  0.30000000000E+02  0.30000000000E+02  0.00000000000E+00 0. -1.
        -11   -1    0    0    0    0 -0.00000000000E+00 -0.00000000000E+00 -0.30000000000E+02  0.30000000000E+02  0.00000000000E+00 0.  1.
         23    2    1    2    0    0  0.00000000000E+00  0.00000000000E+00  0.00000000000E+00  0.60000000000E+02  0.60000000000E+02 0.  0.
          5    1    3    3  501    0 -0.62127803288E+01 -0.28970840027E+02 -0.42293344271E-01  0.30000000000E+02  0.47000000000E+01 0.  1.
         -5    1    3    3    0  501  0.62127803288E+01  0.28970840027E+02  0.42293344271E-01  0.30000000000E+02  0.47000000000E+01 0. -1.
</event>
<event>
 5    1  0.7693226E-002  0.6000000E+02  0.7546771E-02  0.1259629E+00
         11   -1    0    0    0    0  0.00000000000E+00  0.00000000000E+00  0.30000000000E+02  0.30000000000E+02  0.00000000000E+00 0.  1.
        -11   -1    0    0    0    0 -0.00000000000E+00 -0.00000000000E+00 -0.30000000000E+02  0.30000000000E+02  0.00000000000E+00 0. -1.
         23    2    1    2    0    0  0.00000000000E+00  0.00000000000E+00  0.00000000000E+00  0.60000000000E+02  0.60000000000E+02 0.  0.
          5    1    3    3  501    0  0.74503252337E+01  0.11337625456E+02  0.26341239586E+02  0.30000000000E+02  0.47000000000E+01 0.  1.
         -5    1    3    3    0  501 -0.74503252337E+01 -0.11337625456E+02 -0.26341239586E+02  0.30000000000E+02  0.47000000000E+01 0. -1.
</event>
<event>
 5    1  0.7693226E-002  0.6000000E+02  0.7546771E-02  0.1259629E+00
         11   -1    0    0    0    0  0.00000000000E+00  0.00000000000E+00  0.30000000000E+02  0.30000000000E+02  0.00000000000E+00 0.  1.
        -11   -1    0    0    0    0 -0.00000000000E+00 -0.00000000000E+00 -0.30000000000E+02  0.30000000000E+02  0.00000000000E+00 0. -1.
         23    2    1    2    0    0  0.00000000000E+00  0.00000000000E+00  0.00000000000E+00  0.60000000000E+02  0.60000000000E+02 0.  0.
          5    1    3    3  501    0  0.13982929678E+02 -0.25142708021E+02  0.70874474259E+01  0.30000000000E+02  0.47000000000E+01 0. -1.
         -5    1    3    3    0  501 -0.13982929678E+02  0.25142708021E+02 -0.70874474259E+01  0.30000000000E+02  0.47000000000E+01 0.  1.
</event>
<event>
 5    1  0.7693226E-002  0.6000000E+02  0.7546771E-02  0.1259629E+00
         11   -1    0    0    0    0  0.00000000000E+00  0.00000000000E+00  0.30000000000E+02  0.30000000000E+02  0.00000000000E+00 0. -1.
        -11   -1    0    0    0    0 -0.00000000000E+00 -0.00000000000E+00 -0.30000000000E+02  0.30000000000E+02  0.00000000000E+00 0.  1.
         23    2    1    2    0    0  0.00000000000E+00  0.00000000000E+00  0.00000000000E+00  0.60000000000E+02  0.60000000000E+02 0.  0.
          5    1    3    3  501    0  0.98128546559E+01  0.21842500213E+02 -0.17450589330E+02  0.30000000000E+02  0.47000000000E+01 0.  1.
         -5    1    3    3    0  501 -0.98128546559E+01 -0.21842500213E+02  0.17450589330E+02  0.30000000000E+02  0.47000000000E+01 0. -1.
</event>
<event>
 5    1  0.7693226E-002  0.6000000E+02  0.7546771E-02  0.1259629E+00
         11   -1    0    0    0    0  0.00000000000E+00  0.00000000000E+00  0.30000000000E+02  0.30000000000E+02  0.00000000000E+00 0.  1.
        -11   -1    0    0    0    0 -0.00000000000E+00 -0.00000000000E+00 -0.30000000000E+02  0.30000000000E+02  0.00000000000E+00 0. -1.
         23    2    1    2    0    0  0.00000000000E+00  0.00000000000E+00  0.00000000000E+00  0.60000000000E+02  0.60000000000E+02 0.  0.
          5    1    3    3  501    0  0.23560109698E+02  0.16926207906E+02 -0.60278285438E+01  0.30000000000E+02  0.47000000000E+01 0. -1.
         -5    1    3    3    0  501 -0.23560109698E+02 -0.16926207906E+02  0.60278285438E+01  0.30000000000E+02  0.47000000000E+01 0.  1.
</event>
<event>
 5    1  0.7693226E-002  0.6000000E+02  0.7546771E-02  0.1259629E+00
         11   -1    0    0    0    0  0.00000000000E+00  0.00000000000E+00  0.30000000000E+02  0.30000000000E+02  0.00000000000E+00 0.  1.
        -11   -1    0    0    0    0 -0.00000000000E+00 -0.00000000000E+00 -0.30000000000E+02  0.30000000000E+02  0.00000000000E+00 0. -1.
         23    2    1    2    0    0  0.00000000000E+00  0.00000000000E+00  0.00000000000E+00  0.60000000000E+02  0.60000000000E+02 0.  0.
          5    1    3    3  501    0 -0.28134024994E+02 -0.57060660385E+01  0.73367191584E+01  0.30000000000E+02  0.47000000000E+01 0. -1.
         -5    1    3    3    0  501  0.28134024994E+02  0.57060660385E+01 -0.73367191584E+01  0.30000000000E+02  0.47000000000E+01 0.  1.
</event>
<event>
 5    1  0.7693226E-002  0.6000000E+02  0.7546771E-02  0.1259629E+00
         11   -1    0    0    0    0  0.00000000000E+00  0.00000000000E+00  0.30000000000E+02  0.30000000000E+02  0.00000000000E+00 0.  1.
        -11   -1    0    0    0    0 -0.00000000000E+00 -0.00000000000E+00 -0.30000000000E+02  0.30000000000E+02  0.00000000000E+00 0. -1.
         23    2    1    2    0    0  0.00000000000E+00  0.00000000000E+00  0.00000000000E+00  0.60000000000E+02  0.60000000000E+02 0.  0.
          5    1    3    3  501    0 -0.51362495287E+01 -0.24841414151E+02  0.15311207782E+02  0.30000000000E+02  0.47000000000E+01 0.  1.
         -5    1    3    3    0  501  0.51362495287E+01  0.24841414151E+02 -0.15311207782E+02  0.30000000000E+02  0.47000000000E+01 0. -1.
</event>
<event>
 5    1  0.7693226E-002  0.6000000E+02  0.7546771E-02  0.1259629E+00
         11   -1    0    0    0    0  0.00000000000E+00  0.00000000000E+00  0.30000000000E+02  0.30000000000E+02  0.00000000000E+00 0.  1.
        -11   -1    0    0    0    0 -0.00000000000E+00 -0.00000000000E+00 -0.30000000000E+02  0.30000000000E+02  0.00000000000E+00 0. -1.
         23    2    1    2    0    0  0.00000000000E+00  0.00000000000E+00  0.00000000000E+00  0.60000000000E+02  0.60000000000E+02 0.  0.
          5    1    3    3  501    0 -0.25790524513E+02 -0.12347292959E+02 -0.77655136304E+01  0.30000000000E+02  0.47000000000E+01 0. -1.
         -5    1    3    3    0  501  0.25790524513E+02  0.12347292959E+02  0.77655136304E+01  0.30000000000E+02  0.47000000000E+01 0.  1.
</event>
<event>
 5    1  0.7693226E-002  0.6000000E+02  0.7546771E-02  0.1259629E+00
         11   -1    0    0    0    0  0.00000000000E+00  0.00000000000E+00  0.30000000000E+02  0.30000000000E+02  0.00000000000E+00 0.  1.
        -11   -1    0    0    0    0 -0.00000000000E+00 -0.00000000000E+00 -0.30000000000E+02  0.30000000000E+02  0.00000000000E+00 0. -1.
         23    2    1    2    0    0  0.00000000000E+00  0.00000000000E+00  0.00000000000E+00  0.60000000000E+02  0.60000000000E+02 0.  0.
          5    1    3    3  501    0  0.16315872500E+02  0.85025915184E+01 -0.23225163983E+02  0.30000000000E+02  0.47000000000E+01 0. -1.
         -5    1    3    3    0  501 -0.16315872500E+02 -0.85025915184E+01  0.23225163983E+02  0.30000000000E+02  0.47000000000E+01 0.  1.
</event>
<event>
 5    1  0.7693226E-002  0.6000000E+02  0.7546771E-02  0.1259629E+00
         11   -1    0    0    0    0  0.00000000000E+00  0.00000000000E+00  0.30000000000E+02  0.30000000000E+02  0.00000000000E+00 0.  1.
        -11   -1    0    0    0    0 -0.00000000000E+00 -0.00000000000E+00 -0.30000000000E+02  0.30000000000E+02  0.00000000000E+00 0. -1.
         23    2    1    2    0    0  0.00000000000E+00  0.00000000000E+00  0.00000000000E+00  0.60000000000E+02  0.60000000000E+02 0.  0.
          5    1    3    3  501    0 -0.24619569133E+02  0.12901474750E+02 -0.10263467492E+02  0.30000000000E+02  0.47000000000E+01 0. -1.
         -5    1    3    3    0  501  0.24619569133E+02 -0.12901474750E+02  0.10263467492E+02  0.30000000000E+02  0.47000000000E+01 0.  1.
</event>
<event>
 5    1  0.7693226E-002  0.6000000E+02  0.7546771E-02  0.1259629E+00
         11   -1    0    0    0    0  0.00000000000E+00  0.00000000000E+00  0.30000000000E+02  0.30000000000E+02  0.00000000000E+00 0.  1.
        -11   -1    0    0    0    0 -0.00000000000E+00 -0.00000000000E+00 -0.30000000000E+02  0.30000000000E+02  0.00000000000E+00 0. -1.
         23    2    1    2    0    0  0.00000000000E+00  0.00000000000E+00  0.00000000000E+00  0.60000000000E+02  0.60000000000E+02 0.  0.
          5    1    3    3  501    0  0.97526818093E+01 -0.14645861063E+02 -0.23838916738E+02  0.30000000000E+02  0.47000000000E+01 0. -1.
         -5    1    3    3    0  501 -0.97526818093E+01  0.14645861063E+02  0.23838916738E+02  0.30000000000E+02  0.47000000000E+01 0.  1.
</event>
<event>
 5    1  0.7693226E-002  0.6000000E+02  0.7546771E-02  0.1259629E+00
         11   -1    0    0    0    0  0.00000000000E+00  0.00000000000E+00  0.30000000000E+02  0.30000000000E+02  0.00000000000E+00 0. -1.
        -11   -1    0    0    0    0 -0.00000000000E+00 -0.00000000000E+00 -0.30000000000E+02  0.30000000000E+02  0.00000000000E+00 0.  1.
         23    2    1    2    0    0  0.00000000000E+00  0.00000000000E+00  0.00000000000E+00  0.60000000000E+02  0.60000000000E+02 0.  0.
          5    1    3    3  501    0 -0.97589705152E+01 -0.75360180019E+01 -0.26942177476E+02  0.30000000000E+02  0.47000000000E+01 0.  1.
         -5    1    3    3    0  501  0.97589705152E+01  0.75360180019E+01  0.26942177476E+02  0.30000000000E+02  0.47000000000E+01 0. -1.
</event>
<event>
 5    1  0.7693226E-002  0.6000000E+02  0.7546771E-02  0.1259629E+00
         11   -1    0    0    0    0  0.00000000000E+00  0.00000000000E+00  0.30000000000E+02  0.30000000000E+02  0.00000000000E+00 0. -1.
        -11   -1    0    0    0    0 -0.00000000000E+00 -0.00000000000E+00 -0.30000000000E+02  0.30000000000E+02  0.00000000000E+00 0.  1.
         23    2    1    2    0    0  0.00000000000E+00  0.00000000000E+00  0.00000000000E+00  0.60000000000E+02  0.60000000000E+02 0.  0.
          5    1    3    3  501    0  0.18872671319E+02 -0.26472641133E+01 -0.22687535565E+02  0.30000000000E+02  0.47000000000E+01 0.  1.
         -5    1    3    3    0  501 -0.18872671319E+02  0.26472641133E+01  0.22687535565E+02  0.30000000000E+02  0.47000000000E+01 0. -1.
</event>
<event>
 5    1  0.7693226E-002  0.6000000E+02  0.7546771E-02  0.1259629E+00
         11   -1    0    0    0    0  0.00000000000E+00  0.00000000000E+00  0.30000000000E+02  0.30000000000E+02  0.00000000000E+00 0.  1.
        -11   -1    0    0    0    0 -0.00000000000E+00 -0.00000000000E+00 -0.30000000000E+02  0.30000000000E+02  0.00000000000E+00 0. -1.
         23    2    1    2    0    0  0.00000000000E+00  0.00000000000E+00  0.00000000000E+00  0.60000000000E+02  0.60000000000E+02 0.  0.
          5    1    3    3  501    0  0.10713839848E+02  0.20068513230E+02 -0.18983635385E+02  0.30000000000E+02  0.47000000000E+01 0. -1.
         -5    1    3    3    0  501 -0.10713839848E+02 -0.20068513230E+02  0.18983635385E+02  0.30000000000E+02  0.47000000000E+01 0.  1.
</event>
<event>
 5    1  0.7693226E-002  0.6000000E+02  0.7546771E-02  0.1259629E+00
         11   -1    0    0    0    0  0.00000000000E+00  0.00000000000E+00  0.30000000000E+02  0.30000000000E+02  0.00000000000E+00 0.  1.
        -11   -1    0    0    0    0 -0.00000000000E+00 -0.00000000000E+00 -0.30000000000E+02  0.30000000000E+02  0.00000000000E+00 0. -1.
         23    2    1    2    0    0  0.00000000000E+00  0.00000000000E+00  0.00000000000E+00  0.60000000000E+02  0.60000000000E+02 0.  0.
          5    1    3    3  501    0 -0.81546301703E+01 -0.42253836799E+01 -0.28170163996E+02  0.30000000000E+02  0.47000000000E+01 0. -1.
         -5    1    3    3    0  501  0.81546301703E+01  0.42253836799E+01  0.28170163996E+02  0.30000000000E+02  0.47000000000E+01 0.  1.
</event>
<event>
 5    1  0.7693226E-002  0.6000000E+02  0.7546771E-02  0.1259629E+00
         11   -1    0    0    0    0  0.00000000000E+00  0.00000000000E+00  0.30000000000E+02  0.30000000000E+02  0.00000000000E+00 0.  1.
        -11   -1    0    0    0    0 -0.00000000000E+00 -0.00000000000E+00 -0.30000000000E+02  0.30000000000E+02  0.00000000000E+00 0. -1.
         23    2    1    2    0    0  0.00000000000E+00  0.00000000000E+00  0.00000000000E+00  0.60000000000E+02  0.60000000000E+02 0.  0.
          5    1    3    3  501    0  0.26318911886E+02 -0.13454427416E+02  0.20501853747E+01  0.30000000000E+02  0.47000000000E+01 0. -1.
         -5    1    3    3    0  501 -0.26318911886E+02  0.13454427416E+02 -0.20501853747E+01  0.30000000000E+02  0.47000000000E+01 0.  1.
</event>
<event>
 5    1  0.7693226E-002  0.6000000E+02  0.7546771E-02  0.1259629E+00
         11   -1    0    0    0    0  0.00000000000E+00  0.00000000000E+00  0.30000000000E+02  0.30000000000E+02  0.00000000000E+00 0.  1.
        -11   -1    0    0    0    0 -0.00000000000E+00 -0.00000000000E+00 -0.30000000000E+02  0.30000000000E+02  0.00000000000E+00 0. -1.
         23    2    1    2    0    0  0.00000000000E+00  0.00000000000E+00  0.00000000000E+00  0.60000000000E+02  0.60000000000E+02 0.  0.
          5    1    3    3  501    0 -0.19866698495E+02 -0.20712279397E+02 -0.73638151195E+01  0.30000000000E+02  0.47000000000E+01 0.  1.
         -5    1    3    3    0  501  0.19866698495E+02  0.20712279397E+02  0.73638151195E+01  0.30000000000E+02  0.47000000000E+01 0. -1.
</event>
<event>
 5    1  0.7693226E-002  0.6000000E+02  0.7546771E-02  0.1259629E+00
         11   -1    0    0    0    0  0.00000000000E+00  0.00000000000E+00  0.30000000000E+02  0.30000000000E+02  0.00000000000E+00 0.  1.
        -11   -1    0    0    0    0 -0.00000000000E+00 -0.00000000000E+00 -0.30000000000E+02  0.30000000000E+02  0.00000000000E+00 0. -1.
         23    2    1    2    0    0  0.00000000000E+00  0.00000000000E+00  0.00000000000E+00  0.60000000000E+02  0.60000000000E+02 0.  0.
          5    1    3    3  501    0 -0.33015647991E+01 -0.12105486556E+02 -0.26841513838E+02  0.30000000000E+02  0.47000000000E+01 0. -1.
         -5    1    3    3    0  501  0.33015647991E+01  0.12105486556E+02  0.26841513838E+02  0.30000000000E+02  0.47000000000E+01 0.  1.
</event>
<event>
 5    1  0.7693226E-002  0.6000000E+02  0.7546771E-02  0.1259629E+00
         11   -1    0    0    0    0  0.00000000000E+00  0.00000000000E+00  0.30000000000E+02  0.30000000000E+02  0.00000000000E+00 0.  1.
        -11   -1    0    0    0    0 -0.00000000000E+00 -0.00000000000E+00 -0.30000000000E+02  0.30000000000E+02  0.00000000000E+00 0. -1.
         23    2    1    2    0    0  0.00000000000E+00  0.00000000000E+00  0.00000000000E+00  0.60000000000E+02  0.60000000000E+02 0.  0.
          5    1    3    3  501    0  0.17102825173E+01 -0.25068344593E+02 -0.15702325723E+02  0.30000000000E+02  0.47000000000E+01 0. -1.
         -5    1    3    3    0  501 -0.17102825173E+01  0.25068344593E+02  0.15702325723E+02  0.30000000000E+02  0.47000000000E+01 0.  1.
</event>
<event>
 5    1  0.7693226E-002  0.6000000E+02  0.7546771E-02  0.1259629E+00
         11   -1    0    0    0    0  0.00000000000E+00  0.00000000000E+00  0.30000000000E+02  0.30000000000E+02  0.00000000000E+00 0.  1.
        -11   -1    0    0    0    0 -0.00000000000E+00 -0.00000000000E+00 -0.30000000000E+02  0.30000000000E+02  0.00000000000E+00 0. -1.
         23    2    1    2    0    0  0.00000000000E+00  0.00000000000E+00  0.00000000000E+00  0.60000000000E+02  0.60000000000E+02 0.  0.
          5    1    3    3  501    0 -0.21619817165E+02  0.20094174691E+02 -0.25918428274E+01  0.30000000000E+02  0.47000000000E+01 0. -1.
         -5    1    3    3    0  501  0.21619817165E+02 -0.20094174691E+02  0.25918428274E+01  0.30000000000E+02  0.47000000000E+01 0.  1.
</event>
<event>
 5    1  0.7693226E-002  0.6000000E+02  0.7546771E-02  0.1259629E+00
         11   -1    0    0    0    0  0.00000000000E+00  0.00000000000E+00  0.30000000000E+02  0.30000000000E+02  0.00000000000E+00 0.  1.
        -11   -1    0    0    0    0 -0.00000000000E+00 -0.00000000000E+00 -0.30000000000E+02  0.30000000000E+02  0.00000000000E+00 0. -1.
         23    2    1    2    0    0  0.00000000000E+00  0.00000000000E+00  0.00000000000E+00  0.60000000000E+02  0.60000000000E+02 0.  0.
          5    1    3    3  501    0 -0.18989169571E+02  0.18223884629E+02 -0.13609242008E+02  0.30000000000E+02  0.47000000000E+01 0. -1.
         -5    1    3    3    0  501  0.18989169571E+02 -0.18223884629E+02  0.13609242008E+02  0.30000000000E+02  0.47000000000E+01 0.  1.
</event>
<event>
 5    1  0.7693226E-002  0.6000000E+02  0.7546771E-02  0.1259629E+00
         11   -1    0    0    0    0  0.00000000000E+00  0.00000000000E+00  0.30000000000E+02  0.30000000000E+02  0.00000000000E+00 0.  1.
        -11   -1    0    0    0    0 -0.00000000000E+00 -0.00000000000E+00 -0.30000000000E+02  0.30000000000E+02  0.00000000000E+00 0. -1.
         23    2    1    2    0    0  0.00000000000E+00  0.00000000000E+00  0.00000000000E+00  0.60000000000E+02  0.60000000000E+02 0.  0.
          5    1    3    3  501    0  0.11348269158E+02 -0.22311667823E+02 -0.15852957644E+02  0.30000000000E+02  0.47000000000E+01 0. -1.
         -5    1    3    3    0  501 -0.11348269158E+02  0.22311667823E+02  0.15852957644E+02  0.30000000000E+02  0.47000000000E+01 0.  1.
</event>
<event>
 5    1  0.7693226E-002  0.6000000E+02  0.7546771E-02  0.1259629E+00
         11   -1    0    0    0    0  0.00000000000E+00  0.00000000000E+00  0.30000000000E+02  0.30000000000E+02  0.00000000000E+00 0.  1.
        -11   -1    0    0    0    0 -0.00000000000E+00 -0.00000000000E+00 -0.30000000000E+02  0.30000000000E+02  0.00000000000E+00 0. -1.
         23    2    1    2    0    0  0.00000000000E+00  0.00000000000E+00  0.00000000000E+00  0.60000000000E+02  0.60000000000E+02 0.  0.
          5    1    3    3  501    0  0.44817320463E+01 -0.55083711839E+01 -0.28765985552E+02  0.30000000000E+02  0.47000000000E+01 0. -1.
         -5    1    3    3    0  501 -0.44817320463E+01  0.55083711839E+01  0.28765985552E+02  0.30000000000E+02  0.47000000000E+01 0.  1.
</event>
<event>
 5    1  0.7693226E-002  0.6000000E+02  0.7546771E-02  0.1259629E+00
         11   -1    0    0    0    0  0.00000000000E+00  0.00000000000E+00  0.30000000000E+02  0.30000000000E+02  0.00000000000E+00 0. -1.
        -11   -1    0    0    0    0 -0.00000000000E+00 -0.00000000000E+00 -0.30000000000E+02  0.30000000000E+02  0.00000000000E+00 0.  1.
         23    2    1    2    0    0  0.00000000000E+00  0.00000000000E+00  0.00000000000E+00  0.60000000000E+02  0.60000000000E+02 0.  0.
          5    1    3    3  501    0  0.17463522081E+02 -0.23912270195E+02  0.10671132192E+01  0.30000000000E+02  0.47000000000E+01 0. -1.
         -5    1    3    3    0  501 -0.17463522081E+02  0.23912270195E+02 -0.10671132192E+01  0.30000000000E+02  0.47000000000E+01 0.  1.
</event>
<event>
 5    1  0.7693226E-002  0.6000000E+02  0.7546771E-02  0.1259629E+00
         11   -1    0    0    0    0  0.00000000000E+00  0.00000000000E+00  0.30000000000E+02  0.30000000000E+02  0.00000000000E+00 0.  1.
        -11   -1    0    0    0    0 -0.00000000000E+00 -0.00000000000E+00 -0.30000000000E+02  0.30000000000E+02  0.00000000000E+00 0. -1.
         23    2    1    2    0    0  0.00000000000E+00  0.00000000000E+00  0.00000000000E+00  0.60000000000E+02  0.60000000000E+02 0.  0.
          5    1    3    3  501    0 -0.28274378832E+02  0.14550935313E+01 -0.87379748504E+01  0.30000000000E+02  0.47000000000E+01 0. -1.
         -5    1    3    3    0  501  0.28274378832E+02 -0.14550935313E+01  0.87379748504E+01  0.30000000000E+02  0.47000000000E+01 0.  1.
</event>
<event>
 5    1  0.7693226E-002  0.6000000E+02  0.7546771E-02  0.1259629E+00
         11   -1    0    0    0    0  0.00000000000E+00  0.00000000000E+00  0.30000000000E+02  0.30000000000E+02  0.00000000000E+00 0. -1.
        -11   -1    0    0    0    0 -0.00000000000E+00 -0.00000000000E+00 -0.30000000000E+02  0.30000000000E+02  0.00000000000E+00 0.  1.
         23    2    1    2    0    0  0.00000000000E+00  0.00000000000E+00  0.00000000000E+00  0.60000000000E+02  0.60000000000E+02 0.  0.
          5    1    3    3  501    0  0.92439347949E+01 -0.75241493598E+01 -0.27126497118E+02  0.30000000000E+02  0.47000000000E+01 0.  1.
         -5    1    3    3    0  501 -0.92439347949E+01  0.75241493598E+01  0.27126497118E+02  0.30000000000E+02  0.47000000000E+01 0. -1.
</event>
<event>
 5    1  0.7693226E-002  0.6000000E+02  0.7546771E-02  0.1259629E+00
         11   -1    0    0    0    0  0.00000000000E+00  0.00000000000E+00  0.30000000000E+02  0.30000000000E+02  0.00000000000E+00 0.  1.
        -11   -1    0    0    0    0 -0.00000000000E+00 -0.00000000000E+00 -0.30000000000E+02  0.30000000000E+02  0.00000000000E+00 0. -1.
         23    2    1    2    0    0  0.00000000000E+00  0.00000000000E+00  0.00000000000E+00  0.60000000000E+02  0.60000000000E+02 0.  0.
          5    1    3    3  501    0 -0.22836691969E+01  0.27855175052E+02 -0.98378899075E+01  0.30000000000E+02  0.47000000000E+01 0. -1.
         -5    1    3    3    0  501  0.22836691969E+01 -0.27855175052E+02  0.98378899075E+01  0.30000000000E+02  0.47000000000E+01 0.  1.
</event>
<event>
 5    1  0.7693226E-002  0.6000000E+02  0.7546771E-02  0.1259629E+00
         11   -1    0    0    0    0  0.00000000000E+00  0.00000000000E+00  0.30000000000E+02  0.30000000000E+02  0.00000000000E+00 0.  1.
        -11   -1    0    0    0    0 -0.00000000000E+00 -0.00000000000E+00 -0.30000000000E+02  0.30000000000E+02  0.00000000000E+00 0. -1.
         23    2    1    2    0    0  0.00000000000E+00  0.00000000000E+00  0.00000000000E+00  0.60000000000E+02  0.60000000000E+02 0.  0.
          5    1    3    3  501    0  0.23635466571E+02  0.14777043898E+02  0.10045580799E+02  0.30000000000E+02  0.47000000000E+01 0. -1.
         -5    1    3    3    0  501 -0.23635466571E+02 -0.14777043898E+02 -0.10045580799E+02  0.30000000000E+02  0.47000000000E+01 0.  1.
</event>
<event>
 5    1  0.7693226E-002  0.6000000E+02  0.7546771E-02  0.1259629E+00
         11   -1    0    0    0    0  0.00000000000E+00  0.00000000000E+00  0.30000000000E+02  0.30000000000E+02  0.00000000000E+00 0. -1.
        -11   -1    0    0    0    0 -0.00000000000E+00 -0.00000000000E+00 -0.30000000000E+02  0.30000000000E+02  0.00000000000E+00 0.  1.
         23    2    1    2    0    0  0.00000000000E+00  0.00000000000E+00  0.00000000000E+00  0.60000000000E+02  0.60000000000E+02 0.  0.
          5    1    3    3  501    0 -0.15539210937E+02  0.10156467727E+02 -0.23093052781E+02  0.30000000000E+02  0.47000000000E+01 0.  1.
         -5    1    3    3    0  501  0.15539210937E+02 -0.10156467727E+02  0.23093052781E+02  0.30000000000E+02  0.47000000000E+01 0. -1.
</event>
<event>
 5    1  0.7693226E-002  0.6000000E+02  0.7546771E-02  0.1259629E+00
         11   -1    0    0    0    0  0.00000000000E+00  0.00000000000E+00  0.30000000000E+02  0.30000000000E+02  0.00000000000E+00 0.  1.
        -11   -1    0    0    0    0 -0.00000000000E+00 -0.00000000000E+00 -0.30000000000E+02  0.30000000000E+02  0.00000000000E+00 0. -1.
         23    2    1    2    0    0  0.00000000000E+00  0.00000000000E+00  0.00000000000E+00  0.60000000000E+02  0.60000000000E+02 0.  0.
          5    1    3    3  501    0 -0.21954497568E+02 -0.19518582011E+02 -0.38645818404E+01  0.30000000000E+02  0.47000000000E+01 0. -1.
         -5    1    3    3    0  501  0.21954497568E+02  0.19518582011E+02  0.38645818404E+01  0.30000000000E+02  0.47000000000E+01 0.  1.
</event>
<event>
 5    1  0.7693226E-002  0.6000000E+02  0.7546771E-02  0.1259629E+00
         11   -1    0    0    0    0  0.00000000000E+00  0.00000000000E+00  0.30000000000E+02  0.30000000000E+02  0.00000000000E+00 0.  1.
        -11   -1    0    0    0    0 -0.00000000000E+00 -0.00000000000E+00 -0.30000000000E+02  0.30000000000E+02  0.00000000000E+00 0. -1.
         23    2    1    2    0    0  0.00000000000E+00  0.00000000000E+00  0.00000000000E+00  0.60000000000E+02  0.60000000000E+02 0.  0.
          5    1    3    3  501    0 -0.24208982758E+02  0.43111908976E+01 -0.16530238560E+02  0.30000000000E+02  0.47000000000E+01 0. -1.
         -5    1    3    3    0  501  0.24208982758E+02 -0.43111908976E+01  0.16530238560E+02  0.30000000000E+02  0.47000000000E+01 0.  1.
</event>
<event>
 5    1  0.7693226E-002  0.6000000E+02  0.7546771E-02  0.1259629E+00
         11   -1    0    0    0    0  0.00000000000E+00  0.00000000000E+00  0.30000000000E+02  0.30000000000E+02  0.00000000000E+00 0.  1.
        -11   -1    0    0    0    0 -0.00000000000E+00 -0.00000000000E+00 -0.30000000000E+02  0.30000000000E+02  0.00000000000E+00 0. -1.
         23    2    1    2    0    0  0.00000000000E+00  0.00000000000E+00  0.00000000000E+00  0.60000000000E+02  0.60000000000E+02 0.  0.
          5    1    3    3  501    0  0.26586761874E+02 -0.12681501638E+02  0.31990012853E+01  0.30000000000E+02  0.47000000000E+01 0. -1.
         -5    1    3    3    0  501 -0.26586761874E+02  0.12681501638E+02 -0.31990012853E+01  0.30000000000E+02  0.47000000000E+01 0.  1.
</event>
<event>
 5    1  0.7693226E-002  0.6000000E+02  0.7546771E-02  0.1259629E+00
         11   -1    0    0    0    0  0.00000000000E+00  0.00000000000E+00  0.30000000000E+02  0.30000000000E+02  0.00000000000E+00 0. -1.
        -11   -1    0    0    0    0 -0.00000000000E+00 -0.00000000000E+00 -0.30000000000E+02  0.30000000000E+02  0.00000000000E+00 0.  1.
         23    2    1    2    0    0  0.00000000000E+00  0.00000000000E+00  0.00000000000E+00  0.60000000000E+02  0.60000000000E+02 0.  0.
          5    1    3    3  501    0 -0.68379201587E+01  0.21499134263E+01 -0.28749447302E+02  0.30000000000E+02  0.47000000000E+01 0.  1.
         -5    1    3    3    0  501  0.68379201587E+01 -0.21499134263E+01  0.28749447302E+02  0.30000000000E+02  0.47000000000E+01 0. -1.
</event>
<event>
 5    1  0.7693226E-002  0.6000000E+02  0.7546771E-02  0.1259629E+00
         11   -1    0    0    0    0  0.00000000000E+00  0.00000000000E+00  0.30000000000E+02  0.30000000000E+02  0.00000000000E+00 0. -1.
        -11   -1    0    0    0    0 -0.00000000000E+00 -0.00000000000E+00 -0.30000000000E+02  0.30000000000E+02  0.00000000000E+00 0.  1.
         23    2    1    2    0    0  0.00000000000E+00  0.00000000000E+00  0.00000000000E+00  0.60000000000E+02  0.60000000000E+02 0.  0.
          5    1    3    3  501    0 -0.51485955957E+01  0.11966189344E+02 -0.26612258002E+02  0.30000000000E+02  0.47000000000E+01 0.  1.
         -5    1    3    3    0  501  0.51485955957E+01 -0.11966189344E+02  0.26612258002E+02  0.30000000000E+02  0.47000000000E+01 0. -1.
</event>
<event>
 5    1  0.7693226E-002  0.6000000E+02  0.7546771E-02  0.1259629E+00
         11   -1    0    0    0    0  0.00000000000E+00  0.00000000000E+00  0.30000000000E+02  0.30000000000E+02  0.00000000000E+00 0.  1.
        -11   -1    0    0    0    0 -0.00000000000E+00 -0.00000000000E+00 -0.30000000000E+02  0.30000000000E+02  0.00000000000E+00 0. -1.
         23    2    1    2    0    0  0.00000000000E+00  0.00000000000E+00  0.00000000000E+00  0.60000000000E+02  0.60000000000E+02 0.  0.
          5    1    3    3  501    0 -0.12143892292E+02  0.39207720827E+01 -0.26740669892E+02  0.30000000000E+02  0.47000000000E+01 0. -1.
         -5    1    3    3    0  501  0.12143892292E+02 -0.39207720827E+01  0.26740669892E+02  0.30000000000E+02  0.47000000000E+01 0.  1.
</event>
<event>
 5    1  0.7693226E-002  0.6000000E+02  0.7546771E-02  0.1259629E+00
         11   -1    0    0    0    0  0.00000000000E+00  0.00000000000E+00  0.30000000000E+02  0.30000000000E+02  0.00000000000E+00 0.  1.
        -11   -1    0    0    0    0 -0.00000000000E+00 -0.00000000000E+00 -0.30000000000E+02  0.30000000000E+02  0.00000000000E+00 0. -1.
         23    2    1    2    0    0  0.00000000000E+00  0.00000000000E+00  0.00000000000E+00  0.60000000000E+02  0.60000000000E+02 0.  0.
          5    1    3    3  501    0 -0.54397526353E+01  0.28544185741E+01 -0.28985710029E+02  0.30000000000E+02  0.47000000000E+01 0. -1.
         -5    1    3    3    0  501  0.54397526353E+01 -0.28544185741E+01  0.28985710029E+02  0.30000000000E+02  0.47000000000E+01 0.  1.
</event>
<event>
 5    1  0.7693226E-002  0.6000000E+02  0.7546771E-02  0.1259629E+00
         11   -1    0    0    0    0  0.00000000000E+00  0.00000000000E+00  0.30000000000E+02  0.30000000000E+02  0.00000000000E+00 0.  1.
        -11   -1    0    0    0    0 -0.00000000000E+00 -0.00000000000E+00 -0.30000000000E+02  0.30000000000E+02  0.00000000000E+00 0. -1.
         23    2    1    2    0    0  0.00000000000E+00  0.00000000000E+00  0.00000000000E+00  0.60000000000E+02  0.60000000000E+02 0.  0.
          5    1    3    3  501    0 -0.11800603547E+02  0.14955458591E+02 -0.22693391423E+02  0.30000000000E+02  0.47000000000E+01 0. -1.
         -5    1    3    3    0  501  0.11800603547E+02 -0.14955458591E+02  0.22693391423E+02  0.30000000000E+02  0.47000000000E+01 0.  1.
</event>
<event>
 5    1  0.7693226E-002  0.6000000E+02  0.7546771E-02  0.1259629E+00
         11   -1    0    0    0    0  0.00000000000E+00  0.00000000000E+00  0.30000000000E+02  0.30000000000E+02  0.00000000000E+00 0.  1.
        -11   -1    0    0    0    0 -0.00000000000E+00 -0.00000000000E+00 -0.30000000000E+02  0.30000000000E+02  0.00000000000E+00 0. -1.
         23    2    1    2    0    0  0.00000000000E+00  0.00000000000E+00  0.00000000000E+00  0.60000000000E+02  0.60000000000E+02 0.  0.
          5    1    3    3  501    0 -0.11750962435E+02  0.72788591565E+01 -0.26207691452E+02  0.30000000000E+02  0.47000000000E+01 0. -1.
         -5    1    3    3    0  501  0.11750962435E+02 -0.72788591565E+01  0.26207691452E+02  0.30000000000E+02  0.47000000000E+01 0.  1.
</event>
<event>
 5    1  0.7693226E-002  0.6000000E+02  0.7546771E-02  0.1259629E+00
         11   -1    0    0    0    0  0.00000000000E+00  0.00000000000E+00  0.30000000000E+02  0.30000000000E+02  0.00000000000E+00 0.  1.
        -11   -1    0    0    0    0 -0.00000000000E+00 -0.00000000000E+00 -0.30000000000E+02  0.30000000000E+02  0.00000000000E+00 0. -1.
         23    2    1    2    0    0  0.00000000000E+00  0.00000000000E+00  0.00000000000E+00  0.60000000000E+02  0.60000000000E+02 0.  0.
          5    1    3    3  501    0 -0.61414534578E+01  0.22400304304E+02 -0.18396165810E+02  0.30000000000E+02  0.47000000000E+01 0. -1.
         -5    1    3    3    0  501  0.61414534578E+01 -0.22400304304E+02  0.18396165810E+02  0.30000000000E+02  0.47000000000E+01 0.  1.
</event>
<event>
 5    1  0.7693226E-002  0.6000000E+02  0.7546771E-02  0.1259629E+00
         11   -1    0    0    0    0  0.00000000000E+00  0.00000000000E+00  0.30000000000E+02  0.30000000000E+02  0.00000000000E+00 0.  1.
        -11   -1    0    0    0    0 -0.00000000000E+00 -0.00000000000E+00 -0.30000000000E+02  0.30000000000E+02  0.00000000000E+00 0. -1.
         23    2    1    2    0    0  0.00000000000E+00  0.00000000000E+00  0.00000000000E+00  0.60000000000E+02  0.60000000000E+02 0.  0.
          5    1    3    3  501    0  0.14643911645E+01 -0.22744760512E+01 -0.29505801416E+02  0.30000000000E+02  0.47000000000E+01 0. -1.
         -5    1    3    3    0  501 -0.14643911645E+01  0.22744760512E+01  0.29505801416E+02  0.30000000000E+02  0.47000000000E+01 0.  1.
</event>
<event>
 5    1  0.7693226E-002  0.6000000E+02  0.7546771E-02  0.1259629E+00
         11   -1    0    0    0    0  0.00000000000E+00  0.00000000000E+00  0.30000000000E+02  0.30000000000E+02  0.00000000000E+00 0.  1.
        -11   -1    0    0    0    0 -0.00000000000E+00 -0.00000000000E+00 -0.30000000000E+02  0.30000000000E+02  0.00000000000E+00 0. -1.
         23    2    1    2    0    0  0.00000000000E+00  0.00000000000E+00  0.00000000000E+00  0.60000000000E+02  0.60000000000E+02 0.  0.
          5    1    3    3  501    0  0.52172073626E+01 -0.23730753827E+02 -0.16957065493E+02  0.30000000000E+02  0.47000000000E+01 0. -1.
         -5    1    3    3    0  501 -0.52172073626E+01  0.23730753827E+02  0.16957065493E+02  0.30000000000E+02  0.47000000000E+01 0. -1.
</event>
<event>
 5    1  0.7693226E-002  0.6000000E+02  0.7546771E-02  0.1259629E+00
         11   -1    0    0    0    0  0.00000000000E+00  0.00000000000E+00  0.30000000000E+02  0.30000000000E+02  0.00000000000E+00 0.  1.
        -11   -1    0    0    0    0 -0.00000000000E+00 -0.00000000000E+00 -0.30000000000E+02  0.30000000000E+02  0.00000000000E+00 0. -1.
         23    2    1    2    0    0  0.00000000000E+00  0.00000000000E+00  0.00000000000E+00  0.60000000000E+02  0.60000000000E+02 0.  0.
          5    1    3    3  501    0 -0.19362259251E+02 -0.10552944435E+02 -0.19790105620E+02  0.30000000000E+02  0.47000000000E+01 0. -1.
         -5    1    3    3    0  501  0.19362259251E+02  0.10552944435E+02  0.19790105620E+02  0.30000000000E+02  0.47000000000E+01 0.  1.
</event>
<event>
 5    1  0.7693226E-002  0.6000000E+02  0.7546771E-02  0.1259629E+00
         11   -1    0    0    0    0  0.00000000000E+00  0.00000000000E+00  0.30000000000E+02  0.30000000000E+02  0.00000000000E+00 0. -1.
        -11   -1    0    0    0    0 -0.00000000000E+00 -0.00000000000E+00 -0.30000000000E+02  0.30000000000E+02  0.00000000000E+00 0.  1.
         23    2    1    2    0    0  0.00000000000E+00  0.00000000000E+00  0.00000000000E+00  0.60000000000E+02  0.60000000000E+02 0.  0.
          5    1    3    3  501    0 -0.22598332227E+02 -0.13477520513E+01 -0.19115672758E+02  0.30000000000E+02  0.47000000000E+01 0.  1.
         -5    1    3    3    0  501  0.22598332227E+02  0.13477520513E+01  0.19115672758E+02  0.30000000000E+02  0.47000000000E+01 0. -1.
</event>
<event>
 5    1  0.7693226E-002  0.6000000E+02  0.7546771E-02  0.1259629E+00
         11   -1    0    0    0    0  0.00000000000E+00  0.00000000000E+00  0.30000000000E+02  0.30000000000E+02  0.00000000000E+00 0. -1.
        -11   -1    0    0    0    0 -0.00000000000E+00 -0.00000000000E+00 -0.30000000000E+02  0.30000000000E+02  0.00000000000E+00 0.  1.
         23    2    1    2    0    0  0.00000000000E+00  0.00000000000E+00  0.00000000000E+00  0.60000000000E+02  0.60000000000E+02 0.  0.
          5    1    3    3  501    0 -0.17337531683E+02  0.12866456702E+02 -0.20292222330E+02  0.30000000000E+02  0.47000000000E+01 0.  1.
         -5    1    3    3    0  501  0.17337531683E+02 -0.12866456702E+02  0.20292222330E+02  0.30000000000E+02  0.47000000000E+01 0. -1.
</event>
<event>
 5    1  0.7693226E-002  0.6000000E+02  0.7546771E-02  0.1259629E+00
         11   -1    0    0    0    0  0.00000000000E+00  0.00000000000E+00  0.30000000000E+02  0.30000000000E+02  0.00000000000E+00 0.  1.
        -11   -1    0    0    0    0 -0.00000000000E+00 -0.00000000000E+00 -0.30000000000E+02  0.30000000000E+02  0.00000000000E+00 0. -1.
         23    2    1    2    0    0  0.00000000000E+00  0.00000000000E+00  0.00000000000E+00  0.60000000000E+02  0.60000000000E+02 0.  0.
          5    1    3    3  501    0  0.93037777652E+01 -0.48654172139E+01  0.27706992522E+02  0.30000000000E+02  0.47000000000E+01 0.  1.
         -5    1    3    3    0  501 -0.93037777652E+01  0.48654172139E+01 -0.27706992522E+02  0.30000000000E+02  0.47000000000E+01 0. -1.
</event>
<event>
 5    1  0.7693226E-002  0.6000000E+02  0.7546771E-02  0.1259629E+00
         11   -1    0    0    0    0  0.00000000000E+00  0.00000000000E+00  0.30000000000E+02  0.30000000000E+02  0.00000000000E+00 0. -1.
        -11   -1    0    0    0    0 -0.00000000000E+00 -0.00000000000E+00 -0.30000000000E+02  0.30000000000E+02  0.00000000000E+00 0.  1.
         23    2    1    2    0    0  0.00000000000E+00  0.00000000000E+00  0.00000000000E+00  0.60000000000E+02  0.60000000000E+02 0.  0.
          5    1    3    3  501    0  0.19321209995E+02  0.19721402032E+02 -0.10754866163E+02  0.30000000000E+02  0.47000000000E+01 0.  1.
         -5    1    3    3    0  501 -0.19321209995E+02 -0.19721402032E+02  0.10754866163E+02  0.30000000000E+02  0.47000000000E+01 0. -1.
</event>
<event>
 5    1  0.7693226E-002  0.6000000E+02  0.7546771E-02  0.1259629E+00
         11   -1    0    0    0    0  0.00000000000E+00  0.00000000000E+00  0.30000000000E+02  0.30000000000E+02  0.00000000000E+00 0.  1.
        -11   -1    0    0    0    0 -0.00000000000E+00 -0.00000000000E+00 -0.30000000000E+02  0.30000000000E+02  0.00000000000E+00 0. -1.
         23    2    1    2    0    0  0.00000000000E+00  0.00000000000E+00  0.00000000000E+00  0.60000000000E+02  0.60000000000E+02 0.  0.
          5    1    3    3  501    0 -0.84109913598E+01 -0.28201866926E+02 -0.34380119624E+01  0.30000000000E+02  0.47000000000E+01 0. -1.
         -5    1    3    3    0  501  0.84109913598E+01  0.28201866926E+02  0.34380119624E+01  0.30000000000E+02  0.47000000000E+01 0.  1.
</event>
<event>
 5    1  0.7693226E-002  0.6000000E+02  0.7546771E-02  0.1259629E+00
         11   -1    0    0    0    0  0.00000000000E+00  0.00000000000E+00  0.30000000000E+02  0.30000000000E+02  0.00000000000E+00 0.  1.
        -11   -1    0    0    0    0 -0.00000000000E+00 -0.00000000000E+00 -0.30000000000E+02  0.30000000000E+02  0.00000000000E+00 0. -1.
         23    2    1    2    0    0  0.00000000000E+00  0.00000000000E+00  0.00000000000E+00  0.60000000000E+02  0.60000000000E+02 0.  0.
          5    1    3    3  501    0  0.39400027983E+01 -0.18000314753E+02 -0.23202910307E+02  0.30000000000E+02  0.47000000000E+01 0. -1.
         -5    1    3    3    0  501 -0.39400027983E+01  0.18000314753E+02  0.23202910307E+02  0.30000000000E+02  0.47000000000E+01 0.  1.
</event>
<event>
 5    1  0.7693226E-002  0.6000000E+02  0.7546771E-02  0.1259629E+00
         11   -1    0    0    0    0  0.00000000000E+00  0.00000000000E+00  0.30000000000E+02  0.30000000000E+02  0.00000000000E+00 0.  1.
        -11   -1    0    0    0    0 -0.00000000000E+00 -0.00000000000E+00 -0.30000000000E+02  0.30000000000E+02  0.00000000000E+00 0. -1.
         23    2    1    2    0    0  0.00000000000E+00  0.00000000000E+00  0.00000000000E+00  0.60000000000E+02  0.60000000000E+02 0.  0.
          5    1    3    3  501    0 -0.18456422409E+02 -0.20883511779E+02 -0.10057306182E+02  0.30000000000E+02  0.47000000000E+01 0. -1.
         -5    1    3    3    0  501  0.18456422409E+02  0.20883511779E+02  0.10057306182E+02  0.30000000000E+02  0.47000000000E+01 0.  1.
</event>
<event>
 5    1  0.7693226E-002  0.6000000E+02  0.7546771E-02  0.1259629E+00
         11   -1    0    0    0    0  0.00000000000E+00  0.00000000000E+00  0.30000000000E+02  0.30000000000E+02  0.00000000000E+00 0. -1.
        -11   -1    0    0    0    0 -0.00000000000E+00 -0.00000000000E+00 -0.30000000000E+02  0.30000000000E+02  0.00000000000E+00 0.  1.
         23    2    1    2    0    0  0.00000000000E+00  0.00000000000E+00  0.00000000000E+00  0.60000000000E+02  0.60000000000E+02 0.  0.
          5    1    3    3  501    0  0.13232522416E+01  0.15983780742E+02  0.24913405161E+02  0.30000000000E+02  0.47000000000E+01 0. -1.
         -5    1    3    3    0  501 -0.13232522416E+01 -0.15983780742E+02 -0.24913405161E+02  0.30000000000E+02  0.47000000000E+01 0.  1.
</event>
<event>
 5    1  0.7693226E-002  0.6000000E+02  0.7546771E-02  0.1259629E+00
         11   -1    0    0    0    0  0.00000000000E+00  0.00000000000E+00  0.30000000000E+02  0.30000000000E+02  0.00000000000E+00 0.  1.
        -11   -1    0    0    0    0 -0.00000000000E+00 -0.00000000000E+00 -0.30000000000E+02  0.30000000000E+02  0.00000000000E+00 0. -1.
         23    2    1    2    0    0  0.00000000000E+00  0.00000000000E+00  0.00000000000E+00  0.60000000000E+02  0.60000000000E+02 0.  0.
          5    1    3    3  501    0 -0.83327749225E+01  0.26776192438E+02 -0.95661058230E+01  0.30000000000E+02  0.47000000000E+01 0. -1.
         -5    1    3    3    0  501  0.83327749225E+01 -0.26776192438E+02  0.95661058230E+01  0.30000000000E+02  0.47000000000E+01 0.  1.
</event>
<event>
 5    1  0.7693226E-002  0.6000000E+02  0.7546771E-02  0.1259629E+00
         11   -1    0    0    0    0  0.00000000000E+00  0.00000000000E+00  0.30000000000E+02  0.30000000000E+02  0.00000000000E+00 0.  1.
        -11   -1    0    0    0    0 -0.00000000000E+00 -0.00000000000E+00 -0.30000000000E+02  0.30000000000E+02  0.00000000000E+00 0. -1.
         23    2    1    2    0    0  0.00000000000E+00  0.00000000000E+00  0.00000000000E+00  0.60000000000E+02  0.60000000000E+02 0.  0.
          5    1    3    3  501    0 -0.20672493185E+01  0.28831557505E+02 -0.65098212025E+01  0.30000000000E+02  0.47000000000E+01 0. -1.
         -5    1    3    3    0  501  0.20672493185E+01 -0.28831557505E+02  0.65098212025E+01  0.30000000000E+02  0.47000000000E+01 0.  1.
</event>
<event>
 5    1  0.7693226E-002  0.6000000E+02  0.7546771E-02  0.1259629E+00
         11   -1    0    0    0    0  0.00000000000E+00  0.00000000000E+00  0.30000000000E+02  0.30000000000E+02  0.00000000000E+00 0.  1.
        -11   -1    0    0    0    0 -0.00000000000E+00 -0.00000000000E+00 -0.30000000000E+02  0.30000000000E+02  0.00000000000E+00 0. -1.
         23    2    1    2    0    0  0.00000000000E+00  0.00000000000E+00  0.00000000000E+00  0.60000000000E+02  0.60000000000E+02 0.  0.
          5    1    3    3  501    0  0.89264578131E+01 -0.11823317223E+02 -0.25660037427E+02  0.30000000000E+02  0.47000000000E+01 0. -1.
         -5    1    3    3    0  501 -0.89264578131E+01  0.11823317223E+02  0.25660037427E+02  0.30000000000E+02  0.47000000000E+01 0.  1.
</event>
<event>
 5    1  0.7693226E-002  0.6000000E+02  0.7546771E-02  0.1259629E+00
         11   -1    0    0    0    0  0.00000000000E+00  0.00000000000E+00  0.30000000000E+02  0.30000000000E+02  0.00000000000E+00 0.  1.
        -11   -1    0    0    0    0 -0.00000000000E+00 -0.00000000000E+00 -0.30000000000E+02  0.30000000000E+02  0.00000000000E+00 0. -1.
         23    2    1    2    0    0  0.00000000000E+00  0.00000000000E+00  0.00000000000E+00  0.60000000000E+02  0.60000000000E+02 0.  0.
          5    1    3    3  501    0 -0.20096983557E+02 -0.84007570594E+01  0.20086028297E+02  0.30000000000E+02  0.47000000000E+01 0.  1.
         -5    1    3    3    0  501  0.20096983557E+02  0.84007570594E+01 -0.20086028297E+02  0.30000000000E+02  0.47000000000E+01 0. -1.
</event>
<event>
 5    1  0.7693226E-002  0.6000000E+02  0.7546771E-02  0.1259629E+00
         11   -1    0    0    0    0  0.00000000000E+00  0.00000000000E+00  0.30000000000E+02  0.30000000000E+02  0.00000000000E+00 0.  1.
        -11   -1    0    0    0    0 -0.00000000000E+00 -0.00000000000E+00 -0.30000000000E+02  0.30000000000E+02  0.00000000000E+00 0. -1.
         23    2    1    2    0    0  0.00000000000E+00  0.00000000000E+00  0.00000000000E+00  0.60000000000E+02  0.60000000000E+02 0.  0.
          5    1    3    3  501    0  0.14195827072E+02  0.25937336508E+02  0.19086824331E+01  0.30000000000E+02  0.47000000000E+01 0. -1.
         -5    1    3    3    0  501 -0.14195827072E+02 -0.25937336508E+02 -0.19086824331E+01  0.30000000000E+02  0.47000000000E+01 0.  1.
</event>
<event>
 5    1  0.7693226E-002  0.6000000E+02  0.7546771E-02  0.1259629E+00
         11   -1    0    0    0    0  0.00000000000E+00  0.00000000000E+00  0.30000000000E+02  0.30000000000E+02  0.00000000000E+00 0. -1.
        -11   -1    0    0    0    0 -0.00000000000E+00 -0.00000000000E+00 -0.30000000000E+02  0.30000000000E+02  0.00000000000E+00 0.  1.
         23    2    1    2    0    0  0.00000000000E+00  0.00000000000E+00  0.00000000000E+00  0.60000000000E+02  0.60000000000E+02 0.  0.
          5    1    3    3  501    0 -0.29025885912E+02 -0.51771451856E+01  0.29334475873E+01  0.30000000000E+02  0.47000000000E+01 0.  1.
         -5    1    3    3    0  501  0.29025885912E+02  0.51771451856E+01 -0.29334475873E+01  0.30000000000E+02  0.47000000000E+01 0. -1.
</event>
<event>
 5    1  0.7693226E-002  0.6000000E+02  0.7546771E-02  0.1259629E+00
         11   -1    0    0    0    0  0.00000000000E+00  0.00000000000E+00  0.30000000000E+02  0.30000000000E+02  0.00000000000E+00 0.  1.
        -11   -1    0    0    0    0 -0.00000000000E+00 -0.00000000000E+00 -0.30000000000E+02  0.30000000000E+02  0.00000000000E+00 0. -1.
         23    2    1    2    0    0  0.00000000000E+00  0.00000000000E+00  0.00000000000E+00  0.60000000000E+02  0.60000000000E+02 0.  0.
          5    1    3    3  501    0  0.47245791632E+01 -0.11652474280E+02 -0.26829241415E+02  0.30000000000E+02  0.47000000000E+01 0. -1.
         -5    1    3    3    0  501 -0.47245791632E+01  0.11652474280E+02  0.26829241415E+02  0.30000000000E+02  0.47000000000E+01 0.  1.
</event>
<event>
 5    1  0.7693226E-002  0.6000000E+02  0.7546771E-02  0.1259629E+00
         11   -1    0    0    0    0  0.00000000000E+00  0.00000000000E+00  0.30000000000E+02  0.30000000000E+02  0.00000000000E+00 0.  1.
        -11   -1    0    0    0    0 -0.00000000000E+00 -0.00000000000E+00 -0.30000000000E+02  0.30000000000E+02  0.00000000000E+00 0. -1.
         23    2    1    2    0    0  0.00000000000E+00  0.00000000000E+00  0.00000000000E+00  0.60000000000E+02  0.60000000000E+02 0.  0.
          5    1    3    3  501    0 -0.18928421165E+02  0.21826569872E+02 -0.65746269728E+01  0.30000000000E+02  0.47000000000E+01 0. -1.
         -5    1    3    3    0  501  0.18928421165E+02 -0.21826569872E+02  0.65746269728E+01  0.30000000000E+02  0.47000000000E+01 0.  1.
</event>
<event>
 5    1  0.7693226E-002  0.6000000E+02  0.7546771E-02  0.1259629E+00
         11   -1    0    0    0    0  0.00000000000E+00  0.00000000000E+00  0.30000000000E+02  0.30000000000E+02  0.00000000000E+00 0.  1.
        -11   -1    0    0    0    0 -0.00000000000E+00 -0.00000000000E+00 -0.30000000000E+02  0.30000000000E+02  0.00000000000E+00 0. -1.
         23    2    1    2    0    0  0.00000000000E+00  0.00000000000E+00  0.00000000000E+00  0.60000000000E+02  0.60000000000E+02 0.  0.
          5    1    3    3  501    0  0.20817628142E+02  0.15117157445E+02 -0.14697207536E+02  0.30000000000E+02  0.47000000000E+01 0. -1.
         -5    1    3    3    0  501 -0.20817628142E+02 -0.15117157445E+02  0.14697207536E+02  0.30000000000E+02  0.47000000000E+01 0.  1.
</event>
<event>
 5    1  0.7693226E-002  0.6000000E+02  0.7546771E-02  0.1259629E+00
         11   -1    0    0    0    0  0.00000000000E+00  0.00000000000E+00  0.30000000000E+02  0.30000000000E+02  0.00000000000E+00 0.  1.
        -11   -1    0    0    0    0 -0.00000000000E+00 -0.00000000000E+00 -0.30000000000E+02  0.30000000000E+02  0.00000000000E+00 0. -1.
         23    2    1    2    0    0  0.00000000000E+00  0.00000000000E+00  0.00000000000E+00  0.60000000000E+02  0.60000000000E+02 0.  0.
          5    1    3    3  501    0 -0.85755384227E+01 -0.14116448232E+02 -0.24598699764E+02  0.30000000000E+02  0.47000000000E+01 0. -1.
         -5    1    3    3    0  501  0.85755384227E+01  0.14116448232E+02  0.24598699764E+02  0.30000000000E+02  0.47000000000E+01 0.  1.
</event>
<event>
 5    1  0.7693226E-002  0.6000000E+02  0.7546771E-02  0.1259629E+00
         11   -1    0    0    0    0  0.00000000000E+00  0.00000000000E+00  0.30000000000E+02  0.30000000000E+02  0.00000000000E+00 0.  1.
        -11   -1    0    0    0    0 -0.00000000000E+00 -0.00000000000E+00 -0.30000000000E+02  0.30000000000E+02  0.00000000000E+00 0. -1.
         23    2    1    2    0    0  0.00000000000E+00  0.00000000000E+00  0.00000000000E+00  0.60000000000E+02  0.60000000000E+02 0.  0.
          5    1    3    3  501    0 -0.19735281174E+02 -0.15656510251E+02 -0.15598152574E+02  0.30000000000E+02  0.47000000000E+01 0. -1.
         -5    1    3    3    0  501  0.19735281174E+02  0.15656510251E+02  0.15598152574E+02  0.30000000000E+02  0.47000000000E+01 0.  1.
</event>
<event>
 5    1  0.7693226E-002  0.6000000E+02  0.7546771E-02  0.1259629E+00
         11   -1    0    0    0    0  0.00000000000E+00  0.00000000000E+00  0.30000000000E+02  0.30000000000E+02  0.00000000000E+00 0.  1.
        -11   -1    0    0    0    0 -0.00000000000E+00 -0.00000000000E+00 -0.30000000000E+02  0.30000000000E+02  0.00000000000E+00 0. -1.
         23    2    1    2    0    0  0.00000000000E+00  0.00000000000E+00  0.00000000000E+00  0.60000000000E+02  0.60000000000E+02 0.  0.
          5    1    3    3  501    0 -0.18552955661E+02 -0.32441939498E+01 -0.22872976236E+02  0.30000000000E+02  0.47000000000E+01 0. -1.
         -5    1    3    3    0  501  0.18552955661E+02  0.32441939498E+01  0.22872976236E+02  0.30000000000E+02  0.47000000000E+01 0.  1.
</event>
<event>
 5    1  0.7693226E-002  0.6000000E+02  0.7546771E-02  0.1259629E+00
         11   -1    0    0    0    0  0.00000000000E+00  0.00000000000E+00  0.30000000000E+02  0.30000000000E+02  0.00000000000E+00 0. -1.
        -11   -1    0    0    0    0 -0.00000000000E+00 -0.00000000000E+00 -0.30000000000E+02  0.30000000000E+02  0.00000000000E+00 0.  1.
         23    2    1    2    0    0  0.00000000000E+00  0.00000000000E+00  0.00000000000E+00  0.60000000000E+02  0.60000000000E+02 0.  0.
          5    1    3    3  501    0  0.13338566429E+02  0.20953731397E+02  0.16153445024E+02  0.30000000000E+02  0.47000000000E+01 0. -1.
         -5    1    3    3    0  501 -0.13338566429E+02 -0.20953731397E+02 -0.16153445024E+02  0.30000000000E+02  0.47000000000E+01 0.  1.
</event>
<event>
 5    1  0.7693226E-002  0.6000000E+02  0.7546771E-02  0.1259629E+00
         11   -1    0    0    0    0  0.00000000000E+00  0.00000000000E+00  0.30000000000E+02  0.30000000000E+02  0.00000000000E+00 0.  1.
        -11   -1    0    0    0    0 -0.00000000000E+00 -0.00000000000E+00 -0.30000000000E+02  0.30000000000E+02  0.00000000000E+00 0. -1.
         23    2    1    2    0    0  0.00000000000E+00  0.00000000000E+00  0.00000000000E+00  0.60000000000E+02  0.60000000000E+02 0.  0.
          5    1    3    3  501    0  0.15340003580E+02 -0.51567073636E+01 -0.24819400866E+02  0.30000000000E+02  0.47000000000E+01 0. -1.
         -5    1    3    3    0  501 -0.15340003580E+02  0.51567073636E+01  0.24819400866E+02  0.30000000000E+02  0.47000000000E+01 0.  1.
</event>
<event>
 5    1  0.7693226E-002  0.6000000E+02  0.7546771E-02  0.1259629E+00
         11   -1    0    0    0    0  0.00000000000E+00  0.00000000000E+00  0.30000000000E+02  0.30000000000E+02  0.00000000000E+00 0.  1.
        -11   -1    0    0    0    0 -0.00000000000E+00 -0.00000000000E+00 -0.30000000000E+02  0.30000000000E+02  0.00000000000E+00 0. -1.
         23    2    1    2    0    0  0.00000000000E+00  0.00000000000E+00  0.00000000000E+00  0.60000000000E+02  0.60000000000E+02 0.  0.
          5    1    3    3  501    0 -0.58387711281E+01  0.26714291320E+02  0.11409004820E+02  0.30000000000E+02  0.47000000000E+01 0. -1.
         -5    1    3    3    0  501  0.58387711281E+01 -0.26714291320E+02 -0.11409004820E+02  0.30000000000E+02  0.47000000000E+01 0.  1.
</event>
<event>
 5    1  0.7693226E-002  0.6000000E+02  0.7546771E-02  0.1259629E+00
         11   -1    0    0    0    0  0.00000000000E+00  0.00000000000E+00  0.30000000000E+02  0.30000000000E+02  0.00000000000E+00 0.  1.
        -11   -1    0    0    0    0 -0.00000000000E+00 -0.00000000000E+00 -0.30000000000E+02  0.30000000000E+02  0.00000000000E+00 0. -1.
         23    2    1    2    0    0  0.00000000000E+00  0.00000000000E+00  0.00000000000E+00  0.60000000000E+02  0.60000000000E+02 0.  0.
          5    1    3    3  501    0  0.13211579253E+02  0.11080015045E+01 -0.26497858523E+02  0.30000000000E+02  0.47000000000E+01 0. -1.
         -5    1    3    3    0  501 -0.13211579253E+02 -0.11080015045E+01  0.26497858523E+02  0.30000000000E+02  0.47000000000E+01 0.  1.
</event>
<event>
 5    1  0.7693226E-002  0.6000000E+02  0.7546771E-02  0.1259629E+00
         11   -1    0    0    0    0  0.00000000000E+00  0.00000000000E+00  0.30000000000E+02  0.30000000000E+02  0.00000000000E+00 0. -1.
        -11   -1    0    0    0    0 -0.00000000000E+00 -0.00000000000E+00 -0.30000000000E+02  0.30000000000E+02  0.00000000000E+00 0.  1.
         23    2    1    2    0    0  0.00000000000E+00  0.00000000000E+00  0.00000000000E+00  0.60000000000E+02  0.60000000000E+02 0.  0.
          5    1    3    3  501    0 -0.18926864778E+02  0.10450439632E+02 -0.20260111085E+02  0.30000000000E+02  0.47000000000E+01 0.  1.
         -5    1    3    3    0  501  0.18926864778E+02 -0.10450439632E+02  0.20260111085E+02  0.30000000000E+02  0.47000000000E+01 0. -1.
</event>
<event>
 5    1  0.7693226E-002  0.6000000E+02  0.7546771E-02  0.1259629E+00
         11   -1    0    0    0    0  0.00000000000E+00  0.00000000000E+00  0.30000000000E+02  0.30000000000E+02  0.00000000000E+00 0.  1.
        -11   -1    0    0    0    0 -0.00000000000E+00 -0.00000000000E+00 -0.30000000000E+02  0.30000000000E+02  0.00000000000E+00 0. -1.
         23    2    1    2    0    0  0.00000000000E+00  0.00000000000E+00  0.00000000000E+00  0.60000000000E+02  0.60000000000E+02 0.  0.
          5    1    3    3  501    0  0.14077107270E+01 -0.26718620490E+02 -0.12729637450E+02  0.30000000000E+02  0.47000000000E+01 0. -1.
         -5    1    3    3    0  501 -0.14077107270E+01  0.26718620490E+02  0.12729637450E+02  0.30000000000E+02  0.47000000000E+01 0.  1.
</event>
<event>
 5    1  0.7693226E-002  0.6000000E+02  0.7546771E-02  0.1259629E+00
         11   -1    0    0    0    0  0.00000000000E+00  0.00000000000E+00  0.30000000000E+02  0.30000000000E+02  0.00000000000E+00 0.  1.
        -11   -1    0    0    0    0 -0.00000000000E+00 -0.00000000000E+00 -0.30000000000E+02  0.30000000000E+02  0.00000000000E+00 0. -1.
         23    2    1    2    0    0  0.00000000000E+00  0.00000000000E+00  0.00000000000E+00  0.60000000000E+02  0.60000000000E+02 0.  0.
          5    1    3    3  501    0  0.19285903953E+02  0.19764588259E+01 -0.22406640070E+02  0.30000000000E+02  0.47000000000E+01 0. -1.
         -5    1    3    3    0  501 -0.19285903953E+02 -0.19764588259E+01  0.22406640070E+02  0.30000000000E+02  0.47000000000E+01 0.  1.
</event>
<event>
 5    1  0.7693226E-002  0.6000000E+02  0.7546771E-02  0.1259629E+00
         11   -1    0    0    0    0  0.00000000000E+00  0.00000000000E+00  0.30000000000E+02  0.30000000000E+02  0.00000000000E+00 0. -1.
        -11   -1    0    0    0    0 -0.00000000000E+00 -0.00000000000E+00 -0.30000000000E+02  0.30000000000E+02  0.00000000000E+00 0.  1.
         23    2    1    2    0    0  0.00000000000E+00  0.00000000000E+00  0.00000000000E+00  0.60000000000E+02  0.60000000000E+02 0.  0.
          5    1    3    3  501    0  0.13394099211E+02 -0.20348260906E+02 -0.16865834827E+02  0.30000000000E+02  0.47000000000E+01 0. -1.
         -5    1    3    3    0  501 -0.13394099211E+02  0.20348260906E+02  0.16865834827E+02  0.30000000000E+02  0.47000000000E+01 0.  1.
</event>
<event>
 5    1  0.7693226E-002  0.6000000E+02  0.7546771E-02  0.1259629E+00
         11   -1    0    0    0    0  0.00000000000E+00  0.00000000000E+00  0.30000000000E+02  0.30000000000E+02  0.00000000000E+00 0. -1.
        -11   -1    0    0    0    0 -0.00000000000E+00 -0.00000000000E+00 -0.30000000000E+02  0.30000000000E+02  0.00000000000E+00 0.  1.
         23    2    1    2    0    0  0.00000000000E+00  0.00000000000E+00  0.00000000000E+00  0.60000000000E+02  0.60000000000E+02 0.  0.
          5    1    3    3  501    0 -0.36448411383E+01  0.28502297951E+02  0.72280111069E+01  0.30000000000E+02  0.47000000000E+01 0.  1.
         -5    1    3    3    0  501  0.36448411383E+01 -0.28502297951E+02 -0.72280111069E+01  0.30000000000E+02  0.47000000000E+01 0. -1.
</event>
<event>
 5    1  0.7693226E-002  0.6000000E+02  0.7546771E-02  0.1259629E+00
         11   -1    0    0    0    0  0.00000000000E+00  0.00000000000E+00  0.30000000000E+02  0.30000000000E+02  0.00000000000E+00 0.  1.
        -11   -1    0    0    0    0 -0.00000000000E+00 -0.00000000000E+00 -0.30000000000E+02  0.30000000000E+02  0.00000000000E+00 0. -1.
         23    2    1    2    0    0  0.00000000000E+00  0.00000000000E+00  0.00000000000E+00  0.60000000000E+02  0.60000000000E+02 0.  0.
          5    1    3    3  501    0  0.85633884994E+01  0.18827726184E+02  0.21215444943E+02  0.30000000000E+02  0.47000000000E+01 0.  1.
         -5    1    3    3    0  501 -0.85633884994E+01 -0.18827726184E+02 -0.21215444943E+02  0.30000000000E+02  0.47000000000E+01 0. -1.
</event>
<event>
 5    1  0.7693226E-002  0.6000000E+02  0.7546771E-02  0.1259629E+00
         11   -1    0    0    0    0  0.00000000000E+00  0.00000000000E+00  0.30000000000E+02  0.30000000000E+02  0.00000000000E+00 0.  1.
        -11   -1    0    0    0    0 -0.00000000000E+00 -0.00000000000E+00 -0.30000000000E+02  0.30000000000E+02  0.00000000000E+00 0. -1.
         23    2    1    2    0    0  0.00000000000E+00  0.00000000000E+00  0.00000000000E+00  0.60000000000E+02  0.60000000000E+02 0.  0.
          5    1    3    3  501    0 -0.18361256388E+02  0.25515489302E+01 -0.23114148522E+02  0.30000000000E+02  0.47000000000E+01 0. -1.
         -5    1    3    3    0  501  0.18361256388E+02 -0.25515489302E+01  0.23114148522E+02  0.30000000000E+02  0.47000000000E+01 0.  1.
</event>
<event>
 5    1  0.7693226E-002  0.6000000E+02  0.7546771E-02  0.1259629E+00
         11   -1    0    0    0    0  0.00000000000E+00  0.00000000000E+00  0.30000000000E+02  0.30000000000E+02  0.00000000000E+00 0.  1.
        -11   -1    0    0    0    0 -0.00000000000E+00 -0.00000000000E+00 -0.30000000000E+02  0.30000000000E+02  0.00000000000E+00 0. -1.
         23    2    1    2    0    0  0.00000000000E+00  0.00000000000E+00  0.00000000000E+00  0.60000000000E+02  0.60000000000E+02 0.  0.
          5    1    3    3  501    0 -0.21500023376E+02  0.46816815780E+01 -0.19842904335E+02  0.30000000000E+02  0.47000000000E+01 0. -1.
         -5    1    3    3    0  501  0.21500023376E+02 -0.46816815780E+01  0.19842904335E+02  0.30000000000E+02  0.47000000000E+01 0.  1.
</event>
<event>
 5    1  0.7693226E-002  0.6000000E+02  0.7546771E-02  0.1259629E+00
         11   -1    0    0    0    0  0.00000000000E+00  0.00000000000E+00  0.30000000000E+02  0.30000000000E+02  0.00000000000E+00 0.  1.
        -11   -1    0    0    0    0 -0.00000000000E+00 -0.00000000000E+00 -0.30000000000E+02  0.30000000000E+02  0.00000000000E+00 0. -1.
         23    2    1    2    0    0  0.00000000000E+00  0.00000000000E+00  0.00000000000E+00  0.60000000000E+02  0.60000000000E+02 0.  0.
          5    1    3    3  501    0  0.33935580220E+01  0.28344463513E+02 -0.79363185499E+01  0.30000000000E+02  0.47000000000E+01 0. -1.
         -5    1    3    3    0  501 -0.33935580220E+01 -0.28344463513E+02  0.79363185499E+01  0.30000000000E+02  0.47000000000E+01 0.  1.
</event>
<event>
 5    1  0.7693226E-002  0.6000000E+02  0.7546771E-02  0.1259629E+00
         11   -1    0    0    0    0  0.00000000000E+00  0.00000000000E+00  0.30000000000E+02  0.30000000000E+02  0.00000000000E+00 0.  1.
        -11   -1    0    0    0    0 -0.00000000000E+00 -0.00000000000E+00 -0.30000000000E+02  0.30000000000E+02  0.00000000000E+00 0. -1.
         23    2    1    2    0    0  0.00000000000E+00  0.00000000000E+00  0.00000000000E+00  0.60000000000E+02  0.60000000000E+02 0.  0.
          5    1    3    3  501    0 -0.64380099763E+01  0.50014781967E+01 -0.28485913069E+02  0.30000000000E+02  0.47000000000E+01 0. -1.
         -5    1    3    3    0  501  0.64380099763E+01 -0.50014781967E+01  0.28485913069E+02  0.30000000000E+02  0.47000000000E+01 0.  1.
</event>
<event>
 5    1  0.7693226E-002  0.6000000E+02  0.7546771E-02  0.1259629E+00
         11   -1    0    0    0    0  0.00000000000E+00  0.00000000000E+00  0.30000000000E+02  0.30000000000E+02  0.00000000000E+00 0. -1.
        -11   -1    0    0    0    0 -0.00000000000E+00 -0.00000000000E+00 -0.30000000000E+02  0.30000000000E+02  0.00000000000E+00 0.  1.
         23    2    1    2    0    0  0.00000000000E+00  0.00000000000E+00  0.00000000000E+00  0.60000000000E+02  0.60000000000E+02 0.  0.
          5    1    3    3  501    0 -0.10068818702E+02 -0.31595060742E+01 -0.27686574568E+02  0.30000000000E+02  0.47000000000E+01 0.  1.
         -5    1    3    3    0  501  0.10068818702E+02  0.31595060742E+01  0.27686574568E+02  0.30000000000E+02  0.47000000000E+01 0. -1.
</event>
<event>
 5    1  0.7693226E-002  0.6000000E+02  0.7546771E-02  0.1259629E+00
         11   -1    0    0    0    0  0.00000000000E+00  0.00000000000E+00  0.30000000000E+02  0.30000000000E+02  0.00000000000E+00 0.  1.
        -11   -1    0    0    0    0 -0.00000000000E+00 -0.00000000000E+00 -0.30000000000E+02  0.30000000000E+02  0.00000000000E+00 0. -1.
         23    2    1    2    0    0  0.00000000000E+00  0.00000000000E+00  0.00000000000E+00  0.60000000000E+02  0.60000000000E+02 0.  0.
          5    1    3    3  501    0 -0.58007230602E+01  0.27814602311E+02 -0.84029465209E+01  0.30000000000E+02  0.47000000000E+01 0. -1.
         -5    1    3    3    0  501  0.58007230602E+01 -0.27814602311E+02  0.84029465209E+01  0.30000000000E+02  0.47000000000E+01 0.  1.
</event>
<event>
 5    1  0.7693226E-002  0.6000000E+02  0.7546771E-02  0.1259629E+00
         11   -1    0    0    0    0  0.00000000000E+00  0.00000000000E+00  0.30000000000E+02  0.30000000000E+02  0.00000000000E+00 0. -1.
        -11   -1    0    0    0    0 -0.00000000000E+00 -0.00000000000E+00 -0.30000000000E+02  0.30000000000E+02  0.00000000000E+00 0.  1.
         23    2    1    2    0    0  0.00000000000E+00  0.00000000000E+00  0.00000000000E+00  0.60000000000E+02  0.60000000000E+02 0.  0.
          5    1    3    3  501    0  0.66579255166E+01  0.48657426875E+00  0.28867720265E+02  0.30000000000E+02  0.47000000000E+01 0. -1.
         -5    1    3    3    0  501 -0.66579255166E+01 -0.48657426875E+00 -0.28867720265E+02  0.30000000000E+02  0.47000000000E+01 0.  1.
</event>
<event>
 5    1  0.7693226E-002  0.6000000E+02  0.7546771E-02  0.1259629E+00
         11   -1    0    0    0    0  0.00000000000E+00  0.00000000000E+00  0.30000000000E+02  0.30000000000E+02  0.00000000000E+00 0.  1.
        -11   -1    0    0    0    0 -0.00000000000E+00 -0.00000000000E+00 -0.30000000000E+02  0.30000000000E+02  0.00000000000E+00 0. -1.
         23    2    1    2    0    0  0.00000000000E+00  0.00000000000E+00  0.00000000000E+00  0.60000000000E+02  0.60000000000E+02 0.  0.
          5    1    3    3  501    0  0.75219257934E+01 -0.13043663561E+02 -0.25518492770E+02  0.30000000000E+02  0.47000000000E+01 0. -1.
         -5    1    3    3    0  501 -0.75219257934E+01  0.13043663561E+02  0.25518492770E+02  0.30000000000E+02  0.47000000000E+01 0.  1.
</event>
<event>
 5    1  0.7693226E-002  0.6000000E+02  0.7546771E-02  0.1259629E+00
         11   -1    0    0    0    0  0.00000000000E+00  0.00000000000E+00  0.30000000000E+02  0.30000000000E+02  0.00000000000E+00 0.  1.
        -11   -1    0    0    0    0 -0.00000000000E+00 -0.00000000000E+00 -0.30000000000E+02  0.30000000000E+02  0.00000000000E+00 0. -1.
         23    2    1    2    0    0  0.00000000000E+00  0.00000000000E+00  0.00000000000E+00  0.60000000000E+02  0.60000000000E+02 0.  0.
          5    1    3    3  501    0  0.21307600098E+02  0.15872999525E+02 -0.13112744341E+02  0.30000000000E+02  0.47000000000E+01 0. -1.
         -5    1    3    3    0  501 -0.21307600098E+02 -0.15872999525E+02  0.13112744341E+02  0.30000000000E+02  0.47000000000E+01 0.  1.
</event>
<event>
 5    1  0.7693226E-002  0.6000000E+02  0.7546771E-02  0.1259629E+00
         11   -1    0    0    0    0  0.00000000000E+00  0.00000000000E+00  0.30000000000E+02  0.30000000000E+02  0.00000000000E+00 0. -1.
        -11   -1    0    0    0    0 -0.00000000000E+00 -0.00000000000E+00 -0.30000000000E+02  0.30000000000E+02  0.00000000000E+00 0.  1.
         23    2    1    2    0    0  0.00000000000E+00  0.00000000000E+00  0.00000000000E+00  0.60000000000E+02  0.60000000000E+02 0.  0.
          5    1    3    3  501    0 -0.17149582104E+02 -0.22352202579E+02 -0.91750135449E+01  0.30000000000E+02  0.47000000000E+01 0.  1.
         -5    1    3    3    0  501  0.17149582104E+02  0.22352202579E+02  0.91750135449E+01  0.30000000000E+02  0.47000000000E+01 0. -1.
</event>
<event>
 5    1  0.7693226E-002  0.6000000E+02  0.7546771E-02  0.1259629E+00
         11   -1    0    0    0    0  0.00000000000E+00  0.00000000000E+00  0.30000000000E+02  0.30000000000E+02  0.00000000000E+00 0. -1.
        -11   -1    0    0    0    0 -0.00000000000E+00 -0.00000000000E+00 -0.30000000000E+02  0.30000000000E+02  0.00000000000E+00 0.  1.
         23    2    1    2    0    0  0.00000000000E+00  0.00000000000E+00  0.00000000000E+00  0.60000000000E+02  0.60000000000E+02 0.  0.
          5    1    3    3  501    0 -0.21501675309E+02 -0.14500525296E+01 -0.20334338115E+02  0.30000000000E+02  0.47000000000E+01 0.  1.
         -5    1    3    3    0  501  0.21501675309E+02  0.14500525296E+01  0.20334338115E+02  0.30000000000E+02  0.47000000000E+01 0. -1.
</event>
<event>
 5    1  0.7693226E-002  0.6000000E+02  0.7546771E-02  0.1259629E+00
         11   -1    0    0    0    0  0.00000000000E+00  0.00000000000E+00  0.30000000000E+02  0.30000000000E+02  0.00000000000E+00 0.  1.
        -11   -1    0    0    0    0 -0.00000000000E+00 -0.00000000000E+00 -0.30000000000E+02  0.30000000000E+02  0.00000000000E+00 0. -1.
         23    2    1    2    0    0  0.00000000000E+00  0.00000000000E+00  0.00000000000E+00  0.60000000000E+02  0.60000000000E+02 0.  0.
          5    1    3    3  501    0 -0.54876230063E+01  0.27709388806E+02 -0.89434761539E+01  0.30000000000E+02  0.47000000000E+01 0. -1.
         -5    1    3    3    0  501  0.54876230063E+01 -0.27709388806E+02  0.89434761539E+01  0.30000000000E+02  0.47000000000E+01 0.  1.
</event>
<event>
 5    1  0.7693226E-002  0.6000000E+02  0.7546771E-02  0.1259629E+00
         11   -1    0    0    0    0  0.00000000000E+00  0.00000000000E+00  0.30000000000E+02  0.30000000000E+02  0.00000000000E+00 0.  1.
        -11   -1    0    0    0    0 -0.00000000000E+00 -0.00000000000E+00 -0.30000000000E+02  0.30000000000E+02  0.00000000000E+00 0. -1.
         23    2    1    2    0    0  0.00000000000E+00  0.00000000000E+00  0.00000000000E+00  0.60000000000E+02  0.60000000000E+02 0.  0.
          5    1    3    3  501    0 -0.14102465010E+02  0.59727309263E+01  0.25364482371E+02  0.30000000000E+02  0.47000000000E+01 0.  1.
         -5    1    3    3    0  501  0.14102465010E+02 -0.59727309263E+01 -0.25364482371E+02  0.30000000000E+02  0.47000000000E+01 0. -1.
</event>
<event>
 5    1  0.7693226E-002  0.6000000E+02  0.7546771E-02  0.1259629E+00
         11   -1    0    0    0    0  0.00000000000E+00  0.00000000000E+00  0.30000000000E+02  0.30000000000E+02  0.00000000000E+00 0.  1.
        -11   -1    0    0    0    0 -0.00000000000E+00 -0.00000000000E+00 -0.30000000000E+02  0.30000000000E+02  0.00000000000E+00 0. -1.
         23    2    1    2    0    0  0.00000000000E+00  0.00000000000E+00  0.00000000000E+00  0.60000000000E+02  0.60000000000E+02 0.  0.
          5    1    3    3  501    0  0.25280754389E+02 -0.15435159802E+02 -0.74114737115E+00  0.30000000000E+02  0.47000000000E+01 0. -1.
         -5    1    3    3    0  501 -0.25280754389E+02  0.15435159802E+02  0.74114737115E+00  0.30000000000E+02  0.47000000000E+01 0.  1.
</event>
<event>
 5    1  0.7693226E-002  0.6000000E+02  0.7546771E-02  0.1259629E+00
         11   -1    0    0    0    0  0.00000000000E+00  0.00000000000E+00  0.30000000000E+02  0.30000000000E+02  0.00000000000E+00 0.  1.
        -11   -1    0    0    0    0 -0.00000000000E+00 -0.00000000000E+00 -0.30000000000E+02  0.30000000000E+02  0.00000000000E+00 0. -1.
         23    2    1    2    0    0  0.00000000000E+00  0.00000000000E+00  0.00000000000E+00  0.60000000000E+02  0.60000000000E+02 0.  0.
          5    1    3    3  501    0 -0.12904634872E+02 -0.15808105866E+02 -0.21482183030E+02  0.30000000000E+02  0.47000000000E+01 0. -1.
         -5    1    3    3    0  501  0.12904634872E+02  0.15808105866E+02  0.21482183030E+02  0.30000000000E+02  0.47000000000E+01 0.  1.
</event>
<event>
 5    1  0.7693226E-002  0.6000000E+02  0.7546771E-02  0.1259629E+00
         11   -1    0    0    0    0  0.00000000000E+00  0.00000000000E+00  0.30000000000E+02  0.30000000000E+02  0.00000000000E+00 0.  1.
        -11   -1    0    0    0    0 -0.00000000000E+00 -0.00000000000E+00 -0.30000000000E+02  0.30000000000E+02  0.00000000000E+00 0. -1.
         23    2    1    2    0    0  0.00000000000E+00  0.00000000000E+00  0.00000000000E+00  0.60000000000E+02  0.60000000000E+02 0.  0.
          5    1    3    3  501    0  0.29403964002E+02  0.36492204498E+01  0.95440664718E-02  0.30000000000E+02  0.47000000000E+01 0. -1.
         -5    1    3    3    0  501 -0.29403964002E+02 -0.36492204498E+01 -0.95440664718E-02  0.30000000000E+02  0.47000000000E+01 0.  1.
</event>
<event>
 5    1  0.7693226E-002  0.6000000E+02  0.7546771E-02  0.1259629E+00
         11   -1    0    0    0    0  0.00000000000E+00  0.00000000000E+00  0.30000000000E+02  0.30000000000E+02  0.00000000000E+00 0.  1.
        -11   -1    0    0    0    0 -0.00000000000E+00 -0.00000000000E+00 -0.30000000000E+02  0.30000000000E+02  0.00000000000E+00 0. -1.
         23    2    1    2    0    0  0.00000000000E+00  0.00000000000E+00  0.00000000000E+00  0.60000000000E+02  0.60000000000E+02 0.  0.
          5    1    3    3  501    0 -0.35106587202E+01 -0.28920616583E+02 -0.54021488162E+01  0.30000000000E+02  0.47000000000E+01 0. -1.
         -5    1    3    3    0  501  0.35106587202E+01  0.28920616583E+02  0.54021488162E+01  0.30000000000E+02  0.47000000000E+01 0.  1.
</event>
<event>
 5    1  0.7693226E-002  0.6000000E+02  0.7546771E-02  0.1259629E+00
         11   -1    0    0    0    0  0.00000000000E+00  0.00000000000E+00  0.30000000000E+02  0.30000000000E+02  0.00000000000E+00 0.  1.
        -11   -1    0    0    0    0 -0.00000000000E+00 -0.00000000000E+00 -0.30000000000E+02  0.30000000000E+02  0.00000000000E+00 0. -1.
         23    2    1    2    0    0  0.00000000000E+00  0.00000000000E+00  0.00000000000E+00  0.60000000000E+02  0.60000000000E+02 0.  0.
          5    1    3    3  501    0 -0.21365057417E+02 -0.13861614635E+02  0.15142653707E+02  0.30000000000E+02  0.47000000000E+01 0.  1.
         -5    1    3    3    0  501  0.21365057417E+02  0.13861614635E+02 -0.15142653707E+02  0.30000000000E+02  0.47000000000E+01 0. -1.
</event>
<event>
 5    1  0.7693226E-002  0.6000000E+02  0.7546771E-02  0.1259629E+00
         11   -1    0    0    0    0  0.00000000000E+00  0.00000000000E+00  0.30000000000E+02  0.30000000000E+02  0.00000000000E+00 0.  1.
        -11   -1    0    0    0    0 -0.00000000000E+00 -0.00000000000E+00 -0.30000000000E+02  0.30000000000E+02  0.00000000000E+00 0. -1.
         23    2    1    2    0    0  0.00000000000E+00  0.00000000000E+00  0.00000000000E+00  0.60000000000E+02  0.60000000000E+02 0.  0.
          5    1    3    3  501    0 -0.29063610473E+01 -0.20152451049E+01 -0.29417713246E+02  0.30000000000E+02  0.47000000000E+01 0. -1.
         -5    1    3    3    0  501  0.29063610473E+01  0.20152451049E+01  0.29417713246E+02  0.30000000000E+02  0.47000000000E+01 0.  1.
</event>
<event>
 5    1  0.7693226E-002  0.6000000E+02  0.7546771E-02  0.1259629E+00
         11   -1    0    0    0    0  0.00000000000E+00  0.00000000000E+00  0.30000000000E+02  0.30000000000E+02  0.00000000000E+00 0.  1.
        -11   -1    0    0    0    0 -0.00000000000E+00 -0.00000000000E+00 -0.30000000000E+02  0.30000000000E+02  0.00000000000E+00 0. -1.
         23    2    1    2    0    0  0.00000000000E+00  0.00000000000E+00  0.00000000000E+00  0.60000000000E+02  0.60000000000E+02 0.  0.
          5    1    3    3  501    0  0.11100382168E+01  0.19456522499E+02 -0.22318636773E+02  0.30000000000E+02  0.47000000000E+01 0. -1.
         -5    1    3    3    0  501 -0.11100382168E+01 -0.19456522499E+02  0.22318636773E+02  0.30000000000E+02  0.47000000000E+01 0.  1.
</event>
<event>
 5    1  0.7693226E-002  0.6000000E+02  0.7546771E-02  0.1259629E+00
         11   -1    0    0    0    0  0.00000000000E+00  0.00000000000E+00  0.30000000000E+02  0.30000000000E+02  0.00000000000E+00 0.  1.
        -11   -1    0    0    0    0 -0.00000000000E+00 -0.00000000000E+00 -0.30000000000E+02  0.30000000000E+02  0.00000000000E+00 0. -1.
         23    2    1    2    0    0  0.00000000000E+00  0.00000000000E+00  0.00000000000E+00  0.60000000000E+02  0.60000000000E+02 0.  0.
          5    1    3    3  501    0  0.23181169121E+02  0.16434704224E+02 -0.83930861580E+01  0.30000000000E+02  0.47000000000E+01 0. -1.
         -5    1    3    3    0  501 -0.23181169121E+02 -0.16434704224E+02  0.83930861580E+01  0.30000000000E+02  0.47000000000E+01 0.  1.
</event>
<event>
 5    1  0.7693226E-002  0.6000000E+02  0.7546771E-02  0.1259629E+00
         11   -1    0    0    0    0  0.00000000000E+00  0.00000000000E+00  0.30000000000E+02  0.30000000000E+02  0.00000000000E+00 0. -1.
        -11   -1    0    0    0    0 -0.00000000000E+00 -0.00000000000E+00 -0.30000000000E+02  0.30000000000E+02  0.00000000000E+00 0.  1.
         23    2    1    2    0    0  0.00000000000E+00  0.00000000000E+00  0.00000000000E+00  0.60000000000E+02  0.60000000000E+02 0.  0.
          5    1    3    3  501    0  0.52328079246E+01  0.13324068121E+02 -0.25942184371E+02  0.30000000000E+02  0.47000000000E+01 0.  1.
         -5    1    3    3    0  501 -0.52328079246E+01 -0.13324068121E+02  0.25942184371E+02  0.30000000000E+02  0.47000000000E+01 0. -1.
</event>
<event>
 5    1  0.7693226E-002  0.6000000E+02  0.7546771E-02  0.1259629E+00
         11   -1    0    0    0    0  0.00000000000E+00  0.00000000000E+00  0.30000000000E+02  0.30000000000E+02  0.00000000000E+00 0. -1.
        -11   -1    0    0    0    0 -0.00000000000E+00 -0.00000000000E+00 -0.30000000000E+02  0.30000000000E+02  0.00000000000E+00 0.  1.
         23    2    1    2    0    0  0.00000000000E+00  0.00000000000E+00  0.00000000000E+00  0.60000000000E+02  0.60000000000E+02 0.  0.
          5    1    3    3  501    0  0.27327956347E+02 -0.14456568219E+01 -0.11357943398E+02  0.30000000000E+02  0.47000000000E+01 0.  1.
         -5    1    3    3    0  501 -0.27327956347E+02  0.14456568219E+01  0.11357943398E+02  0.30000000000E+02  0.47000000000E+01 0. -1.
</event>
<event>
 5    1  0.7693226E-002  0.6000000E+02  0.7546771E-02  0.1259629E+00
         11   -1    0    0    0    0  0.00000000000E+00  0.00000000000E+00  0.30000000000E+02  0.30000000000E+02  0.00000000000E+00 0.  1.
        -11   -1    0    0    0    0 -0.00000000000E+00 -0.00000000000E+00 -0.30000000000E+02  0.30000000000E+02  0.00000000000E+00 0. -1.
         23    2    1    2    0    0  0.00000000000E+00  0.00000000000E+00  0.00000000000E+00  0.60000000000E+02  0.60000000000E+02 0.  0.
          5    1    3    3  501    0  0.17777985048E+02  0.21204968147E+02 -0.10592571620E+02  0.30000000000E+02  0.47000000000E+01 0. -1.
         -5    1    3    3    0  501 -0.17777985048E+02 -0.21204968147E+02  0.10592571620E+02  0.30000000000E+02  0.47000000000E+01 0.  1.
</event>
<event>
 5    1  0.7693226E-002  0.6000000E+02  0.7546771E-02  0.1259629E+00
         11   -1    0    0    0    0  0.00000000000E+00  0.00000000000E+00  0.30000000000E+02  0.30000000000E+02  0.00000000000E+00 0. -1.
        -11   -1    0    0    0    0 -0.00000000000E+00 -0.00000000000E+00 -0.30000000000E+02  0.30000000000E+02  0.00000000000E+00 0.  1.
         23    2    1    2    0    0  0.00000000000E+00  0.00000000000E+00  0.00000000000E+00  0.60000000000E+02  0.60000000000E+02 0.  0.
          5    1    3    3  501    0  0.13995247143E+02  0.25961685037E+02 -0.28344254171E+01  0.30000000000E+02  0.47000000000E+01 0.  1.
         -5    1    3    3    0  501 -0.13995247143E+02 -0.25961685037E+02  0.28344254171E+01  0.30000000000E+02  0.47000000000E+01 0. -1.
</event>
<event>
 5    1  0.7693226E-002  0.6000000E+02  0.7546771E-02  0.1259629E+00
         11   -1    0    0    0    0  0.00000000000E+00  0.00000000000E+00  0.30000000000E+02  0.30000000000E+02  0.00000000000E+00 0.  1.
        -11   -1    0    0    0    0 -0.00000000000E+00 -0.00000000000E+00 -0.30000000000E+02  0.30000000000E+02  0.00000000000E+00 0. -1.
         23    2    1    2    0    0  0.00000000000E+00  0.00000000000E+00  0.00000000000E+00  0.60000000000E+02  0.60000000000E+02 0.  0.
          5    1    3    3  501    0  0.11749181412E+02 -0.19717941980E+02 -0.18736848727E+02  0.30000000000E+02  0.47000000000E+01 0. -1.
         -5    1    3    3    0  501 -0.11749181412E+02  0.19717941980E+02  0.18736848727E+02  0.30000000000E+02  0.47000000000E+01 0.  1.
</event>
<event>
 5    1  0.7693226E-002  0.6000000E+02  0.7546771E-02  0.1259629E+00
         11   -1    0    0    0    0  0.00000000000E+00  0.00000000000E+00  0.30000000000E+02  0.30000000000E+02  0.00000000000E+00 0.  1.
        -11   -1    0    0    0    0 -0.00000000000E+00 -0.00000000000E+00 -0.30000000000E+02  0.30000000000E+02  0.00000000000E+00 0. -1.
         23    2    1    2    0    0  0.00000000000E+00  0.00000000000E+00  0.00000000000E+00  0.60000000000E+02  0.60000000000E+02 0.  0.
          5    1    3    3  501    0 -0.20833425919E+02  0.14937790983E+02 -0.14857347173E+02  0.30000000000E+02  0.47000000000E+01 0. -1.
         -5    1    3    3    0  501  0.20833425919E+02 -0.14937790983E+02  0.14857347173E+02  0.30000000000E+02  0.47000000000E+01 0.  1.
</event>
<event>
 5    1  0.7693226E-002  0.6000000E+02  0.7546771E-02  0.1259629E+00
         11   -1    0    0    0    0  0.00000000000E+00  0.00000000000E+00  0.30000000000E+02  0.30000000000E+02  0.00000000000E+00 0.  1.
        -11   -1    0    0    0    0 -0.00000000000E+00 -0.00000000000E+00 -0.30000000000E+02  0.30000000000E+02  0.00000000000E+00 0. -1.
         23    2    1    2    0    0  0.00000000000E+00  0.00000000000E+00  0.00000000000E+00  0.60000000000E+02  0.60000000000E+02 0.  0.
          5    1    3    3  501    0 -0.22586871331E+02  0.18878756764E+02 -0.33668659823E+01  0.30000000000E+02  0.47000000000E+01 0. -1.
         -5    1    3    3    0  501  0.22586871331E+02 -0.18878756764E+02  0.33668659823E+01  0.30000000000E+02  0.47000000000E+01 0.  1.
</event>
<event>
 5    1  0.7693226E-002  0.6000000E+02  0.7546771E-02  0.1259629E+00
         11   -1    0    0    0    0  0.00000000000E+00  0.00000000000E+00  0.30000000000E+02  0.30000000000E+02  0.00000000000E+00 0.  1.
        -11   -1    0    0    0    0 -0.00000000000E+00 -0.00000000000E+00 -0.30000000000E+02  0.30000000000E+02  0.00000000000E+00 0. -1.
         23    2    1    2    0    0  0.00000000000E+00  0.00000000000E+00  0.00000000000E+00  0.60000000000E+02  0.60000000000E+02 0.  0.
          5    1    3    3  501    0 -0.24844348914E+02  0.11657871617E+02 -0.11169707085E+02  0.30000000000E+02  0.47000000000E+01 0. -1.
         -5    1    3    3    0  501  0.24844348914E+02 -0.11657871617E+02  0.11169707085E+02  0.30000000000E+02  0.47000000000E+01 0.  1.
</event>
<event>
 5    1  0.7693226E-002  0.6000000E+02  0.7546771E-02  0.1259629E+00
         11   -1    0    0    0    0  0.00000000000E+00  0.00000000000E+00  0.30000000000E+02  0.30000000000E+02  0.00000000000E+00 0.  1.
        -11   -1    0    0    0    0 -0.00000000000E+00 -0.00000000000E+00 -0.30000000000E+02  0.30000000000E+02  0.00000000000E+00 0. -1.
         23    2    1    2    0    0  0.00000000000E+00  0.00000000000E+00  0.00000000000E+00  0.60000000000E+02  0.60000000000E+02 0.  0.
          5    1    3    3  501    0  0.88612027064E+01  0.16755336906E+02  0.22773839636E+02  0.30000000000E+02  0.47000000000E+01 0.  1.
         -5    1    3    3    0  501 -0.88612027064E+01 -0.16755336906E+02 -0.22773839636E+02  0.30000000000E+02  0.47000000000E+01 0. -1.
</event>
<event>
 5    1  0.7693226E-002  0.6000000E+02  0.7546771E-02  0.1259629E+00
         11   -1    0    0    0    0  0.00000000000E+00  0.00000000000E+00  0.30000000000E+02  0.30000000000E+02  0.00000000000E+00 0.  1.
        -11   -1    0    0    0    0 -0.00000000000E+00 -0.00000000000E+00 -0.30000000000E+02  0.30000000000E+02  0.00000000000E+00 0. -1.
         23    2    1    2    0    0  0.00000000000E+00  0.00000000000E+00  0.00000000000E+00  0.60000000000E+02  0.60000000000E+02 0.  0.
          5    1    3    3  501    0  0.70530802103E+01 -0.22238955907E+01 -0.28691781889E+02  0.30000000000E+02  0.47000000000E+01 0. -1.
         -5    1    3    3    0  501 -0.70530802103E+01  0.22238955907E+01  0.28691781889E+02  0.30000000000E+02  0.47000000000E+01 0.  1.
</event>
<event>
 5    1  0.7693226E-002  0.6000000E+02  0.7546771E-02  0.1259629E+00
         11   -1    0    0    0    0  0.00000000000E+00  0.00000000000E+00  0.30000000000E+02  0.30000000000E+02  0.00000000000E+00 0.  1.
        -11   -1    0    0    0    0 -0.00000000000E+00 -0.00000000000E+00 -0.30000000000E+02  0.30000000000E+02  0.00000000000E+00 0. -1.
         23    2    1    2    0    0  0.00000000000E+00  0.00000000000E+00  0.00000000000E+00  0.60000000000E+02  0.60000000000E+02 0.  0.
          5    1    3    3  501    0 -0.13219381751E+02  0.26430229703E+02  0.21449717911E+01  0.30000000000E+02  0.47000000000E+01 0. -1.
         -5    1    3    3    0  501  0.13219381751E+02 -0.26430229703E+02 -0.21449717911E+01  0.30000000000E+02  0.47000000000E+01 0.  1.
</event>
<event>
 5    1  0.7693226E-002  0.6000000E+02  0.7546771E-02  0.1259629E+00
         11   -1    0    0    0    0  0.00000000000E+00  0.00000000000E+00  0.30000000000E+02  0.30000000000E+02  0.00000000000E+00 0.  1.
        -11   -1    0    0    0    0 -0.00000000000E+00 -0.00000000000E+00 -0.30000000000E+02  0.30000000000E+02  0.00000000000E+00 0. -1.
         23    2    1    2    0    0  0.00000000000E+00  0.00000000000E+00  0.00000000000E+00  0.60000000000E+02  0.60000000000E+02 0.  0.
          5    1    3    3  501    0  0.21427360408E+02 -0.53435280680E+01 -0.19754111818E+02  0.30000000000E+02  0.47000000000E+01 0. -1.
         -5    1    3    3    0  501 -0.21427360408E+02  0.53435280680E+01  0.19754111818E+02  0.30000000000E+02  0.47000000000E+01 0.  1.
</event>
<event>
 5    1  0.7693226E-002  0.6000000E+02  0.7546771E-02  0.1259629E+00
         11   -1    0    0    0    0  0.00000000000E+00  0.00000000000E+00  0.30000000000E+02  0.30000000000E+02  0.00000000000E+00 0.  1.
        -11   -1    0    0    0    0 -0.00000000000E+00 -0.00000000000E+00 -0.30000000000E+02  0.30000000000E+02  0.00000000000E+00 0. -1.
         23    2    1    2    0    0  0.00000000000E+00  0.00000000000E+00  0.00000000000E+00  0.60000000000E+02  0.60000000000E+02 0.  0.
          5    1    3    3  501    0 -0.28210349575E+02  0.31545830995E+00 -0.90546486912E+01  0.30000000000E+02  0.47000000000E+01 0. -1.
         -5    1    3    3    0  501  0.28210349575E+02 -0.31545830995E+00  0.90546486912E+01  0.30000000000E+02  0.47000000000E+01 0.  1.
</event>
<event>
 5    1  0.7693226E-002  0.6000000E+02  0.7546771E-02  0.1259629E+00
         11   -1    0    0    0    0  0.00000000000E+00  0.00000000000E+00  0.30000000000E+02  0.30000000000E+02  0.00000000000E+00 0.  1.
        -11   -1    0    0    0    0 -0.00000000000E+00 -0.00000000000E+00 -0.30000000000E+02  0.30000000000E+02  0.00000000000E+00 0. -1.
         23    2    1    2    0    0  0.00000000000E+00  0.00000000000E+00  0.00000000000E+00  0.60000000000E+02  0.60000000000E+02 0.  0.
          5    1    3    3  501    0 -0.75673534827E+01 -0.19294333624E+02 -0.21174840053E+02  0.30000000000E+02  0.47000000000E+01 0. -1.
         -5    1    3    3    0  501  0.75673534827E+01  0.19294333624E+02  0.21174840053E+02  0.30000000000E+02  0.47000000000E+01 0.  1.
</event>
<event>
 5    1  0.7693226E-002  0.6000000E+02  0.7546771E-02  0.1259629E+00
         11   -1    0    0    0    0  0.00000000000E+00  0.00000000000E+00  0.30000000000E+02  0.30000000000E+02  0.00000000000E+00 0. -1.
        -11   -1    0    0    0    0 -0.00000000000E+00 -0.00000000000E+00 -0.30000000000E+02  0.30000000000E+02  0.00000000000E+00 0.  1.
         23    2    1    2    0    0  0.00000000000E+00  0.00000000000E+00  0.00000000000E+00  0.60000000000E+02  0.60000000000E+02 0.  0.
          5    1    3    3  501    0 -0.15127846580E+02  0.20244752777E+02 -0.15466358423E+02  0.30000000000E+02  0.47000000000E+01 0.  1.
         -5    1    3    3    0  501  0.15127846580E+02 -0.20244752777E+02  0.15466358423E+02  0.30000000000E+02  0.47000000000E+01 0. -1.
</event>
<event>
 5    1  0.7693226E-002  0.6000000E+02  0.7546771E-02  0.1259629E+00
         11   -1    0    0    0    0  0.00000000000E+00  0.00000000000E+00  0.30000000000E+02  0.30000000000E+02  0.00000000000E+00 0.  1.
        -11   -1    0    0    0    0 -0.00000000000E+00 -0.00000000000E+00 -0.30000000000E+02  0.30000000000E+02  0.00000000000E+00 0. -1.
         23    2    1    2    0    0  0.00000000000E+00  0.00000000000E+00  0.00000000000E+00  0.60000000000E+02  0.60000000000E+02 0.  0.
          5    1    3    3  501    0  0.32220516576E+01 -0.22201930264E+02  0.19354655142E+02  0.30000000000E+02  0.47000000000E+01 0. -1.
         -5    1    3    3    0  501 -0.32220516576E+01  0.22201930264E+02 -0.19354655142E+02  0.30000000000E+02  0.47000000000E+01 0.  1.
</event>
<event>
 5    1  0.7693226E-002  0.6000000E+02  0.7546771E-02  0.1259629E+00
         11   -1    0    0    0    0  0.00000000000E+00  0.00000000000E+00  0.30000000000E+02  0.30000000000E+02  0.00000000000E+00 0.  1.
        -11   -1    0    0    0    0 -0.00000000000E+00 -0.00000000000E+00 -0.30000000000E+02  0.30000000000E+02  0.00000000000E+00 0. -1.
         23    2    1    2    0    0  0.00000000000E+00  0.00000000000E+00  0.00000000000E+00  0.60000000000E+02  0.60000000000E+02 0.  0.
          5    1    3    3  501    0 -0.19961552480E+02 -0.62417822335E+01 -0.20987772086E+02  0.30000000000E+02  0.47000000000E+01 0. -1.
         -5    1    3    3    0  501  0.19961552480E+02  0.62417822335E+01  0.20987772086E+02  0.30000000000E+02  0.47000000000E+01 0.  1.
</event>
<event>
 5    1  0.7693226E-002  0.6000000E+02  0.7546771E-02  0.1259629E+00
         11   -1    0    0    0    0  0.00000000000E+00  0.00000000000E+00  0.30000000000E+02  0.30000000000E+02  0.00000000000E+00 0. -1.
        -11   -1    0    0    0    0 -0.00000000000E+00 -0.00000000000E+00 -0.30000000000E+02  0.30000000000E+02  0.00000000000E+00 0.  1.
         23    2    1    2    0    0  0.00000000000E+00  0.00000000000E+00  0.00000000000E+00  0.60000000000E+02  0.60000000000E+02 0.  0.
          5    1    3    3  501    0 -0.18681995491E+01  0.70798301893E+01 -0.28710552676E+02  0.30000000000E+02  0.47000000000E+01 0.  1.
         -5    1    3    3    0  501  0.18681995491E+01 -0.70798301893E+01  0.28710552676E+02  0.30000000000E+02  0.47000000000E+01 0. -1.
</event>
<event>
 5    1  0.7693226E-002  0.6000000E+02  0.7546771E-02  0.1259629E+00
         11   -1    0    0    0    0  0.00000000000E+00  0.00000000000E+00  0.30000000000E+02  0.30000000000E+02  0.00000000000E+00 0.  1.
        -11   -1    0    0    0    0 -0.00000000000E+00 -0.00000000000E+00 -0.30000000000E+02  0.30000000000E+02  0.00000000000E+00 0. -1.
         23    2    1    2    0    0  0.00000000000E+00  0.00000000000E+00  0.00000000000E+00  0.60000000000E+02  0.60000000000E+02 0.  0.
          5    1    3    3  501    0 -0.25965505642E+01  0.19090260351E+01 -0.29453752643E+02  0.30000000000E+02  0.47000000000E+01 0. -1.
         -5    1    3    3    0  501  0.25965505642E+01 -0.19090260351E+01  0.29453752643E+02  0.30000000000E+02  0.47000000000E+01 0.  1.
</event>
<event>
 5    1  0.7693226E-002  0.6000000E+02  0.7546771E-02  0.1259629E+00
         11   -1    0    0    0    0  0.00000000000E+00  0.00000000000E+00  0.30000000000E+02  0.30000000000E+02  0.00000000000E+00 0. -1.
        -11   -1    0    0    0    0 -0.00000000000E+00 -0.00000000000E+00 -0.30000000000E+02  0.30000000000E+02  0.00000000000E+00 0.  1.
         23    2    1    2    0    0  0.00000000000E+00  0.00000000000E+00  0.00000000000E+00  0.60000000000E+02  0.60000000000E+02 0.  0.
          5    1    3    3  501    0  0.16187517335E+02  0.23939825498E+02  0.65390395037E+01  0.30000000000E+02  0.47000000000E+01 0.  1.
         -5    1    3    3    0  501 -0.16187517335E+02 -0.23939825498E+02 -0.65390395037E+01  0.30000000000E+02  0.47000000000E+01 0. -1.
</event>
<event>
 5    1  0.7693226E-002  0.6000000E+02  0.7546771E-02  0.1259629E+00
         11   -1    0    0    0    0  0.00000000000E+00  0.00000000000E+00  0.30000000000E+02  0.30000000000E+02  0.00000000000E+00 0.  1.
        -11   -1    0    0    0    0 -0.00000000000E+00 -0.00000000000E+00 -0.30000000000E+02  0.30000000000E+02  0.00000000000E+00 0. -1.
         23    2    1    2    0    0  0.00000000000E+00  0.00000000000E+00  0.00000000000E+00  0.60000000000E+02  0.60000000000E+02 0.  0.
          5    1    3    3  501    0 -0.15250175027E+02 -0.13138560335E+02 -0.21742134071E+02  0.30000000000E+02  0.47000000000E+01 0. -1.
         -5    1    3    3    0  501  0.15250175027E+02  0.13138560335E+02  0.21742134071E+02  0.30000000000E+02  0.47000000000E+01 0.  1.
</event>
<event>
 5    1  0.7693226E-002  0.6000000E+02  0.7546771E-02  0.1259629E+00
         11   -1    0    0    0    0  0.00000000000E+00  0.00000000000E+00  0.30000000000E+02  0.30000000000E+02  0.00000000000E+00 0.  1.
        -11   -1    0    0    0    0 -0.00000000000E+00 -0.00000000000E+00 -0.30000000000E+02  0.30000000000E+02  0.00000000000E+00 0. -1.
         23    2    1    2    0    0  0.00000000000E+00  0.00000000000E+00  0.00000000000E+00  0.60000000000E+02  0.60000000000E+02 0.  0.
          5    1    3    3  501    0 -0.16175271606E+02 -0.37650145377E+01 -0.24537629347E+02  0.30000000000E+02  0.47000000000E+01 0. -1.
         -5    1    3    3    0  501  0.16175271606E+02  0.37650145377E+01  0.24537629347E+02  0.30000000000E+02  0.47000000000E+01 0.  1.
</event>
<event>
 5    1  0.7693226E-002  0.6000000E+02  0.7546771E-02  0.1259629E+00
         11   -1    0    0    0    0  0.00000000000E+00  0.00000000000E+00  0.30000000000E+02  0.30000000000E+02  0.00000000000E+00 0.  1.
        -11   -1    0    0    0    0 -0.00000000000E+00 -0.00000000000E+00 -0.30000000000E+02  0.30000000000E+02  0.00000000000E+00 0. -1.
         23    2    1    2    0    0  0.00000000000E+00  0.00000000000E+00  0.00000000000E+00  0.60000000000E+02  0.60000000000E+02 0.  0.
          5    1    3    3  501    0  0.15851453992E+02  0.11824889332E+02 -0.22063848228E+02  0.30000000000E+02  0.47000000000E+01 0. -1.
         -5    1    3    3    0  501 -0.15851453992E+02 -0.11824889332E+02  0.22063848228E+02  0.30000000000E+02  0.47000000000E+01 0.  1.
</event>
<event>
 5    1  0.7693226E-002  0.6000000E+02  0.7546771E-02  0.1259629E+00
         11   -1    0    0    0    0  0.00000000000E+00  0.00000000000E+00  0.30000000000E+02  0.30000000000E+02  0.00000000000E+00 0.  1.
        -11   -1    0    0    0    0 -0.00000000000E+00 -0.00000000000E+00 -0.30000000000E+02  0.30000000000E+02  0.00000000000E+00 0. -1.
         23    2    1    2    0    0  0.00000000000E+00  0.00000000000E+00  0.00000000000E+00  0.60000000000E+02  0.60000000000E+02 0.  0.
          5    1    3    3  501    0  0.22859561853E+01  0.82689249541E+01 -0.28360347043E+02  0.30000000000E+02  0.47000000000E+01 0. -1.
         -5    1    3    3    0  501 -0.22859561853E+01 -0.82689249541E+01  0.28360347043E+02  0.30000000000E+02  0.47000000000E+01 0.  1.
</event>
<event>
 5    1  0.7693226E-002  0.6000000E+02  0.7546771E-02  0.1259629E+00
         11   -1    0    0    0    0  0.00000000000E+00  0.00000000000E+00  0.30000000000E+02  0.30000000000E+02  0.00000000000E+00 0.  1.
        -11   -1    0    0    0    0 -0.00000000000E+00 -0.00000000000E+00 -0.30000000000E+02  0.30000000000E+02  0.00000000000E+00 0. -1.
         23    2    1    2    0    0  0.00000000000E+00  0.00000000000E+00  0.00000000000E+00  0.60000000000E+02  0.60000000000E+02 0.  0.
          5    1    3    3  501    0  0.10075272178E+02  0.24322045743E+01 -0.27757580432E+02  0.30000000000E+02  0.47000000000E+01 0. -1.
         -5    1    3    3    0  501 -0.10075272178E+02 -0.24322045743E+01  0.27757580432E+02  0.30000000000E+02  0.47000000000E+01 0.  1.
</event>
<event>
 5    1  0.7693226E-002  0.6000000E+02  0.7546771E-02  0.1259629E+00
         11   -1    0    0    0    0  0.00000000000E+00  0.00000000000E+00  0.30000000000E+02  0.30000000000E+02  0.00000000000E+00 0.  1.
        -11   -1    0    0    0    0 -0.00000000000E+00 -0.00000000000E+00 -0.30000000000E+02  0.30000000000E+02  0.00000000000E+00 0. -1.
         23    2    1    2    0    0  0.00000000000E+00  0.00000000000E+00  0.00000000000E+00  0.60000000000E+02  0.60000000000E+02 0.  0.
          5    1    3    3  501    0 -0.48039466882E+01 -0.62115319017E+01 -0.28570071187E+02  0.30000000000E+02  0.47000000000E+01 0. -1.
         -5    1    3    3    0  501  0.48039466882E+01  0.62115319017E+01  0.28570071187E+02  0.30000000000E+02  0.47000000000E+01 0.  1.
</event>
<event>
 5    1  0.7693226E-002  0.6000000E+02  0.7546771E-02  0.1259629E+00
         11   -1    0    0    0    0  0.00000000000E+00  0.00000000000E+00  0.30000000000E+02  0.30000000000E+02  0.00000000000E+00 0.  1.
        -11   -1    0    0    0    0 -0.00000000000E+00 -0.00000000000E+00 -0.30000000000E+02  0.30000000000E+02  0.00000000000E+00 0. -1.
         23    2    1    2    0    0  0.00000000000E+00  0.00000000000E+00  0.00000000000E+00  0.60000000000E+02  0.60000000000E+02 0.  0.
          5    1    3    3  501    0  0.20532533418E+02  0.99200974589E+01 -0.18918687529E+02  0.30000000000E+02  0.47000000000E+01 0. -1.
         -5    1    3    3    0  501 -0.20532533418E+02 -0.99200974589E+01  0.18918687529E+02  0.30000000000E+02  0.47000000000E+01 0.  1.
</event>
<event>
 5    1  0.7693226E-002  0.6000000E+02  0.7546771E-02  0.1259629E+00
         11   -1    0    0    0    0  0.00000000000E+00  0.00000000000E+00  0.30000000000E+02  0.30000000000E+02  0.00000000000E+00 0. -1.
        -11   -1    0    0    0    0 -0.00000000000E+00 -0.00000000000E+00 -0.30000000000E+02  0.30000000000E+02  0.00000000000E+00 0.  1.
         23    2    1    2    0    0  0.00000000000E+00  0.00000000000E+00  0.00000000000E+00  0.60000000000E+02  0.60000000000E+02 0.  0.
          5    1    3    3  501    0  0.11428938352E+02  0.27327837697E+02 -0.69184893567E+00  0.30000000000E+02  0.47000000000E+01 0.  1.
         -5    1    3    3    0  501 -0.11428938352E+02 -0.27327837697E+02  0.69184893567E+00  0.30000000000E+02  0.47000000000E+01 0. -1.
</event>
<event>
 5    1  0.7693226E-002  0.6000000E+02  0.7546771E-02  0.1259629E+00
         11   -1    0    0    0    0  0.00000000000E+00  0.00000000000E+00  0.30000000000E+02  0.30000000000E+02  0.00000000000E+00 0. -1.
        -11   -1    0    0    0    0 -0.00000000000E+00 -0.00000000000E+00 -0.30000000000E+02  0.30000000000E+02  0.00000000000E+00 0.  1.
         23    2    1    2    0    0  0.00000000000E+00  0.00000000000E+00  0.00000000000E+00  0.60000000000E+02  0.60000000000E+02 0.  0.
          5    1    3    3  501    0  0.16521146600E+01  0.27892184151E+02 -0.98593397561E+01  0.30000000000E+02  0.47000000000E+01 0.  1.
         -5    1    3    3    0  501 -0.16521146600E+01 -0.27892184151E+02  0.98593397561E+01  0.30000000000E+02  0.47000000000E+01 0. -1.
</event>
<event>
 5    1  0.7693226E-002  0.6000000E+02  0.7546771E-02  0.1259629E+00
         11   -1    0    0    0    0  0.00000000000E+00  0.00000000000E+00  0.30000000000E+02  0.30000000000E+02  0.00000000000E+00 0. -1.
        -11   -1    0    0    0    0 -0.00000000000E+00 -0.00000000000E+00 -0.30000000000E+02  0.30000000000E+02  0.00000000000E+00 0.  1.
         23    2    1    2    0    0  0.00000000000E+00  0.00000000000E+00  0.00000000000E+00  0.60000000000E+02  0.60000000000E+02 0.  0.
          5    1    3    3  501    0  0.58079219957E+01 -0.29052395761E+02 -0.36924600679E+00  0.30000000000E+02  0.47000000000E+01 0.  1.
         -5    1    3    3    0  501 -0.58079219957E+01  0.29052395761E+02  0.36924600679E+00  0.30000000000E+02  0.47000000000E+01 0. -1.
</event>
<event>
 5    1  0.7693226E-002  0.6000000E+02  0.7546771E-02  0.1259629E+00
         11   -1    0    0    0    0  0.00000000000E+00  0.00000000000E+00  0.30000000000E+02  0.30000000000E+02  0.00000000000E+00 0.  1.
        -11   -1    0    0    0    0 -0.00000000000E+00 -0.00000000000E+00 -0.30000000000E+02  0.30000000000E+02  0.00000000000E+00 0. -1.
         23    2    1    2    0    0  0.00000000000E+00  0.00000000000E+00  0.00000000000E+00  0.60000000000E+02  0.60000000000E+02 0.  0.
          5    1    3    3  501    0  0.15422544510E+02 -0.68759460496E+01 -0.24347001597E+02  0.30000000000E+02  0.47000000000E+01 0.  1.
         -5    1    3    3    0  501 -0.15422544510E+02  0.68759460496E+01  0.24347001597E+02  0.30000000000E+02  0.47000000000E+01 0. -1.
</event>
<event>
 5    1  0.7693226E-002  0.6000000E+02  0.7546771E-02  0.1259629E+00
         11   -1    0    0    0    0  0.00000000000E+00  0.00000000000E+00  0.30000000000E+02  0.30000000000E+02  0.00000000000E+00 0.  1.
        -11   -1    0    0    0    0 -0.00000000000E+00 -0.00000000000E+00 -0.30000000000E+02  0.30000000000E+02  0.00000000000E+00 0. -1.
         23    2    1    2    0    0  0.00000000000E+00  0.00000000000E+00  0.00000000000E+00  0.60000000000E+02  0.60000000000E+02 0.  0.
          5    1    3    3  501    0  0.13505512072E+02  0.25060181569E+02 -0.82157436316E+01  0.30000000000E+02  0.47000000000E+01 0. -1.
         -5    1    3    3    0  501 -0.13505512072E+02 -0.25060181569E+02  0.82157436316E+01  0.30000000000E+02  0.47000000000E+01 0.  1.
</event>
<event>
 5    1  0.7693226E-002  0.6000000E+02  0.7546771E-02  0.1259629E+00
         11   -1    0    0    0    0  0.00000000000E+00  0.00000000000E+00  0.30000000000E+02  0.30000000000E+02  0.00000000000E+00 0.  1.
        -11   -1    0    0    0    0 -0.00000000000E+00 -0.00000000000E+00 -0.30000000000E+02  0.30000000000E+02  0.00000000000E+00 0. -1.
         23    2    1    2    0    0  0.00000000000E+00  0.00000000000E+00  0.00000000000E+00  0.60000000000E+02  0.60000000000E+02 0.  0.
          5    1    3    3  501    0  0.22000439610E+02  0.48880707272E+01 -0.19235317037E+02  0.30000000000E+02  0.47000000000E+01 0.  1.
         -5    1    3    3    0  501 -0.22000439610E+02 -0.48880707272E+01  0.19235317037E+02  0.30000000000E+02  0.47000000000E+01 0. -1.
</event>
<event>
 5    1  0.7693226E-002  0.6000000E+02  0.7546771E-02  0.1259629E+00
         11   -1    0    0    0    0  0.00000000000E+00  0.00000000000E+00  0.30000000000E+02  0.30000000000E+02  0.00000000000E+00 0.  1.
        -11   -1    0    0    0    0 -0.00000000000E+00 -0.00000000000E+00 -0.30000000000E+02  0.30000000000E+02  0.00000000000E+00 0. -1.
         23    2    1    2    0    0  0.00000000000E+00  0.00000000000E+00  0.00000000000E+00  0.60000000000E+02  0.60000000000E+02 0.  0.
          5    1    3    3  501    0  0.33907168711E+01 -0.71098597797E+01 -0.28563314461E+02  0.30000000000E+02  0.47000000000E+01 0. -1.
         -5    1    3    3    0  501 -0.33907168711E+01  0.71098597797E+01  0.28563314461E+02  0.30000000000E+02  0.47000000000E+01 0.  1.
</event>
<event>
 5    1  0.7693226E-002  0.6000000E+02  0.7546771E-02  0.1259629E+00
         11   -1    0    0    0    0  0.00000000000E+00  0.00000000000E+00  0.30000000000E+02  0.30000000000E+02  0.00000000000E+00 0.  1.
        -11   -1    0    0    0    0 -0.00000000000E+00 -0.00000000000E+00 -0.30000000000E+02  0.30000000000E+02  0.00000000000E+00 0. -1.
         23    2    1    2    0    0  0.00000000000E+00  0.00000000000E+00  0.00000000000E+00  0.60000000000E+02  0.60000000000E+02 0.  0.
          5    1    3    3  501    0  0.14306674469E+02  0.12959195982E+02 -0.22478618844E+02  0.30000000000E+02  0.47000000000E+01 0. -1.
         -5    1    3    3    0  501 -0.14306674469E+02 -0.12959195982E+02  0.22478618844E+02  0.30000000000E+02  0.47000000000E+01 0.  1.
</event>
<event>
 5    1  0.7693226E-002  0.6000000E+02  0.7546771E-02  0.1259629E+00
         11   -1    0    0    0    0  0.00000000000E+00  0.00000000000E+00  0.30000000000E+02  0.30000000000E+02  0.00000000000E+00 0.  1.
        -11   -1    0    0    0    0 -0.00000000000E+00 -0.00000000000E+00 -0.30000000000E+02  0.30000000000E+02  0.00000000000E+00 0. -1.
         23    2    1    2    0    0  0.00000000000E+00  0.00000000000E+00  0.00000000000E+00  0.60000000000E+02  0.60000000000E+02 0.  0.
          5    1    3    3  501    0  0.22474402047E+02  0.15073516667E+02 -0.12066496921E+02  0.30000000000E+02  0.47000000000E+01 0. -1.
         -5    1    3    3    0  501 -0.22474402047E+02 -0.15073516667E+02  0.12066496921E+02  0.30000000000E+02  0.47000000000E+01 0.  1.
</event>
<event>
 5    1  0.7693226E-002  0.6000000E+02  0.7546771E-02  0.1259629E+00
         11   -1    0    0    0    0  0.00000000000E+00  0.00000000000E+00  0.30000000000E+02  0.30000000000E+02  0.00000000000E+00 0.  1.
        -11   -1    0    0    0    0 -0.00000000000E+00 -0.00000000000E+00 -0.30000000000E+02  0.30000000000E+02  0.00000000000E+00 0. -1.
         23    2    1    2    0    0  0.00000000000E+00  0.00000000000E+00  0.00000000000E+00  0.60000000000E+02  0.60000000000E+02 0.  0.
          5    1    3    3  501    0 -0.74457779618E+01  0.23277201814E+02 -0.16752380914E+02  0.30000000000E+02  0.47000000000E+01 0. -1.
         -5    1    3    3    0  501  0.74457779618E+01 -0.23277201814E+02  0.16752380914E+02  0.30000000000E+02  0.47000000000E+01 0.  1.
</event>
<event>
 5    1  0.7693226E-002  0.6000000E+02  0.7546771E-02  0.1259629E+00
         11   -1    0    0    0    0  0.00000000000E+00  0.00000000000E+00  0.30000000000E+02  0.30000000000E+02  0.00000000000E+00 0. -1.
        -11   -1    0    0    0    0 -0.00000000000E+00 -0.00000000000E+00 -0.30000000000E+02  0.30000000000E+02  0.00000000000E+00 0.  1.
         23    2    1    2    0    0  0.00000000000E+00  0.00000000000E+00  0.00000000000E+00  0.60000000000E+02  0.60000000000E+02 0.  0.
          5    1    3    3  501    0  0.24259589779E+02  0.10629064852E+02 -0.13281765098E+02  0.30000000000E+02  0.47000000000E+01 0.  1.
         -5    1    3    3    0  501 -0.24259589779E+02 -0.10629064852E+02  0.13281765098E+02  0.30000000000E+02  0.47000000000E+01 0. -1.
</event>
<event>
 5    1  0.7693226E-002  0.6000000E+02  0.7546771E-02  0.1259629E+00
         11   -1    0    0    0    0  0.00000000000E+00  0.00000000000E+00  0.30000000000E+02  0.30000000000E+02  0.00000000000E+00 0.  1.
        -11   -1    0    0    0    0 -0.00000000000E+00 -0.00000000000E+00 -0.30000000000E+02  0.30000000000E+02  0.00000000000E+00 0. -1.
         23    2    1    2    0    0  0.00000000000E+00  0.00000000000E+00  0.00000000000E+00  0.60000000000E+02  0.60000000000E+02 0.  0.
          5    1    3    3  501    0 -0.26980364213E+02 -0.10960073813E+02 -0.54632159873E+01  0.30000000000E+02  0.47000000000E+01 0. -1.
         -5    1    3    3    0  501  0.26980364213E+02  0.10960073813E+02  0.54632159873E+01  0.30000000000E+02  0.47000000000E+01 0.  1.
</event>
<event>
 5    1  0.7693226E-002  0.6000000E+02  0.7546771E-02  0.1259629E+00
         11   -1    0    0    0    0  0.00000000000E+00  0.00000000000E+00  0.30000000000E+02  0.30000000000E+02  0.00000000000E+00 0. -1.
        -11   -1    0    0    0    0 -0.00000000000E+00 -0.00000000000E+00 -0.30000000000E+02  0.30000000000E+02  0.00000000000E+00 0.  1.
         23    2    1    2    0    0  0.00000000000E+00  0.00000000000E+00  0.00000000000E+00  0.60000000000E+02  0.60000000000E+02 0.  0.
          5    1    3    3  501    0 -0.22018943848E+02 -0.22580165846E+01  0.19697143776E+02  0.30000000000E+02  0.47000000000E+01 0. -1.
         -5    1    3    3    0  501  0.22018943848E+02  0.22580165846E+01 -0.19697143776E+02  0.30000000000E+02  0.47000000000E+01 0.  1.
</event>
<event>
 5    1  0.7693226E-002  0.6000000E+02  0.7546771E-02  0.1259629E+00
         11   -1    0    0    0    0  0.00000000000E+00  0.00000000000E+00  0.30000000000E+02  0.30000000000E+02  0.00000000000E+00 0. -1.
        -11   -1    0    0    0    0 -0.00000000000E+00 -0.00000000000E+00 -0.30000000000E+02  0.30000000000E+02  0.00000000000E+00 0.  1.
         23    2    1    2    0    0  0.00000000000E+00  0.00000000000E+00  0.00000000000E+00  0.60000000000E+02  0.60000000000E+02 0.  0.
          5    1    3    3  501    0 -0.13722845486E+02  0.39882539134E+01 -0.25955487714E+02  0.30000000000E+02  0.47000000000E+01 0.  1.
         -5    1    3    3    0  501  0.13722845486E+02 -0.39882539134E+01  0.25955487714E+02  0.30000000000E+02  0.47000000000E+01 0. -1.
</event>
<event>
 5    1  0.7693226E-002  0.6000000E+02  0.7546771E-02  0.1259629E+00
         11   -1    0    0    0    0  0.00000000000E+00  0.00000000000E+00  0.30000000000E+02  0.30000000000E+02  0.00000000000E+00 0. -1.
        -11   -1    0    0    0    0 -0.00000000000E+00 -0.00000000000E+00 -0.30000000000E+02  0.30000000000E+02  0.00000000000E+00 0.  1.
         23    2    1    2    0    0  0.00000000000E+00  0.00000000000E+00  0.00000000000E+00  0.60000000000E+02  0.60000000000E+02 0.  0.
          5    1    3    3  501    0 -0.19452175700E+02 -0.17347771621E+02  0.14091759306E+02  0.30000000000E+02  0.47000000000E+01 0.  1.
         -5    1    3    3    0  501  0.19452175700E+02  0.17347771621E+02 -0.14091759306E+02  0.30000000000E+02  0.47000000000E+01 0. -1.
</event>
<event>
 5    1  0.7693226E-002  0.6000000E+02  0.7546771E-02  0.1259629E+00
         11   -1    0    0    0    0  0.00000000000E+00  0.00000000000E+00  0.30000000000E+02  0.30000000000E+02  0.00000000000E+00 0.  1.
        -11   -1    0    0    0    0 -0.00000000000E+00 -0.00000000000E+00 -0.30000000000E+02  0.30000000000E+02  0.00000000000E+00 0. -1.
         23    2    1    2    0    0  0.00000000000E+00  0.00000000000E+00  0.00000000000E+00  0.60000000000E+02  0.60000000000E+02 0.  0.
          5    1    3    3  501    0 -0.22826554502E+02 -0.18759672713E+02  0.22210558928E+01  0.30000000000E+02  0.47000000000E+01 0.  1.
         -5    1    3    3    0  501  0.22826554502E+02  0.18759672713E+02 -0.22210558928E+01  0.30000000000E+02  0.47000000000E+01 0. -1.
</event>
<event>
 5    1  0.7693226E-002  0.6000000E+02  0.7546771E-02  0.1259629E+00
         11   -1    0    0    0    0  0.00000000000E+00  0.00000000000E+00  0.30000000000E+02  0.30000000000E+02  0.00000000000E+00 0.  1.
        -11   -1    0    0    0    0 -0.00000000000E+00 -0.00000000000E+00 -0.30000000000E+02  0.30000000000E+02  0.00000000000E+00 0. -1.
         23    2    1    2    0    0  0.00000000000E+00  0.00000000000E+00  0.00000000000E+00  0.60000000000E+02  0.60000000000E+02 0.  0.
          5    1    3    3  501    0 -0.39261224994E+01  0.55385443153E+01 -0.28841291389E+02  0.30000000000E+02  0.47000000000E+01 0. -1.
         -5    1    3    3    0  501  0.39261224994E+01 -0.55385443153E+01  0.28841291389E+02  0.30000000000E+02  0.47000000000E+01 0.  1.
</event>
<event>
 5    1  0.7693226E-002  0.6000000E+02  0.7546771E-02  0.1259629E+00
         11   -1    0    0    0    0  0.00000000000E+00  0.00000000000E+00  0.30000000000E+02  0.30000000000E+02  0.00000000000E+00 0.  1.
        -11   -1    0    0    0    0 -0.00000000000E+00 -0.00000000000E+00 -0.30000000000E+02  0.30000000000E+02  0.00000000000E+00 0. -1.
         23    2    1    2    0    0  0.00000000000E+00  0.00000000000E+00  0.00000000000E+00  0.60000000000E+02  0.60000000000E+02 0.  0.
          5    1    3    3  501    0 -0.12890929204E+02  0.25654203465E+01 -0.26554708861E+02  0.30000000000E+02  0.47000000000E+01 0. -1.
         -5    1    3    3    0  501  0.12890929204E+02 -0.25654203465E+01  0.26554708861E+02  0.30000000000E+02  0.47000000000E+01 0.  1.
</event>
<event>
 5    1  0.7693226E-002  0.6000000E+02  0.7546771E-02  0.1259629E+00
         11   -1    0    0    0    0  0.00000000000E+00  0.00000000000E+00  0.30000000000E+02  0.30000000000E+02  0.00000000000E+00 0.  1.
        -11   -1    0    0    0    0 -0.00000000000E+00 -0.00000000000E+00 -0.30000000000E+02  0.30000000000E+02  0.00000000000E+00 0. -1.
         23    2    1    2    0    0  0.00000000000E+00  0.00000000000E+00  0.00000000000E+00  0.60000000000E+02  0.60000000000E+02 0.  0.
          5    1    3    3  501    0 -0.11417975739E+02  0.26928927586E+02  0.47299777036E+01  0.30000000000E+02  0.47000000000E+01 0. -1.
         -5    1    3    3    0  501  0.11417975739E+02 -0.26928927586E+02 -0.47299777036E+01  0.30000000000E+02  0.47000000000E+01 0.  1.
</event>
<event>
 5    1  0.7693226E-002  0.6000000E+02  0.7546771E-02  0.1259629E+00
         11   -1    0    0    0    0  0.00000000000E+00  0.00000000000E+00  0.30000000000E+02  0.30000000000E+02  0.00000000000E+00 0.  1.
        -11   -1    0    0    0    0 -0.00000000000E+00 -0.00000000000E+00 -0.30000000000E+02  0.30000000000E+02  0.00000000000E+00 0. -1.
         23    2    1    2    0    0  0.00000000000E+00  0.00000000000E+00  0.00000000000E+00  0.60000000000E+02  0.60000000000E+02 0.  0.
          5    1    3    3  501    0 -0.81965867772E+01 -0.28220196162E+02  0.37876765707E+01  0.30000000000E+02  0.47000000000E+01 0. -1.
         -5    1    3    3    0  501  0.81965867772E+01  0.28220196162E+02 -0.37876765707E+01  0.30000000000E+02  0.47000000000E+01 0.  1.
</event>
<event>
 5    1  0.7693226E-002  0.6000000E+02  0.7546771E-02  0.1259629E+00
         11   -1    0    0    0    0  0.00000000000E+00  0.00000000000E+00  0.30000000000E+02  0.30000000000E+02  0.00000000000E+00 0.  1.
        -11   -1    0    0    0    0 -0.00000000000E+00 -0.00000000000E+00 -0.30000000000E+02  0.30000000000E+02  0.00000000000E+00 0. -1.
         23    2    1    2    0    0  0.00000000000E+00  0.00000000000E+00  0.00000000000E+00  0.60000000000E+02  0.60000000000E+02 0.  0.
          5    1    3    3  501    0 -0.22618434758E+02 -0.83703539879E+01 -0.17212018569E+02  0.30000000000E+02  0.47000000000E+01 0. -1.
         -5    1    3    3    0  501  0.22618434758E+02  0.83703539879E+01  0.17212018569E+02  0.30000000000E+02  0.47000000000E+01 0.  1.
</event>
<event>
 5    1  0.7693226E-002  0.6000000E+02  0.7546771E-02  0.1259629E+00
         11   -1    0    0    0    0  0.00000000000E+00  0.00000000000E+00  0.30000000000E+02  0.30000000000E+02  0.00000000000E+00 0.  1.
        -11   -1    0    0    0    0 -0.00000000000E+00 -0.00000000000E+00 -0.30000000000E+02  0.30000000000E+02  0.00000000000E+00 0. -1.
         23    2    1    2    0    0  0.00000000000E+00  0.00000000000E+00  0.00000000000E+00  0.60000000000E+02  0.60000000000E+02 0.  0.
          5    1    3    3  501    0  0.60205577099E+01 -0.58563841432E+01 -0.28414180432E+02  0.30000000000E+02  0.47000000000E+01 0. -1.
         -5    1    3    3    0  501 -0.60205577099E+01  0.58563841432E+01  0.28414180432E+02  0.30000000000E+02  0.47000000000E+01 0.  1.
</event>
<event>
 5    1  0.7693226E-002  0.6000000E+02  0.7546771E-02  0.1259629E+00
         11   -1    0    0    0    0  0.00000000000E+00  0.00000000000E+00  0.30000000000E+02  0.30000000000E+02  0.00000000000E+00 0.  1.
        -11   -1    0    0    0    0 -0.00000000000E+00 -0.00000000000E+00 -0.30000000000E+02  0.30000000000E+02  0.00000000000E+00 0. -1.
         23    2    1    2    0    0  0.00000000000E+00  0.00000000000E+00  0.00000000000E+00  0.60000000000E+02  0.60000000000E+02 0.  0.
          5    1    3    3  501    0  0.80832189186E+01  0.14749094123E+02 -0.24393355539E+02  0.30000000000E+02  0.47000000000E+01 0. -1.
         -5    1    3    3    0  501 -0.80832189186E+01 -0.14749094123E+02  0.24393355539E+02  0.30000000000E+02  0.47000000000E+01 0.  1.
</event>
<event>
 5    1  0.7693226E-002  0.6000000E+02  0.7546771E-02  0.1259629E+00
         11   -1    0    0    0    0  0.00000000000E+00  0.00000000000E+00  0.30000000000E+02  0.30000000000E+02  0.00000000000E+00 0. -1.
        -11   -1    0    0    0    0 -0.00000000000E+00 -0.00000000000E+00 -0.30000000000E+02  0.30000000000E+02  0.00000000000E+00 0.  1.
         23    2    1    2    0    0  0.00000000000E+00  0.00000000000E+00  0.00000000000E+00  0.60000000000E+02  0.60000000000E+02 0.  0.
          5    1    3    3  501    0  0.27057952651E+01  0.21550374714E+02 -0.20153660255E+02  0.30000000000E+02  0.47000000000E+01 0.  1.
         -5    1    3    3    0  501 -0.27057952651E+01 -0.21550374714E+02  0.20153660255E+02  0.30000000000E+02  0.47000000000E+01 0. -1.
</event>
<event>
 5    1  0.7693226E-002  0.6000000E+02  0.7546771E-02  0.1259629E+00
         11   -1    0    0    0    0  0.00000000000E+00  0.00000000000E+00  0.30000000000E+02  0.30000000000E+02  0.00000000000E+00 0. -1.
        -11   -1    0    0    0    0 -0.00000000000E+00 -0.00000000000E+00 -0.30000000000E+02  0.30000000000E+02  0.00000000000E+00 0.  1.
         23    2    1    2    0    0  0.00000000000E+00  0.00000000000E+00  0.00000000000E+00  0.60000000000E+02  0.60000000000E+02 0.  0.
          5    1    3    3  501    0 -0.20078069677E+01 -0.28646979180E+02 -0.72958409402E+01  0.30000000000E+02  0.47000000000E+01 0.  1.
         -5    1    3    3    0  501  0.20078069677E+01  0.28646979180E+02  0.72958409402E+01  0.30000000000E+02  0.47000000000E+01 0. -1.
</event>
<event>
 5    1  0.7693226E-002  0.6000000E+02  0.7546771E-02  0.1259629E+00
         11   -1    0    0    0    0  0.00000000000E+00  0.00000000000E+00  0.30000000000E+02  0.30000000000E+02  0.00000000000E+00 0.  1.
        -11   -1    0    0    0    0 -0.00000000000E+00 -0.00000000000E+00 -0.30000000000E+02  0.30000000000E+02  0.00000000000E+00 0. -1.
         23    2    1    2    0    0  0.00000000000E+00  0.00000000000E+00  0.00000000000E+00  0.60000000000E+02  0.60000000000E+02 0.  0.
          5    1    3    3  501    0  0.25467776334E+01 -0.26843549721E+02 -0.12282009692E+02  0.30000000000E+02  0.47000000000E+01 0. -1.
         -5    1    3    3    0  501 -0.25467776334E+01  0.26843549721E+02  0.12282009692E+02  0.30000000000E+02  0.47000000000E+01 0.  1.
</event>
<event>
 5    1  0.7693226E-002  0.6000000E+02  0.7546771E-02  0.1259629E+00
         11   -1    0    0    0    0  0.00000000000E+00  0.00000000000E+00  0.30000000000E+02  0.30000000000E+02  0.00000000000E+00 0.  1.
        -11   -1    0    0    0    0 -0.00000000000E+00 -0.00000000000E+00 -0.30000000000E+02  0.30000000000E+02  0.00000000000E+00 0. -1.
         23    2    1    2    0    0  0.00000000000E+00  0.00000000000E+00  0.00000000000E+00  0.60000000000E+02  0.60000000000E+02 0.  0.
          5    1    3    3  501    0  0.60986556290E+01  0.10233452398E+02 -0.27129188184E+02  0.30000000000E+02  0.47000000000E+01 0. -1.
         -5    1    3    3    0  501 -0.60986556290E+01 -0.10233452398E+02  0.27129188184E+02  0.30000000000E+02  0.47000000000E+01 0.  1.
</event>
<event>
 5    1  0.7693226E-002  0.6000000E+02  0.7546771E-02  0.1259629E+00
         11   -1    0    0    0    0  0.00000000000E+00  0.00000000000E+00  0.30000000000E+02  0.30000000000E+02  0.00000000000E+00 0. -1.
        -11   -1    0    0    0    0 -0.00000000000E+00 -0.00000000000E+00 -0.30000000000E+02  0.30000000000E+02  0.00000000000E+00 0.  1.
         23    2    1    2    0    0  0.00000000000E+00  0.00000000000E+00  0.00000000000E+00  0.60000000000E+02  0.60000000000E+02 0.  0.
          5    1    3    3  501    0  0.23442175352E+02 -0.15234420865E+02 -0.98125855755E+01  0.30000000000E+02  0.47000000000E+01 0.  1.
         -5    1    3    3    0  501 -0.23442175352E+02  0.15234420865E+02  0.98125855755E+01  0.30000000000E+02  0.47000000000E+01 0. -1.
</event>
<event>
 5    1  0.7693226E-002  0.6000000E+02  0.7546771E-02  0.1259629E+00
         11   -1    0    0    0    0  0.00000000000E+00  0.00000000000E+00  0.30000000000E+02  0.30000000000E+02  0.00000000000E+00 0. -1.
        -11   -1    0    0    0    0 -0.00000000000E+00 -0.00000000000E+00 -0.30000000000E+02  0.30000000000E+02  0.00000000000E+00 0.  1.
         23    2    1    2    0    0  0.00000000000E+00  0.00000000000E+00  0.00000000000E+00  0.60000000000E+02  0.60000000000E+02 0.  0.
          5    1    3    3  501    0 -0.12168312936E+02 -0.22282534942E+02 -0.15275169290E+02  0.30000000000E+02  0.47000000000E+01 0.  1.
         -5    1    3    3    0  501  0.12168312936E+02  0.22282534942E+02  0.15275169290E+02  0.30000000000E+02  0.47000000000E+01 0. -1.
</event>
<event>
 5    1  0.7693226E-002  0.6000000E+02  0.7546771E-02  0.1259629E+00
         11   -1    0    0    0    0  0.00000000000E+00  0.00000000000E+00  0.30000000000E+02  0.30000000000E+02  0.00000000000E+00 0.  1.
        -11   -1    0    0    0    0 -0.00000000000E+00 -0.00000000000E+00 -0.30000000000E+02  0.30000000000E+02  0.00000000000E+00 0. -1.
         23    2    1    2    0    0  0.00000000000E+00  0.00000000000E+00  0.00000000000E+00  0.60000000000E+02  0.60000000000E+02 0.  0.
          5    1    3    3  501    0 -0.16257052710E+02  0.24572483995E+02 -0.31322942891E+01  0.30000000000E+02  0.47000000000E+01 0. -1.
         -5    1    3    3    0  501  0.16257052710E+02 -0.24572483995E+02  0.31322942891E+01  0.30000000000E+02  0.47000000000E+01 0.  1.
</event>
<event>
 5    1  0.7693226E-002  0.6000000E+02  0.7546771E-02  0.1259629E+00
         11   -1    0    0    0    0  0.00000000000E+00  0.00000000000E+00  0.30000000000E+02  0.30000000000E+02  0.00000000000E+00 0.  1.
        -11   -1    0    0    0    0 -0.00000000000E+00 -0.00000000000E+00 -0.30000000000E+02  0.30000000000E+02  0.00000000000E+00 0. -1.
         23    2    1    2    0    0  0.00000000000E+00  0.00000000000E+00  0.00000000000E+00  0.60000000000E+02  0.60000000000E+02 0.  0.
          5    1    3    3  501    0 -0.87314357590E+01  0.19691140370E+02  0.20345294800E+02  0.30000000000E+02  0.47000000000E+01 0.  1.
         -5    1    3    3    0  501  0.87314357590E+01 -0.19691140370E+02 -0.20345294800E+02  0.30000000000E+02  0.47000000000E+01 0.  1.
</event>
<event>
 5    1  0.7693226E-002  0.6000000E+02  0.7546771E-02  0.1259629E+00
         11   -1    0    0    0    0  0.00000000000E+00  0.00000000000E+00  0.30000000000E+02  0.30000000000E+02  0.00000000000E+00 0.  1.
        -11   -1    0    0    0    0 -0.00000000000E+00 -0.00000000000E+00 -0.30000000000E+02  0.30000000000E+02  0.00000000000E+00 0. -1.
         23    2    1    2    0    0  0.00000000000E+00  0.00000000000E+00  0.00000000000E+00  0.60000000000E+02  0.60000000000E+02 0.  0.
          5    1    3    3  501    0 -0.61307927754E+01  0.20676204121E+02 -0.20317922214E+02  0.30000000000E+02  0.47000000000E+01 0. -1.
         -5    1    3    3    0  501  0.61307927754E+01 -0.20676204121E+02  0.20317922214E+02  0.30000000000E+02  0.47000000000E+01 0.  1.
</event>
<event>
 5    1  0.7693226E-002  0.6000000E+02  0.7546771E-02  0.1259629E+00
         11   -1    0    0    0    0  0.00000000000E+00  0.00000000000E+00  0.30000000000E+02  0.30000000000E+02  0.00000000000E+00 0.  1.
        -11   -1    0    0    0    0 -0.00000000000E+00 -0.00000000000E+00 -0.30000000000E+02  0.30000000000E+02  0.00000000000E+00 0. -1.
         23    2    1    2    0    0  0.00000000000E+00  0.00000000000E+00  0.00000000000E+00  0.60000000000E+02  0.60000000000E+02 0.  0.
          5    1    3    3  501    0  0.10874509489E+02 -0.26129325512E+02 -0.87700280300E+01  0.30000000000E+02  0.47000000000E+01 0. -1.
         -5    1    3    3    0  501 -0.10874509489E+02  0.26129325512E+02  0.87700280300E+01  0.30000000000E+02  0.47000000000E+01 0.  1.
</event>
<event>
 5    1  0.7693226E-002  0.6000000E+02  0.7546771E-02  0.1259629E+00
         11   -1    0    0    0    0  0.00000000000E+00  0.00000000000E+00  0.30000000000E+02  0.30000000000E+02  0.00000000000E+00 0.  1.
        -11   -1    0    0    0    0 -0.00000000000E+00 -0.00000000000E+00 -0.30000000000E+02  0.30000000000E+02  0.00000000000E+00 0. -1.
         23    2    1    2    0    0  0.00000000000E+00  0.00000000000E+00  0.00000000000E+00  0.60000000000E+02  0.60000000000E+02 0.  0.
          5    1    3    3  501    0 -0.94271698249E+00 -0.26940976917E+02  0.12296546159E+02  0.30000000000E+02  0.47000000000E+01 0.  1.
         -5    1    3    3    0  501  0.94271698249E+00  0.26940976917E+02 -0.12296546159E+02  0.30000000000E+02  0.47000000000E+01 0. -1.
</event>
<event>
 5    1  0.7693226E-002  0.6000000E+02  0.7546771E-02  0.1259629E+00
         11   -1    0    0    0    0  0.00000000000E+00  0.00000000000E+00  0.30000000000E+02  0.30000000000E+02  0.00000000000E+00 0. -1.
        -11   -1    0    0    0    0 -0.00000000000E+00 -0.00000000000E+00 -0.30000000000E+02  0.30000000000E+02  0.00000000000E+00 0.  1.
         23    2    1    2    0    0  0.00000000000E+00  0.00000000000E+00  0.00000000000E+00  0.60000000000E+02  0.60000000000E+02 0.  0.
          5    1    3    3  501    0  0.12441663776E+02  0.25996668879E+02 -0.68766423243E+01  0.30000000000E+02  0.47000000000E+01 0. -1.
         -5    1    3    3    0  501 -0.12441663776E+02 -0.25996668879E+02  0.68766423243E+01  0.30000000000E+02  0.47000000000E+01 0.  1.
</event>
<event>
 5    1  0.7693226E-002  0.6000000E+02  0.7546771E-02  0.1259629E+00
         11   -1    0    0    0    0  0.00000000000E+00  0.00000000000E+00  0.30000000000E+02  0.30000000000E+02  0.00000000000E+00 0.  1.
        -11   -1    0    0    0    0 -0.00000000000E+00 -0.00000000000E+00 -0.30000000000E+02  0.30000000000E+02  0.00000000000E+00 0. -1.
         23    2    1    2    0    0  0.00000000000E+00  0.00000000000E+00  0.00000000000E+00  0.60000000000E+02  0.60000000000E+02 0.  0.
          5    1    3    3  501    0  0.29388101869E+02  0.14174013771E+01  0.34986342851E+01  0.30000000000E+02  0.47000000000E+01 0. -1.
         -5    1    3    3    0  501 -0.29388101869E+02 -0.14174013771E+01 -0.34986342851E+01  0.30000000000E+02  0.47000000000E+01 0.  1.
</event>
<event>
 5    1  0.7693226E-002  0.6000000E+02  0.7546771E-02  0.1259629E+00
         11   -1    0    0    0    0  0.00000000000E+00  0.00000000000E+00  0.30000000000E+02  0.30000000000E+02  0.00000000000E+00 0. -1.
        -11   -1    0    0    0    0 -0.00000000000E+00 -0.00000000000E+00 -0.30000000000E+02  0.30000000000E+02  0.00000000000E+00 0.  1.
         23    2    1    2    0    0  0.00000000000E+00  0.00000000000E+00  0.00000000000E+00  0.60000000000E+02  0.60000000000E+02 0.  0.
          5    1    3    3  501    0 -0.23101661680E+02  0.17300317037E+02 -0.67024068866E+01  0.30000000000E+02  0.47000000000E+01 0.  1.
         -5    1    3    3    0  501  0.23101661680E+02 -0.17300317037E+02  0.67024068866E+01  0.30000000000E+02  0.47000000000E+01 0. -1.
</event>
<event>
 5    1  0.7693226E-002  0.6000000E+02  0.7546771E-02  0.1259629E+00
         11   -1    0    0    0    0  0.00000000000E+00  0.00000000000E+00  0.30000000000E+02  0.30000000000E+02  0.00000000000E+00 0.  1.
        -11   -1    0    0    0    0 -0.00000000000E+00 -0.00000000000E+00 -0.30000000000E+02  0.30000000000E+02  0.00000000000E+00 0. -1.
         23    2    1    2    0    0  0.00000000000E+00  0.00000000000E+00  0.00000000000E+00  0.60000000000E+02  0.60000000000E+02 0.  0.
          5    1    3    3  501    0  0.78774149512E+01  0.13800303155E+02 -0.25008157999E+02  0.30000000000E+02  0.47000000000E+01 0. -1.
         -5    1    3    3    0  501 -0.78774149512E+01 -0.13800303155E+02  0.25008157999E+02  0.30000000000E+02  0.47000000000E+01 0.  1.
</event>
<event>
 5    1  0.7693226E-002  0.6000000E+02  0.7546771E-02  0.1259629E+00
         11   -1    0    0    0    0  0.00000000000E+00  0.00000000000E+00  0.30000000000E+02  0.30000000000E+02  0.00000000000E+00 0.  1.
        -11   -1    0    0    0    0 -0.00000000000E+00 -0.00000000000E+00 -0.30000000000E+02  0.30000000000E+02  0.00000000000E+00 0. -1.
         23    2    1    2    0    0  0.00000000000E+00  0.00000000000E+00  0.00000000000E+00  0.60000000000E+02  0.60000000000E+02 0.  0.
          5    1    3    3  501    0  0.23678393295E+02  0.48120177982E+01  0.17148999262E+02  0.30000000000E+02  0.47000000000E+01 0.  1.
         -5    1    3    3    0  501 -0.23678393295E+02 -0.48120177982E+01 -0.17148999262E+02  0.30000000000E+02  0.47000000000E+01 0. -1.
</event>
<event>
 5    1  0.7693226E-002  0.6000000E+02  0.7546771E-02  0.1259629E+00
         11   -1    0    0    0    0  0.00000000000E+00  0.00000000000E+00  0.30000000000E+02  0.30000000000E+02  0.00000000000E+00 0. -1.
        -11   -1    0    0    0    0 -0.00000000000E+00 -0.00000000000E+00 -0.30000000000E+02  0.30000000000E+02  0.00000000000E+00 0.  1.
         23    2    1    2    0    0  0.00000000000E+00  0.00000000000E+00  0.00000000000E+00  0.60000000000E+02  0.60000000000E+02 0.  0.
          5    1    3    3  501    0 -0.35233244611E+01  0.54408539653E+01 -0.28911819259E+02  0.30000000000E+02  0.47000000000E+01 0.  1.
         -5    1    3    3    0  501  0.35233244611E+01 -0.54408539653E+01  0.28911819259E+02  0.30000000000E+02  0.47000000000E+01 0. -1.
</event>
<event>
 5    1  0.7693226E-002  0.6000000E+02  0.7546771E-02  0.1259629E+00
         11   -1    0    0    0    0  0.00000000000E+00  0.00000000000E+00  0.30000000000E+02  0.30000000000E+02  0.00000000000E+00 0. -1.
        -11   -1    0    0    0    0 -0.00000000000E+00 -0.00000000000E+00 -0.30000000000E+02  0.30000000000E+02  0.00000000000E+00 0.  1.
         23    2    1    2    0    0  0.00000000000E+00  0.00000000000E+00  0.00000000000E+00  0.60000000000E+02  0.60000000000E+02 0.  0.
          5    1    3    3  501    0 -0.17607809192E+02 -0.11779748610E+02 -0.20715032661E+02  0.30000000000E+02  0.47000000000E+01 0.  1.
         -5    1    3    3    0  501  0.17607809192E+02  0.11779748610E+02  0.20715032661E+02  0.30000000000E+02  0.47000000000E+01 0. -1.
</event>
<event>
 5    1  0.7693226E-002  0.6000000E+02  0.7546771E-02  0.1259629E+00
         11   -1    0    0    0    0  0.00000000000E+00  0.00000000000E+00  0.30000000000E+02  0.30000000000E+02  0.00000000000E+00 0.  1.
        -11   -1    0    0    0    0 -0.00000000000E+00 -0.00000000000E+00 -0.30000000000E+02  0.30000000000E+02  0.00000000000E+00 0. -1.
         23    2    1    2    0    0  0.00000000000E+00  0.00000000000E+00  0.00000000000E+00  0.60000000000E+02  0.60000000000E+02 0.  0.
          5    1    3    3  501    0 -0.15063361959E+02 -0.15514271523E+02 -0.20256172037E+02  0.30000000000E+02  0.47000000000E+01 0. -1.
         -5    1    3    3    0  501  0.15063361959E+02  0.15514271523E+02  0.20256172037E+02  0.30000000000E+02  0.47000000000E+01 0.  1.
</event>
<event>
 5    1  0.7693226E-002  0.6000000E+02  0.7546771E-02  0.1259629E+00
         11   -1    0    0    0    0  0.00000000000E+00  0.00000000000E+00  0.30000000000E+02  0.30000000000E+02  0.00000000000E+00 0. -1.
        -11   -1    0    0    0    0 -0.00000000000E+00 -0.00000000000E+00 -0.30000000000E+02  0.30000000000E+02  0.00000000000E+00 0.  1.
         23    2    1    2    0    0  0.00000000000E+00  0.00000000000E+00  0.00000000000E+00  0.60000000000E+02  0.60000000000E+02 0.  0.
          5    1    3    3  501    0 -0.22903575613E+02  0.69168218906E+01 -0.17478380905E+02  0.30000000000E+02  0.47000000000E+01 0.  1.
         -5    1    3    3    0  501  0.22903575613E+02 -0.69168218906E+01  0.17478380905E+02  0.30000000000E+02  0.47000000000E+01 0. -1.
</event>
<event>
 5    1  0.7693226E-002  0.6000000E+02  0.7546771E-02  0.1259629E+00
         11   -1    0    0    0    0  0.00000000000E+00  0.00000000000E+00  0.30000000000E+02  0.30000000000E+02  0.00000000000E+00 0.  1.
        -11   -1    0    0    0    0 -0.00000000000E+00 -0.00000000000E+00 -0.30000000000E+02  0.30000000000E+02  0.00000000000E+00 0. -1.
         23    2    1    2    0    0  0.00000000000E+00  0.00000000000E+00  0.00000000000E+00  0.60000000000E+02  0.60000000000E+02 0.  0.
          5    1    3    3  501    0 -0.15157298415E+02 -0.14098968426E+02 -0.21198712086E+02  0.30000000000E+02  0.47000000000E+01 0. -1.
         -5    1    3    3    0  501  0.15157298415E+02  0.14098968426E+02  0.21198712086E+02  0.30000000000E+02  0.47000000000E+01 0.  1.
</event>
<event>
 5    1  0.7693226E-002  0.6000000E+02  0.7546771E-02  0.1259629E+00
         11   -1    0    0    0    0  0.00000000000E+00  0.00000000000E+00  0.30000000000E+02  0.30000000000E+02  0.00000000000E+00 0.  1.
        -11   -1    0    0    0    0 -0.00000000000E+00 -0.00000000000E+00 -0.30000000000E+02  0.30000000000E+02  0.00000000000E+00 0. -1.
         23    2    1    2    0    0  0.00000000000E+00  0.00000000000E+00  0.00000000000E+00  0.60000000000E+02  0.60000000000E+02 0.  0.
          5    1    3    3  501    0  0.36119793099E+01 -0.33142686500E+01  0.29221211966E+02  0.30000000000E+02  0.47000000000E+01 0.  1.
         -5    1    3    3    0  501 -0.36119793099E+01  0.33142686500E+01 -0.29221211966E+02  0.30000000000E+02  0.47000000000E+01 0. -1.
</event>
<event>
 5    1  0.7693226E-002  0.6000000E+02  0.7546771E-02  0.1259629E+00
         11   -1    0    0    0    0  0.00000000000E+00  0.00000000000E+00  0.30000000000E+02  0.30000000000E+02  0.00000000000E+00 0.  1.
        -11   -1    0    0    0    0 -0.00000000000E+00 -0.00000000000E+00 -0.30000000000E+02  0.30000000000E+02  0.00000000000E+00 0. -1.
         23    2    1    2    0    0  0.00000000000E+00  0.00000000000E+00  0.00000000000E+00  0.60000000000E+02  0.60000000000E+02 0.  0.
          5    1    3    3  501    0 -0.26876254784E+02  0.59625270417E+01  0.10955601310E+02  0.30000000000E+02  0.47000000000E+01 0. -1.
         -5    1    3    3    0  501  0.26876254784E+02 -0.59625270417E+01 -0.10955601310E+02  0.30000000000E+02  0.47000000000E+01 0.  1.
</event>
<event>
 5    1  0.7693226E-002  0.6000000E+02  0.7546771E-02  0.1259629E+00
         11   -1    0    0    0    0  0.00000000000E+00  0.00000000000E+00  0.30000000000E+02  0.30000000000E+02  0.00000000000E+00 0. -1.
        -11   -1    0    0    0    0 -0.00000000000E+00 -0.00000000000E+00 -0.30000000000E+02  0.30000000000E+02  0.00000000000E+00 0.  1.
         23    2    1    2    0    0  0.00000000000E+00  0.00000000000E+00  0.00000000000E+00  0.60000000000E+02  0.60000000000E+02 0.  0.
          5    1    3    3  501    0  0.85729250843E+00  0.14129634675E+02 -0.26029377125E+02  0.30000000000E+02  0.47000000000E+01 0.  1.
         -5    1    3    3    0  501 -0.85729250843E+00 -0.14129634675E+02  0.26029377125E+02  0.30000000000E+02  0.47000000000E+01 0. -1.
</event>
<event>
 5    1  0.7693226E-002  0.6000000E+02  0.7546771E-02  0.1259629E+00
         11   -1    0    0    0    0  0.00000000000E+00  0.00000000000E+00  0.30000000000E+02  0.30000000000E+02  0.00000000000E+00 0.  1.
        -11   -1    0    0    0    0 -0.00000000000E+00 -0.00000000000E+00 -0.30000000000E+02  0.30000000000E+02  0.00000000000E+00 0. -1.
         23    2    1    2    0    0  0.00000000000E+00  0.00000000000E+00  0.00000000000E+00  0.60000000000E+02  0.60000000000E+02 0.  0.
          5    1    3    3  501    0 -0.26629904984E+02  0.10244035892E+01  0.12950241613E+02  0.30000000000E+02  0.47000000000E+01 0.  1.
         -5    1    3    3    0  501  0.26629904984E+02 -0.10244035892E+01 -0.12950241613E+02  0.30000000000E+02  0.47000000000E+01 0. -1.
</event>
<event>
 5    1  0.7693226E-002  0.6000000E+02  0.7546771E-02  0.1259629E+00
         11   -1    0    0    0    0  0.00000000000E+00  0.00000000000E+00  0.30000000000E+02  0.30000000000E+02  0.00000000000E+00 0.  1.
        -11   -1    0    0    0    0 -0.00000000000E+00 -0.00000000000E+00 -0.30000000000E+02  0.30000000000E+02  0.00000000000E+00 0. -1.
         23    2    1    2    0    0  0.00000000000E+00  0.00000000000E+00  0.00000000000E+00  0.60000000000E+02  0.60000000000E+02 0.  0.
          5    1    3    3  501    0  0.25987670857E+02 -0.12684696700E+02 -0.64536371981E+01  0.30000000000E+02  0.47000000000E+01 0. -1.
         -5    1    3    3    0  501 -0.25987670857E+02  0.12684696700E+02  0.64536371981E+01  0.30000000000E+02  0.47000000000E+01 0.  1.
</event>
<event>
 5    1  0.7693226E-002  0.6000000E+02  0.7546771E-02  0.1259629E+00
         11   -1    0    0    0    0  0.00000000000E+00  0.00000000000E+00  0.30000000000E+02  0.30000000000E+02  0.00000000000E+00 0.  1.
        -11   -1    0    0    0    0 -0.00000000000E+00 -0.00000000000E+00 -0.30000000000E+02  0.30000000000E+02  0.00000000000E+00 0. -1.
         23    2    1    2    0    0  0.00000000000E+00  0.00000000000E+00  0.00000000000E+00  0.60000000000E+02  0.60000000000E+02 0.  0.
          5    1    3    3  501    0  0.60775136926E+01 -0.28322238424E+02 -0.62309419819E+01  0.30000000000E+02  0.47000000000E+01 0. -1.
         -5    1    3    3    0  501 -0.60775136926E+01  0.28322238424E+02  0.62309419819E+01  0.30000000000E+02  0.47000000000E+01 0.  1.
</event>
<event>
 5    1  0.7693226E-002  0.6000000E+02  0.7546771E-02  0.1259629E+00
         11   -1    0    0    0    0  0.00000000000E+00  0.00000000000E+00  0.30000000000E+02  0.30000000000E+02  0.00000000000E+00 0.  1.
        -11   -1    0    0    0    0 -0.00000000000E+00 -0.00000000000E+00 -0.30000000000E+02  0.30000000000E+02  0.00000000000E+00 0. -1.
         23    2    1    2    0    0  0.00000000000E+00  0.00000000000E+00  0.00000000000E+00  0.60000000000E+02  0.60000000000E+02 0.  0.
          5    1    3    3  501    0 -0.15003230773E+02 -0.21966203777E+02 -0.13049864291E+02  0.30000000000E+02  0.47000000000E+01 0. -1.
         -5    1    3    3    0  501  0.15003230773E+02  0.21966203777E+02  0.13049864291E+02  0.30000000000E+02  0.47000000000E+01 0.  1.
</event>
<event>
 5    1  0.7693226E-002  0.6000000E+02  0.7546771E-02  0.1259629E+00
         11   -1    0    0    0    0  0.00000000000E+00  0.00000000000E+00  0.30000000000E+02  0.30000000000E+02  0.00000000000E+00 0.  1.
        -11   -1    0    0    0    0 -0.00000000000E+00 -0.00000000000E+00 -0.30000000000E+02  0.30000000000E+02  0.00000000000E+00 0. -1.
         23    2    1    2    0    0  0.00000000000E+00  0.00000000000E+00  0.00000000000E+00  0.60000000000E+02  0.60000000000E+02 0.  0.
          5    1    3    3  501    0  0.28224096101E+02 -0.66076068726E+01  0.61359539337E+01  0.30000000000E+02  0.47000000000E+01 0. -1.
         -5    1    3    3    0  501 -0.28224096101E+02  0.66076068726E+01 -0.61359539337E+01  0.30000000000E+02  0.47000000000E+01 0.  1.
</event>
<event>
 5    1  0.7693226E-002  0.6000000E+02  0.7546771E-02  0.1259629E+00
         11   -1    0    0    0    0  0.00000000000E+00  0.00000000000E+00  0.30000000000E+02  0.30000000000E+02  0.00000000000E+00 0.  1.
        -11   -1    0    0    0    0 -0.00000000000E+00 -0.00000000000E+00 -0.30000000000E+02  0.30000000000E+02  0.00000000000E+00 0. -1.
         23    2    1    2    0    0  0.00000000000E+00  0.00000000000E+00  0.00000000000E+00  0.60000000000E+02  0.60000000000E+02 0.  0.
          5    1    3    3  501    0 -0.15480619564E+02  0.94770944416E+01 -0.23418904732E+02  0.30000000000E+02  0.47000000000E+01 0. -1.
         -5    1    3    3    0  501  0.15480619564E+02 -0.94770944416E+01  0.23418904732E+02  0.30000000000E+02  0.47000000000E+01 0.  1.
</event>
<event>
 5    1  0.7693226E-002  0.6000000E+02  0.7546771E-02  0.1259629E+00
         11   -1    0    0    0    0  0.00000000000E+00  0.00000000000E+00  0.30000000000E+02  0.30000000000E+02  0.00000000000E+00 0.  1.
        -11   -1    0    0    0    0 -0.00000000000E+00 -0.00000000000E+00 -0.30000000000E+02  0.30000000000E+02  0.00000000000E+00 0. -1.
         23    2    1    2    0    0  0.00000000000E+00  0.00000000000E+00  0.00000000000E+00  0.60000000000E+02  0.60000000000E+02 0.  0.
          5    1    3    3  501    0 -0.27872716063E+02  0.10015631725E+02 -0.84191472537E+00  0.30000000000E+02  0.47000000000E+01 0.  1.
         -5    1    3    3    0  501  0.27872716063E+02 -0.10015631725E+02  0.84191472537E+00  0.30000000000E+02  0.47000000000E+01 0. -1.
</event>
<event>
 5    1  0.7693226E-002  0.6000000E+02  0.7546771E-02  0.1259629E+00
         11   -1    0    0    0    0  0.00000000000E+00  0.00000000000E+00  0.30000000000E+02  0.30000000000E+02  0.00000000000E+00 0.  1.
        -11   -1    0    0    0    0 -0.00000000000E+00 -0.00000000000E+00 -0.30000000000E+02  0.30000000000E+02  0.00000000000E+00 0. -1.
         23    2    1    2    0    0  0.00000000000E+00  0.00000000000E+00  0.00000000000E+00  0.60000000000E+02  0.60000000000E+02 0.  0.
          5    1    3    3  501    0 -0.13017435569E+01 -0.29555070625E+02 -0.16471988525E+01  0.30000000000E+02  0.47000000000E+01 0. -1.
         -5    1    3    3    0  501  0.13017435569E+01  0.29555070625E+02  0.16471988525E+01  0.30000000000E+02  0.47000000000E+01 0.  1.
</event>
<event>
 5    1  0.7693226E-002  0.6000000E+02  0.7546771E-02  0.1259629E+00
         11   -1    0    0    0    0  0.00000000000E+00  0.00000000000E+00  0.30000000000E+02  0.30000000000E+02  0.00000000000E+00 0.  1.
        -11   -1    0    0    0    0 -0.00000000000E+00 -0.00000000000E+00 -0.30000000000E+02  0.30000000000E+02  0.00000000000E+00 0. -1.
         23    2    1    2    0    0  0.00000000000E+00  0.00000000000E+00  0.00000000000E+00  0.60000000000E+02  0.60000000000E+02 0.  0.
          5    1    3    3  501    0 -0.28248111394E+01  0.19714479599E+02  0.21937860793E+02  0.30000000000E+02  0.47000000000E+01 0.  1.
         -5    1    3    3    0  501  0.28248111394E+01 -0.19714479599E+02 -0.21937860793E+02  0.30000000000E+02  0.47000000000E+01 0. -1.
</event>
<event>
 5    1  0.7693226E-002  0.6000000E+02  0.7546771E-02  0.1259629E+00
         11   -1    0    0    0    0  0.00000000000E+00  0.00000000000E+00  0.30000000000E+02  0.30000000000E+02  0.00000000000E+00 0.  1.
        -11   -1    0    0    0    0 -0.00000000000E+00 -0.00000000000E+00 -0.30000000000E+02  0.30000000000E+02  0.00000000000E+00 0. -1.
         23    2    1    2    0    0  0.00000000000E+00  0.00000000000E+00  0.00000000000E+00  0.60000000000E+02  0.60000000000E+02 0.  0.
          5    1    3    3  501    0  0.28743868312E+01  0.63344208036E+01 -0.28801441169E+02  0.30000000000E+02  0.47000000000E+01 0. -1.
         -5    1    3    3    0  501 -0.28743868312E+01 -0.63344208036E+01  0.28801441169E+02  0.30000000000E+02  0.47000000000E+01 0.  1.
</event>
<event>
 5    1  0.7693226E-002  0.6000000E+02  0.7546771E-02  0.1259629E+00
         11   -1    0    0    0    0  0.00000000000E+00  0.00000000000E+00  0.30000000000E+02  0.30000000000E+02  0.00000000000E+00 0.  1.
        -11   -1    0    0    0    0 -0.00000000000E+00 -0.00000000000E+00 -0.30000000000E+02  0.30000000000E+02  0.00000000000E+00 0. -1.
         23    2    1    2    0    0  0.00000000000E+00  0.00000000000E+00  0.00000000000E+00  0.60000000000E+02  0.60000000000E+02 0.  0.
          5    1    3    3  501    0 -0.19230722915E+02 -0.18595849725E+02 -0.12739060765E+02  0.30000000000E+02  0.47000000000E+01 0. -1.
         -5    1    3    3    0  501  0.19230722915E+02  0.18595849725E+02  0.12739060765E+02  0.30000000000E+02  0.47000000000E+01 0.  1.
</event>
<event>
 5    1  0.7693226E-002  0.6000000E+02  0.7546771E-02  0.1259629E+00
         11   -1    0    0    0    0  0.00000000000E+00  0.00000000000E+00  0.30000000000E+02  0.30000000000E+02  0.00000000000E+00 0.  1.
        -11   -1    0    0    0    0 -0.00000000000E+00 -0.00000000000E+00 -0.30000000000E+02  0.30000000000E+02  0.00000000000E+00 0. -1.
         23    2    1    2    0    0  0.00000000000E+00  0.00000000000E+00  0.00000000000E+00  0.60000000000E+02  0.60000000000E+02 0.  0.
          5    1    3    3  501    0  0.32561936139E+00 -0.22049977009E+01 -0.29545591163E+02  0.30000000000E+02  0.47000000000E+01 0. -1.
         -5    1    3    3    0  501 -0.32561936139E+00  0.22049977009E+01  0.29545591163E+02  0.30000000000E+02  0.47000000000E+01 0.  1.
</event>
<event>
 5    1  0.7693226E-002  0.6000000E+02  0.7546771E-02  0.1259629E+00
         11   -1    0    0    0    0  0.00000000000E+00  0.00000000000E+00  0.30000000000E+02  0.30000000000E+02  0.00000000000E+00 0.  1.
        -11   -1    0    0    0    0 -0.00000000000E+00 -0.00000000000E+00 -0.30000000000E+02  0.30000000000E+02  0.00000000000E+00 0. -1.
         23    2    1    2    0    0  0.00000000000E+00  0.00000000000E+00  0.00000000000E+00  0.60000000000E+02  0.60000000000E+02 0.  0.
          5    1    3    3  501    0  0.16879732580E+02 -0.24269784127E+02 -0.19905291843E+01  0.30000000000E+02  0.47000000000E+01 0. -1.
         -5    1    3    3    0  501 -0.16879732580E+02  0.24269784127E+02  0.19905291843E+01  0.30000000000E+02  0.47000000000E+01 0.  1.
</event>
<event>
 5    1  0.7693226E-002  0.6000000E+02  0.7546771E-02  0.1259629E+00
         11   -1    0    0    0    0  0.00000000000E+00  0.00000000000E+00  0.30000000000E+02  0.30000000000E+02  0.00000000000E+00 0.  1.
        -11   -1    0    0    0    0 -0.00000000000E+00 -0.00000000000E+00 -0.30000000000E+02  0.30000000000E+02  0.00000000000E+00 0. -1.
         23    2    1    2    0    0  0.00000000000E+00  0.00000000000E+00  0.00000000000E+00  0.60000000000E+02  0.60000000000E+02 0.  0.
          5    1    3    3  501    0 -0.25245181529E+02  0.14732895707E+02  0.48510404738E+01  0.30000000000E+02  0.47000000000E+01 0. -1.
         -5    1    3    3    0  501  0.25245181529E+02 -0.14732895707E+02 -0.48510404738E+01  0.30000000000E+02  0.47000000000E+01 0.  1.
</event>
<event>
 5    1  0.7693226E-002  0.6000000E+02  0.7546771E-02  0.1259629E+00
         11   -1    0    0    0    0  0.00000000000E+00  0.00000000000E+00  0.30000000000E+02  0.30000000000E+02  0.00000000000E+00 0.  1.
        -11   -1    0    0    0    0 -0.00000000000E+00 -0.00000000000E+00 -0.30000000000E+02  0.30000000000E+02  0.00000000000E+00 0. -1.
         23    2    1    2    0    0  0.00000000000E+00  0.00000000000E+00  0.00000000000E+00  0.60000000000E+02  0.60000000000E+02 0.  0.
          5    1    3    3  501    0  0.15843951720E+02  0.65851017822E+01 -0.24156068149E+02  0.30000000000E+02  0.47000000000E+01 0. -1.
         -5    1    3    3    0  501 -0.15843951720E+02 -0.65851017822E+01  0.24156068149E+02  0.30000000000E+02  0.47000000000E+01 0.  1.
</event>
<event>
 5    1  0.7693226E-002  0.6000000E+02  0.7546771E-02  0.1259629E+00
         11   -1    0    0    0    0  0.00000000000E+00  0.00000000000E+00  0.30000000000E+02  0.30000000000E+02  0.00000000000E+00 0.  1.
        -11   -1    0    0    0    0 -0.00000000000E+00 -0.00000000000E+00 -0.30000000000E+02  0.30000000000E+02  0.00000000000E+00 0. -1.
         23    2    1    2    0    0  0.00000000000E+00  0.00000000000E+00  0.00000000000E+00  0.60000000000E+02  0.60000000000E+02 0.  0.
          5    1    3    3  501    0 -0.11038008287E+02 -0.59144710508E+01 -0.26853145165E+02  0.30000000000E+02  0.47000000000E+01 0. -1.
         -5    1    3    3    0  501  0.11038008287E+02  0.59144710508E+01  0.26853145165E+02  0.30000000000E+02  0.47000000000E+01 0.  1.
</event>
<event>
 5    1  0.7693226E-002  0.6000000E+02  0.7546771E-02  0.1259629E+00
         11   -1    0    0    0    0  0.00000000000E+00  0.00000000000E+00  0.30000000000E+02  0.30000000000E+02  0.00000000000E+00 0.  1.
        -11   -1    0    0    0    0 -0.00000000000E+00 -0.00000000000E+00 -0.30000000000E+02  0.30000000000E+02  0.00000000000E+00 0. -1.
         23    2    1    2    0    0  0.00000000000E+00  0.00000000000E+00  0.00000000000E+00  0.60000000000E+02  0.60000000000E+02 0.  0.
          5    1    3    3  501    0  0.53643472632E+01 -0.83600721904E+01 -0.27914923812E+02  0.30000000000E+02  0.47000000000E+01 0. -1.
         -5    1    3    3    0  501 -0.53643472632E+01  0.83600721904E+01  0.27914923812E+02  0.30000000000E+02  0.47000000000E+01 0.  1.
</event>
<event>
 5    1  0.7693226E-002  0.6000000E+02  0.7546771E-02  0.1259629E+00
         11   -1    0    0    0    0  0.00000000000E+00  0.00000000000E+00  0.30000000000E+02  0.30000000000E+02  0.00000000000E+00 0.  1.
        -11   -1    0    0    0    0 -0.00000000000E+00 -0.00000000000E+00 -0.30000000000E+02  0.30000000000E+02  0.00000000000E+00 0. -1.
         23    2    1    2    0    0  0.00000000000E+00  0.00000000000E+00  0.00000000000E+00  0.60000000000E+02  0.60000000000E+02 0.  0.
          5    1    3    3  501    0  0.13327273359E+02  0.25515884949E+02 -0.70166516308E+01  0.30000000000E+02  0.47000000000E+01 0. -1.
         -5    1    3    3    0  501 -0.13327273359E+02 -0.25515884949E+02  0.70166516308E+01  0.30000000000E+02  0.47000000000E+01 0.  1.
</event>
<event>
 5    1  0.7693226E-002  0.6000000E+02  0.7546771E-02  0.1259629E+00
         11   -1    0    0    0    0  0.00000000000E+00  0.00000000000E+00  0.30000000000E+02  0.30000000000E+02  0.00000000000E+00 0. -1.
        -11   -1    0    0    0    0 -0.00000000000E+00 -0.00000000000E+00 -0.30000000000E+02  0.30000000000E+02  0.00000000000E+00 0.  1.
         23    2    1    2    0    0  0.00000000000E+00  0.00000000000E+00  0.00000000000E+00  0.60000000000E+02  0.60000000000E+02 0.  0.
          5    1    3    3  501    0  0.28331378918E+02  0.58866884481E+01 -0.63710177934E+01  0.30000000000E+02  0.47000000000E+01 0.  1.
         -5    1    3    3    0  501 -0.28331378918E+02 -0.58866884481E+01  0.63710177934E+01  0.30000000000E+02  0.47000000000E+01 0. -1.
</event>
<event>
 5    1  0.7693226E-002  0.6000000E+02  0.7546771E-02  0.1259629E+00
         11   -1    0    0    0    0  0.00000000000E+00  0.00000000000E+00  0.30000000000E+02  0.30000000000E+02  0.00000000000E+00 0.  1.
        -11   -1    0    0    0    0 -0.00000000000E+00 -0.00000000000E+00 -0.30000000000E+02  0.30000000000E+02  0.00000000000E+00 0. -1.
         23    2    1    2    0    0  0.00000000000E+00  0.00000000000E+00  0.00000000000E+00  0.60000000000E+02  0.60000000000E+02 0.  0.
          5    1    3    3  501    0 -0.20244350702E+02  0.35088623444E+00 -0.21632224654E+02  0.30000000000E+02  0.47000000000E+01 0. -1.
         -5    1    3    3    0  501  0.20244350702E+02 -0.35088623444E+00  0.21632224654E+02  0.30000000000E+02  0.47000000000E+01 0.  1.
</event>
<event>
 5    1  0.7693226E-002  0.6000000E+02  0.7546771E-02  0.1259629E+00
         11   -1    0    0    0    0  0.00000000000E+00  0.00000000000E+00  0.30000000000E+02  0.30000000000E+02  0.00000000000E+00 0.  1.
        -11   -1    0    0    0    0 -0.00000000000E+00 -0.00000000000E+00 -0.30000000000E+02  0.30000000000E+02  0.00000000000E+00 0. -1.
         23    2    1    2    0    0  0.00000000000E+00  0.00000000000E+00  0.00000000000E+00  0.60000000000E+02  0.60000000000E+02 0.  0.
          5    1    3    3  501    0 -0.92968395358E+01 -0.12793300396E+02 -0.25056141754E+02  0.30000000000E+02  0.47000000000E+01 0. -1.
         -5    1    3    3    0  501  0.92968395358E+01  0.12793300396E+02  0.25056141754E+02  0.30000000000E+02  0.47000000000E+01 0.  1.
</event>
<event>
 5    1  0.7693226E-002  0.6000000E+02  0.7546771E-02  0.1259629E+00
         11   -1    0    0    0    0  0.00000000000E+00  0.00000000000E+00  0.30000000000E+02  0.30000000000E+02  0.00000000000E+00 0.  1.
        -11   -1    0    0    0    0 -0.00000000000E+00 -0.00000000000E+00 -0.30000000000E+02  0.30000000000E+02  0.00000000000E+00 0. -1.
         23    2    1    2    0    0  0.00000000000E+00  0.00000000000E+00  0.00000000000E+00  0.60000000000E+02  0.60000000000E+02 0.  0.
          5    1    3    3  501    0 -0.25623101567E+01  0.28228172169E+02  0.86321991780E+01  0.30000000000E+02  0.47000000000E+01 0.  1.
         -5    1    3    3    0  501  0.25623101567E+01 -0.28228172169E+02 -0.86321991780E+01  0.30000000000E+02  0.47000000000E+01 0. -1.
</event>
<event>
 5    1  0.7693226E-002  0.6000000E+02  0.7546771E-02  0.1259629E+00
         11   -1    0    0    0    0  0.00000000000E+00  0.00000000000E+00  0.30000000000E+02  0.30000000000E+02  0.00000000000E+00 0.  1.
        -11   -1    0    0    0    0 -0.00000000000E+00 -0.00000000000E+00 -0.30000000000E+02  0.30000000000E+02  0.00000000000E+00 0. -1.
         23    2    1    2    0    0  0.00000000000E+00  0.00000000000E+00  0.00000000000E+00  0.60000000000E+02  0.60000000000E+02 0.  0.
          5    1    3    3  501    0 -0.39040538933E+01  0.28987402549E+02  0.47327430366E+01  0.30000000000E+02  0.47000000000E+01 0. -1.
         -5    1    3    3    0  501  0.39040538933E+01 -0.28987402549E+02 -0.47327430366E+01  0.30000000000E+02  0.47000000000E+01 0.  1.
</event>
<event>
 5    1  0.7693226E-002  0.6000000E+02  0.7546771E-02  0.1259629E+00
         11   -1    0    0    0    0  0.00000000000E+00  0.00000000000E+00  0.30000000000E+02  0.30000000000E+02  0.00000000000E+00 0.  1.
        -11   -1    0    0    0    0 -0.00000000000E+00 -0.00000000000E+00 -0.30000000000E+02  0.30000000000E+02  0.00000000000E+00 0. -1.
         23    2    1    2    0    0  0.00000000000E+00  0.00000000000E+00  0.00000000000E+00  0.60000000000E+02  0.60000000000E+02 0.  0.
          5    1    3    3  501    0  0.11262983732E+02 -0.14699429842E+02 -0.23129677035E+02  0.30000000000E+02  0.47000000000E+01 0. -1.
         -5    1    3    3    0  501 -0.11262983732E+02  0.14699429842E+02  0.23129677035E+02  0.30000000000E+02  0.47000000000E+01 0.  1.
</event>
<event>
 5    1  0.7693226E-002  0.6000000E+02  0.7546771E-02  0.1259629E+00
         11   -1    0    0    0    0  0.00000000000E+00  0.00000000000E+00  0.30000000000E+02  0.30000000000E+02  0.00000000000E+00 0. -1.
        -11   -1    0    0    0    0 -0.00000000000E+00 -0.00000000000E+00 -0.30000000000E+02  0.30000000000E+02  0.00000000000E+00 0.  1.
         23    2    1    2    0    0  0.00000000000E+00  0.00000000000E+00  0.00000000000E+00  0.60000000000E+02  0.60000000000E+02 0.  0.
          5    1    3    3  501    0 -0.92453845547E+01  0.24352937556E+02 -0.14119748469E+02  0.30000000000E+02  0.47000000000E+01 0.  1.
         -5    1    3    3    0  501  0.92453845547E+01 -0.24352937556E+02  0.14119748469E+02  0.30000000000E+02  0.47000000000E+01 0. -1.
</event>
<event>
 5    1  0.7693226E-002  0.6000000E+02  0.7546771E-02  0.1259629E+00
         11   -1    0    0    0    0  0.00000000000E+00  0.00000000000E+00  0.30000000000E+02  0.30000000000E+02  0.00000000000E+00 0.  1.
        -11   -1    0    0    0    0 -0.00000000000E+00 -0.00000000000E+00 -0.30000000000E+02  0.30000000000E+02  0.00000000000E+00 0. -1.
         23    2    1    2    0    0  0.00000000000E+00  0.00000000000E+00  0.00000000000E+00  0.60000000000E+02  0.60000000000E+02 0.  0.
          5    1    3    3  501    0 -0.29386756207E+02 -0.16941868490E+01  0.33850096797E+01  0.30000000000E+02  0.47000000000E+01 0. -1.
         -5    1    3    3    0  501  0.29386756207E+02  0.16941868490E+01 -0.33850096797E+01  0.30000000000E+02  0.47000000000E+01 0.  1.
</event>
<event>
 5    1  0.7693226E-002  0.6000000E+02  0.7546771E-02  0.1259629E+00
         11   -1    0    0    0    0  0.00000000000E+00  0.00000000000E+00  0.30000000000E+02  0.30000000000E+02  0.00000000000E+00 0.  1.
        -11   -1    0    0    0    0 -0.00000000000E+00 -0.00000000000E+00 -0.30000000000E+02  0.30000000000E+02  0.00000000000E+00 0. -1.
         23    2    1    2    0    0  0.00000000000E+00  0.00000000000E+00  0.00000000000E+00  0.60000000000E+02  0.60000000000E+02 0.  0.
          5    1    3    3  501    0  0.40657820161E+01 -0.29167356409E+02  0.32626272666E+01  0.30000000000E+02  0.47000000000E+01 0. -1.
         -5    1    3    3    0  501 -0.40657820161E+01  0.29167356409E+02 -0.32626272666E+01  0.30000000000E+02  0.47000000000E+01 0.  1.
</event>
<event>
 5    1  0.7693226E-002  0.6000000E+02  0.7546771E-02  0.1259629E+00
         11   -1    0    0    0    0  0.00000000000E+00  0.00000000000E+00  0.30000000000E+02  0.30000000000E+02  0.00000000000E+00 0.  1.
        -11   -1    0    0    0    0 -0.00000000000E+00 -0.00000000000E+00 -0.30000000000E+02  0.30000000000E+02  0.00000000000E+00 0. -1.
         23    2    1    2    0    0  0.00000000000E+00  0.00000000000E+00  0.00000000000E+00  0.60000000000E+02  0.60000000000E+02 0.  0.
          5    1    3    3  501    0  0.31580321625E+01  0.10636253548E+02 -0.27473750077E+02  0.30000000000E+02  0.47000000000E+01 0. -1.
         -5    1    3    3    0  501 -0.31580321625E+01 -0.10636253548E+02  0.27473750077E+02  0.30000000000E+02  0.47000000000E+01 0.  1.
</event>
<event>
 5    1  0.7693226E-002  0.6000000E+02  0.7546771E-02  0.1259629E+00
         11   -1    0    0    0    0  0.00000000000E+00  0.00000000000E+00  0.30000000000E+02  0.30000000000E+02  0.00000000000E+00 0. -1.
        -11   -1    0    0    0    0 -0.00000000000E+00 -0.00000000000E+00 -0.30000000000E+02  0.30000000000E+02  0.00000000000E+00 0.  1.
         23    2    1    2    0    0  0.00000000000E+00  0.00000000000E+00  0.00000000000E+00  0.60000000000E+02  0.60000000000E+02 0.  0.
          5    1    3    3  501    0  0.13418005607E+02 -0.25318276832E+02  0.75400254507E+01  0.30000000000E+02  0.47000000000E+01 0.  1.
         -5    1    3    3    0  501 -0.13418005607E+02  0.25318276832E+02 -0.75400254507E+01  0.30000000000E+02  0.47000000000E+01 0. -1.
</event>
<event>
 5    1  0.7693226E-002  0.6000000E+02  0.7546771E-02  0.1259629E+00
         11   -1    0    0    0    0  0.00000000000E+00  0.00000000000E+00  0.30000000000E+02  0.30000000000E+02  0.00000000000E+00 0.  1.
        -11   -1    0    0    0    0 -0.00000000000E+00 -0.00000000000E+00 -0.30000000000E+02  0.30000000000E+02  0.00000000000E+00 0. -1.
         23    2    1    2    0    0  0.00000000000E+00  0.00000000000E+00  0.00000000000E+00  0.60000000000E+02  0.60000000000E+02 0.  0.
          5    1    3    3  501    0 -0.13598061885E+02  0.17824901548E+02 -0.19372031328E+02  0.30000000000E+02  0.47000000000E+01 0. -1.
         -5    1    3    3    0  501  0.13598061885E+02 -0.17824901548E+02  0.19372031328E+02  0.30000000000E+02  0.47000000000E+01 0.  1.
</event>
<event>
 5    1  0.7693226E-002  0.6000000E+02  0.7546771E-02  0.1259629E+00
         11   -1    0    0    0    0  0.00000000000E+00  0.00000000000E+00  0.30000000000E+02  0.30000000000E+02  0.00000000000E+00 0. -1.
        -11   -1    0    0    0    0 -0.00000000000E+00 -0.00000000000E+00 -0.30000000000E+02  0.30000000000E+02  0.00000000000E+00 0.  1.
         23    2    1    2    0    0  0.00000000000E+00  0.00000000000E+00  0.00000000000E+00  0.60000000000E+02  0.60000000000E+02 0.  0.
          5    1    3    3  501    0 -0.22295903278E+02  0.29883219029E+01  0.19283999306E+02  0.30000000000E+02  0.47000000000E+01 0. -1.
         -5    1    3    3    0  501  0.22295903278E+02 -0.29883219029E+01 -0.19283999306E+02  0.30000000000E+02  0.47000000000E+01 0.  1.
</event>
<event>
 5    1  0.7693226E-002  0.6000000E+02  0.7546771E-02  0.1259629E+00
         11   -1    0    0    0    0  0.00000000000E+00  0.00000000000E+00  0.30000000000E+02  0.30000000000E+02  0.00000000000E+00 0.  1.
        -11   -1    0    0    0    0 -0.00000000000E+00 -0.00000000000E+00 -0.30000000000E+02  0.30000000000E+02  0.00000000000E+00 0. -1.
         23    2    1    2    0    0  0.00000000000E+00  0.00000000000E+00  0.00000000000E+00  0.60000000000E+02  0.60000000000E+02 0.  0.
          5    1    3    3  501    0  0.28161074030E+00 -0.30157970436E+01  0.29474322106E+02  0.30000000000E+02  0.47000000000E+01 0.  1.
         -5    1    3    3    0  501 -0.28161074030E+00  0.30157970436E+01 -0.29474322106E+02  0.30000000000E+02  0.47000000000E+01 0. -1.
</event>
<event>
 5    1  0.7693226E-002  0.6000000E+02  0.7546771E-02  0.1259629E+00
         11   -1    0    0    0    0  0.00000000000E+00  0.00000000000E+00  0.30000000000E+02  0.30000000000E+02  0.00000000000E+00 0.  1.
        -11   -1    0    0    0    0 -0.00000000000E+00 -0.00000000000E+00 -0.30000000000E+02  0.30000000000E+02  0.00000000000E+00 0. -1.
         23    2    1    2    0    0  0.00000000000E+00  0.00000000000E+00  0.00000000000E+00  0.60000000000E+02  0.60000000000E+02 0.  0.
          5    1    3    3  501    0 -0.23397195473E+02 -0.13855273579E+02 -0.11769139222E+02  0.30000000000E+02  0.47000000000E+01 0. -1.
         -5    1    3    3    0  501  0.23397195473E+02  0.13855273579E+02  0.11769139222E+02  0.30000000000E+02  0.47000000000E+01 0.  1.
</event>
<event>
 5    1  0.7693226E-002  0.6000000E+02  0.7546771E-02  0.1259629E+00
         11   -1    0    0    0    0  0.00000000000E+00  0.00000000000E+00  0.30000000000E+02  0.30000000000E+02  0.00000000000E+00 0. -1.
        -11   -1    0    0    0    0 -0.00000000000E+00 -0.00000000000E+00 -0.30000000000E+02  0.30000000000E+02  0.00000000000E+00 0.  1.
         23    2    1    2    0    0  0.00000000000E+00  0.00000000000E+00  0.00000000000E+00  0.60000000000E+02  0.60000000000E+02 0.  0.
          5    1    3    3  501    0  0.11306496325E+02 -0.15652153695E+02 -0.22474056722E+02  0.30000000000E+02  0.47000000000E+01 0.  1.
         -5    1    3    3    0  501 -0.11306496325E+02  0.15652153695E+02  0.22474056722E+02  0.30000000000E+02  0.47000000000E+01 0. -1.
</event>
<event>
 5    1  0.7693226E-002  0.6000000E+02  0.7546771E-02  0.1259629E+00
         11   -1    0    0    0    0  0.00000000000E+00  0.00000000000E+00  0.30000000000E+02  0.30000000000E+02  0.00000000000E+00 0.  1.
        -11   -1    0    0    0    0 -0.00000000000E+00 -0.00000000000E+00 -0.30000000000E+02  0.30000000000E+02  0.00000000000E+00 0. -1.
         23    2    1    2    0    0  0.00000000000E+00  0.00000000000E+00  0.00000000000E+00  0.60000000000E+02  0.60000000000E+02 0.  0.
          5    1    3    3  501    0  0.23304530875E+02  0.44077393746E+01 -0.17758960395E+02  0.30000000000E+02  0.47000000000E+01 0. -1.
         -5    1    3    3    0  501 -0.23304530875E+02 -0.44077393746E+01  0.17758960395E+02  0.30000000000E+02  0.47000000000E+01 0.  1.
</event>
<event>
 5    1  0.7693226E-002  0.6000000E+02  0.7546771E-02  0.1259629E+00
         11   -1    0    0    0    0  0.00000000000E+00  0.00000000000E+00  0.30000000000E+02  0.30000000000E+02  0.00000000000E+00 0.  1.
        -11   -1    0    0    0    0 -0.00000000000E+00 -0.00000000000E+00 -0.30000000000E+02  0.30000000000E+02  0.00000000000E+00 0. -1.
         23    2    1    2    0    0  0.00000000000E+00  0.00000000000E+00  0.00000000000E+00  0.60000000000E+02  0.60000000000E+02 0.  0.
          5    1    3    3  501    0 -0.14865682201E+02 -0.25058474619E+02 -0.53846394910E+01  0.30000000000E+02  0.47000000000E+01 0. -1.
         -5    1    3    3    0  501  0.14865682201E+02  0.25058474619E+02  0.53846394910E+01  0.30000000000E+02  0.47000000000E+01 0.  1.
</event>
<event>
 5    1  0.7693226E-002  0.6000000E+02  0.7546771E-02  0.1259629E+00
         11   -1    0    0    0    0  0.00000000000E+00  0.00000000000E+00  0.30000000000E+02  0.30000000000E+02  0.00000000000E+00 0. -1.
        -11   -1    0    0    0    0 -0.00000000000E+00 -0.00000000000E+00 -0.30000000000E+02  0.30000000000E+02  0.00000000000E+00 0.  1.
         23    2    1    2    0    0  0.00000000000E+00  0.00000000000E+00  0.00000000000E+00  0.60000000000E+02  0.60000000000E+02 0.  0.
          5    1    3    3  501    0 -0.82530574837E+00 -0.18865031625E+02  0.22832859046E+02  0.30000000000E+02  0.47000000000E+01 0. -1.
         -5    1    3    3    0  501  0.82530574837E+00  0.18865031625E+02 -0.22832859046E+02  0.30000000000E+02  0.47000000000E+01 0.  1.
</event>
<event>
 5    1  0.7693226E-002  0.6000000E+02  0.7546771E-02  0.1259629E+00
         11   -1    0    0    0    0  0.00000000000E+00  0.00000000000E+00  0.30000000000E+02  0.30000000000E+02  0.00000000000E+00 0.  1.
        -11   -1    0    0    0    0 -0.00000000000E+00 -0.00000000000E+00 -0.30000000000E+02  0.30000000000E+02  0.00000000000E+00 0. -1.
         23    2    1    2    0    0  0.00000000000E+00  0.00000000000E+00  0.00000000000E+00  0.60000000000E+02  0.60000000000E+02 0.  0.
          5    1    3    3  501    0  0.11164325143E+02  0.19135216920E+02 -0.19675144663E+02  0.30000000000E+02  0.47000000000E+01 0. -1.
         -5    1    3    3    0  501 -0.11164325143E+02 -0.19135216920E+02  0.19675144663E+02  0.30000000000E+02  0.47000000000E+01 0.  1.
</event>
<event>
 5    1  0.7693226E-002  0.6000000E+02  0.7546771E-02  0.1259629E+00
         11   -1    0    0    0    0  0.00000000000E+00  0.00000000000E+00  0.30000000000E+02  0.30000000000E+02  0.00000000000E+00 0. -1.
        -11   -1    0    0    0    0 -0.00000000000E+00 -0.00000000000E+00 -0.30000000000E+02  0.30000000000E+02  0.00000000000E+00 0.  1.
         23    2    1    2    0    0  0.00000000000E+00  0.00000000000E+00  0.00000000000E+00  0.60000000000E+02  0.60000000000E+02 0.  0.
          5    1    3    3  501    0 -0.14562898504E+02 -0.25792557458E+02 -0.75892487445E+00  0.30000000000E+02  0.47000000000E+01 0.  1.
         -5    1    3    3    0  501  0.14562898504E+02  0.25792557458E+02  0.75892487445E+00  0.30000000000E+02  0.47000000000E+01 0. -1.
</event>
<event>
 5    1  0.7693226E-002  0.6000000E+02  0.7546771E-02  0.1259629E+00
         11   -1    0    0    0    0  0.00000000000E+00  0.00000000000E+00  0.30000000000E+02  0.30000000000E+02  0.00000000000E+00 0.  1.
        -11   -1    0    0    0    0 -0.00000000000E+00 -0.00000000000E+00 -0.30000000000E+02  0.30000000000E+02  0.00000000000E+00 0. -1.
         23    2    1    2    0    0  0.00000000000E+00  0.00000000000E+00  0.00000000000E+00  0.60000000000E+02  0.60000000000E+02 0.  0.
          5    1    3    3  501    0 -0.85852532873E+00 -0.61638013425E+01  0.28968612105E+02  0.30000000000E+02  0.47000000000E+01 0.  1.
         -5    1    3    3    0  501  0.85852532873E+00  0.61638013425E+01 -0.28968612105E+02  0.30000000000E+02  0.47000000000E+01 0. -1.
</event>
<event>
 5    1  0.7693226E-002  0.6000000E+02  0.7546771E-02  0.1259629E+00
         11   -1    0    0    0    0  0.00000000000E+00  0.00000000000E+00  0.30000000000E+02  0.30000000000E+02  0.00000000000E+00 0.  1.
        -11   -1    0    0    0    0 -0.00000000000E+00 -0.00000000000E+00 -0.30000000000E+02  0.30000000000E+02  0.00000000000E+00 0. -1.
         23    2    1    2    0    0  0.00000000000E+00  0.00000000000E+00  0.00000000000E+00  0.60000000000E+02  0.60000000000E+02 0.  0.
          5    1    3    3  501    0 -0.29374789144E+02  0.30013857811E+01 -0.24542709978E+01  0.30000000000E+02  0.47000000000E+01 0. -1.
         -5    1    3    3    0  501  0.29374789144E+02 -0.30013857811E+01  0.24542709978E+01  0.30000000000E+02  0.47000000000E+01 0.  1.
</event>
<event>
 5    1  0.7693226E-002  0.6000000E+02  0.7546771E-02  0.1259629E+00
         11   -1    0    0    0    0  0.00000000000E+00  0.00000000000E+00  0.30000000000E+02  0.30000000000E+02  0.00000000000E+00 0.  1.
        -11   -1    0    0    0    0 -0.00000000000E+00 -0.00000000000E+00 -0.30000000000E+02  0.30000000000E+02  0.00000000000E+00 0. -1.
         23    2    1    2    0    0  0.00000000000E+00  0.00000000000E+00  0.00000000000E+00  0.60000000000E+02  0.60000000000E+02 0.  0.
          5    1    3    3  501    0 -0.50145743723E+01  0.27420658069E+02 -0.10043483207E+02  0.30000000000E+02  0.47000000000E+01 0. -1.
         -5    1    3    3    0  501  0.50145743723E+01 -0.27420658069E+02  0.10043483207E+02  0.30000000000E+02  0.47000000000E+01 0.  1.
</event>
<event>
 5    1  0.7693226E-002  0.6000000E+02  0.7546771E-02  0.1259629E+00
         11   -1    0    0    0    0  0.00000000000E+00  0.00000000000E+00  0.30000000000E+02  0.30000000000E+02  0.00000000000E+00 0. -1.
        -11   -1    0    0    0    0 -0.00000000000E+00 -0.00000000000E+00 -0.30000000000E+02  0.30000000000E+02  0.00000000000E+00 0.  1.
         23    2    1    2    0    0  0.00000000000E+00  0.00000000000E+00  0.00000000000E+00  0.60000000000E+02  0.60000000000E+02 0.  0.
          5    1    3    3  501    0  0.21411268887E+02 -0.17118088122E+02 -0.11244493038E+02  0.30000000000E+02  0.47000000000E+01 0.  1.
         -5    1    3    3    0  501 -0.21411268887E+02  0.17118088122E+02  0.11244493038E+02  0.30000000000E+02  0.47000000000E+01 0. -1.
</event>
<event>
 5    1  0.7693226E-002  0.6000000E+02  0.7546771E-02  0.1259629E+00
         11   -1    0    0    0    0  0.00000000000E+00  0.00000000000E+00  0.30000000000E+02  0.30000000000E+02  0.00000000000E+00 0. -1.
        -11   -1    0    0    0    0 -0.00000000000E+00 -0.00000000000E+00 -0.30000000000E+02  0.30000000000E+02  0.00000000000E+00 0.  1.
         23    2    1    2    0    0  0.00000000000E+00  0.00000000000E+00  0.00000000000E+00  0.60000000000E+02  0.60000000000E+02 0.  0.
          5    1    3    3  501    0  0.53805652126E+01 -0.21305332394E+02 -0.19875671801E+02  0.30000000000E+02  0.47000000000E+01 0.  1.
         -5    1    3    3    0  501 -0.53805652126E+01  0.21305332394E+02  0.19875671801E+02  0.30000000000E+02  0.47000000000E+01 0. -1.
</event>
<event>
 5    1  0.7693226E-002  0.6000000E+02  0.7546771E-02  0.1259629E+00
         11   -1    0    0    0    0  0.00000000000E+00  0.00000000000E+00  0.30000000000E+02  0.30000000000E+02  0.00000000000E+00 0. -1.
        -11   -1    0    0    0    0 -0.00000000000E+00 -0.00000000000E+00 -0.30000000000E+02  0.30000000000E+02  0.00000000000E+00 0.  1.
         23    2    1    2    0    0  0.00000000000E+00  0.00000000000E+00  0.00000000000E+00  0.60000000000E+02  0.60000000000E+02 0.  0.
          5    1    3    3  501    0  0.90650617903E+01 -0.10538669656E+02 -0.26166220526E+02  0.30000000000E+02  0.47000000000E+01 0.  1.
         -5    1    3    3    0  501 -0.90650617903E+01  0.10538669656E+02  0.26166220526E+02  0.30000000000E+02  0.47000000000E+01 0. -1.
</event>
<event>
 5    1  0.7693226E-002  0.6000000E+02  0.7546771E-02  0.1259629E+00
         11   -1    0    0    0    0  0.00000000000E+00  0.00000000000E+00  0.30000000000E+02  0.30000000000E+02  0.00000000000E+00 0. -1.
        -11   -1    0    0    0    0 -0.00000000000E+00 -0.00000000000E+00 -0.30000000000E+02  0.30000000000E+02  0.00000000000E+00 0.  1.
         23    2    1    2    0    0  0.00000000000E+00  0.00000000000E+00  0.00000000000E+00  0.60000000000E+02  0.60000000000E+02 0.  0.
          5    1    3    3  501    0  0.87441856159E+01 -0.16991182576E+02 -0.22643960179E+02  0.30000000000E+02  0.47000000000E+01 0.  1.
         -5    1    3    3    0  501 -0.87441856159E+01  0.16991182576E+02  0.22643960179E+02  0.30000000000E+02  0.47000000000E+01 0. -1.
</event>
<event>
 5    1  0.7693226E-002  0.6000000E+02  0.7546771E-02  0.1259629E+00
         11   -1    0    0    0    0  0.00000000000E+00  0.00000000000E+00  0.30000000000E+02  0.30000000000E+02  0.00000000000E+00 0. -1.
        -11   -1    0    0    0    0 -0.00000000000E+00 -0.00000000000E+00 -0.30000000000E+02  0.30000000000E+02  0.00000000000E+00 0.  1.
         23    2    1    2    0    0  0.00000000000E+00  0.00000000000E+00  0.00000000000E+00  0.60000000000E+02  0.60000000000E+02 0.  0.
          5    1    3    3  501    0 -0.19135397891E+02 -0.10653467324E+02 -0.19956206591E+02  0.30000000000E+02  0.47000000000E+01 0.  1.
         -5    1    3    3    0  501  0.19135397891E+02  0.10653467324E+02  0.19956206591E+02  0.30000000000E+02  0.47000000000E+01 0. -1.
</event>
<event>
 5    1  0.7693226E-002  0.6000000E+02  0.7546771E-02  0.1259629E+00
         11   -1    0    0    0    0  0.00000000000E+00  0.00000000000E+00  0.30000000000E+02  0.30000000000E+02  0.00000000000E+00 0.  1.
        -11   -1    0    0    0    0 -0.00000000000E+00 -0.00000000000E+00 -0.30000000000E+02  0.30000000000E+02  0.00000000000E+00 0. -1.
         23    2    1    2    0    0  0.00000000000E+00  0.00000000000E+00  0.00000000000E+00  0.60000000000E+02  0.60000000000E+02 0.  0.
          5    1    3    3  501    0  0.14940993201E+01  0.32716940063E+01 -0.29410434977E+02  0.30000000000E+02  0.47000000000E+01 0. -1.
         -5    1    3    3    0  501 -0.14940993201E+01 -0.32716940063E+01  0.29410434977E+02  0.30000000000E+02  0.47000000000E+01 0.  1.
</event>
<event>
 5    1  0.7693226E-002  0.6000000E+02  0.7546771E-02  0.1259629E+00
         11   -1    0    0    0    0  0.00000000000E+00  0.00000000000E+00  0.30000000000E+02  0.30000000000E+02  0.00000000000E+00 0.  1.
        -11   -1    0    0    0    0 -0.00000000000E+00 -0.00000000000E+00 -0.30000000000E+02  0.30000000000E+02  0.00000000000E+00 0. -1.
         23    2    1    2    0    0  0.00000000000E+00  0.00000000000E+00  0.00000000000E+00  0.60000000000E+02  0.60000000000E+02 0.  0.
          5    1    3    3  501    0 -0.27214722833E+01  0.40086515343E+01 -0.29230708193E+02  0.30000000000E+02  0.47000000000E+01 0. -1.
         -5    1    3    3    0  501  0.27214722833E+01 -0.40086515343E+01  0.29230708193E+02  0.30000000000E+02  0.47000000000E+01 0.  1.
</event>
<event>
 5    1  0.7693226E-002  0.6000000E+02  0.7546771E-02  0.1259629E+00
         11   -1    0    0    0    0  0.00000000000E+00  0.00000000000E+00  0.30000000000E+02  0.30000000000E+02  0.00000000000E+00 0. -1.
        -11   -1    0    0    0    0 -0.00000000000E+00 -0.00000000000E+00 -0.30000000000E+02  0.30000000000E+02  0.00000000000E+00 0.  1.
         23    2    1    2    0    0  0.00000000000E+00  0.00000000000E+00  0.00000000000E+00  0.60000000000E+02  0.60000000000E+02 0.  0.
          5    1    3    3  501    0 -0.26732171810E+02 -0.38876149991E+01 -0.12173226357E+02  0.30000000000E+02  0.47000000000E+01 0.  1.
         -5    1    3    3    0  501  0.26732171810E+02  0.38876149991E+01  0.12173226357E+02  0.30000000000E+02  0.47000000000E+01 0. -1.
</event>
<event>
 5    1  0.7693226E-002  0.6000000E+02  0.7546771E-02  0.1259629E+00
         11   -1    0    0    0    0  0.00000000000E+00  0.00000000000E+00  0.30000000000E+02  0.30000000000E+02  0.00000000000E+00 0.  1.
        -11   -1    0    0    0    0 -0.00000000000E+00 -0.00000000000E+00 -0.30000000000E+02  0.30000000000E+02  0.00000000000E+00 0. -1.
         23    2    1    2    0    0  0.00000000000E+00  0.00000000000E+00  0.00000000000E+00  0.60000000000E+02  0.60000000000E+02 0.  0.
          5    1    3    3  501    0 -0.36802879426E+01 -0.84715276996E+01 -0.28153129472E+02  0.30000000000E+02  0.47000000000E+01 0. -1.
         -5    1    3    3    0  501  0.36802879426E+01  0.84715276996E+01  0.28153129472E+02  0.30000000000E+02  0.47000000000E+01 0.  1.
</event>
<event>
 5    1  0.7693226E-002  0.6000000E+02  0.7546771E-02  0.1259629E+00
         11   -1    0    0    0    0  0.00000000000E+00  0.00000000000E+00  0.30000000000E+02  0.30000000000E+02  0.00000000000E+00 0.  1.
        -11   -1    0    0    0    0 -0.00000000000E+00 -0.00000000000E+00 -0.30000000000E+02  0.30000000000E+02  0.00000000000E+00 0. -1.
         23    2    1    2    0    0  0.00000000000E+00  0.00000000000E+00  0.00000000000E+00  0.60000000000E+02  0.60000000000E+02 0.  0.
          5    1    3    3  501    0 -0.16316368091E+02  0.54818760201E+00 -0.24726213270E+02  0.30000000000E+02  0.47000000000E+01 0. -1.
         -5    1    3    3    0  501  0.16316368091E+02 -0.54818760201E+00  0.24726213270E+02  0.30000000000E+02  0.47000000000E+01 0.  1.
</event>
<event>
 5    1  0.7693226E-002  0.6000000E+02  0.7546771E-02  0.1259629E+00
         11   -1    0    0    0    0  0.00000000000E+00  0.00000000000E+00  0.30000000000E+02  0.30000000000E+02  0.00000000000E+00 0.  1.
        -11   -1    0    0    0    0 -0.00000000000E+00 -0.00000000000E+00 -0.30000000000E+02  0.30000000000E+02  0.00000000000E+00 0. -1.
         23    2    1    2    0    0  0.00000000000E+00  0.00000000000E+00  0.00000000000E+00  0.60000000000E+02  0.60000000000E+02 0.  0.
          5    1    3    3  501    0 -0.23992236649E+02  0.16596843787E+02  0.51795131903E+01  0.30000000000E+02  0.47000000000E+01 0.  1.
         -5    1    3    3    0  501  0.23992236649E+02 -0.16596843787E+02 -0.51795131903E+01  0.30000000000E+02  0.47000000000E+01 0. -1.
</event>
<event>
 5    1  0.7693226E-002  0.6000000E+02  0.7546771E-02  0.1259629E+00
         11   -1    0    0    0    0  0.00000000000E+00  0.00000000000E+00  0.30000000000E+02  0.30000000000E+02  0.00000000000E+00 0.  1.
        -11   -1    0    0    0    0 -0.00000000000E+00 -0.00000000000E+00 -0.30000000000E+02  0.30000000000E+02  0.00000000000E+00 0. -1.
         23    2    1    2    0    0  0.00000000000E+00  0.00000000000E+00  0.00000000000E+00  0.60000000000E+02  0.60000000000E+02 0.  0.
          5    1    3    3  501    0  0.27465015091E+02  0.83383576421E+01 -0.73521927251E+01  0.30000000000E+02  0.47000000000E+01 0. -1.
         -5    1    3    3    0  501 -0.27465015091E+02 -0.83383576421E+01  0.73521927251E+01  0.30000000000E+02  0.47000000000E+01 0.  1.
</event>
<event>
 5    1  0.7693226E-002  0.6000000E+02  0.7546771E-02  0.1259629E+00
         11   -1    0    0    0    0  0.00000000000E+00  0.00000000000E+00  0.30000000000E+02  0.30000000000E+02  0.00000000000E+00 0.  1.
        -11   -1    0    0    0    0 -0.00000000000E+00 -0.00000000000E+00 -0.30000000000E+02  0.30000000000E+02  0.00000000000E+00 0. -1.
         23    2    1    2    0    0  0.00000000000E+00  0.00000000000E+00  0.00000000000E+00  0.60000000000E+02  0.60000000000E+02 0.  0.
          5    1    3    3  501    0  0.16134052038E+01 -0.25583363984E+02 -0.14859287025E+02  0.30000000000E+02  0.47000000000E+01 0. -1.
         -5    1    3    3    0  501 -0.16134052038E+01  0.25583363984E+02  0.14859287025E+02  0.30000000000E+02  0.47000000000E+01 0.  1.
</event>
<event>
 5    1  0.7693226E-002  0.6000000E+02  0.7546771E-02  0.1259629E+00
         11   -1    0    0    0    0  0.00000000000E+00  0.00000000000E+00  0.30000000000E+02  0.30000000000E+02  0.00000000000E+00 0.  1.
        -11   -1    0    0    0    0 -0.00000000000E+00 -0.00000000000E+00 -0.30000000000E+02  0.30000000000E+02  0.00000000000E+00 0. -1.
         23    2    1    2    0    0  0.00000000000E+00  0.00000000000E+00  0.00000000000E+00  0.60000000000E+02  0.60000000000E+02 0.  0.
          5    1    3    3  501    0 -0.71172017228E+01  0.15538190092E+02 -0.24203720547E+02  0.30000000000E+02  0.47000000000E+01 0. -1.
         -5    1    3    3    0  501  0.71172017228E+01 -0.15538190092E+02  0.24203720547E+02  0.30000000000E+02  0.47000000000E+01 0.  1.
</event>
<event>
 5    1  0.7693226E-002  0.6000000E+02  0.7546771E-02  0.1259629E+00
         11   -1    0    0    0    0  0.00000000000E+00  0.00000000000E+00  0.30000000000E+02  0.30000000000E+02  0.00000000000E+00 0.  1.
        -11   -1    0    0    0    0 -0.00000000000E+00 -0.00000000000E+00 -0.30000000000E+02  0.30000000000E+02  0.00000000000E+00 0. -1.
         23    2    1    2    0    0  0.00000000000E+00  0.00000000000E+00  0.00000000000E+00  0.60000000000E+02  0.60000000000E+02 0.  0.
          5    1    3    3  501    0 -0.48706645042E+01  0.21350963374E+02  0.19958030722E+02  0.30000000000E+02  0.47000000000E+01 0.  1.
         -5    1    3    3    0  501  0.48706645042E+01 -0.21350963374E+02 -0.19958030722E+02  0.30000000000E+02  0.47000000000E+01 0. -1.
</event>
<event>
 5    1  0.7693226E-002  0.6000000E+02  0.7546771E-02  0.1259629E+00
         11   -1    0    0    0    0  0.00000000000E+00  0.00000000000E+00  0.30000000000E+02  0.30000000000E+02  0.00000000000E+00 0. -1.
        -11   -1    0    0    0    0 -0.00000000000E+00 -0.00000000000E+00 -0.30000000000E+02  0.30000000000E+02  0.00000000000E+00 0.  1.
         23    2    1    2    0    0  0.00000000000E+00  0.00000000000E+00  0.00000000000E+00  0.60000000000E+02  0.60000000000E+02 0.  0.
          5    1    3    3  501    0 -0.11714775883E+02  0.25518985066E+02 -0.94580879260E+01  0.30000000000E+02  0.47000000000E+01 0.  1.
         -5    1    3    3    0  501  0.11714775883E+02 -0.25518985066E+02  0.94580879260E+01  0.30000000000E+02  0.47000000000E+01 0. -1.
</event>
<event>
 5    1  0.7693226E-002  0.6000000E+02  0.7546771E-02  0.1259629E+00
         11   -1    0    0    0    0  0.00000000000E+00  0.00000000000E+00  0.30000000000E+02  0.30000000000E+02  0.00000000000E+00 0. -1.
        -11   -1    0    0    0    0 -0.00000000000E+00 -0.00000000000E+00 -0.30000000000E+02  0.30000000000E+02  0.00000000000E+00 0.  1.
         23    2    1    2    0    0  0.00000000000E+00  0.00000000000E+00  0.00000000000E+00  0.60000000000E+02  0.60000000000E+02 0.  0.
          5    1    3    3  501    0 -0.25902745997E+02  0.10351065877E+02  0.99906548840E+01  0.30000000000E+02  0.47000000000E+01 0.  1.
         -5    1    3    3    0  501  0.25902745997E+02 -0.10351065877E+02 -0.99906548840E+01  0.30000000000E+02  0.47000000000E+01 0. -1.
</event>
<event>
 5    1  0.7693226E-002  0.6000000E+02  0.7546771E-02  0.1259629E+00
         11   -1    0    0    0    0  0.00000000000E+00  0.00000000000E+00  0.30000000000E+02  0.30000000000E+02  0.00000000000E+00 0. -1.
        -11   -1    0    0    0    0 -0.00000000000E+00 -0.00000000000E+00 -0.30000000000E+02  0.30000000000E+02  0.00000000000E+00 0.  1.
         23    2    1    2    0    0  0.00000000000E+00  0.00000000000E+00  0.00000000000E+00  0.60000000000E+02  0.60000000000E+02 0.  0.
          5    1    3    3  501    0  0.17696102129E+02 -0.13599202999E+02  0.19488962190E+02  0.30000000000E+02  0.47000000000E+01 0.  1.
         -5    1    3    3    0  501 -0.17696102129E+02  0.13599202999E+02 -0.19488962190E+02  0.30000000000E+02  0.47000000000E+01 0. -1.
</event>
<event>
 5    1  0.7693226E-002  0.6000000E+02  0.7546771E-02  0.1259629E+00
         11   -1    0    0    0    0  0.00000000000E+00  0.00000000000E+00  0.30000000000E+02  0.30000000000E+02  0.00000000000E+00 0.  1.
        -11   -1    0    0    0    0 -0.00000000000E+00 -0.00000000000E+00 -0.30000000000E+02  0.30000000000E+02  0.00000000000E+00 0. -1.
         23    2    1    2    0    0  0.00000000000E+00  0.00000000000E+00  0.00000000000E+00  0.60000000000E+02  0.60000000000E+02 0.  0.
          5    1    3    3  501    0 -0.36173840308E+00 -0.29594545238E+02  0.13935700578E+01  0.30000000000E+02  0.47000000000E+01 0. -1.
         -5    1    3    3    0  501  0.36173840308E+00  0.29594545238E+02 -0.13935700578E+01  0.30000000000E+02  0.47000000000E+01 0.  1.
</event>
<event>
 5    1  0.7693226E-002  0.6000000E+02  0.7546771E-02  0.1259629E+00
         11   -1    0    0    0    0  0.00000000000E+00  0.00000000000E+00  0.30000000000E+02  0.30000000000E+02  0.00000000000E+00 0.  1.
        -11   -1    0    0    0    0 -0.00000000000E+00 -0.00000000000E+00 -0.30000000000E+02  0.30000000000E+02  0.00000000000E+00 0. -1.
         23    2    1    2    0    0  0.00000000000E+00  0.00000000000E+00  0.00000000000E+00  0.60000000000E+02  0.60000000000E+02 0.  0.
          5    1    3    3  501    0 -0.16593709154E+02 -0.10914373693E+02 -0.21987161331E+02  0.30000000000E+02  0.47000000000E+01 0. -1.
         -5    1    3    3    0  501  0.16593709154E+02  0.10914373693E+02  0.21987161331E+02  0.30000000000E+02  0.47000000000E+01 0.  1.
</event>
<event>
 5    1  0.7693226E-002  0.6000000E+02  0.7546771E-02  0.1259629E+00
         11   -1    0    0    0    0  0.00000000000E+00  0.00000000000E+00  0.30000000000E+02  0.30000000000E+02  0.00000000000E+00 0. -1.
        -11   -1    0    0    0    0 -0.00000000000E+00 -0.00000000000E+00 -0.30000000000E+02  0.30000000000E+02  0.00000000000E+00 0.  1.
         23    2    1    2    0    0  0.00000000000E+00  0.00000000000E+00  0.00000000000E+00  0.60000000000E+02  0.60000000000E+02 0.  0.
          5    1    3    3  501    0  0.23373508696E+02 -0.10944218117E+02  0.14553802975E+02  0.30000000000E+02  0.47000000000E+01 0. -1.
         -5    1    3    3    0  501 -0.23373508696E+02  0.10944218117E+02 -0.14553802975E+02  0.30000000000E+02  0.47000000000E+01 0.  1.
</event>
<event>
 5    1  0.7693226E-002  0.6000000E+02  0.7546771E-02  0.1259629E+00
         11   -1    0    0    0    0  0.00000000000E+00  0.00000000000E+00  0.30000000000E+02  0.30000000000E+02  0.00000000000E+00 0.  1.
        -11   -1    0    0    0    0 -0.00000000000E+00 -0.00000000000E+00 -0.30000000000E+02  0.30000000000E+02  0.00000000000E+00 0. -1.
         23    2    1    2    0    0  0.00000000000E+00  0.00000000000E+00  0.00000000000E+00  0.60000000000E+02  0.60000000000E+02 0.  0.
          5    1    3    3  501    0 -0.24982245330E+01 -0.28249531853E+02 -0.85809570719E+01  0.30000000000E+02  0.47000000000E+01 0. -1.
         -5    1    3    3    0  501  0.24982245330E+01  0.28249531853E+02  0.85809570719E+01  0.30000000000E+02  0.47000000000E+01 0.  1.
</event>
<event>
 5    1  0.7693226E-002  0.6000000E+02  0.7546771E-02  0.1259629E+00
         11   -1    0    0    0    0  0.00000000000E+00  0.00000000000E+00  0.30000000000E+02  0.30000000000E+02  0.00000000000E+00 0.  1.
        -11   -1    0    0    0    0 -0.00000000000E+00 -0.00000000000E+00 -0.30000000000E+02  0.30000000000E+02  0.00000000000E+00 0. -1.
         23    2    1    2    0    0  0.00000000000E+00  0.00000000000E+00  0.00000000000E+00  0.60000000000E+02  0.60000000000E+02 0.  0.
          5    1    3    3  501    0  0.23906996557E+01  0.27972946035E+02  0.94714753474E+01  0.30000000000E+02  0.47000000000E+01 0. -1.
         -5    1    3    3    0  501 -0.23906996557E+01 -0.27972946035E+02 -0.94714753474E+01  0.30000000000E+02  0.47000000000E+01 0.  1.
</event>
<event>
 5    1  0.7693226E-002  0.6000000E+02  0.7546771E-02  0.1259629E+00
         11   -1    0    0    0    0  0.00000000000E+00  0.00000000000E+00  0.30000000000E+02  0.30000000000E+02  0.00000000000E+00 0.  1.
        -11   -1    0    0    0    0 -0.00000000000E+00 -0.00000000000E+00 -0.30000000000E+02  0.30000000000E+02  0.00000000000E+00 0. -1.
         23    2    1    2    0    0  0.00000000000E+00  0.00000000000E+00  0.00000000000E+00  0.60000000000E+02  0.60000000000E+02 0.  0.
          5    1    3    3  501    0  0.26924920277E+02  0.12071422469E+02  0.26906184536E+01  0.30000000000E+02  0.47000000000E+01 0. -1.
         -5    1    3    3    0  501 -0.26924920277E+02 -0.12071422469E+02 -0.26906184536E+01  0.30000000000E+02  0.47000000000E+01 0.  1.
</event>
<event>
 5    1  0.7693226E-002  0.6000000E+02  0.7546771E-02  0.1259629E+00
         11   -1    0    0    0    0  0.00000000000E+00  0.00000000000E+00  0.30000000000E+02  0.30000000000E+02  0.00000000000E+00 0.  1.
        -11   -1    0    0    0    0 -0.00000000000E+00 -0.00000000000E+00 -0.30000000000E+02  0.30000000000E+02  0.00000000000E+00 0. -1.
         23    2    1    2    0    0  0.00000000000E+00  0.00000000000E+00  0.00000000000E+00  0.60000000000E+02  0.60000000000E+02 0.  0.
          5    1    3    3  501    0  0.21534634684E+02  0.36153712977E+01 -0.20027446153E+02  0.30000000000E+02  0.47000000000E+01 0. -1.
         -5    1    3    3    0  501 -0.21534634684E+02 -0.36153712977E+01  0.20027446153E+02  0.30000000000E+02  0.47000000000E+01 0.  1.
</event>
<event>
 5    1  0.7693226E-002  0.6000000E+02  0.7546771E-02  0.1259629E+00
         11   -1    0    0    0    0  0.00000000000E+00  0.00000000000E+00  0.30000000000E+02  0.30000000000E+02  0.00000000000E+00 0. -1.
        -11   -1    0    0    0    0 -0.00000000000E+00 -0.00000000000E+00 -0.30000000000E+02  0.30000000000E+02  0.00000000000E+00 0.  1.
         23    2    1    2    0    0  0.00000000000E+00  0.00000000000E+00  0.00000000000E+00  0.60000000000E+02  0.60000000000E+02 0.  0.
          5    1    3    3  501    0  0.59141637796E+01  0.19000099913E+02 -0.21952878401E+02  0.30000000000E+02  0.47000000000E+01 0.  1.
         -5    1    3    3    0  501 -0.59141637796E+01 -0.19000099913E+02  0.21952878401E+02  0.30000000000E+02  0.47000000000E+01 0. -1.
</event>
<event>
 5    1  0.7693226E-002  0.6000000E+02  0.7546771E-02  0.1259629E+00
         11   -1    0    0    0    0  0.00000000000E+00  0.00000000000E+00  0.30000000000E+02  0.30000000000E+02  0.00000000000E+00 0.  1.
        -11   -1    0    0    0    0 -0.00000000000E+00 -0.00000000000E+00 -0.30000000000E+02  0.30000000000E+02  0.00000000000E+00 0. -1.
         23    2    1    2    0    0  0.00000000000E+00  0.00000000000E+00  0.00000000000E+00  0.60000000000E+02  0.60000000000E+02 0.  0.
          5    1    3    3  501    0  0.21609738121E+02 -0.19956467154E+02  0.35593028872E+01  0.30000000000E+02  0.47000000000E+01 0. -1.
         -5    1    3    3    0  501 -0.21609738121E+02  0.19956467154E+02 -0.35593028872E+01  0.30000000000E+02  0.47000000000E+01 0.  1.
</event>
<event>
 5    1  0.7693226E-002  0.6000000E+02  0.7546771E-02  0.1259629E+00
         11   -1    0    0    0    0  0.00000000000E+00  0.00000000000E+00  0.30000000000E+02  0.30000000000E+02  0.00000000000E+00 0.  1.
        -11   -1    0    0    0    0 -0.00000000000E+00 -0.00000000000E+00 -0.30000000000E+02  0.30000000000E+02  0.00000000000E+00 0. -1.
         23    2    1    2    0    0  0.00000000000E+00  0.00000000000E+00  0.00000000000E+00  0.60000000000E+02  0.60000000000E+02 0.  0.
          5    1    3    3  501    0  0.12095958318E+01 -0.15471407903E+02 -0.25240491584E+02  0.30000000000E+02  0.47000000000E+01 0. -1.
         -5    1    3    3    0  501 -0.12095958318E+01  0.15471407903E+02  0.25240491584E+02  0.30000000000E+02  0.47000000000E+01 0.  1.
</event>
<event>
 5    1  0.7693226E-002  0.6000000E+02  0.7546771E-02  0.1259629E+00
         11   -1    0    0    0    0  0.00000000000E+00  0.00000000000E+00  0.30000000000E+02  0.30000000000E+02  0.00000000000E+00 0.  1.
        -11   -1    0    0    0    0 -0.00000000000E+00 -0.00000000000E+00 -0.30000000000E+02  0.30000000000E+02  0.00000000000E+00 0. -1.
         23    2    1    2    0    0  0.00000000000E+00  0.00000000000E+00  0.00000000000E+00  0.60000000000E+02  0.60000000000E+02 0.  0.
          5    1    3    3  501    0  0.27682750789E+02  0.44545018347E+01 -0.95777200931E+01  0.30000000000E+02  0.47000000000E+01 0. -1.
         -5    1    3    3    0  501 -0.27682750789E+02 -0.44545018347E+01  0.95777200931E+01  0.30000000000E+02  0.47000000000E+01 0.  1.
</event>
<event>
 5    1  0.7693226E-002  0.6000000E+02  0.7546771E-02  0.1259629E+00
         11   -1    0    0    0    0  0.00000000000E+00  0.00000000000E+00  0.30000000000E+02  0.30000000000E+02  0.00000000000E+00 0.  1.
        -11   -1    0    0    0    0 -0.00000000000E+00 -0.00000000000E+00 -0.30000000000E+02  0.30000000000E+02  0.00000000000E+00 0. -1.
         23    2    1    2    0    0  0.00000000000E+00  0.00000000000E+00  0.00000000000E+00  0.60000000000E+02  0.60000000000E+02 0.  0.
          5    1    3    3  501    0 -0.13733814024E+02  0.11423863582E+02 -0.23638690598E+02  0.30000000000E+02  0.47000000000E+01 0. -1.
         -5    1    3    3    0  501  0.13733814024E+02 -0.11423863582E+02  0.23638690598E+02  0.30000000000E+02  0.47000000000E+01 0.  1.
</event>
<event>
 5    1  0.7693226E-002  0.6000000E+02  0.7546771E-02  0.1259629E+00
         11   -1    0    0    0    0  0.00000000000E+00  0.00000000000E+00  0.30000000000E+02  0.30000000000E+02  0.00000000000E+00 0.  1.
        -11   -1    0    0    0    0 -0.00000000000E+00 -0.00000000000E+00 -0.30000000000E+02  0.30000000000E+02  0.00000000000E+00 0. -1.
         23    2    1    2    0    0  0.00000000000E+00  0.00000000000E+00  0.00000000000E+00  0.60000000000E+02  0.60000000000E+02 0.  0.
          5    1    3    3  501    0  0.41549799851E+01  0.18751143368E+02 -0.22561931737E+02  0.30000000000E+02  0.47000000000E+01 0. -1.
         -5    1    3    3    0  501 -0.41549799851E+01 -0.18751143368E+02  0.22561931737E+02  0.30000000000E+02  0.47000000000E+01 0.  1.
</event>
<event>
 5    1  0.7693226E-002  0.6000000E+02  0.7546771E-02  0.1259629E+00
         11   -1    0    0    0    0  0.00000000000E+00  0.00000000000E+00  0.30000000000E+02  0.30000000000E+02  0.00000000000E+00 0. -1.
        -11   -1    0    0    0    0 -0.00000000000E+00 -0.00000000000E+00 -0.30000000000E+02  0.30000000000E+02  0.00000000000E+00 0.  1.
         23    2    1    2    0    0  0.00000000000E+00  0.00000000000E+00  0.00000000000E+00  0.60000000000E+02  0.60000000000E+02 0.  0.
          5    1    3    3  501    0 -0.13936453603E-01 -0.19342475323E+02 -0.22445009560E+02  0.30000000000E+02  0.47000000000E+01 0.  1.
         -5    1    3    3    0  501  0.13936453603E-01  0.19342475323E+02  0.22445009560E+02  0.30000000000E+02  0.47000000000E+01 0. -1.
</event>
<event>
 5    1  0.7693226E-002  0.6000000E+02  0.7546771E-02  0.1259629E+00
         11   -1    0    0    0    0  0.00000000000E+00  0.00000000000E+00  0.30000000000E+02  0.30000000000E+02  0.00000000000E+00 0.  1.
        -11   -1    0    0    0    0 -0.00000000000E+00 -0.00000000000E+00 -0.30000000000E+02  0.30000000000E+02  0.00000000000E+00 0. -1.
         23    2    1    2    0    0  0.00000000000E+00  0.00000000000E+00  0.00000000000E+00  0.60000000000E+02  0.60000000000E+02 0.  0.
          5    1    3    3  501    0 -0.13036866237E+02 -0.15006856222E+01 -0.26564978099E+02  0.30000000000E+02  0.47000000000E+01 0. -1.
         -5    1    3    3    0  501  0.13036866237E+02  0.15006856222E+01  0.26564978099E+02  0.30000000000E+02  0.47000000000E+01 0.  1.
</event>
<event>
 5    1  0.7693226E-002  0.6000000E+02  0.7546771E-02  0.1259629E+00
         11   -1    0    0    0    0  0.00000000000E+00  0.00000000000E+00  0.30000000000E+02  0.30000000000E+02  0.00000000000E+00 0.  1.
        -11   -1    0    0    0    0 -0.00000000000E+00 -0.00000000000E+00 -0.30000000000E+02  0.30000000000E+02  0.00000000000E+00 0. -1.
         23    2    1    2    0    0  0.00000000000E+00  0.00000000000E+00  0.00000000000E+00  0.60000000000E+02  0.60000000000E+02 0.  0.
          5    1    3    3  501    0  0.10606963532E+01  0.23728594338E+02 -0.17712671565E+02  0.30000000000E+02  0.47000000000E+01 0. -1.
         -5    1    3    3    0  501 -0.10606963532E+01 -0.23728594338E+02  0.17712671565E+02  0.30000000000E+02  0.47000000000E+01 0.  1.
</event>
<event>
 5    1  0.7693226E-002  0.6000000E+02  0.7546771E-02  0.1259629E+00
         11   -1    0    0    0    0  0.00000000000E+00  0.00000000000E+00  0.30000000000E+02  0.30000000000E+02  0.00000000000E+00 0.  1.
        -11   -1    0    0    0    0 -0.00000000000E+00 -0.00000000000E+00 -0.30000000000E+02  0.30000000000E+02  0.00000000000E+00 0. -1.
         23    2    1    2    0    0  0.00000000000E+00  0.00000000000E+00  0.00000000000E+00  0.60000000000E+02  0.60000000000E+02 0.  0.
          5    1    3    3  501    0  0.16940820624E+02 -0.90689124461E+01  0.22553789563E+02  0.30000000000E+02  0.47000000000E+01 0.  1.
         -5    1    3    3    0  501 -0.16940820624E+02  0.90689124461E+01 -0.22553789563E+02  0.30000000000E+02  0.47000000000E+01 0. -1.
</event>
<event>
 5    1  0.7693226E-002  0.6000000E+02  0.7546771E-02  0.1259629E+00
         11   -1    0    0    0    0  0.00000000000E+00  0.00000000000E+00  0.30000000000E+02  0.30000000000E+02  0.00000000000E+00 0.  1.
        -11   -1    0    0    0    0 -0.00000000000E+00 -0.00000000000E+00 -0.30000000000E+02  0.30000000000E+02  0.00000000000E+00 0. -1.
         23    2    1    2    0    0  0.00000000000E+00  0.00000000000E+00  0.00000000000E+00  0.60000000000E+02  0.60000000000E+02 0.  0.
          5    1    3    3  501    0 -0.49018171450E+01 -0.20424013085E+02 -0.20898370227E+02  0.30000000000E+02  0.47000000000E+01 0. -1.
         -5    1    3    3    0  501  0.49018171450E+01  0.20424013085E+02  0.20898370227E+02  0.30000000000E+02  0.47000000000E+01 0.  1.
</event>
<event>
 5    1  0.7693226E-002  0.6000000E+02  0.7546771E-02  0.1259629E+00
         11   -1    0    0    0    0  0.00000000000E+00  0.00000000000E+00  0.30000000000E+02  0.30000000000E+02  0.00000000000E+00 0.  1.
        -11   -1    0    0    0    0 -0.00000000000E+00 -0.00000000000E+00 -0.30000000000E+02  0.30000000000E+02  0.00000000000E+00 0. -1.
         23    2    1    2    0    0  0.00000000000E+00  0.00000000000E+00  0.00000000000E+00  0.60000000000E+02  0.60000000000E+02 0.  0.
          5    1    3    3  501    0 -0.45495829535E+01 -0.18183055863E+02 -0.22947500396E+02  0.30000000000E+02  0.47000000000E+01 0. -1.
         -5    1    3    3    0  501  0.45495829535E+01  0.18183055863E+02  0.22947500396E+02  0.30000000000E+02  0.47000000000E+01 0.  1.
</event>
<event>
 5    1  0.7693226E-002  0.6000000E+02  0.7546771E-02  0.1259629E+00
         11   -1    0    0    0    0  0.00000000000E+00  0.00000000000E+00  0.30000000000E+02  0.30000000000E+02  0.00000000000E+00 0.  1.
        -11   -1    0    0    0    0 -0.00000000000E+00 -0.00000000000E+00 -0.30000000000E+02  0.30000000000E+02  0.00000000000E+00 0. -1.
         23    2    1    2    0    0  0.00000000000E+00  0.00000000000E+00  0.00000000000E+00  0.60000000000E+02  0.60000000000E+02 0.  0.
          5    1    3    3  501    0 -0.77814682224E+01  0.14346630344E+02  0.24729192265E+02  0.30000000000E+02  0.47000000000E+01 0.  1.
         -5    1    3    3    0  501  0.77814682224E+01 -0.14346630344E+02 -0.24729192265E+02  0.30000000000E+02  0.47000000000E+01 0. -1.
</event>
<event>
 5    1  0.7693226E-002  0.6000000E+02  0.7546771E-02  0.1259629E+00
         11   -1    0    0    0    0  0.00000000000E+00  0.00000000000E+00  0.30000000000E+02  0.30000000000E+02  0.00000000000E+00 0.  1.
        -11   -1    0    0    0    0 -0.00000000000E+00 -0.00000000000E+00 -0.30000000000E+02  0.30000000000E+02  0.00000000000E+00 0. -1.
         23    2    1    2    0    0  0.00000000000E+00  0.00000000000E+00  0.00000000000E+00  0.60000000000E+02  0.60000000000E+02 0.  0.
          5    1    3    3  501    0 -0.18651730433E+01 -0.17376714481E+02 -0.23926573581E+02  0.30000000000E+02  0.47000000000E+01 0. -1.
         -5    1    3    3    0  501  0.18651730433E+01  0.17376714481E+02  0.23926573581E+02  0.30000000000E+02  0.47000000000E+01 0.  1.
</event>
<event>
 5    1  0.7693226E-002  0.6000000E+02  0.7546771E-02  0.1259629E+00
         11   -1    0    0    0    0  0.00000000000E+00  0.00000000000E+00  0.30000000000E+02  0.30000000000E+02  0.00000000000E+00 0.  1.
        -11   -1    0    0    0    0 -0.00000000000E+00 -0.00000000000E+00 -0.30000000000E+02  0.30000000000E+02  0.00000000000E+00 0. -1.
         23    2    1    2    0    0  0.00000000000E+00  0.00000000000E+00  0.00000000000E+00  0.60000000000E+02  0.60000000000E+02 0.  0.
          5    1    3    3  501    0  0.14376667699E+02 -0.11850804036E+02 -0.23038660325E+02  0.30000000000E+02  0.47000000000E+01 0. -1.
         -5    1    3    3    0  501 -0.14376667699E+02  0.11850804036E+02  0.23038660325E+02  0.30000000000E+02  0.47000000000E+01 0.  1.
</event>
<event>
 5    1  0.7693226E-002  0.6000000E+02  0.7546771E-02  0.1259629E+00
         11   -1    0    0    0    0  0.00000000000E+00  0.00000000000E+00  0.30000000000E+02  0.30000000000E+02  0.00000000000E+00 0.  1.
        -11   -1    0    0    0    0 -0.00000000000E+00 -0.00000000000E+00 -0.30000000000E+02  0.30000000000E+02  0.00000000000E+00 0. -1.
         23    2    1    2    0    0  0.00000000000E+00  0.00000000000E+00  0.00000000000E+00  0.60000000000E+02  0.60000000000E+02 0.  0.
          5    1    3    3  501    0 -0.25111095745E+02  0.15545962680E+02 -0.23803182197E+01  0.30000000000E+02  0.47000000000E+01 0. -1.
         -5    1    3    3    0  501  0.25111095745E+02 -0.15545962680E+02  0.23803182197E+01  0.30000000000E+02  0.47000000000E+01 0.  1.
</event>
<event>
 5    1  0.7693226E-002  0.6000000E+02  0.7546771E-02  0.1259629E+00
         11   -1    0    0    0    0  0.00000000000E+00  0.00000000000E+00  0.30000000000E+02  0.30000000000E+02  0.00000000000E+00 0. -1.
        -11   -1    0    0    0    0 -0.00000000000E+00 -0.00000000000E+00 -0.30000000000E+02  0.30000000000E+02  0.00000000000E+00 0.  1.
         23    2    1    2    0    0  0.00000000000E+00  0.00000000000E+00  0.00000000000E+00  0.60000000000E+02  0.60000000000E+02 0.  0.
          5    1    3    3  501    0 -0.32999686023E+00 -0.27595696632E+02 -0.10783256903E+02  0.30000000000E+02  0.47000000000E+01 0.  1.
         -5    1    3    3    0  501  0.32999686023E+00  0.27595696632E+02  0.10783256903E+02  0.30000000000E+02  0.47000000000E+01 0. -1.
</event>
<event>
 5    1  0.7693226E-002  0.6000000E+02  0.7546771E-02  0.1259629E+00
         11   -1    0    0    0    0  0.00000000000E+00  0.00000000000E+00  0.30000000000E+02  0.30000000000E+02  0.00000000000E+00 0.  1.
        -11   -1    0    0    0    0 -0.00000000000E+00 -0.00000000000E+00 -0.30000000000E+02  0.30000000000E+02  0.00000000000E+00 0. -1.
         23    2    1    2    0    0  0.00000000000E+00  0.00000000000E+00  0.00000000000E+00  0.60000000000E+02  0.60000000000E+02 0.  0.
          5    1    3    3  501    0  0.15610350782E+02 -0.13660428603E+02  0.21157023393E+02  0.30000000000E+02  0.47000000000E+01 0.  1.
         -5    1    3    3    0  501 -0.15610350782E+02  0.13660428603E+02 -0.21157023393E+02  0.30000000000E+02  0.47000000000E+01 0. -1.
</event>
<event>
 5    1  0.7693226E-002  0.6000000E+02  0.7546771E-02  0.1259629E+00
         11   -1    0    0    0    0  0.00000000000E+00  0.00000000000E+00  0.30000000000E+02  0.30000000000E+02  0.00000000000E+00 0. -1.
        -11   -1    0    0    0    0 -0.00000000000E+00 -0.00000000000E+00 -0.30000000000E+02  0.30000000000E+02  0.00000000000E+00 0.  1.
         23    2    1    2    0    0  0.00000000000E+00  0.00000000000E+00  0.00000000000E+00  0.60000000000E+02  0.60000000000E+02 0.  0.
          5    1    3    3  501    0 -0.14855803873E+02  0.20855651655E+02 -0.14908282441E+02  0.30000000000E+02  0.47000000000E+01 0.  1.
         -5    1    3    3    0  501  0.14855803873E+02 -0.20855651655E+02  0.14908282441E+02  0.30000000000E+02  0.47000000000E+01 0. -1.
</event>
<event>
 5    1  0.7693226E-002  0.6000000E+02  0.7546771E-02  0.1259629E+00
         11   -1    0    0    0    0  0.00000000000E+00  0.00000000000E+00  0.30000000000E+02  0.30000000000E+02  0.00000000000E+00 0.  1.
        -11   -1    0    0    0    0 -0.00000000000E+00 -0.00000000000E+00 -0.30000000000E+02  0.30000000000E+02  0.00000000000E+00 0. -1.
         23    2    1    2    0    0  0.00000000000E+00  0.00000000000E+00  0.00000000000E+00  0.60000000000E+02  0.60000000000E+02 0.  0.
          5    1    3    3  501    0  0.20689167805E+01  0.82612215773E+01 -0.28379249486E+02  0.30000000000E+02  0.47000000000E+01 0. -1.
         -5    1    3    3    0  501 -0.20689167805E+01 -0.82612215773E+01  0.28379249486E+02  0.30000000000E+02  0.47000000000E+01 0.  1.
</event>
<event>
 5    1  0.7693226E-002  0.6000000E+02  0.7546771E-02  0.1259629E+00
         11   -1    0    0    0    0  0.00000000000E+00  0.00000000000E+00  0.30000000000E+02  0.30000000000E+02  0.00000000000E+00 0.  1.
        -11   -1    0    0    0    0 -0.00000000000E+00 -0.00000000000E+00 -0.30000000000E+02  0.30000000000E+02  0.00000000000E+00 0. -1.
         23    2    1    2    0    0  0.00000000000E+00  0.00000000000E+00  0.00000000000E+00  0.60000000000E+02  0.60000000000E+02 0.  0.
          5    1    3    3  501    0 -0.26789565576E+02  0.10824882795E+02 -0.65613328459E+01  0.30000000000E+02  0.47000000000E+01 0. -1.
         -5    1    3    3    0  501  0.26789565576E+02 -0.10824882795E+02  0.65613328459E+01  0.30000000000E+02  0.47000000000E+01 0.  1.
</event>
<event>
 5    1  0.7693226E-002  0.6000000E+02  0.7546771E-02  0.1259629E+00
         11   -1    0    0    0    0  0.00000000000E+00  0.00000000000E+00  0.30000000000E+02  0.30000000000E+02  0.00000000000E+00 0. -1.
        -11   -1    0    0    0    0 -0.00000000000E+00 -0.00000000000E+00 -0.30000000000E+02  0.30000000000E+02  0.00000000000E+00 0.  1.
         23    2    1    2    0    0  0.00000000000E+00  0.00000000000E+00  0.00000000000E+00  0.60000000000E+02  0.60000000000E+02 0.  0.
          5    1    3    3  501    0  0.11179336017E+02 -0.23421347911E+02 -0.14295905297E+02  0.30000000000E+02  0.47000000000E+01 0.  1.
         -5    1    3    3    0  501 -0.11179336017E+02  0.23421347911E+02  0.14295905297E+02  0.30000000000E+02  0.47000000000E+01 0. -1.
</event>
<event>
 5    1  0.7693226E-002  0.6000000E+02  0.7546771E-02  0.1259629E+00
         11   -1    0    0    0    0  0.00000000000E+00  0.00000000000E+00  0.30000000000E+02  0.30000000000E+02  0.00000000000E+00 0. -1.
        -11   -1    0    0    0    0 -0.00000000000E+00 -0.00000000000E+00 -0.30000000000E+02  0.30000000000E+02  0.00000000000E+00 0.  1.
         23    2    1    2    0    0  0.00000000000E+00  0.00000000000E+00  0.00000000000E+00  0.60000000000E+02  0.60000000000E+02 0.  0.
          5    1    3    3  501    0 -0.26870776438E+02  0.26743623795E+00 -0.12481981071E+02  0.30000000000E+02  0.47000000000E+01 0.  1.
         -5    1    3    3    0  501  0.26870776438E+02 -0.26743623795E+00  0.12481981071E+02  0.30000000000E+02  0.47000000000E+01 0. -1.
</event>
<event>
 5    1  0.7693226E-002  0.6000000E+02  0.7546771E-02  0.1259629E+00
         11   -1    0    0    0    0  0.00000000000E+00  0.00000000000E+00  0.30000000000E+02  0.30000000000E+02  0.00000000000E+00 0.  1.
        -11   -1    0    0    0    0 -0.00000000000E+00 -0.00000000000E+00 -0.30000000000E+02  0.30000000000E+02  0.00000000000E+00 0. -1.
         23    2    1    2    0    0  0.00000000000E+00  0.00000000000E+00  0.00000000000E+00  0.60000000000E+02  0.60000000000E+02 0.  0.
          5    1    3    3  501    0  0.17149056488E+02  0.24063605424E+02 -0.21823738327E+01  0.30000000000E+02  0.47000000000E+01 0. -1.
         -5    1    3    3    0  501 -0.17149056488E+02 -0.24063605424E+02  0.21823738327E+01  0.30000000000E+02  0.47000000000E+01 0.  1.
</event>
<event>
 5    1  0.7693226E-002  0.6000000E+02  0.7546771E-02  0.1259629E+00
         11   -1    0    0    0    0  0.00000000000E+00  0.00000000000E+00  0.30000000000E+02  0.30000000000E+02  0.00000000000E+00 0.  1.
        -11   -1    0    0    0    0 -0.00000000000E+00 -0.00000000000E+00 -0.30000000000E+02  0.30000000000E+02  0.00000000000E+00 0. -1.
         23    2    1    2    0    0  0.00000000000E+00  0.00000000000E+00  0.00000000000E+00  0.60000000000E+02  0.60000000000E+02 0.  0.
          5    1    3    3  501    0  0.27316209535E+02 -0.10131833562E+02 -0.53926473401E+01  0.30000000000E+02  0.47000000000E+01 0.  1.
         -5    1    3    3    0  501 -0.27316209535E+02  0.10131833562E+02  0.53926473401E+01  0.30000000000E+02  0.47000000000E+01 0. -1.
</event>
<event>
 5    1  0.7693226E-002  0.6000000E+02  0.7546771E-02  0.1259629E+00
         11   -1    0    0    0    0  0.00000000000E+00  0.00000000000E+00  0.30000000000E+02  0.30000000000E+02  0.00000000000E+00 0.  1.
        -11   -1    0    0    0    0 -0.00000000000E+00 -0.00000000000E+00 -0.30000000000E+02  0.30000000000E+02  0.00000000000E+00 0. -1.
         23    2    1    2    0    0  0.00000000000E+00  0.00000000000E+00  0.00000000000E+00  0.60000000000E+02  0.60000000000E+02 0.  0.
          5    1    3    3  501    0 -0.59815557822E+01 -0.27746126969E+02 -0.85019661650E+01  0.30000000000E+02  0.47000000000E+01 0. -1.
         -5    1    3    3    0  501  0.59815557822E+01  0.27746126969E+02  0.85019661650E+01  0.30000000000E+02  0.47000000000E+01 0.  1.
</event>
<event>
 5    1  0.7693226E-002  0.6000000E+02  0.7546771E-02  0.1259629E+00
         11   -1    0    0    0    0  0.00000000000E+00  0.00000000000E+00  0.30000000000E+02  0.30000000000E+02  0.00000000000E+00 0.  1.
        -11   -1    0    0    0    0 -0.00000000000E+00 -0.00000000000E+00 -0.30000000000E+02  0.30000000000E+02  0.00000000000E+00 0. -1.
         23    2    1    2    0    0  0.00000000000E+00  0.00000000000E+00  0.00000000000E+00  0.60000000000E+02  0.60000000000E+02 0.  0.
          5    1    3    3  501    0 -0.12990434512E+02 -0.16294733947E+02 -0.21062769447E+02  0.30000000000E+02  0.47000000000E+01 0. -1.
         -5    1    3    3    0  501  0.12990434512E+02  0.16294733947E+02  0.21062769447E+02  0.30000000000E+02  0.47000000000E+01 0.  1.
</event>
<event>
 5    1  0.7693226E-002  0.6000000E+02  0.7546771E-02  0.1259629E+00
         11   -1    0    0    0    0  0.00000000000E+00  0.00000000000E+00  0.30000000000E+02  0.30000000000E+02  0.00000000000E+00 0. -1.
        -11   -1    0    0    0    0 -0.00000000000E+00 -0.00000000000E+00 -0.30000000000E+02  0.30000000000E+02  0.00000000000E+00 0.  1.
         23    2    1    2    0    0  0.00000000000E+00  0.00000000000E+00  0.00000000000E+00  0.60000000000E+02  0.60000000000E+02 0.  0.
          5    1    3    3  501    0  0.44514677177E+01  0.18747697666E+02  0.22508182232E+02  0.30000000000E+02  0.47000000000E+01 0.  1.
         -5    1    3    3    0  501 -0.44514677177E+01 -0.18747697666E+02 -0.22508182232E+02  0.30000000000E+02  0.47000000000E+01 0. -1.
</event>
<event>
 5    1  0.7693226E-002  0.6000000E+02  0.7546771E-02  0.1259629E+00
         11   -1    0    0    0    0  0.00000000000E+00  0.00000000000E+00  0.30000000000E+02  0.30000000000E+02  0.00000000000E+00 0.  1.
        -11   -1    0    0    0    0 -0.00000000000E+00 -0.00000000000E+00 -0.30000000000E+02  0.30000000000E+02  0.00000000000E+00 0. -1.
         23    2    1    2    0    0  0.00000000000E+00  0.00000000000E+00  0.00000000000E+00  0.60000000000E+02  0.60000000000E+02 0.  0.
          5    1    3    3  501    0 -0.21855079908E+02  0.17657921424E+02 -0.94054927139E+01  0.30000000000E+02  0.47000000000E+01 0. -1.
         -5    1    3    3    0  501  0.21855079908E+02 -0.17657921424E+02  0.94054927139E+01  0.30000000000E+02  0.47000000000E+01 0.  1.
</event>
<event>
 5    1  0.7693226E-002  0.6000000E+02  0.7546771E-02  0.1259629E+00
         11   -1    0    0    0    0  0.00000000000E+00  0.00000000000E+00  0.30000000000E+02  0.30000000000E+02  0.00000000000E+00 0. -1.
        -11   -1    0    0    0    0 -0.00000000000E+00 -0.00000000000E+00 -0.30000000000E+02  0.30000000000E+02  0.00000000000E+00 0.  1.
         23    2    1    2    0    0  0.00000000000E+00  0.00000000000E+00  0.00000000000E+00  0.60000000000E+02  0.60000000000E+02 0.  0.
          5    1    3    3  501    0 -0.26084956952E+01  0.25988476141E+02 -0.13989455246E+02  0.30000000000E+02  0.47000000000E+01 0.  1.
         -5    1    3    3    0  501  0.26084956952E+01 -0.25988476141E+02  0.13989455246E+02  0.30000000000E+02  0.47000000000E+01 0. -1.
</event>
<event>
 5    1  0.7693226E-002  0.6000000E+02  0.7546771E-02  0.1259629E+00
         11   -1    0    0    0    0  0.00000000000E+00  0.00000000000E+00  0.30000000000E+02  0.30000000000E+02  0.00000000000E+00 0.  1.
        -11   -1    0    0    0    0 -0.00000000000E+00 -0.00000000000E+00 -0.30000000000E+02  0.30000000000E+02  0.00000000000E+00 0. -1.
         23    2    1    2    0    0  0.00000000000E+00  0.00000000000E+00  0.00000000000E+00  0.60000000000E+02  0.60000000000E+02 0.  0.
          5    1    3    3  501    0 -0.34034461368E+01 -0.14136890616E+00 -0.29433086301E+02  0.30000000000E+02  0.47000000000E+01 0. -1.
         -5    1    3    3    0  501  0.34034461368E+01  0.14136890616E+00  0.29433086301E+02  0.30000000000E+02  0.47000000000E+01 0.  1.
</event>
<event>
 5    1  0.7693226E-002  0.6000000E+02  0.7546771E-02  0.1259629E+00
         11   -1    0    0    0    0  0.00000000000E+00  0.00000000000E+00  0.30000000000E+02  0.30000000000E+02  0.00000000000E+00 0.  1.
        -11   -1    0    0    0    0 -0.00000000000E+00 -0.00000000000E+00 -0.30000000000E+02  0.30000000000E+02  0.00000000000E+00 0. -1.
         23    2    1    2    0    0  0.00000000000E+00  0.00000000000E+00  0.00000000000E+00  0.60000000000E+02  0.60000000000E+02 0.  0.
          5    1    3    3  501    0 -0.16116771644E+02 -0.24608256943E+02  0.35487127222E+01  0.30000000000E+02  0.47000000000E+01 0. -1.
         -5    1    3    3    0  501  0.16116771644E+02  0.24608256943E+02 -0.35487127222E+01  0.30000000000E+02  0.47000000000E+01 0.  1.
</event>
<event>
 5    1  0.7693226E-002  0.6000000E+02  0.7546771E-02  0.1259629E+00
         11   -1    0    0    0    0  0.00000000000E+00  0.00000000000E+00  0.30000000000E+02  0.30000000000E+02  0.00000000000E+00 0.  1.
        -11   -1    0    0    0    0 -0.00000000000E+00 -0.00000000000E+00 -0.30000000000E+02  0.30000000000E+02  0.00000000000E+00 0. -1.
         23    2    1    2    0    0  0.00000000000E+00  0.00000000000E+00  0.00000000000E+00  0.60000000000E+02  0.60000000000E+02 0.  0.
          5    1    3    3  501    0 -0.24216536905E+02 -0.13808417200E+02  0.10039768660E+02  0.30000000000E+02  0.47000000000E+01 0. -1.
         -5    1    3    3    0  501  0.24216536905E+02  0.13808417200E+02 -0.10039768660E+02  0.30000000000E+02  0.47000000000E+01 0.  1.
</event>
<event>
 5    1  0.7693226E-002  0.6000000E+02  0.7546771E-02  0.1259629E+00
         11   -1    0    0    0    0  0.00000000000E+00  0.00000000000E+00  0.30000000000E+02  0.30000000000E+02  0.00000000000E+00 0. -1.
        -11   -1    0    0    0    0 -0.00000000000E+00 -0.00000000000E+00 -0.30000000000E+02  0.30000000000E+02  0.00000000000E+00 0.  1.
         23    2    1    2    0    0  0.00000000000E+00  0.00000000000E+00  0.00000000000E+00  0.60000000000E+02  0.60000000000E+02 0.  0.
          5    1    3    3  501    0 -0.10681953591E+02 -0.91958456521E+01 -0.26062277149E+02  0.30000000000E+02  0.47000000000E+01 0.  1.
         -5    1    3    3    0  501  0.10681953591E+02  0.91958456521E+01  0.26062277149E+02  0.30000000000E+02  0.47000000000E+01 0. -1.
</event>
<event>
 5    1  0.7693226E-002  0.6000000E+02  0.7546771E-02  0.1259629E+00
         11   -1    0    0    0    0  0.00000000000E+00  0.00000000000E+00  0.30000000000E+02  0.30000000000E+02  0.00000000000E+00 0. -1.
        -11   -1    0    0    0    0 -0.00000000000E+00 -0.00000000000E+00 -0.30000000000E+02  0.30000000000E+02  0.00000000000E+00 0.  1.
         23    2    1    2    0    0  0.00000000000E+00  0.00000000000E+00  0.00000000000E+00  0.60000000000E+02  0.60000000000E+02 0.  0.
          5    1    3    3  501    0 -0.18604689365E+02 -0.92996781178E+01  0.21101931678E+02  0.30000000000E+02  0.47000000000E+01 0.  1.
         -5    1    3    3    0  501  0.18604689365E+02  0.92996781178E+01 -0.21101931678E+02  0.30000000000E+02  0.47000000000E+01 0. -1.
</event>
<event>
 5    1  0.7693226E-002  0.6000000E+02  0.7546771E-02  0.1259629E+00
         11   -1    0    0    0    0  0.00000000000E+00  0.00000000000E+00  0.30000000000E+02  0.30000000000E+02  0.00000000000E+00 0.  1.
        -11   -1    0    0    0    0 -0.00000000000E+00 -0.00000000000E+00 -0.30000000000E+02  0.30000000000E+02  0.00000000000E+00 0. -1.
         23    2    1    2    0    0  0.00000000000E+00  0.00000000000E+00  0.00000000000E+00  0.60000000000E+02  0.60000000000E+02 0.  0.
          5    1    3    3  501    0  0.29392188884E+02 -0.13414530808E+01 -0.34942433040E+01  0.30000000000E+02  0.47000000000E+01 0. -1.
         -5    1    3    3    0  501 -0.29392188884E+02  0.13414530808E+01  0.34942433040E+01  0.30000000000E+02  0.47000000000E+01 0.  1.
</event>
<event>
 5    1  0.7693226E-002  0.6000000E+02  0.7546771E-02  0.1259629E+00
         11   -1    0    0    0    0  0.00000000000E+00  0.00000000000E+00  0.30000000000E+02  0.30000000000E+02  0.00000000000E+00 0.  1.
        -11   -1    0    0    0    0 -0.00000000000E+00 -0.00000000000E+00 -0.30000000000E+02  0.30000000000E+02  0.00000000000E+00 0. -1.
         23    2    1    2    0    0  0.00000000000E+00  0.00000000000E+00  0.00000000000E+00  0.60000000000E+02  0.60000000000E+02 0.  0.
          5    1    3    3  501    0  0.14985696469E+02 -0.10165305428E+02 -0.23452195354E+02  0.30000000000E+02  0.47000000000E+01 0. -1.
         -5    1    3    3    0  501 -0.14985696469E+02  0.10165305428E+02  0.23452195354E+02  0.30000000000E+02  0.47000000000E+01 0.  1.
</event>
<event>
 5    1  0.7693226E-002  0.6000000E+02  0.7546771E-02  0.1259629E+00
         11   -1    0    0    0    0  0.00000000000E+00  0.00000000000E+00  0.30000000000E+02  0.30000000000E+02  0.00000000000E+00 0. -1.
        -11   -1    0    0    0    0 -0.00000000000E+00 -0.00000000000E+00 -0.30000000000E+02  0.30000000000E+02  0.00000000000E+00 0.  1.
         23    2    1    2    0    0  0.00000000000E+00  0.00000000000E+00  0.00000000000E+00  0.60000000000E+02  0.60000000000E+02 0.  0.
          5    1    3    3  501    0  0.21855083940E+02  0.17174154158E+02 -0.10262248044E+02  0.30000000000E+02  0.47000000000E+01 0.  1.
         -5    1    3    3    0  501 -0.21855083940E+02 -0.17174154158E+02  0.10262248044E+02  0.30000000000E+02  0.47000000000E+01 0. -1.
</event>
<event>
 5    1  0.7693226E-002  0.6000000E+02  0.7546771E-02  0.1259629E+00
         11   -1    0    0    0    0  0.00000000000E+00  0.00000000000E+00  0.30000000000E+02  0.30000000000E+02  0.00000000000E+00 0.  1.
        -11   -1    0    0    0    0 -0.00000000000E+00 -0.00000000000E+00 -0.30000000000E+02  0.30000000000E+02  0.00000000000E+00 0. -1.
         23    2    1    2    0    0  0.00000000000E+00  0.00000000000E+00  0.00000000000E+00  0.60000000000E+02  0.60000000000E+02 0.  0.
          5    1    3    3  501    0 -0.26884268042E+01 -0.20589682435E+02 -0.21136398428E+02  0.30000000000E+02  0.47000000000E+01 0. -1.
         -5    1    3    3    0  501  0.26884268042E+01  0.20589682435E+02  0.21136398428E+02  0.30000000000E+02  0.47000000000E+01 0.  1.
</event>
<event>
 5    1  0.7693226E-002  0.6000000E+02  0.7546771E-02  0.1259629E+00
         11   -1    0    0    0    0  0.00000000000E+00  0.00000000000E+00  0.30000000000E+02  0.30000000000E+02  0.00000000000E+00 0. -1.
        -11   -1    0    0    0    0 -0.00000000000E+00 -0.00000000000E+00 -0.30000000000E+02  0.30000000000E+02  0.00000000000E+00 0.  1.
         23    2    1    2    0    0  0.00000000000E+00  0.00000000000E+00  0.00000000000E+00  0.60000000000E+02  0.60000000000E+02 0.  0.
          5    1    3    3  501    0 -0.44435938653E+01  0.63967766840E-01  0.29294374574E+02  0.30000000000E+02  0.47000000000E+01 0. -1.
         -5    1    3    3    0  501  0.44435938653E+01 -0.63967766840E-01 -0.29294374574E+02  0.30000000000E+02  0.47000000000E+01 0.  1.
</event>
<event>
 5    1  0.7693226E-002  0.6000000E+02  0.7546771E-02  0.1259629E+00
         11   -1    0    0    0    0  0.00000000000E+00  0.00000000000E+00  0.30000000000E+02  0.30000000000E+02  0.00000000000E+00 0.  1.
        -11   -1    0    0    0    0 -0.00000000000E+00 -0.00000000000E+00 -0.30000000000E+02  0.30000000000E+02  0.00000000000E+00 0. -1.
         23    2    1    2    0    0  0.00000000000E+00  0.00000000000E+00  0.00000000000E+00  0.60000000000E+02  0.60000000000E+02 0.  0.
          5    1    3    3  501    0  0.15656174916E+02  0.22685512768E+02 -0.10870220671E+02  0.30000000000E+02  0.47000000000E+01 0. -1.
         -5    1    3    3    0  501 -0.15656174916E+02 -0.22685512768E+02  0.10870220671E+02  0.30000000000E+02  0.47000000000E+01 0.  1.
</event>
<event>
 5    1  0.7693226E-002  0.6000000E+02  0.7546771E-02  0.1259629E+00
         11   -1    0    0    0    0  0.00000000000E+00  0.00000000000E+00  0.30000000000E+02  0.30000000000E+02  0.00000000000E+00 0.  1.
        -11   -1    0    0    0    0 -0.00000000000E+00 -0.00000000000E+00 -0.30000000000E+02  0.30000000000E+02  0.00000000000E+00 0. -1.
         23    2    1    2    0    0  0.00000000000E+00  0.00000000000E+00  0.00000000000E+00  0.60000000000E+02  0.60000000000E+02 0.  0.
          5    1    3    3  501    0 -0.10107901381E+02 -0.20811992953E+02 -0.18509491592E+02  0.30000000000E+02  0.47000000000E+01 0. -1.
         -5    1    3    3    0  501  0.10107901381E+02  0.20811992953E+02  0.18509491592E+02  0.30000000000E+02  0.47000000000E+01 0.  1.
</event>
<event>
 5    1  0.7693226E-002  0.6000000E+02  0.7546771E-02  0.1259629E+00
         11   -1    0    0    0    0  0.00000000000E+00  0.00000000000E+00  0.30000000000E+02  0.30000000000E+02  0.00000000000E+00 0. -1.
        -11   -1    0    0    0    0 -0.00000000000E+00 -0.00000000000E+00 -0.30000000000E+02  0.30000000000E+02  0.00000000000E+00 0.  1.
         23    2    1    2    0    0  0.00000000000E+00  0.00000000000E+00  0.00000000000E+00  0.60000000000E+02  0.60000000000E+02 0.  0.
          5    1    3    3  501    0 -0.66030535858E+01  0.13645088010E+02 -0.25458225715E+02  0.30000000000E+02  0.47000000000E+01 0.  1.
         -5    1    3    3    0  501  0.66030535858E+01 -0.13645088010E+02  0.25458225715E+02  0.30000000000E+02  0.47000000000E+01 0. -1.
</event>
<event>
 5    1  0.7693226E-002  0.6000000E+02  0.7546771E-02  0.1259629E+00
         11   -1    0    0    0    0  0.00000000000E+00  0.00000000000E+00  0.30000000000E+02  0.30000000000E+02  0.00000000000E+00 0. -1.
        -11   -1    0    0    0    0 -0.00000000000E+00 -0.00000000000E+00 -0.30000000000E+02  0.30000000000E+02  0.00000000000E+00 0.  1.
         23    2    1    2    0    0  0.00000000000E+00  0.00000000000E+00  0.00000000000E+00  0.60000000000E+02  0.60000000000E+02 0.  0.
          5    1    3    3  501    0 -0.27851931608E+02 -0.25007540966E+01 -0.97941888218E+01  0.30000000000E+02  0.47000000000E+01 0.  1.
         -5    1    3    3    0  501  0.27851931608E+02  0.25007540966E+01  0.97941888218E+01  0.30000000000E+02  0.47000000000E+01 0. -1.
</event>
<event>
 5    1  0.7693226E-002  0.6000000E+02  0.7546771E-02  0.1259629E+00
         11   -1    0    0    0    0  0.00000000000E+00  0.00000000000E+00  0.30000000000E+02  0.30000000000E+02  0.00000000000E+00 0.  1.
        -11   -1    0    0    0    0 -0.00000000000E+00 -0.00000000000E+00 -0.30000000000E+02  0.30000000000E+02  0.00000000000E+00 0. -1.
         23    2    1    2    0    0  0.00000000000E+00  0.00000000000E+00  0.00000000000E+00  0.60000000000E+02  0.60000000000E+02 0.  0.
          5    1    3    3  501    0  0.20481240027E+02  0.11404529031E+02 -0.18120858825E+02  0.30000000000E+02  0.47000000000E+01 0. -1.
         -5    1    3    3    0  501 -0.20481240027E+02 -0.11404529031E+02  0.18120858825E+02  0.30000000000E+02  0.47000000000E+01 0.  1.
</event>
<event>
 5    1  0.7693226E-002  0.6000000E+02  0.7546771E-02  0.1259629E+00
         11   -1    0    0    0    0  0.00000000000E+00  0.00000000000E+00  0.30000000000E+02  0.30000000000E+02  0.00000000000E+00 0.  1.
        -11   -1    0    0    0    0 -0.00000000000E+00 -0.00000000000E+00 -0.30000000000E+02  0.30000000000E+02  0.00000000000E+00 0. -1.
         23    2    1    2    0    0  0.00000000000E+00  0.00000000000E+00  0.00000000000E+00  0.60000000000E+02  0.60000000000E+02 0.  0.
          5    1    3    3  501    0  0.18479300975E+02  0.17299104052E+02  0.15400208910E+02  0.30000000000E+02  0.47000000000E+01 0. -1.
         -5    1    3    3    0  501 -0.18479300975E+02 -0.17299104052E+02 -0.15400208910E+02  0.30000000000E+02  0.47000000000E+01 0.  1.
</event>
<event>
 5    1  0.7693226E-002  0.6000000E+02  0.7546771E-02  0.1259629E+00
         11   -1    0    0    0    0  0.00000000000E+00  0.00000000000E+00  0.30000000000E+02  0.30000000000E+02  0.00000000000E+00 0.  1.
        -11   -1    0    0    0    0 -0.00000000000E+00 -0.00000000000E+00 -0.30000000000E+02  0.30000000000E+02  0.00000000000E+00 0. -1.
         23    2    1    2    0    0  0.00000000000E+00  0.00000000000E+00  0.00000000000E+00  0.60000000000E+02  0.60000000000E+02 0.  0.
          5    1    3    3  501    0  0.12795285349E+02  0.15946135917E+02 -0.21445545508E+02  0.30000000000E+02  0.47000000000E+01 0. -1.
         -5    1    3    3    0  501 -0.12795285349E+02 -0.15946135917E+02  0.21445545508E+02  0.30000000000E+02  0.47000000000E+01 0.  1.
</event>
<event>
 5    1  0.7693226E-002  0.6000000E+02  0.7546771E-02  0.1259629E+00
         11   -1    0    0    0    0  0.00000000000E+00  0.00000000000E+00  0.30000000000E+02  0.30000000000E+02  0.00000000000E+00 0.  1.
        -11   -1    0    0    0    0 -0.00000000000E+00 -0.00000000000E+00 -0.30000000000E+02  0.30000000000E+02  0.00000000000E+00 0. -1.
         23    2    1    2    0    0  0.00000000000E+00  0.00000000000E+00  0.00000000000E+00  0.60000000000E+02  0.60000000000E+02 0.  0.
          5    1    3    3  501    0  0.13657596915E+01  0.97313185079E+01 -0.27952569480E+02  0.30000000000E+02  0.47000000000E+01 0. -1.
         -5    1    3    3    0  501 -0.13657596915E+01 -0.97313185079E+01  0.27952569480E+02  0.30000000000E+02  0.47000000000E+01 0.  1.
</event>
<event>
 5    1  0.7693226E-002  0.6000000E+02  0.7546771E-02  0.1259629E+00
         11   -1    0    0    0    0  0.00000000000E+00  0.00000000000E+00  0.30000000000E+02  0.30000000000E+02  0.00000000000E+00 0.  1.
        -11   -1    0    0    0    0 -0.00000000000E+00 -0.00000000000E+00 -0.30000000000E+02  0.30000000000E+02  0.00000000000E+00 0. -1.
         23    2    1    2    0    0  0.00000000000E+00  0.00000000000E+00  0.00000000000E+00  0.60000000000E+02  0.60000000000E+02 0.  0.
          5    1    3    3  501    0 -0.94408703964E+01 -0.14944389191E+02 -0.23779091611E+02  0.30000000000E+02  0.47000000000E+01 0. -1.
         -5    1    3    3    0  501  0.94408703964E+01  0.14944389191E+02  0.23779091611E+02  0.30000000000E+02  0.47000000000E+01 0.  1.
</event>
<event>
 5    1  0.7693226E-002  0.6000000E+02  0.7546771E-02  0.1259629E+00
         11   -1    0    0    0    0  0.00000000000E+00  0.00000000000E+00  0.30000000000E+02  0.30000000000E+02  0.00000000000E+00 0.  1.
        -11   -1    0    0    0    0 -0.00000000000E+00 -0.00000000000E+00 -0.30000000000E+02  0.30000000000E+02  0.00000000000E+00 0. -1.
         23    2    1    2    0    0  0.00000000000E+00  0.00000000000E+00  0.00000000000E+00  0.60000000000E+02  0.60000000000E+02 0.  0.
          5    1    3    3  501    0  0.24504673754E+02  0.79138616932E+01 -0.14656116719E+02  0.30000000000E+02  0.47000000000E+01 0. -1.
         -5    1    3    3    0  501 -0.24504673754E+02 -0.79138616932E+01  0.14656116719E+02  0.30000000000E+02  0.47000000000E+01 0.  1.
</event>
<event>
 5    1  0.7693226E-002  0.6000000E+02  0.7546771E-02  0.1259629E+00
         11   -1    0    0    0    0  0.00000000000E+00  0.00000000000E+00  0.30000000000E+02  0.30000000000E+02  0.00000000000E+00 0.  1.
        -11   -1    0    0    0    0 -0.00000000000E+00 -0.00000000000E+00 -0.30000000000E+02  0.30000000000E+02  0.00000000000E+00 0. -1.
         23    2    1    2    0    0  0.00000000000E+00  0.00000000000E+00  0.00000000000E+00  0.60000000000E+02  0.60000000000E+02 0.  0.
          5    1    3    3  501    0 -0.15863987224E+02 -0.20008742781E+02 -0.15029774505E+02  0.30000000000E+02  0.47000000000E+01 0. -1.
         -5    1    3    3    0  501  0.15863987224E+02  0.20008742781E+02  0.15029774505E+02  0.30000000000E+02  0.47000000000E+01 0.  1.
</event>
<event>
 5    1  0.7693226E-002  0.6000000E+02  0.7546771E-02  0.1259629E+00
         11   -1    0    0    0    0  0.00000000000E+00  0.00000000000E+00  0.30000000000E+02  0.30000000000E+02  0.00000000000E+00 0.  1.
        -11   -1    0    0    0    0 -0.00000000000E+00 -0.00000000000E+00 -0.30000000000E+02  0.30000000000E+02  0.00000000000E+00 0. -1.
         23    2    1    2    0    0  0.00000000000E+00  0.00000000000E+00  0.00000000000E+00  0.60000000000E+02  0.60000000000E+02 0.  0.
          5    1    3    3  501    0 -0.85055310111E+01  0.10324267377E+01 -0.28363709864E+02  0.30000000000E+02  0.47000000000E+01 0. -1.
         -5    1    3    3    0  501  0.85055310111E+01 -0.10324267377E+01  0.28363709864E+02  0.30000000000E+02  0.47000000000E+01 0.  1.
</event>
<event>
 5    1  0.7693226E-002  0.6000000E+02  0.7546771E-02  0.1259629E+00
         11   -1    0    0    0    0  0.00000000000E+00  0.00000000000E+00  0.30000000000E+02  0.30000000000E+02  0.00000000000E+00 0. -1.
        -11   -1    0    0    0    0 -0.00000000000E+00 -0.00000000000E+00 -0.30000000000E+02  0.30000000000E+02  0.00000000000E+00 0.  1.
         23    2    1    2    0    0  0.00000000000E+00  0.00000000000E+00  0.00000000000E+00  0.60000000000E+02  0.60000000000E+02 0.  0.
          5    1    3    3  501    0  0.10906407545E+02  0.14186242273E+02 -0.23615901520E+02  0.30000000000E+02  0.47000000000E+01 0.  1.
         -5    1    3    3    0  501 -0.10906407545E+02 -0.14186242273E+02  0.23615901520E+02  0.30000000000E+02  0.47000000000E+01 0. -1.
</event>
<event>
 5    1  0.7693226E-002  0.6000000E+02  0.7546771E-02  0.1259629E+00
         11   -1    0    0    0    0  0.00000000000E+00  0.00000000000E+00  0.30000000000E+02  0.30000000000E+02  0.00000000000E+00 0.  1.
        -11   -1    0    0    0    0 -0.00000000000E+00 -0.00000000000E+00 -0.30000000000E+02  0.30000000000E+02  0.00000000000E+00 0. -1.
         23    2    1    2    0    0  0.00000000000E+00  0.00000000000E+00  0.00000000000E+00  0.60000000000E+02  0.60000000000E+02 0.  0.
          5    1    3    3  501    0  0.22611877474E+02  0.16371664798E+02  0.99288261560E+01  0.30000000000E+02  0.47000000000E+01 0. -1.
         -5    1    3    3    0  501 -0.22611877474E+02 -0.16371664798E+02 -0.99288261560E+01  0.30000000000E+02  0.47000000000E+01 0.  1.
</event>
<event>
 5    1  0.7693226E-002  0.6000000E+02  0.7546771E-02  0.1259629E+00
         11   -1    0    0    0    0  0.00000000000E+00  0.00000000000E+00  0.30000000000E+02  0.30000000000E+02  0.00000000000E+00 0.  1.
        -11   -1    0    0    0    0 -0.00000000000E+00 -0.00000000000E+00 -0.30000000000E+02  0.30000000000E+02  0.00000000000E+00 0. -1.
         23    2    1    2    0    0  0.00000000000E+00  0.00000000000E+00  0.00000000000E+00  0.60000000000E+02  0.60000000000E+02 0.  0.
          5    1    3    3  501    0 -0.15054704477E+02 -0.79638568012E+01 -0.24245470875E+02  0.30000000000E+02  0.47000000000E+01 0. -1.
         -5    1    3    3    0  501  0.15054704477E+02  0.79638568012E+01  0.24245470875E+02  0.30000000000E+02  0.47000000000E+01 0.  1.
</event>
<event>
 5    1  0.7693226E-002  0.6000000E+02  0.7546771E-02  0.1259629E+00
         11   -1    0    0    0    0  0.00000000000E+00  0.00000000000E+00  0.30000000000E+02  0.30000000000E+02  0.00000000000E+00 0.  1.
        -11   -1    0    0    0    0 -0.00000000000E+00 -0.00000000000E+00 -0.30000000000E+02  0.30000000000E+02  0.00000000000E+00 0. -1.
         23    2    1    2    0    0  0.00000000000E+00  0.00000000000E+00  0.00000000000E+00  0.60000000000E+02  0.60000000000E+02 0.  0.
          5    1    3    3  501    0 -0.21105396522E+02  0.10640630894E+02  0.17867546328E+02  0.30000000000E+02  0.47000000000E+01 0.  1.
         -5    1    3    3    0  501  0.21105396522E+02 -0.10640630894E+02 -0.17867546328E+02  0.30000000000E+02  0.47000000000E+01 0. -1.
</event>
<event>
 5    1  0.7693226E-002  0.6000000E+02  0.7546771E-02  0.1259629E+00
         11   -1    0    0    0    0  0.00000000000E+00  0.00000000000E+00  0.30000000000E+02  0.30000000000E+02  0.00000000000E+00 0.  1.
        -11   -1    0    0    0    0 -0.00000000000E+00 -0.00000000000E+00 -0.30000000000E+02  0.30000000000E+02  0.00000000000E+00 0. -1.
         23    2    1    2    0    0  0.00000000000E+00  0.00000000000E+00  0.00000000000E+00  0.60000000000E+02  0.60000000000E+02 0.  0.
          5    1    3    3  501    0  0.15573108917E+02 -0.10980007620E+02  0.22689815145E+02  0.30000000000E+02  0.47000000000E+01 0.  1.
         -5    1    3    3    0  501 -0.15573108917E+02  0.10980007620E+02 -0.22689815145E+02  0.30000000000E+02  0.47000000000E+01 0. -1.
</event>
<event>
 5    1  0.7693226E-002  0.6000000E+02  0.7546771E-02  0.1259629E+00
         11   -1    0    0    0    0  0.00000000000E+00  0.00000000000E+00  0.30000000000E+02  0.30000000000E+02  0.00000000000E+00 0.  1.
        -11   -1    0    0    0    0 -0.00000000000E+00 -0.00000000000E+00 -0.30000000000E+02  0.30000000000E+02  0.00000000000E+00 0. -1.
         23    2    1    2    0    0  0.00000000000E+00  0.00000000000E+00  0.00000000000E+00  0.60000000000E+02  0.60000000000E+02 0.  0.
          5    1    3    3  501    0 -0.11856329256E+02  0.12362211940E+02 -0.24176707231E+02  0.30000000000E+02  0.47000000000E+01 0. -1.
         -5    1    3    3    0  501  0.11856329256E+02 -0.12362211940E+02  0.24176707231E+02  0.30000000000E+02  0.47000000000E+01 0.  1.
</event>
<event>
 5    1  0.7693226E-002  0.6000000E+02  0.7546771E-02  0.1259629E+00
         11   -1    0    0    0    0  0.00000000000E+00  0.00000000000E+00  0.30000000000E+02  0.30000000000E+02  0.00000000000E+00 0.  1.
        -11   -1    0    0    0    0 -0.00000000000E+00 -0.00000000000E+00 -0.30000000000E+02  0.30000000000E+02  0.00000000000E+00 0. -1.
         23    2    1    2    0    0  0.00000000000E+00  0.00000000000E+00  0.00000000000E+00  0.60000000000E+02  0.60000000000E+02 0.  0.
          5    1    3    3  501    0  0.11408495024E+02  0.70868559256E+01 -0.26410844636E+02  0.30000000000E+02  0.47000000000E+01 0. -1.
         -5    1    3    3    0  501 -0.11408495024E+02 -0.70868559256E+01  0.26410844636E+02  0.30000000000E+02  0.47000000000E+01 0.  1.
</event>
<event>
 5    1  0.7693226E-002  0.6000000E+02  0.7546771E-02  0.1259629E+00
         11   -1    0    0    0    0  0.00000000000E+00  0.00000000000E+00  0.30000000000E+02  0.30000000000E+02  0.00000000000E+00 0.  1.
        -11   -1    0    0    0    0 -0.00000000000E+00 -0.00000000000E+00 -0.30000000000E+02  0.30000000000E+02  0.00000000000E+00 0. -1.
         23    2    1    2    0    0  0.00000000000E+00  0.00000000000E+00  0.00000000000E+00  0.60000000000E+02  0.60000000000E+02 0.  0.
          5    1    3    3  501    0 -0.28597105558E+02  0.53342708406E+01 -0.56268204445E+01  0.30000000000E+02  0.47000000000E+01 0. -1.
         -5    1    3    3    0  501  0.28597105558E+02 -0.53342708406E+01  0.56268204445E+01  0.30000000000E+02  0.47000000000E+01 0.  1.
</event>
<event>
 5    1  0.7693226E-002  0.6000000E+02  0.7546771E-02  0.1259629E+00
         11   -1    0    0    0    0  0.00000000000E+00  0.00000000000E+00  0.30000000000E+02  0.30000000000E+02  0.00000000000E+00 0.  1.
        -11   -1    0    0    0    0 -0.00000000000E+00 -0.00000000000E+00 -0.30000000000E+02  0.30000000000E+02  0.00000000000E+00 0. -1.
         23    2    1    2    0    0  0.00000000000E+00  0.00000000000E+00  0.00000000000E+00  0.60000000000E+02  0.60000000000E+02 0.  0.
          5    1    3    3  501    0 -0.52025385398E+01  0.28866633070E+02 -0.41905951772E+01  0.30000000000E+02  0.47000000000E+01 0. -1.
         -5    1    3    3    0  501  0.52025385398E+01 -0.28866633070E+02  0.41905951772E+01  0.30000000000E+02  0.47000000000E+01 0.  1.
</event>
<event>
 5    1  0.7693226E-002  0.6000000E+02  0.7546771E-02  0.1259629E+00
         11   -1    0    0    0    0  0.00000000000E+00  0.00000000000E+00  0.30000000000E+02  0.30000000000E+02  0.00000000000E+00 0. -1.
        -11   -1    0    0    0    0 -0.00000000000E+00 -0.00000000000E+00 -0.30000000000E+02  0.30000000000E+02  0.00000000000E+00 0.  1.
         23    2    1    2    0    0  0.00000000000E+00  0.00000000000E+00  0.00000000000E+00  0.60000000000E+02  0.60000000000E+02 0.  0.
          5    1    3    3  501    0  0.12772511045E+02  0.23426805084E+02 -0.12882459593E+02  0.30000000000E+02  0.47000000000E+01 0.  1.
         -5    1    3    3    0  501 -0.12772511045E+02 -0.23426805084E+02  0.12882459593E+02  0.30000000000E+02  0.47000000000E+01 0. -1.
</event>
<event>
 5    1  0.7693226E-002  0.6000000E+02  0.7546771E-02  0.1259629E+00
         11   -1    0    0    0    0  0.00000000000E+00  0.00000000000E+00  0.30000000000E+02  0.30000000000E+02  0.00000000000E+00 0.  1.
        -11   -1    0    0    0    0 -0.00000000000E+00 -0.00000000000E+00 -0.30000000000E+02  0.30000000000E+02  0.00000000000E+00 0. -1.
         23    2    1    2    0    0  0.00000000000E+00  0.00000000000E+00  0.00000000000E+00  0.60000000000E+02  0.60000000000E+02 0.  0.
          5    1    3    3  501    0  0.22318345547E+01 -0.27346826735E+02  0.11183916220E+02  0.30000000000E+02  0.47000000000E+01 0.  1.
         -5    1    3    3    0  501 -0.22318345547E+01  0.27346826735E+02 -0.11183916220E+02  0.30000000000E+02  0.47000000000E+01 0. -1.
</event>
<event>
 5    1  0.7693226E-002  0.6000000E+02  0.7546771E-02  0.1259629E+00
         11   -1    0    0    0    0  0.00000000000E+00  0.00000000000E+00  0.30000000000E+02  0.30000000000E+02  0.00000000000E+00 0.  1.
        -11   -1    0    0    0    0 -0.00000000000E+00 -0.00000000000E+00 -0.30000000000E+02  0.30000000000E+02  0.00000000000E+00 0. -1.
         23    2    1    2    0    0  0.00000000000E+00  0.00000000000E+00  0.00000000000E+00  0.60000000000E+02  0.60000000000E+02 0.  0.
          5    1    3    3  501    0 -0.76922750536E-01  0.29626467185E+02 -0.42014884343E+00  0.30000000000E+02  0.47000000000E+01 0. -1.
         -5    1    3    3    0  501  0.76922750536E-01 -0.29626467185E+02  0.42014884343E+00  0.30000000000E+02  0.47000000000E+01 0.  1.
</event>
<event>
 5    1  0.7693226E-002  0.6000000E+02  0.7546771E-02  0.1259629E+00
         11   -1    0    0    0    0  0.00000000000E+00  0.00000000000E+00  0.30000000000E+02  0.30000000000E+02  0.00000000000E+00 0. -1.
        -11   -1    0    0    0    0 -0.00000000000E+00 -0.00000000000E+00 -0.30000000000E+02  0.30000000000E+02  0.00000000000E+00 0.  1.
         23    2    1    2    0    0  0.00000000000E+00  0.00000000000E+00  0.00000000000E+00  0.60000000000E+02  0.60000000000E+02 0.  0.
          5    1    3    3  501    0 -0.24485438893E+02 -0.74623109730E+01 -0.14922707433E+02  0.30000000000E+02  0.47000000000E+01 0.  1.
         -5    1    3    3    0  501  0.24485438893E+02  0.74623109730E+01  0.14922707433E+02  0.30000000000E+02  0.47000000000E+01 0. -1.
</event>
<event>
 5    1  0.7693226E-002  0.6000000E+02  0.7546771E-02  0.1259629E+00
         11   -1    0    0    0    0  0.00000000000E+00  0.00000000000E+00  0.30000000000E+02  0.30000000000E+02  0.00000000000E+00 0.  1.
        -11   -1    0    0    0    0 -0.00000000000E+00 -0.00000000000E+00 -0.30000000000E+02  0.30000000000E+02  0.00000000000E+00 0. -1.
         23    2    1    2    0    0  0.00000000000E+00  0.00000000000E+00  0.00000000000E+00  0.60000000000E+02  0.60000000000E+02 0.  0.
          5    1    3    3  501    0 -0.12914519610E+02 -0.22985424370E+02 -0.13520186750E+02  0.30000000000E+02  0.47000000000E+01 0. -1.
         -5    1    3    3    0  501  0.12914519610E+02  0.22985424370E+02  0.13520186750E+02  0.30000000000E+02  0.47000000000E+01 0.  1.
</event>
<event>
 5    1  0.7693226E-002  0.6000000E+02  0.7546771E-02  0.1259629E+00
         11   -1    0    0    0    0  0.00000000000E+00  0.00000000000E+00  0.30000000000E+02  0.30000000000E+02  0.00000000000E+00 0.  1.
        -11   -1    0    0    0    0 -0.00000000000E+00 -0.00000000000E+00 -0.30000000000E+02  0.30000000000E+02  0.00000000000E+00 0. -1.
         23    2    1    2    0    0  0.00000000000E+00  0.00000000000E+00  0.00000000000E+00  0.60000000000E+02  0.60000000000E+02 0.  0.
          5    1    3    3  501    0  0.27395400066E+02 -0.16681916224E+01 -0.11163296643E+02  0.30000000000E+02  0.47000000000E+01 0. -1.
         -5    1    3    3    0  501 -0.27395400066E+02  0.16681916224E+01  0.11163296643E+02  0.30000000000E+02  0.47000000000E+01 0.  1.
</event>
<event>
 5    1  0.7693226E-002  0.6000000E+02  0.7546771E-02  0.1259629E+00
         11   -1    0    0    0    0  0.00000000000E+00  0.00000000000E+00  0.30000000000E+02  0.30000000000E+02  0.00000000000E+00 0.  1.
        -11   -1    0    0    0    0 -0.00000000000E+00 -0.00000000000E+00 -0.30000000000E+02  0.30000000000E+02  0.00000000000E+00 0. -1.
         23    2    1    2    0    0  0.00000000000E+00  0.00000000000E+00  0.00000000000E+00  0.60000000000E+02  0.60000000000E+02 0.  0.
          5    1    3    3  501    0  0.28767440458E+02 -0.49036078304E+01 -0.51282550392E+01  0.30000000000E+02  0.47000000000E+01 0. -1.
         -5    1    3    3    0  501 -0.28767440458E+02  0.49036078304E+01  0.51282550392E+01  0.30000000000E+02  0.47000000000E+01 0.  1.
</event>
<event>
 5    1  0.7693226E-002  0.6000000E+02  0.7546771E-02  0.1259629E+00
         11   -1    0    0    0    0  0.00000000000E+00  0.00000000000E+00  0.30000000000E+02  0.30000000000E+02  0.00000000000E+00 0.  1.
        -11   -1    0    0    0    0 -0.00000000000E+00 -0.00000000000E+00 -0.30000000000E+02  0.30000000000E+02  0.00000000000E+00 0. -1.
         23    2    1    2    0    0  0.00000000000E+00  0.00000000000E+00  0.00000000000E+00  0.60000000000E+02  0.60000000000E+02 0.  0.
          5    1    3    3  501    0 -0.40873352582E+01 -0.40295748380E+01 -0.29068302618E+02  0.30000000000E+02  0.47000000000E+01 0. -1.
         -5    1    3    3    0  501  0.40873352582E+01  0.40295748380E+01  0.29068302618E+02  0.30000000000E+02  0.47000000000E+01 0.  1.
</event>
<event>
 5    1  0.7693226E-002  0.6000000E+02  0.7546771E-02  0.1259629E+00
         11   -1    0    0    0    0  0.00000000000E+00  0.00000000000E+00  0.30000000000E+02  0.30000000000E+02  0.00000000000E+00 0.  1.
        -11   -1    0    0    0    0 -0.00000000000E+00 -0.00000000000E+00 -0.30000000000E+02  0.30000000000E+02  0.00000000000E+00 0. -1.
         23    2    1    2    0    0  0.00000000000E+00  0.00000000000E+00  0.00000000000E+00  0.60000000000E+02  0.60000000000E+02 0.  0.
          5    1    3    3  501    0 -0.12016003760E+01  0.43876454824E+01 -0.29278229517E+02  0.30000000000E+02  0.47000000000E+01 0. -1.
         -5    1    3    3    0  501  0.12016003760E+01 -0.43876454824E+01  0.29278229517E+02  0.30000000000E+02  0.47000000000E+01 0.  1.
</event>
<event>
 5    1  0.7693226E-002  0.6000000E+02  0.7546771E-02  0.1259629E+00
         11   -1    0    0    0    0  0.00000000000E+00  0.00000000000E+00  0.30000000000E+02  0.30000000000E+02  0.00000000000E+00 0.  1.
        -11   -1    0    0    0    0 -0.00000000000E+00 -0.00000000000E+00 -0.30000000000E+02  0.30000000000E+02  0.00000000000E+00 0. -1.
         23    2    1    2    0    0  0.00000000000E+00  0.00000000000E+00  0.00000000000E+00  0.60000000000E+02  0.60000000000E+02 0.  0.
          5    1    3    3  501    0 -0.52933098118E+01  0.18809558279E+02 -0.22273109091E+02  0.30000000000E+02  0.47000000000E+01 0. -1.
         -5    1    3    3    0  501  0.52933098118E+01 -0.18809558279E+02  0.22273109091E+02  0.30000000000E+02  0.47000000000E+01 0.  1.
</event>
<event>
 5    1  0.7693226E-002  0.6000000E+02  0.7546771E-02  0.1259629E+00
         11   -1    0    0    0    0  0.00000000000E+00  0.00000000000E+00  0.30000000000E+02  0.30000000000E+02  0.00000000000E+00 0.  1.
        -11   -1    0    0    0    0 -0.00000000000E+00 -0.00000000000E+00 -0.30000000000E+02  0.30000000000E+02  0.00000000000E+00 0. -1.
         23    2    1    2    0    0  0.00000000000E+00  0.00000000000E+00  0.00000000000E+00  0.60000000000E+02  0.60000000000E+02 0.  0.
          5    1    3    3  501    0  0.10022208970E+02 -0.27066311602E+02  0.66992614228E+01  0.30000000000E+02  0.47000000000E+01 0. -1.
         -5    1    3    3    0  501 -0.10022208970E+02  0.27066311602E+02 -0.66992614228E+01  0.30000000000E+02  0.47000000000E+01 0.  1.
</event>
<event>
 5    1  0.7693226E-002  0.6000000E+02  0.7546771E-02  0.1259629E+00
         11   -1    0    0    0    0  0.00000000000E+00  0.00000000000E+00  0.30000000000E+02  0.30000000000E+02  0.00000000000E+00 0.  1.
        -11   -1    0    0    0    0 -0.00000000000E+00 -0.00000000000E+00 -0.30000000000E+02  0.30000000000E+02  0.00000000000E+00 0. -1.
         23    2    1    2    0    0  0.00000000000E+00  0.00000000000E+00  0.00000000000E+00  0.60000000000E+02  0.60000000000E+02 0.  0.
          5    1    3    3  501    0  0.28329750206E+02  0.82796740452E+01  0.26042755127E+01  0.30000000000E+02  0.47000000000E+01 0. -1.
         -5    1    3    3    0  501 -0.28329750206E+02 -0.82796740452E+01 -0.26042755127E+01  0.30000000000E+02  0.47000000000E+01 0.  1.
</event>
<event>
 5    1  0.7693226E-002  0.6000000E+02  0.7546771E-02  0.1259629E+00
         11   -1    0    0    0    0  0.00000000000E+00  0.00000000000E+00  0.30000000000E+02  0.30000000000E+02  0.00000000000E+00 0.  1.
        -11   -1    0    0    0    0 -0.00000000000E+00 -0.00000000000E+00 -0.30000000000E+02  0.30000000000E+02  0.00000000000E+00 0. -1.
         23    2    1    2    0    0  0.00000000000E+00  0.00000000000E+00  0.00000000000E+00  0.60000000000E+02  0.60000000000E+02 0.  0.
          5    1    3    3  501    0  0.24000737341E+02 -0.85092390168E+01 -0.15148183339E+02  0.30000000000E+02  0.47000000000E+01 0. -1.
         -5    1    3    3    0  501 -0.24000737341E+02  0.85092390168E+01  0.15148183339E+02  0.30000000000E+02  0.47000000000E+01 0.  1.
</event>
<event>
 5    1  0.7693226E-002  0.6000000E+02  0.7546771E-02  0.1259629E+00
         11   -1    0    0    0    0  0.00000000000E+00  0.00000000000E+00  0.30000000000E+02  0.30000000000E+02  0.00000000000E+00 0.  1.
        -11   -1    0    0    0    0 -0.00000000000E+00 -0.00000000000E+00 -0.30000000000E+02  0.30000000000E+02  0.00000000000E+00 0. -1.
         23    2    1    2    0    0  0.00000000000E+00  0.00000000000E+00  0.00000000000E+00  0.60000000000E+02  0.60000000000E+02 0.  0.
          5    1    3    3  501    0  0.24144750199E+02  0.13336974550E+02  0.10819711073E+02  0.30000000000E+02  0.47000000000E+01 0.  1.
         -5    1    3    3    0  501 -0.24144750199E+02 -0.13336974550E+02 -0.10819711073E+02  0.30000000000E+02  0.47000000000E+01 0.  1.
</event>
<event>
 5    1  0.7693226E-002  0.6000000E+02  0.7546771E-02  0.1259629E+00
         11   -1    0    0    0    0  0.00000000000E+00  0.00000000000E+00  0.30000000000E+02  0.30000000000E+02  0.00000000000E+00 0.  1.
        -11   -1    0    0    0    0 -0.00000000000E+00 -0.00000000000E+00 -0.30000000000E+02  0.30000000000E+02  0.00000000000E+00 0. -1.
         23    2    1    2    0    0  0.00000000000E+00  0.00000000000E+00  0.00000000000E+00  0.60000000000E+02  0.60000000000E+02 0.  0.
          5    1    3    3  501    0  0.18792133162E+02 -0.11739534773E+02 -0.19671020678E+02  0.30000000000E+02  0.47000000000E+01 0. -1.
         -5    1    3    3    0  501 -0.18792133162E+02  0.11739534773E+02  0.19671020678E+02  0.30000000000E+02  0.47000000000E+01 0.  1.
</event>
<event>
 5    1  0.7693226E-002  0.6000000E+02  0.7546771E-02  0.1259629E+00
         11   -1    0    0    0    0  0.00000000000E+00  0.00000000000E+00  0.30000000000E+02  0.30000000000E+02  0.00000000000E+00 0.  1.
        -11   -1    0    0    0    0 -0.00000000000E+00 -0.00000000000E+00 -0.30000000000E+02  0.30000000000E+02  0.00000000000E+00 0. -1.
         23    2    1    2    0    0  0.00000000000E+00  0.00000000000E+00  0.00000000000E+00  0.60000000000E+02  0.60000000000E+02 0.  0.
          5    1    3    3  501    0  0.71983488612E+01 -0.23109162914E+02 -0.17089773640E+02  0.30000000000E+02  0.47000000000E+01 0. -1.
         -5    1    3    3    0  501 -0.71983488612E+01  0.23109162914E+02  0.17089773640E+02  0.30000000000E+02  0.47000000000E+01 0.  1.
</event>
<event>
 5    1  0.7693226E-002  0.6000000E+02  0.7546771E-02  0.1259629E+00
         11   -1    0    0    0    0  0.00000000000E+00  0.00000000000E+00  0.30000000000E+02  0.30000000000E+02  0.00000000000E+00 0.  1.
        -11   -1    0    0    0    0 -0.00000000000E+00 -0.00000000000E+00 -0.30000000000E+02  0.30000000000E+02  0.00000000000E+00 0. -1.
         23    2    1    2    0    0  0.00000000000E+00  0.00000000000E+00  0.00000000000E+00  0.60000000000E+02  0.60000000000E+02 0.  0.
          5    1    3    3  501    0  0.13901146445E+01  0.16483627539E+02 -0.24581855187E+02  0.30000000000E+02  0.47000000000E+01 0. -1.
         -5    1    3    3    0  501 -0.13901146445E+01 -0.16483627539E+02  0.24581855187E+02  0.30000000000E+02  0.47000000000E+01 0.  1.
</event>
<event>
 5    1  0.7693226E-002  0.6000000E+02  0.7546771E-02  0.1259629E+00
         11   -1    0    0    0    0  0.00000000000E+00  0.00000000000E+00  0.30000000000E+02  0.30000000000E+02  0.00000000000E+00 0.  1.
        -11   -1    0    0    0    0 -0.00000000000E+00 -0.00000000000E+00 -0.30000000000E+02  0.30000000000E+02  0.00000000000E+00 0. -1.
         23    2    1    2    0    0  0.00000000000E+00  0.00000000000E+00  0.00000000000E+00  0.60000000000E+02  0.60000000000E+02 0.  0.
          5    1    3    3  501    0  0.11321614571E+02 -0.20919498563E+02 -0.17666511353E+02  0.30000000000E+02  0.47000000000E+01 0. -1.
         -5    1    3    3    0  501 -0.11321614571E+02  0.20919498563E+02  0.17666511353E+02  0.30000000000E+02  0.47000000000E+01 0.  1.
</event>
<event>
 5    1  0.7693226E-002  0.6000000E+02  0.7546771E-02  0.1259629E+00
         11   -1    0    0    0    0  0.00000000000E+00  0.00000000000E+00  0.30000000000E+02  0.30000000000E+02  0.00000000000E+00 0.  1.
        -11   -1    0    0    0    0 -0.00000000000E+00 -0.00000000000E+00 -0.30000000000E+02  0.30000000000E+02  0.00000000000E+00 0. -1.
         23    2    1    2    0    0  0.00000000000E+00  0.00000000000E+00  0.00000000000E+00  0.60000000000E+02  0.60000000000E+02 0.  0.
          5    1    3    3  501    0 -0.12691036416E+02 -0.14964143614E+02  0.22201846783E+02  0.30000000000E+02  0.47000000000E+01 0.  1.
         -5    1    3    3    0  501  0.12691036416E+02  0.14964143614E+02 -0.22201846783E+02  0.30000000000E+02  0.47000000000E+01 0. -1.
</event>
<event>
 5    1  0.7693226E-002  0.6000000E+02  0.7546771E-02  0.1259629E+00
         11   -1    0    0    0    0  0.00000000000E+00  0.00000000000E+00  0.30000000000E+02  0.30000000000E+02  0.00000000000E+00 0.  1.
        -11   -1    0    0    0    0 -0.00000000000E+00 -0.00000000000E+00 -0.30000000000E+02  0.30000000000E+02  0.00000000000E+00 0. -1.
         23    2    1    2    0    0  0.00000000000E+00  0.00000000000E+00  0.00000000000E+00  0.60000000000E+02  0.60000000000E+02 0.  0.
          5    1    3    3  501    0  0.28962512116E+01  0.19008756430E+02 -0.22543045666E+02  0.30000000000E+02  0.47000000000E+01 0. -1.
         -5    1    3    3    0  501 -0.28962512116E+01 -0.19008756430E+02  0.22543045666E+02  0.30000000000E+02  0.47000000000E+01 0.  1.
</event>
<event>
 5    1  0.7693226E-002  0.6000000E+02  0.7546771E-02  0.1259629E+00
         11   -1    0    0    0    0  0.00000000000E+00  0.00000000000E+00  0.30000000000E+02  0.30000000000E+02  0.00000000000E+00 0.  1.
        -11   -1    0    0    0    0 -0.00000000000E+00 -0.00000000000E+00 -0.30000000000E+02  0.30000000000E+02  0.00000000000E+00 0. -1.
         23    2    1    2    0    0  0.00000000000E+00  0.00000000000E+00  0.00000000000E+00  0.60000000000E+02  0.60000000000E+02 0.  0.
          5    1    3    3  501    0 -0.39075376669E+01 -0.72060558583E+01 -0.28473038270E+02  0.30000000000E+02  0.47000000000E+01 0. -1.
         -5    1    3    3    0  501  0.39075376669E+01  0.72060558583E+01  0.28473038270E+02  0.30000000000E+02  0.47000000000E+01 0.  1.
</event>
<event>
 5    1  0.7693226E-002  0.6000000E+02  0.7546771E-02  0.1259629E+00
         11   -1    0    0    0    0  0.00000000000E+00  0.00000000000E+00  0.30000000000E+02  0.30000000000E+02  0.00000000000E+00 0.  1.
        -11   -1    0    0    0    0 -0.00000000000E+00 -0.00000000000E+00 -0.30000000000E+02  0.30000000000E+02  0.00000000000E+00 0. -1.
         23    2    1    2    0    0  0.00000000000E+00  0.00000000000E+00  0.00000000000E+00  0.60000000000E+02  0.60000000000E+02 0.  0.
          5    1    3    3  501    0  0.29532047281E+02 -0.18908052447E+01 -0.14808912556E+01  0.30000000000E+02  0.47000000000E+01 0. -1.
         -5    1    3    3    0  501 -0.29532047281E+02  0.18908052447E+01  0.14808912556E+01  0.30000000000E+02  0.47000000000E+01 0.  1.
</event>
<event>
 5    1  0.7693226E-002  0.6000000E+02  0.7546771E-02  0.1259629E+00
         11   -1    0    0    0    0  0.00000000000E+00  0.00000000000E+00  0.30000000000E+02  0.30000000000E+02  0.00000000000E+00 0. -1.
        -11   -1    0    0    0    0 -0.00000000000E+00 -0.00000000000E+00 -0.30000000000E+02  0.30000000000E+02  0.00000000000E+00 0.  1.
         23    2    1    2    0    0  0.00000000000E+00  0.00000000000E+00  0.00000000000E+00  0.60000000000E+02  0.60000000000E+02 0.  0.
          5    1    3    3  501    0  0.11707769714E+02  0.12170607539E+02 -0.24345727355E+02  0.30000000000E+02  0.47000000000E+01 0.  1.
         -5    1    3    3    0  501 -0.11707769714E+02 -0.12170607539E+02  0.24345727355E+02  0.30000000000E+02  0.47000000000E+01 0. -1.
</event>
<event>
 5    1  0.7693226E-002  0.6000000E+02  0.7546771E-02  0.1259629E+00
         11   -1    0    0    0    0  0.00000000000E+00  0.00000000000E+00  0.30000000000E+02  0.30000000000E+02  0.00000000000E+00 0. -1.
        -11   -1    0    0    0    0 -0.00000000000E+00 -0.00000000000E+00 -0.30000000000E+02  0.30000000000E+02  0.00000000000E+00 0.  1.
         23    2    1    2    0    0  0.00000000000E+00  0.00000000000E+00  0.00000000000E+00  0.60000000000E+02  0.60000000000E+02 0.  0.
          5    1    3    3  501    0  0.26426344057E+02 -0.84353660450E+01  0.10411673230E+02  0.30000000000E+02  0.47000000000E+01 0. -1.
         -5    1    3    3    0  501 -0.26426344057E+02  0.84353660450E+01 -0.10411673230E+02  0.30000000000E+02  0.47000000000E+01 0.  1.
</event>
<event>
 5    1  0.7693226E-002  0.6000000E+02  0.7546771E-02  0.1259629E+00
         11   -1    0    0    0    0  0.00000000000E+00  0.00000000000E+00  0.30000000000E+02  0.30000000000E+02  0.00000000000E+00 0. -1.
        -11   -1    0    0    0    0 -0.00000000000E+00 -0.00000000000E+00 -0.30000000000E+02  0.30000000000E+02  0.00000000000E+00 0.  1.
         23    2    1    2    0    0  0.00000000000E+00  0.00000000000E+00  0.00000000000E+00  0.60000000000E+02  0.60000000000E+02 0.  0.
          5    1    3    3  501    0  0.21206637340E+02  0.78650562049E+01 -0.19139734158E+02  0.30000000000E+02  0.47000000000E+01 0.  1.
         -5    1    3    3    0  501 -0.21206637340E+02 -0.78650562049E+01  0.19139734158E+02  0.30000000000E+02  0.47000000000E+01 0. -1.
</event>
<event>
 5    1  0.7693226E-002  0.6000000E+02  0.7546771E-02  0.1259629E+00
         11   -1    0    0    0    0  0.00000000000E+00  0.00000000000E+00  0.30000000000E+02  0.30000000000E+02  0.00000000000E+00 0.  1.
        -11   -1    0    0    0    0 -0.00000000000E+00 -0.00000000000E+00 -0.30000000000E+02  0.30000000000E+02  0.00000000000E+00 0. -1.
         23    2    1    2    0    0  0.00000000000E+00  0.00000000000E+00  0.00000000000E+00  0.60000000000E+02  0.60000000000E+02 0.  0.
          5    1    3    3  501    0  0.27067425936E+02  0.12047260769E+02 -0.35771659741E+00  0.30000000000E+02  0.47000000000E+01 0. -1.
         -5    1    3    3    0  501 -0.27067425936E+02 -0.12047260769E+02  0.35771659741E+00  0.30000000000E+02  0.47000000000E+01 0.  1.
</event>
<event>
 5    1  0.7693226E-002  0.6000000E+02  0.7546771E-02  0.1259629E+00
         11   -1    0    0    0    0  0.00000000000E+00  0.00000000000E+00  0.30000000000E+02  0.30000000000E+02  0.00000000000E+00 0.  1.
        -11   -1    0    0    0    0 -0.00000000000E+00 -0.00000000000E+00 -0.30000000000E+02  0.30000000000E+02  0.00000000000E+00 0. -1.
         23    2    1    2    0    0  0.00000000000E+00  0.00000000000E+00  0.00000000000E+00  0.60000000000E+02  0.60000000000E+02 0.  0.
          5    1    3    3  501    0  0.22567292791E+02 -0.16705929944E+02  0.94625155634E+01  0.30000000000E+02  0.47000000000E+01 0. -1.
         -5    1    3    3    0  501 -0.22567292791E+02  0.16705929944E+02 -0.94625155634E+01  0.30000000000E+02  0.47000000000E+01 0.  1.
</event>
<event>
 5    1  0.7693226E-002  0.6000000E+02  0.7546771E-02  0.1259629E+00
         11   -1    0    0    0    0  0.00000000000E+00  0.00000000000E+00  0.30000000000E+02  0.30000000000E+02  0.00000000000E+00 0.  1.
        -11   -1    0    0    0    0 -0.00000000000E+00 -0.00000000000E+00 -0.30000000000E+02  0.30000000000E+02  0.00000000000E+00 0. -1.
         23    2    1    2    0    0  0.00000000000E+00  0.00000000000E+00  0.00000000000E+00  0.60000000000E+02  0.60000000000E+02 0.  0.
          5    1    3    3  501    0  0.84346844672E+01 -0.34633015655E+01 -0.28191694525E+02  0.30000000000E+02  0.47000000000E+01 0. -1.
         -5    1    3    3    0  501 -0.84346844672E+01  0.34633015655E+01  0.28191694525E+02  0.30000000000E+02  0.47000000000E+01 0.  1.
</event>
<event>
 5    1  0.7693226E-002  0.6000000E+02  0.7546771E-02  0.1259629E+00
         11   -1    0    0    0    0  0.00000000000E+00  0.00000000000E+00  0.30000000000E+02  0.30000000000E+02  0.00000000000E+00 0.  1.
        -11   -1    0    0    0    0 -0.00000000000E+00 -0.00000000000E+00 -0.30000000000E+02  0.30000000000E+02  0.00000000000E+00 0. -1.
         23    2    1    2    0    0  0.00000000000E+00  0.00000000000E+00  0.00000000000E+00  0.60000000000E+02  0.60000000000E+02 0.  0.
          5    1    3    3  501    0  0.12248706962E+00  0.27860205024E+02 -0.10084838766E+02  0.30000000000E+02  0.47000000000E+01 0. -1.
         -5    1    3    3    0  501 -0.12248706962E+00 -0.27860205024E+02  0.10084838766E+02  0.30000000000E+02  0.47000000000E+01 0.  1.
</event>
<event>
 5    1  0.7693226E-002  0.6000000E+02  0.7546771E-02  0.1259629E+00
         11   -1    0    0    0    0  0.00000000000E+00  0.00000000000E+00  0.30000000000E+02  0.30000000000E+02  0.00000000000E+00 0.  1.
        -11   -1    0    0    0    0 -0.00000000000E+00 -0.00000000000E+00 -0.30000000000E+02  0.30000000000E+02  0.00000000000E+00 0. -1.
         23    2    1    2    0    0  0.00000000000E+00  0.00000000000E+00  0.00000000000E+00  0.60000000000E+02  0.60000000000E+02 0.  0.
          5    1    3    3  501    0 -0.10714012358E+02 -0.14502674250E+02 -0.23511537142E+02  0.30000000000E+02  0.47000000000E+01 0. -1.
         -5    1    3    3    0  501  0.10714012358E+02  0.14502674250E+02  0.23511537142E+02  0.30000000000E+02  0.47000000000E+01 0.  1.
</event>
<event>
 5    1  0.7693226E-002  0.6000000E+02  0.7546771E-02  0.1259629E+00
         11   -1    0    0    0    0  0.00000000000E+00  0.00000000000E+00  0.30000000000E+02  0.30000000000E+02  0.00000000000E+00 0.  1.
        -11   -1    0    0    0    0 -0.00000000000E+00 -0.00000000000E+00 -0.30000000000E+02  0.30000000000E+02  0.00000000000E+00 0. -1.
         23    2    1    2    0    0  0.00000000000E+00  0.00000000000E+00  0.00000000000E+00  0.60000000000E+02  0.60000000000E+02 0.  0.
          5    1    3    3  501    0  0.10049479524E+02  0.12196898926E+01 -0.27846549478E+02  0.30000000000E+02  0.47000000000E+01 0. -1.
         -5    1    3    3    0  501 -0.10049479524E+02 -0.12196898926E+01  0.27846549478E+02  0.30000000000E+02  0.47000000000E+01 0.  1.
</event>
<event>
 5    1  0.7693226E-002  0.6000000E+02  0.7546771E-02  0.1259629E+00
         11   -1    0    0    0    0  0.00000000000E+00  0.00000000000E+00  0.30000000000E+02  0.30000000000E+02  0.00000000000E+00 0. -1.
        -11   -1    0    0    0    0 -0.00000000000E+00 -0.00000000000E+00 -0.30000000000E+02  0.30000000000E+02  0.00000000000E+00 0.  1.
         23    2    1    2    0    0  0.00000000000E+00  0.00000000000E+00  0.00000000000E+00  0.60000000000E+02  0.60000000000E+02 0.  0.
          5    1    3    3  501    0 -0.13436187292E+02  0.73167059009E+01 -0.25374094778E+02  0.30000000000E+02  0.47000000000E+01 0.  1.
         -5    1    3    3    0  501  0.13436187292E+02 -0.73167059009E+01  0.25374094778E+02  0.30000000000E+02  0.47000000000E+01 0. -1.
</event>
<event>
 5    1  0.7693226E-002  0.6000000E+02  0.7546771E-02  0.1259629E+00
         11   -1    0    0    0    0  0.00000000000E+00  0.00000000000E+00  0.30000000000E+02  0.30000000000E+02  0.00000000000E+00 0.  1.
        -11   -1    0    0    0    0 -0.00000000000E+00 -0.00000000000E+00 -0.30000000000E+02  0.30000000000E+02  0.00000000000E+00 0. -1.
         23    2    1    2    0    0  0.00000000000E+00  0.00000000000E+00  0.00000000000E+00  0.60000000000E+02  0.60000000000E+02 0.  0.
          5    1    3    3  501    0 -0.10243055134E+02  0.82970439391E+01 -0.26535803802E+02  0.30000000000E+02  0.47000000000E+01 0. -1.
         -5    1    3    3    0  501  0.10243055134E+02 -0.82970439391E+01  0.26535803802E+02  0.30000000000E+02  0.47000000000E+01 0.  1.
</event>
<event>
 5    1  0.7693226E-002  0.6000000E+02  0.7546771E-02  0.1259629E+00
         11   -1    0    0    0    0  0.00000000000E+00  0.00000000000E+00  0.30000000000E+02  0.30000000000E+02  0.00000000000E+00 0.  1.
        -11   -1    0    0    0    0 -0.00000000000E+00 -0.00000000000E+00 -0.30000000000E+02  0.30000000000E+02  0.00000000000E+00 0. -1.
         23    2    1    2    0    0  0.00000000000E+00  0.00000000000E+00  0.00000000000E+00  0.60000000000E+02  0.60000000000E+02 0.  0.
          5    1    3    3  501    0 -0.45818911274E+01  0.16067973608E+02 -0.24469092705E+02  0.30000000000E+02  0.47000000000E+01 0. -1.
         -5    1    3    3    0  501  0.45818911274E+01 -0.16067973608E+02  0.24469092705E+02  0.30000000000E+02  0.47000000000E+01 0.  1.
</event>
<event>
 5    1  0.7693226E-002  0.6000000E+02  0.7546771E-02  0.1259629E+00
         11   -1    0    0    0    0  0.00000000000E+00  0.00000000000E+00  0.30000000000E+02  0.30000000000E+02  0.00000000000E+00 0.  1.
        -11   -1    0    0    0    0 -0.00000000000E+00 -0.00000000000E+00 -0.30000000000E+02  0.30000000000E+02  0.00000000000E+00 0. -1.
         23    2    1    2    0    0  0.00000000000E+00  0.00000000000E+00  0.00000000000E+00  0.60000000000E+02  0.60000000000E+02 0.  0.
          5    1    3    3  501    0  0.20396286290E+02 -0.45990091483E+01 -0.20994061552E+02  0.30000000000E+02  0.47000000000E+01 0. -1.
         -5    1    3    3    0  501 -0.20396286290E+02  0.45990091483E+01  0.20994061552E+02  0.30000000000E+02  0.47000000000E+01 0.  1.
</event>
<event>
 5    1  0.7693226E-002  0.6000000E+02  0.7546771E-02  0.1259629E+00
         11   -1    0    0    0    0  0.00000000000E+00  0.00000000000E+00  0.30000000000E+02  0.30000000000E+02  0.00000000000E+00 0.  1.
        -11   -1    0    0    0    0 -0.00000000000E+00 -0.00000000000E+00 -0.30000000000E+02  0.30000000000E+02  0.00000000000E+00 0. -1.
         23    2    1    2    0    0  0.00000000000E+00  0.00000000000E+00  0.00000000000E+00  0.60000000000E+02  0.60000000000E+02 0.  0.
          5    1    3    3  501    0  0.14426071345E+02 -0.25229820611E+02 -0.57666816710E+01  0.30000000000E+02  0.47000000000E+01 0.  1.
         -5    1    3    3    0  501 -0.14426071345E+02  0.25229820611E+02  0.57666816710E+01  0.30000000000E+02  0.47000000000E+01 0. -1.
</event>
<event>
 5    1  0.7693226E-002  0.6000000E+02  0.7546771E-02  0.1259629E+00
         11   -1    0    0    0    0  0.00000000000E+00  0.00000000000E+00  0.30000000000E+02  0.30000000000E+02  0.00000000000E+00 0. -1.
        -11   -1    0    0    0    0 -0.00000000000E+00 -0.00000000000E+00 -0.30000000000E+02  0.30000000000E+02  0.00000000000E+00 0.  1.
         23    2    1    2    0    0  0.00000000000E+00  0.00000000000E+00  0.00000000000E+00  0.60000000000E+02  0.60000000000E+02 0.  0.
          5    1    3    3  501    0  0.27733860709E+02 -0.90635067512E+01 -0.51571131027E+01  0.30000000000E+02  0.47000000000E+01 0.  1.
         -5    1    3    3    0  501 -0.27733860709E+02  0.90635067512E+01  0.51571131027E+01  0.30000000000E+02  0.47000000000E+01 0. -1.
</event>
<event>
 5    1  0.7693226E-002  0.6000000E+02  0.7546771E-02  0.1259629E+00
         11   -1    0    0    0    0  0.00000000000E+00  0.00000000000E+00  0.30000000000E+02  0.30000000000E+02  0.00000000000E+00 0.  1.
        -11   -1    0    0    0    0 -0.00000000000E+00 -0.00000000000E+00 -0.30000000000E+02  0.30000000000E+02  0.00000000000E+00 0. -1.
         23    2    1    2    0    0  0.00000000000E+00  0.00000000000E+00  0.00000000000E+00  0.60000000000E+02  0.60000000000E+02 0.  0.
          5    1    3    3  501    0 -0.14263514436E+02  0.19974256070E+02 -0.16597929099E+02  0.30000000000E+02  0.47000000000E+01 0. -1.
         -5    1    3    3    0  501  0.14263514436E+02 -0.19974256070E+02  0.16597929099E+02  0.30000000000E+02  0.47000000000E+01 0.  1.
</event>
<event>
 5    1  0.7693226E-002  0.6000000E+02  0.7546771E-02  0.1259629E+00
         11   -1    0    0    0    0  0.00000000000E+00  0.00000000000E+00  0.30000000000E+02  0.30000000000E+02  0.00000000000E+00 0. -1.
        -11   -1    0    0    0    0 -0.00000000000E+00 -0.00000000000E+00 -0.30000000000E+02  0.30000000000E+02  0.00000000000E+00 0.  1.
         23    2    1    2    0    0  0.00000000000E+00  0.00000000000E+00  0.00000000000E+00  0.60000000000E+02  0.60000000000E+02 0.  0.
          5    1    3    3  501    0  0.15137707810E+02 -0.72897090448E+01 -0.24405326146E+02  0.30000000000E+02  0.47000000000E+01 0.  1.
         -5    1    3    3    0  501 -0.15137707810E+02  0.72897090448E+01  0.24405326146E+02  0.30000000000E+02  0.47000000000E+01 0. -1.
</event>
<event>
 5    1  0.7693226E-002  0.6000000E+02  0.7546771E-02  0.1259629E+00
         11   -1    0    0    0    0  0.00000000000E+00  0.00000000000E+00  0.30000000000E+02  0.30000000000E+02  0.00000000000E+00 0.  1.
        -11   -1    0    0    0    0 -0.00000000000E+00 -0.00000000000E+00 -0.30000000000E+02  0.30000000000E+02  0.00000000000E+00 0. -1.
         23    2    1    2    0    0  0.00000000000E+00  0.00000000000E+00  0.00000000000E+00  0.60000000000E+02  0.60000000000E+02 0.  0.
          5    1    3    3  501    0  0.23084289880E+02 -0.16295524864E+02 -0.89152358418E+01  0.30000000000E+02  0.47000000000E+01 0. -1.
         -5    1    3    3    0  501 -0.23084289880E+02  0.16295524864E+02  0.89152358418E+01  0.30000000000E+02  0.47000000000E+01 0.  1.
</event>
<event>
 5    1  0.7693226E-002  0.6000000E+02  0.7546771E-02  0.1259629E+00
         11   -1    0    0    0    0  0.00000000000E+00  0.00000000000E+00  0.30000000000E+02  0.30000000000E+02  0.00000000000E+00 0.  1.
        -11   -1    0    0    0    0 -0.00000000000E+00 -0.00000000000E+00 -0.30000000000E+02  0.30000000000E+02  0.00000000000E+00 0. -1.
         23    2    1    2    0    0  0.00000000000E+00  0.00000000000E+00  0.00000000000E+00  0.60000000000E+02  0.60000000000E+02 0.  0.
          5    1    3    3  501    0 -0.29562291086E+02  0.12655145637E+01  0.15425364221E+01  0.30000000000E+02  0.47000000000E+01 0. -1.
         -5    1    3    3    0  501  0.29562291086E+02 -0.12655145637E+01 -0.15425364221E+01  0.30000000000E+02  0.47000000000E+01 0.  1.
</event>
<event>
 5    1  0.7693226E-002  0.6000000E+02  0.7546771E-02  0.1259629E+00
         11   -1    0    0    0    0  0.00000000000E+00  0.00000000000E+00  0.30000000000E+02  0.30000000000E+02  0.00000000000E+00 0.  1.
        -11   -1    0    0    0    0 -0.00000000000E+00 -0.00000000000E+00 -0.30000000000E+02  0.30000000000E+02  0.00000000000E+00 0. -1.
         23    2    1    2    0    0  0.00000000000E+00  0.00000000000E+00  0.00000000000E+00  0.60000000000E+02  0.60000000000E+02 0.  0.
          5    1    3    3  501    0  0.27823655257E+02  0.10051223178E+02  0.16513996272E+01  0.30000000000E+02  0.47000000000E+01 0.  1.
         -5    1    3    3    0  501 -0.27823655257E+02 -0.10051223178E+02 -0.16513996272E+01  0.30000000000E+02  0.47000000000E+01 0. -1.
</event>
<event>
 5    1  0.7693226E-002  0.6000000E+02  0.7546771E-02  0.1259629E+00
         11   -1    0    0    0    0  0.00000000000E+00  0.00000000000E+00  0.30000000000E+02  0.30000000000E+02  0.00000000000E+00 0.  1.
        -11   -1    0    0    0    0 -0.00000000000E+00 -0.00000000000E+00 -0.30000000000E+02  0.30000000000E+02  0.00000000000E+00 0. -1.
         23    2    1    2    0    0  0.00000000000E+00  0.00000000000E+00  0.00000000000E+00  0.60000000000E+02  0.60000000000E+02 0.  0.
          5    1    3    3  501    0  0.91652317278E+01 -0.17690303708E+00 -0.28175827099E+02  0.30000000000E+02  0.47000000000E+01 0. -1.
         -5    1    3    3    0  501 -0.91652317278E+01  0.17690303708E+00  0.28175827099E+02  0.30000000000E+02  0.47000000000E+01 0.  1.
</event>
<event>
 5    1  0.7693226E-002  0.6000000E+02  0.7546771E-02  0.1259629E+00
         11   -1    0    0    0    0  0.00000000000E+00  0.00000000000E+00  0.30000000000E+02  0.30000000000E+02  0.00000000000E+00 0.  1.
        -11   -1    0    0    0    0 -0.00000000000E+00 -0.00000000000E+00 -0.30000000000E+02  0.30000000000E+02  0.00000000000E+00 0. -1.
         23    2    1    2    0    0  0.00000000000E+00  0.00000000000E+00  0.00000000000E+00  0.60000000000E+02  0.60000000000E+02 0.  0.
          5    1    3    3  501    0 -0.28000134305E+02  0.77766907421E+01  0.57814842406E+01  0.30000000000E+02  0.47000000000E+01 0. -1.
         -5    1    3    3    0  501  0.28000134305E+02 -0.77766907421E+01 -0.57814842406E+01  0.30000000000E+02  0.47000000000E+01 0.  1.
</event>
<event>
 5    1  0.7693226E-002  0.6000000E+02  0.7546771E-02  0.1259629E+00
         11   -1    0    0    0    0  0.00000000000E+00  0.00000000000E+00  0.30000000000E+02  0.30000000000E+02  0.00000000000E+00 0.  1.
        -11   -1    0    0    0    0 -0.00000000000E+00 -0.00000000000E+00 -0.30000000000E+02  0.30000000000E+02  0.00000000000E+00 0. -1.
         23    2    1    2    0    0  0.00000000000E+00  0.00000000000E+00  0.00000000000E+00  0.60000000000E+02  0.60000000000E+02 0.  0.
          5    1    3    3  501    0  0.28900473143E+02  0.47341984045E+01 -0.45011129256E+01  0.30000000000E+02  0.47000000000E+01 0. -1.
         -5    1    3    3    0  501 -0.28900473143E+02 -0.47341984045E+01  0.45011129256E+01  0.30000000000E+02  0.47000000000E+01 0.  1.
</event>
<event>
 5    1  0.7693226E-002  0.6000000E+02  0.7546771E-02  0.1259629E+00
         11   -1    0    0    0    0  0.00000000000E+00  0.00000000000E+00  0.30000000000E+02  0.30000000000E+02  0.00000000000E+00 0.  1.
        -11   -1    0    0    0    0 -0.00000000000E+00 -0.00000000000E+00 -0.30000000000E+02  0.30000000000E+02  0.00000000000E+00 0. -1.
         23    2    1    2    0    0  0.00000000000E+00  0.00000000000E+00  0.00000000000E+00  0.60000000000E+02  0.60000000000E+02 0.  0.
          5    1    3    3  501    0  0.24856390706E+01  0.23121173937E+02 -0.18361451854E+02  0.30000000000E+02  0.47000000000E+01 0. -1.
         -5    1    3    3    0  501 -0.24856390706E+01 -0.23121173937E+02  0.18361451854E+02  0.30000000000E+02  0.47000000000E+01 0.  1.
</event>
<event>
 5    1  0.7693226E-002  0.6000000E+02  0.7546771E-02  0.1259629E+00
         11   -1    0    0    0    0  0.00000000000E+00  0.00000000000E+00  0.30000000000E+02  0.30000000000E+02  0.00000000000E+00 0.  1.
        -11   -1    0    0    0    0 -0.00000000000E+00 -0.00000000000E+00 -0.30000000000E+02  0.30000000000E+02  0.00000000000E+00 0. -1.
         23    2    1    2    0    0  0.00000000000E+00  0.00000000000E+00  0.00000000000E+00  0.60000000000E+02  0.60000000000E+02 0.  0.
          5    1    3    3  501    0 -0.21723668199E+02 -0.20147449823E+02  0.26926867929E+00  0.30000000000E+02  0.47000000000E+01 0. -1.
         -5    1    3    3    0  501  0.21723668199E+02  0.20147449823E+02 -0.26926867929E+00  0.30000000000E+02  0.47000000000E+01 0.  1.
</event>
<event>
 5    1  0.7693226E-002  0.6000000E+02  0.7546771E-02  0.1259629E+00
         11   -1    0    0    0    0  0.00000000000E+00  0.00000000000E+00  0.30000000000E+02  0.30000000000E+02  0.00000000000E+00 0.  1.
        -11   -1    0    0    0    0 -0.00000000000E+00 -0.00000000000E+00 -0.30000000000E+02  0.30000000000E+02  0.00000000000E+00 0. -1.
         23    2    1    2    0    0  0.00000000000E+00  0.00000000000E+00  0.00000000000E+00  0.60000000000E+02  0.60000000000E+02 0.  0.
          5    1    3    3  501    0 -0.26371790356E+01  0.10306650515E+02 -0.27653720218E+02  0.30000000000E+02  0.47000000000E+01 0. -1.
         -5    1    3    3    0  501  0.26371790356E+01 -0.10306650515E+02  0.27653720218E+02  0.30000000000E+02  0.47000000000E+01 0.  1.
</event>
<event>
 5    1  0.7693226E-002  0.6000000E+02  0.7546771E-02  0.1259629E+00
         11   -1    0    0    0    0  0.00000000000E+00  0.00000000000E+00  0.30000000000E+02  0.30000000000E+02  0.00000000000E+00 0.  1.
        -11   -1    0    0    0    0 -0.00000000000E+00 -0.00000000000E+00 -0.30000000000E+02  0.30000000000E+02  0.00000000000E+00 0. -1.
         23    2    1    2    0    0  0.00000000000E+00  0.00000000000E+00  0.00000000000E+00  0.60000000000E+02  0.60000000000E+02 0.  0.
          5    1    3    3  501    0 -0.22435253999E+02  0.59591057695E+01 -0.18413539487E+02  0.30000000000E+02  0.47000000000E+01 0. -1.
         -5    1    3    3    0  501  0.22435253999E+02 -0.59591057695E+01  0.18413539487E+02  0.30000000000E+02  0.47000000000E+01 0.  1.
</event>
<event>
 5    1  0.7693226E-002  0.6000000E+02  0.7546771E-02  0.1259629E+00
         11   -1    0    0    0    0  0.00000000000E+00  0.00000000000E+00  0.30000000000E+02  0.30000000000E+02  0.00000000000E+00 0.  1.
        -11   -1    0    0    0    0 -0.00000000000E+00 -0.00000000000E+00 -0.30000000000E+02  0.30000000000E+02  0.00000000000E+00 0. -1.
         23    2    1    2    0    0  0.00000000000E+00  0.00000000000E+00  0.00000000000E+00  0.60000000000E+02  0.60000000000E+02 0.  0.
          5    1    3    3  501    0  0.22856944370E+02  0.21173583211E+00 -0.18852725585E+02  0.30000000000E+02  0.47000000000E+01 0. -1.
         -5    1    3    3    0  501 -0.22856944370E+02 -0.21173583211E+00  0.18852725585E+02  0.30000000000E+02  0.47000000000E+01 0.  1.
</event>
<event>
 5    1  0.7693226E-002  0.6000000E+02  0.7546771E-02  0.1259629E+00
         11   -1    0    0    0    0  0.00000000000E+00  0.00000000000E+00  0.30000000000E+02  0.30000000000E+02  0.00000000000E+00 0.  1.
        -11   -1    0    0    0    0 -0.00000000000E+00 -0.00000000000E+00 -0.30000000000E+02  0.30000000000E+02  0.00000000000E+00 0. -1.
         23    2    1    2    0    0  0.00000000000E+00  0.00000000000E+00  0.00000000000E+00  0.60000000000E+02  0.60000000000E+02 0.  0.
          5    1    3    3  501    0 -0.53587959025E+01  0.23309789657E+01 -0.29047544535E+02  0.30000000000E+02  0.47000000000E+01 0. -1.
         -5    1    3    3    0  501  0.53587959025E+01 -0.23309789657E+01  0.29047544535E+02  0.30000000000E+02  0.47000000000E+01 0.  1.
</event>
<event>
 5    1  0.7693226E-002  0.6000000E+02  0.7546771E-02  0.1259629E+00
         11   -1    0    0    0    0  0.00000000000E+00  0.00000000000E+00  0.30000000000E+02  0.30000000000E+02  0.00000000000E+00 0.  1.
        -11   -1    0    0    0    0 -0.00000000000E+00 -0.00000000000E+00 -0.30000000000E+02  0.30000000000E+02  0.00000000000E+00 0. -1.
         23    2    1    2    0    0  0.00000000000E+00  0.00000000000E+00  0.00000000000E+00  0.60000000000E+02  0.60000000000E+02 0.  0.
          5    1    3    3  501    0  0.11941248526E+02 -0.26978162507E+02 -0.27377602881E+01  0.30000000000E+02  0.47000000000E+01 0. -1.
         -5    1    3    3    0  501 -0.11941248526E+02  0.26978162507E+02  0.27377602881E+01  0.30000000000E+02  0.47000000000E+01 0.  1.
</event>
<event>
 5    1  0.7693226E-002  0.6000000E+02  0.7546771E-02  0.1259629E+00
         11   -1    0    0    0    0  0.00000000000E+00  0.00000000000E+00  0.30000000000E+02  0.30000000000E+02  0.00000000000E+00 0.  1.
        -11   -1    0    0    0    0 -0.00000000000E+00 -0.00000000000E+00 -0.30000000000E+02  0.30000000000E+02  0.00000000000E+00 0. -1.
         23    2    1    2    0    0  0.00000000000E+00  0.00000000000E+00  0.00000000000E+00  0.60000000000E+02  0.60000000000E+02 0.  0.
          5    1    3    3  501    0  0.78860204504E+01  0.11130210330E+02  0.26302834438E+02  0.30000000000E+02  0.47000000000E+01 0.  1.
         -5    1    3    3    0  501 -0.78860204504E+01 -0.11130210330E+02 -0.26302834438E+02  0.30000000000E+02  0.47000000000E+01 0. -1.
</event>
<event>
 5    1  0.7693226E-002  0.6000000E+02  0.7546771E-02  0.1259629E+00
         11   -1    0    0    0    0  0.00000000000E+00  0.00000000000E+00  0.30000000000E+02  0.30000000000E+02  0.00000000000E+00 0.  1.
        -11   -1    0    0    0    0 -0.00000000000E+00 -0.00000000000E+00 -0.30000000000E+02  0.30000000000E+02  0.00000000000E+00 0. -1.
         23    2    1    2    0    0  0.00000000000E+00  0.00000000000E+00  0.00000000000E+00  0.60000000000E+02  0.60000000000E+02 0.  0.
          5    1    3    3  501    0 -0.27379483601E+01  0.29198087272E+02  0.42291061044E+01  0.30000000000E+02  0.47000000000E+01 0. -1.
         -5    1    3    3    0  501  0.27379483601E+01 -0.29198087272E+02 -0.42291061044E+01  0.30000000000E+02  0.47000000000E+01 0.  1.
</event>
<event>
 5    1  0.7693226E-002  0.6000000E+02  0.7546771E-02  0.1259629E+00
         11   -1    0    0    0    0  0.00000000000E+00  0.00000000000E+00  0.30000000000E+02  0.30000000000E+02  0.00000000000E+00 0.  1.
        -11   -1    0    0    0    0 -0.00000000000E+00 -0.00000000000E+00 -0.30000000000E+02  0.30000000000E+02  0.00000000000E+00 0. -1.
         23    2    1    2    0    0  0.00000000000E+00  0.00000000000E+00  0.00000000000E+00  0.60000000000E+02  0.60000000000E+02 0.  0.
          5    1    3    3  501    0 -0.58127438258E+01 -0.23686228089E+02 -0.16825118369E+02  0.30000000000E+02  0.47000000000E+01 0. -1.
         -5    1    3    3    0  501  0.58127438258E+01  0.23686228089E+02  0.16825118369E+02  0.30000000000E+02  0.47000000000E+01 0.  1.
</event>
<event>
 5    1  0.7693226E-002  0.6000000E+02  0.7546771E-02  0.1259629E+00
         11   -1    0    0    0    0  0.00000000000E+00  0.00000000000E+00  0.30000000000E+02  0.30000000000E+02  0.00000000000E+00 0.  1.
        -11   -1    0    0    0    0 -0.00000000000E+00 -0.00000000000E+00 -0.30000000000E+02  0.30000000000E+02  0.00000000000E+00 0. -1.
         23    2    1    2    0    0  0.00000000000E+00  0.00000000000E+00  0.00000000000E+00  0.60000000000E+02  0.60000000000E+02 0.  0.
          5    1    3    3  501    0 -0.10302771500E+02 -0.22107557282E+02 -0.16823162915E+02  0.30000000000E+02  0.47000000000E+01 0. -1.
         -5    1    3    3    0  501  0.10302771500E+02  0.22107557282E+02  0.16823162915E+02  0.30000000000E+02  0.47000000000E+01 0.  1.
</event>
<event>
 5    1  0.7693226E-002  0.6000000E+02  0.7546771E-02  0.1259629E+00
         11   -1    0    0    0    0  0.00000000000E+00  0.00000000000E+00  0.30000000000E+02  0.30000000000E+02  0.00000000000E+00 0.  1.
        -11   -1    0    0    0    0 -0.00000000000E+00 -0.00000000000E+00 -0.30000000000E+02  0.30000000000E+02  0.00000000000E+00 0. -1.
         23    2    1    2    0    0  0.00000000000E+00  0.00000000000E+00  0.00000000000E+00  0.60000000000E+02  0.60000000000E+02 0.  0.
          5    1    3    3  501    0 -0.34979092700E+01 -0.26420833372E+02 -0.12946590078E+02  0.30000000000E+02  0.47000000000E+01 0. -1.
         -5    1    3    3    0  501  0.34979092700E+01  0.26420833372E+02  0.12946590078E+02  0.30000000000E+02  0.47000000000E+01 0.  1.
</event>
<event>
 5    1  0.7693226E-002  0.6000000E+02  0.7546771E-02  0.1259629E+00
         11   -1    0    0    0    0  0.00000000000E+00  0.00000000000E+00  0.30000000000E+02  0.30000000000E+02  0.00000000000E+00 0.  1.
        -11   -1    0    0    0    0 -0.00000000000E+00 -0.00000000000E+00 -0.30000000000E+02  0.30000000000E+02  0.00000000000E+00 0. -1.
         23    2    1    2    0    0  0.00000000000E+00  0.00000000000E+00  0.00000000000E+00  0.60000000000E+02  0.60000000000E+02 0.  0.
          5    1    3    3  501    0  0.13999941159E+00 -0.29537780589E+02 -0.23259230567E+01  0.30000000000E+02  0.47000000000E+01 0. -1.
         -5    1    3    3    0  501 -0.13999941159E+00  0.29537780589E+02  0.23259230567E+01  0.30000000000E+02  0.47000000000E+01 0.  1.
</event>
<event>
 5    1  0.7693226E-002  0.6000000E+02  0.7546771E-02  0.1259629E+00
         11   -1    0    0    0    0  0.00000000000E+00  0.00000000000E+00  0.30000000000E+02  0.30000000000E+02  0.00000000000E+00 0.  1.
        -11   -1    0    0    0    0 -0.00000000000E+00 -0.00000000000E+00 -0.30000000000E+02  0.30000000000E+02  0.00000000000E+00 0. -1.
         23    2    1    2    0    0  0.00000000000E+00  0.00000000000E+00  0.00000000000E+00  0.60000000000E+02  0.60000000000E+02 0.  0.
          5    1    3    3  501    0  0.85337921265E+01 -0.28312546159E+02  0.18665802848E+01  0.30000000000E+02  0.47000000000E+01 0. -1.
         -5    1    3    3    0  501 -0.85337921265E+01  0.28312546159E+02 -0.18665802848E+01  0.30000000000E+02  0.47000000000E+01 0.  1.
</event>
<event>
 5    1  0.7693226E-002  0.6000000E+02  0.7546771E-02  0.1259629E+00
         11   -1    0    0    0    0  0.00000000000E+00  0.00000000000E+00  0.30000000000E+02  0.30000000000E+02  0.00000000000E+00 0.  1.
        -11   -1    0    0    0    0 -0.00000000000E+00 -0.00000000000E+00 -0.30000000000E+02  0.30000000000E+02  0.00000000000E+00 0. -1.
         23    2    1    2    0    0  0.00000000000E+00  0.00000000000E+00  0.00000000000E+00  0.60000000000E+02  0.60000000000E+02 0.  0.
          5    1    3    3  501    0 -0.49935828265E+01  0.26808985574E+02 -0.11586734788E+02  0.30000000000E+02  0.47000000000E+01 0. -1.
         -5    1    3    3    0  501  0.49935828265E+01 -0.26808985574E+02  0.11586734788E+02  0.30000000000E+02  0.47000000000E+01 0.  1.
</event>
<event>
 5    1  0.7693226E-002  0.6000000E+02  0.7546771E-02  0.1259629E+00
         11   -1    0    0    0    0  0.00000000000E+00  0.00000000000E+00  0.30000000000E+02  0.30000000000E+02  0.00000000000E+00 0. -1.
        -11   -1    0    0    0    0 -0.00000000000E+00 -0.00000000000E+00 -0.30000000000E+02  0.30000000000E+02  0.00000000000E+00 0.  1.
         23    2    1    2    0    0  0.00000000000E+00  0.00000000000E+00  0.00000000000E+00  0.60000000000E+02  0.60000000000E+02 0.  0.
          5    1    3    3  501    0  0.22894620184E+02  0.14919318321E+02 -0.11452524065E+02  0.30000000000E+02  0.47000000000E+01 0.  1.
         -5    1    3    3    0  501 -0.22894620184E+02 -0.14919318321E+02  0.11452524065E+02  0.30000000000E+02  0.47000000000E+01 0. -1.
</event>
<event>
 5    1  0.7693226E-002  0.6000000E+02  0.7546771E-02  0.1259629E+00
         11   -1    0    0    0    0  0.00000000000E+00  0.00000000000E+00  0.30000000000E+02  0.30000000000E+02  0.00000000000E+00 0. -1.
        -11   -1    0    0    0    0 -0.00000000000E+00 -0.00000000000E+00 -0.30000000000E+02  0.30000000000E+02  0.00000000000E+00 0.  1.
         23    2    1    2    0    0  0.00000000000E+00  0.00000000000E+00  0.00000000000E+00  0.60000000000E+02  0.60000000000E+02 0.  0.
          5    1    3    3  501    0 -0.23421752877E+02 -0.14079783103E+01 -0.18092791085E+02  0.30000000000E+02  0.47000000000E+01 0.  1.
         -5    1    3    3    0  501  0.23421752877E+02  0.14079783103E+01  0.18092791085E+02  0.30000000000E+02  0.47000000000E+01 0. -1.
</event>
<event>
 5    1  0.7693226E-002  0.6000000E+02  0.7546771E-02  0.1259629E+00
         11   -1    0    0    0    0  0.00000000000E+00  0.00000000000E+00  0.30000000000E+02  0.30000000000E+02  0.00000000000E+00 0. -1.
        -11   -1    0    0    0    0 -0.00000000000E+00 -0.00000000000E+00 -0.30000000000E+02  0.30000000000E+02  0.00000000000E+00 0.  1.
         23    2    1    2    0    0  0.00000000000E+00  0.00000000000E+00  0.00000000000E+00  0.60000000000E+02  0.60000000000E+02 0.  0.
          5    1    3    3  501    0  0.43341420982E+01 -0.32248892052E+01  0.29132890380E+02  0.30000000000E+02  0.47000000000E+01 0. -1.
         -5    1    3    3    0  501 -0.43341420982E+01  0.32248892052E+01 -0.29132890380E+02  0.30000000000E+02  0.47000000000E+01 0.  1.
</event>
<event>
 5    1  0.7693226E-002  0.6000000E+02  0.7546771E-02  0.1259629E+00
         11   -1    0    0    0    0  0.00000000000E+00  0.00000000000E+00  0.30000000000E+02  0.30000000000E+02  0.00000000000E+00 0.  1.
        -11   -1    0    0    0    0 -0.00000000000E+00 -0.00000000000E+00 -0.30000000000E+02  0.30000000000E+02  0.00000000000E+00 0. -1.
         23    2    1    2    0    0  0.00000000000E+00  0.00000000000E+00  0.00000000000E+00  0.60000000000E+02  0.60000000000E+02 0.  0.
          5    1    3    3  501    0  0.13510473132E+02 -0.21157202951E+02  0.15740072397E+02  0.30000000000E+02  0.47000000000E+01 0. -1.
         -5    1    3    3    0  501 -0.13510473132E+02  0.21157202951E+02 -0.15740072397E+02  0.30000000000E+02  0.47000000000E+01 0.  1.
</event>
<event>
 5    1  0.7693226E-002  0.6000000E+02  0.7546771E-02  0.1259629E+00
         11   -1    0    0    0    0  0.00000000000E+00  0.00000000000E+00  0.30000000000E+02  0.30000000000E+02  0.00000000000E+00 0.  1.
        -11   -1    0    0    0    0 -0.00000000000E+00 -0.00000000000E+00 -0.30000000000E+02  0.30000000000E+02  0.00000000000E+00 0. -1.
         23    2    1    2    0    0  0.00000000000E+00  0.00000000000E+00  0.00000000000E+00  0.60000000000E+02  0.60000000000E+02 0.  0.
          5    1    3    3  501    0  0.23496757750E+02  0.11026620023E+02 -0.14290767162E+02  0.30000000000E+02  0.47000000000E+01 0. -1.
         -5    1    3    3    0  501 -0.23496757750E+02 -0.11026620023E+02  0.14290767162E+02  0.30000000000E+02  0.47000000000E+01 0.  1.
</event>
<event>
 5    1  0.7693226E-002  0.6000000E+02  0.7546771E-02  0.1259629E+00
         11   -1    0    0    0    0  0.00000000000E+00  0.00000000000E+00  0.30000000000E+02  0.30000000000E+02  0.00000000000E+00 0.  1.
        -11   -1    0    0    0    0 -0.00000000000E+00 -0.00000000000E+00 -0.30000000000E+02  0.30000000000E+02  0.00000000000E+00 0. -1.
         23    2    1    2    0    0  0.00000000000E+00  0.00000000000E+00  0.00000000000E+00  0.60000000000E+02  0.60000000000E+02 0.  0.
          5    1    3    3  501    0  0.26506982996E+02  0.94100929291E+01 -0.93134313497E+01  0.30000000000E+02  0.47000000000E+01 0. -1.
         -5    1    3    3    0  501 -0.26506982996E+02 -0.94100929291E+01  0.93134313497E+01  0.30000000000E+02  0.47000000000E+01 0.  1.
</event>
<event>
 5    1  0.7693226E-002  0.6000000E+02  0.7546771E-02  0.1259629E+00
         11   -1    0    0    0    0  0.00000000000E+00  0.00000000000E+00  0.30000000000E+02  0.30000000000E+02  0.00000000000E+00 0. -1.
        -11   -1    0    0    0    0 -0.00000000000E+00 -0.00000000000E+00 -0.30000000000E+02  0.30000000000E+02  0.00000000000E+00 0.  1.
         23    2    1    2    0    0  0.00000000000E+00  0.00000000000E+00  0.00000000000E+00  0.60000000000E+02  0.60000000000E+02 0.  0.
          5    1    3    3  501    0 -0.74154650677E+01  0.21426958263E+01 -0.28606463123E+02  0.30000000000E+02  0.47000000000E+01 0.  1.
         -5    1    3    3    0  501  0.74154650677E+01 -0.21426958263E+01  0.28606463123E+02  0.30000000000E+02  0.47000000000E+01 0. -1.
</event>
<event>
 5    1  0.7693226E-002  0.6000000E+02  0.7546771E-02  0.1259629E+00
         11   -1    0    0    0    0  0.00000000000E+00  0.00000000000E+00  0.30000000000E+02  0.30000000000E+02  0.00000000000E+00 0.  1.
        -11   -1    0    0    0    0 -0.00000000000E+00 -0.00000000000E+00 -0.30000000000E+02  0.30000000000E+02  0.00000000000E+00 0. -1.
         23    2    1    2    0    0  0.00000000000E+00  0.00000000000E+00  0.00000000000E+00  0.60000000000E+02  0.60000000000E+02 0.  0.
          5    1    3    3  501    0 -0.55498207282E+01  0.17635114675E+02 -0.23154097268E+02  0.30000000000E+02  0.47000000000E+01 0. -1.
         -5    1    3    3    0  501  0.55498207282E+01 -0.17635114675E+02  0.23154097268E+02  0.30000000000E+02  0.47000000000E+01 0.  1.
</event>
<event>
 5    1  0.7693226E-002  0.6000000E+02  0.7546771E-02  0.1259629E+00
         11   -1    0    0    0    0  0.00000000000E+00  0.00000000000E+00  0.30000000000E+02  0.30000000000E+02  0.00000000000E+00 0. -1.
        -11   -1    0    0    0    0 -0.00000000000E+00 -0.00000000000E+00 -0.30000000000E+02  0.30000000000E+02  0.00000000000E+00 0.  1.
         23    2    1    2    0    0  0.00000000000E+00  0.00000000000E+00  0.00000000000E+00  0.60000000000E+02  0.60000000000E+02 0.  0.
          5    1    3    3  501    0  0.40844288267E+00 -0.20079217118E+02 -0.21784586623E+02  0.30000000000E+02  0.47000000000E+01 0.  1.
         -5    1    3    3    0  501 -0.40844288267E+00  0.20079217118E+02  0.21784586623E+02  0.30000000000E+02  0.47000000000E+01 0. -1.
</event>
<event>
 5    1  0.7693226E-002  0.6000000E+02  0.7546771E-02  0.1259629E+00
         11   -1    0    0    0    0  0.00000000000E+00  0.00000000000E+00  0.30000000000E+02  0.30000000000E+02  0.00000000000E+00 0.  1.
        -11   -1    0    0    0    0 -0.00000000000E+00 -0.00000000000E+00 -0.30000000000E+02  0.30000000000E+02  0.00000000000E+00 0. -1.
         23    2    1    2    0    0  0.00000000000E+00  0.00000000000E+00  0.00000000000E+00  0.60000000000E+02  0.60000000000E+02 0.  0.
          5    1    3    3  501    0  0.25039339519E+02  0.89261040311E+01 -0.13086869116E+02  0.30000000000E+02  0.47000000000E+01 0. -1.
         -5    1    3    3    0  501 -0.25039339519E+02 -0.89261040311E+01  0.13086869116E+02  0.30000000000E+02  0.47000000000E+01 0.  1.
</event>
<event>
 5    1  0.7693226E-002  0.6000000E+02  0.7546771E-02  0.1259629E+00
         11   -1    0    0    0    0  0.00000000000E+00  0.00000000000E+00  0.30000000000E+02  0.30000000000E+02  0.00000000000E+00 0.  1.
        -11   -1    0    0    0    0 -0.00000000000E+00 -0.00000000000E+00 -0.30000000000E+02  0.30000000000E+02  0.00000000000E+00 0. -1.
         23    2    1    2    0    0  0.00000000000E+00  0.00000000000E+00  0.00000000000E+00  0.60000000000E+02  0.60000000000E+02 0.  0.
          5    1    3    3  501    0 -0.23914278499E+02  0.55134831885E+01  0.16601770598E+02  0.30000000000E+02  0.47000000000E+01 0.  1.
         -5    1    3    3    0  501  0.23914278499E+02 -0.55134831885E+01 -0.16601770598E+02  0.30000000000E+02  0.47000000000E+01 0. -1.
</event>
<event>
 5    1  0.7693226E-002  0.6000000E+02  0.7546771E-02  0.1259629E+00
         11   -1    0    0    0    0  0.00000000000E+00  0.00000000000E+00  0.30000000000E+02  0.30000000000E+02  0.00000000000E+00 0.  1.
        -11   -1    0    0    0    0 -0.00000000000E+00 -0.00000000000E+00 -0.30000000000E+02  0.30000000000E+02  0.00000000000E+00 0. -1.
         23    2    1    2    0    0  0.00000000000E+00  0.00000000000E+00  0.00000000000E+00  0.60000000000E+02  0.60000000000E+02 0.  0.
          5    1    3    3  501    0  0.82193098491E+01 -0.23530755840E+02 -0.16020501714E+02  0.30000000000E+02  0.47000000000E+01 0. -1.
         -5    1    3    3    0  501 -0.82193098491E+01  0.23530755840E+02  0.16020501714E+02  0.30000000000E+02  0.47000000000E+01 0.  1.
</event>
<event>
 5    1  0.7693226E-002  0.6000000E+02  0.7546771E-02  0.1259629E+00
         11   -1    0    0    0    0  0.00000000000E+00  0.00000000000E+00  0.30000000000E+02  0.30000000000E+02  0.00000000000E+00 0.  1.
        -11   -1    0    0    0    0 -0.00000000000E+00 -0.00000000000E+00 -0.30000000000E+02  0.30000000000E+02  0.00000000000E+00 0. -1.
         23    2    1    2    0    0  0.00000000000E+00  0.00000000000E+00  0.00000000000E+00  0.60000000000E+02  0.60000000000E+02 0.  0.
          5    1    3    3  501    0 -0.18092396064E+02  0.71355973804E+01 -0.22353041285E+02  0.30000000000E+02  0.47000000000E+01 0. -1.
         -5    1    3    3    0  501  0.18092396064E+02 -0.71355973804E+01  0.22353041285E+02  0.30000000000E+02  0.47000000000E+01 0.  1.
</event>
<event>
 5    1  0.7693226E-002  0.6000000E+02  0.7546771E-02  0.1259629E+00
         11   -1    0    0    0    0  0.00000000000E+00  0.00000000000E+00  0.30000000000E+02  0.30000000000E+02  0.00000000000E+00 0.  1.
        -11   -1    0    0    0    0 -0.00000000000E+00 -0.00000000000E+00 -0.30000000000E+02  0.30000000000E+02  0.00000000000E+00 0. -1.
         23    2    1    2    0    0  0.00000000000E+00  0.00000000000E+00  0.00000000000E+00  0.60000000000E+02  0.60000000000E+02 0.  0.
          5    1    3    3  501    0 -0.76641984691E+01 -0.59332205365E+00  0.28614996606E+02  0.30000000000E+02  0.47000000000E+01 0.  1.
         -5    1    3    3    0  501  0.76641984691E+01  0.59332205365E+00 -0.28614996606E+02  0.30000000000E+02  0.47000000000E+01 0. -1.
</event>
<event>
 5    1  0.7693226E-002  0.6000000E+02  0.7546771E-02  0.1259629E+00
         11   -1    0    0    0    0  0.00000000000E+00  0.00000000000E+00  0.30000000000E+02  0.30000000000E+02  0.00000000000E+00 0. -1.
        -11   -1    0    0    0    0 -0.00000000000E+00 -0.00000000000E+00 -0.30000000000E+02  0.30000000000E+02  0.00000000000E+00 0.  1.
         23    2    1    2    0    0  0.00000000000E+00  0.00000000000E+00  0.00000000000E+00  0.60000000000E+02  0.60000000000E+02 0.  0.
          5    1    3    3  501    0  0.93847909026E+01 -0.51015551208E+01 -0.27637109745E+02  0.30000000000E+02  0.47000000000E+01 0.  1.
         -5    1    3    3    0  501 -0.93847909026E+01  0.51015551208E+01  0.27637109745E+02  0.30000000000E+02  0.47000000000E+01 0. -1.
</event>
<event>
 5    1  0.7693226E-002  0.6000000E+02  0.7546771E-02  0.1259629E+00
         11   -1    0    0    0    0  0.00000000000E+00  0.00000000000E+00  0.30000000000E+02  0.30000000000E+02  0.00000000000E+00 0. -1.
        -11   -1    0    0    0    0 -0.00000000000E+00 -0.00000000000E+00 -0.30000000000E+02  0.30000000000E+02  0.00000000000E+00 0.  1.
         23    2    1    2    0    0  0.00000000000E+00  0.00000000000E+00  0.00000000000E+00  0.60000000000E+02  0.60000000000E+02 0.  0.
          5    1    3    3  501    0 -0.25055703896E+02 -0.14399129282E+02 -0.65411603096E+01  0.30000000000E+02  0.47000000000E+01 0.  1.
         -5    1    3    3    0  501  0.25055703896E+02  0.14399129282E+02  0.65411603096E+01  0.30000000000E+02  0.47000000000E+01 0. -1.
</event>
<event>
 5    1  0.7693226E-002  0.6000000E+02  0.7546771E-02  0.1259629E+00
         11   -1    0    0    0    0  0.00000000000E+00  0.00000000000E+00  0.30000000000E+02  0.30000000000E+02  0.00000000000E+00 0.  1.
        -11   -1    0    0    0    0 -0.00000000000E+00 -0.00000000000E+00 -0.30000000000E+02  0.30000000000E+02  0.00000000000E+00 0. -1.
         23    2    1    2    0    0  0.00000000000E+00  0.00000000000E+00  0.00000000000E+00  0.60000000000E+02  0.60000000000E+02 0.  0.
          5    1    3    3  501    0 -0.16970006244E+02 -0.13247359732E+02 -0.20357709798E+02  0.30000000000E+02  0.47000000000E+01 0. -1.
         -5    1    3    3    0  501  0.16970006244E+02  0.13247359732E+02  0.20357709798E+02  0.30000000000E+02  0.47000000000E+01 0.  1.
</event>
<event>
 5    1  0.7693226E-002  0.6000000E+02  0.7546771E-02  0.1259629E+00
         11   -1    0    0    0    0  0.00000000000E+00  0.00000000000E+00  0.30000000000E+02  0.30000000000E+02  0.00000000000E+00 0. -1.
        -11   -1    0    0    0    0 -0.00000000000E+00 -0.00000000000E+00 -0.30000000000E+02  0.30000000000E+02  0.00000000000E+00 0.  1.
         23    2    1    2    0    0  0.00000000000E+00  0.00000000000E+00  0.00000000000E+00  0.60000000000E+02  0.60000000000E+02 0.  0.
          5    1    3    3  501    0 -0.22778601144E+02  0.13269213529E+02 -0.13526762445E+02  0.30000000000E+02  0.47000000000E+01 0.  1.
         -5    1    3    3    0  501  0.22778601144E+02 -0.13269213529E+02  0.13526762445E+02  0.30000000000E+02  0.47000000000E+01 0. -1.
</event>
<event>
 5    1  0.7693226E-002  0.6000000E+02  0.7546771E-02  0.1259629E+00
         11   -1    0    0    0    0  0.00000000000E+00  0.00000000000E+00  0.30000000000E+02  0.30000000000E+02  0.00000000000E+00 0.  1.
        -11   -1    0    0    0    0 -0.00000000000E+00 -0.00000000000E+00 -0.30000000000E+02  0.30000000000E+02  0.00000000000E+00 0. -1.
         23    2    1    2    0    0  0.00000000000E+00  0.00000000000E+00  0.00000000000E+00  0.60000000000E+02  0.60000000000E+02 0.  0.
          5    1    3    3  501    0 -0.29593051783E+02 -0.41826792371E+00  0.14093750704E+01  0.30000000000E+02  0.47000000000E+01 0. -1.
         -5    1    3    3    0  501  0.29593051783E+02  0.41826792371E+00 -0.14093750704E+01  0.30000000000E+02  0.47000000000E+01 0.  1.
</event>
<event>
 5    1  0.7693226E-002  0.6000000E+02  0.7546771E-02  0.1259629E+00
         11   -1    0    0    0    0  0.00000000000E+00  0.00000000000E+00  0.30000000000E+02  0.30000000000E+02  0.00000000000E+00 0.  1.
        -11   -1    0    0    0    0 -0.00000000000E+00 -0.00000000000E+00 -0.30000000000E+02  0.30000000000E+02  0.00000000000E+00 0. -1.
         23    2    1    2    0    0  0.00000000000E+00  0.00000000000E+00  0.00000000000E+00  0.60000000000E+02  0.60000000000E+02 0.  0.
          5    1    3    3  501    0  0.71464579291E+01 -0.61275881269E+01 -0.28094319761E+02  0.30000000000E+02  0.47000000000E+01 0. -1.
         -5    1    3    3    0  501 -0.71464579291E+01  0.61275881269E+01  0.28094319761E+02  0.30000000000E+02  0.47000000000E+01 0.  1.
</event>
<event>
 5    1  0.7693226E-002  0.6000000E+02  0.7546771E-02  0.1259629E+00
         11   -1    0    0    0    0  0.00000000000E+00  0.00000000000E+00  0.30000000000E+02  0.30000000000E+02  0.00000000000E+00 0.  1.
        -11   -1    0    0    0    0 -0.00000000000E+00 -0.00000000000E+00 -0.30000000000E+02  0.30000000000E+02  0.00000000000E+00 0. -1.
         23    2    1    2    0    0  0.00000000000E+00  0.00000000000E+00  0.00000000000E+00  0.60000000000E+02  0.60000000000E+02 0.  0.
          5    1    3    3  501    0 -0.17816396909E+02  0.22783083188E+02  0.64356135384E+01  0.30000000000E+02  0.47000000000E+01 0.  1.
         -5    1    3    3    0  501  0.17816396909E+02 -0.22783083188E+02 -0.64356135384E+01  0.30000000000E+02  0.47000000000E+01 0. -1.
</event>
<event>
 5    1  0.7693226E-002  0.6000000E+02  0.7546771E-02  0.1259629E+00
         11   -1    0    0    0    0  0.00000000000E+00  0.00000000000E+00  0.30000000000E+02  0.30000000000E+02  0.00000000000E+00 0. -1.
        -11   -1    0    0    0    0 -0.00000000000E+00 -0.00000000000E+00 -0.30000000000E+02  0.30000000000E+02  0.00000000000E+00 0.  1.
         23    2    1    2    0    0  0.00000000000E+00  0.00000000000E+00  0.00000000000E+00  0.60000000000E+02  0.60000000000E+02 0.  0.
          5    1    3    3  501    0  0.24538369950E+02  0.16043268147E+02  0.42885833719E+01  0.30000000000E+02  0.47000000000E+01 0.  1.
         -5    1    3    3    0  501 -0.24538369950E+02 -0.16043268147E+02 -0.42885833719E+01  0.30000000000E+02  0.47000000000E+01 0. -1.
</event>
<event>
 5    1  0.7693226E-002  0.6000000E+02  0.7546771E-02  0.1259629E+00
         11   -1    0    0    0    0  0.00000000000E+00  0.00000000000E+00  0.30000000000E+02  0.30000000000E+02  0.00000000000E+00 0. -1.
        -11   -1    0    0    0    0 -0.00000000000E+00 -0.00000000000E+00 -0.30000000000E+02  0.30000000000E+02  0.00000000000E+00 0.  1.
         23    2    1    2    0    0  0.00000000000E+00  0.00000000000E+00  0.00000000000E+00  0.60000000000E+02  0.60000000000E+02 0.  0.
          5    1    3    3  501    0  0.76340352210E+01  0.77110521973E+00 -0.28618820783E+02  0.30000000000E+02  0.47000000000E+01 0.  1.
         -5    1    3    3    0  501 -0.76340352210E+01 -0.77110521973E+00  0.28618820783E+02  0.30000000000E+02  0.47000000000E+01 0. -1.
</event>
<event>
 5    1  0.7693226E-002  0.6000000E+02  0.7546771E-02  0.1259629E+00
         11   -1    0    0    0    0  0.00000000000E+00  0.00000000000E+00  0.30000000000E+02  0.30000000000E+02  0.00000000000E+00 0.  1.
        -11   -1    0    0    0    0 -0.00000000000E+00 -0.00000000000E+00 -0.30000000000E+02  0.30000000000E+02  0.00000000000E+00 0. -1.
         23    2    1    2    0    0  0.00000000000E+00  0.00000000000E+00  0.00000000000E+00  0.60000000000E+02  0.60000000000E+02 0.  0.
          5    1    3    3  501    0 -0.73154370635E+01 -0.25475465467E+02  0.13243679240E+02  0.30000000000E+02  0.47000000000E+01 0.  1.
         -5    1    3    3    0  501  0.73154370635E+01  0.25475465467E+02 -0.13243679240E+02  0.30000000000E+02  0.47000000000E+01 0. -1.
</event>
<event>
 5    1  0.7693226E-002  0.6000000E+02  0.7546771E-02  0.1259629E+00
         11   -1    0    0    0    0  0.00000000000E+00  0.00000000000E+00  0.30000000000E+02  0.30000000000E+02  0.00000000000E+00 0.  1.
        -11   -1    0    0    0    0 -0.00000000000E+00 -0.00000000000E+00 -0.30000000000E+02  0.30000000000E+02  0.00000000000E+00 0. -1.
         23    2    1    2    0    0  0.00000000000E+00  0.00000000000E+00  0.00000000000E+00  0.60000000000E+02  0.60000000000E+02 0.  0.
          5    1    3    3  501    0  0.15503321058E+02  0.17195639913E+02 -0.18489645863E+02  0.30000000000E+02  0.47000000000E+01 0. -1.
         -5    1    3    3    0  501 -0.15503321058E+02 -0.17195639913E+02  0.18489645863E+02  0.30000000000E+02  0.47000000000E+01 0.  1.
</event>
<event>
 5    1  0.7693226E-002  0.6000000E+02  0.7546771E-02  0.1259629E+00
         11   -1    0    0    0    0  0.00000000000E+00  0.00000000000E+00  0.30000000000E+02  0.30000000000E+02  0.00000000000E+00 0. -1.
        -11   -1    0    0    0    0 -0.00000000000E+00 -0.00000000000E+00 -0.30000000000E+02  0.30000000000E+02  0.00000000000E+00 0.  1.
         23    2    1    2    0    0  0.00000000000E+00  0.00000000000E+00  0.00000000000E+00  0.60000000000E+02  0.60000000000E+02 0.  0.
          5    1    3    3  501    0  0.13470158880E+02  0.14298212291E+02  0.22181657851E+02  0.30000000000E+02  0.47000000000E+01 0. -1.
         -5    1    3    3    0  501 -0.13470158880E+02 -0.14298212291E+02 -0.22181657851E+02  0.30000000000E+02  0.47000000000E+01 0.  1.
</event>
<event>
 5    1  0.7693226E-002  0.6000000E+02  0.7546771E-02  0.1259629E+00
         11   -1    0    0    0    0  0.00000000000E+00  0.00000000000E+00  0.30000000000E+02  0.30000000000E+02  0.00000000000E+00 0.  1.
        -11   -1    0    0    0    0 -0.00000000000E+00 -0.00000000000E+00 -0.30000000000E+02  0.30000000000E+02  0.00000000000E+00 0. -1.
         23    2    1    2    0    0  0.00000000000E+00  0.00000000000E+00  0.00000000000E+00  0.60000000000E+02  0.60000000000E+02 0.  0.
          5    1    3    3  501    0  0.16077365416E+02  0.24552250959E+02 -0.40761862257E+01  0.30000000000E+02  0.47000000000E+01 0. -1.
         -5    1    3    3    0  501 -0.16077365416E+02 -0.24552250959E+02  0.40761862257E+01  0.30000000000E+02  0.47000000000E+01 0.  1.
</event>
<event>
 5    1  0.7693226E-002  0.6000000E+02  0.7546771E-02  0.1259629E+00
         11   -1    0    0    0    0  0.00000000000E+00  0.00000000000E+00  0.30000000000E+02  0.30000000000E+02  0.00000000000E+00 0.  1.
        -11   -1    0    0    0    0 -0.00000000000E+00 -0.00000000000E+00 -0.30000000000E+02  0.30000000000E+02  0.00000000000E+00 0. -1.
         23    2    1    2    0    0  0.00000000000E+00  0.00000000000E+00  0.00000000000E+00  0.60000000000E+02  0.60000000000E+02 0.  0.
          5    1    3    3  501    0  0.11212777766E+02  0.94366824003E+01 -0.25751361907E+02  0.30000000000E+02  0.47000000000E+01 0. -1.
         -5    1    3    3    0  501 -0.11212777766E+02 -0.94366824003E+01  0.25751361907E+02  0.30000000000E+02  0.47000000000E+01 0.  1.
</event>
<event>
 5    1  0.7693226E-002  0.6000000E+02  0.7546771E-02  0.1259629E+00
         11   -1    0    0    0    0  0.00000000000E+00  0.00000000000E+00  0.30000000000E+02  0.30000000000E+02  0.00000000000E+00 0.  1.
        -11   -1    0    0    0    0 -0.00000000000E+00 -0.00000000000E+00 -0.30000000000E+02  0.30000000000E+02  0.00000000000E+00 0. -1.
         23    2    1    2    0    0  0.00000000000E+00  0.00000000000E+00  0.00000000000E+00  0.60000000000E+02  0.60000000000E+02 0.  0.
          5    1    3    3  501    0 -0.14531653999E+02 -0.21129249658E+02 -0.14842366420E+02  0.30000000000E+02  0.47000000000E+01 0. -1.
         -5    1    3    3    0  501  0.14531653999E+02  0.21129249658E+02  0.14842366420E+02  0.30000000000E+02  0.47000000000E+01 0.  1.
</event>
<event>
 5    1  0.7693226E-002  0.6000000E+02  0.7546771E-02  0.1259629E+00
         11   -1    0    0    0    0  0.00000000000E+00  0.00000000000E+00  0.30000000000E+02  0.30000000000E+02  0.00000000000E+00 0.  1.
        -11   -1    0    0    0    0 -0.00000000000E+00 -0.00000000000E+00 -0.30000000000E+02  0.30000000000E+02  0.00000000000E+00 0. -1.
         23    2    1    2    0    0  0.00000000000E+00  0.00000000000E+00  0.00000000000E+00  0.60000000000E+02  0.60000000000E+02 0.  0.
          5    1    3    3  501    0 -0.13232293402E+02 -0.13739331139E+02  0.22672608831E+02  0.30000000000E+02  0.47000000000E+01 0.  1.
         -5    1    3    3    0  501  0.13232293402E+02  0.13739331139E+02 -0.22672608831E+02  0.30000000000E+02  0.47000000000E+01 0. -1.
</event>
<event>
 5    1  0.7693226E-002  0.6000000E+02  0.7546771E-02  0.1259629E+00
         11   -1    0    0    0    0  0.00000000000E+00  0.00000000000E+00  0.30000000000E+02  0.30000000000E+02  0.00000000000E+00 0.  1.
        -11   -1    0    0    0    0 -0.00000000000E+00 -0.00000000000E+00 -0.30000000000E+02  0.30000000000E+02  0.00000000000E+00 0. -1.
         23    2    1    2    0    0  0.00000000000E+00  0.00000000000E+00  0.00000000000E+00  0.60000000000E+02  0.60000000000E+02 0.  0.
          5    1    3    3  501    0 -0.15253877586E+01 -0.16056890408E+02 -0.24854767402E+02  0.30000000000E+02  0.47000000000E+01 0. -1.
         -5    1    3    3    0  501  0.15253877586E+01  0.16056890408E+02  0.24854767402E+02  0.30000000000E+02  0.47000000000E+01 0.  1.
</event>
<event>
 5    1  0.7693226E-002  0.6000000E+02  0.7546771E-02  0.1259629E+00
         11   -1    0    0    0    0  0.00000000000E+00  0.00000000000E+00  0.30000000000E+02  0.30000000000E+02  0.00000000000E+00 0.  1.
        -11   -1    0    0    0    0 -0.00000000000E+00 -0.00000000000E+00 -0.30000000000E+02  0.30000000000E+02  0.00000000000E+00 0. -1.
         23    2    1    2    0    0  0.00000000000E+00  0.00000000000E+00  0.00000000000E+00  0.60000000000E+02  0.60000000000E+02 0.  0.
          5    1    3    3  501    0 -0.14053331809E+02  0.72607034323E+01 -0.25053862990E+02  0.30000000000E+02  0.47000000000E+01 0. -1.
         -5    1    3    3    0  501  0.14053331809E+02 -0.72607034323E+01  0.25053862990E+02  0.30000000000E+02  0.47000000000E+01 0.  1.
</event>
<event>
 5    1  0.7693226E-002  0.6000000E+02  0.7546771E-02  0.1259629E+00
         11   -1    0    0    0    0  0.00000000000E+00  0.00000000000E+00  0.30000000000E+02  0.30000000000E+02  0.00000000000E+00 0.  1.
        -11   -1    0    0    0    0 -0.00000000000E+00 -0.00000000000E+00 -0.30000000000E+02  0.30000000000E+02  0.00000000000E+00 0. -1.
         23    2    1    2    0    0  0.00000000000E+00  0.00000000000E+00  0.00000000000E+00  0.60000000000E+02  0.60000000000E+02 0.  0.
          5    1    3    3  501    0 -0.10683228145E+01 -0.14166577316E+02 -0.26001476372E+02  0.30000000000E+02  0.47000000000E+01 0. -1.
         -5    1    3    3    0  501  0.10683228145E+01  0.14166577316E+02  0.26001476372E+02  0.30000000000E+02  0.47000000000E+01 0.  1.
</event>
<event>
 5    1  0.7693226E-002  0.6000000E+02  0.7546771E-02  0.1259629E+00
         11   -1    0    0    0    0  0.00000000000E+00  0.00000000000E+00  0.30000000000E+02  0.30000000000E+02  0.00000000000E+00 0.  1.
        -11   -1    0    0    0    0 -0.00000000000E+00 -0.00000000000E+00 -0.30000000000E+02  0.30000000000E+02  0.00000000000E+00 0. -1.
         23    2    1    2    0    0  0.00000000000E+00  0.00000000000E+00  0.00000000000E+00  0.60000000000E+02  0.60000000000E+02 0.  0.
          5    1    3    3  501    0  0.27414946795E+02  0.34152486729E+01 -0.10708257035E+02  0.30000000000E+02  0.47000000000E+01 0. -1.
         -5    1    3    3    0  501 -0.27414946795E+02 -0.34152486729E+01  0.10708257035E+02  0.30000000000E+02  0.47000000000E+01 0.  1.
</event>
<event>
 5    1  0.7693226E-002  0.6000000E+02  0.7546771E-02  0.1259629E+00
         11   -1    0    0    0    0  0.00000000000E+00  0.00000000000E+00  0.30000000000E+02  0.30000000000E+02  0.00000000000E+00 0.  1.
        -11   -1    0    0    0    0 -0.00000000000E+00 -0.00000000000E+00 -0.30000000000E+02  0.30000000000E+02  0.00000000000E+00 0. -1.
         23    2    1    2    0    0  0.00000000000E+00  0.00000000000E+00  0.00000000000E+00  0.60000000000E+02  0.60000000000E+02 0.  0.
          5    1    3    3  501    0 -0.22224890331E+02 -0.19156977191E+02 -0.41200090623E+01  0.30000000000E+02  0.47000000000E+01 0. -1.
         -5    1    3    3    0  501  0.22224890331E+02  0.19156977191E+02  0.41200090623E+01  0.30000000000E+02  0.47000000000E+01 0.  1.
</event>
<event>
 5    1  0.7693226E-002  0.6000000E+02  0.7546771E-02  0.1259629E+00
         11   -1    0    0    0    0  0.00000000000E+00  0.00000000000E+00  0.30000000000E+02  0.30000000000E+02  0.00000000000E+00 0.  1.
        -11   -1    0    0    0    0 -0.00000000000E+00 -0.00000000000E+00 -0.30000000000E+02  0.30000000000E+02  0.00000000000E+00 0. -1.
         23    2    1    2    0    0  0.00000000000E+00  0.00000000000E+00  0.00000000000E+00  0.60000000000E+02  0.60000000000E+02 0.  0.
          5    1    3    3  501    0 -0.84195271701E+01 -0.85143793098E+01 -0.27102156874E+02  0.30000000000E+02  0.47000000000E+01 0. -1.
         -5    1    3    3    0  501  0.84195271701E+01  0.85143793098E+01  0.27102156874E+02  0.30000000000E+02  0.47000000000E+01 0.  1.
</event>
<event>
 5    1  0.7693226E-002  0.6000000E+02  0.7546771E-02  0.1259629E+00
         11   -1    0    0    0    0  0.00000000000E+00  0.00000000000E+00  0.30000000000E+02  0.30000000000E+02  0.00000000000E+00 0. -1.
        -11   -1    0    0    0    0 -0.00000000000E+00 -0.00000000000E+00 -0.30000000000E+02  0.30000000000E+02  0.00000000000E+00 0.  1.
         23    2    1    2    0    0  0.00000000000E+00  0.00000000000E+00  0.00000000000E+00  0.60000000000E+02  0.60000000000E+02 0.  0.
          5    1    3    3  501    0 -0.19776498817E+02 -0.12970221049E+00 -0.22063165500E+02  0.30000000000E+02  0.47000000000E+01 0.  1.
         -5    1    3    3    0  501  0.19776498817E+02  0.12970221049E+00  0.22063165500E+02  0.30000000000E+02  0.47000000000E+01 0. -1.
</event>
<event>
 5    1  0.7693226E-002  0.6000000E+02  0.7546771E-02  0.1259629E+00
         11   -1    0    0    0    0  0.00000000000E+00  0.00000000000E+00  0.30000000000E+02  0.30000000000E+02  0.00000000000E+00 0.  1.
        -11   -1    0    0    0    0 -0.00000000000E+00 -0.00000000000E+00 -0.30000000000E+02  0.30000000000E+02  0.00000000000E+00 0. -1.
         23    2    1    2    0    0  0.00000000000E+00  0.00000000000E+00  0.00000000000E+00  0.60000000000E+02  0.60000000000E+02 0.  0.
          5    1    3    3  501    0  0.14552601307E+02  0.25526108005E+02  0.38143944882E+01  0.30000000000E+02  0.47000000000E+01 0. -1.
         -5    1    3    3    0  501 -0.14552601307E+02 -0.25526108005E+02 -0.38143944882E+01  0.30000000000E+02  0.47000000000E+01 0.  1.
</event>
<event>
 5    1  0.7693226E-002  0.6000000E+02  0.7546771E-02  0.1259629E+00
         11   -1    0    0    0    0  0.00000000000E+00  0.00000000000E+00  0.30000000000E+02  0.30000000000E+02  0.00000000000E+00 0. -1.
        -11   -1    0    0    0    0 -0.00000000000E+00 -0.00000000000E+00 -0.30000000000E+02  0.30000000000E+02  0.00000000000E+00 0.  1.
         23    2    1    2    0    0  0.00000000000E+00  0.00000000000E+00  0.00000000000E+00  0.60000000000E+02  0.60000000000E+02 0.  0.
          5    1    3    3  501    0 -0.53633350786E+01 -0.86275028909E+01 -0.27833627696E+02  0.30000000000E+02  0.47000000000E+01 0.  1.
         -5    1    3    3    0  501  0.53633350786E+01  0.86275028909E+01  0.27833627696E+02  0.30000000000E+02  0.47000000000E+01 0. -1.
</event>
<event>
 5    1  0.7693226E-002  0.6000000E+02  0.7546771E-02  0.1259629E+00
         11   -1    0    0    0    0  0.00000000000E+00  0.00000000000E+00  0.30000000000E+02  0.30000000000E+02  0.00000000000E+00 0.  1.
        -11   -1    0    0    0    0 -0.00000000000E+00 -0.00000000000E+00 -0.30000000000E+02  0.30000000000E+02  0.00000000000E+00 0. -1.
         23    2    1    2    0    0  0.00000000000E+00  0.00000000000E+00  0.00000000000E+00  0.60000000000E+02  0.60000000000E+02 0.  0.
          5    1    3    3  501    0  0.20229169781E+02 -0.13078276588E+01 -0.21609726439E+02  0.30000000000E+02  0.47000000000E+01 0. -1.
         -5    1    3    3    0  501 -0.20229169781E+02  0.13078276588E+01  0.21609726439E+02  0.30000000000E+02  0.47000000000E+01 0.  1.
</event>
<event>
 5    1  0.7693226E-002  0.6000000E+02  0.7546771E-02  0.1259629E+00
         11   -1    0    0    0    0  0.00000000000E+00  0.00000000000E+00  0.30000000000E+02  0.30000000000E+02  0.00000000000E+00 0.  1.
        -11   -1    0    0    0    0 -0.00000000000E+00 -0.00000000000E+00 -0.30000000000E+02  0.30000000000E+02  0.00000000000E+00 0. -1.
         23    2    1    2    0    0  0.00000000000E+00  0.00000000000E+00  0.00000000000E+00  0.60000000000E+02  0.60000000000E+02 0.  0.
          5    1    3    3  501    0  0.67869272122E+01 -0.15903472586E+02 -0.24060905609E+02  0.30000000000E+02  0.47000000000E+01 0. -1.
         -5    1    3    3    0  501 -0.67869272122E+01  0.15903472586E+02  0.24060905609E+02  0.30000000000E+02  0.47000000000E+01 0.  1.
</event>
<event>
 5    1  0.7693226E-002  0.6000000E+02  0.7546771E-02  0.1259629E+00
         11   -1    0    0    0    0  0.00000000000E+00  0.00000000000E+00  0.30000000000E+02  0.30000000000E+02  0.00000000000E+00 0.  1.
        -11   -1    0    0    0    0 -0.00000000000E+00 -0.00000000000E+00 -0.30000000000E+02  0.30000000000E+02  0.00000000000E+00 0. -1.
         23    2    1    2    0    0  0.00000000000E+00  0.00000000000E+00  0.00000000000E+00  0.60000000000E+02  0.60000000000E+02 0.  0.
          5    1    3    3  501    0  0.16875825176E+01 -0.28907993102E+02 -0.62761453184E+01  0.30000000000E+02  0.47000000000E+01 0. -1.
         -5    1    3    3    0  501 -0.16875825176E+01  0.28907993102E+02  0.62761453184E+01  0.30000000000E+02  0.47000000000E+01 0.  1.
</event>
<event>
 5    1  0.7693226E-002  0.6000000E+02  0.7546771E-02  0.1259629E+00
         11   -1    0    0    0    0  0.00000000000E+00  0.00000000000E+00  0.30000000000E+02  0.30000000000E+02  0.00000000000E+00 0. -1.
        -11   -1    0    0    0    0 -0.00000000000E+00 -0.00000000000E+00 -0.30000000000E+02  0.30000000000E+02  0.00000000000E+00 0.  1.
         23    2    1    2    0    0  0.00000000000E+00  0.00000000000E+00  0.00000000000E+00  0.60000000000E+02  0.60000000000E+02 0.  0.
          5    1    3    3  501    0  0.13433960170E+02  0.15049897931E+02  0.21701135602E+02  0.30000000000E+02  0.47000000000E+01 0.  1.
         -5    1    3    3    0  501 -0.13433960170E+02 -0.15049897931E+02 -0.21701135602E+02  0.30000000000E+02  0.47000000000E+01 0. -1.
</event>
<event>
 5    1  0.7693226E-002  0.6000000E+02  0.7546771E-02  0.1259629E+00
         11   -1    0    0    0    0  0.00000000000E+00  0.00000000000E+00  0.30000000000E+02  0.30000000000E+02  0.00000000000E+00 0.  1.
        -11   -1    0    0    0    0 -0.00000000000E+00 -0.00000000000E+00 -0.30000000000E+02  0.30000000000E+02  0.00000000000E+00 0. -1.
         23    2    1    2    0    0  0.00000000000E+00  0.00000000000E+00  0.00000000000E+00  0.60000000000E+02  0.60000000000E+02 0.  0.
          5    1    3    3  501    0 -0.21745552980E+02 -0.48198200050E+01 -0.19539965729E+02  0.30000000000E+02  0.47000000000E+01 0. -1.
         -5    1    3    3    0  501  0.21745552980E+02  0.48198200050E+01  0.19539965729E+02  0.30000000000E+02  0.47000000000E+01 0.  1.
</event>
<event>
 5    1  0.7693226E-002  0.6000000E+02  0.7546771E-02  0.1259629E+00
         11   -1    0    0    0    0  0.00000000000E+00  0.00000000000E+00  0.30000000000E+02  0.30000000000E+02  0.00000000000E+00 0.  1.
        -11   -1    0    0    0    0 -0.00000000000E+00 -0.00000000000E+00 -0.30000000000E+02  0.30000000000E+02  0.00000000000E+00 0. -1.
         23    2    1    2    0    0  0.00000000000E+00  0.00000000000E+00  0.00000000000E+00  0.60000000000E+02  0.60000000000E+02 0.  0.
          5    1    3    3  501    0  0.20339753268E+02 -0.16640956049E+02 -0.13685138610E+02  0.30000000000E+02  0.47000000000E+01 0. -1.
         -5    1    3    3    0  501 -0.20339753268E+02  0.16640956049E+02  0.13685138610E+02  0.30000000000E+02  0.47000000000E+01 0.  1.
</event>
<event>
 5    1  0.7693226E-002  0.6000000E+02  0.7546771E-02  0.1259629E+00
         11   -1    0    0    0    0  0.00000000000E+00  0.00000000000E+00  0.30000000000E+02  0.30000000000E+02  0.00000000000E+00 0. -1.
        -11   -1    0    0    0    0 -0.00000000000E+00 -0.00000000000E+00 -0.30000000000E+02  0.30000000000E+02  0.00000000000E+00 0.  1.
         23    2    1    2    0    0  0.00000000000E+00  0.00000000000E+00  0.00000000000E+00  0.60000000000E+02  0.60000000000E+02 0.  0.
          5    1    3    3  501    0  0.25725963736E+02 -0.46864582821E+01  0.13932763496E+02  0.30000000000E+02  0.47000000000E+01 0.  1.
         -5    1    3    3    0  501 -0.25725963736E+02  0.46864582821E+01 -0.13932763496E+02  0.30000000000E+02  0.47000000000E+01 0.  1.
</event>
<event>
 5    1  0.7693226E-002  0.6000000E+02  0.7546771E-02  0.1259629E+00
         11   -1    0    0    0    0  0.00000000000E+00  0.00000000000E+00  0.30000000000E+02  0.30000000000E+02  0.00000000000E+00 0.  1.
        -11   -1    0    0    0    0 -0.00000000000E+00 -0.00000000000E+00 -0.30000000000E+02  0.30000000000E+02  0.00000000000E+00 0. -1.
         23    2    1    2    0    0  0.00000000000E+00  0.00000000000E+00  0.00000000000E+00  0.60000000000E+02  0.60000000000E+02 0.  0.
          5    1    3    3  501    0 -0.10976101754E+02 -0.27329284578E+02 -0.32473673583E+01  0.30000000000E+02  0.47000000000E+01 0. -1.
         -5    1    3    3    0  501  0.10976101754E+02  0.27329284578E+02  0.32473673583E+01  0.30000000000E+02  0.47000000000E+01 0.  1.
</event>
<event>
 5    1  0.7693226E-002  0.6000000E+02  0.7546771E-02  0.1259629E+00
         11   -1    0    0    0    0  0.00000000000E+00  0.00000000000E+00  0.30000000000E+02  0.30000000000E+02  0.00000000000E+00 0. -1.
        -11   -1    0    0    0    0 -0.00000000000E+00 -0.00000000000E+00 -0.30000000000E+02  0.30000000000E+02  0.00000000000E+00 0.  1.
         23    2    1    2    0    0  0.00000000000E+00  0.00000000000E+00  0.00000000000E+00  0.60000000000E+02  0.60000000000E+02 0.  0.
          5    1    3    3  501    0 -0.27540691959E+02  0.10806207415E+02 -0.16267045504E+01  0.30000000000E+02  0.47000000000E+01 0.  1.
         -5    1    3    3    0  501  0.27540691959E+02 -0.10806207415E+02  0.16267045504E+01  0.30000000000E+02  0.47000000000E+01 0. -1.
</event>
<event>
 5    1  0.7693226E-002  0.6000000E+02  0.7546771E-02  0.1259629E+00
         11   -1    0    0    0    0  0.00000000000E+00  0.00000000000E+00  0.30000000000E+02  0.30000000000E+02  0.00000000000E+00 0. -1.
        -11   -1    0    0    0    0 -0.00000000000E+00 -0.00000000000E+00 -0.30000000000E+02  0.30000000000E+02  0.00000000000E+00 0.  1.
         23    2    1    2    0    0  0.00000000000E+00  0.00000000000E+00  0.00000000000E+00  0.60000000000E+02  0.60000000000E+02 0.  0.
          5    1    3    3  501    0 -0.13413672308E+02  0.53827754955E+01 -0.25865210673E+02  0.30000000000E+02  0.47000000000E+01 0.  1.
         -5    1    3    3    0  501  0.13413672308E+02 -0.53827754955E+01  0.25865210673E+02  0.30000000000E+02  0.47000000000E+01 0. -1.
</event>
<event>
 5    1  0.7693226E-002  0.6000000E+02  0.7546771E-02  0.1259629E+00
         11   -1    0    0    0    0  0.00000000000E+00  0.00000000000E+00  0.30000000000E+02  0.30000000000E+02  0.00000000000E+00 0.  1.
        -11   -1    0    0    0    0 -0.00000000000E+00 -0.00000000000E+00 -0.30000000000E+02  0.30000000000E+02  0.00000000000E+00 0. -1.
         23    2    1    2    0    0  0.00000000000E+00  0.00000000000E+00  0.00000000000E+00  0.60000000000E+02  0.60000000000E+02 0.  0.
          5    1    3    3  501    0  0.24629268559E+02 -0.15872015841E+02  0.44032083072E+01  0.30000000000E+02  0.47000000000E+01 0. -1.
         -5    1    3    3    0  501 -0.24629268559E+02  0.15872015841E+02 -0.44032083072E+01  0.30000000000E+02  0.47000000000E+01 0.  1.
</event>
<event>
 5    1  0.7693226E-002  0.6000000E+02  0.7546771E-02  0.1259629E+00
         11   -1    0    0    0    0  0.00000000000E+00  0.00000000000E+00  0.30000000000E+02  0.30000000000E+02  0.00000000000E+00 0. -1.
        -11   -1    0    0    0    0 -0.00000000000E+00 -0.00000000000E+00 -0.30000000000E+02  0.30000000000E+02  0.00000000000E+00 0.  1.
         23    2    1    2    0    0  0.00000000000E+00  0.00000000000E+00  0.00000000000E+00  0.60000000000E+02  0.60000000000E+02 0.  0.
          5    1    3    3  501    0  0.25160970554E+02 -0.96948286592E+01 -0.12281932180E+02  0.30000000000E+02  0.47000000000E+01 0.  1.
         -5    1    3    3    0  501 -0.25160970554E+02  0.96948286592E+01  0.12281932180E+02  0.30000000000E+02  0.47000000000E+01 0. -1.
</event>
<event>
 5    1  0.7693226E-002  0.6000000E+02  0.7546771E-02  0.1259629E+00
         11   -1    0    0    0    0  0.00000000000E+00  0.00000000000E+00  0.30000000000E+02  0.30000000000E+02  0.00000000000E+00 0. -1.
        -11   -1    0    0    0    0 -0.00000000000E+00 -0.00000000000E+00 -0.30000000000E+02  0.30000000000E+02  0.00000000000E+00 0.  1.
         23    2    1    2    0    0  0.00000000000E+00  0.00000000000E+00  0.00000000000E+00  0.60000000000E+02  0.60000000000E+02 0.  0.
          5    1    3    3  501    0  0.11882909964E+02 -0.14367041160E+01 -0.27104286231E+02  0.30000000000E+02  0.47000000000E+01 0.  1.
         -5    1    3    3    0  501 -0.11882909964E+02  0.14367041160E+01  0.27104286231E+02  0.30000000000E+02  0.47000000000E+01 0. -1.
</event>
<event>
 5    1  0.7693226E-002  0.6000000E+02  0.7546771E-02  0.1259629E+00
         11   -1    0    0    0    0  0.00000000000E+00  0.00000000000E+00  0.30000000000E+02  0.30000000000E+02  0.00000000000E+00 0.  1.
        -11   -1    0    0    0    0 -0.00000000000E+00 -0.00000000000E+00 -0.30000000000E+02  0.30000000000E+02  0.00000000000E+00 0. -1.
         23    2    1    2    0    0  0.00000000000E+00  0.00000000000E+00  0.00000000000E+00  0.60000000000E+02  0.60000000000E+02 0.  0.
          5    1    3    3  501    0  0.21508957173E+01 -0.23822989349E+02 -0.17485674882E+02  0.30000000000E+02  0.47000000000E+01 0. -1.
         -5    1    3    3    0  501 -0.21508957173E+01  0.23822989349E+02  0.17485674882E+02  0.30000000000E+02  0.47000000000E+01 0.  1.
</event>
<event>
 5    1  0.7693226E-002  0.6000000E+02  0.7546771E-02  0.1259629E+00
         11   -1    0    0    0    0  0.00000000000E+00  0.00000000000E+00  0.30000000000E+02  0.30000000000E+02  0.00000000000E+00 0.  1.
        -11   -1    0    0    0    0 -0.00000000000E+00 -0.00000000000E+00 -0.30000000000E+02  0.30000000000E+02  0.00000000000E+00 0. -1.
         23    2    1    2    0    0  0.00000000000E+00  0.00000000000E+00  0.00000000000E+00  0.60000000000E+02  0.60000000000E+02 0.  0.
          5    1    3    3  501    0 -0.34410090502E+01 -0.14144788744E+02 -0.25806867460E+02  0.30000000000E+02  0.47000000000E+01 0. -1.
         -5    1    3    3    0  501  0.34410090502E+01  0.14144788744E+02  0.25806867460E+02  0.30000000000E+02  0.47000000000E+01 0.  1.
</event>
<event>
 5    1  0.7693226E-002  0.6000000E+02  0.7546771E-02  0.1259629E+00
         11   -1    0    0    0    0  0.00000000000E+00  0.00000000000E+00  0.30000000000E+02  0.30000000000E+02  0.00000000000E+00 0.  1.
        -11   -1    0    0    0    0 -0.00000000000E+00 -0.00000000000E+00 -0.30000000000E+02  0.30000000000E+02  0.00000000000E+00 0. -1.
         23    2    1    2    0    0  0.00000000000E+00  0.00000000000E+00  0.00000000000E+00  0.60000000000E+02  0.60000000000E+02 0.  0.
          5    1    3    3  501    0  0.26875331740E+01 -0.74138817490E+01 -0.28560838973E+02  0.30000000000E+02  0.47000000000E+01 0. -1.
         -5    1    3    3    0  501 -0.26875331740E+01  0.74138817490E+01  0.28560838973E+02  0.30000000000E+02  0.47000000000E+01 0.  1.
</event>
<event>
 5    1  0.7693226E-002  0.6000000E+02  0.7546771E-02  0.1259629E+00
         11   -1    0    0    0    0  0.00000000000E+00  0.00000000000E+00  0.30000000000E+02  0.30000000000E+02  0.00000000000E+00 0.  1.
        -11   -1    0    0    0    0 -0.00000000000E+00 -0.00000000000E+00 -0.30000000000E+02  0.30000000000E+02  0.00000000000E+00 0. -1.
         23    2    1    2    0    0  0.00000000000E+00  0.00000000000E+00  0.00000000000E+00  0.60000000000E+02  0.60000000000E+02 0.  0.
          5    1    3    3  501    0  0.14627600220E+02 -0.23648342326E+02 -0.10232263533E+02  0.30000000000E+02  0.47000000000E+01 0. -1.
         -5    1    3    3    0  501 -0.14627600220E+02  0.23648342326E+02  0.10232263533E+02  0.30000000000E+02  0.47000000000E+01 0.  1.
</event>
<event>
 5    1  0.7693226E-002  0.6000000E+02  0.7546771E-02  0.1259629E+00
         11   -1    0    0    0    0  0.00000000000E+00  0.00000000000E+00  0.30000000000E+02  0.30000000000E+02  0.00000000000E+00 0. -1.
        -11   -1    0    0    0    0 -0.00000000000E+00 -0.00000000000E+00 -0.30000000000E+02  0.30000000000E+02  0.00000000000E+00 0.  1.
         23    2    1    2    0    0  0.00000000000E+00  0.00000000000E+00  0.00000000000E+00  0.60000000000E+02  0.60000000000E+02 0.  0.
          5    1    3    3  501    0 -0.14742365776E+02 -0.23208374096E+02 -0.11042826773E+02  0.30000000000E+02  0.47000000000E+01 0.  1.
         -5    1    3    3    0  501  0.14742365776E+02  0.23208374096E+02  0.11042826773E+02  0.30000000000E+02  0.47000000000E+01 0. -1.
</event>
<event>
 5    1  0.7693226E-002  0.6000000E+02  0.7546771E-02  0.1259629E+00
         11   -1    0    0    0    0  0.00000000000E+00  0.00000000000E+00  0.30000000000E+02  0.30000000000E+02  0.00000000000E+00 0.  1.
        -11   -1    0    0    0    0 -0.00000000000E+00 -0.00000000000E+00 -0.30000000000E+02  0.30000000000E+02  0.00000000000E+00 0. -1.
         23    2    1    2    0    0  0.00000000000E+00  0.00000000000E+00  0.00000000000E+00  0.60000000000E+02  0.60000000000E+02 0.  0.
          5    1    3    3  501    0 -0.56590945913E+00  0.26701844137E+02 -0.12829702498E+02  0.30000000000E+02  0.47000000000E+01 0. -1.
         -5    1    3    3    0  501  0.56590945913E+00 -0.26701844137E+02  0.12829702498E+02  0.30000000000E+02  0.47000000000E+01 0.  1.
</event>
<event>
 5    1  0.7693226E-002  0.6000000E+02  0.7546771E-02  0.1259629E+00
         11   -1    0    0    0    0  0.00000000000E+00  0.00000000000E+00  0.30000000000E+02  0.30000000000E+02  0.00000000000E+00 0.  1.
        -11   -1    0    0    0    0 -0.00000000000E+00 -0.00000000000E+00 -0.30000000000E+02  0.30000000000E+02  0.00000000000E+00 0. -1.
         23    2    1    2    0    0  0.00000000000E+00  0.00000000000E+00  0.00000000000E+00  0.60000000000E+02  0.60000000000E+02 0.  0.
          5    1    3    3  501    0 -0.22974508518E+02 -0.81147306000E+01 -0.16859214265E+02  0.30000000000E+02  0.47000000000E+01 0. -1.
         -5    1    3    3    0  501  0.22974508518E+02  0.81147306000E+01  0.16859214265E+02  0.30000000000E+02  0.47000000000E+01 0.  1.
</event>
<event>
 5    1  0.7693226E-002  0.6000000E+02  0.7546771E-02  0.1259629E+00
         11   -1    0    0    0    0  0.00000000000E+00  0.00000000000E+00  0.30000000000E+02  0.30000000000E+02  0.00000000000E+00 0.  1.
        -11   -1    0    0    0    0 -0.00000000000E+00 -0.00000000000E+00 -0.30000000000E+02  0.30000000000E+02  0.00000000000E+00 0. -1.
         23    2    1    2    0    0  0.00000000000E+00  0.00000000000E+00  0.00000000000E+00  0.60000000000E+02  0.60000000000E+02 0.  0.
          5    1    3    3  501    0 -0.15565303486E+02 -0.14531957520E+02 -0.20602270216E+02  0.30000000000E+02  0.47000000000E+01 0. -1.
         -5    1    3    3    0  501  0.15565303486E+02  0.14531957520E+02  0.20602270216E+02  0.30000000000E+02  0.47000000000E+01 0.  1.
</event>
<event>
 5    1  0.7693226E-002  0.6000000E+02  0.7546771E-02  0.1259629E+00
         11   -1    0    0    0    0  0.00000000000E+00  0.00000000000E+00  0.30000000000E+02  0.30000000000E+02  0.00000000000E+00 0. -1.
        -11   -1    0    0    0    0 -0.00000000000E+00 -0.00000000000E+00 -0.30000000000E+02  0.30000000000E+02  0.00000000000E+00 0.  1.
         23    2    1    2    0    0  0.00000000000E+00  0.00000000000E+00  0.00000000000E+00  0.60000000000E+02  0.60000000000E+02 0.  0.
          5    1    3    3  501    0  0.45725137798E+01  0.17776380741E+02  0.23259458409E+02  0.30000000000E+02  0.47000000000E+01 0. -1.
         -5    1    3    3    0  501 -0.45725137798E+01 -0.17776380741E+02 -0.23259458409E+02  0.30000000000E+02  0.47000000000E+01 0.  1.
</event>
<event>
 5    1  0.7693226E-002  0.6000000E+02  0.7546771E-02  0.1259629E+00
         11   -1    0    0    0    0  0.00000000000E+00  0.00000000000E+00  0.30000000000E+02  0.30000000000E+02  0.00000000000E+00 0.  1.
        -11   -1    0    0    0    0 -0.00000000000E+00 -0.00000000000E+00 -0.30000000000E+02  0.30000000000E+02  0.00000000000E+00 0. -1.
         23    2    1    2    0    0  0.00000000000E+00  0.00000000000E+00  0.00000000000E+00  0.60000000000E+02  0.60000000000E+02 0.  0.
          5    1    3    3  501    0  0.18790976578E+02  0.17396876326E+02 -0.14904962038E+02  0.30000000000E+02  0.47000000000E+01 0. -1.
         -5    1    3    3    0  501 -0.18790976578E+02 -0.17396876326E+02  0.14904962038E+02  0.30000000000E+02  0.47000000000E+01 0.  1.
</event>
<event>
 5    1  0.7693226E-002  0.6000000E+02  0.7546771E-02  0.1259629E+00
         11   -1    0    0    0    0  0.00000000000E+00  0.00000000000E+00  0.30000000000E+02  0.30000000000E+02  0.00000000000E+00 0.  1.
        -11   -1    0    0    0    0 -0.00000000000E+00 -0.00000000000E+00 -0.30000000000E+02  0.30000000000E+02  0.00000000000E+00 0. -1.
         23    2    1    2    0    0  0.00000000000E+00  0.00000000000E+00  0.00000000000E+00  0.60000000000E+02  0.60000000000E+02 0.  0.
          5    1    3    3  501    0 -0.41161202512E+01 -0.67629490221E+00 -0.29334453792E+02  0.30000000000E+02  0.47000000000E+01 0. -1.
         -5    1    3    3    0  501  0.41161202512E+01  0.67629490221E+00  0.29334453792E+02  0.30000000000E+02  0.47000000000E+01 0.  1.
</event>
<event>
 5    1  0.7693226E-002  0.6000000E+02  0.7546771E-02  0.1259629E+00
         11   -1    0    0    0    0  0.00000000000E+00  0.00000000000E+00  0.30000000000E+02  0.30000000000E+02  0.00000000000E+00 0.  1.
        -11   -1    0    0    0    0 -0.00000000000E+00 -0.00000000000E+00 -0.30000000000E+02  0.30000000000E+02  0.00000000000E+00 0. -1.
         23    2    1    2    0    0  0.00000000000E+00  0.00000000000E+00  0.00000000000E+00  0.60000000000E+02  0.60000000000E+02 0.  0.
          5    1    3    3  501    0  0.15308826611E+02  0.24220524933E+01 -0.25252395718E+02  0.30000000000E+02  0.47000000000E+01 0. -1.
         -5    1    3    3    0  501 -0.15308826611E+02 -0.24220524933E+01  0.25252395718E+02  0.30000000000E+02  0.47000000000E+01 0.  1.
</event>
<event>
 5    1  0.7693226E-002  0.6000000E+02  0.7546771E-02  0.1259629E+00
         11   -1    0    0    0    0  0.00000000000E+00  0.00000000000E+00  0.30000000000E+02  0.30000000000E+02  0.00000000000E+00 0.  1.
        -11   -1    0    0    0    0 -0.00000000000E+00 -0.00000000000E+00 -0.30000000000E+02  0.30000000000E+02  0.00000000000E+00 0. -1.
         23    2    1    2    0    0  0.00000000000E+00  0.00000000000E+00  0.00000000000E+00  0.60000000000E+02  0.60000000000E+02 0.  0.
          5    1    3    3  501    0  0.91310043296E+01 -0.27277259258E+02 -0.71053421666E+01  0.30000000000E+02  0.47000000000E+01 0. -1.
         -5    1    3    3    0  501 -0.91310043296E+01  0.27277259258E+02  0.71053421666E+01  0.30000000000E+02  0.47000000000E+01 0.  1.
</event>
<event>
 5    1  0.7693226E-002  0.6000000E+02  0.7546771E-02  0.1259629E+00
         11   -1    0    0    0    0  0.00000000000E+00  0.00000000000E+00  0.30000000000E+02  0.30000000000E+02  0.00000000000E+00 0.  1.
        -11   -1    0    0    0    0 -0.00000000000E+00 -0.00000000000E+00 -0.30000000000E+02  0.30000000000E+02  0.00000000000E+00 0. -1.
         23    2    1    2    0    0  0.00000000000E+00  0.00000000000E+00  0.00000000000E+00  0.60000000000E+02  0.60000000000E+02 0.  0.
          5    1    3    3  501    0  0.14075620849E+02 -0.25828230821E+02 -0.35622170602E+01  0.30000000000E+02  0.47000000000E+01 0. -1.
         -5    1    3    3    0  501 -0.14075620849E+02  0.25828230821E+02  0.35622170602E+01  0.30000000000E+02  0.47000000000E+01 0.  1.
</event>
<event>
 5    1  0.7693226E-002  0.6000000E+02  0.7546771E-02  0.1259629E+00
         11   -1    0    0    0    0  0.00000000000E+00  0.00000000000E+00  0.30000000000E+02  0.30000000000E+02  0.00000000000E+00 0. -1.
        -11   -1    0    0    0    0 -0.00000000000E+00 -0.00000000000E+00 -0.30000000000E+02  0.30000000000E+02  0.00000000000E+00 0.  1.
         23    2    1    2    0    0  0.00000000000E+00  0.00000000000E+00  0.00000000000E+00  0.60000000000E+02  0.60000000000E+02 0.  0.
          5    1    3    3  501    0 -0.43496931195E+01  0.24310501009E+02 -0.16370391273E+02  0.30000000000E+02  0.47000000000E+01 0.  1.
         -5    1    3    3    0  501  0.43496931195E+01 -0.24310501009E+02  0.16370391273E+02  0.30000000000E+02  0.47000000000E+01 0. -1.
</event>
<event>
 5    1  0.7693226E-002  0.6000000E+02  0.7546771E-02  0.1259629E+00
         11   -1    0    0    0    0  0.00000000000E+00  0.00000000000E+00  0.30000000000E+02  0.30000000000E+02  0.00000000000E+00 0.  1.
        -11   -1    0    0    0    0 -0.00000000000E+00 -0.00000000000E+00 -0.30000000000E+02  0.30000000000E+02  0.00000000000E+00 0. -1.
         23    2    1    2    0    0  0.00000000000E+00  0.00000000000E+00  0.00000000000E+00  0.60000000000E+02  0.60000000000E+02 0.  0.
          5    1    3    3  501    0 -0.21594094583E+02  0.34996620730E+01 -0.19983929657E+02  0.30000000000E+02  0.47000000000E+01 0. -1.
         -5    1    3    3    0  501  0.21594094583E+02 -0.34996620730E+01  0.19983929657E+02  0.30000000000E+02  0.47000000000E+01 0.  1.
</event>
<event>
 5    1  0.7693226E-002  0.6000000E+02  0.7546771E-02  0.1259629E+00
         11   -1    0    0    0    0  0.00000000000E+00  0.00000000000E+00  0.30000000000E+02  0.30000000000E+02  0.00000000000E+00 0.  1.
        -11   -1    0    0    0    0 -0.00000000000E+00 -0.00000000000E+00 -0.30000000000E+02  0.30000000000E+02  0.00000000000E+00 0. -1.
         23    2    1    2    0    0  0.00000000000E+00  0.00000000000E+00  0.00000000000E+00  0.60000000000E+02  0.60000000000E+02 0.  0.
          5    1    3    3  501    0  0.70482307156E+01  0.19343149884E+02 -0.21309035557E+02  0.30000000000E+02  0.47000000000E+01 0. -1.
         -5    1    3    3    0  501 -0.70482307156E+01 -0.19343149884E+02  0.21309035557E+02  0.30000000000E+02  0.47000000000E+01 0.  1.
</event>
<event>
 5    1  0.7693226E-002  0.6000000E+02  0.7546771E-02  0.1259629E+00
         11   -1    0    0    0    0  0.00000000000E+00  0.00000000000E+00  0.30000000000E+02  0.30000000000E+02  0.00000000000E+00 0.  1.
        -11   -1    0    0    0    0 -0.00000000000E+00 -0.00000000000E+00 -0.30000000000E+02  0.30000000000E+02  0.00000000000E+00 0. -1.
         23    2    1    2    0    0  0.00000000000E+00  0.00000000000E+00  0.00000000000E+00  0.60000000000E+02  0.60000000000E+02 0.  0.
          5    1    3    3  501    0  0.21704287134E+02 -0.15407266761E+02 -0.13017298143E+02  0.30000000000E+02  0.47000000000E+01 0. -1.
         -5    1    3    3    0  501 -0.21704287134E+02  0.15407266761E+02  0.13017298143E+02  0.30000000000E+02  0.47000000000E+01 0.  1.
</event>
<event>
 5    1  0.7693226E-002  0.6000000E+02  0.7546771E-02  0.1259629E+00
         11   -1    0    0    0    0  0.00000000000E+00  0.00000000000E+00  0.30000000000E+02  0.30000000000E+02  0.00000000000E+00 0.  1.
        -11   -1    0    0    0    0 -0.00000000000E+00 -0.00000000000E+00 -0.30000000000E+02  0.30000000000E+02  0.00000000000E+00 0. -1.
         23    2    1    2    0    0  0.00000000000E+00  0.00000000000E+00  0.00000000000E+00  0.60000000000E+02  0.60000000000E+02 0.  0.
          5    1    3    3  501    0 -0.11445838079E+02  0.36747913772E+01  0.27081334882E+02  0.30000000000E+02  0.47000000000E+01 0.  1.
         -5    1    3    3    0  501  0.11445838079E+02 -0.36747913772E+01 -0.27081334882E+02  0.30000000000E+02  0.47000000000E+01 0. -1.
</event>
<event>
 5    1  0.7693226E-002  0.6000000E+02  0.7546771E-02  0.1259629E+00
         11   -1    0    0    0    0  0.00000000000E+00  0.00000000000E+00  0.30000000000E+02  0.30000000000E+02  0.00000000000E+00 0.  1.
        -11   -1    0    0    0    0 -0.00000000000E+00 -0.00000000000E+00 -0.30000000000E+02  0.30000000000E+02  0.00000000000E+00 0. -1.
         23    2    1    2    0    0  0.00000000000E+00  0.00000000000E+00  0.00000000000E+00  0.60000000000E+02  0.60000000000E+02 0.  0.
          5    1    3    3  501    0 -0.36493960791E+01  0.47865852155E+01  0.29011730563E+02  0.30000000000E+02  0.47000000000E+01 0.  1.
         -5    1    3    3    0  501  0.36493960791E+01 -0.47865852155E+01 -0.29011730563E+02  0.30000000000E+02  0.47000000000E+01 0. -1.
</event>
<event>
 5    1  0.7693226E-002  0.6000000E+02  0.7546771E-02  0.1259629E+00
         11   -1    0    0    0    0  0.00000000000E+00  0.00000000000E+00  0.30000000000E+02  0.30000000000E+02  0.00000000000E+00 0. -1.
        -11   -1    0    0    0    0 -0.00000000000E+00 -0.00000000000E+00 -0.30000000000E+02  0.30000000000E+02  0.00000000000E+00 0.  1.
         23    2    1    2    0    0  0.00000000000E+00  0.00000000000E+00  0.00000000000E+00  0.60000000000E+02  0.60000000000E+02 0.  0.
          5    1    3    3  501    0 -0.85700446678E+01 -0.13567982548E+02  0.24907311858E+02  0.30000000000E+02  0.47000000000E+01 0. -1.
         -5    1    3    3    0  501  0.85700446678E+01  0.13567982548E+02 -0.24907311858E+02  0.30000000000E+02  0.47000000000E+01 0.  1.
</event>
<event>
 5    1  0.7693226E-002  0.6000000E+02  0.7546771E-02  0.1259629E+00
         11   -1    0    0    0    0  0.00000000000E+00  0.00000000000E+00  0.30000000000E+02  0.30000000000E+02  0.00000000000E+00 0.  1.
        -11   -1    0    0    0    0 -0.00000000000E+00 -0.00000000000E+00 -0.30000000000E+02  0.30000000000E+02  0.00000000000E+00 0. -1.
         23    2    1    2    0    0  0.00000000000E+00  0.00000000000E+00  0.00000000000E+00  0.60000000000E+02  0.60000000000E+02 0.  0.
          5    1    3    3  501    0  0.15844814158E+02  0.11156923838E+02 -0.22413721573E+02  0.30000000000E+02  0.47000000000E+01 0. -1.
         -5    1    3    3    0  501 -0.15844814158E+02 -0.11156923838E+02  0.22413721573E+02  0.30000000000E+02  0.47000000000E+01 0.  1.
</event>
<event>
 5    1  0.7693226E-002  0.6000000E+02  0.7546771E-02  0.1259629E+00
         11   -1    0    0    0    0  0.00000000000E+00  0.00000000000E+00  0.30000000000E+02  0.30000000000E+02  0.00000000000E+00 0. -1.
        -11   -1    0    0    0    0 -0.00000000000E+00 -0.00000000000E+00 -0.30000000000E+02  0.30000000000E+02  0.00000000000E+00 0.  1.
         23    2    1    2    0    0  0.00000000000E+00  0.00000000000E+00  0.00000000000E+00  0.60000000000E+02  0.60000000000E+02 0.  0.
          5    1    3    3  501    0 -0.28608162009E+02  0.16842059291E+01  0.75263880347E+01  0.30000000000E+02  0.47000000000E+01 0. -1.
         -5    1    3    3    0  501  0.28608162009E+02 -0.16842059291E+01 -0.75263880347E+01  0.30000000000E+02  0.47000000000E+01 0.  1.
</event>
<event>
 5    1  0.7693226E-002  0.6000000E+02  0.7546771E-02  0.1259629E+00
         11   -1    0    0    0    0  0.00000000000E+00  0.00000000000E+00  0.30000000000E+02  0.30000000000E+02  0.00000000000E+00 0.  1.
        -11   -1    0    0    0    0 -0.00000000000E+00 -0.00000000000E+00 -0.30000000000E+02  0.30000000000E+02  0.00000000000E+00 0. -1.
         23    2    1    2    0    0  0.00000000000E+00  0.00000000000E+00  0.00000000000E+00  0.60000000000E+02  0.60000000000E+02 0.  0.
          5    1    3    3  501    0 -0.10661139689E+02  0.13147218898E+02 -0.24318732199E+02  0.30000000000E+02  0.47000000000E+01 0. -1.
         -5    1    3    3    0  501  0.10661139689E+02 -0.13147218898E+02  0.24318732199E+02  0.30000000000E+02  0.47000000000E+01 0.  1.
</event>
<event>
 5    1  0.7693226E-002  0.6000000E+02  0.7546771E-02  0.1259629E+00
         11   -1    0    0    0    0  0.00000000000E+00  0.00000000000E+00  0.30000000000E+02  0.30000000000E+02  0.00000000000E+00 0.  1.
        -11   -1    0    0    0    0 -0.00000000000E+00 -0.00000000000E+00 -0.30000000000E+02  0.30000000000E+02  0.00000000000E+00 0. -1.
         23    2    1    2    0    0  0.00000000000E+00  0.00000000000E+00  0.00000000000E+00  0.60000000000E+02  0.60000000000E+02 0.  0.
          5    1    3    3  501    0 -0.20956051624E+02 -0.15192979023E+02 -0.14419684071E+02  0.30000000000E+02  0.47000000000E+01 0. -1.
         -5    1    3    3    0  501  0.20956051624E+02  0.15192979023E+02  0.14419684071E+02  0.30000000000E+02  0.47000000000E+01 0.  1.
</event>
