<event>
 4    1  0.7503339E-002  0.6000000E+02  0.7546771E-02  0.1259629E+00
         11   -1    0    0    0    0  0.00000000000E+00  0.00000000000E+00  0.30000000000E+02  0.30000000000E+02  0.00000000000E+00 0.  1.
        -11   -1    0    0    0    0 -0.00000000000E+00 -0.00000000000E+00 -0.30000000000E+02  0.30000000000E+02  0.00000000000E+00 0. -1.
          5    1    1    2  501    0  0.83928716494E+01 -0.66352081074E+01 -0.27630485317E+02  0.30000000000E+02  0.47000000000E+01 0. -1.
         -5    1    1    2    0  501 -0.83928716494E+01  0.66352081074E+01  0.27630485317E+02  0.30000000000E+02  0.47000000000E+01 0.  1.
</event>
<event>
 4    1  0.7503339E-002  0.6000000E+02  0.7546771E-02  0.1259629E+00
         11   -1    0    0    0    0  0.00000000000E+00  0.00000000000E+00  0.30000000000E+02  0.30000000000E+02  0.00000000000E+00 0.  1.
        -11   -1    0    0    0    0 -0.00000000000E+00 -0.00000000000E+00 -0.30000000000E+02  0.30000000000E+02  0.00000000000E+00 0. -1.
          5    1    1    2  501    0 -0.15825846156E+02 -0.23109223774E+02  0.96652144321E+01  0.30000000000E+02  0.47000000000E+01 0. -1.
         -5    1    1    2    0  501  0.15825846156E+02  0.23109223774E+02 -0.96652144321E+01  0.30000000000E+02  0.47000000000E+01 0.  1.
</event>
<event>
 4    1  0.7503339E-002  0.6000000E+02  0.7546771E-02  0.1259629E+00
         11   -1    0    0    0    0  0.00000000000E+00  0.00000000000E+00  0.30000000000E+02  0.30000000000E+02  0.00000000000E+00 0.  1.
        -11   -1    0    0    0    0 -0.00000000000E+00 -0.00000000000E+00 -0.30000000000E+02  0.30000000000E+02  0.00000000000E+00 0. -1.
          5    1    1    2  501    0  0.25084502056E+02 -0.11349727197E+01 -0.15728623383E+02  0.30000000000E+02  0.47000000000E+01 0. -1.
         -5    1    1    2    0  501 -0.25084502056E+02  0.11349727197E+01  0.15728623383E+02  0.30000000000E+02  0.47000000000E+01 0.  1.
</event>
<event>
 4    1  0.7503339E-002  0.6000000E+02  0.7546771E-02  0.1259629E+00
         11   -1    0    0    0    0  0.00000000000E+00  0.00000000000E+00  0.30000000000E+02  0.30000000000E+02  0.00000000000E+00 0.  1.
        -11   -1    0    0    0    0 -0.00000000000E+00 -0.00000000000E+00 -0.30000000000E+02  0.30000000000E+02  0.00000000000E+00 0. -1.
          5    1    1    2  501    0  0.67727913012E+01  0.20536593984E+02 -0.20255557399E+02  0.30000000000E+02  0.47000000000E+01 0. -1.
         -5    1    1    2    0  501 -0.67727913012E+01 -0.20536593984E+02  0.20255557399E+02  0.30000000000E+02  0.47000000000E+01 0.  1.
</event>
<event>
 4    1  0.7503339E-002  0.6000000E+02  0.7546771E-02  0.1259629E+00
         11   -1    0    0    0    0  0.00000000000E+00  0.00000000000E+00  0.30000000000E+02  0.30000000000E+02  0.00000000000E+00 0.  1.
        -11   -1    0    0    0    0 -0.00000000000E+00 -0.00000000000E+00 -0.30000000000E+02  0.30000000000E+02  0.00000000000E+00 0. -1.
          5    1    1    2  501    0 -0.28780689275E+02  0.61214530440E+01 -0.34799048103E+01  0.30000000000E+02  0.47000000000E+01 0. -1.
         -5    1    1    2    0  501  0.28780689275E+02 -0.61214530440E+01  0.34799048103E+01  0.30000000000E+02  0.47000000000E+01 0.  1.
</event>
<event>
 4    1  0.7503339E-002  0.6000000E+02  0.7546771E-02  0.1259629E+00
         11   -1    0    0    0    0  0.00000000000E+00  0.00000000000E+00  0.30000000000E+02  0.30000000000E+02  0.00000000000E+00 0.  1.
        -11   -1    0    0    0    0 -0.00000000000E+00 -0.00000000000E+00 -0.30000000000E+02  0.30000000000E+02  0.00000000000E+00 0. -1.
          5    1    1    2  501    0 -0.22499249006E+02 -0.12620914569E+02 -0.14574165829E+02  0.30000000000E+02  0.47000000000E+01 0. -1.
         -5    1    1    2    0  501  0.22499249006E+02  0.12620914569E+02  0.14574165829E+02  0.30000000000E+02  0.47000000000E+01 0.  1.
</event>
<event>
 4    1  0.7503339E-002  0.6000000E+02  0.7546771E-02  0.1259629E+00
         11   -1    0    0    0    0  0.00000000000E+00  0.00000000000E+00  0.30000000000E+02  0.30000000000E+02  0.00000000000E+00 0.  1.
        -11   -1    0    0    0    0 -0.00000000000E+00 -0.00000000000E+00 -0.30000000000E+02  0.30000000000E+02  0.00000000000E+00 0. -1.
          5    1    1    2  501    0 -0.29366069251E+02  0.36207048912E+01 -0.15602797308E+01  0.30000000000E+02  0.47000000000E+01 0. -1.
         -5    1    1    2    0  501  0.29366069251E+02 -0.36207048912E+01  0.15602797308E+01  0.30000000000E+02  0.47000000000E+01 0.  1.
</event>
<event>
 4    1  0.7503339E-002  0.6000000E+02  0.7546771E-02  0.1259629E+00
         11   -1    0    0    0    0  0.00000000000E+00  0.00000000000E+00  0.30000000000E+02  0.30000000000E+02  0.00000000000E+00 0.  1.
        -11   -1    0    0    0    0 -0.00000000000E+00 -0.00000000000E+00 -0.30000000000E+02  0.30000000000E+02  0.00000000000E+00 0. -1.
          5    1    1    2  501    0 -0.15469049834E+02 -0.20217029337E+02 -0.15162131183E+02  0.30000000000E+02  0.47000000000E+01 0. -1.
         -5    1    1    2    0  501  0.15469049834E+02  0.20217029337E+02  0.15162131183E+02  0.30000000000E+02  0.47000000000E+01 0.  1.
</event>
<event>
 4    1  0.7503339E-002  0.6000000E+02  0.7546771E-02  0.1259629E+00
         11   -1    0    0    0    0  0.00000000000E+00  0.00000000000E+00  0.30000000000E+02  0.30000000000E+02  0.00000000000E+00 0.  1.
        -11   -1    0    0    0    0 -0.00000000000E+00 -0.00000000000E+00 -0.30000000000E+02  0.30000000000E+02  0.00000000000E+00 0. -1.
          5    1    1    2  501    0 -0.27269687361E+02 -0.32559554507E+00  0.11583097114E+02  0.30000000000E+02  0.47000000000E+01 0. -1.
         -5    1    1    2    0  501  0.27269687361E+02  0.32559554507E+00 -0.11583097114E+02  0.30000000000E+02  0.47000000000E+01 0.  1.
</event>
<event>
 4    1  0.7503339E-002  0.6000000E+02  0.7546771E-02  0.1259629E+00
         11   -1    0    0    0    0  0.00000000000E+00  0.00000000000E+00  0.30000000000E+02  0.30000000000E+02  0.00000000000E+00 0.  1.
        -11   -1    0    0    0    0 -0.00000000000E+00 -0.00000000000E+00 -0.30000000000E+02  0.30000000000E+02  0.00000000000E+00 0. -1.
          5    1    1    2  501    0 -0.16149926574E+01  0.18491446974E+02 -0.23094765371E+02  0.30000000000E+02  0.47000000000E+01 0. -1.
         -5    1    1    2    0  501  0.16149926574E+01 -0.18491446974E+02  0.23094765371E+02  0.30000000000E+02  0.47000000000E+01 0.  1.
</event>
<event>
 4    1  0.7503339E-002  0.6000000E+02  0.7546771E-02  0.1259629E+00
         11   -1    0    0    0    0  0.00000000000E+00  0.00000000000E+00  0.30000000000E+02  0.30000000000E+02  0.00000000000E+00 0.  1.
        -11   -1    0    0    0    0 -0.00000000000E+00 -0.00000000000E+00 -0.30000000000E+02  0.30000000000E+02  0.00000000000E+00 0. -1.
          5    1    1    2  501    0 -0.19593648111E+02  0.41452956953E+01 -0.21836104902E+02  0.30000000000E+02  0.47000000000E+01 0. -1.
         -5    1    1    2    0  501  0.19593648111E+02 -0.41452956953E+01  0.21836104902E+02  0.30000000000E+02  0.47000000000E+01 0.  1.
</event>
<event>
 4    1  0.7503339E-002  0.6000000E+02  0.7546771E-02  0.1259629E+00
         11   -1    0    0    0    0  0.00000000000E+00  0.00000000000E+00  0.30000000000E+02  0.30000000000E+02  0.00000000000E+00 0.  1.
        -11   -1    0    0    0    0 -0.00000000000E+00 -0.00000000000E+00 -0.30000000000E+02  0.30000000000E+02  0.00000000000E+00 0. -1.
          5    1    1    2  501    0 -0.89279410705E+01  0.27861044957E+02  0.46865810694E+01  0.30000000000E+02  0.47000000000E+01 0. -1.
         -5    1    1    2    0  501  0.89279410705E+01 -0.27861044957E+02 -0.46865810694E+01  0.30000000000E+02  0.47000000000E+01 0.  1.
</event>
<event>
 4    1  0.7503339E-002  0.6000000E+02  0.7546771E-02  0.1259629E+00
         11   -1    0    0    0    0  0.00000000000E+00  0.00000000000E+00  0.30000000000E+02  0.30000000000E+02  0.00000000000E+00 0.  1.
        -11   -1    0    0    0    0 -0.00000000000E+00 -0.00000000000E+00 -0.30000000000E+02  0.30000000000E+02  0.00000000000E+00 0. -1.
          5    1    1    2  501    0 -0.17633864183E+02 -0.11800529980E+02 -0.20681013664E+02  0.30000000000E+02  0.47000000000E+01 0. -1.
         -5    1    1    2    0  501  0.17633864183E+02  0.11800529980E+02  0.20681013664E+02  0.30000000000E+02  0.47000000000E+01 0.  1.
</event>
<event>
 4    1  0.7503339E-002  0.6000000E+02  0.7546771E-02  0.1259629E+00
         11   -1    0    0    0    0  0.00000000000E+00  0.00000000000E+00  0.30000000000E+02  0.30000000000E+02  0.00000000000E+00 0. -1.
        -11   -1    0    0    0    0 -0.00000000000E+00 -0.00000000000E+00 -0.30000000000E+02  0.30000000000E+02  0.00000000000E+00 0.  1.
          5    1    1    2  501    0  0.10053306930E+02  0.92916242955E+01  0.26277494890E+02  0.30000000000E+02  0.47000000000E+01 0. -1.
         -5    1    1    2    0  501 -0.10053306930E+02 -0.92916242955E+01 -0.26277494890E+02  0.30000000000E+02  0.47000000000E+01 0.  1.
</event>
<event>
 4    1  0.7503339E-002  0.6000000E+02  0.7546771E-02  0.1259629E+00
         11   -1    0    0    0    0  0.00000000000E+00  0.00000000000E+00  0.30000000000E+02  0.30000000000E+02  0.00000000000E+00 0.  1.
        -11   -1    0    0    0    0 -0.00000000000E+00 -0.00000000000E+00 -0.30000000000E+02  0.30000000000E+02  0.00000000000E+00 0. -1.
          5    1    1    2  501    0 -0.16582327043E+02 -0.22984353777E+02  0.86403652304E+01  0.30000000000E+02  0.47000000000E+01 0. -1.
         -5    1    1    2    0  501  0.16582327043E+02  0.22984353777E+02 -0.86403652304E+01  0.30000000000E+02  0.47000000000E+01 0.  1.
</event>
<event>
 4    1  0.7503339E-002  0.6000000E+02  0.7546771E-02  0.1259629E+00
         11   -1    0    0    0    0  0.00000000000E+00  0.00000000000E+00  0.30000000000E+02  0.30000000000E+02  0.00000000000E+00 0.  1.
        -11   -1    0    0    0    0 -0.00000000000E+00 -0.00000000000E+00 -0.30000000000E+02  0.30000000000E+02  0.00000000000E+00 0. -1.
          5    1    1    2  501    0 -0.15467007373E+02 -0.10048648047E+02 -0.23188496186E+02  0.30000000000E+02  0.47000000000E+01 0. -1.
         -5    1    1    2    0  501  0.15467007373E+02  0.10048648047E+02  0.23188496186E+02  0.30000000000E+02  0.47000000000E+01 0.  1.
</event>
<event>
 4    1  0.7503339E-002  0.6000000E+02  0.7546771E-02  0.1259629E+00
         11   -1    0    0    0    0  0.00000000000E+00  0.00000000000E+00  0.30000000000E+02  0.30000000000E+02  0.00000000000E+00 0.  1.
        -11   -1    0    0    0    0 -0.00000000000E+00 -0.00000000000E+00 -0.30000000000E+02  0.30000000000E+02  0.00000000000E+00 0. -1.
          5    1    1    2  501    0  0.36121758517E+01  0.16253612742E+02 -0.24508820013E+02  0.30000000000E+02  0.47000000000E+01 0. -1.
         -5    1    1    2    0  501 -0.36121758517E+01 -0.16253612742E+02  0.24508820013E+02  0.30000000000E+02  0.47000000000E+01 0.  1.
</event>
<event>
 4    1  0.7503339E-002  0.6000000E+02  0.7546771E-02  0.1259629E+00
         11   -1    0    0    0    0  0.00000000000E+00  0.00000000000E+00  0.30000000000E+02  0.30000000000E+02  0.00000000000E+00 0.  1.
        -11   -1    0    0    0    0 -0.00000000000E+00 -0.00000000000E+00 -0.30000000000E+02  0.30000000000E+02  0.00000000000E+00 0. -1.
          5    1    1    2  501    0  0.20876791799E+02  0.15570295354E+02 -0.14129241551E+02  0.30000000000E+02  0.47000000000E+01 0. -1.
         -5    1    1    2    0  501 -0.20876791799E+02 -0.15570295354E+02  0.14129241551E+02  0.30000000000E+02  0.47000000000E+01 0.  1.
</event>
<event>
 4    1  0.7503339E-002  0.6000000E+02  0.7546771E-02  0.1259629E+00
         11   -1    0    0    0    0  0.00000000000E+00  0.00000000000E+00  0.30000000000E+02  0.30000000000E+02  0.00000000000E+00 0.  1.
        -11   -1    0    0    0    0 -0.00000000000E+00 -0.00000000000E+00 -0.30000000000E+02  0.30000000000E+02  0.00000000000E+00 0. -1.
          5    1    1    2  501    0  0.19640692359E+02  0.22183103448E+02  0.25124707556E+00  0.30000000000E+02  0.47000000000E+01 0. -1.
         -5    1    1    2    0  501 -0.19640692359E+02 -0.22183103448E+02 -0.25124707556E+00  0.30000000000E+02  0.47000000000E+01 0.  1.
</event>
<event>
 4    1  0.7503339E-002  0.6000000E+02  0.7546771E-02  0.1259629E+00
         11   -1    0    0    0    0  0.00000000000E+00  0.00000000000E+00  0.30000000000E+02  0.30000000000E+02  0.00000000000E+00 0.  1.
        -11   -1    0    0    0    0 -0.00000000000E+00 -0.00000000000E+00 -0.30000000000E+02  0.30000000000E+02  0.00000000000E+00 0. -1.
          5    1    1    2  501    0  0.13258400254E+02 -0.12208526967E+02 -0.23517582613E+02  0.30000000000E+02  0.47000000000E+01 0. -1.
         -5    1    1    2    0  501 -0.13258400254E+02  0.12208526967E+02  0.23517582613E+02  0.30000000000E+02  0.47000000000E+01 0.  1.
</event>
<event>
 4    1  0.7503339E-002  0.6000000E+02  0.7546771E-02  0.1259629E+00
         11   -1    0    0    0    0  0.00000000000E+00  0.00000000000E+00  0.30000000000E+02  0.30000000000E+02  0.00000000000E+00 0.  1.
        -11   -1    0    0    0    0 -0.00000000000E+00 -0.00000000000E+00 -0.30000000000E+02  0.30000000000E+02  0.00000000000E+00 0. -1.
          5    1    1    2  501    0  0.20207585546E+01  0.25059628908E+02 -0.15679334611E+02  0.30000000000E+02  0.47000000000E+01 0. -1.
         -5    1    1    2    0  501 -0.20207585546E+01 -0.25059628908E+02  0.15679334611E+02  0.30000000000E+02  0.47000000000E+01 0.  1.
</event>
<event>
 4    1  0.7503339E-002  0.6000000E+02  0.7546771E-02  0.1259629E+00
         11   -1    0    0    0    0  0.00000000000E+00  0.00000000000E+00  0.30000000000E+02  0.30000000000E+02  0.00000000000E+00 0.  1.
        -11   -1    0    0    0    0 -0.00000000000E+00 -0.00000000000E+00 -0.30000000000E+02  0.30000000000E+02  0.00000000000E+00 0. -1.
          5    1    1    2  501    0 -0.22387821747E+02 -0.15022096293E+02 -0.12289510177E+02  0.30000000000E+02  0.47000000000E+01 0. -1.
         -5    1    1    2    0  501  0.22387821747E+02  0.15022096293E+02  0.12289510177E+02  0.30000000000E+02  0.47000000000E+01 0.  1.
</event>
<event>
 4    1  0.7503339E-002  0.6000000E+02  0.7546771E-02  0.1259629E+00
         11   -1    0    0    0    0  0.00000000000E+00  0.00000000000E+00  0.30000000000E+02  0.30000000000E+02  0.00000000000E+00 0.  1.
        -11   -1    0    0    0    0 -0.00000000000E+00 -0.00000000000E+00 -0.30000000000E+02  0.30000000000E+02  0.00000000000E+00 0. -1.
          5    1    1    2  501    0 -0.21606909734E+02  0.15072311800E+02 -0.13560120529E+02  0.30000000000E+02  0.47000000000E+01 0. -1.
         -5    1    1    2    0  501  0.21606909734E+02 -0.15072311800E+02  0.13560120529E+02  0.30000000000E+02  0.47000000000E+01 0.  1.
</event>
<event>
 4    1  0.7503339E-002  0.6000000E+02  0.7546771E-02  0.1259629E+00
         11   -1    0    0    0    0  0.00000000000E+00  0.00000000000E+00  0.30000000000E+02  0.30000000000E+02  0.00000000000E+00 0.  1.
        -11   -1    0    0    0    0 -0.00000000000E+00 -0.00000000000E+00 -0.30000000000E+02  0.30000000000E+02  0.00000000000E+00 0. -1.
          5    1    1    2  501    0  0.21603391957E+02 -0.18868115119E+02  0.74295146416E+01  0.30000000000E+02  0.47000000000E+01 0. -1.
         -5    1    1    2    0  501 -0.21603391957E+02  0.18868115119E+02 -0.74295146416E+01  0.30000000000E+02  0.47000000000E+01 0.  1.
</event>
<event>
 4    1  0.7503339E-002  0.6000000E+02  0.7546771E-02  0.1259629E+00
         11   -1    0    0    0    0  0.00000000000E+00  0.00000000000E+00  0.30000000000E+02  0.30000000000E+02  0.00000000000E+00 0.  1.
        -11   -1    0    0    0    0 -0.00000000000E+00 -0.00000000000E+00 -0.30000000000E+02  0.30000000000E+02  0.00000000000E+00 0. -1.
          5    1    1    2  501    0 -0.36065269565E+01  0.11173831435E+02  0.27203831612E+02  0.30000000000E+02  0.47000000000E+01 0.  1.
         -5    1    1    2    0  501  0.36065269565E+01 -0.11173831435E+02 -0.27203831612E+02  0.30000000000E+02  0.47000000000E+01 0. -1.
</event>
<event>
 4    1  0.7503339E-002  0.6000000E+02  0.7546771E-02  0.1259629E+00
         11   -1    0    0    0    0  0.00000000000E+00  0.00000000000E+00  0.30000000000E+02  0.30000000000E+02  0.00000000000E+00 0.  1.
        -11   -1    0    0    0    0 -0.00000000000E+00 -0.00000000000E+00 -0.30000000000E+02  0.30000000000E+02  0.00000000000E+00 0. -1.
          5    1    1    2  501    0 -0.21116002919E+02  0.17765640876E+02 -0.10789180922E+02  0.30000000000E+02  0.47000000000E+01 0. -1.
         -5    1    1    2    0  501  0.21116002919E+02 -0.17765640876E+02  0.10789180922E+02  0.30000000000E+02  0.47000000000E+01 0.  1.
</event>
<event>
 4    1  0.7503339E-002  0.6000000E+02  0.7546771E-02  0.1259629E+00
         11   -1    0    0    0    0  0.00000000000E+00  0.00000000000E+00  0.30000000000E+02  0.30000000000E+02  0.00000000000E+00 0.  1.
        -11   -1    0    0    0    0 -0.00000000000E+00 -0.00000000000E+00 -0.30000000000E+02  0.30000000000E+02  0.00000000000E+00 0. -1.
          5    1    1    2  501    0 -0.16024434271E+01  0.72619884283E+01 -0.28681103520E+02  0.30000000000E+02  0.47000000000E+01 0. -1.
         -5    1    1    2    0  501  0.16024434271E+01 -0.72619884283E+01  0.28681103520E+02  0.30000000000E+02  0.47000000000E+01 0.  1.
</event>
<event>
 4    1  0.7503339E-002  0.6000000E+02  0.7546771E-02  0.1259629E+00
         11   -1    0    0    0    0  0.00000000000E+00  0.00000000000E+00  0.30000000000E+02  0.30000000000E+02  0.00000000000E+00 0.  1.
        -11   -1    0    0    0    0 -0.00000000000E+00 -0.00000000000E+00 -0.30000000000E+02  0.30000000000E+02  0.00000000000E+00 0. -1.
          5    1    1    2  501    0 -0.25764927013E+02  0.12556486938E+02 -0.75108702425E+01  0.30000000000E+02  0.47000000000E+01 0. -1.
         -5    1    1    2    0  501  0.25764927013E+02 -0.12556486938E+02  0.75108702425E+01  0.30000000000E+02  0.47000000000E+01 0.  1.
</event>
<event>
 4    1  0.7503339E-002  0.6000000E+02  0.7546771E-02  0.1259629E+00
         11   -1    0    0    0    0  0.00000000000E+00  0.00000000000E+00  0.30000000000E+02  0.30000000000E+02  0.00000000000E+00 0.  1.
        -11   -1    0    0    0    0 -0.00000000000E+00 -0.00000000000E+00 -0.30000000000E+02  0.30000000000E+02  0.00000000000E+00 0. -1.
          5    1    1    2  501    0  0.26559216130E+02  0.96375963542E+01  0.89238318604E+01  0.30000000000E+02  0.47000000000E+01 0.  1.
         -5    1    1    2    0  501 -0.26559216130E+02 -0.96375963542E+01 -0.89238318604E+01  0.30000000000E+02  0.47000000000E+01 0. -1.
</event>
<event>
 4    1  0.7503339E-002  0.6000000E+02  0.7546771E-02  0.1259629E+00
         11   -1    0    0    0    0  0.00000000000E+00  0.00000000000E+00  0.30000000000E+02  0.30000000000E+02  0.00000000000E+00 0. -1.
        -11   -1    0    0    0    0 -0.00000000000E+00 -0.00000000000E+00 -0.30000000000E+02  0.30000000000E+02  0.00000000000E+00 0.  1.
          5    1    1    2  501    0 -0.83346451583E+01  0.27488788961E+02 -0.72670607240E+01  0.30000000000E+02  0.47000000000E+01 0.  1.
         -5    1    1    2    0  501  0.83346451583E+01 -0.27488788961E+02  0.72670607240E+01  0.30000000000E+02  0.47000000000E+01 0. -1.
</event>
<event>
 4    1  0.7503339E-002  0.6000000E+02  0.7546771E-02  0.1259629E+00
         11   -1    0    0    0    0  0.00000000000E+00  0.00000000000E+00  0.30000000000E+02  0.30000000000E+02  0.00000000000E+00 0. -1.
        -11   -1    0    0    0    0 -0.00000000000E+00 -0.00000000000E+00 -0.30000000000E+02  0.30000000000E+02  0.00000000000E+00 0.  1.
          5    1    1    2  501    0 -0.25814241062E+02 -0.13096505899E+02 -0.63258589643E+01  0.30000000000E+02  0.47000000000E+01 0.  1.
         -5    1    1    2    0  501  0.25814241062E+02  0.13096505899E+02  0.63258589643E+01  0.30000000000E+02  0.47000000000E+01 0. -1.
</event>
<event>
 4    1  0.7503339E-002  0.6000000E+02  0.7546771E-02  0.1259629E+00
         11   -1    0    0    0    0  0.00000000000E+00  0.00000000000E+00  0.30000000000E+02  0.30000000000E+02  0.00000000000E+00 0.  1.
        -11   -1    0    0    0    0 -0.00000000000E+00 -0.00000000000E+00 -0.30000000000E+02  0.30000000000E+02  0.00000000000E+00 0. -1.
          5    1    1    2  501    0  0.19483102745E+02 -0.43135456555E+01 -0.21902329358E+02  0.30000000000E+02  0.47000000000E+01 0. -1.
         -5    1    1    2    0  501 -0.19483102745E+02  0.43135456555E+01  0.21902329358E+02  0.30000000000E+02  0.47000000000E+01 0.  1.
</event>
<event>
 4    1  0.7503339E-002  0.6000000E+02  0.7546771E-02  0.1259629E+00
         11   -1    0    0    0    0  0.00000000000E+00  0.00000000000E+00  0.30000000000E+02  0.30000000000E+02  0.00000000000E+00 0. -1.
        -11   -1    0    0    0    0 -0.00000000000E+00 -0.00000000000E+00 -0.30000000000E+02  0.30000000000E+02  0.00000000000E+00 0.  1.
          5    1    1    2  501    0  0.26085570405E+02  0.57467145761E+01 -0.12822959417E+02  0.30000000000E+02  0.47000000000E+01 0.  1.
         -5    1    1    2    0  501 -0.26085570405E+02 -0.57467145761E+01  0.12822959417E+02  0.30000000000E+02  0.47000000000E+01 0. -1.
</event>
<event>
 4    1  0.7503339E-002  0.6000000E+02  0.7546771E-02  0.1259629E+00
         11   -1    0    0    0    0  0.00000000000E+00  0.00000000000E+00  0.30000000000E+02  0.30000000000E+02  0.00000000000E+00 0. -1.
        -11   -1    0    0    0    0 -0.00000000000E+00 -0.00000000000E+00 -0.30000000000E+02  0.30000000000E+02  0.00000000000E+00 0.  1.
          5    1    1    2  501    0  0.21872104290E+01  0.14228376633E+02 -0.25897478814E+02  0.30000000000E+02  0.47000000000E+01 0.  1.
         -5    1    1    2    0  501 -0.21872104290E+01 -0.14228376633E+02  0.25897478814E+02  0.30000000000E+02  0.47000000000E+01 0. -1.
</event>
<event>
 4    1  0.7503339E-002  0.6000000E+02  0.7546771E-02  0.1259629E+00
         11   -1    0    0    0    0  0.00000000000E+00  0.00000000000E+00  0.30000000000E+02  0.30000000000E+02  0.00000000000E+00 0.  1.
        -11   -1    0    0    0    0 -0.00000000000E+00 -0.00000000000E+00 -0.30000000000E+02  0.30000000000E+02  0.00000000000E+00 0. -1.
          5    1    1    2  501    0  0.98251522394E+01 -0.16254764053E+02  0.22741130778E+02  0.30000000000E+02  0.47000000000E+01 0. -1.
         -5    1    1    2    0  501 -0.98251522394E+01  0.16254764053E+02 -0.22741130778E+02  0.30000000000E+02  0.47000000000E+01 0.  1.
</event>
<event>
 4    1  0.7503339E-002  0.6000000E+02  0.7546771E-02  0.1259629E+00
         11   -1    0    0    0    0  0.00000000000E+00  0.00000000000E+00  0.30000000000E+02  0.30000000000E+02  0.00000000000E+00 0.  1.
        -11   -1    0    0    0    0 -0.00000000000E+00 -0.00000000000E+00 -0.30000000000E+02  0.30000000000E+02  0.00000000000E+00 0. -1.
          5    1    1    2  501    0 -0.87374177217E+01  0.33163032909E+00 -0.28310025660E+02  0.30000000000E+02  0.47000000000E+01 0. -1.
         -5    1    1    2    0  501  0.87374177217E+01 -0.33163032909E+00  0.28310025660E+02  0.30000000000E+02  0.47000000000E+01 0.  1.
</event>
<event>
 4    1  0.7503339E-002  0.6000000E+02  0.7546771E-02  0.1259629E+00
         11   -1    0    0    0    0  0.00000000000E+00  0.00000000000E+00  0.30000000000E+02  0.30000000000E+02  0.00000000000E+00 0. -1.
        -11   -1    0    0    0    0 -0.00000000000E+00 -0.00000000000E+00 -0.30000000000E+02  0.30000000000E+02  0.00000000000E+00 0.  1.
          5    1    1    2  501    0 -0.81908621436E+01  0.98780133420E+01 -0.26706640181E+02  0.30000000000E+02  0.47000000000E+01 0.  1.
         -5    1    1    2    0  501  0.81908621436E+01 -0.98780133420E+01  0.26706640181E+02  0.30000000000E+02  0.47000000000E+01 0. -1.
</event>
<event>
 4    1  0.7503339E-002  0.6000000E+02  0.7546771E-02  0.1259629E+00
         11   -1    0    0    0    0  0.00000000000E+00  0.00000000000E+00  0.30000000000E+02  0.30000000000E+02  0.00000000000E+00 0.  1.
        -11   -1    0    0    0    0 -0.00000000000E+00 -0.00000000000E+00 -0.30000000000E+02  0.30000000000E+02  0.00000000000E+00 0. -1.
          5    1    1    2  501    0 -0.86563083773E+01  0.31457163036E+01 -0.28161725697E+02  0.30000000000E+02  0.47000000000E+01 0. -1.
         -5    1    1    2    0  501  0.86563083773E+01 -0.31457163036E+01  0.28161725697E+02  0.30000000000E+02  0.47000000000E+01 0.  1.
</event>
<event>
 4    1  0.7503339E-002  0.6000000E+02  0.7546771E-02  0.1259629E+00
         11   -1    0    0    0    0  0.00000000000E+00  0.00000000000E+00  0.30000000000E+02  0.30000000000E+02  0.00000000000E+00 0.  1.
        -11   -1    0    0    0    0 -0.00000000000E+00 -0.00000000000E+00 -0.30000000000E+02  0.30000000000E+02  0.00000000000E+00 0. -1.
          5    1    1    2  501    0 -0.15861320464E+02 -0.50030975203E+01 -0.24521368810E+02  0.30000000000E+02  0.47000000000E+01 0. -1.
         -5    1    1    2    0  501  0.15861320464E+02  0.50030975203E+01  0.24521368810E+02  0.30000000000E+02  0.47000000000E+01 0.  1.
</event>
<event>
 4    1  0.7503339E-002  0.6000000E+02  0.7546771E-02  0.1259629E+00
         11   -1    0    0    0    0  0.00000000000E+00  0.00000000000E+00  0.30000000000E+02  0.30000000000E+02  0.00000000000E+00 0.  1.
        -11   -1    0    0    0    0 -0.00000000000E+00 -0.00000000000E+00 -0.30000000000E+02  0.30000000000E+02  0.00000000000E+00 0. -1.
          5    1    1    2  501    0  0.22300575513E+02  0.17893485666E+02 -0.77728696436E+01  0.30000000000E+02  0.47000000000E+01 0. -1.
         -5    1    1    2    0  501 -0.22300575513E+02 -0.17893485666E+02  0.77728696436E+01  0.30000000000E+02  0.47000000000E+01 0.  1.
</event>
<event>
 4    1  0.7503339E-002  0.6000000E+02  0.7546771E-02  0.1259629E+00
         11   -1    0    0    0    0  0.00000000000E+00  0.00000000000E+00  0.30000000000E+02  0.30000000000E+02  0.00000000000E+00 0.  1.
        -11   -1    0    0    0    0 -0.00000000000E+00 -0.00000000000E+00 -0.30000000000E+02  0.30000000000E+02  0.00000000000E+00 0. -1.
          5    1    1    2  501    0 -0.52350455624E+01  0.28592699846E+02 -0.57412379732E+01  0.30000000000E+02  0.47000000000E+01 0. -1.
         -5    1    1    2    0  501  0.52350455624E+01 -0.28592699846E+02  0.57412379732E+01  0.30000000000E+02  0.47000000000E+01 0.  1.
</event>
<event>
 4    1  0.7503339E-002  0.6000000E+02  0.7546771E-02  0.1259629E+00
         11   -1    0    0    0    0  0.00000000000E+00  0.00000000000E+00  0.30000000000E+02  0.30000000000E+02  0.00000000000E+00 0.  1.
        -11   -1    0    0    0    0 -0.00000000000E+00 -0.00000000000E+00 -0.30000000000E+02  0.30000000000E+02  0.00000000000E+00 0. -1.
          5    1    1    2  501    0  0.28507953273E+02  0.76692531636E+01  0.25276780014E+01  0.30000000000E+02  0.47000000000E+01 0.  1.
         -5    1    1    2    0  501 -0.28507953273E+02 -0.76692531636E+01 -0.25276780014E+01  0.30000000000E+02  0.47000000000E+01 0. -1.
</event>
<event>
 4    1  0.7503339E-002  0.6000000E+02  0.7546771E-02  0.1259629E+00
         11   -1    0    0    0    0  0.00000000000E+00  0.00000000000E+00  0.30000000000E+02  0.30000000000E+02  0.00000000000E+00 0.  1.
        -11   -1    0    0    0    0 -0.00000000000E+00 -0.00000000000E+00 -0.30000000000E+02  0.30000000000E+02  0.00000000000E+00 0. -1.
          5    1    1    2  501    0 -0.13187809960E+02 -0.56031456391E+01 -0.25934464086E+02  0.30000000000E+02  0.47000000000E+01 0. -1.
         -5    1    1    2    0  501  0.13187809960E+02  0.56031456391E+01  0.25934464086E+02  0.30000000000E+02  0.47000000000E+01 0.  1.
</event>
<event>
 4    1  0.7503339E-002  0.6000000E+02  0.7546771E-02  0.1259629E+00
         11   -1    0    0    0    0  0.00000000000E+00  0.00000000000E+00  0.30000000000E+02  0.30000000000E+02  0.00000000000E+00 0. -1.
        -11   -1    0    0    0    0 -0.00000000000E+00 -0.00000000000E+00 -0.30000000000E+02  0.30000000000E+02  0.00000000000E+00 0.  1.
          5    1    1    2  501    0  0.19634980807E+02  0.96640812835E+01  0.19974560362E+02  0.30000000000E+02  0.47000000000E+01 0. -1.
         -5    1    1    2    0  501 -0.19634980807E+02 -0.96640812835E+01 -0.19974560362E+02  0.30000000000E+02  0.47000000000E+01 0.  1.
</event>
<event>
 4    1  0.7503339E-002  0.6000000E+02  0.7546771E-02  0.1259629E+00
         11   -1    0    0    0    0  0.00000000000E+00  0.00000000000E+00  0.30000000000E+02  0.30000000000E+02  0.00000000000E+00 0.  1.
        -11   -1    0    0    0    0 -0.00000000000E+00 -0.00000000000E+00 -0.30000000000E+02  0.30000000000E+02  0.00000000000E+00 0. -1.
          5    1    1    2  501    0 -0.14747495399E+02 -0.23160888048E+02 -0.11135288246E+02  0.30000000000E+02  0.47000000000E+01 0. -1.
         -5    1    1    2    0  501  0.14747495399E+02  0.23160888048E+02  0.11135288246E+02  0.30000000000E+02  0.47000000000E+01 0.  1.
</event>
<event>
 4    1  0.7503339E-002  0.6000000E+02  0.7546771E-02  0.1259629E+00
         11   -1    0    0    0    0  0.00000000000E+00  0.00000000000E+00  0.30000000000E+02  0.30000000000E+02  0.00000000000E+00 0.  1.
        -11   -1    0    0    0    0 -0.00000000000E+00 -0.00000000000E+00 -0.30000000000E+02  0.30000000000E+02  0.00000000000E+00 0. -1.
          5    1    1    2  501    0  0.13019698958E+02 -0.23592962096E+02  0.12319479640E+02  0.30000000000E+02  0.47000000000E+01 0.  1.
         -5    1    1    2    0  501 -0.13019698958E+02  0.23592962096E+02 -0.12319479640E+02  0.30000000000E+02  0.47000000000E+01 0. -1.
</event>
<event>
 4    1  0.7503339E-002  0.6000000E+02  0.7546771E-02  0.1259629E+00
         11   -1    0    0    0    0  0.00000000000E+00  0.00000000000E+00  0.30000000000E+02  0.30000000000E+02  0.00000000000E+00 0.  1.
        -11   -1    0    0    0    0 -0.00000000000E+00 -0.00000000000E+00 -0.30000000000E+02  0.30000000000E+02  0.00000000000E+00 0. -1.
          5    1    1    2  501    0  0.85720801228E+01  0.67871296215E+01 -0.27538415239E+02  0.30000000000E+02  0.47000000000E+01 0. -1.
         -5    1    1    2    0  501 -0.85720801228E+01 -0.67871296215E+01  0.27538415239E+02  0.30000000000E+02  0.47000000000E+01 0.  1.
</event>
<event>
 4    1  0.7503339E-002  0.6000000E+02  0.7546771E-02  0.1259629E+00
         11   -1    0    0    0    0  0.00000000000E+00  0.00000000000E+00  0.30000000000E+02  0.30000000000E+02  0.00000000000E+00 0.  1.
        -11   -1    0    0    0    0 -0.00000000000E+00 -0.00000000000E+00 -0.30000000000E+02  0.30000000000E+02  0.00000000000E+00 0. -1.
          5    1    1    2  501    0  0.44048287374E+01  0.29230502098E+02 -0.20211954147E+01  0.30000000000E+02  0.47000000000E+01 0. -1.
         -5    1    1    2    0  501 -0.44048287374E+01 -0.29230502098E+02  0.20211954147E+01  0.30000000000E+02  0.47000000000E+01 0.  1.
</event>
<event>
 4    1  0.7503339E-002  0.6000000E+02  0.7546771E-02  0.1259629E+00
         11   -1    0    0    0    0  0.00000000000E+00  0.00000000000E+00  0.30000000000E+02  0.30000000000E+02  0.00000000000E+00 0.  1.
        -11   -1    0    0    0    0 -0.00000000000E+00 -0.00000000000E+00 -0.30000000000E+02  0.30000000000E+02  0.00000000000E+00 0. -1.
          5    1    1    2  501    0  0.45730922235E+01 -0.27450451907E+02  0.10171996738E+02  0.30000000000E+02  0.47000000000E+01 0. -1.
         -5    1    1    2    0  501 -0.45730922235E+01  0.27450451907E+02 -0.10171996738E+02  0.30000000000E+02  0.47000000000E+01 0.  1.
</event>
<event>
 4    1  0.7503339E-002  0.6000000E+02  0.7546771E-02  0.1259629E+00
         11   -1    0    0    0    0  0.00000000000E+00  0.00000000000E+00  0.30000000000E+02  0.30000000000E+02  0.00000000000E+00 0. -1.
        -11   -1    0    0    0    0 -0.00000000000E+00 -0.00000000000E+00 -0.30000000000E+02  0.30000000000E+02  0.00000000000E+00 0.  1.
          5    1    1    2  501    0  0.95988389975E+01  0.24662947108E+02 -0.13323337789E+02  0.30000000000E+02  0.47000000000E+01 0. -1.
         -5    1    1    2    0  501 -0.95988389975E+01 -0.24662947108E+02  0.13323337789E+02  0.30000000000E+02  0.47000000000E+01 0.  1.
</event>
<event>
 4    1  0.7503339E-002  0.6000000E+02  0.7546771E-02  0.1259629E+00
         11   -1    0    0    0    0  0.00000000000E+00  0.00000000000E+00  0.30000000000E+02  0.30000000000E+02  0.00000000000E+00 0.  1.
        -11   -1    0    0    0    0 -0.00000000000E+00 -0.00000000000E+00 -0.30000000000E+02  0.30000000000E+02  0.00000000000E+00 0. -1.
          5    1    1    2  501    0  0.17230163067E+01 -0.25031321214E+02 -0.15759891279E+02  0.30000000000E+02  0.47000000000E+01 0. -1.
         -5    1    1    2    0  501 -0.17230163067E+01  0.25031321214E+02  0.15759891279E+02  0.30000000000E+02  0.47000000000E+01 0.  1.
</event>
<event>
 4    1  0.7503339E-002  0.6000000E+02  0.7546771E-02  0.1259629E+00
         11   -1    0    0    0    0  0.00000000000E+00  0.00000000000E+00  0.30000000000E+02  0.30000000000E+02  0.00000000000E+00 0.  1.
        -11   -1    0    0    0    0 -0.00000000000E+00 -0.00000000000E+00 -0.30000000000E+02  0.30000000000E+02  0.00000000000E+00 0. -1.
          5    1    1    2  501    0 -0.11185996025E+02  0.20585410363E+02 -0.18139029001E+02  0.30000000000E+02  0.47000000000E+01 0.  1.
         -5    1    1    2    0  501  0.11185996025E+02 -0.20585410363E+02  0.18139029001E+02  0.30000000000E+02  0.47000000000E+01 0. -1.
</event>
<event>
 4    1  0.7503339E-002  0.6000000E+02  0.7546771E-02  0.1259629E+00
         11   -1    0    0    0    0  0.00000000000E+00  0.00000000000E+00  0.30000000000E+02  0.30000000000E+02  0.00000000000E+00 0. -1.
        -11   -1    0    0    0    0 -0.00000000000E+00 -0.00000000000E+00 -0.30000000000E+02  0.30000000000E+02  0.00000000000E+00 0.  1.
          5    1    1    2  501    0 -0.82699960250E+01 -0.16770638246E+02 -0.22983969600E+02  0.30000000000E+02  0.47000000000E+01 0.  1.
         -5    1    1    2    0  501  0.82699960250E+01  0.16770638246E+02  0.22983969600E+02  0.30000000000E+02  0.47000000000E+01 0. -1.
</event>
<event>
 4    1  0.7503339E-002  0.6000000E+02  0.7546771E-02  0.1259629E+00
         11   -1    0    0    0    0  0.00000000000E+00  0.00000000000E+00  0.30000000000E+02  0.30000000000E+02  0.00000000000E+00 0.  1.
        -11   -1    0    0    0    0 -0.00000000000E+00 -0.00000000000E+00 -0.30000000000E+02  0.30000000000E+02  0.00000000000E+00 0. -1.
          5    1    1    2  501    0 -0.96506455375E+01 -0.12740258990E+02 -0.24949165148E+02  0.30000000000E+02  0.47000000000E+01 0. -1.
         -5    1    1    2    0  501  0.96506455375E+01  0.12740258990E+02  0.24949165148E+02  0.30000000000E+02  0.47000000000E+01 0.  1.
</event>
<event>
 4    1  0.7503339E-002  0.6000000E+02  0.7546771E-02  0.1259629E+00
         11   -1    0    0    0    0  0.00000000000E+00  0.00000000000E+00  0.30000000000E+02  0.30000000000E+02  0.00000000000E+00 0.  1.
        -11   -1    0    0    0    0 -0.00000000000E+00 -0.00000000000E+00 -0.30000000000E+02  0.30000000000E+02  0.00000000000E+00 0. -1.
          5    1    1    2  501    0 -0.87121688593E+01  0.15966794147E+02 -0.23389518986E+02  0.30000000000E+02  0.47000000000E+01 0. -1.
         -5    1    1    2    0  501  0.87121688593E+01 -0.15966794147E+02  0.23389518986E+02  0.30000000000E+02  0.47000000000E+01 0.  1.
</event>
<event>
 4    1  0.7503339E-002  0.6000000E+02  0.7546771E-02  0.1259629E+00
         11   -1    0    0    0    0  0.00000000000E+00  0.00000000000E+00  0.30000000000E+02  0.30000000000E+02  0.00000000000E+00 0.  1.
        -11   -1    0    0    0    0 -0.00000000000E+00 -0.00000000000E+00 -0.30000000000E+02  0.30000000000E+02  0.00000000000E+00 0. -1.
          5    1    1    2  501    0  0.26070006168E+02  0.12499946557E+02  0.64819838386E+01  0.30000000000E+02  0.47000000000E+01 0.  1.
         -5    1    1    2    0  501 -0.26070006168E+02 -0.12499946557E+02 -0.64819838386E+01  0.30000000000E+02  0.47000000000E+01 0. -1.
</event>
<event>
 4    1  0.7503339E-002  0.6000000E+02  0.7546771E-02  0.1259629E+00
         11   -1    0    0    0    0  0.00000000000E+00  0.00000000000E+00  0.30000000000E+02  0.30000000000E+02  0.00000000000E+00 0.  1.
        -11   -1    0    0    0    0 -0.00000000000E+00 -0.00000000000E+00 -0.30000000000E+02  0.30000000000E+02  0.00000000000E+00 0. -1.
          5    1    1    2  501    0  0.26165928679E+02  0.19100755278E+01  0.13769741749E+02  0.30000000000E+02  0.47000000000E+01 0. -1.
         -5    1    1    2    0  501 -0.26165928679E+02 -0.19100755278E+01 -0.13769741749E+02  0.30000000000E+02  0.47000000000E+01 0.  1.
</event>
<event>
 4    1  0.7503339E-002  0.6000000E+02  0.7546771E-02  0.1259629E+00
         11   -1    0    0    0    0  0.00000000000E+00  0.00000000000E+00  0.30000000000E+02  0.30000000000E+02  0.00000000000E+00 0.  1.
        -11   -1    0    0    0    0 -0.00000000000E+00 -0.00000000000E+00 -0.30000000000E+02  0.30000000000E+02  0.00000000000E+00 0. -1.
          5    1    1    2  501    0 -0.26684823551E+02 -0.69261979229E+01 -0.10856241265E+02  0.30000000000E+02  0.47000000000E+01 0. -1.
         -5    1    1    2    0  501  0.26684823551E+02  0.69261979229E+01  0.10856241265E+02  0.30000000000E+02  0.47000000000E+01 0.  1.
</event>
<event>
 4    1  0.7503339E-002  0.6000000E+02  0.7546771E-02  0.1259629E+00
         11   -1    0    0    0    0  0.00000000000E+00  0.00000000000E+00  0.30000000000E+02  0.30000000000E+02  0.00000000000E+00 0.  1.
        -11   -1    0    0    0    0 -0.00000000000E+00 -0.00000000000E+00 -0.30000000000E+02  0.30000000000E+02  0.00000000000E+00 0. -1.
          5    1    1    2  501    0  0.12274485476E+01  0.77554570264E+00 -0.29593950377E+02  0.30000000000E+02  0.47000000000E+01 0. -1.
         -5    1    1    2    0  501 -0.12274485476E+01 -0.77554570264E+00  0.29593950377E+02  0.30000000000E+02  0.47000000000E+01 0.  1.
</event>
<event>
 4    1  0.7503339E-002  0.6000000E+02  0.7546771E-02  0.1259629E+00
         11   -1    0    0    0    0  0.00000000000E+00  0.00000000000E+00  0.30000000000E+02  0.30000000000E+02  0.00000000000E+00 0. -1.
        -11   -1    0    0    0    0 -0.00000000000E+00 -0.00000000000E+00 -0.30000000000E+02  0.30000000000E+02  0.00000000000E+00 0.  1.
          5    1    1    2  501    0  0.22427675211E+02 -0.18057122997E+02 -0.69892555905E+01  0.30000000000E+02  0.47000000000E+01 0.  1.
         -5    1    1    2    0  501 -0.22427675211E+02  0.18057122997E+02  0.69892555905E+01  0.30000000000E+02  0.47000000000E+01 0. -1.
</event>
<event>
 4    1  0.7503339E-002  0.6000000E+02  0.7546771E-02  0.1259629E+00
         11   -1    0    0    0    0  0.00000000000E+00  0.00000000000E+00  0.30000000000E+02  0.30000000000E+02  0.00000000000E+00 0.  1.
        -11   -1    0    0    0    0 -0.00000000000E+00 -0.00000000000E+00 -0.30000000000E+02  0.30000000000E+02  0.00000000000E+00 0. -1.
          5    1    1    2  501    0  0.20784351504E+01 -0.20060956164E+02  0.21705947229E+02  0.30000000000E+02  0.47000000000E+01 0.  1.
         -5    1    1    2    0  501 -0.20784351504E+01  0.20060956164E+02 -0.21705947229E+02  0.30000000000E+02  0.47000000000E+01 0. -1.
</event>
<event>
 4    1  0.7503339E-002  0.6000000E+02  0.7546771E-02  0.1259629E+00
         11   -1    0    0    0    0  0.00000000000E+00  0.00000000000E+00  0.30000000000E+02  0.30000000000E+02  0.00000000000E+00 0.  1.
        -11   -1    0    0    0    0 -0.00000000000E+00 -0.00000000000E+00 -0.30000000000E+02  0.30000000000E+02  0.00000000000E+00 0. -1.
          5    1    1    2  501    0  0.15540065191E+02  0.98794194620E+01 -0.23212355437E+02  0.30000000000E+02  0.47000000000E+01 0. -1.
         -5    1    1    2    0  501 -0.15540065191E+02 -0.98794194620E+01  0.23212355437E+02  0.30000000000E+02  0.47000000000E+01 0.  1.
</event>
<event>
 4    1  0.7503339E-002  0.6000000E+02  0.7546771E-02  0.1259629E+00
         11   -1    0    0    0    0  0.00000000000E+00  0.00000000000E+00  0.30000000000E+02  0.30000000000E+02  0.00000000000E+00 0. -1.
        -11   -1    0    0    0    0 -0.00000000000E+00 -0.00000000000E+00 -0.30000000000E+02  0.30000000000E+02  0.00000000000E+00 0.  1.
          5    1    1    2  501    0  0.18625040552E+02 -0.23011066328E+02 -0.12282877791E+01  0.30000000000E+02  0.47000000000E+01 0.  1.
         -5    1    1    2    0  501 -0.18625040552E+02  0.23011066328E+02  0.12282877791E+01  0.30000000000E+02  0.47000000000E+01 0. -1.
</event>
<event>
 4    1  0.7503339E-002  0.6000000E+02  0.7546771E-02  0.1259629E+00
         11   -1    0    0    0    0  0.00000000000E+00  0.00000000000E+00  0.30000000000E+02  0.30000000000E+02  0.00000000000E+00 0.  1.
        -11   -1    0    0    0    0 -0.00000000000E+00 -0.00000000000E+00 -0.30000000000E+02  0.30000000000E+02  0.00000000000E+00 0. -1.
          5    1    1    2  501    0 -0.16542370972E+02 -0.72755897527E+01 -0.23480327008E+02  0.30000000000E+02  0.47000000000E+01 0. -1.
         -5    1    1    2    0  501  0.16542370972E+02  0.72755897527E+01  0.23480327008E+02  0.30000000000E+02  0.47000000000E+01 0.  1.
</event>
<event>
 4    1  0.7503339E-002  0.6000000E+02  0.7546771E-02  0.1259629E+00
         11   -1    0    0    0    0  0.00000000000E+00  0.00000000000E+00  0.30000000000E+02  0.30000000000E+02  0.00000000000E+00 0.  1.
        -11   -1    0    0    0    0 -0.00000000000E+00 -0.00000000000E+00 -0.30000000000E+02  0.30000000000E+02  0.00000000000E+00 0. -1.
          5    1    1    2  501    0 -0.18529581628E+02  0.96583992191E+01 -0.21006663924E+02  0.30000000000E+02  0.47000000000E+01 0. -1.
         -5    1    1    2    0  501  0.18529581628E+02 -0.96583992191E+01  0.21006663924E+02  0.30000000000E+02  0.47000000000E+01 0.  1.
</event>
<event>
 4    1  0.7503339E-002  0.6000000E+02  0.7546771E-02  0.1259629E+00
         11   -1    0    0    0    0  0.00000000000E+00  0.00000000000E+00  0.30000000000E+02  0.30000000000E+02  0.00000000000E+00 0.  1.
        -11   -1    0    0    0    0 -0.00000000000E+00 -0.00000000000E+00 -0.30000000000E+02  0.30000000000E+02  0.00000000000E+00 0. -1.
          5    1    1    2  501    0 -0.38186845594E+01  0.26312893249E+02 -0.13075140424E+02  0.30000000000E+02  0.47000000000E+01 0. -1.
         -5    1    1    2    0  501  0.38186845594E+01 -0.26312893249E+02  0.13075140424E+02  0.30000000000E+02  0.47000000000E+01 0.  1.
</event>
<event>
 4    1  0.7503339E-002  0.6000000E+02  0.7546771E-02  0.1259629E+00
         11   -1    0    0    0    0  0.00000000000E+00  0.00000000000E+00  0.30000000000E+02  0.30000000000E+02  0.00000000000E+00 0.  1.
        -11   -1    0    0    0    0 -0.00000000000E+00 -0.00000000000E+00 -0.30000000000E+02  0.30000000000E+02  0.00000000000E+00 0. -1.
          5    1    1    2  501    0 -0.13747242571E+02 -0.57307046150E+01 -0.25614104441E+02  0.30000000000E+02  0.47000000000E+01 0. -1.
         -5    1    1    2    0  501  0.13747242571E+02  0.57307046150E+01  0.25614104441E+02  0.30000000000E+02  0.47000000000E+01 0.  1.
</event>
<event>
 4    1  0.7503339E-002  0.6000000E+02  0.7546771E-02  0.1259629E+00
         11   -1    0    0    0    0  0.00000000000E+00  0.00000000000E+00  0.30000000000E+02  0.30000000000E+02  0.00000000000E+00 0.  1.
        -11   -1    0    0    0    0 -0.00000000000E+00 -0.00000000000E+00 -0.30000000000E+02  0.30000000000E+02  0.00000000000E+00 0. -1.
          5    1    1    2  501    0  0.92095083614E+01  0.28094937544E+02 -0.19415046116E+01  0.30000000000E+02  0.47000000000E+01 0. -1.
         -5    1    1    2    0  501 -0.92095083614E+01 -0.28094937544E+02  0.19415046116E+01  0.30000000000E+02  0.47000000000E+01 0.  1.
</event>
<event>
 4    1  0.7503339E-002  0.6000000E+02  0.7546771E-02  0.1259629E+00
         11   -1    0    0    0    0  0.00000000000E+00  0.00000000000E+00  0.30000000000E+02  0.30000000000E+02  0.00000000000E+00 0. -1.
        -11   -1    0    0    0    0 -0.00000000000E+00 -0.00000000000E+00 -0.30000000000E+02  0.30000000000E+02  0.00000000000E+00 0.  1.
          5    1    1    2  501    0  0.49752825518E-01  0.14989168744E+02 -0.25558410456E+02  0.30000000000E+02  0.47000000000E+01 0.  1.
         -5    1    1    2    0  501 -0.49752825518E-01 -0.14989168744E+02  0.25558410456E+02  0.30000000000E+02  0.47000000000E+01 0. -1.
</event>
<event>
 4    1  0.7503339E-002  0.6000000E+02  0.7546771E-02  0.1259629E+00
         11   -1    0    0    0    0  0.00000000000E+00  0.00000000000E+00  0.30000000000E+02  0.30000000000E+02  0.00000000000E+00 0.  1.
        -11   -1    0    0    0    0 -0.00000000000E+00 -0.00000000000E+00 -0.30000000000E+02  0.30000000000E+02  0.00000000000E+00 0. -1.
          5    1    1    2  501    0 -0.24178511294E+02  0.15856353829E+02 -0.64719112197E+01  0.30000000000E+02  0.47000000000E+01 0. -1.
         -5    1    1    2    0  501  0.24178511294E+02 -0.15856353829E+02  0.64719112197E+01  0.30000000000E+02  0.47000000000E+01 0.  1.
</event>
<event>
 4    1  0.7503339E-002  0.6000000E+02  0.7546771E-02  0.1259629E+00
         11   -1    0    0    0    0  0.00000000000E+00  0.00000000000E+00  0.30000000000E+02  0.30000000000E+02  0.00000000000E+00 0.  1.
        -11   -1    0    0    0    0 -0.00000000000E+00 -0.00000000000E+00 -0.30000000000E+02  0.30000000000E+02  0.00000000000E+00 0. -1.
          5    1    1    2  501    0  0.23171358455E+02 -0.12119715445E+02 -0.13932359631E+02  0.30000000000E+02  0.47000000000E+01 0. -1.
         -5    1    1    2    0  501 -0.23171358455E+02  0.12119715445E+02  0.13932359631E+02  0.30000000000E+02  0.47000000000E+01 0.  1.
</event>
<event>
 4    1  0.7503339E-002  0.6000000E+02  0.7546771E-02  0.1259629E+00
         11   -1    0    0    0    0  0.00000000000E+00  0.00000000000E+00  0.30000000000E+02  0.30000000000E+02  0.00000000000E+00 0.  1.
        -11   -1    0    0    0    0 -0.00000000000E+00 -0.00000000000E+00 -0.30000000000E+02  0.30000000000E+02  0.00000000000E+00 0. -1.
          5    1    1    2  501    0 -0.20288038246E+02 -0.19737420128E+02 -0.87601227634E+01  0.30000000000E+02  0.47000000000E+01 0. -1.
         -5    1    1    2    0  501  0.20288038246E+02  0.19737420128E+02  0.87601227634E+01  0.30000000000E+02  0.47000000000E+01 0.  1.
</event>
<event>
 4    1  0.7503339E-002  0.6000000E+02  0.7546771E-02  0.1259629E+00
         11   -1    0    0    0    0  0.00000000000E+00  0.00000000000E+00  0.30000000000E+02  0.30000000000E+02  0.00000000000E+00 0.  1.
        -11   -1    0    0    0    0 -0.00000000000E+00 -0.00000000000E+00 -0.30000000000E+02  0.30000000000E+02  0.00000000000E+00 0. -1.
          5    1    1    2  501    0  0.65670602950E+01 -0.16413765166E+02 -0.23777553115E+02  0.30000000000E+02  0.47000000000E+01 0. -1.
         -5    1    1    2    0  501 -0.65670602950E+01  0.16413765166E+02  0.23777553115E+02  0.30000000000E+02  0.47000000000E+01 0.  1.
</event>
<event>
 4    1  0.7503339E-002  0.6000000E+02  0.7546771E-02  0.1259629E+00
         11   -1    0    0    0    0  0.00000000000E+00  0.00000000000E+00  0.30000000000E+02  0.30000000000E+02  0.00000000000E+00 0.  1.
        -11   -1    0    0    0    0 -0.00000000000E+00 -0.00000000000E+00 -0.30000000000E+02  0.30000000000E+02  0.00000000000E+00 0. -1.
          5    1    1    2  501    0  0.24291383430E+02  0.14195122176E+02 -0.92917811783E+01  0.30000000000E+02  0.47000000000E+01 0. -1.
         -5    1    1    2    0  501 -0.24291383430E+02 -0.14195122176E+02  0.92917811783E+01  0.30000000000E+02  0.47000000000E+01 0.  1.
</event>
<event>
 4    1  0.7503339E-002  0.6000000E+02  0.7546771E-02  0.1259629E+00
         11   -1    0    0    0    0  0.00000000000E+00  0.00000000000E+00  0.30000000000E+02  0.30000000000E+02  0.00000000000E+00 0.  1.
        -11   -1    0    0    0    0 -0.00000000000E+00 -0.00000000000E+00 -0.30000000000E+02  0.30000000000E+02  0.00000000000E+00 0. -1.
          5    1    1    2  501    0  0.24432997444E+02 -0.14577541797E+02  0.82724791370E+01  0.30000000000E+02  0.47000000000E+01 0.  1.
         -5    1    1    2    0  501 -0.24432997444E+02  0.14577541797E+02 -0.82724791370E+01  0.30000000000E+02  0.47000000000E+01 0. -1.
</event>
<event>
 4    1  0.7503339E-002  0.6000000E+02  0.7546771E-02  0.1259629E+00
         11   -1    0    0    0    0  0.00000000000E+00  0.00000000000E+00  0.30000000000E+02  0.30000000000E+02  0.00000000000E+00 0.  1.
        -11   -1    0    0    0    0 -0.00000000000E+00 -0.00000000000E+00 -0.30000000000E+02  0.30000000000E+02  0.00000000000E+00 0. -1.
          5    1    1    2  501    0 -0.28047523059E+02 -0.44983873491E+01 -0.84268001946E+01  0.30000000000E+02  0.47000000000E+01 0. -1.
         -5    1    1    2    0  501  0.28047523059E+02  0.44983873491E+01  0.84268001946E+01  0.30000000000E+02  0.47000000000E+01 0.  1.
</event>
<event>
 4    1  0.7503339E-002  0.6000000E+02  0.7546771E-02  0.1259629E+00
         11   -1    0    0    0    0  0.00000000000E+00  0.00000000000E+00  0.30000000000E+02  0.30000000000E+02  0.00000000000E+00 0.  1.
        -11   -1    0    0    0    0 -0.00000000000E+00 -0.00000000000E+00 -0.30000000000E+02  0.30000000000E+02  0.00000000000E+00 0. -1.
          5    1    1    2  501    0  0.11273242177E+02  0.26256284634E+02 -0.78378267414E+01  0.30000000000E+02  0.47000000000E+01 0. -1.
         -5    1    1    2    0  501 -0.11273242177E+02 -0.26256284634E+02  0.78378267414E+01  0.30000000000E+02  0.47000000000E+01 0.  1.
</event>
<event>
 4    1  0.7503339E-002  0.6000000E+02  0.7546771E-02  0.1259629E+00
         11   -1    0    0    0    0  0.00000000000E+00  0.00000000000E+00  0.30000000000E+02  0.30000000000E+02  0.00000000000E+00 0.  1.
        -11   -1    0    0    0    0 -0.00000000000E+00 -0.00000000000E+00 -0.30000000000E+02  0.30000000000E+02  0.00000000000E+00 0. -1.
          5    1    1    2  501    0  0.10384578207E+02  0.19466246912E+02 -0.19777152642E+02  0.30000000000E+02  0.47000000000E+01 0. -1.
         -5    1    1    2    0  501 -0.10384578207E+02 -0.19466246912E+02  0.19777152642E+02  0.30000000000E+02  0.47000000000E+01 0.  1.
</event>
<event>
 4    1  0.7503339E-002  0.6000000E+02  0.7546771E-02  0.1259629E+00
         11   -1    0    0    0    0  0.00000000000E+00  0.00000000000E+00  0.30000000000E+02  0.30000000000E+02  0.00000000000E+00 0. -1.
        -11   -1    0    0    0    0 -0.00000000000E+00 -0.00000000000E+00 -0.30000000000E+02  0.30000000000E+02  0.00000000000E+00 0.  1.
          5    1    1    2  501    0 -0.19164154196E+02 -0.53137385761E+01 -0.21963819711E+02  0.30000000000E+02  0.47000000000E+01 0.  1.
         -5    1    1    2    0  501  0.19164154196E+02  0.53137385761E+01  0.21963819711E+02  0.30000000000E+02  0.47000000000E+01 0. -1.
</event>
<event>
 4    1  0.7503339E-002  0.6000000E+02  0.7546771E-02  0.1259629E+00
         11   -1    0    0    0    0  0.00000000000E+00  0.00000000000E+00  0.30000000000E+02  0.30000000000E+02  0.00000000000E+00 0.  1.
        -11   -1    0    0    0    0 -0.00000000000E+00 -0.00000000000E+00 -0.30000000000E+02  0.30000000000E+02  0.00000000000E+00 0. -1.
          5    1    1    2  501    0 -0.73905281212E+01 -0.28067045208E+02 -0.59607941893E+01  0.30000000000E+02  0.47000000000E+01 0. -1.
         -5    1    1    2    0  501  0.73905281212E+01  0.28067045208E+02  0.59607941893E+01  0.30000000000E+02  0.47000000000E+01 0.  1.
</event>
<event>
 4    1  0.7503339E-002  0.6000000E+02  0.7546771E-02  0.1259629E+00
         11   -1    0    0    0    0  0.00000000000E+00  0.00000000000E+00  0.30000000000E+02  0.30000000000E+02  0.00000000000E+00 0.  1.
        -11   -1    0    0    0    0 -0.00000000000E+00 -0.00000000000E+00 -0.30000000000E+02  0.30000000000E+02  0.00000000000E+00 0. -1.
          5    1    1    2  501    0  0.17170740000E+02 -0.88946476943E+01 -0.22449074152E+02  0.30000000000E+02  0.47000000000E+01 0. -1.
         -5    1    1    2    0  501 -0.17170740000E+02  0.88946476943E+01  0.22449074152E+02  0.30000000000E+02  0.47000000000E+01 0.  1.
</event>
<event>
 4    1  0.7503339E-002  0.6000000E+02  0.7546771E-02  0.1259629E+00
         11   -1    0    0    0    0  0.00000000000E+00  0.00000000000E+00  0.30000000000E+02  0.30000000000E+02  0.00000000000E+00 0.  1.
        -11   -1    0    0    0    0 -0.00000000000E+00 -0.00000000000E+00 -0.30000000000E+02  0.30000000000E+02  0.00000000000E+00 0. -1.
          5    1    1    2  501    0 -0.21898599445E+01 -0.10186346287E+02  0.27737210796E+02  0.30000000000E+02  0.47000000000E+01 0.  1.
         -5    1    1    2    0  501  0.21898599445E+01  0.10186346287E+02 -0.27737210796E+02  0.30000000000E+02  0.47000000000E+01 0. -1.
</event>
<event>
 4    1  0.7503339E-002  0.6000000E+02  0.7546771E-02  0.1259629E+00
         11   -1    0    0    0    0  0.00000000000E+00  0.00000000000E+00  0.30000000000E+02  0.30000000000E+02  0.00000000000E+00 0. -1.
        -11   -1    0    0    0    0 -0.00000000000E+00 -0.00000000000E+00 -0.30000000000E+02  0.30000000000E+02  0.00000000000E+00 0.  1.
          5    1    1    2  501    0 -0.24365844732E+01 -0.16475932901E+02 -0.24505442072E+02  0.30000000000E+02  0.47000000000E+01 0.  1.
         -5    1    1    2    0  501  0.24365844732E+01  0.16475932901E+02  0.24505442072E+02  0.30000000000E+02  0.47000000000E+01 0. -1.
</event>
<event>
 4    1  0.7503339E-002  0.6000000E+02  0.7546771E-02  0.1259629E+00
         11   -1    0    0    0    0  0.00000000000E+00  0.00000000000E+00  0.30000000000E+02  0.30000000000E+02  0.00000000000E+00 0.  1.
        -11   -1    0    0    0    0 -0.00000000000E+00 -0.00000000000E+00 -0.30000000000E+02  0.30000000000E+02  0.00000000000E+00 0. -1.
          5    1    1    2  501    0 -0.67697729635E+01  0.12991537785E+02 -0.25754613567E+02  0.30000000000E+02  0.47000000000E+01 0. -1.
         -5    1    1    2    0  501  0.67697729635E+01 -0.12991537785E+02  0.25754613567E+02  0.30000000000E+02  0.47000000000E+01 0.  1.
</event>
<event>
 4    1  0.7503339E-002  0.6000000E+02  0.7546771E-02  0.1259629E+00
         11   -1    0    0    0    0  0.00000000000E+00  0.00000000000E+00  0.30000000000E+02  0.30000000000E+02  0.00000000000E+00 0.  1.
        -11   -1    0    0    0    0 -0.00000000000E+00 -0.00000000000E+00 -0.30000000000E+02  0.30000000000E+02  0.00000000000E+00 0. -1.
          5    1    1    2  501    0  0.97864192627E+01  0.27936478572E+02 -0.12996780318E+01  0.30000000000E+02  0.47000000000E+01 0. -1.
         -5    1    1    2    0  501 -0.97864192627E+01 -0.27936478572E+02  0.12996780318E+01  0.30000000000E+02  0.47000000000E+01 0.  1.
</event>
<event>
 4    1  0.7503339E-002  0.6000000E+02  0.7546771E-02  0.1259629E+00
         11   -1    0    0    0    0  0.00000000000E+00  0.00000000000E+00  0.30000000000E+02  0.30000000000E+02  0.00000000000E+00 0.  1.
        -11   -1    0    0    0    0 -0.00000000000E+00 -0.00000000000E+00 -0.30000000000E+02  0.30000000000E+02  0.00000000000E+00 0. -1.
          5    1    1    2  501    0  0.29057961588E+02  0.49053373838E+01  0.30793722542E+01  0.30000000000E+02  0.47000000000E+01 0. -1.
         -5    1    1    2    0  501 -0.29057961588E+02 -0.49053373838E+01 -0.30793722542E+01  0.30000000000E+02  0.47000000000E+01 0.  1.
</event>
<event>
 4    1  0.7503339E-002  0.6000000E+02  0.7546771E-02  0.1259629E+00
         11   -1    0    0    0    0  0.00000000000E+00  0.00000000000E+00  0.30000000000E+02  0.30000000000E+02  0.00000000000E+00 0.  1.
        -11   -1    0    0    0    0 -0.00000000000E+00 -0.00000000000E+00 -0.30000000000E+02  0.30000000000E+02  0.00000000000E+00 0. -1.
          5    1    1    2  501    0  0.24508269155E+02  0.10601273368E+02 -0.12840083567E+02  0.30000000000E+02  0.47000000000E+01 0. -1.
         -5    1    1    2    0  501 -0.24508269155E+02 -0.10601273368E+02  0.12840083567E+02  0.30000000000E+02  0.47000000000E+01 0.  1.
</event>
<event>
 4    1  0.7503339E-002  0.6000000E+02  0.7546771E-02  0.1259629E+00
         11   -1    0    0    0    0  0.00000000000E+00  0.00000000000E+00  0.30000000000E+02  0.30000000000E+02  0.00000000000E+00 0.  1.
        -11   -1    0    0    0    0 -0.00000000000E+00 -0.00000000000E+00 -0.30000000000E+02  0.30000000000E+02  0.00000000000E+00 0. -1.
          5    1    1    2  501    0 -0.18518007748E+01 -0.95594290819E+01 -0.27983890893E+02  0.30000000000E+02  0.47000000000E+01 0. -1.
         -5    1    1    2    0  501  0.18518007748E+01  0.95594290819E+01  0.27983890893E+02  0.30000000000E+02  0.47000000000E+01 0.  1.
</event>
<event>
 4    1  0.7503339E-002  0.6000000E+02  0.7546771E-02  0.1259629E+00
         11   -1    0    0    0    0  0.00000000000E+00  0.00000000000E+00  0.30000000000E+02  0.30000000000E+02  0.00000000000E+00 0.  1.
        -11   -1    0    0    0    0 -0.00000000000E+00 -0.00000000000E+00 -0.30000000000E+02  0.30000000000E+02  0.00000000000E+00 0. -1.
          5    1    1    2  501    0  0.51376520291E+00 -0.74559553539E+00 -0.29615707532E+02  0.30000000000E+02  0.47000000000E+01 0. -1.
         -5    1    1    2    0  501 -0.51376520291E+00  0.74559553539E+00  0.29615707532E+02  0.30000000000E+02  0.47000000000E+01 0.  1.
</event>
<event>
 4    1  0.7503339E-002  0.6000000E+02  0.7546771E-02  0.1259629E+00
         11   -1    0    0    0    0  0.00000000000E+00  0.00000000000E+00  0.30000000000E+02  0.30000000000E+02  0.00000000000E+00 0.  1.
        -11   -1    0    0    0    0 -0.00000000000E+00 -0.00000000000E+00 -0.30000000000E+02  0.30000000000E+02  0.00000000000E+00 0. -1.
          5    1    1    2  501    0  0.14473321908E+02 -0.25031069771E+02  0.64713599092E+01  0.30000000000E+02  0.47000000000E+01 0.  1.
         -5    1    1    2    0  501 -0.14473321908E+02  0.25031069771E+02 -0.64713599092E+01  0.30000000000E+02  0.47000000000E+01 0. -1.
</event>
<event>
 4    1  0.7503339E-002  0.6000000E+02  0.7546771E-02  0.1259629E+00
         11   -1    0    0    0    0  0.00000000000E+00  0.00000000000E+00  0.30000000000E+02  0.30000000000E+02  0.00000000000E+00 0.  1.
        -11   -1    0    0    0    0 -0.00000000000E+00 -0.00000000000E+00 -0.30000000000E+02  0.30000000000E+02  0.00000000000E+00 0. -1.
          5    1    1    2  501    0 -0.16649180635E+02  0.58103354403E+00  0.24502595458E+02  0.30000000000E+02  0.47000000000E+01 0.  1.
         -5    1    1    2    0  501  0.16649180635E+02 -0.58103354403E+00 -0.24502595458E+02  0.30000000000E+02  0.47000000000E+01 0. -1.
</event>
<event>
 4    1  0.7503339E-002  0.6000000E+02  0.7546771E-02  0.1259629E+00
         11   -1    0    0    0    0  0.00000000000E+00  0.00000000000E+00  0.30000000000E+02  0.30000000000E+02  0.00000000000E+00 0.  1.
        -11   -1    0    0    0    0 -0.00000000000E+00 -0.00000000000E+00 -0.30000000000E+02  0.30000000000E+02  0.00000000000E+00 0. -1.
          5    1    1    2  501    0 -0.14461883575E+01 -0.15554074762E+02 -0.25177158250E+02  0.30000000000E+02  0.47000000000E+01 0. -1.
         -5    1    1    2    0  501  0.14461883575E+01  0.15554074762E+02  0.25177158250E+02  0.30000000000E+02  0.47000000000E+01 0.  1.
</event>
<event>
 4    1  0.7503339E-002  0.6000000E+02  0.7546771E-02  0.1259629E+00
         11   -1    0    0    0    0  0.00000000000E+00  0.00000000000E+00  0.30000000000E+02  0.30000000000E+02  0.00000000000E+00 0.  1.
        -11   -1    0    0    0    0 -0.00000000000E+00 -0.00000000000E+00 -0.30000000000E+02  0.30000000000E+02  0.00000000000E+00 0. -1.
          5    1    1    2  501    0  0.10627236095E+02 -0.14471428204E+02 -0.23570100100E+02  0.30000000000E+02  0.47000000000E+01 0. -1.
         -5    1    1    2    0  501 -0.10627236095E+02  0.14471428204E+02  0.23570100100E+02  0.30000000000E+02  0.47000000000E+01 0.  1.
</event>
<event>
 4    1  0.7503339E-002  0.6000000E+02  0.7546771E-02  0.1259629E+00
         11   -1    0    0    0    0  0.00000000000E+00  0.00000000000E+00  0.30000000000E+02  0.30000000000E+02  0.00000000000E+00 0.  1.
        -11   -1    0    0    0    0 -0.00000000000E+00 -0.00000000000E+00 -0.30000000000E+02  0.30000000000E+02  0.00000000000E+00 0. -1.
          5    1    1    2  501    0  0.19132275399E+02  0.74463687234E+01 -0.21363932945E+02  0.30000000000E+02  0.47000000000E+01 0. -1.
         -5    1    1    2    0  501 -0.19132275399E+02 -0.74463687234E+01  0.21363932945E+02  0.30000000000E+02  0.47000000000E+01 0.  1.
</event>
<event>
 4    1  0.7503339E-002  0.6000000E+02  0.7546771E-02  0.1259629E+00
         11   -1    0    0    0    0  0.00000000000E+00  0.00000000000E+00  0.30000000000E+02  0.30000000000E+02  0.00000000000E+00 0. -1.
        -11   -1    0    0    0    0 -0.00000000000E+00 -0.00000000000E+00 -0.30000000000E+02  0.30000000000E+02  0.00000000000E+00 0.  1.
          5    1    1    2  501    0  0.54951398064E+01  0.54522061650E+00 -0.29110413480E+02  0.30000000000E+02  0.47000000000E+01 0.  1.
         -5    1    1    2    0  501 -0.54951398064E+01 -0.54522061650E+00  0.29110413480E+02  0.30000000000E+02  0.47000000000E+01 0. -1.
</event>
<event>
 4    1  0.7503339E-002  0.6000000E+02  0.7546771E-02  0.1259629E+00
         11   -1    0    0    0    0  0.00000000000E+00  0.00000000000E+00  0.30000000000E+02  0.30000000000E+02  0.00000000000E+00 0.  1.
        -11   -1    0    0    0    0 -0.00000000000E+00 -0.00000000000E+00 -0.30000000000E+02  0.30000000000E+02  0.00000000000E+00 0. -1.
          5    1    1    2  501    0 -0.70527922061E+01 -0.63666304729E+01 -0.28064820301E+02  0.30000000000E+02  0.47000000000E+01 0. -1.
         -5    1    1    2    0  501  0.70527922061E+01  0.63666304729E+01  0.28064820301E+02  0.30000000000E+02  0.47000000000E+01 0.  1.
</event>
<event>
 4    1  0.7503339E-002  0.6000000E+02  0.7546771E-02  0.1259629E+00
         11   -1    0    0    0    0  0.00000000000E+00  0.00000000000E+00  0.30000000000E+02  0.30000000000E+02  0.00000000000E+00 0.  1.
        -11   -1    0    0    0    0 -0.00000000000E+00 -0.00000000000E+00 -0.30000000000E+02  0.30000000000E+02  0.00000000000E+00 0. -1.
          5    1    1    2  501    0 -0.38393874046E+01 -0.91947903772E+01  0.27903851603E+02  0.30000000000E+02  0.47000000000E+01 0.  1.
         -5    1    1    2    0  501  0.38393874046E+01  0.91947903772E+01 -0.27903851603E+02  0.30000000000E+02  0.47000000000E+01 0. -1.
</event>
<event>
 4    1  0.7503339E-002  0.6000000E+02  0.7546771E-02  0.1259629E+00
         11   -1    0    0    0    0  0.00000000000E+00  0.00000000000E+00  0.30000000000E+02  0.30000000000E+02  0.00000000000E+00 0.  1.
        -11   -1    0    0    0    0 -0.00000000000E+00 -0.00000000000E+00 -0.30000000000E+02  0.30000000000E+02  0.00000000000E+00 0. -1.
          5    1    1    2  501    0  0.74982116566E+01 -0.17081615158E+02  0.23019670839E+02  0.30000000000E+02  0.47000000000E+01 0.  1.
         -5    1    1    2    0  501 -0.74982116566E+01  0.17081615158E+02 -0.23019670839E+02  0.30000000000E+02  0.47000000000E+01 0. -1.
</event>
<event>
 4    1  0.7503339E-002  0.6000000E+02  0.7546771E-02  0.1259629E+00
         11   -1    0    0    0    0  0.00000000000E+00  0.00000000000E+00  0.30000000000E+02  0.30000000000E+02  0.00000000000E+00 0.  1.
        -11   -1    0    0    0    0 -0.00000000000E+00 -0.00000000000E+00 -0.30000000000E+02  0.30000000000E+02  0.00000000000E+00 0. -1.
          5    1    1    2  501    0 -0.37191267802E+01 -0.28104665853E+02 -0.86142819350E+01  0.30000000000E+02  0.47000000000E+01 0. -1.
         -5    1    1    2    0  501  0.37191267802E+01  0.28104665853E+02  0.86142819350E+01  0.30000000000E+02  0.47000000000E+01 0.  1.
</event>
<event>
 4    1  0.7503339E-002  0.6000000E+02  0.7546771E-02  0.1259629E+00
         11   -1    0    0    0    0  0.00000000000E+00  0.00000000000E+00  0.30000000000E+02  0.30000000000E+02  0.00000000000E+00 0.  1.
        -11   -1    0    0    0    0 -0.00000000000E+00 -0.00000000000E+00 -0.30000000000E+02  0.30000000000E+02  0.00000000000E+00 0. -1.
          5    1    1    2  501    0 -0.25642410899E+02 -0.13346519682E+02  0.64997827420E+01  0.30000000000E+02  0.47000000000E+01 0. -1.
         -5    1    1    2    0  501  0.25642410899E+02  0.13346519682E+02 -0.64997827420E+01  0.30000000000E+02  0.47000000000E+01 0.  1.
</event>
<event>
 4    1  0.7503339E-002  0.6000000E+02  0.7546771E-02  0.1259629E+00
         11   -1    0    0    0    0  0.00000000000E+00  0.00000000000E+00  0.30000000000E+02  0.30000000000E+02  0.00000000000E+00 0.  1.
        -11   -1    0    0    0    0 -0.00000000000E+00 -0.00000000000E+00 -0.30000000000E+02  0.30000000000E+02  0.00000000000E+00 0. -1.
          5    1    1    2  501    0  0.38494370183E+01 -0.89561026578E+01 -0.27979993921E+02  0.30000000000E+02  0.47000000000E+01 0. -1.
         -5    1    1    2    0  501 -0.38494370183E+01  0.89561026578E+01  0.27979993921E+02  0.30000000000E+02  0.47000000000E+01 0.  1.
</event>
<event>
 4    1  0.7503339E-002  0.6000000E+02  0.7546771E-02  0.1259629E+00
         11   -1    0    0    0    0  0.00000000000E+00  0.00000000000E+00  0.30000000000E+02  0.30000000000E+02  0.00000000000E+00 0.  1.
        -11   -1    0    0    0    0 -0.00000000000E+00 -0.00000000000E+00 -0.30000000000E+02  0.30000000000E+02  0.00000000000E+00 0. -1.
          5    1    1    2  501    0  0.54080438011E+01 -0.27205094265E+02 -0.10418536764E+02  0.30000000000E+02  0.47000000000E+01 0. -1.
         -5    1    1    2    0  501 -0.54080438011E+01  0.27205094265E+02  0.10418536764E+02  0.30000000000E+02  0.47000000000E+01 0.  1.
</event>
<event>
 4    1  0.7503339E-002  0.6000000E+02  0.7546771E-02  0.1259629E+00
         11   -1    0    0    0    0  0.00000000000E+00  0.00000000000E+00  0.30000000000E+02  0.30000000000E+02  0.00000000000E+00 0.  1.
        -11   -1    0    0    0    0 -0.00000000000E+00 -0.00000000000E+00 -0.30000000000E+02  0.30000000000E+02  0.00000000000E+00 0. -1.
          5    1    1    2  501    0  0.19503480898E+02 -0.22007698542E+02 -0.36311758066E+01  0.30000000000E+02  0.47000000000E+01 0. -1.
         -5    1    1    2    0  501 -0.19503480898E+02  0.22007698542E+02  0.36311758066E+01  0.30000000000E+02  0.47000000000E+01 0.  1.
</event>
<event>
 4    1  0.7503339E-002  0.6000000E+02  0.7546771E-02  0.1259629E+00
         11   -1    0    0    0    0  0.00000000000E+00  0.00000000000E+00  0.30000000000E+02  0.30000000000E+02  0.00000000000E+00 0.  1.
        -11   -1    0    0    0    0 -0.00000000000E+00 -0.00000000000E+00 -0.30000000000E+02  0.30000000000E+02  0.00000000000E+00 0. -1.
          5    1    1    2  501    0 -0.63325755828E+01 -0.94259226588E+01 -0.27367142133E+02  0.30000000000E+02  0.47000000000E+01 0. -1.
         -5    1    1    2    0  501  0.63325755828E+01  0.94259226588E+01  0.27367142133E+02  0.30000000000E+02  0.47000000000E+01 0.  1.
</event>
<event>
 4    1  0.7503339E-002  0.6000000E+02  0.7546771E-02  0.1259629E+00
         11   -1    0    0    0    0  0.00000000000E+00  0.00000000000E+00  0.30000000000E+02  0.30000000000E+02  0.00000000000E+00 0.  1.
        -11   -1    0    0    0    0 -0.00000000000E+00 -0.00000000000E+00 -0.30000000000E+02  0.30000000000E+02  0.00000000000E+00 0. -1.
          5    1    1    2  501    0  0.95043595628E+01 -0.29429222822E+01 -0.27909073036E+02  0.30000000000E+02  0.47000000000E+01 0. -1.
         -5    1    1    2    0  501 -0.95043595628E+01  0.29429222822E+01  0.27909073036E+02  0.30000000000E+02  0.47000000000E+01 0.  1.
</event>
<event>
 4    1  0.7503339E-002  0.6000000E+02  0.7546771E-02  0.1259629E+00
         11   -1    0    0    0    0  0.00000000000E+00  0.00000000000E+00  0.30000000000E+02  0.30000000000E+02  0.00000000000E+00 0.  1.
        -11   -1    0    0    0    0 -0.00000000000E+00 -0.00000000000E+00 -0.30000000000E+02  0.30000000000E+02  0.00000000000E+00 0. -1.
          5    1    1    2  501    0  0.28050377862E+02 -0.79168602180E+00 -0.95110217663E+01  0.30000000000E+02  0.47000000000E+01 0. -1.
         -5    1    1    2    0  501 -0.28050377862E+02  0.79168602180E+00  0.95110217663E+01  0.30000000000E+02  0.47000000000E+01 0.  1.
</event>
<event>
 4    1  0.7503339E-002  0.6000000E+02  0.7546771E-02  0.1259629E+00
         11   -1    0    0    0    0  0.00000000000E+00  0.00000000000E+00  0.30000000000E+02  0.30000000000E+02  0.00000000000E+00 0.  1.
        -11   -1    0    0    0    0 -0.00000000000E+00 -0.00000000000E+00 -0.30000000000E+02  0.30000000000E+02  0.00000000000E+00 0. -1.
          5    1    1    2  501    0 -0.19709313690E+02  0.57211134462E+01  0.21371050859E+02  0.30000000000E+02  0.47000000000E+01 0.  1.
         -5    1    1    2    0  501  0.19709313690E+02 -0.57211134462E+01 -0.21371050859E+02  0.30000000000E+02  0.47000000000E+01 0. -1.
</event>
<event>
 4    1  0.7503339E-002  0.6000000E+02  0.7546771E-02  0.1259629E+00
         11   -1    0    0    0    0  0.00000000000E+00  0.00000000000E+00  0.30000000000E+02  0.30000000000E+02  0.00000000000E+00 0. -1.
        -11   -1    0    0    0    0 -0.00000000000E+00 -0.00000000000E+00 -0.30000000000E+02  0.30000000000E+02  0.00000000000E+00 0.  1.
          5    1    1    2  501    0 -0.23392279921E+02  0.92307338632E+01 -0.15668592548E+02  0.30000000000E+02  0.47000000000E+01 0.  1.
         -5    1    1    2    0  501  0.23392279921E+02 -0.92307338632E+01  0.15668592548E+02  0.30000000000E+02  0.47000000000E+01 0. -1.
</event>
<event>
 4    1  0.7503339E-002  0.6000000E+02  0.7546771E-02  0.1259629E+00
         11   -1    0    0    0    0  0.00000000000E+00  0.00000000000E+00  0.30000000000E+02  0.30000000000E+02  0.00000000000E+00 0.  1.
        -11   -1    0    0    0    0 -0.00000000000E+00 -0.00000000000E+00 -0.30000000000E+02  0.30000000000E+02  0.00000000000E+00 0. -1.
          5    1    1    2  501    0  0.25995105197E+02 -0.27825415688E+01 -0.13943527825E+02  0.30000000000E+02  0.47000000000E+01 0. -1.
         -5    1    1    2    0  501 -0.25995105197E+02  0.27825415688E+01  0.13943527825E+02  0.30000000000E+02  0.47000000000E+01 0.  1.
</event>
<event>
 4    1  0.7503339E-002  0.6000000E+02  0.7546771E-02  0.1259629E+00
         11   -1    0    0    0    0  0.00000000000E+00  0.00000000000E+00  0.30000000000E+02  0.30000000000E+02  0.00000000000E+00 0.  1.
        -11   -1    0    0    0    0 -0.00000000000E+00 -0.00000000000E+00 -0.30000000000E+02  0.30000000000E+02  0.00000000000E+00 0. -1.
          5    1    1    2  501    0  0.22603060214E+02 -0.19078597657E+02  0.17374637852E+01  0.30000000000E+02  0.47000000000E+01 0. -1.
         -5    1    1    2    0  501 -0.22603060214E+02  0.19078597657E+02 -0.17374637852E+01  0.30000000000E+02  0.47000000000E+01 0.  1.
</event>
<event>
 4    1  0.7503339E-002  0.6000000E+02  0.7546771E-02  0.1259629E+00
         11   -1    0    0    0    0  0.00000000000E+00  0.00000000000E+00  0.30000000000E+02  0.30000000000E+02  0.00000000000E+00 0.  1.
        -11   -1    0    0    0    0 -0.00000000000E+00 -0.00000000000E+00 -0.30000000000E+02  0.30000000000E+02  0.00000000000E+00 0. -1.
          5    1    1    2  501    0  0.29050545250E+02 -0.27626446666E+01 -0.51326031537E+01  0.30000000000E+02  0.47000000000E+01 0.  1.
         -5    1    1    2    0  501 -0.29050545250E+02  0.27626446666E+01  0.51326031537E+01  0.30000000000E+02  0.47000000000E+01 0. -1.
</event>
<event>
 4    1  0.7503339E-002  0.6000000E+02  0.7546771E-02  0.1259629E+00
         11   -1    0    0    0    0  0.00000000000E+00  0.00000000000E+00  0.30000000000E+02  0.30000000000E+02  0.00000000000E+00 0.  1.
        -11   -1    0    0    0    0 -0.00000000000E+00 -0.00000000000E+00 -0.30000000000E+02  0.30000000000E+02  0.00000000000E+00 0. -1.
          5    1    1    2  501    0 -0.17254118750E+01 -0.10226689084E+02 -0.27755139781E+02  0.30000000000E+02  0.47000000000E+01 0. -1.
         -5    1    1    2    0  501  0.17254118750E+01  0.10226689084E+02  0.27755139781E+02  0.30000000000E+02  0.47000000000E+01 0.  1.
</event>
<event>
 4    1  0.7503339E-002  0.6000000E+02  0.7546771E-02  0.1259629E+00
         11   -1    0    0    0    0  0.00000000000E+00  0.00000000000E+00  0.30000000000E+02  0.30000000000E+02  0.00000000000E+00 0. -1.
        -11   -1    0    0    0    0 -0.00000000000E+00 -0.00000000000E+00 -0.30000000000E+02  0.30000000000E+02  0.00000000000E+00 0.  1.
          5    1    1    2  501    0  0.23595190769E+02 -0.46024715884E+01 -0.17320341447E+02  0.30000000000E+02  0.47000000000E+01 0.  1.
         -5    1    1    2    0  501 -0.23595190769E+02  0.46024715884E+01  0.17320341447E+02  0.30000000000E+02  0.47000000000E+01 0. -1.
</event>
<event>
 4    1  0.7503339E-002  0.6000000E+02  0.7546771E-02  0.1259629E+00
         11   -1    0    0    0    0  0.00000000000E+00  0.00000000000E+00  0.30000000000E+02  0.30000000000E+02  0.00000000000E+00 0.  1.
        -11   -1    0    0    0    0 -0.00000000000E+00 -0.00000000000E+00 -0.30000000000E+02  0.30000000000E+02  0.00000000000E+00 0. -1.
          5    1    1    2  501    0 -0.70336138565E+01  0.17773003090E+02 -0.22639757889E+02  0.30000000000E+02  0.47000000000E+01 0. -1.
         -5    1    1    2    0  501  0.70336138565E+01 -0.17773003090E+02  0.22639757889E+02  0.30000000000E+02  0.47000000000E+01 0.  1.
</event>
<event>
 4    1  0.7503339E-002  0.6000000E+02  0.7546771E-02  0.1259629E+00
         11   -1    0    0    0    0  0.00000000000E+00  0.00000000000E+00  0.30000000000E+02  0.30000000000E+02  0.00000000000E+00 0.  1.
        -11   -1    0    0    0    0 -0.00000000000E+00 -0.00000000000E+00 -0.30000000000E+02  0.30000000000E+02  0.00000000000E+00 0. -1.
          5    1    1    2  501    0  0.15397233380E+02 -0.21477572675E+02 -0.13399592391E+02  0.30000000000E+02  0.47000000000E+01 0. -1.
         -5    1    1    2    0  501 -0.15397233380E+02  0.21477572675E+02  0.13399592391E+02  0.30000000000E+02  0.47000000000E+01 0.  1.
</event>
<event>
 4    1  0.7503339E-002  0.6000000E+02  0.7546771E-02  0.1259629E+00
         11   -1    0    0    0    0  0.00000000000E+00  0.00000000000E+00  0.30000000000E+02  0.30000000000E+02  0.00000000000E+00 0.  1.
        -11   -1    0    0    0    0 -0.00000000000E+00 -0.00000000000E+00 -0.30000000000E+02  0.30000000000E+02  0.00000000000E+00 0. -1.
          5    1    1    2  501    0 -0.26683290515E+02  0.10984762189E+02 -0.67265895461E+01  0.30000000000E+02  0.47000000000E+01 0. -1.
         -5    1    1    2    0  501  0.26683290515E+02 -0.10984762189E+02  0.67265895461E+01  0.30000000000E+02  0.47000000000E+01 0.  1.
</event>
<event>
 4    1  0.7503339E-002  0.6000000E+02  0.7546771E-02  0.1259629E+00
         11   -1    0    0    0    0  0.00000000000E+00  0.00000000000E+00  0.30000000000E+02  0.30000000000E+02  0.00000000000E+00 0. -1.
        -11   -1    0    0    0    0 -0.00000000000E+00 -0.00000000000E+00 -0.30000000000E+02  0.30000000000E+02  0.00000000000E+00 0.  1.
          5    1    1    2  501    0  0.81755783164E+01  0.23858116790E+02  0.15551854630E+02  0.30000000000E+02  0.47000000000E+01 0.  1.
         -5    1    1    2    0  501 -0.81755783164E+01 -0.23858116790E+02 -0.15551854630E+02  0.30000000000E+02  0.47000000000E+01 0. -1.
</event>
<event>
 4    1  0.7503339E-002  0.6000000E+02  0.7546771E-02  0.1259629E+00
         11   -1    0    0    0    0  0.00000000000E+00  0.00000000000E+00  0.30000000000E+02  0.30000000000E+02  0.00000000000E+00 0.  1.
        -11   -1    0    0    0    0 -0.00000000000E+00 -0.00000000000E+00 -0.30000000000E+02  0.30000000000E+02  0.00000000000E+00 0. -1.
          5    1    1    2  501    0 -0.25438219848E+02  0.95599410351E+01 -0.11807391684E+02  0.30000000000E+02  0.47000000000E+01 0. -1.
         -5    1    1    2    0  501  0.25438219848E+02 -0.95599410351E+01  0.11807391684E+02  0.30000000000E+02  0.47000000000E+01 0.  1.
</event>
<event>
 4    1  0.7503339E-002  0.6000000E+02  0.7546771E-02  0.1259629E+00
         11   -1    0    0    0    0  0.00000000000E+00  0.00000000000E+00  0.30000000000E+02  0.30000000000E+02  0.00000000000E+00 0.  1.
        -11   -1    0    0    0    0 -0.00000000000E+00 -0.00000000000E+00 -0.30000000000E+02  0.30000000000E+02  0.00000000000E+00 0. -1.
          5    1    1    2  501    0 -0.10095611740E+02 -0.27641261340E+02  0.34567752491E+01  0.30000000000E+02  0.47000000000E+01 0. -1.
         -5    1    1    2    0  501  0.10095611740E+02  0.27641261340E+02 -0.34567752491E+01  0.30000000000E+02  0.47000000000E+01 0.  1.
</event>
<event>
 4    1  0.7503339E-002  0.6000000E+02  0.7546771E-02  0.1259629E+00
         11   -1    0    0    0    0  0.00000000000E+00  0.00000000000E+00  0.30000000000E+02  0.30000000000E+02  0.00000000000E+00 0.  1.
        -11   -1    0    0    0    0 -0.00000000000E+00 -0.00000000000E+00 -0.30000000000E+02  0.30000000000E+02  0.00000000000E+00 0. -1.
          5    1    1    2  501    0 -0.77542618387E-01 -0.94381182368E+01 -0.28086044778E+02  0.30000000000E+02  0.47000000000E+01 0. -1.
         -5    1    1    2    0  501  0.77542618387E-01  0.94381182368E+01  0.28086044778E+02  0.30000000000E+02  0.47000000000E+01 0.  1.
</event>
<event>
 4    1  0.7503339E-002  0.6000000E+02  0.7546771E-02  0.1259629E+00
         11   -1    0    0    0    0  0.00000000000E+00  0.00000000000E+00  0.30000000000E+02  0.30000000000E+02  0.00000000000E+00 0.  1.
        -11   -1    0    0    0    0 -0.00000000000E+00 -0.00000000000E+00 -0.30000000000E+02  0.30000000000E+02  0.00000000000E+00 0. -1.
          5    1    1    2  501    0 -0.59024782512E+01 -0.24731992124E+02  0.15211815015E+02  0.30000000000E+02  0.47000000000E+01 0.  1.
         -5    1    1    2    0  501  0.59024782512E+01  0.24731992124E+02 -0.15211815015E+02  0.30000000000E+02  0.47000000000E+01 0. -1.
</event>
<event>
 4    1  0.7503339E-002  0.6000000E+02  0.7546771E-02  0.1259629E+00
         11   -1    0    0    0    0  0.00000000000E+00  0.00000000000E+00  0.30000000000E+02  0.30000000000E+02  0.00000000000E+00 0. -1.
        -11   -1    0    0    0    0 -0.00000000000E+00 -0.00000000000E+00 -0.30000000000E+02  0.30000000000E+02  0.00000000000E+00 0.  1.
          5    1    1    2  501    0 -0.28153948443E+02 -0.73172748447E+01 -0.56322886941E+01  0.30000000000E+02  0.47000000000E+01 0.  1.
         -5    1    1    2    0  501  0.28153948443E+02  0.73172748447E+01  0.56322886941E+01  0.30000000000E+02  0.47000000000E+01 0. -1.
</event>
<event>
 4    1  0.7503339E-002  0.6000000E+02  0.7546771E-02  0.1259629E+00
         11   -1    0    0    0    0  0.00000000000E+00  0.00000000000E+00  0.30000000000E+02  0.30000000000E+02  0.00000000000E+00 0.  1.
        -11   -1    0    0    0    0 -0.00000000000E+00 -0.00000000000E+00 -0.30000000000E+02  0.30000000000E+02  0.00000000000E+00 0. -1.
          5    1    1    2  501    0  0.23373160970E+02 -0.13486304510E+02  0.12236214158E+02  0.30000000000E+02  0.47000000000E+01 0. -1.
         -5    1    1    2    0  501 -0.23373160970E+02  0.13486304510E+02 -0.12236214158E+02  0.30000000000E+02  0.47000000000E+01 0.  1.
</event>
<event>
 4    1  0.7503339E-002  0.6000000E+02  0.7546771E-02  0.1259629E+00
         11   -1    0    0    0    0  0.00000000000E+00  0.00000000000E+00  0.30000000000E+02  0.30000000000E+02  0.00000000000E+00 0. -1.
        -11   -1    0    0    0    0 -0.00000000000E+00 -0.00000000000E+00 -0.30000000000E+02  0.30000000000E+02  0.00000000000E+00 0.  1.
          5    1    1    2  501    0 -0.21350776153E+02 -0.52843632636E+01 -0.19852704163E+02  0.30000000000E+02  0.47000000000E+01 0.  1.
         -5    1    1    2    0  501  0.21350776153E+02  0.52843632636E+01  0.19852704163E+02  0.30000000000E+02  0.47000000000E+01 0. -1.
</event>
<event>
 4    1  0.7503339E-002  0.6000000E+02  0.7546771E-02  0.1259629E+00
         11   -1    0    0    0    0  0.00000000000E+00  0.00000000000E+00  0.30000000000E+02  0.30000000000E+02  0.00000000000E+00 0.  1.
        -11   -1    0    0    0    0 -0.00000000000E+00 -0.00000000000E+00 -0.30000000000E+02  0.30000000000E+02  0.00000000000E+00 0. -1.
          5    1    1    2  501    0  0.22190719461E+02  0.16294223582E+02 -0.10953549547E+02  0.30000000000E+02  0.47000000000E+01 0. -1.
         -5    1    1    2    0  501 -0.22190719461E+02 -0.16294223582E+02  0.10953549547E+02  0.30000000000E+02  0.47000000000E+01 0.  1.
</event>
<event>
 4    1  0.7503339E-002  0.6000000E+02  0.7546771E-02  0.1259629E+00
         11   -1    0    0    0    0  0.00000000000E+00  0.00000000000E+00  0.30000000000E+02  0.30000000000E+02  0.00000000000E+00 0. -1.
        -11   -1    0    0    0    0 -0.00000000000E+00 -0.00000000000E+00 -0.30000000000E+02  0.30000000000E+02  0.00000000000E+00 0.  1.
          5    1    1    2  501    0 -0.69743753122E+00  0.53965830441E+01 -0.29125598231E+02  0.30000000000E+02  0.47000000000E+01 0.  1.
         -5    1    1    2    0  501  0.69743753122E+00 -0.53965830441E+01  0.29125598231E+02  0.30000000000E+02  0.47000000000E+01 0. -1.
</event>
<event>
 4    1  0.7503339E-002  0.6000000E+02  0.7546771E-02  0.1259629E+00
         11   -1    0    0    0    0  0.00000000000E+00  0.00000000000E+00  0.30000000000E+02  0.30000000000E+02  0.00000000000E+00 0.  1.
        -11   -1    0    0    0    0 -0.00000000000E+00 -0.00000000000E+00 -0.30000000000E+02  0.30000000000E+02  0.00000000000E+00 0. -1.
          5    1    1    2  501    0  0.23603494121E+02  0.71139706098E+01 -0.16437046189E+02  0.30000000000E+02  0.47000000000E+01 0. -1.
         -5    1    1    2    0  501 -0.23603494121E+02 -0.71139706098E+01  0.16437046189E+02  0.30000000000E+02  0.47000000000E+01 0.  1.
</event>
<event>
 4    1  0.7503339E-002  0.6000000E+02  0.7546771E-02  0.1259629E+00
         11   -1    0    0    0    0  0.00000000000E+00  0.00000000000E+00  0.30000000000E+02  0.30000000000E+02  0.00000000000E+00 0.  1.
        -11   -1    0    0    0    0 -0.00000000000E+00 -0.00000000000E+00 -0.30000000000E+02  0.30000000000E+02  0.00000000000E+00 0. -1.
          5    1    1    2  501    0  0.19218421897E+02  0.22510052396E+02 -0.13637451880E+01  0.30000000000E+02  0.47000000000E+01 0. -1.
         -5    1    1    2    0  501 -0.19218421897E+02 -0.22510052396E+02  0.13637451880E+01  0.30000000000E+02  0.47000000000E+01 0.  1.
</event>
<event>
 4    1  0.7503339E-002  0.6000000E+02  0.7546771E-02  0.1259629E+00
         11   -1    0    0    0    0  0.00000000000E+00  0.00000000000E+00  0.30000000000E+02  0.30000000000E+02  0.00000000000E+00 0.  1.
        -11   -1    0    0    0    0 -0.00000000000E+00 -0.00000000000E+00 -0.30000000000E+02  0.30000000000E+02  0.00000000000E+00 0. -1.
          5    1    1    2  501    0  0.14984358997E+02 -0.20129632553E+02 -0.15753630653E+02  0.30000000000E+02  0.47000000000E+01 0. -1.
         -5    1    1    2    0  501 -0.14984358997E+02  0.20129632553E+02  0.15753630653E+02  0.30000000000E+02  0.47000000000E+01 0.  1.
</event>
<event>
 4    1  0.7503339E-002  0.6000000E+02  0.7546771E-02  0.1259629E+00
         11   -1    0    0    0    0  0.00000000000E+00  0.00000000000E+00  0.30000000000E+02  0.30000000000E+02  0.00000000000E+00 0.  1.
        -11   -1    0    0    0    0 -0.00000000000E+00 -0.00000000000E+00 -0.30000000000E+02  0.30000000000E+02  0.00000000000E+00 0. -1.
          5    1    1    2  501    0  0.10219369415E+02  0.24964216352E+02  0.12258156088E+02  0.30000000000E+02  0.47000000000E+01 0. -1.
         -5    1    1    2    0  501 -0.10219369415E+02 -0.24964216352E+02 -0.12258156088E+02  0.30000000000E+02  0.47000000000E+01 0.  1.
</event>
<event>
 4    1  0.7503339E-002  0.6000000E+02  0.7546771E-02  0.1259629E+00
         11   -1    0    0    0    0  0.00000000000E+00  0.00000000000E+00  0.30000000000E+02  0.30000000000E+02  0.00000000000E+00 0.  1.
        -11   -1    0    0    0    0 -0.00000000000E+00 -0.00000000000E+00 -0.30000000000E+02  0.30000000000E+02  0.00000000000E+00 0. -1.
          5    1    1    2  501    0  0.13614471672E+02  0.26307200985E+02  0.69809558434E+00  0.30000000000E+02  0.47000000000E+01 0. -1.
         -5    1    1    2    0  501 -0.13614471672E+02 -0.26307200985E+02 -0.69809558434E+00  0.30000000000E+02  0.47000000000E+01 0.  1.
</event>
<event>
 4    1  0.7503339E-002  0.6000000E+02  0.7546771E-02  0.1259629E+00
         11   -1    0    0    0    0  0.00000000000E+00  0.00000000000E+00  0.30000000000E+02  0.30000000000E+02  0.00000000000E+00 0.  1.
        -11   -1    0    0    0    0 -0.00000000000E+00 -0.00000000000E+00 -0.30000000000E+02  0.30000000000E+02  0.00000000000E+00 0. -1.
          5    1    1    2  501    0 -0.28883088281E+02  0.97578174208E+00  0.65364410309E+01  0.30000000000E+02  0.47000000000E+01 0. -1.
         -5    1    1    2    0  501  0.28883088281E+02 -0.97578174208E+00 -0.65364410309E+01  0.30000000000E+02  0.47000000000E+01 0.  1.
</event>
<event>
 4    1  0.7503339E-002  0.6000000E+02  0.7546771E-02  0.1259629E+00
         11   -1    0    0    0    0  0.00000000000E+00  0.00000000000E+00  0.30000000000E+02  0.30000000000E+02  0.00000000000E+00 0.  1.
        -11   -1    0    0    0    0 -0.00000000000E+00 -0.00000000000E+00 -0.30000000000E+02  0.30000000000E+02  0.00000000000E+00 0. -1.
          5    1    1    2  501    0  0.15361819188E+02  0.16916978469E+02 -0.18861080316E+02  0.30000000000E+02  0.47000000000E+01 0. -1.
         -5    1    1    2    0  501 -0.15361819188E+02 -0.16916978469E+02  0.18861080316E+02  0.30000000000E+02  0.47000000000E+01 0.  1.
</event>
<event>
 4    1  0.7503339E-002  0.6000000E+02  0.7546771E-02  0.1259629E+00
         11   -1    0    0    0    0  0.00000000000E+00  0.00000000000E+00  0.30000000000E+02  0.30000000000E+02  0.00000000000E+00 0. -1.
        -11   -1    0    0    0    0 -0.00000000000E+00 -0.00000000000E+00 -0.30000000000E+02  0.30000000000E+02  0.00000000000E+00 0.  1.
          5    1    1    2  501    0 -0.87575413777E+01  0.20645157800E+02 -0.19364734143E+02  0.30000000000E+02  0.47000000000E+01 0.  1.
         -5    1    1    2    0  501  0.87575413777E+01 -0.20645157800E+02  0.19364734143E+02  0.30000000000E+02  0.47000000000E+01 0. -1.
</event>
<event>
 4    1  0.7503339E-002  0.6000000E+02  0.7546771E-02  0.1259629E+00
         11   -1    0    0    0    0  0.00000000000E+00  0.00000000000E+00  0.30000000000E+02  0.30000000000E+02  0.00000000000E+00 0.  1.
        -11   -1    0    0    0    0 -0.00000000000E+00 -0.00000000000E+00 -0.30000000000E+02  0.30000000000E+02  0.00000000000E+00 0. -1.
          5    1    1    2  501    0  0.14294539421E+02 -0.25894863048E+02 -0.17413243434E+01  0.30000000000E+02  0.47000000000E+01 0. -1.
         -5    1    1    2    0  501 -0.14294539421E+02  0.25894863048E+02  0.17413243434E+01  0.30000000000E+02  0.47000000000E+01 0.  1.
</event>
<event>
 4    1  0.7503339E-002  0.6000000E+02  0.7546771E-02  0.1259629E+00
         11   -1    0    0    0    0  0.00000000000E+00  0.00000000000E+00  0.30000000000E+02  0.30000000000E+02  0.00000000000E+00 0.  1.
        -11   -1    0    0    0    0 -0.00000000000E+00 -0.00000000000E+00 -0.30000000000E+02  0.30000000000E+02  0.00000000000E+00 0. -1.
          5    1    1    2  501    0 -0.26658571801E+02 -0.10916351344E+02 -0.69328077178E+01  0.30000000000E+02  0.47000000000E+01 0. -1.
         -5    1    1    2    0  501  0.26658571801E+02  0.10916351344E+02  0.69328077178E+01  0.30000000000E+02  0.47000000000E+01 0.  1.
</event>
<event>
 4    1  0.7503339E-002  0.6000000E+02  0.7546771E-02  0.1259629E+00
         11   -1    0    0    0    0  0.00000000000E+00  0.00000000000E+00  0.30000000000E+02  0.30000000000E+02  0.00000000000E+00 0. -1.
        -11   -1    0    0    0    0 -0.00000000000E+00 -0.00000000000E+00 -0.30000000000E+02  0.30000000000E+02  0.00000000000E+00 0.  1.
          5    1    1    2  501    0 -0.74383915332E+01  0.20514475632E+02 -0.20043368503E+02  0.30000000000E+02  0.47000000000E+01 0.  1.
         -5    1    1    2    0  501  0.74383915332E+01 -0.20514475632E+02  0.20043368503E+02  0.30000000000E+02  0.47000000000E+01 0. -1.
</event>
<event>
 4    1  0.7503339E-002  0.6000000E+02  0.7546771E-02  0.1259629E+00
         11   -1    0    0    0    0  0.00000000000E+00  0.00000000000E+00  0.30000000000E+02  0.30000000000E+02  0.00000000000E+00 0.  1.
        -11   -1    0    0    0    0 -0.00000000000E+00 -0.00000000000E+00 -0.30000000000E+02  0.30000000000E+02  0.00000000000E+00 0. -1.
          5    1    1    2  501    0  0.17455450021E+02  0.48805928383E+01 -0.23439220936E+02  0.30000000000E+02  0.47000000000E+01 0. -1.
         -5    1    1    2    0  501 -0.17455450021E+02 -0.48805928383E+01  0.23439220936E+02  0.30000000000E+02  0.47000000000E+01 0.  1.
</event>
<event>
 4    1  0.7503339E-002  0.6000000E+02  0.7546771E-02  0.1259629E+00
         11   -1    0    0    0    0  0.00000000000E+00  0.00000000000E+00  0.30000000000E+02  0.30000000000E+02  0.00000000000E+00 0.  1.
        -11   -1    0    0    0    0 -0.00000000000E+00 -0.00000000000E+00 -0.30000000000E+02  0.30000000000E+02  0.00000000000E+00 0. -1.
          5    1    1    2  501    0 -0.44707449907E+01 -0.10556996254E+02 -0.27321644704E+02  0.30000000000E+02  0.47000000000E+01 0. -1.
         -5    1    1    2    0  501  0.44707449907E+01  0.10556996254E+02  0.27321644704E+02  0.30000000000E+02  0.47000000000E+01 0.  1.
</event>
<event>
 4    1  0.7503339E-002  0.6000000E+02  0.7546771E-02  0.1259629E+00
         11   -1    0    0    0    0  0.00000000000E+00  0.00000000000E+00  0.30000000000E+02  0.30000000000E+02  0.00000000000E+00 0.  1.
        -11   -1    0    0    0    0 -0.00000000000E+00 -0.00000000000E+00 -0.30000000000E+02  0.30000000000E+02  0.00000000000E+00 0. -1.
          5    1    1    2  501    0  0.19641374271E+02  0.10714758006E+02 -0.19424736231E+02  0.30000000000E+02  0.47000000000E+01 0. -1.
         -5    1    1    2    0  501 -0.19641374271E+02 -0.10714758006E+02  0.19424736231E+02  0.30000000000E+02  0.47000000000E+01 0.  1.
</event>
<event>
 4    1  0.7503339E-002  0.6000000E+02  0.7546771E-02  0.1259629E+00
         11   -1    0    0    0    0  0.00000000000E+00  0.00000000000E+00  0.30000000000E+02  0.30000000000E+02  0.00000000000E+00 0.  1.
        -11   -1    0    0    0    0 -0.00000000000E+00 -0.00000000000E+00 -0.30000000000E+02  0.30000000000E+02  0.00000000000E+00 0. -1.
          5    1    1    2  501    0 -0.25725310463E+02  0.14625033676E+02 -0.14922438012E+01  0.30000000000E+02  0.47000000000E+01 0. -1.
         -5    1    1    2    0  501  0.25725310463E+02 -0.14625033676E+02  0.14922438012E+01  0.30000000000E+02  0.47000000000E+01 0.  1.
</event>
<event>
 4    1  0.7503339E-002  0.6000000E+02  0.7546771E-02  0.1259629E+00
         11   -1    0    0    0    0  0.00000000000E+00  0.00000000000E+00  0.30000000000E+02  0.30000000000E+02  0.00000000000E+00 0.  1.
        -11   -1    0    0    0    0 -0.00000000000E+00 -0.00000000000E+00 -0.30000000000E+02  0.30000000000E+02  0.00000000000E+00 0. -1.
          5    1    1    2  501    0 -0.23144427939E+02 -0.18128432654E+02 -0.36885478034E+01  0.30000000000E+02  0.47000000000E+01 0. -1.
         -5    1    1    2    0  501  0.23144427939E+02  0.18128432654E+02  0.36885478034E+01  0.30000000000E+02  0.47000000000E+01 0.  1.
</event>
<event>
 4    1  0.7503339E-002  0.6000000E+02  0.7546771E-02  0.1259629E+00
         11   -1    0    0    0    0  0.00000000000E+00  0.00000000000E+00  0.30000000000E+02  0.30000000000E+02  0.00000000000E+00 0.  1.
        -11   -1    0    0    0    0 -0.00000000000E+00 -0.00000000000E+00 -0.30000000000E+02  0.30000000000E+02  0.00000000000E+00 0. -1.
          5    1    1    2  501    0 -0.19928436616E+02  0.18673910426E+01 -0.21846744946E+02  0.30000000000E+02  0.47000000000E+01 0. -1.
         -5    1    1    2    0  501  0.19928436616E+02 -0.18673910426E+01  0.21846744946E+02  0.30000000000E+02  0.47000000000E+01 0.  1.
</event>
<event>
 4    1  0.7503339E-002  0.6000000E+02  0.7546771E-02  0.1259629E+00
         11   -1    0    0    0    0  0.00000000000E+00  0.00000000000E+00  0.30000000000E+02  0.30000000000E+02  0.00000000000E+00 0.  1.
        -11   -1    0    0    0    0 -0.00000000000E+00 -0.00000000000E+00 -0.30000000000E+02  0.30000000000E+02  0.00000000000E+00 0. -1.
          5    1    1    2  501    0  0.63952686643E+01 -0.26713219049E+02 -0.11109206395E+02  0.30000000000E+02  0.47000000000E+01 0. -1.
         -5    1    1    2    0  501 -0.63952686643E+01  0.26713219049E+02  0.11109206395E+02  0.30000000000E+02  0.47000000000E+01 0.  1.
</event>
<event>
 4    1  0.7503339E-002  0.6000000E+02  0.7546771E-02  0.1259629E+00
         11   -1    0    0    0    0  0.00000000000E+00  0.00000000000E+00  0.30000000000E+02  0.30000000000E+02  0.00000000000E+00 0.  1.
        -11   -1    0    0    0    0 -0.00000000000E+00 -0.00000000000E+00 -0.30000000000E+02  0.30000000000E+02  0.00000000000E+00 0. -1.
          5    1    1    2  501    0  0.17619746209E+02 -0.15061127059E+01 -0.23773644400E+02  0.30000000000E+02  0.47000000000E+01 0. -1.
         -5    1    1    2    0  501 -0.17619746209E+02  0.15061127059E+01  0.23773644400E+02  0.30000000000E+02  0.47000000000E+01 0.  1.
</event>
<event>
 4    1  0.7503339E-002  0.6000000E+02  0.7546771E-02  0.1259629E+00
         11   -1    0    0    0    0  0.00000000000E+00  0.00000000000E+00  0.30000000000E+02  0.30000000000E+02  0.00000000000E+00 0.  1.
        -11   -1    0    0    0    0 -0.00000000000E+00 -0.00000000000E+00 -0.30000000000E+02  0.30000000000E+02  0.00000000000E+00 0. -1.
          5    1    1    2  501    0  0.27223235385E+02 -0.10419477696E+02 -0.53141264289E+01  0.30000000000E+02  0.47000000000E+01 0. -1.
         -5    1    1    2    0  501 -0.27223235385E+02  0.10419477696E+02  0.53141264289E+01  0.30000000000E+02  0.47000000000E+01 0.  1.
</event>
<event>
 4    1  0.7503339E-002  0.6000000E+02  0.7546771E-02  0.1259629E+00
         11   -1    0    0    0    0  0.00000000000E+00  0.00000000000E+00  0.30000000000E+02  0.30000000000E+02  0.00000000000E+00 0.  1.
        -11   -1    0    0    0    0 -0.00000000000E+00 -0.00000000000E+00 -0.30000000000E+02  0.30000000000E+02  0.00000000000E+00 0. -1.
          5    1    1    2  501    0 -0.23662981774E+02 -0.62230888530E+01 -0.16710669007E+02  0.30000000000E+02  0.47000000000E+01 0. -1.
         -5    1    1    2    0  501  0.23662981774E+02  0.62230888530E+01  0.16710669007E+02  0.30000000000E+02  0.47000000000E+01 0.  1.
</event>
<event>
 4    1  0.7503339E-002  0.6000000E+02  0.7546771E-02  0.1259629E+00
         11   -1    0    0    0    0  0.00000000000E+00  0.00000000000E+00  0.30000000000E+02  0.30000000000E+02  0.00000000000E+00 0.  1.
        -11   -1    0    0    0    0 -0.00000000000E+00 -0.00000000000E+00 -0.30000000000E+02  0.30000000000E+02  0.00000000000E+00 0. -1.
          5    1    1    2  501    0  0.21914479623E+02 -0.13474351684E+02 -0.14700592830E+02  0.30000000000E+02  0.47000000000E+01 0. -1.
         -5    1    1    2    0  501 -0.21914479623E+02  0.13474351684E+02  0.14700592830E+02  0.30000000000E+02  0.47000000000E+01 0.  1.
</event>
<event>
 4    1  0.7503339E-002  0.6000000E+02  0.7546771E-02  0.1259629E+00
         11   -1    0    0    0    0  0.00000000000E+00  0.00000000000E+00  0.30000000000E+02  0.30000000000E+02  0.00000000000E+00 0.  1.
        -11   -1    0    0    0    0 -0.00000000000E+00 -0.00000000000E+00 -0.30000000000E+02  0.30000000000E+02  0.00000000000E+00 0. -1.
          5    1    1    2  501    0  0.14918015730E+02 -0.19744854877E+02 -0.16294278523E+02  0.30000000000E+02  0.47000000000E+01 0. -1.
         -5    1    1    2    0  501 -0.14918015730E+02  0.19744854877E+02  0.16294278523E+02  0.30000000000E+02  0.47000000000E+01 0.  1.
</event>
<event>
 4    1  0.7503339E-002  0.6000000E+02  0.7546771E-02  0.1259629E+00
         11   -1    0    0    0    0  0.00000000000E+00  0.00000000000E+00  0.30000000000E+02  0.30000000000E+02  0.00000000000E+00 0.  1.
        -11   -1    0    0    0    0 -0.00000000000E+00 -0.00000000000E+00 -0.30000000000E+02  0.30000000000E+02  0.00000000000E+00 0. -1.
          5    1    1    2  501    0 -0.18874368720E+02 -0.19692859483E+01 -0.22755002050E+02  0.30000000000E+02  0.47000000000E+01 0. -1.
         -5    1    1    2    0  501  0.18874368720E+02  0.19692859483E+01  0.22755002050E+02  0.30000000000E+02  0.47000000000E+01 0.  1.
</event>
<event>
 4    1  0.7503339E-002  0.6000000E+02  0.7546771E-02  0.1259629E+00
         11   -1    0    0    0    0  0.00000000000E+00  0.00000000000E+00  0.30000000000E+02  0.30000000000E+02  0.00000000000E+00 0. -1.
        -11   -1    0    0    0    0 -0.00000000000E+00 -0.00000000000E+00 -0.30000000000E+02  0.30000000000E+02  0.00000000000E+00 0.  1.
          5    1    1    2  501    0 -0.14362138758E+02 -0.20607902848E+01 -0.25833933376E+02  0.30000000000E+02  0.47000000000E+01 0.  1.
         -5    1    1    2    0  501  0.14362138758E+02  0.20607902848E+01  0.25833933376E+02  0.30000000000E+02  0.47000000000E+01 0. -1.
</event>
<event>
 4    1  0.7503339E-002  0.6000000E+02  0.7546771E-02  0.1259629E+00
         11   -1    0    0    0    0  0.00000000000E+00  0.00000000000E+00  0.30000000000E+02  0.30000000000E+02  0.00000000000E+00 0. -1.
        -11   -1    0    0    0    0 -0.00000000000E+00 -0.00000000000E+00 -0.30000000000E+02  0.30000000000E+02  0.00000000000E+00 0.  1.
          5    1    1    2  501    0  0.25095765529E+02 -0.12917807303E+02 -0.90134791847E+01  0.30000000000E+02  0.47000000000E+01 0.  1.
         -5    1    1    2    0  501 -0.25095765529E+02  0.12917807303E+02  0.90134791847E+01  0.30000000000E+02  0.47000000000E+01 0. -1.
</event>
<event>
 4    1  0.7503339E-002  0.6000000E+02  0.7546771E-02  0.1259629E+00
         11   -1    0    0    0    0  0.00000000000E+00  0.00000000000E+00  0.30000000000E+02  0.30000000000E+02  0.00000000000E+00 0.  1.
        -11   -1    0    0    0    0 -0.00000000000E+00 -0.00000000000E+00 -0.30000000000E+02  0.30000000000E+02  0.00000000000E+00 0. -1.
          5    1    1    2  501    0  0.18288485599E+02  0.23310884994E+02  0.20960747485E+00  0.30000000000E+02  0.47000000000E+01 0. -1.
         -5    1    1    2    0  501 -0.18288485599E+02 -0.23310884994E+02 -0.20960747485E+00  0.30000000000E+02  0.47000000000E+01 0.  1.
</event>
<event>
 4    1  0.7503339E-002  0.6000000E+02  0.7546771E-02  0.1259629E+00
         11   -1    0    0    0    0  0.00000000000E+00  0.00000000000E+00  0.30000000000E+02  0.30000000000E+02  0.00000000000E+00 0.  1.
        -11   -1    0    0    0    0 -0.00000000000E+00 -0.00000000000E+00 -0.30000000000E+02  0.30000000000E+02  0.00000000000E+00 0. -1.
          5    1    1    2  501    0  0.79743390753E+01 -0.27348471634E+01 -0.28404938432E+02  0.30000000000E+02  0.47000000000E+01 0. -1.
         -5    1    1    2    0  501 -0.79743390753E+01  0.27348471634E+01  0.28404938432E+02  0.30000000000E+02  0.47000000000E+01 0.  1.
</event>
<event>
 4    1  0.7503339E-002  0.6000000E+02  0.7546771E-02  0.1259629E+00
         11   -1    0    0    0    0  0.00000000000E+00  0.00000000000E+00  0.30000000000E+02  0.30000000000E+02  0.00000000000E+00 0. -1.
        -11   -1    0    0    0    0 -0.00000000000E+00 -0.00000000000E+00 -0.30000000000E+02  0.30000000000E+02  0.00000000000E+00 0.  1.
          5    1    1    2  501    0 -0.73554992422E+01  0.28570088380E+02 -0.27489417685E+01  0.30000000000E+02  0.47000000000E+01 0. -1.
         -5    1    1    2    0  501  0.73554992422E+01 -0.28570088380E+02  0.27489417685E+01  0.30000000000E+02  0.47000000000E+01 0.  1.
</event>
<event>
 4    1  0.7503339E-002  0.6000000E+02  0.7546771E-02  0.1259629E+00
         11   -1    0    0    0    0  0.00000000000E+00  0.00000000000E+00  0.30000000000E+02  0.30000000000E+02  0.00000000000E+00 0.  1.
        -11   -1    0    0    0    0 -0.00000000000E+00 -0.00000000000E+00 -0.30000000000E+02  0.30000000000E+02  0.00000000000E+00 0. -1.
          5    1    1    2  501    0  0.23755983221E+02 -0.26300119024E+01 -0.17511319157E+02  0.30000000000E+02  0.47000000000E+01 0. -1.
         -5    1    1    2    0  501 -0.23755983221E+02  0.26300119024E+01  0.17511319157E+02  0.30000000000E+02  0.47000000000E+01 0.  1.
</event>
<event>
 4    1  0.7503339E-002  0.6000000E+02  0.7546771E-02  0.1259629E+00
         11   -1    0    0    0    0  0.00000000000E+00  0.00000000000E+00  0.30000000000E+02  0.30000000000E+02  0.00000000000E+00 0.  1.
        -11   -1    0    0    0    0 -0.00000000000E+00 -0.00000000000E+00 -0.30000000000E+02  0.30000000000E+02  0.00000000000E+00 0. -1.
          5    1    1    2  501    0  0.60352682208E+01 -0.28768176612E+01 -0.28865367790E+02  0.30000000000E+02  0.47000000000E+01 0. -1.
         -5    1    1    2    0  501 -0.60352682208E+01  0.28768176612E+01  0.28865367790E+02  0.30000000000E+02  0.47000000000E+01 0.  1.
</event>
<event>
 4    1  0.7503339E-002  0.6000000E+02  0.7546771E-02  0.1259629E+00
         11   -1    0    0    0    0  0.00000000000E+00  0.00000000000E+00  0.30000000000E+02  0.30000000000E+02  0.00000000000E+00 0.  1.
        -11   -1    0    0    0    0 -0.00000000000E+00 -0.00000000000E+00 -0.30000000000E+02  0.30000000000E+02  0.00000000000E+00 0. -1.
          5    1    1    2  501    0  0.14411177783E+02 -0.22234002705E+01 -0.25793108501E+02  0.30000000000E+02  0.47000000000E+01 0. -1.
         -5    1    1    2    0  501 -0.14411177783E+02  0.22234002705E+01  0.25793108501E+02  0.30000000000E+02  0.47000000000E+01 0.  1.
</event>
<event>
 4    1  0.7503339E-002  0.6000000E+02  0.7546771E-02  0.1259629E+00
         11   -1    0    0    0    0  0.00000000000E+00  0.00000000000E+00  0.30000000000E+02  0.30000000000E+02  0.00000000000E+00 0. -1.
        -11   -1    0    0    0    0 -0.00000000000E+00 -0.00000000000E+00 -0.30000000000E+02  0.30000000000E+02  0.00000000000E+00 0.  1.
          5    1    1    2  501    0 -0.92866906824E+01 -0.23907455248E+02 -0.14835799936E+02  0.30000000000E+02  0.47000000000E+01 0.  1.
         -5    1    1    2    0  501  0.92866906824E+01  0.23907455248E+02  0.14835799936E+02  0.30000000000E+02  0.47000000000E+01 0. -1.
</event>
<event>
 4    1  0.7503339E-002  0.6000000E+02  0.7546771E-02  0.1259629E+00
         11   -1    0    0    0    0  0.00000000000E+00  0.00000000000E+00  0.30000000000E+02  0.30000000000E+02  0.00000000000E+00 0.  1.
        -11   -1    0    0    0    0 -0.00000000000E+00 -0.00000000000E+00 -0.30000000000E+02  0.30000000000E+02  0.00000000000E+00 0. -1.
          5    1    1    2  501    0  0.13564324578E+02  0.94634312109E+01 -0.24583786699E+02  0.30000000000E+02  0.47000000000E+01 0. -1.
         -5    1    1    2    0  501 -0.13564324578E+02 -0.94634312109E+01  0.24583786699E+02  0.30000000000E+02  0.47000000000E+01 0.  1.
</event>
<event>
 4    1  0.7503339E-002  0.6000000E+02  0.7546771E-02  0.1259629E+00
         11   -1    0    0    0    0  0.00000000000E+00  0.00000000000E+00  0.30000000000E+02  0.30000000000E+02  0.00000000000E+00 0. -1.
        -11   -1    0    0    0    0 -0.00000000000E+00 -0.00000000000E+00 -0.30000000000E+02  0.30000000000E+02  0.00000000000E+00 0.  1.
          5    1    1    2  501    0 -0.18712783395E+01  0.44747030649E+00 -0.29567010124E+02  0.30000000000E+02  0.47000000000E+01 0.  1.
         -5    1    1    2    0  501  0.18712783395E+01 -0.44747030649E+00  0.29567010124E+02  0.30000000000E+02  0.47000000000E+01 0. -1.
</event>
<event>
 4    1  0.7503339E-002  0.6000000E+02  0.7546771E-02  0.1259629E+00
         11   -1    0    0    0    0  0.00000000000E+00  0.00000000000E+00  0.30000000000E+02  0.30000000000E+02  0.00000000000E+00 0. -1.
        -11   -1    0    0    0    0 -0.00000000000E+00 -0.00000000000E+00 -0.30000000000E+02  0.30000000000E+02  0.00000000000E+00 0.  1.
          5    1    1    2  501    0  0.24560592680E+02  0.97458216747E+01 -0.13405455870E+02  0.30000000000E+02  0.47000000000E+01 0.  1.
         -5    1    1    2    0  501 -0.24560592680E+02 -0.97458216747E+01  0.13405455870E+02  0.30000000000E+02  0.47000000000E+01 0. -1.
</event>
<event>
 4    1  0.7503339E-002  0.6000000E+02  0.7546771E-02  0.1259629E+00
         11   -1    0    0    0    0  0.00000000000E+00  0.00000000000E+00  0.30000000000E+02  0.30000000000E+02  0.00000000000E+00 0.  1.
        -11   -1    0    0    0    0 -0.00000000000E+00 -0.00000000000E+00 -0.30000000000E+02  0.30000000000E+02  0.00000000000E+00 0. -1.
          5    1    1    2  501    0 -0.11428529271E+02 -0.27249541385E+02 -0.21820204033E+01  0.30000000000E+02  0.47000000000E+01 0. -1.
         -5    1    1    2    0  501  0.11428529271E+02  0.27249541385E+02  0.21820204033E+01  0.30000000000E+02  0.47000000000E+01 0.  1.
</event>
<event>
 4    1  0.7503339E-002  0.6000000E+02  0.7546771E-02  0.1259629E+00
         11   -1    0    0    0    0  0.00000000000E+00  0.00000000000E+00  0.30000000000E+02  0.30000000000E+02  0.00000000000E+00 0.  1.
        -11   -1    0    0    0    0 -0.00000000000E+00 -0.00000000000E+00 -0.30000000000E+02  0.30000000000E+02  0.00000000000E+00 0. -1.
          5    1    1    2  501    0 -0.11196494627E+02 -0.22115231403E+02 -0.16231606454E+02  0.30000000000E+02  0.47000000000E+01 0. -1.
         -5    1    1    2    0  501  0.11196494627E+02  0.22115231403E+02  0.16231606454E+02  0.30000000000E+02  0.47000000000E+01 0.  1.
</event>
<event>
 4    1  0.7503339E-002  0.6000000E+02  0.7546771E-02  0.1259629E+00
         11   -1    0    0    0    0  0.00000000000E+00  0.00000000000E+00  0.30000000000E+02  0.30000000000E+02  0.00000000000E+00 0.  1.
        -11   -1    0    0    0    0 -0.00000000000E+00 -0.00000000000E+00 -0.30000000000E+02  0.30000000000E+02  0.00000000000E+00 0. -1.
          5    1    1    2  501    0 -0.77057406981E+01  0.24881445220E+01 -0.28501591133E+02  0.30000000000E+02  0.47000000000E+01 0. -1.
         -5    1    1    2    0  501  0.77057406981E+01 -0.24881445220E+01  0.28501591133E+02  0.30000000000E+02  0.47000000000E+01 0.  1.
</event>
<event>
 4    1  0.7503339E-002  0.6000000E+02  0.7546771E-02  0.1259629E+00
         11   -1    0    0    0    0  0.00000000000E+00  0.00000000000E+00  0.30000000000E+02  0.30000000000E+02  0.00000000000E+00 0. -1.
        -11   -1    0    0    0    0 -0.00000000000E+00 -0.00000000000E+00 -0.30000000000E+02  0.30000000000E+02  0.00000000000E+00 0.  1.
          5    1    1    2  501    0  0.28071305488E+02  0.47194612903E+01  0.82242624785E+01  0.30000000000E+02  0.47000000000E+01 0.  1.
         -5    1    1    2    0  501 -0.28071305488E+02 -0.47194612903E+01 -0.82242624785E+01  0.30000000000E+02  0.47000000000E+01 0. -1.
</event>
<event>
 4    1  0.7503339E-002  0.6000000E+02  0.7546771E-02  0.1259629E+00
         11   -1    0    0    0    0  0.00000000000E+00  0.00000000000E+00  0.30000000000E+02  0.30000000000E+02  0.00000000000E+00 0. -1.
        -11   -1    0    0    0    0 -0.00000000000E+00 -0.00000000000E+00 -0.30000000000E+02  0.30000000000E+02  0.00000000000E+00 0.  1.
          5    1    1    2  501    0  0.28514014420E+02  0.80468565394E+01 -0.33027484468E+00  0.30000000000E+02  0.47000000000E+01 0. -1.
         -5    1    1    2    0  501 -0.28514014420E+02 -0.80468565394E+01  0.33027484468E+00  0.30000000000E+02  0.47000000000E+01 0.  1.
</event>
<event>
 4    1  0.7503339E-002  0.6000000E+02  0.7546771E-02  0.1259629E+00
         11   -1    0    0    0    0  0.00000000000E+00  0.00000000000E+00  0.30000000000E+02  0.30000000000E+02  0.00000000000E+00 0.  1.
        -11   -1    0    0    0    0 -0.00000000000E+00 -0.00000000000E+00 -0.30000000000E+02  0.30000000000E+02  0.00000000000E+00 0. -1.
          5    1    1    2  501    0  0.70177276280E+01 -0.21395126822E+02 -0.19259025085E+02  0.30000000000E+02  0.47000000000E+01 0. -1.
         -5    1    1    2    0  501 -0.70177276280E+01  0.21395126822E+02  0.19259025085E+02  0.30000000000E+02  0.47000000000E+01 0.  1.
</event>
<event>
 4    1  0.7503339E-002  0.6000000E+02  0.7546771E-02  0.1259629E+00
         11   -1    0    0    0    0  0.00000000000E+00  0.00000000000E+00  0.30000000000E+02  0.30000000000E+02  0.00000000000E+00 0.  1.
        -11   -1    0    0    0    0 -0.00000000000E+00 -0.00000000000E+00 -0.30000000000E+02  0.30000000000E+02  0.00000000000E+00 0. -1.
          5    1    1    2  501    0 -0.22149374639E+02  0.10590667841E+02  0.16587735161E+02  0.30000000000E+02  0.47000000000E+01 0.  1.
         -5    1    1    2    0  501  0.22149374639E+02 -0.10590667841E+02 -0.16587735161E+02  0.30000000000E+02  0.47000000000E+01 0. -1.
</event>
<event>
 4    1  0.7503339E-002  0.6000000E+02  0.7546771E-02  0.1259629E+00
         11   -1    0    0    0    0  0.00000000000E+00  0.00000000000E+00  0.30000000000E+02  0.30000000000E+02  0.00000000000E+00 0. -1.
        -11   -1    0    0    0    0 -0.00000000000E+00 -0.00000000000E+00 -0.30000000000E+02  0.30000000000E+02  0.00000000000E+00 0.  1.
          5    1    1    2  501    0  0.12950758022E+01 -0.28722992866E+02 -0.71569867614E+01  0.30000000000E+02  0.47000000000E+01 0.  1.
         -5    1    1    2    0  501 -0.12950758022E+01  0.28722992866E+02  0.71569867614E+01  0.30000000000E+02  0.47000000000E+01 0. -1.
</event>
<event>
 4    1  0.7503339E-002  0.6000000E+02  0.7546771E-02  0.1259629E+00
         11   -1    0    0    0    0  0.00000000000E+00  0.00000000000E+00  0.30000000000E+02  0.30000000000E+02  0.00000000000E+00 0.  1.
        -11   -1    0    0    0    0 -0.00000000000E+00 -0.00000000000E+00 -0.30000000000E+02  0.30000000000E+02  0.00000000000E+00 0. -1.
          5    1    1    2  501    0  0.54141528796E+01  0.21771485597E+01 -0.29049216388E+02  0.30000000000E+02  0.47000000000E+01 0. -1.
         -5    1    1    2    0  501 -0.54141528796E+01 -0.21771485597E+01  0.29049216388E+02  0.30000000000E+02  0.47000000000E+01 0.  1.
</event>
<event>
 4    1  0.7503339E-002  0.6000000E+02  0.7546771E-02  0.1259629E+00
         11   -1    0    0    0    0  0.00000000000E+00  0.00000000000E+00  0.30000000000E+02  0.30000000000E+02  0.00000000000E+00 0.  1.
        -11   -1    0    0    0    0 -0.00000000000E+00 -0.00000000000E+00 -0.30000000000E+02  0.30000000000E+02  0.00000000000E+00 0. -1.
          5    1    1    2  501    0 -0.20883750303E+02 -0.11971981178E+02 -0.17275724006E+02  0.30000000000E+02  0.47000000000E+01 0. -1.
         -5    1    1    2    0  501  0.20883750303E+02  0.11971981178E+02  0.17275724006E+02  0.30000000000E+02  0.47000000000E+01 0.  1.
</event>
<event>
 4    1  0.7503339E-002  0.6000000E+02  0.7546771E-02  0.1259629E+00
         11   -1    0    0    0    0  0.00000000000E+00  0.00000000000E+00  0.30000000000E+02  0.30000000000E+02  0.00000000000E+00 0. -1.
        -11   -1    0    0    0    0 -0.00000000000E+00 -0.00000000000E+00 -0.30000000000E+02  0.30000000000E+02  0.00000000000E+00 0.  1.
          5    1    1    2  501    0  0.18602505336E+02 -0.21022010068E+02  0.94832424811E+01  0.30000000000E+02  0.47000000000E+01 0. -1.
         -5    1    1    2    0  501 -0.18602505336E+02  0.21022010068E+02 -0.94832424811E+01  0.30000000000E+02  0.47000000000E+01 0.  1.
</event>
<event>
 4    1  0.7503339E-002  0.6000000E+02  0.7546771E-02  0.1259629E+00
         11   -1    0    0    0    0  0.00000000000E+00  0.00000000000E+00  0.30000000000E+02  0.30000000000E+02  0.00000000000E+00 0.  1.
        -11   -1    0    0    0    0 -0.00000000000E+00 -0.00000000000E+00 -0.30000000000E+02  0.30000000000E+02  0.00000000000E+00 0. -1.
          5    1    1    2  501    0  0.26244370984E+02  0.13446027645E+02 -0.28891750081E+01  0.30000000000E+02  0.47000000000E+01 0. -1.
         -5    1    1    2    0  501 -0.26244370984E+02 -0.13446027645E+02  0.28891750081E+01  0.30000000000E+02  0.47000000000E+01 0.  1.
</event>
<event>
 4    1  0.7503339E-002  0.6000000E+02  0.7546771E-02  0.1259629E+00
         11   -1    0    0    0    0  0.00000000000E+00  0.00000000000E+00  0.30000000000E+02  0.30000000000E+02  0.00000000000E+00 0.  1.
        -11   -1    0    0    0    0 -0.00000000000E+00 -0.00000000000E+00 -0.30000000000E+02  0.30000000000E+02  0.00000000000E+00 0. -1.
          5    1    1    2  501    0  0.94637884828E+01 -0.20687940136E+02 -0.18983040865E+02  0.30000000000E+02  0.47000000000E+01 0. -1.
         -5    1    1    2    0  501 -0.94637884828E+01  0.20687940136E+02  0.18983040865E+02  0.30000000000E+02  0.47000000000E+01 0.  1.
</event>
<event>
 4    1  0.7503339E-002  0.6000000E+02  0.7546771E-02  0.1259629E+00
         11   -1    0    0    0    0  0.00000000000E+00  0.00000000000E+00  0.30000000000E+02  0.30000000000E+02  0.00000000000E+00 0. -1.
        -11   -1    0    0    0    0 -0.00000000000E+00 -0.00000000000E+00 -0.30000000000E+02  0.30000000000E+02  0.00000000000E+00 0.  1.
          5    1    1    2  501    0 -0.79639092540E+00 -0.20532073372E+01 -0.29547590445E+02  0.30000000000E+02  0.47000000000E+01 0.  1.
         -5    1    1    2    0  501  0.79639092540E+00  0.20532073372E+01  0.29547590445E+02  0.30000000000E+02  0.47000000000E+01 0. -1.
</event>
<event>
 4    1  0.7503339E-002  0.6000000E+02  0.7546771E-02  0.1259629E+00
         11   -1    0    0    0    0  0.00000000000E+00  0.00000000000E+00  0.30000000000E+02  0.30000000000E+02  0.00000000000E+00 0. -1.
        -11   -1    0    0    0    0 -0.00000000000E+00 -0.00000000000E+00 -0.30000000000E+02  0.30000000000E+02  0.00000000000E+00 0.  1.
          5    1    1    2  501    0 -0.33373488335E+01  0.29340387188E+02  0.24318269774E+01  0.30000000000E+02  0.47000000000E+01 0.  1.
         -5    1    1    2    0  501  0.33373488335E+01 -0.29340387188E+02 -0.24318269774E+01  0.30000000000E+02  0.47000000000E+01 0. -1.
</event>
<event>
 4    1  0.7503339E-002  0.6000000E+02  0.7546771E-02  0.1259629E+00
         11   -1    0    0    0    0  0.00000000000E+00  0.00000000000E+00  0.30000000000E+02  0.30000000000E+02  0.00000000000E+00 0. -1.
        -11   -1    0    0    0    0 -0.00000000000E+00 -0.00000000000E+00 -0.30000000000E+02  0.30000000000E+02  0.00000000000E+00 0.  1.
          5    1    1    2  501    0  0.10405010719E+02 -0.11212301170E+02  0.25375776923E+02  0.30000000000E+02  0.47000000000E+01 0. -1.
         -5    1    1    2    0  501 -0.10405010719E+02  0.11212301170E+02 -0.25375776923E+02  0.30000000000E+02  0.47000000000E+01 0.  1.
</event>
<event>
 4    1  0.7503339E-002  0.6000000E+02  0.7546771E-02  0.1259629E+00
         11   -1    0    0    0    0  0.00000000000E+00  0.00000000000E+00  0.30000000000E+02  0.30000000000E+02  0.00000000000E+00 0.  1.
        -11   -1    0    0    0    0 -0.00000000000E+00 -0.00000000000E+00 -0.30000000000E+02  0.30000000000E+02  0.00000000000E+00 0. -1.
          5    1    1    2  501    0  0.27500395300E+02  0.79737366615E+01 -0.76195657371E+01  0.30000000000E+02  0.47000000000E+01 0. -1.
         -5    1    1    2    0  501 -0.27500395300E+02 -0.79737366615E+01  0.76195657371E+01  0.30000000000E+02  0.47000000000E+01 0.  1.
</event>
<event>
 4    1  0.7503339E-002  0.6000000E+02  0.7546771E-02  0.1259629E+00
         11   -1    0    0    0    0  0.00000000000E+00  0.00000000000E+00  0.30000000000E+02  0.30000000000E+02  0.00000000000E+00 0. -1.
        -11   -1    0    0    0    0 -0.00000000000E+00 -0.00000000000E+00 -0.30000000000E+02  0.30000000000E+02  0.00000000000E+00 0.  1.
          5    1    1    2  501    0 -0.10519501490E+02  0.11400553461E+02 -0.25244355194E+02  0.30000000000E+02  0.47000000000E+01 0.  1.
         -5    1    1    2    0  501  0.10519501490E+02 -0.11400553461E+02  0.25244355194E+02  0.30000000000E+02  0.47000000000E+01 0. -1.
</event>
<event>
 4    1  0.7503339E-002  0.6000000E+02  0.7546771E-02  0.1259629E+00
         11   -1    0    0    0    0  0.00000000000E+00  0.00000000000E+00  0.30000000000E+02  0.30000000000E+02  0.00000000000E+00 0.  1.
        -11   -1    0    0    0    0 -0.00000000000E+00 -0.00000000000E+00 -0.30000000000E+02  0.30000000000E+02  0.00000000000E+00 0. -1.
          5    1    1    2  501    0 -0.70353668483E+01  0.13861445538E+02 -0.25224471073E+02  0.30000000000E+02  0.47000000000E+01 0. -1.
         -5    1    1    2    0  501  0.70353668483E+01 -0.13861445538E+02  0.25224471073E+02  0.30000000000E+02  0.47000000000E+01 0.  1.
</event>
<event>
 4    1  0.7503339E-002  0.6000000E+02  0.7546771E-02  0.1259629E+00
         11   -1    0    0    0    0  0.00000000000E+00  0.00000000000E+00  0.30000000000E+02  0.30000000000E+02  0.00000000000E+00 0.  1.
        -11   -1    0    0    0    0 -0.00000000000E+00 -0.00000000000E+00 -0.30000000000E+02  0.30000000000E+02  0.00000000000E+00 0. -1.
          5    1    1    2  501    0 -0.23625719512E+02 -0.17599765131E+02 -0.31596906301E+01  0.30000000000E+02  0.47000000000E+01 0. -1.
         -5    1    1    2    0  501  0.23625719512E+02  0.17599765131E+02  0.31596906301E+01  0.30000000000E+02  0.47000000000E+01 0.  1.
</event>
<event>
 4    1  0.7503339E-002  0.6000000E+02  0.7546771E-02  0.1259629E+00
         11   -1    0    0    0    0  0.00000000000E+00  0.00000000000E+00  0.30000000000E+02  0.30000000000E+02  0.00000000000E+00 0.  1.
        -11   -1    0    0    0    0 -0.00000000000E+00 -0.00000000000E+00 -0.30000000000E+02  0.30000000000E+02  0.00000000000E+00 0. -1.
          5    1    1    2  501    0  0.12409135440E+02 -0.26878507552E+02 -0.12121012321E+01  0.30000000000E+02  0.47000000000E+01 0. -1.
         -5    1    1    2    0  501 -0.12409135440E+02  0.26878507552E+02  0.12121012321E+01  0.30000000000E+02  0.47000000000E+01 0.  1.
</event>
<event>
 4    1  0.7503339E-002  0.6000000E+02  0.7546771E-02  0.1259629E+00
         11   -1    0    0    0    0  0.00000000000E+00  0.00000000000E+00  0.30000000000E+02  0.30000000000E+02  0.00000000000E+00 0. -1.
        -11   -1    0    0    0    0 -0.00000000000E+00 -0.00000000000E+00 -0.30000000000E+02  0.30000000000E+02  0.00000000000E+00 0.  1.
          5    1    1    2  501    0  0.23427308919E+02  0.13125257798E+02 -0.12521932940E+02  0.30000000000E+02  0.47000000000E+01 0.  1.
         -5    1    1    2    0  501 -0.23427308919E+02 -0.13125257798E+02  0.12521932940E+02  0.30000000000E+02  0.47000000000E+01 0. -1.
</event>
<event>
 4    1  0.7503339E-002  0.6000000E+02  0.7546771E-02  0.1259629E+00
         11   -1    0    0    0    0  0.00000000000E+00  0.00000000000E+00  0.30000000000E+02  0.30000000000E+02  0.00000000000E+00 0.  1.
        -11   -1    0    0    0    0 -0.00000000000E+00 -0.00000000000E+00 -0.30000000000E+02  0.30000000000E+02  0.00000000000E+00 0. -1.
          5    1    1    2  501    0  0.65462505971E-01  0.22698543128E+02 -0.19044207900E+02  0.30000000000E+02  0.47000000000E+01 0. -1.
         -5    1    1    2    0  501 -0.65462505971E-01 -0.22698543128E+02  0.19044207900E+02  0.30000000000E+02  0.47000000000E+01 0.  1.
</event>
<event>
 4    1  0.7503339E-002  0.6000000E+02  0.7546771E-02  0.1259629E+00
         11   -1    0    0    0    0  0.00000000000E+00  0.00000000000E+00  0.30000000000E+02  0.30000000000E+02  0.00000000000E+00 0.  1.
        -11   -1    0    0    0    0 -0.00000000000E+00 -0.00000000000E+00 -0.30000000000E+02  0.30000000000E+02  0.00000000000E+00 0. -1.
          5    1    1    2  501    0  0.28449185873E+01 -0.71043876474E+01  0.28624187576E+02  0.30000000000E+02  0.47000000000E+01 0.  1.
         -5    1    1    2    0  501 -0.28449185873E+01  0.71043876474E+01 -0.28624187576E+02  0.30000000000E+02  0.47000000000E+01 0. -1.
</event>
<event>
 4    1  0.7503339E-002  0.6000000E+02  0.7546771E-02  0.1259629E+00
         11   -1    0    0    0    0  0.00000000000E+00  0.00000000000E+00  0.30000000000E+02  0.30000000000E+02  0.00000000000E+00 0.  1.
        -11   -1    0    0    0    0 -0.00000000000E+00 -0.00000000000E+00 -0.30000000000E+02  0.30000000000E+02  0.00000000000E+00 0. -1.
          5    1    1    2  501    0 -0.14453839949E+02  0.19796839183E+02  0.16645770307E+02  0.30000000000E+02  0.47000000000E+01 0. -1.
         -5    1    1    2    0  501  0.14453839949E+02 -0.19796839183E+02 -0.16645770307E+02  0.30000000000E+02  0.47000000000E+01 0.  1.
</event>
<event>
 4    1  0.7503339E-002  0.6000000E+02  0.7546771E-02  0.1259629E+00
         11   -1    0    0    0    0  0.00000000000E+00  0.00000000000E+00  0.30000000000E+02  0.30000000000E+02  0.00000000000E+00 0.  1.
        -11   -1    0    0    0    0 -0.00000000000E+00 -0.00000000000E+00 -0.30000000000E+02  0.30000000000E+02  0.00000000000E+00 0. -1.
          5    1    1    2  501    0  0.16688002239E+02  0.17317365122E+02  0.17306919036E+02  0.30000000000E+02  0.47000000000E+01 0.  1.
         -5    1    1    2    0  501 -0.16688002239E+02 -0.17317365122E+02 -0.17306919036E+02  0.30000000000E+02  0.47000000000E+01 0. -1.
</event>
<event>
 4    1  0.7503339E-002  0.6000000E+02  0.7546771E-02  0.1259629E+00
         11   -1    0    0    0    0  0.00000000000E+00  0.00000000000E+00  0.30000000000E+02  0.30000000000E+02  0.00000000000E+00 0.  1.
        -11   -1    0    0    0    0 -0.00000000000E+00 -0.00000000000E+00 -0.30000000000E+02  0.30000000000E+02  0.00000000000E+00 0. -1.
          5    1    1    2  501    0  0.24784868476E+02 -0.11931389714E+02 -0.11011913281E+02  0.30000000000E+02  0.47000000000E+01 0. -1.
         -5    1    1    2    0  501 -0.24784868476E+02  0.11931389714E+02  0.11011913281E+02  0.30000000000E+02  0.47000000000E+01 0.  1.
</event>
<event>
 4    1  0.7503339E-002  0.6000000E+02  0.7546771E-02  0.1259629E+00
         11   -1    0    0    0    0  0.00000000000E+00  0.00000000000E+00  0.30000000000E+02  0.30000000000E+02  0.00000000000E+00 0.  1.
        -11   -1    0    0    0    0 -0.00000000000E+00 -0.00000000000E+00 -0.30000000000E+02  0.30000000000E+02  0.00000000000E+00 0. -1.
          5    1    1    2  501    0 -0.31906392254E+01  0.23947472556E+02 -0.17153669564E+02  0.30000000000E+02  0.47000000000E+01 0. -1.
         -5    1    1    2    0  501  0.31906392254E+01 -0.23947472556E+02  0.17153669564E+02  0.30000000000E+02  0.47000000000E+01 0.  1.
</event>
<event>
 4    1  0.7503339E-002  0.6000000E+02  0.7546771E-02  0.1259629E+00
         11   -1    0    0    0    0  0.00000000000E+00  0.00000000000E+00  0.30000000000E+02  0.30000000000E+02  0.00000000000E+00 0.  1.
        -11   -1    0    0    0    0 -0.00000000000E+00 -0.00000000000E+00 -0.30000000000E+02  0.30000000000E+02  0.00000000000E+00 0. -1.
          5    1    1    2  501    0 -0.82272030003E+01 -0.16369171328E+02 -0.23286763640E+02  0.30000000000E+02  0.47000000000E+01 0. -1.
         -5    1    1    2    0  501  0.82272030003E+01  0.16369171328E+02  0.23286763640E+02  0.30000000000E+02  0.47000000000E+01 0.  1.
</event>
<event>
 4    1  0.7503339E-002  0.6000000E+02  0.7546771E-02  0.1259629E+00
         11   -1    0    0    0    0  0.00000000000E+00  0.00000000000E+00  0.30000000000E+02  0.30000000000E+02  0.00000000000E+00 0. -1.
        -11   -1    0    0    0    0 -0.00000000000E+00 -0.00000000000E+00 -0.30000000000E+02  0.30000000000E+02  0.00000000000E+00 0.  1.
          5    1    1    2  501    0  0.49983791536E+01  0.28925862054E+02  0.40274942884E+01  0.30000000000E+02  0.47000000000E+01 0.  1.
         -5    1    1    2    0  501 -0.49983791536E+01 -0.28925862054E+02 -0.40274942884E+01  0.30000000000E+02  0.47000000000E+01 0. -1.
</event>
<event>
 4    1  0.7503339E-002  0.6000000E+02  0.7546771E-02  0.1259629E+00
         11   -1    0    0    0    0  0.00000000000E+00  0.00000000000E+00  0.30000000000E+02  0.30000000000E+02  0.00000000000E+00 0. -1.
        -11   -1    0    0    0    0 -0.00000000000E+00 -0.00000000000E+00 -0.30000000000E+02  0.30000000000E+02  0.00000000000E+00 0.  1.
          5    1    1    2  501    0 -0.10332882516E+02  0.12026620190E+02 -0.25030020889E+02  0.30000000000E+02  0.47000000000E+01 0.  1.
         -5    1    1    2    0  501  0.10332882516E+02 -0.12026620190E+02  0.25030020889E+02  0.30000000000E+02  0.47000000000E+01 0. -1.
</event>
<event>
 4    1  0.7503339E-002  0.6000000E+02  0.7546771E-02  0.1259629E+00
         11   -1    0    0    0    0  0.00000000000E+00  0.00000000000E+00  0.30000000000E+02  0.30000000000E+02  0.00000000000E+00 0.  1.
        -11   -1    0    0    0    0 -0.00000000000E+00 -0.00000000000E+00 -0.30000000000E+02  0.30000000000E+02  0.00000000000E+00 0. -1.
          5    1    1    2  501    0 -0.50434077159E+01  0.93887982363E+01 -0.27646419412E+02  0.30000000000E+02  0.47000000000E+01 0. -1.
         -5    1    1    2    0  501  0.50434077159E+01 -0.93887982363E+01  0.27646419412E+02  0.30000000000E+02  0.47000000000E+01 0.  1.
</event>
<event>
 4    1  0.7503339E-002  0.6000000E+02  0.7546771E-02  0.1259629E+00
         11   -1    0    0    0    0  0.00000000000E+00  0.00000000000E+00  0.30000000000E+02  0.30000000000E+02  0.00000000000E+00 0.  1.
        -11   -1    0    0    0    0 -0.00000000000E+00 -0.00000000000E+00 -0.30000000000E+02  0.30000000000E+02  0.00000000000E+00 0. -1.
          5    1    1    2  501    0  0.14364754842E+01  0.56952784951E+01 -0.29041527870E+02  0.30000000000E+02  0.47000000000E+01 0. -1.
         -5    1    1    2    0  501 -0.14364754842E+01 -0.56952784951E+01  0.29041527870E+02  0.30000000000E+02  0.47000000000E+01 0.  1.
</event>
<event>
 4    1  0.7503339E-002  0.6000000E+02  0.7546771E-02  0.1259629E+00
         11   -1    0    0    0    0  0.00000000000E+00  0.00000000000E+00  0.30000000000E+02  0.30000000000E+02  0.00000000000E+00 0.  1.
        -11   -1    0    0    0    0 -0.00000000000E+00 -0.00000000000E+00 -0.30000000000E+02  0.30000000000E+02  0.00000000000E+00 0. -1.
          5    1    1    2  501    0 -0.16395742960E+01 -0.29214471382E+02  0.46622374429E+01  0.30000000000E+02  0.47000000000E+01 0. -1.
         -5    1    1    2    0  501  0.16395742960E+01  0.29214471382E+02 -0.46622374429E+01  0.30000000000E+02  0.47000000000E+01 0.  1.
</event>
<event>
 4    1  0.7503339E-002  0.6000000E+02  0.7546771E-02  0.1259629E+00
         11   -1    0    0    0    0  0.00000000000E+00  0.00000000000E+00  0.30000000000E+02  0.30000000000E+02  0.00000000000E+00 0. -1.
        -11   -1    0    0    0    0 -0.00000000000E+00 -0.00000000000E+00 -0.30000000000E+02  0.30000000000E+02  0.00000000000E+00 0.  1.
          5    1    1    2  501    0  0.14703078322E+01 -0.38342925786E+01 -0.29343592065E+02  0.30000000000E+02  0.47000000000E+01 0.  1.
         -5    1    1    2    0  501 -0.14703078322E+01  0.38342925786E+01  0.29343592065E+02  0.30000000000E+02  0.47000000000E+01 0. -1.
</event>
<event>
 4    1  0.7503339E-002  0.6000000E+02  0.7546771E-02  0.1259629E+00
         11   -1    0    0    0    0  0.00000000000E+00  0.00000000000E+00  0.30000000000E+02  0.30000000000E+02  0.00000000000E+00 0.  1.
        -11   -1    0    0    0    0 -0.00000000000E+00 -0.00000000000E+00 -0.30000000000E+02  0.30000000000E+02  0.00000000000E+00 0. -1.
          5    1    1    2  501    0  0.13093512002E+02  0.10640752850E+02 -0.24356607363E+02  0.30000000000E+02  0.47000000000E+01 0. -1.
         -5    1    1    2    0  501 -0.13093512002E+02 -0.10640752850E+02  0.24356607363E+02  0.30000000000E+02  0.47000000000E+01 0.  1.
</event>
<event>
 4    1  0.7503339E-002  0.6000000E+02  0.7546771E-02  0.1259629E+00
         11   -1    0    0    0    0  0.00000000000E+00  0.00000000000E+00  0.30000000000E+02  0.30000000000E+02  0.00000000000E+00 0.  1.
        -11   -1    0    0    0    0 -0.00000000000E+00 -0.00000000000E+00 -0.30000000000E+02  0.30000000000E+02  0.00000000000E+00 0. -1.
          5    1    1    2  501    0  0.17731946128E+02  0.79680710078E+01 -0.22360633509E+02  0.30000000000E+02  0.47000000000E+01 0. -1.
         -5    1    1    2    0  501 -0.17731946128E+02 -0.79680710078E+01  0.22360633509E+02  0.30000000000E+02  0.47000000000E+01 0.  1.
</event>
<event>
 4    1  0.7503339E-002  0.6000000E+02  0.7546771E-02  0.1259629E+00
         11   -1    0    0    0    0  0.00000000000E+00  0.00000000000E+00  0.30000000000E+02  0.30000000000E+02  0.00000000000E+00 0. -1.
        -11   -1    0    0    0    0 -0.00000000000E+00 -0.00000000000E+00 -0.30000000000E+02  0.30000000000E+02  0.00000000000E+00 0.  1.
          5    1    1    2  501    0 -0.12232762981E+02 -0.17785416214E+02 -0.20296513985E+02  0.30000000000E+02  0.47000000000E+01 0.  1.
         -5    1    1    2    0  501  0.12232762981E+02  0.17785416214E+02  0.20296513985E+02  0.30000000000E+02  0.47000000000E+01 0. -1.
</event>
<event>
 4    1  0.7503339E-002  0.6000000E+02  0.7546771E-02  0.1259629E+00
         11   -1    0    0    0    0  0.00000000000E+00  0.00000000000E+00  0.30000000000E+02  0.30000000000E+02  0.00000000000E+00 0. -1.
        -11   -1    0    0    0    0 -0.00000000000E+00 -0.00000000000E+00 -0.30000000000E+02  0.30000000000E+02  0.00000000000E+00 0.  1.
          5    1    1    2  501    0 -0.28734931695E+02  0.71939239429E+01 -0.67908671187E+00  0.30000000000E+02  0.47000000000E+01 0.  1.
         -5    1    1    2    0  501  0.28734931695E+02 -0.71939239429E+01  0.67908671187E+00  0.30000000000E+02  0.47000000000E+01 0. -1.
</event>
<event>
 4    1  0.7503339E-002  0.6000000E+02  0.7546771E-02  0.1259629E+00
         11   -1    0    0    0    0  0.00000000000E+00  0.00000000000E+00  0.30000000000E+02  0.30000000000E+02  0.00000000000E+00 0.  1.
        -11   -1    0    0    0    0 -0.00000000000E+00 -0.00000000000E+00 -0.30000000000E+02  0.30000000000E+02  0.00000000000E+00 0. -1.
          5    1    1    2  501    0  0.43294008172E+01 -0.53484870299E+01 -0.28819437452E+02  0.30000000000E+02  0.47000000000E+01 0. -1.
         -5    1    1    2    0  501 -0.43294008172E+01  0.53484870299E+01  0.28819437452E+02  0.30000000000E+02  0.47000000000E+01 0.  1.
</event>
<event>
 4    1  0.7503339E-002  0.6000000E+02  0.7546771E-02  0.1259629E+00
         11   -1    0    0    0    0  0.00000000000E+00  0.00000000000E+00  0.30000000000E+02  0.30000000000E+02  0.00000000000E+00 0.  1.
        -11   -1    0    0    0    0 -0.00000000000E+00 -0.00000000000E+00 -0.30000000000E+02  0.30000000000E+02  0.00000000000E+00 0. -1.
          5    1    1    2  501    0  0.18548900565E+01 -0.13066610600E+02  0.26527967700E+02  0.30000000000E+02  0.47000000000E+01 0.  1.
         -5    1    1    2    0  501 -0.18548900565E+01  0.13066610600E+02 -0.26527967700E+02  0.30000000000E+02  0.47000000000E+01 0. -1.
</event>
<event>
 4    1  0.7503339E-002  0.6000000E+02  0.7546771E-02  0.1259629E+00
         11   -1    0    0    0    0  0.00000000000E+00  0.00000000000E+00  0.30000000000E+02  0.30000000000E+02  0.00000000000E+00 0.  1.
        -11   -1    0    0    0    0 -0.00000000000E+00 -0.00000000000E+00 -0.30000000000E+02  0.30000000000E+02  0.00000000000E+00 0. -1.
          5    1    1    2  501    0 -0.19618129929E+02  0.19477196416E+02 -0.10661979078E+02  0.30000000000E+02  0.47000000000E+01 0. -1.
         -5    1    1    2    0  501  0.19618129929E+02 -0.19477196416E+02  0.10661979078E+02  0.30000000000E+02  0.47000000000E+01 0.  1.
</event>
<event>
 4    1  0.7503339E-002  0.6000000E+02  0.7546771E-02  0.1259629E+00
         11   -1    0    0    0    0  0.00000000000E+00  0.00000000000E+00  0.30000000000E+02  0.30000000000E+02  0.00000000000E+00 0.  1.
        -11   -1    0    0    0    0 -0.00000000000E+00 -0.00000000000E+00 -0.30000000000E+02  0.30000000000E+02  0.00000000000E+00 0. -1.
          5    1    1    2  501    0 -0.17438676697E+02  0.33494584814E+01 -0.23718846577E+02  0.30000000000E+02  0.47000000000E+01 0. -1.
         -5    1    1    2    0  501  0.17438676697E+02 -0.33494584814E+01  0.23718846577E+02  0.30000000000E+02  0.47000000000E+01 0.  1.
</event>
<event>
 4    1  0.7503339E-002  0.6000000E+02  0.7546771E-02  0.1259629E+00
         11   -1    0    0    0    0  0.00000000000E+00  0.00000000000E+00  0.30000000000E+02  0.30000000000E+02  0.00000000000E+00 0.  1.
        -11   -1    0    0    0    0 -0.00000000000E+00 -0.00000000000E+00 -0.30000000000E+02  0.30000000000E+02  0.00000000000E+00 0. -1.
          5    1    1    2  501    0  0.14759707608E+02  0.39005714507E+01 -0.25393829441E+02  0.30000000000E+02  0.47000000000E+01 0. -1.
         -5    1    1    2    0  501 -0.14759707608E+02 -0.39005714507E+01  0.25393829441E+02  0.30000000000E+02  0.47000000000E+01 0.  1.
</event>
<event>
 4    1  0.7503339E-002  0.6000000E+02  0.7546771E-02  0.1259629E+00
         11   -1    0    0    0    0  0.00000000000E+00  0.00000000000E+00  0.30000000000E+02  0.30000000000E+02  0.00000000000E+00 0.  1.
        -11   -1    0    0    0    0 -0.00000000000E+00 -0.00000000000E+00 -0.30000000000E+02  0.30000000000E+02  0.00000000000E+00 0. -1.
          5    1    1    2  501    0 -0.25245811413E+02 -0.11495805068E+02 -0.10411794847E+02  0.30000000000E+02  0.47000000000E+01 0. -1.
         -5    1    1    2    0  501  0.25245811413E+02  0.11495805068E+02  0.10411794847E+02  0.30000000000E+02  0.47000000000E+01 0.  1.
</event>
<event>
 4    1  0.7503339E-002  0.6000000E+02  0.7546771E-02  0.1259629E+00
         11   -1    0    0    0    0  0.00000000000E+00  0.00000000000E+00  0.30000000000E+02  0.30000000000E+02  0.00000000000E+00 0. -1.
        -11   -1    0    0    0    0 -0.00000000000E+00 -0.00000000000E+00 -0.30000000000E+02  0.30000000000E+02  0.00000000000E+00 0.  1.
          5    1    1    2  501    0 -0.24887329198E+02 -0.20110648560E+01 -0.15952631868E+02  0.30000000000E+02  0.47000000000E+01 0.  1.
         -5    1    1    2    0  501  0.24887329198E+02  0.20110648560E+01  0.15952631868E+02  0.30000000000E+02  0.47000000000E+01 0. -1.
</event>
<event>
 4    1  0.7503339E-002  0.6000000E+02  0.7546771E-02  0.1259629E+00
         11   -1    0    0    0    0  0.00000000000E+00  0.00000000000E+00  0.30000000000E+02  0.30000000000E+02  0.00000000000E+00 0. -1.
        -11   -1    0    0    0    0 -0.00000000000E+00 -0.00000000000E+00 -0.30000000000E+02  0.30000000000E+02  0.00000000000E+00 0.  1.
          5    1    1    2  501    0 -0.26421472011E+02  0.18382693011E+01 -0.13282943301E+02  0.30000000000E+02  0.47000000000E+01 0.  1.
         -5    1    1    2    0  501  0.26421472011E+02 -0.18382693011E+01  0.13282943301E+02  0.30000000000E+02  0.47000000000E+01 0. -1.
</event>
<event>
 4    1  0.7503339E-002  0.6000000E+02  0.7546771E-02  0.1259629E+00
         11   -1    0    0    0    0  0.00000000000E+00  0.00000000000E+00  0.30000000000E+02  0.30000000000E+02  0.00000000000E+00 0.  1.
        -11   -1    0    0    0    0 -0.00000000000E+00 -0.00000000000E+00 -0.30000000000E+02  0.30000000000E+02  0.00000000000E+00 0. -1.
          5    1    1    2  501    0  0.24431385291E+01  0.15457320276E+02 -0.25159736167E+02  0.30000000000E+02  0.47000000000E+01 0. -1.
         -5    1    1    2    0  501 -0.24431385291E+01 -0.15457320276E+02  0.25159736167E+02  0.30000000000E+02  0.47000000000E+01 0.  1.
</event>
<event>
 4    1  0.7503339E-002  0.6000000E+02  0.7546771E-02  0.1259629E+00
         11   -1    0    0    0    0  0.00000000000E+00  0.00000000000E+00  0.30000000000E+02  0.30000000000E+02  0.00000000000E+00 0.  1.
        -11   -1    0    0    0    0 -0.00000000000E+00 -0.00000000000E+00 -0.30000000000E+02  0.30000000000E+02  0.00000000000E+00 0. -1.
          5    1    1    2  501    0 -0.26565593040E+02 -0.19953133153E+01 -0.12969116825E+02  0.30000000000E+02  0.47000000000E+01 0. -1.
         -5    1    1    2    0  501  0.26565593040E+02  0.19953133153E+01  0.12969116825E+02  0.30000000000E+02  0.47000000000E+01 0.  1.
</event>
<event>
 4    1  0.7503339E-002  0.6000000E+02  0.7546771E-02  0.1259629E+00
         11   -1    0    0    0    0  0.00000000000E+00  0.00000000000E+00  0.30000000000E+02  0.30000000000E+02  0.00000000000E+00 0.  1.
        -11   -1    0    0    0    0 -0.00000000000E+00 -0.00000000000E+00 -0.30000000000E+02  0.30000000000E+02  0.00000000000E+00 0. -1.
          5    1    1    2  501    0  0.27513537344E+02 -0.35987027739E+01 -0.10390601579E+02  0.30000000000E+02  0.47000000000E+01 0. -1.
         -5    1    1    2    0  501 -0.27513537344E+02  0.35987027739E+01  0.10390601579E+02  0.30000000000E+02  0.47000000000E+01 0.  1.
</event>
<event>
 4    1  0.7503339E-002  0.6000000E+02  0.7546771E-02  0.1259629E+00
         11   -1    0    0    0    0  0.00000000000E+00  0.00000000000E+00  0.30000000000E+02  0.30000000000E+02  0.00000000000E+00 0.  1.
        -11   -1    0    0    0    0 -0.00000000000E+00 -0.00000000000E+00 -0.30000000000E+02  0.30000000000E+02  0.00000000000E+00 0. -1.
          5    1    1    2  501    0 -0.13967468961E+02  0.25149861751E+02 -0.70925499450E+01  0.30000000000E+02  0.47000000000E+01 0. -1.
         -5    1    1    2    0  501  0.13967468961E+02 -0.25149861751E+02  0.70925499450E+01  0.30000000000E+02  0.47000000000E+01 0.  1.
</event>
<event>
 4    1  0.7503339E-002  0.6000000E+02  0.7546771E-02  0.1259629E+00
         11   -1    0    0    0    0  0.00000000000E+00  0.00000000000E+00  0.30000000000E+02  0.30000000000E+02  0.00000000000E+00 0.  1.
        -11   -1    0    0    0    0 -0.00000000000E+00 -0.00000000000E+00 -0.30000000000E+02  0.30000000000E+02  0.00000000000E+00 0. -1.
          5    1    1    2  501    0 -0.10586187080E+02  0.23070057855E+02 -0.15284471652E+02  0.30000000000E+02  0.47000000000E+01 0. -1.
         -5    1    1    2    0  501  0.10586187080E+02 -0.23070057855E+02  0.15284471652E+02  0.30000000000E+02  0.47000000000E+01 0.  1.
</event>
<event>
 4    1  0.7503339E-002  0.6000000E+02  0.7546771E-02  0.1259629E+00
         11   -1    0    0    0    0  0.00000000000E+00  0.00000000000E+00  0.30000000000E+02  0.30000000000E+02  0.00000000000E+00 0.  1.
        -11   -1    0    0    0    0 -0.00000000000E+00 -0.00000000000E+00 -0.30000000000E+02  0.30000000000E+02  0.00000000000E+00 0. -1.
          5    1    1    2  501    0  0.93217597665E+01  0.22204542763E+02  0.17261896638E+02  0.30000000000E+02  0.47000000000E+01 0.  1.
         -5    1    1    2    0  501 -0.93217597665E+01 -0.22204542763E+02 -0.17261896638E+02  0.30000000000E+02  0.47000000000E+01 0. -1.
</event>
<event>
 4    1  0.7503339E-002  0.6000000E+02  0.7546771E-02  0.1259629E+00
         11   -1    0    0    0    0  0.00000000000E+00  0.00000000000E+00  0.30000000000E+02  0.30000000000E+02  0.00000000000E+00 0.  1.
        -11   -1    0    0    0    0 -0.00000000000E+00 -0.00000000000E+00 -0.30000000000E+02  0.30000000000E+02  0.00000000000E+00 0. -1.
          5    1    1    2  501    0 -0.19858464646E+02  0.18554043706E+02 -0.11802493129E+02  0.30000000000E+02  0.47000000000E+01 0. -1.
         -5    1    1    2    0  501  0.19858464646E+02 -0.18554043706E+02  0.11802493129E+02  0.30000000000E+02  0.47000000000E+01 0.  1.
</event>
<event>
 4    1  0.7503339E-002  0.6000000E+02  0.7546771E-02  0.1259629E+00
         11   -1    0    0    0    0  0.00000000000E+00  0.00000000000E+00  0.30000000000E+02  0.30000000000E+02  0.00000000000E+00 0.  1.
        -11   -1    0    0    0    0 -0.00000000000E+00 -0.00000000000E+00 -0.30000000000E+02  0.30000000000E+02  0.00000000000E+00 0. -1.
          5    1    1    2  501    0  0.53867728365E+01 -0.27527385349E+02 -0.95465037699E+01  0.30000000000E+02  0.47000000000E+01 0. -1.
         -5    1    1    2    0  501 -0.53867728365E+01  0.27527385349E+02  0.95465037699E+01  0.30000000000E+02  0.47000000000E+01 0.  1.
</event>
<event>
 4    1  0.7503339E-002  0.6000000E+02  0.7546771E-02  0.1259629E+00
         11   -1    0    0    0    0  0.00000000000E+00  0.00000000000E+00  0.30000000000E+02  0.30000000000E+02  0.00000000000E+00 0.  1.
        -11   -1    0    0    0    0 -0.00000000000E+00 -0.00000000000E+00 -0.30000000000E+02  0.30000000000E+02  0.00000000000E+00 0. -1.
          5    1    1    2  501    0 -0.95100600726E+01  0.23255526483E+01  0.27965345739E+02  0.30000000000E+02  0.47000000000E+01 0.  1.
         -5    1    1    2    0  501  0.95100600726E+01 -0.23255526483E+01 -0.27965345739E+02  0.30000000000E+02  0.47000000000E+01 0. -1.
</event>
<event>
 4    1  0.7503339E-002  0.6000000E+02  0.7546771E-02  0.1259629E+00
         11   -1    0    0    0    0  0.00000000000E+00  0.00000000000E+00  0.30000000000E+02  0.30000000000E+02  0.00000000000E+00 0. -1.
        -11   -1    0    0    0    0 -0.00000000000E+00 -0.00000000000E+00 -0.30000000000E+02  0.30000000000E+02  0.00000000000E+00 0.  1.
          5    1    1    2  501    0 -0.17220534377E+02 -0.20562949483E+02 -0.12590802370E+02  0.30000000000E+02  0.47000000000E+01 0.  1.
         -5    1    1    2    0  501  0.17220534377E+02  0.20562949483E+02  0.12590802370E+02  0.30000000000E+02  0.47000000000E+01 0. -1.
</event>
<event>
 4    1  0.7503339E-002  0.6000000E+02  0.7546771E-02  0.1259629E+00
         11   -1    0    0    0    0  0.00000000000E+00  0.00000000000E+00  0.30000000000E+02  0.30000000000E+02  0.00000000000E+00 0.  1.
        -11   -1    0    0    0    0 -0.00000000000E+00 -0.00000000000E+00 -0.30000000000E+02  0.30000000000E+02  0.00000000000E+00 0. -1.
          5    1    1    2  501    0 -0.64400755787E+01 -0.19369107312E+02 -0.21477269577E+02  0.30000000000E+02  0.47000000000E+01 0. -1.
         -5    1    1    2    0  501  0.64400755787E+01  0.19369107312E+02  0.21477269577E+02  0.30000000000E+02  0.47000000000E+01 0.  1.
</event>
<event>
 4    1  0.7503339E-002  0.6000000E+02  0.7546771E-02  0.1259629E+00
         11   -1    0    0    0    0  0.00000000000E+00  0.00000000000E+00  0.30000000000E+02  0.30000000000E+02  0.00000000000E+00 0.  1.
        -11   -1    0    0    0    0 -0.00000000000E+00 -0.00000000000E+00 -0.30000000000E+02  0.30000000000E+02  0.00000000000E+00 0. -1.
          5    1    1    2  501    0 -0.87175529066E+00 -0.25153205601E+01 -0.29509713743E+02  0.30000000000E+02  0.47000000000E+01 0. -1.
         -5    1    1    2    0  501  0.87175529066E+00  0.25153205601E+01  0.29509713743E+02  0.30000000000E+02  0.47000000000E+01 0.  1.
</event>
<event>
 4    1  0.7503339E-002  0.6000000E+02  0.7546771E-02  0.1259629E+00
         11   -1    0    0    0    0  0.00000000000E+00  0.00000000000E+00  0.30000000000E+02  0.30000000000E+02  0.00000000000E+00 0.  1.
        -11   -1    0    0    0    0 -0.00000000000E+00 -0.00000000000E+00 -0.30000000000E+02  0.30000000000E+02  0.00000000000E+00 0. -1.
          5    1    1    2  501    0  0.32097781514E+01  0.34679720112E+01 -0.29250307594E+02  0.30000000000E+02  0.47000000000E+01 0. -1.
         -5    1    1    2    0  501 -0.32097781514E+01 -0.34679720112E+01  0.29250307594E+02  0.30000000000E+02  0.47000000000E+01 0.  1.
</event>
<event>
 4    1  0.7503339E-002  0.6000000E+02  0.7546771E-02  0.1259629E+00
         11   -1    0    0    0    0  0.00000000000E+00  0.00000000000E+00  0.30000000000E+02  0.30000000000E+02  0.00000000000E+00 0.  1.
        -11   -1    0    0    0    0 -0.00000000000E+00 -0.00000000000E+00 -0.30000000000E+02  0.30000000000E+02  0.00000000000E+00 0. -1.
          5    1    1    2  501    0 -0.74672857627E+01  0.26342529297E+02 -0.11323462085E+02  0.30000000000E+02  0.47000000000E+01 0. -1.
         -5    1    1    2    0  501  0.74672857627E+01 -0.26342529297E+02  0.11323462085E+02  0.30000000000E+02  0.47000000000E+01 0.  1.
</event>
<event>
 4    1  0.7503339E-002  0.6000000E+02  0.7546771E-02  0.1259629E+00
         11   -1    0    0    0    0  0.00000000000E+00  0.00000000000E+00  0.30000000000E+02  0.30000000000E+02  0.00000000000E+00 0. -1.
        -11   -1    0    0    0    0 -0.00000000000E+00 -0.00000000000E+00 -0.30000000000E+02  0.30000000000E+02  0.00000000000E+00 0.  1.
          5    1    1    2  501    0 -0.24096491307E+00 -0.28736323527E+02  0.72163457549E+01  0.30000000000E+02  0.47000000000E+01 0. -1.
         -5    1    1    2    0  501  0.24096491307E+00  0.28736323527E+02 -0.72163457549E+01  0.30000000000E+02  0.47000000000E+01 0.  1.
</event>
<event>
 4    1  0.7503339E-002  0.6000000E+02  0.7546771E-02  0.1259629E+00
         11   -1    0    0    0    0  0.00000000000E+00  0.00000000000E+00  0.30000000000E+02  0.30000000000E+02  0.00000000000E+00 0.  1.
        -11   -1    0    0    0    0 -0.00000000000E+00 -0.00000000000E+00 -0.30000000000E+02  0.30000000000E+02  0.00000000000E+00 0. -1.
          5    1    1    2  501    0  0.25592579494E+02  0.13116564593E+02 -0.71334148985E+01  0.30000000000E+02  0.47000000000E+01 0. -1.
         -5    1    1    2    0  501 -0.25592579494E+02 -0.13116564593E+02  0.71334148985E+01  0.30000000000E+02  0.47000000000E+01 0.  1.
</event>
<event>
 4    1  0.7503339E-002  0.6000000E+02  0.7546771E-02  0.1259629E+00
         11   -1    0    0    0    0  0.00000000000E+00  0.00000000000E+00  0.30000000000E+02  0.30000000000E+02  0.00000000000E+00 0. -1.
        -11   -1    0    0    0    0 -0.00000000000E+00 -0.00000000000E+00 -0.30000000000E+02  0.30000000000E+02  0.00000000000E+00 0.  1.
          5    1    1    2  501    0  0.14168019783E+02  0.17570842799E+01 -0.25963240750E+02  0.30000000000E+02  0.47000000000E+01 0.  1.
         -5    1    1    2    0  501 -0.14168019783E+02 -0.17570842799E+01  0.25963240750E+02  0.30000000000E+02  0.47000000000E+01 0. -1.
</event>
<event>
 4    1  0.7503339E-002  0.6000000E+02  0.7546771E-02  0.1259629E+00
         11   -1    0    0    0    0  0.00000000000E+00  0.00000000000E+00  0.30000000000E+02  0.30000000000E+02  0.00000000000E+00 0.  1.
        -11   -1    0    0    0    0 -0.00000000000E+00 -0.00000000000E+00 -0.30000000000E+02  0.30000000000E+02  0.00000000000E+00 0. -1.
          5    1    1    2  501    0 -0.20480083376E+02 -0.76456746951E+01 -0.20000496078E+02  0.30000000000E+02  0.47000000000E+01 0. -1.
         -5    1    1    2    0  501  0.20480083376E+02  0.76456746951E+01  0.20000496078E+02  0.30000000000E+02  0.47000000000E+01 0.  1.
</event>
<event>
 4    1  0.7503339E-002  0.6000000E+02  0.7546771E-02  0.1259629E+00
         11   -1    0    0    0    0  0.00000000000E+00  0.00000000000E+00  0.30000000000E+02  0.30000000000E+02  0.00000000000E+00 0.  1.
        -11   -1    0    0    0    0 -0.00000000000E+00 -0.00000000000E+00 -0.30000000000E+02  0.30000000000E+02  0.00000000000E+00 0. -1.
          5    1    1    2  501    0 -0.10564517467E+02 -0.98905289467E+01 -0.25854949388E+02  0.30000000000E+02  0.47000000000E+01 0. -1.
         -5    1    1    2    0  501  0.10564517467E+02  0.98905289467E+01  0.25854949388E+02  0.30000000000E+02  0.47000000000E+01 0.  1.
</event>
<event>
 4    1  0.7503339E-002  0.6000000E+02  0.7546771E-02  0.1259629E+00
         11   -1    0    0    0    0  0.00000000000E+00  0.00000000000E+00  0.30000000000E+02  0.30000000000E+02  0.00000000000E+00 0.  1.
        -11   -1    0    0    0    0 -0.00000000000E+00 -0.00000000000E+00 -0.30000000000E+02  0.30000000000E+02  0.00000000000E+00 0. -1.
          5    1    1    2  501    0  0.91196862690E+01  0.14072499593E+02  0.24427567983E+02  0.30000000000E+02  0.47000000000E+01 0.  1.
         -5    1    1    2    0  501 -0.91196862690E+01 -0.14072499593E+02 -0.24427567983E+02  0.30000000000E+02  0.47000000000E+01 0. -1.
</event>
<event>
 4    1  0.7503339E-002  0.6000000E+02  0.7546771E-02  0.1259629E+00
         11   -1    0    0    0    0  0.00000000000E+00  0.00000000000E+00  0.30000000000E+02  0.30000000000E+02  0.00000000000E+00 0.  1.
        -11   -1    0    0    0    0 -0.00000000000E+00 -0.00000000000E+00 -0.30000000000E+02  0.30000000000E+02  0.00000000000E+00 0. -1.
          5    1    1    2  501    0  0.16084401409E+02 -0.77823932982E+01 -0.23635489964E+02  0.30000000000E+02  0.47000000000E+01 0. -1.
         -5    1    1    2    0  501 -0.16084401409E+02  0.77823932982E+01  0.23635489964E+02  0.30000000000E+02  0.47000000000E+01 0.  1.
</event>
<event>
 4    1  0.7503339E-002  0.6000000E+02  0.7546771E-02  0.1259629E+00
         11   -1    0    0    0    0  0.00000000000E+00  0.00000000000E+00  0.30000000000E+02  0.30000000000E+02  0.00000000000E+00 0.  1.
        -11   -1    0    0    0    0 -0.00000000000E+00 -0.00000000000E+00 -0.30000000000E+02  0.30000000000E+02  0.00000000000E+00 0. -1.
          5    1    1    2  501    0 -0.73294334298E+01 -0.12678814389E+02 -0.25757272202E+02  0.30000000000E+02  0.47000000000E+01 0. -1.
         -5    1    1    2    0  501  0.73294334298E+01  0.12678814389E+02  0.25757272202E+02  0.30000000000E+02  0.47000000000E+01 0.  1.
</event>
<event>
 4    1  0.7503339E-002  0.6000000E+02  0.7546771E-02  0.1259629E+00
         11   -1    0    0    0    0  0.00000000000E+00  0.00000000000E+00  0.30000000000E+02  0.30000000000E+02  0.00000000000E+00 0.  1.
        -11   -1    0    0    0    0 -0.00000000000E+00 -0.00000000000E+00 -0.30000000000E+02  0.30000000000E+02  0.00000000000E+00 0. -1.
          5    1    1    2  501    0 -0.16326942150E+02 -0.24347259166E+02 -0.43071952722E+01  0.30000000000E+02  0.47000000000E+01 0. -1.
         -5    1    1    2    0  501  0.16326942150E+02  0.24347259166E+02  0.43071952722E+01  0.30000000000E+02  0.47000000000E+01 0.  1.
</event>
<event>
 4    1  0.7503339E-002  0.6000000E+02  0.7546771E-02  0.1259629E+00
         11   -1    0    0    0    0  0.00000000000E+00  0.00000000000E+00  0.30000000000E+02  0.30000000000E+02  0.00000000000E+00 0.  1.
        -11   -1    0    0    0    0 -0.00000000000E+00 -0.00000000000E+00 -0.30000000000E+02  0.30000000000E+02  0.00000000000E+00 0. -1.
          5    1    1    2  501    0 -0.12796403669E+02  0.51538273430E+01 -0.26222130289E+02  0.30000000000E+02  0.47000000000E+01 0. -1.
         -5    1    1    2    0  501  0.12796403669E+02 -0.51538273430E+01  0.26222130289E+02  0.30000000000E+02  0.47000000000E+01 0.  1.
</event>
<event>
 4    1  0.7503339E-002  0.6000000E+02  0.7546771E-02  0.1259629E+00
         11   -1    0    0    0    0  0.00000000000E+00  0.00000000000E+00  0.30000000000E+02  0.30000000000E+02  0.00000000000E+00 0.  1.
        -11   -1    0    0    0    0 -0.00000000000E+00 -0.00000000000E+00 -0.30000000000E+02  0.30000000000E+02  0.00000000000E+00 0. -1.
          5    1    1    2  501    0  0.13230596634E+02 -0.24938667370E+02  0.89957869300E+01  0.30000000000E+02  0.47000000000E+01 0. -1.
         -5    1    1    2    0  501 -0.13230596634E+02  0.24938667370E+02 -0.89957869300E+01  0.30000000000E+02  0.47000000000E+01 0.  1.
</event>
<event>
 4    1  0.7503339E-002  0.6000000E+02  0.7546771E-02  0.1259629E+00
         11   -1    0    0    0    0  0.00000000000E+00  0.00000000000E+00  0.30000000000E+02  0.30000000000E+02  0.00000000000E+00 0.  1.
        -11   -1    0    0    0    0 -0.00000000000E+00 -0.00000000000E+00 -0.30000000000E+02  0.30000000000E+02  0.00000000000E+00 0. -1.
          5    1    1    2  501    0 -0.28291007291E+01 -0.53236491437E+01 -0.29009738862E+02  0.30000000000E+02  0.47000000000E+01 0. -1.
         -5    1    1    2    0  501  0.28291007291E+01  0.53236491437E+01  0.29009738862E+02  0.30000000000E+02  0.47000000000E+01 0.  1.
</event>
<event>
 4    1  0.7503339E-002  0.6000000E+02  0.7546771E-02  0.1259629E+00
         11   -1    0    0    0    0  0.00000000000E+00  0.00000000000E+00  0.30000000000E+02  0.30000000000E+02  0.00000000000E+00 0. -1.
        -11   -1    0    0    0    0 -0.00000000000E+00 -0.00000000000E+00 -0.30000000000E+02  0.30000000000E+02  0.00000000000E+00 0.  1.
          5    1    1    2  501    0  0.27038278078E+02 -0.60702352075E+01 -0.10487791144E+02  0.30000000000E+02  0.47000000000E+01 0.  1.
         -5    1    1    2    0  501 -0.27038278078E+02  0.60702352075E+01  0.10487791144E+02  0.30000000000E+02  0.47000000000E+01 0. -1.
</event>
<event>
 4    1  0.7503339E-002  0.6000000E+02  0.7546771E-02  0.1259629E+00
         11   -1    0    0    0    0  0.00000000000E+00  0.00000000000E+00  0.30000000000E+02  0.30000000000E+02  0.00000000000E+00 0.  1.
        -11   -1    0    0    0    0 -0.00000000000E+00 -0.00000000000E+00 -0.30000000000E+02  0.30000000000E+02  0.00000000000E+00 0. -1.
          5    1    1    2  501    0  0.16554684962E+01 -0.29536905759E+02 -0.16554824793E+01  0.30000000000E+02  0.47000000000E+01 0. -1.
         -5    1    1    2    0  501 -0.16554684962E+01  0.29536905759E+02  0.16554824793E+01  0.30000000000E+02  0.47000000000E+01 0.  1.
</event>
<event>
 4    1  0.7503339E-002  0.6000000E+02  0.7546771E-02  0.1259629E+00
         11   -1    0    0    0    0  0.00000000000E+00  0.00000000000E+00  0.30000000000E+02  0.30000000000E+02  0.00000000000E+00 0.  1.
        -11   -1    0    0    0    0 -0.00000000000E+00 -0.00000000000E+00 -0.30000000000E+02  0.30000000000E+02  0.00000000000E+00 0. -1.
          5    1    1    2  501    0  0.22366795787E+02  0.19352159500E+02  0.17692848649E+01  0.30000000000E+02  0.47000000000E+01 0. -1.
         -5    1    1    2    0  501 -0.22366795787E+02 -0.19352159500E+02 -0.17692848649E+01  0.30000000000E+02  0.47000000000E+01 0.  1.
</event>
<event>
 4    1  0.7503339E-002  0.6000000E+02  0.7546771E-02  0.1259629E+00
         11   -1    0    0    0    0  0.00000000000E+00  0.00000000000E+00  0.30000000000E+02  0.30000000000E+02  0.00000000000E+00 0. -1.
        -11   -1    0    0    0    0 -0.00000000000E+00 -0.00000000000E+00 -0.30000000000E+02  0.30000000000E+02  0.00000000000E+00 0.  1.
          5    1    1    2  501    0 -0.19704480539E+02  0.22208150024E+01 -0.22016162868E+02  0.30000000000E+02  0.47000000000E+01 0.  1.
         -5    1    1    2    0  501  0.19704480539E+02 -0.22208150024E+01  0.22016162868E+02  0.30000000000E+02  0.47000000000E+01 0. -1.
</event>
<event>
 4    1  0.7503339E-002  0.6000000E+02  0.7546771E-02  0.1259629E+00
         11   -1    0    0    0    0  0.00000000000E+00  0.00000000000E+00  0.30000000000E+02  0.30000000000E+02  0.00000000000E+00 0. -1.
        -11   -1    0    0    0    0 -0.00000000000E+00 -0.00000000000E+00 -0.30000000000E+02  0.30000000000E+02  0.00000000000E+00 0.  1.
          5    1    1    2  501    0  0.19394376300E+02  0.41166006199E+01 -0.22018668608E+02  0.30000000000E+02  0.47000000000E+01 0.  1.
         -5    1    1    2    0  501 -0.19394376300E+02 -0.41166006199E+01  0.22018668608E+02  0.30000000000E+02  0.47000000000E+01 0. -1.
</event>
<event>
 4    1  0.7503339E-002  0.6000000E+02  0.7546771E-02  0.1259629E+00
         11   -1    0    0    0    0  0.00000000000E+00  0.00000000000E+00  0.30000000000E+02  0.30000000000E+02  0.00000000000E+00 0.  1.
        -11   -1    0    0    0    0 -0.00000000000E+00 -0.00000000000E+00 -0.30000000000E+02  0.30000000000E+02  0.00000000000E+00 0. -1.
          5    1    1    2  501    0  0.15769781140E+02  0.18641682763E+02 -0.16784268426E+02  0.30000000000E+02  0.47000000000E+01 0. -1.
         -5    1    1    2    0  501 -0.15769781140E+02 -0.18641682763E+02  0.16784268426E+02  0.30000000000E+02  0.47000000000E+01 0.  1.
</event>
<event>
 4    1  0.7503339E-002  0.6000000E+02  0.7546771E-02  0.1259629E+00
         11   -1    0    0    0    0  0.00000000000E+00  0.00000000000E+00  0.30000000000E+02  0.30000000000E+02  0.00000000000E+00 0. -1.
        -11   -1    0    0    0    0 -0.00000000000E+00 -0.00000000000E+00 -0.30000000000E+02  0.30000000000E+02  0.00000000000E+00 0.  1.
          5    1    1    2  501    0 -0.13716692145E+01 -0.42451255201E+01 -0.29291763909E+02  0.30000000000E+02  0.47000000000E+01 0.  1.
         -5    1    1    2    0  501  0.13716692145E+01  0.42451255201E+01  0.29291763909E+02  0.30000000000E+02  0.47000000000E+01 0. -1.
</event>
<event>
 4    1  0.7503339E-002  0.6000000E+02  0.7546771E-02  0.1259629E+00
         11   -1    0    0    0    0  0.00000000000E+00  0.00000000000E+00  0.30000000000E+02  0.30000000000E+02  0.00000000000E+00 0.  1.
        -11   -1    0    0    0    0 -0.00000000000E+00 -0.00000000000E+00 -0.30000000000E+02  0.30000000000E+02  0.00000000000E+00 0. -1.
          5    1    1    2  501    0 -0.14249774933E+02 -0.24249312933E+02 -0.93179792140E+01  0.30000000000E+02  0.47000000000E+01 0. -1.
         -5    1    1    2    0  501  0.14249774933E+02  0.24249312933E+02  0.93179792140E+01  0.30000000000E+02  0.47000000000E+01 0.  1.
</event>
<event>
 4    1  0.7503339E-002  0.6000000E+02  0.7546771E-02  0.1259629E+00
         11   -1    0    0    0    0  0.00000000000E+00  0.00000000000E+00  0.30000000000E+02  0.30000000000E+02  0.00000000000E+00 0.  1.
        -11   -1    0    0    0    0 -0.00000000000E+00 -0.00000000000E+00 -0.30000000000E+02  0.30000000000E+02  0.00000000000E+00 0. -1.
          5    1    1    2  501    0 -0.15139080796E+01  0.26764952799E+02  0.12619642784E+02  0.30000000000E+02  0.47000000000E+01 0. -1.
         -5    1    1    2    0  501  0.15139080796E+01 -0.26764952799E+02 -0.12619642784E+02  0.30000000000E+02  0.47000000000E+01 0.  1.
</event>
<event>
 4    1  0.7503339E-002  0.6000000E+02  0.7546771E-02  0.1259629E+00
         11   -1    0    0    0    0  0.00000000000E+00  0.00000000000E+00  0.30000000000E+02  0.30000000000E+02  0.00000000000E+00 0.  1.
        -11   -1    0    0    0    0 -0.00000000000E+00 -0.00000000000E+00 -0.30000000000E+02  0.30000000000E+02  0.00000000000E+00 0. -1.
          5    1    1    2  501    0  0.27243956960E+02  0.71437143640E+01 -0.92002257718E+01  0.30000000000E+02  0.47000000000E+01 0. -1.
         -5    1    1    2    0  501 -0.27243956960E+02 -0.71437143640E+01  0.92002257718E+01  0.30000000000E+02  0.47000000000E+01 0.  1.
</event>
<event>
 4    1  0.7503339E-002  0.6000000E+02  0.7546771E-02  0.1259629E+00
         11   -1    0    0    0    0  0.00000000000E+00  0.00000000000E+00  0.30000000000E+02  0.30000000000E+02  0.00000000000E+00 0.  1.
        -11   -1    0    0    0    0 -0.00000000000E+00 -0.00000000000E+00 -0.30000000000E+02  0.30000000000E+02  0.00000000000E+00 0. -1.
          5    1    1    2  501    0  0.57135028730E+01  0.14192545123E+02 -0.25373954123E+02  0.30000000000E+02  0.47000000000E+01 0. -1.
         -5    1    1    2    0  501 -0.57135028730E+01 -0.14192545123E+02  0.25373954123E+02  0.30000000000E+02  0.47000000000E+01 0.  1.
</event>
<event>
 4    1  0.7503339E-002  0.6000000E+02  0.7546771E-02  0.1259629E+00
         11   -1    0    0    0    0  0.00000000000E+00  0.00000000000E+00  0.30000000000E+02  0.30000000000E+02  0.00000000000E+00 0. -1.
        -11   -1    0    0    0    0 -0.00000000000E+00 -0.00000000000E+00 -0.30000000000E+02  0.30000000000E+02  0.00000000000E+00 0.  1.
          5    1    1    2  501    0 -0.11695143791E+02 -0.27218007526E+02  0.56006968190E+00  0.30000000000E+02  0.47000000000E+01 0.  1.
         -5    1    1    2    0  501  0.11695143791E+02  0.27218007526E+02 -0.56006968190E+00  0.30000000000E+02  0.47000000000E+01 0. -1.
</event>
<event>
 4    1  0.7503339E-002  0.6000000E+02  0.7546771E-02  0.1259629E+00
         11   -1    0    0    0    0  0.00000000000E+00  0.00000000000E+00  0.30000000000E+02  0.30000000000E+02  0.00000000000E+00 0.  1.
        -11   -1    0    0    0    0 -0.00000000000E+00 -0.00000000000E+00 -0.30000000000E+02  0.30000000000E+02  0.00000000000E+00 0. -1.
          5    1    1    2  501    0  0.19359030969E+02  0.17511920287E+01 -0.22362272837E+02  0.30000000000E+02  0.47000000000E+01 0. -1.
         -5    1    1    2    0  501 -0.19359030969E+02 -0.17511920287E+01  0.22362272837E+02  0.30000000000E+02  0.47000000000E+01 0.  1.
</event>
<event>
 4    1  0.7503339E-002  0.6000000E+02  0.7546771E-02  0.1259629E+00
         11   -1    0    0    0    0  0.00000000000E+00  0.00000000000E+00  0.30000000000E+02  0.30000000000E+02  0.00000000000E+00 0.  1.
        -11   -1    0    0    0    0 -0.00000000000E+00 -0.00000000000E+00 -0.30000000000E+02  0.30000000000E+02  0.00000000000E+00 0. -1.
          5    1    1    2  501    0 -0.21269204187E+02 -0.10544009845E+02 -0.17730053853E+02  0.30000000000E+02  0.47000000000E+01 0. -1.
         -5    1    1    2    0  501  0.21269204187E+02  0.10544009845E+02  0.17730053853E+02  0.30000000000E+02  0.47000000000E+01 0.  1.
</event>
<event>
 4    1  0.7503339E-002  0.6000000E+02  0.7546771E-02  0.1259629E+00
         11   -1    0    0    0    0  0.00000000000E+00  0.00000000000E+00  0.30000000000E+02  0.30000000000E+02  0.00000000000E+00 0. -1.
        -11   -1    0    0    0    0 -0.00000000000E+00 -0.00000000000E+00 -0.30000000000E+02  0.30000000000E+02  0.00000000000E+00 0.  1.
          5    1    1    2  501    0 -0.20132549605E+02  0.20641657841E+02  0.68200005867E+01  0.30000000000E+02  0.47000000000E+01 0. -1.
         -5    1    1    2    0  501  0.20132549605E+02 -0.20641657841E+02 -0.68200005867E+01  0.30000000000E+02  0.47000000000E+01 0.  1.
</event>
<event>
 4    1  0.7503339E-002  0.6000000E+02  0.7546771E-02  0.1259629E+00
         11   -1    0    0    0    0  0.00000000000E+00  0.00000000000E+00  0.30000000000E+02  0.30000000000E+02  0.00000000000E+00 0. -1.
        -11   -1    0    0    0    0 -0.00000000000E+00 -0.00000000000E+00 -0.30000000000E+02  0.30000000000E+02  0.00000000000E+00 0.  1.
          5    1    1    2  501    0  0.20765057768E+02  0.12565238731E+01 -0.21098424672E+02  0.30000000000E+02  0.47000000000E+01 0.  1.
         -5    1    1    2    0  501 -0.20765057768E+02 -0.12565238731E+01  0.21098424672E+02  0.30000000000E+02  0.47000000000E+01 0. -1.
</event>
<event>
 4    1  0.7503339E-002  0.6000000E+02  0.7546771E-02  0.1259629E+00
         11   -1    0    0    0    0  0.00000000000E+00  0.00000000000E+00  0.30000000000E+02  0.30000000000E+02  0.00000000000E+00 0.  1.
        -11   -1    0    0    0    0 -0.00000000000E+00 -0.00000000000E+00 -0.30000000000E+02  0.30000000000E+02  0.00000000000E+00 0. -1.
          5    1    1    2  501    0 -0.19171870115E+02 -0.10704645860E+01 -0.22565537925E+02  0.30000000000E+02  0.47000000000E+01 0. -1.
         -5    1    1    2    0  501  0.19171870115E+02  0.10704645860E+01  0.22565537925E+02  0.30000000000E+02  0.47000000000E+01 0.  1.
</event>
<event>
 4    1  0.7503339E-002  0.6000000E+02  0.7546771E-02  0.1259629E+00
         11   -1    0    0    0    0  0.00000000000E+00  0.00000000000E+00  0.30000000000E+02  0.30000000000E+02  0.00000000000E+00 0. -1.
        -11   -1    0    0    0    0 -0.00000000000E+00 -0.00000000000E+00 -0.30000000000E+02  0.30000000000E+02  0.00000000000E+00 0.  1.
          5    1    1    2  501    0 -0.80535944083E+01  0.99961494379E+01 -0.26704430597E+02  0.30000000000E+02  0.47000000000E+01 0.  1.
         -5    1    1    2    0  501  0.80535944083E+01 -0.99961494379E+01  0.26704430597E+02  0.30000000000E+02  0.47000000000E+01 0. -1.
</event>
<event>
 4    1  0.7503339E-002  0.6000000E+02  0.7546771E-02  0.1259629E+00
         11   -1    0    0    0    0  0.00000000000E+00  0.00000000000E+00  0.30000000000E+02  0.30000000000E+02  0.00000000000E+00 0. -1.
        -11   -1    0    0    0    0 -0.00000000000E+00 -0.00000000000E+00 -0.30000000000E+02  0.30000000000E+02  0.00000000000E+00 0.  1.
          5    1    1    2  501    0 -0.12848092820E+02 -0.25057629156E+02  0.92169263826E+01  0.30000000000E+02  0.47000000000E+01 0. -1.
         -5    1    1    2    0  501  0.12848092820E+02  0.25057629156E+02 -0.92169263826E+01  0.30000000000E+02  0.47000000000E+01 0.  1.
</event>
<event>
 4    1  0.7503339E-002  0.6000000E+02  0.7546771E-02  0.1259629E+00
         11   -1    0    0    0    0  0.00000000000E+00  0.00000000000E+00  0.30000000000E+02  0.30000000000E+02  0.00000000000E+00 0.  1.
        -11   -1    0    0    0    0 -0.00000000000E+00 -0.00000000000E+00 -0.30000000000E+02  0.30000000000E+02  0.00000000000E+00 0. -1.
          5    1    1    2  501    0  0.90165781878E+01 -0.27920442187E+02  0.41304026272E+01  0.30000000000E+02  0.47000000000E+01 0.  1.
         -5    1    1    2    0  501 -0.90165781878E+01  0.27920442187E+02 -0.41304026272E+01  0.30000000000E+02  0.47000000000E+01 0. -1.
</event>
<event>
 4    1  0.7503339E-002  0.6000000E+02  0.7546771E-02  0.1259629E+00
         11   -1    0    0    0    0  0.00000000000E+00  0.00000000000E+00  0.30000000000E+02  0.30000000000E+02  0.00000000000E+00 0.  1.
        -11   -1    0    0    0    0 -0.00000000000E+00 -0.00000000000E+00 -0.30000000000E+02  0.30000000000E+02  0.00000000000E+00 0. -1.
          5    1    1    2  501    0 -0.24942557789E+02  0.14759852173E+02  0.61583743618E+01  0.30000000000E+02  0.47000000000E+01 0. -1.
         -5    1    1    2    0  501  0.24942557789E+02 -0.14759852173E+02 -0.61583743618E+01  0.30000000000E+02  0.47000000000E+01 0.  1.
</event>
<event>
 4    1  0.7503339E-002  0.6000000E+02  0.7546771E-02  0.1259629E+00
         11   -1    0    0    0    0  0.00000000000E+00  0.00000000000E+00  0.30000000000E+02  0.30000000000E+02  0.00000000000E+00 0.  1.
        -11   -1    0    0    0    0 -0.00000000000E+00 -0.00000000000E+00 -0.30000000000E+02  0.30000000000E+02  0.00000000000E+00 0. -1.
          5    1    1    2  501    0 -0.22907572031E+02 -0.18785833655E+02 -0.49557796855E+00  0.30000000000E+02  0.47000000000E+01 0. -1.
         -5    1    1    2    0  501  0.22907572031E+02  0.18785833655E+02  0.49557796855E+00  0.30000000000E+02  0.47000000000E+01 0.  1.
</event>
<event>
 4    1  0.7503339E-002  0.6000000E+02  0.7546771E-02  0.1259629E+00
         11   -1    0    0    0    0  0.00000000000E+00  0.00000000000E+00  0.30000000000E+02  0.30000000000E+02  0.00000000000E+00 0.  1.
        -11   -1    0    0    0    0 -0.00000000000E+00 -0.00000000000E+00 -0.30000000000E+02  0.30000000000E+02  0.00000000000E+00 0. -1.
          5    1    1    2  501    0  0.45820743994E+01  0.12391481900E+02 -0.26521043918E+02  0.30000000000E+02  0.47000000000E+01 0. -1.
         -5    1    1    2    0  501 -0.45820743994E+01 -0.12391481900E+02  0.26521043918E+02  0.30000000000E+02  0.47000000000E+01 0.  1.
</event>
<event>
 4    1  0.7503339E-002  0.6000000E+02  0.7546771E-02  0.1259629E+00
         11   -1    0    0    0    0  0.00000000000E+00  0.00000000000E+00  0.30000000000E+02  0.30000000000E+02  0.00000000000E+00 0. -1.
        -11   -1    0    0    0    0 -0.00000000000E+00 -0.00000000000E+00 -0.30000000000E+02  0.30000000000E+02  0.00000000000E+00 0.  1.
          5    1    1    2  501    0  0.88475987299E+01 -0.10452059275E+02 -0.26275168004E+02  0.30000000000E+02  0.47000000000E+01 0.  1.
         -5    1    1    2    0  501 -0.88475987299E+01  0.10452059275E+02  0.26275168004E+02  0.30000000000E+02  0.47000000000E+01 0. -1.
</event>
<event>
 4    1  0.7503339E-002  0.6000000E+02  0.7546771E-02  0.1259629E+00
         11   -1    0    0    0    0  0.00000000000E+00  0.00000000000E+00  0.30000000000E+02  0.30000000000E+02  0.00000000000E+00 0.  1.
        -11   -1    0    0    0    0 -0.00000000000E+00 -0.00000000000E+00 -0.30000000000E+02  0.30000000000E+02  0.00000000000E+00 0. -1.
          5    1    1    2  501    0 -0.13090344642E+02  0.24604842850E+02 -0.10057563595E+02  0.30000000000E+02  0.47000000000E+01 0. -1.
         -5    1    1    2    0  501  0.13090344642E+02 -0.24604842850E+02  0.10057563595E+02  0.30000000000E+02  0.47000000000E+01 0.  1.
</event>
<event>
 4    1  0.7503339E-002  0.6000000E+02  0.7546771E-02  0.1259629E+00
         11   -1    0    0    0    0  0.00000000000E+00  0.00000000000E+00  0.30000000000E+02  0.30000000000E+02  0.00000000000E+00 0.  1.
        -11   -1    0    0    0    0 -0.00000000000E+00 -0.00000000000E+00 -0.30000000000E+02  0.30000000000E+02  0.00000000000E+00 0. -1.
          5    1    1    2  501    0 -0.19938203053E+02 -0.11570851824E+02 -0.18614334452E+02  0.30000000000E+02  0.47000000000E+01 0. -1.
         -5    1    1    2    0  501  0.19938203053E+02  0.11570851824E+02  0.18614334452E+02  0.30000000000E+02  0.47000000000E+01 0.  1.
</event>
<event>
 4    1  0.7503339E-002  0.6000000E+02  0.7546771E-02  0.1259629E+00
         11   -1    0    0    0    0  0.00000000000E+00  0.00000000000E+00  0.30000000000E+02  0.30000000000E+02  0.00000000000E+00 0. -1.
        -11   -1    0    0    0    0 -0.00000000000E+00 -0.00000000000E+00 -0.30000000000E+02  0.30000000000E+02  0.00000000000E+00 0.  1.
          5    1    1    2  501    0 -0.16866339941E+02  0.68262927065E+01 -0.23384574080E+02  0.30000000000E+02  0.47000000000E+01 0.  1.
         -5    1    1    2    0  501  0.16866339941E+02 -0.68262927065E+01  0.23384574080E+02  0.30000000000E+02  0.47000000000E+01 0. -1.
</event>
<event>
 4    1  0.7503339E-002  0.6000000E+02  0.7546771E-02  0.1259629E+00
         11   -1    0    0    0    0  0.00000000000E+00  0.00000000000E+00  0.30000000000E+02  0.30000000000E+02  0.00000000000E+00 0.  1.
        -11   -1    0    0    0    0 -0.00000000000E+00 -0.00000000000E+00 -0.30000000000E+02  0.30000000000E+02  0.00000000000E+00 0. -1.
          5    1    1    2  501    0 -0.25818636257E+02 -0.14348174800E+02 -0.23319309080E+01  0.30000000000E+02  0.47000000000E+01 0. -1.
         -5    1    1    2    0  501  0.25818636257E+02  0.14348174800E+02  0.23319309080E+01  0.30000000000E+02  0.47000000000E+01 0.  1.
</event>
<event>
 4    1  0.7503339E-002  0.6000000E+02  0.7546771E-02  0.1259629E+00
         11   -1    0    0    0    0  0.00000000000E+00  0.00000000000E+00  0.30000000000E+02  0.30000000000E+02  0.00000000000E+00 0.  1.
        -11   -1    0    0    0    0 -0.00000000000E+00 -0.00000000000E+00 -0.30000000000E+02  0.30000000000E+02  0.00000000000E+00 0. -1.
          5    1    1    2  501    0  0.27343419653E+02 -0.10156422821E+02 -0.52052355542E+01  0.30000000000E+02  0.47000000000E+01 0. -1.
         -5    1    1    2    0  501 -0.27343419653E+02  0.10156422821E+02  0.52052355542E+01  0.30000000000E+02  0.47000000000E+01 0.  1.
</event>
<event>
 4    1  0.7503339E-002  0.6000000E+02  0.7546771E-02  0.1259629E+00
         11   -1    0    0    0    0  0.00000000000E+00  0.00000000000E+00  0.30000000000E+02  0.30000000000E+02  0.00000000000E+00 0.  1.
        -11   -1    0    0    0    0 -0.00000000000E+00 -0.00000000000E+00 -0.30000000000E+02  0.30000000000E+02  0.00000000000E+00 0. -1.
          5    1    1    2  501    0  0.10945333355E+02  0.59804492480E+01 -0.26876456324E+02  0.30000000000E+02  0.47000000000E+01 0. -1.
         -5    1    1    2    0  501 -0.10945333355E+02 -0.59804492480E+01  0.26876456324E+02  0.30000000000E+02  0.47000000000E+01 0.  1.
</event>
<event>
 4    1  0.7503339E-002  0.6000000E+02  0.7546771E-02  0.1259629E+00
         11   -1    0    0    0    0  0.00000000000E+00  0.00000000000E+00  0.30000000000E+02  0.30000000000E+02  0.00000000000E+00 0.  1.
        -11   -1    0    0    0    0 -0.00000000000E+00 -0.00000000000E+00 -0.30000000000E+02  0.30000000000E+02  0.00000000000E+00 0. -1.
          5    1    1    2  501    0 -0.20727815530E+01 -0.27665672478E+02 -0.10403083339E+02  0.30000000000E+02  0.47000000000E+01 0. -1.
         -5    1    1    2    0  501  0.20727815530E+01  0.27665672478E+02  0.10403083339E+02  0.30000000000E+02  0.47000000000E+01 0.  1.
</event>
<event>
 4    1  0.7503339E-002  0.6000000E+02  0.7546771E-02  0.1259629E+00
         11   -1    0    0    0    0  0.00000000000E+00  0.00000000000E+00  0.30000000000E+02  0.30000000000E+02  0.00000000000E+00 0.  1.
        -11   -1    0    0    0    0 -0.00000000000E+00 -0.00000000000E+00 -0.30000000000E+02  0.30000000000E+02  0.00000000000E+00 0. -1.
          5    1    1    2  501    0 -0.11883910914E+01 -0.28731376074E+02 -0.71418313850E+01  0.30000000000E+02  0.47000000000E+01 0. -1.
         -5    1    1    2    0  501  0.11883910914E+01  0.28731376074E+02  0.71418313850E+01  0.30000000000E+02  0.47000000000E+01 0.  1.
</event>
<event>
 4    1  0.7503339E-002  0.6000000E+02  0.7546771E-02  0.1259629E+00
         11   -1    0    0    0    0  0.00000000000E+00  0.00000000000E+00  0.30000000000E+02  0.30000000000E+02  0.00000000000E+00 0.  1.
        -11   -1    0    0    0    0 -0.00000000000E+00 -0.00000000000E+00 -0.30000000000E+02  0.30000000000E+02  0.00000000000E+00 0. -1.
          5    1    1    2  501    0 -0.10493682864E+02 -0.59338862317E+01 -0.27066244921E+02  0.30000000000E+02  0.47000000000E+01 0. -1.
         -5    1    1    2    0  501  0.10493682864E+02  0.59338862317E+01  0.27066244921E+02  0.30000000000E+02  0.47000000000E+01 0.  1.
</event>
<event>
 4    1  0.7503339E-002  0.6000000E+02  0.7546771E-02  0.1259629E+00
         11   -1    0    0    0    0  0.00000000000E+00  0.00000000000E+00  0.30000000000E+02  0.30000000000E+02  0.00000000000E+00 0.  1.
        -11   -1    0    0    0    0 -0.00000000000E+00 -0.00000000000E+00 -0.30000000000E+02  0.30000000000E+02  0.00000000000E+00 0. -1.
          5    1    1    2  501    0  0.20320779352E+02  0.12313967589E+02 -0.17701472502E+02  0.30000000000E+02  0.47000000000E+01 0. -1.
         -5    1    1    2    0  501 -0.20320779352E+02 -0.12313967589E+02  0.17701472502E+02  0.30000000000E+02  0.47000000000E+01 0.  1.
</event>
<event>
 4    1  0.7503339E-002  0.6000000E+02  0.7546771E-02  0.1259629E+00
         11   -1    0    0    0    0  0.00000000000E+00  0.00000000000E+00  0.30000000000E+02  0.30000000000E+02  0.00000000000E+00 0. -1.
        -11   -1    0    0    0    0 -0.00000000000E+00 -0.00000000000E+00 -0.30000000000E+02  0.30000000000E+02  0.00000000000E+00 0.  1.
          5    1    1    2  501    0 -0.92478517717E+01  0.27829920156E+02 -0.42288038135E+01  0.30000000000E+02  0.47000000000E+01 0.  1.
         -5    1    1    2    0  501  0.92478517717E+01 -0.27829920156E+02  0.42288038135E+01  0.30000000000E+02  0.47000000000E+01 0. -1.
</event>
<event>
 4    1  0.7503339E-002  0.6000000E+02  0.7546771E-02  0.1259629E+00
         11   -1    0    0    0    0  0.00000000000E+00  0.00000000000E+00  0.30000000000E+02  0.30000000000E+02  0.00000000000E+00 0.  1.
        -11   -1    0    0    0    0 -0.00000000000E+00 -0.00000000000E+00 -0.30000000000E+02  0.30000000000E+02  0.00000000000E+00 0. -1.
          5    1    1    2  501    0  0.71192081363E+01 -0.18368982221E+02 -0.22131592073E+02  0.30000000000E+02  0.47000000000E+01 0. -1.
         -5    1    1    2    0  501 -0.71192081363E+01  0.18368982221E+02  0.22131592073E+02  0.30000000000E+02  0.47000000000E+01 0.  1.
</event>
<event>
 4    1  0.7503339E-002  0.6000000E+02  0.7546771E-02  0.1259629E+00
         11   -1    0    0    0    0  0.00000000000E+00  0.00000000000E+00  0.30000000000E+02  0.30000000000E+02  0.00000000000E+00 0.  1.
        -11   -1    0    0    0    0 -0.00000000000E+00 -0.00000000000E+00 -0.30000000000E+02  0.30000000000E+02  0.00000000000E+00 0. -1.
          5    1    1    2  501    0  0.57778801641E+00 -0.44652720888E+01  0.29285448711E+02  0.30000000000E+02  0.47000000000E+01 0.  1.
         -5    1    1    2    0  501 -0.57778801641E+00  0.44652720888E+01 -0.29285448711E+02  0.30000000000E+02  0.47000000000E+01 0. -1.
</event>
<event>
 4    1  0.7503339E-002  0.6000000E+02  0.7546771E-02  0.1259629E+00
         11   -1    0    0    0    0  0.00000000000E+00  0.00000000000E+00  0.30000000000E+02  0.30000000000E+02  0.00000000000E+00 0.  1.
        -11   -1    0    0    0    0 -0.00000000000E+00 -0.00000000000E+00 -0.30000000000E+02  0.30000000000E+02  0.00000000000E+00 0. -1.
          5    1    1    2  501    0  0.18872810498E+02  0.10472558121E+02 -0.20299077573E+02  0.30000000000E+02  0.47000000000E+01 0. -1.
         -5    1    1    2    0  501 -0.18872810498E+02 -0.10472558121E+02  0.20299077573E+02  0.30000000000E+02  0.47000000000E+01 0.  1.
</event>
<event>
 4    1  0.7503339E-002  0.6000000E+02  0.7546771E-02  0.1259629E+00
         11   -1    0    0    0    0  0.00000000000E+00  0.00000000000E+00  0.30000000000E+02  0.30000000000E+02  0.00000000000E+00 0.  1.
        -11   -1    0    0    0    0 -0.00000000000E+00 -0.00000000000E+00 -0.30000000000E+02  0.30000000000E+02  0.00000000000E+00 0. -1.
          5    1    1    2  501    0 -0.15712951778E+02 -0.22201734406E+02 -0.11751431224E+02  0.30000000000E+02  0.47000000000E+01 0. -1.
         -5    1    1    2    0  501  0.15712951778E+02  0.22201734406E+02  0.11751431224E+02  0.30000000000E+02  0.47000000000E+01 0.  1.
</event>
<event>
 4    1  0.7503339E-002  0.6000000E+02  0.7546771E-02  0.1259629E+00
         11   -1    0    0    0    0  0.00000000000E+00  0.00000000000E+00  0.30000000000E+02  0.30000000000E+02  0.00000000000E+00 0.  1.
        -11   -1    0    0    0    0 -0.00000000000E+00 -0.00000000000E+00 -0.30000000000E+02  0.30000000000E+02  0.00000000000E+00 0. -1.
          5    1    1    2  501    0  0.14343772102E+02 -0.38415588092E+01 -0.25639981042E+02  0.30000000000E+02  0.47000000000E+01 0. -1.
         -5    1    1    2    0  501 -0.14343772102E+02  0.38415588092E+01  0.25639981042E+02  0.30000000000E+02  0.47000000000E+01 0.  1.
</event>
<event>
 4    1  0.7503339E-002  0.6000000E+02  0.7546771E-02  0.1259629E+00
         11   -1    0    0    0    0  0.00000000000E+00  0.00000000000E+00  0.30000000000E+02  0.30000000000E+02  0.00000000000E+00 0.  1.
        -11   -1    0    0    0    0 -0.00000000000E+00 -0.00000000000E+00 -0.30000000000E+02  0.30000000000E+02  0.00000000000E+00 0. -1.
          5    1    1    2  501    0  0.29352252521E+01 -0.29458923834E+02  0.12108919357E+01  0.30000000000E+02  0.47000000000E+01 0. -1.
         -5    1    1    2    0  501 -0.29352252521E+01  0.29458923834E+02 -0.12108919357E+01  0.30000000000E+02  0.47000000000E+01 0.  1.
</event>
<event>
 4    1  0.7503339E-002  0.6000000E+02  0.7546771E-02  0.1259629E+00
         11   -1    0    0    0    0  0.00000000000E+00  0.00000000000E+00  0.30000000000E+02  0.30000000000E+02  0.00000000000E+00 0.  1.
        -11   -1    0    0    0    0 -0.00000000000E+00 -0.00000000000E+00 -0.30000000000E+02  0.30000000000E+02  0.00000000000E+00 0. -1.
          5    1    1    2  501    0  0.17999699716E+02 -0.73314605940E+01 -0.22364491850E+02  0.30000000000E+02  0.47000000000E+01 0. -1.
         -5    1    1    2    0  501 -0.17999699716E+02  0.73314605940E+01  0.22364491850E+02  0.30000000000E+02  0.47000000000E+01 0.  1.
</event>
<event>
 4    1  0.7503339E-002  0.6000000E+02  0.7546771E-02  0.1259629E+00
         11   -1    0    0    0    0  0.00000000000E+00  0.00000000000E+00  0.30000000000E+02  0.30000000000E+02  0.00000000000E+00 0.  1.
        -11   -1    0    0    0    0 -0.00000000000E+00 -0.00000000000E+00 -0.30000000000E+02  0.30000000000E+02  0.00000000000E+00 0. -1.
          5    1    1    2  501    0 -0.19283644137E+02  0.16562060658E+02  0.15223311583E+02  0.30000000000E+02  0.47000000000E+01 0.  1.
         -5    1    1    2    0  501  0.19283644137E+02 -0.16562060658E+02 -0.15223311583E+02  0.30000000000E+02  0.47000000000E+01 0. -1.
</event>
<event>
 4    1  0.7503339E-002  0.6000000E+02  0.7546771E-02  0.1259629E+00
         11   -1    0    0    0    0  0.00000000000E+00  0.00000000000E+00  0.30000000000E+02  0.30000000000E+02  0.00000000000E+00 0.  1.
        -11   -1    0    0    0    0 -0.00000000000E+00 -0.00000000000E+00 -0.30000000000E+02  0.30000000000E+02  0.00000000000E+00 0. -1.
          5    1    1    2  501    0 -0.13876627224E+02 -0.10771175177E+02 -0.23860658042E+02  0.30000000000E+02  0.47000000000E+01 0. -1.
         -5    1    1    2    0  501  0.13876627224E+02  0.10771175177E+02  0.23860658042E+02  0.30000000000E+02  0.47000000000E+01 0.  1.
</event>
<event>
 4    1  0.7503339E-002  0.6000000E+02  0.7546771E-02  0.1259629E+00
         11   -1    0    0    0    0  0.00000000000E+00  0.00000000000E+00  0.30000000000E+02  0.30000000000E+02  0.00000000000E+00 0.  1.
        -11   -1    0    0    0    0 -0.00000000000E+00 -0.00000000000E+00 -0.30000000000E+02  0.30000000000E+02  0.00000000000E+00 0. -1.
          5    1    1    2  501    0  0.27722702007E+02 -0.23562529070E+01 -0.10188712660E+02  0.30000000000E+02  0.47000000000E+01 0. -1.
         -5    1    1    2    0  501 -0.27722702007E+02  0.23562529070E+01  0.10188712660E+02  0.30000000000E+02  0.47000000000E+01 0.  1.
</event>
<event>
 4    1  0.7503339E-002  0.6000000E+02  0.7546771E-02  0.1259629E+00
         11   -1    0    0    0    0  0.00000000000E+00  0.00000000000E+00  0.30000000000E+02  0.30000000000E+02  0.00000000000E+00 0. -1.
        -11   -1    0    0    0    0 -0.00000000000E+00 -0.00000000000E+00 -0.30000000000E+02  0.30000000000E+02  0.00000000000E+00 0.  1.
          5    1    1    2  501    0 -0.28776202099E+01  0.29488667884E+02 -0.21855966596E+00  0.30000000000E+02  0.47000000000E+01 0.  1.
         -5    1    1    2    0  501  0.28776202099E+01 -0.29488667884E+02  0.21855966596E+00  0.30000000000E+02  0.47000000000E+01 0. -1.
</event>
<event>
 4    1  0.7503339E-002  0.6000000E+02  0.7546771E-02  0.1259629E+00
         11   -1    0    0    0    0  0.00000000000E+00  0.00000000000E+00  0.30000000000E+02  0.30000000000E+02  0.00000000000E+00 0.  1.
        -11   -1    0    0    0    0 -0.00000000000E+00 -0.00000000000E+00 -0.30000000000E+02  0.30000000000E+02  0.00000000000E+00 0. -1.
          5    1    1    2  501    0 -0.22676839030E+02  0.15475755236E+02 -0.11143247799E+02  0.30000000000E+02  0.47000000000E+01 0. -1.
         -5    1    1    2    0  501  0.22676839030E+02 -0.15475755236E+02  0.11143247799E+02  0.30000000000E+02  0.47000000000E+01 0.  1.
</event>
<event>
 4    1  0.7503339E-002  0.6000000E+02  0.7546771E-02  0.1259629E+00
         11   -1    0    0    0    0  0.00000000000E+00  0.00000000000E+00  0.30000000000E+02  0.30000000000E+02  0.00000000000E+00 0.  1.
        -11   -1    0    0    0    0 -0.00000000000E+00 -0.00000000000E+00 -0.30000000000E+02  0.30000000000E+02  0.00000000000E+00 0. -1.
          5    1    1    2  501    0 -0.48848564522E+01  0.15330487289E+02 -0.24880199696E+02  0.30000000000E+02  0.47000000000E+01 0. -1.
         -5    1    1    2    0  501  0.48848564522E+01 -0.15330487289E+02  0.24880199696E+02  0.30000000000E+02  0.47000000000E+01 0.  1.
</event>
<event>
 4    1  0.7503339E-002  0.6000000E+02  0.7546771E-02  0.1259629E+00
         11   -1    0    0    0    0  0.00000000000E+00  0.00000000000E+00  0.30000000000E+02  0.30000000000E+02  0.00000000000E+00 0.  1.
        -11   -1    0    0    0    0 -0.00000000000E+00 -0.00000000000E+00 -0.30000000000E+02  0.30000000000E+02  0.00000000000E+00 0. -1.
          5    1    1    2  501    0 -0.39527864985E+01 -0.78723476287E+01 -0.28289779457E+02  0.30000000000E+02  0.47000000000E+01 0. -1.
         -5    1    1    2    0  501  0.39527864985E+01  0.78723476287E+01  0.28289779457E+02  0.30000000000E+02  0.47000000000E+01 0.  1.
</event>
<event>
 4    1  0.7503339E-002  0.6000000E+02  0.7546771E-02  0.1259629E+00
         11   -1    0    0    0    0  0.00000000000E+00  0.00000000000E+00  0.30000000000E+02  0.30000000000E+02  0.00000000000E+00 0. -1.
        -11   -1    0    0    0    0 -0.00000000000E+00 -0.00000000000E+00 -0.30000000000E+02  0.30000000000E+02  0.00000000000E+00 0.  1.
          5    1    1    2  501    0  0.11994631332E+01 -0.29035554026E+02 -0.57799559338E+01  0.30000000000E+02  0.47000000000E+01 0.  1.
         -5    1    1    2    0  501 -0.11994631332E+01  0.29035554026E+02  0.57799559338E+01  0.30000000000E+02  0.47000000000E+01 0. -1.
</event>
<event>
 4    1  0.7503339E-002  0.6000000E+02  0.7546771E-02  0.1259629E+00
         11   -1    0    0    0    0  0.00000000000E+00  0.00000000000E+00  0.30000000000E+02  0.30000000000E+02  0.00000000000E+00 0.  1.
        -11   -1    0    0    0    0 -0.00000000000E+00 -0.00000000000E+00 -0.30000000000E+02  0.30000000000E+02  0.00000000000E+00 0. -1.
          5    1    1    2  501    0 -0.72548463445E+01 -0.14031128371E+01  0.28693352521E+02  0.30000000000E+02  0.47000000000E+01 0.  1.
         -5    1    1    2    0  501  0.72548463445E+01  0.14031128371E+01 -0.28693352521E+02  0.30000000000E+02  0.47000000000E+01 0. -1.
</event>
<event>
 4    1  0.7503339E-002  0.6000000E+02  0.7546771E-02  0.1259629E+00
         11   -1    0    0    0    0  0.00000000000E+00  0.00000000000E+00  0.30000000000E+02  0.30000000000E+02  0.00000000000E+00 0.  1.
        -11   -1    0    0    0    0 -0.00000000000E+00 -0.00000000000E+00 -0.30000000000E+02  0.30000000000E+02  0.00000000000E+00 0. -1.
          5    1    1    2  501    0  0.17118842865E+02 -0.22418364288E+02 -0.90704002999E+01  0.30000000000E+02  0.47000000000E+01 0. -1.
         -5    1    1    2    0  501 -0.17118842865E+02  0.22418364288E+02  0.90704002999E+01  0.30000000000E+02  0.47000000000E+01 0.  1.
</event>
<event>
 4    1  0.7503339E-002  0.6000000E+02  0.7546771E-02  0.1259629E+00
         11   -1    0    0    0    0  0.00000000000E+00  0.00000000000E+00  0.30000000000E+02  0.30000000000E+02  0.00000000000E+00 0.  1.
        -11   -1    0    0    0    0 -0.00000000000E+00 -0.00000000000E+00 -0.30000000000E+02  0.30000000000E+02  0.00000000000E+00 0. -1.
          5    1    1    2  501    0  0.24854046083E+02  0.50443706850E+01 -0.15321250527E+02  0.30000000000E+02  0.47000000000E+01 0. -1.
         -5    1    1    2    0  501 -0.24854046083E+02 -0.50443706850E+01  0.15321250527E+02  0.30000000000E+02  0.47000000000E+01 0.  1.
</event>
<event>
 4    1  0.7503339E-002  0.6000000E+02  0.7546771E-02  0.1259629E+00
         11   -1    0    0    0    0  0.00000000000E+00  0.00000000000E+00  0.30000000000E+02  0.30000000000E+02  0.00000000000E+00 0. -1.
        -11   -1    0    0    0    0 -0.00000000000E+00 -0.00000000000E+00 -0.30000000000E+02  0.30000000000E+02  0.00000000000E+00 0.  1.
          5    1    1    2  501    0 -0.17425107060E+02  0.87265500490E+01 -0.22318668603E+02  0.30000000000E+02  0.47000000000E+01 0.  1.
         -5    1    1    2    0  501  0.17425107060E+02 -0.87265500490E+01  0.22318668603E+02  0.30000000000E+02  0.47000000000E+01 0. -1.
</event>
<event>
 4    1  0.7503339E-002  0.6000000E+02  0.7546771E-02  0.1259629E+00
         11   -1    0    0    0    0  0.00000000000E+00  0.00000000000E+00  0.30000000000E+02  0.30000000000E+02  0.00000000000E+00 0.  1.
        -11   -1    0    0    0    0 -0.00000000000E+00 -0.00000000000E+00 -0.30000000000E+02  0.30000000000E+02  0.00000000000E+00 0. -1.
          5    1    1    2  501    0 -0.79216827435E+01 -0.25027427364E+02 -0.13739898910E+02  0.30000000000E+02  0.47000000000E+01 0. -1.
         -5    1    1    2    0  501  0.79216827435E+01  0.25027427364E+02  0.13739898910E+02  0.30000000000E+02  0.47000000000E+01 0.  1.
</event>
<event>
 4    1  0.7503339E-002  0.6000000E+02  0.7546771E-02  0.1259629E+00
         11   -1    0    0    0    0  0.00000000000E+00  0.00000000000E+00  0.30000000000E+02  0.30000000000E+02  0.00000000000E+00 0. -1.
        -11   -1    0    0    0    0 -0.00000000000E+00 -0.00000000000E+00 -0.30000000000E+02  0.30000000000E+02  0.00000000000E+00 0.  1.
          5    1    1    2  501    0  0.18226288867E+02 -0.79166918902E+01 -0.21978134217E+02  0.30000000000E+02  0.47000000000E+01 0.  1.
         -5    1    1    2    0  501 -0.18226288867E+02  0.79166918902E+01  0.21978134217E+02  0.30000000000E+02  0.47000000000E+01 0. -1.
</event>
<event>
 4    1  0.7503339E-002  0.6000000E+02  0.7546771E-02  0.1259629E+00
         11   -1    0    0    0    0  0.00000000000E+00  0.00000000000E+00  0.30000000000E+02  0.30000000000E+02  0.00000000000E+00 0. -1.
        -11   -1    0    0    0    0 -0.00000000000E+00 -0.00000000000E+00 -0.30000000000E+02  0.30000000000E+02  0.00000000000E+00 0.  1.
          5    1    1    2  501    0 -0.52736365010E+01  0.17380246544E+02 -0.23409950622E+02  0.30000000000E+02  0.47000000000E+01 0. -1.
         -5    1    1    2    0  501  0.52736365010E+01 -0.17380246544E+02  0.23409950622E+02  0.30000000000E+02  0.47000000000E+01 0.  1.
</event>
<event>
 4    1  0.7503339E-002  0.6000000E+02  0.7546771E-02  0.1259629E+00
         11   -1    0    0    0    0  0.00000000000E+00  0.00000000000E+00  0.30000000000E+02  0.30000000000E+02  0.00000000000E+00 0.  1.
        -11   -1    0    0    0    0 -0.00000000000E+00 -0.00000000000E+00 -0.30000000000E+02  0.30000000000E+02  0.00000000000E+00 0. -1.
          5    1    1    2  501    0  0.12985961040E+02 -0.20874073878E+02  0.16539282197E+02  0.30000000000E+02  0.47000000000E+01 0.  1.
         -5    1    1    2    0  501 -0.12985961040E+02  0.20874073878E+02 -0.16539282197E+02  0.30000000000E+02  0.47000000000E+01 0. -1.
</event>
<event>
 4    1  0.7503339E-002  0.6000000E+02  0.7546771E-02  0.1259629E+00
         11   -1    0    0    0    0  0.00000000000E+00  0.00000000000E+00  0.30000000000E+02  0.30000000000E+02  0.00000000000E+00 0. -1.
        -11   -1    0    0    0    0 -0.00000000000E+00 -0.00000000000E+00 -0.30000000000E+02  0.30000000000E+02  0.00000000000E+00 0.  1.
          5    1    1    2  501    0  0.13176615173E+02  0.26694782710E+01 -0.26403800831E+02  0.30000000000E+02  0.47000000000E+01 0.  1.
         -5    1    1    2    0  501 -0.13176615173E+02 -0.26694782710E+01  0.26403800831E+02  0.30000000000E+02  0.47000000000E+01 0. -1.
</event>
<event>
 4    1  0.7503339E-002  0.6000000E+02  0.7546771E-02  0.1259629E+00
         11   -1    0    0    0    0  0.00000000000E+00  0.00000000000E+00  0.30000000000E+02  0.30000000000E+02  0.00000000000E+00 0. -1.
        -11   -1    0    0    0    0 -0.00000000000E+00 -0.00000000000E+00 -0.30000000000E+02  0.30000000000E+02  0.00000000000E+00 0.  1.
          5    1    1    2  501    0  0.68768803966E+01 -0.17332377986E+02 -0.23026228292E+02  0.30000000000E+02  0.47000000000E+01 0.  1.
         -5    1    1    2    0  501 -0.68768803966E+01  0.17332377986E+02  0.23026228292E+02  0.30000000000E+02  0.47000000000E+01 0. -1.
</event>
<event>
 4    1  0.7503339E-002  0.6000000E+02  0.7546771E-02  0.1259629E+00
         11   -1    0    0    0    0  0.00000000000E+00  0.00000000000E+00  0.30000000000E+02  0.30000000000E+02  0.00000000000E+00 0.  1.
        -11   -1    0    0    0    0 -0.00000000000E+00 -0.00000000000E+00 -0.30000000000E+02  0.30000000000E+02  0.00000000000E+00 0. -1.
          5    1    1    2  501    0  0.80526326387E+01 -0.69436077977E+01 -0.27655947251E+02  0.30000000000E+02  0.47000000000E+01 0. -1.
         -5    1    1    2    0  501 -0.80526326387E+01  0.69436077977E+01  0.27655947251E+02  0.30000000000E+02  0.47000000000E+01 0.  1.
</event>
<event>
 4    1  0.7503339E-002  0.6000000E+02  0.7546771E-02  0.1259629E+00
         11   -1    0    0    0    0  0.00000000000E+00  0.00000000000E+00  0.30000000000E+02  0.30000000000E+02  0.00000000000E+00 0. -1.
        -11   -1    0    0    0    0 -0.00000000000E+00 -0.00000000000E+00 -0.30000000000E+02  0.30000000000E+02  0.00000000000E+00 0.  1.
          5    1    1    2  501    0 -0.26575721932E+02 -0.90846864232E+01 -0.94397815867E+01  0.30000000000E+02  0.47000000000E+01 0.  1.
         -5    1    1    2    0  501  0.26575721932E+02  0.90846864232E+01  0.94397815867E+01  0.30000000000E+02  0.47000000000E+01 0. -1.
</event>
<event>
 4    1  0.7503339E-002  0.6000000E+02  0.7546771E-02  0.1259629E+00
         11   -1    0    0    0    0  0.00000000000E+00  0.00000000000E+00  0.30000000000E+02  0.30000000000E+02  0.00000000000E+00 0. -1.
        -11   -1    0    0    0    0 -0.00000000000E+00 -0.00000000000E+00 -0.30000000000E+02  0.30000000000E+02  0.00000000000E+00 0.  1.
          5    1    1    2  501    0  0.25646220012E+02  0.98021976496E+01  0.11139942565E+02  0.30000000000E+02  0.47000000000E+01 0.  1.
         -5    1    1    2    0  501 -0.25646220012E+02 -0.98021976496E+01 -0.11139942565E+02  0.30000000000E+02  0.47000000000E+01 0. -1.
</event>
<event>
 4    1  0.7503339E-002  0.6000000E+02  0.7546771E-02  0.1259629E+00
         11   -1    0    0    0    0  0.00000000000E+00  0.00000000000E+00  0.30000000000E+02  0.30000000000E+02  0.00000000000E+00 0.  1.
        -11   -1    0    0    0    0 -0.00000000000E+00 -0.00000000000E+00 -0.30000000000E+02  0.30000000000E+02  0.00000000000E+00 0. -1.
          5    1    1    2  501    0 -0.67311309384E+01 -0.48454009722E+01 -0.28445104424E+02  0.30000000000E+02  0.47000000000E+01 0. -1.
         -5    1    1    2    0  501  0.67311309384E+01  0.48454009722E+01  0.28445104424E+02  0.30000000000E+02  0.47000000000E+01 0.  1.
</event>
<event>
 4    1  0.7503339E-002  0.6000000E+02  0.7546771E-02  0.1259629E+00
         11   -1    0    0    0    0  0.00000000000E+00  0.00000000000E+00  0.30000000000E+02  0.30000000000E+02  0.00000000000E+00 0. -1.
        -11   -1    0    0    0    0 -0.00000000000E+00 -0.00000000000E+00 -0.30000000000E+02  0.30000000000E+02  0.00000000000E+00 0.  1.
          5    1    1    2  501    0  0.25313593762E+02  0.18008489237E+01  0.15293427151E+02  0.30000000000E+02  0.47000000000E+01 0.  1.
         -5    1    1    2    0  501 -0.25313593762E+02 -0.18008489237E+01 -0.15293427151E+02  0.30000000000E+02  0.47000000000E+01 0. -1.
</event>
<event>
 4    1  0.7503339E-002  0.6000000E+02  0.7546771E-02  0.1259629E+00
         11   -1    0    0    0    0  0.00000000000E+00  0.00000000000E+00  0.30000000000E+02  0.30000000000E+02  0.00000000000E+00 0.  1.
        -11   -1    0    0    0    0 -0.00000000000E+00 -0.00000000000E+00 -0.30000000000E+02  0.30000000000E+02  0.00000000000E+00 0. -1.
          5    1    1    2  501    0  0.25155370664E+02 -0.13369719321E+02 -0.81466515840E+01  0.30000000000E+02  0.47000000000E+01 0. -1.
         -5    1    1    2    0  501 -0.25155370664E+02  0.13369719321E+02  0.81466515840E+01  0.30000000000E+02  0.47000000000E+01 0.  1.
</event>
<event>
 4    1  0.7503339E-002  0.6000000E+02  0.7546771E-02  0.1259629E+00
         11   -1    0    0    0    0  0.00000000000E+00  0.00000000000E+00  0.30000000000E+02  0.30000000000E+02  0.00000000000E+00 0.  1.
        -11   -1    0    0    0    0 -0.00000000000E+00 -0.00000000000E+00 -0.30000000000E+02  0.30000000000E+02  0.00000000000E+00 0. -1.
          5    1    1    2  501    0  0.24666600322E+02  0.79288585159E+01 -0.14373657543E+02  0.30000000000E+02  0.47000000000E+01 0. -1.
         -5    1    1    2    0  501 -0.24666600322E+02 -0.79288585159E+01  0.14373657543E+02  0.30000000000E+02  0.47000000000E+01 0.  1.
</event>
<event>
 4    1  0.7503339E-002  0.6000000E+02  0.7546771E-02  0.1259629E+00
         11   -1    0    0    0    0  0.00000000000E+00  0.00000000000E+00  0.30000000000E+02  0.30000000000E+02  0.00000000000E+00 0.  1.
        -11   -1    0    0    0    0 -0.00000000000E+00 -0.00000000000E+00 -0.30000000000E+02  0.30000000000E+02  0.00000000000E+00 0. -1.
          5    1    1    2  501    0 -0.21457580566E+02  0.19892933412E+02 -0.46640579469E+01  0.30000000000E+02  0.47000000000E+01 0. -1.
         -5    1    1    2    0  501  0.21457580566E+02 -0.19892933412E+02  0.46640579469E+01  0.30000000000E+02  0.47000000000E+01 0.  1.
</event>
<event>
 4    1  0.7503339E-002  0.6000000E+02  0.7546771E-02  0.1259629E+00
         11   -1    0    0    0    0  0.00000000000E+00  0.00000000000E+00  0.30000000000E+02  0.30000000000E+02  0.00000000000E+00 0.  1.
        -11   -1    0    0    0    0 -0.00000000000E+00 -0.00000000000E+00 -0.30000000000E+02  0.30000000000E+02  0.00000000000E+00 0. -1.
          5    1    1    2  501    0  0.15078776692E+01  0.10951807786E+02 -0.27489892891E+02  0.30000000000E+02  0.47000000000E+01 0. -1.
         -5    1    1    2    0  501 -0.15078776692E+01 -0.10951807786E+02  0.27489892891E+02  0.30000000000E+02  0.47000000000E+01 0.  1.
</event>
<event>
 4    1  0.7503339E-002  0.6000000E+02  0.7546771E-02  0.1259629E+00
         11   -1    0    0    0    0  0.00000000000E+00  0.00000000000E+00  0.30000000000E+02  0.30000000000E+02  0.00000000000E+00 0.  1.
        -11   -1    0    0    0    0 -0.00000000000E+00 -0.00000000000E+00 -0.30000000000E+02  0.30000000000E+02  0.00000000000E+00 0. -1.
          5    1    1    2  501    0 -0.24322769417E+02 -0.15422626057E+02  0.69609980173E+01  0.30000000000E+02  0.47000000000E+01 0. -1.
         -5    1    1    2    0  501  0.24322769417E+02  0.15422626057E+02 -0.69609980173E+01  0.30000000000E+02  0.47000000000E+01 0.  1.
</event>
<event>
 4    1  0.7503339E-002  0.6000000E+02  0.7546771E-02  0.1259629E+00
         11   -1    0    0    0    0  0.00000000000E+00  0.00000000000E+00  0.30000000000E+02  0.30000000000E+02  0.00000000000E+00 0. -1.
        -11   -1    0    0    0    0 -0.00000000000E+00 -0.00000000000E+00 -0.30000000000E+02  0.30000000000E+02  0.00000000000E+00 0.  1.
          5    1    1    2  501    0 -0.10678963463E+02 -0.21441523818E+01 -0.27554897023E+02  0.30000000000E+02  0.47000000000E+01 0.  1.
         -5    1    1    2    0  501  0.10678963463E+02  0.21441523818E+01  0.27554897023E+02  0.30000000000E+02  0.47000000000E+01 0. -1.
</event>
<event>
 4    1  0.7503339E-002  0.6000000E+02  0.7546771E-02  0.1259629E+00
         11   -1    0    0    0    0  0.00000000000E+00  0.00000000000E+00  0.30000000000E+02  0.30000000000E+02  0.00000000000E+00 0.  1.
        -11   -1    0    0    0    0 -0.00000000000E+00 -0.00000000000E+00 -0.30000000000E+02  0.30000000000E+02  0.00000000000E+00 0. -1.
          5    1    1    2  501    0  0.24031589662E+02 -0.13942882849E+02 -0.10295082136E+02  0.30000000000E+02  0.47000000000E+01 0. -1.
         -5    1    1    2    0  501 -0.24031589662E+02  0.13942882849E+02  0.10295082136E+02  0.30000000000E+02  0.47000000000E+01 0. -1.
</event>
<event>
 4    1  0.7503339E-002  0.6000000E+02  0.7546771E-02  0.1259629E+00
         11   -1    0    0    0    0  0.00000000000E+00  0.00000000000E+00  0.30000000000E+02  0.30000000000E+02  0.00000000000E+00 0.  1.
        -11   -1    0    0    0    0 -0.00000000000E+00 -0.00000000000E+00 -0.30000000000E+02  0.30000000000E+02  0.00000000000E+00 0. -1.
          5    1    1    2  501    0 -0.28758514635E+02 -0.64922905712E+01  0.29509319108E+01  0.30000000000E+02  0.47000000000E+01 0. -1.
         -5    1    1    2    0  501  0.28758514635E+02  0.64922905712E+01 -0.29509319108E+01  0.30000000000E+02  0.47000000000E+01 0.  1.
</event>
<event>
 4    1  0.7503339E-002  0.6000000E+02  0.7546771E-02  0.1259629E+00
         11   -1    0    0    0    0  0.00000000000E+00  0.00000000000E+00  0.30000000000E+02  0.30000000000E+02  0.00000000000E+00 0.  1.
        -11   -1    0    0    0    0 -0.00000000000E+00 -0.00000000000E+00 -0.30000000000E+02  0.30000000000E+02  0.00000000000E+00 0. -1.
          5    1    1    2  501    0 -0.16267637854E+02 -0.23894610662E+02  0.65055007472E+01  0.30000000000E+02  0.47000000000E+01 0. -1.
         -5    1    1    2    0  501  0.16267637854E+02  0.23894610662E+02 -0.65055007472E+01  0.30000000000E+02  0.47000000000E+01 0.  1.
</event>
<event>
 4    1  0.7503339E-002  0.6000000E+02  0.7546771E-02  0.1259629E+00
         11   -1    0    0    0    0  0.00000000000E+00  0.00000000000E+00  0.30000000000E+02  0.30000000000E+02  0.00000000000E+00 0.  1.
        -11   -1    0    0    0    0 -0.00000000000E+00 -0.00000000000E+00 -0.30000000000E+02  0.30000000000E+02  0.00000000000E+00 0. -1.
          5    1    1    2  501    0  0.75854904224E+01  0.29675581472E+01 -0.28487961206E+02  0.30000000000E+02  0.47000000000E+01 0. -1.
         -5    1    1    2    0  501 -0.75854904224E+01 -0.29675581472E+01  0.28487961206E+02  0.30000000000E+02  0.47000000000E+01 0.  1.
</event>
<event>
 4    1  0.7503339E-002  0.6000000E+02  0.7546771E-02  0.1259629E+00
         11   -1    0    0    0    0  0.00000000000E+00  0.00000000000E+00  0.30000000000E+02  0.30000000000E+02  0.00000000000E+00 0.  1.
        -11   -1    0    0    0    0 -0.00000000000E+00 -0.00000000000E+00 -0.30000000000E+02  0.30000000000E+02  0.00000000000E+00 0. -1.
          5    1    1    2  501    0  0.13508215170E+02  0.15664011585E+02 -0.21215015060E+02  0.30000000000E+02  0.47000000000E+01 0. -1.
         -5    1    1    2    0  501 -0.13508215170E+02 -0.15664011585E+02  0.21215015060E+02  0.30000000000E+02  0.47000000000E+01 0.  1.
</event>
<event>
 4    1  0.7503339E-002  0.6000000E+02  0.7546771E-02  0.1259629E+00
         11   -1    0    0    0    0  0.00000000000E+00  0.00000000000E+00  0.30000000000E+02  0.30000000000E+02  0.00000000000E+00 0.  1.
        -11   -1    0    0    0    0 -0.00000000000E+00 -0.00000000000E+00 -0.30000000000E+02  0.30000000000E+02  0.00000000000E+00 0. -1.
          5    1    1    2  501    0 -0.21756413878E+02  0.10748107622E+02 -0.17001371642E+02  0.30000000000E+02  0.47000000000E+01 0. -1.
         -5    1    1    2    0  501  0.21756413878E+02 -0.10748107622E+02  0.17001371642E+02  0.30000000000E+02  0.47000000000E+01 0.  1.
</event>
<event>
 4    1  0.7503339E-002  0.6000000E+02  0.7546771E-02  0.1259629E+00
         11   -1    0    0    0    0  0.00000000000E+00  0.00000000000E+00  0.30000000000E+02  0.30000000000E+02  0.00000000000E+00 0.  1.
        -11   -1    0    0    0    0 -0.00000000000E+00 -0.00000000000E+00 -0.30000000000E+02  0.30000000000E+02  0.00000000000E+00 0. -1.
          5    1    1    2  501    0  0.10304443307E+02 -0.21957086360E+02 -0.17018072943E+02  0.30000000000E+02  0.47000000000E+01 0. -1.
         -5    1    1    2    0  501 -0.10304443307E+02  0.21957086360E+02  0.17018072943E+02  0.30000000000E+02  0.47000000000E+01 0.  1.
</event>
<event>
 4    1  0.7503339E-002  0.6000000E+02  0.7546771E-02  0.1259629E+00
         11   -1    0    0    0    0  0.00000000000E+00  0.00000000000E+00  0.30000000000E+02  0.30000000000E+02  0.00000000000E+00 0.  1.
        -11   -1    0    0    0    0 -0.00000000000E+00 -0.00000000000E+00 -0.30000000000E+02  0.30000000000E+02  0.00000000000E+00 0. -1.
          5    1    1    2  501    0 -0.17262748689E+02 -0.26050133942E+01 -0.23939954321E+02  0.30000000000E+02  0.47000000000E+01 0. -1.
         -5    1    1    2    0  501  0.17262748689E+02  0.26050133942E+01  0.23939954321E+02  0.30000000000E+02  0.47000000000E+01 0.  1.
</event>
<event>
 4    1  0.7503339E-002  0.6000000E+02  0.7546771E-02  0.1259629E+00
         11   -1    0    0    0    0  0.00000000000E+00  0.00000000000E+00  0.30000000000E+02  0.30000000000E+02  0.00000000000E+00 0. -1.
        -11   -1    0    0    0    0 -0.00000000000E+00 -0.00000000000E+00 -0.30000000000E+02  0.30000000000E+02  0.00000000000E+00 0.  1.
          5    1    1    2  501    0  0.21908365413E+02  0.82925846556E+01 -0.18142948070E+02  0.30000000000E+02  0.47000000000E+01 0.  1.
         -5    1    1    2    0  501 -0.21908365413E+02 -0.82925846556E+01  0.18142948070E+02  0.30000000000E+02  0.47000000000E+01 0. -1.
</event>
<event>
 4    1  0.7503339E-002  0.6000000E+02  0.7546771E-02  0.1259629E+00
         11   -1    0    0    0    0  0.00000000000E+00  0.00000000000E+00  0.30000000000E+02  0.30000000000E+02  0.00000000000E+00 0.  1.
        -11   -1    0    0    0    0 -0.00000000000E+00 -0.00000000000E+00 -0.30000000000E+02  0.30000000000E+02  0.00000000000E+00 0. -1.
          5    1    1    2  501    0 -0.40929472943E+01 -0.24857275770E+02 -0.15597231285E+02  0.30000000000E+02  0.47000000000E+01 0. -1.
         -5    1    1    2    0  501  0.40929472943E+01  0.24857275770E+02  0.15597231285E+02  0.30000000000E+02  0.47000000000E+01 0.  1.
</event>
<event>
 4    1  0.7503339E-002  0.6000000E+02  0.7546771E-02  0.1259629E+00
         11   -1    0    0    0    0  0.00000000000E+00  0.00000000000E+00  0.30000000000E+02  0.30000000000E+02  0.00000000000E+00 0.  1.
        -11   -1    0    0    0    0 -0.00000000000E+00 -0.00000000000E+00 -0.30000000000E+02  0.30000000000E+02  0.00000000000E+00 0. -1.
          5    1    1    2  501    0 -0.66572618625E+01 -0.84463754601E+01 -0.27608868251E+02  0.30000000000E+02  0.47000000000E+01 0. -1.
         -5    1    1    2    0  501  0.66572618625E+01  0.84463754601E+01  0.27608868251E+02  0.30000000000E+02  0.47000000000E+01 0.  1.
</event>
<event>
 4    1  0.7503339E-002  0.6000000E+02  0.7546771E-02  0.1259629E+00
         11   -1    0    0    0    0  0.00000000000E+00  0.00000000000E+00  0.30000000000E+02  0.30000000000E+02  0.00000000000E+00 0. -1.
        -11   -1    0    0    0    0 -0.00000000000E+00 -0.00000000000E+00 -0.30000000000E+02  0.30000000000E+02  0.00000000000E+00 0.  1.
          5    1    1    2  501    0  0.13397660791E+02  0.17541362611E+02 -0.19766468654E+02  0.30000000000E+02  0.47000000000E+01 0.  1.
         -5    1    1    2    0  501 -0.13397660791E+02 -0.17541362611E+02  0.19766468654E+02  0.30000000000E+02  0.47000000000E+01 0. -1.
</event>
<event>
 4    1  0.7503339E-002  0.6000000E+02  0.7546771E-02  0.1259629E+00
         11   -1    0    0    0    0  0.00000000000E+00  0.00000000000E+00  0.30000000000E+02  0.30000000000E+02  0.00000000000E+00 0. -1.
        -11   -1    0    0    0    0 -0.00000000000E+00 -0.00000000000E+00 -0.30000000000E+02  0.30000000000E+02  0.00000000000E+00 0.  1.
          5    1    1    2  501    0  0.29387317476E+02  0.17927359134E+01  0.33289141602E+01  0.30000000000E+02  0.47000000000E+01 0.  1.
         -5    1    1    2    0  501 -0.29387317476E+02 -0.17927359134E+01 -0.33289141602E+01  0.30000000000E+02  0.47000000000E+01 0. -1.
</event>
<event>
 4    1  0.7503339E-002  0.6000000E+02  0.7546771E-02  0.1259629E+00
         11   -1    0    0    0    0  0.00000000000E+00  0.00000000000E+00  0.30000000000E+02  0.30000000000E+02  0.00000000000E+00 0.  1.
        -11   -1    0    0    0    0 -0.00000000000E+00 -0.00000000000E+00 -0.30000000000E+02  0.30000000000E+02  0.00000000000E+00 0. -1.
          5    1    1    2  501    0 -0.59684048198E+00  0.20413516524E+02 -0.21467233743E+02  0.30000000000E+02  0.47000000000E+01 0. -1.
         -5    1    1    2    0  501  0.59684048198E+00 -0.20413516524E+02  0.21467233743E+02  0.30000000000E+02  0.47000000000E+01 0.  1.
</event>
<event>
 4    1  0.7503339E-002  0.6000000E+02  0.7546771E-02  0.1259629E+00
         11   -1    0    0    0    0  0.00000000000E+00  0.00000000000E+00  0.30000000000E+02  0.30000000000E+02  0.00000000000E+00 0.  1.
        -11   -1    0    0    0    0 -0.00000000000E+00 -0.00000000000E+00 -0.30000000000E+02  0.30000000000E+02  0.00000000000E+00 0. -1.
          5    1    1    2  501    0 -0.69813723315E+01  0.27176546974E+02 -0.95187044793E+01  0.30000000000E+02  0.47000000000E+01 0. -1.
         -5    1    1    2    0  501  0.69813723315E+01 -0.27176546974E+02  0.95187044793E+01  0.30000000000E+02  0.47000000000E+01 0.  1.
</event>
<event>
 4    1  0.7503339E-002  0.6000000E+02  0.7546771E-02  0.1259629E+00
         11   -1    0    0    0    0  0.00000000000E+00  0.00000000000E+00  0.30000000000E+02  0.30000000000E+02  0.00000000000E+00 0. -1.
        -11   -1    0    0    0    0 -0.00000000000E+00 -0.00000000000E+00 -0.30000000000E+02  0.30000000000E+02  0.00000000000E+00 0.  1.
          5    1    1    2  501    0 -0.20888538073E+02 -0.10569001155E+02 -0.18162466566E+02  0.30000000000E+02  0.47000000000E+01 0.  1.
         -5    1    1    2    0  501  0.20888538073E+02  0.10569001155E+02  0.18162466566E+02  0.30000000000E+02  0.47000000000E+01 0. -1.
</event>
<event>
 4    1  0.7503339E-002  0.6000000E+02  0.7546771E-02  0.1259629E+00
         11   -1    0    0    0    0  0.00000000000E+00  0.00000000000E+00  0.30000000000E+02  0.30000000000E+02  0.00000000000E+00 0.  1.
        -11   -1    0    0    0    0 -0.00000000000E+00 -0.00000000000E+00 -0.30000000000E+02  0.30000000000E+02  0.00000000000E+00 0. -1.
          5    1    1    2  501    0  0.70247890588E+01  0.18512361821E+02  0.22042114202E+02  0.30000000000E+02  0.47000000000E+01 0.  1.
         -5    1    1    2    0  501 -0.70247890588E+01 -0.18512361821E+02 -0.22042114202E+02  0.30000000000E+02  0.47000000000E+01 0. -1.
</event>
<event>
 4    1  0.7503339E-002  0.6000000E+02  0.7546771E-02  0.1259629E+00
         11   -1    0    0    0    0  0.00000000000E+00  0.00000000000E+00  0.30000000000E+02  0.30000000000E+02  0.00000000000E+00 0.  1.
        -11   -1    0    0    0    0 -0.00000000000E+00 -0.00000000000E+00 -0.30000000000E+02  0.30000000000E+02  0.00000000000E+00 0. -1.
          5    1    1    2  501    0 -0.59635742364E+01  0.20595785124E+02 -0.20448946610E+02  0.30000000000E+02  0.47000000000E+01 0. -1.
         -5    1    1    2    0  501  0.59635742364E+01 -0.20595785124E+02  0.20448946610E+02  0.30000000000E+02  0.47000000000E+01 0.  1.
</event>
<event>
 4    1  0.7503339E-002  0.6000000E+02  0.7546771E-02  0.1259629E+00
         11   -1    0    0    0    0  0.00000000000E+00  0.00000000000E+00  0.30000000000E+02  0.30000000000E+02  0.00000000000E+00 0. -1.
        -11   -1    0    0    0    0 -0.00000000000E+00 -0.00000000000E+00 -0.30000000000E+02  0.30000000000E+02  0.00000000000E+00 0.  1.
          5    1    1    2  501    0 -0.16560343175E+02  0.92024589798E+01 -0.22781127774E+02  0.30000000000E+02  0.47000000000E+01 0.  1.
         -5    1    1    2    0  501  0.16560343175E+02 -0.92024589798E+01  0.22781127774E+02  0.30000000000E+02  0.47000000000E+01 0. -1.
</event>
<event>
 4    1  0.7503339E-002  0.6000000E+02  0.7546771E-02  0.1259629E+00
         11   -1    0    0    0    0  0.00000000000E+00  0.00000000000E+00  0.30000000000E+02  0.30000000000E+02  0.00000000000E+00 0. -1.
        -11   -1    0    0    0    0 -0.00000000000E+00 -0.00000000000E+00 -0.30000000000E+02  0.30000000000E+02  0.00000000000E+00 0.  1.
          5    1    1    2  501    0  0.80498009115E+01 -0.69295194160E+01 -0.27660304878E+02  0.30000000000E+02  0.47000000000E+01 0.  1.
         -5    1    1    2    0  501 -0.80498009115E+01  0.69295194160E+01  0.27660304878E+02  0.30000000000E+02  0.47000000000E+01 0. -1.
</event>
<event>
 4    1  0.7503339E-002  0.6000000E+02  0.7546771E-02  0.1259629E+00
         11   -1    0    0    0    0  0.00000000000E+00  0.00000000000E+00  0.30000000000E+02  0.30000000000E+02  0.00000000000E+00 0.  1.
        -11   -1    0    0    0    0 -0.00000000000E+00 -0.00000000000E+00 -0.30000000000E+02  0.30000000000E+02  0.00000000000E+00 0. -1.
          5    1    1    2  501    0  0.33565139656E+01 -0.28324374523E+02  0.80233173848E+01  0.30000000000E+02  0.47000000000E+01 0.  1.
         -5    1    1    2    0  501 -0.33565139656E+01  0.28324374523E+02 -0.80233173848E+01  0.30000000000E+02  0.47000000000E+01 0. -1.
</event>
<event>
 4    1  0.7503339E-002  0.6000000E+02  0.7546771E-02  0.1259629E+00
         11   -1    0    0    0    0  0.00000000000E+00  0.00000000000E+00  0.30000000000E+02  0.30000000000E+02  0.00000000000E+00 0.  1.
        -11   -1    0    0    0    0 -0.00000000000E+00 -0.00000000000E+00 -0.30000000000E+02  0.30000000000E+02  0.00000000000E+00 0. -1.
          5    1    1    2  501    0  0.25980448216E+02  0.37645953926E+00 -0.14240245388E+02  0.30000000000E+02  0.47000000000E+01 0. -1.
         -5    1    1    2    0  501 -0.25980448216E+02 -0.37645953926E+00  0.14240245388E+02  0.30000000000E+02  0.47000000000E+01 0.  1.
</event>
<event>
 4    1  0.7503339E-002  0.6000000E+02  0.7546771E-02  0.1259629E+00
         11   -1    0    0    0    0  0.00000000000E+00  0.00000000000E+00  0.30000000000E+02  0.30000000000E+02  0.00000000000E+00 0.  1.
        -11   -1    0    0    0    0 -0.00000000000E+00 -0.00000000000E+00 -0.30000000000E+02  0.30000000000E+02  0.00000000000E+00 0. -1.
          5    1    1    2  501    0 -0.11665910130E+01 -0.15823073846E+02 -0.25023576872E+02  0.30000000000E+02  0.47000000000E+01 0. -1.
         -5    1    1    2    0  501  0.11665910130E+01  0.15823073846E+02  0.25023576872E+02  0.30000000000E+02  0.47000000000E+01 0.  1.
</event>
<event>
 4    1  0.7503339E-002  0.6000000E+02  0.7546771E-02  0.1259629E+00
         11   -1    0    0    0    0  0.00000000000E+00  0.00000000000E+00  0.30000000000E+02  0.30000000000E+02  0.00000000000E+00 0.  1.
        -11   -1    0    0    0    0 -0.00000000000E+00 -0.00000000000E+00 -0.30000000000E+02  0.30000000000E+02  0.00000000000E+00 0. -1.
          5    1    1    2  501    0  0.11527920840E+02 -0.35517254464E+01 -0.27062931982E+02  0.30000000000E+02  0.47000000000E+01 0. -1.
         -5    1    1    2    0  501 -0.11527920840E+02  0.35517254464E+01  0.27062931982E+02  0.30000000000E+02  0.47000000000E+01 0.  1.
</event>
<event>
 4    1  0.7503339E-002  0.6000000E+02  0.7546771E-02  0.1259629E+00
         11   -1    0    0    0    0  0.00000000000E+00  0.00000000000E+00  0.30000000000E+02  0.30000000000E+02  0.00000000000E+00 0. -1.
        -11   -1    0    0    0    0 -0.00000000000E+00 -0.00000000000E+00 -0.30000000000E+02  0.30000000000E+02  0.00000000000E+00 0.  1.
          5    1    1    2  501    0 -0.31779106962E+01 -0.14441766922E+02 -0.25675791162E+02  0.30000000000E+02  0.47000000000E+01 0.  1.
         -5    1    1    2    0  501  0.31779106962E+01  0.14441766922E+02  0.25675791162E+02  0.30000000000E+02  0.47000000000E+01 0. -1.
</event>
<event>
 4    1  0.7503339E-002  0.6000000E+02  0.7546771E-02  0.1259629E+00
         11   -1    0    0    0    0  0.00000000000E+00  0.00000000000E+00  0.30000000000E+02  0.30000000000E+02  0.00000000000E+00 0.  1.
        -11   -1    0    0    0    0 -0.00000000000E+00 -0.00000000000E+00 -0.30000000000E+02  0.30000000000E+02  0.00000000000E+00 0. -1.
          5    1    1    2  501    0 -0.30172639850E+01  0.26646122781E+02 -0.12601200688E+02  0.30000000000E+02  0.47000000000E+01 0. -1.
         -5    1    1    2    0  501  0.30172639850E+01 -0.26646122781E+02  0.12601200688E+02  0.30000000000E+02  0.47000000000E+01 0.  1.
</event>
<event>
 4    1  0.7503339E-002  0.6000000E+02  0.7546771E-02  0.1259629E+00
         11   -1    0    0    0    0  0.00000000000E+00  0.00000000000E+00  0.30000000000E+02  0.30000000000E+02  0.00000000000E+00 0. -1.
        -11   -1    0    0    0    0 -0.00000000000E+00 -0.00000000000E+00 -0.30000000000E+02  0.30000000000E+02  0.00000000000E+00 0.  1.
          5    1    1    2  501    0  0.20405167210E+02 -0.24184337664E+01 -0.21346904442E+02  0.30000000000E+02  0.47000000000E+01 0.  1.
         -5    1    1    2    0  501 -0.20405167210E+02  0.24184337664E+01  0.21346904442E+02  0.30000000000E+02  0.47000000000E+01 0. -1.
</event>
<event>
 4    1  0.7503339E-002  0.6000000E+02  0.7546771E-02  0.1259629E+00
         11   -1    0    0    0    0  0.00000000000E+00  0.00000000000E+00  0.30000000000E+02  0.30000000000E+02  0.00000000000E+00 0. -1.
        -11   -1    0    0    0    0 -0.00000000000E+00 -0.00000000000E+00 -0.30000000000E+02  0.30000000000E+02  0.00000000000E+00 0.  1.
          5    1    1    2  501    0  0.23338782405E+02  0.79772243541E+01 -0.16418743175E+02  0.30000000000E+02  0.47000000000E+01 0.  1.
         -5    1    1    2    0  501 -0.23338782405E+02 -0.79772243541E+01  0.16418743175E+02  0.30000000000E+02  0.47000000000E+01 0. -1.
</event>
<event>
 4    1  0.7503339E-002  0.6000000E+02  0.7546771E-02  0.1259629E+00
         11   -1    0    0    0    0  0.00000000000E+00  0.00000000000E+00  0.30000000000E+02  0.30000000000E+02  0.00000000000E+00 0.  1.
        -11   -1    0    0    0    0 -0.00000000000E+00 -0.00000000000E+00 -0.30000000000E+02  0.30000000000E+02  0.00000000000E+00 0. -1.
          5    1    1    2  501    0  0.62116529468E+01 -0.16406532165E+02 -0.23877836376E+02  0.30000000000E+02  0.47000000000E+01 0. -1.
         -5    1    1    2    0  501 -0.62116529468E+01  0.16406532165E+02  0.23877836376E+02  0.30000000000E+02  0.47000000000E+01 0.  1.
</event>
<event>
 4    1  0.7503339E-002  0.6000000E+02  0.7546771E-02  0.1259629E+00
         11   -1    0    0    0    0  0.00000000000E+00  0.00000000000E+00  0.30000000000E+02  0.30000000000E+02  0.00000000000E+00 0.  1.
        -11   -1    0    0    0    0 -0.00000000000E+00 -0.00000000000E+00 -0.30000000000E+02  0.30000000000E+02  0.00000000000E+00 0. -1.
          5    1    1    2  501    0 -0.16478315902E+02 -0.11025633402E+02 -0.22018413047E+02  0.30000000000E+02  0.47000000000E+01 0. -1.
         -5    1    1    2    0  501  0.16478315902E+02  0.11025633402E+02  0.22018413047E+02  0.30000000000E+02  0.47000000000E+01 0.  1.
</event>
<event>
 4    1  0.7503339E-002  0.6000000E+02  0.7546771E-02  0.1259629E+00
         11   -1    0    0    0    0  0.00000000000E+00  0.00000000000E+00  0.30000000000E+02  0.30000000000E+02  0.00000000000E+00 0.  1.
        -11   -1    0    0    0    0 -0.00000000000E+00 -0.00000000000E+00 -0.30000000000E+02  0.30000000000E+02  0.00000000000E+00 0. -1.
          5    1    1    2  501    0  0.15718197581E+01  0.28204920410E+02 -0.89399019737E+01  0.30000000000E+02  0.47000000000E+01 0. -1.
         -5    1    1    2    0  501 -0.15718197581E+01 -0.28204920410E+02  0.89399019737E+01  0.30000000000E+02  0.47000000000E+01 0.  1.
</event>
<event>
 4    1  0.7503339E-002  0.6000000E+02  0.7546771E-02  0.1259629E+00
         11   -1    0    0    0    0  0.00000000000E+00  0.00000000000E+00  0.30000000000E+02  0.30000000000E+02  0.00000000000E+00 0.  1.
        -11   -1    0    0    0    0 -0.00000000000E+00 -0.00000000000E+00 -0.30000000000E+02  0.30000000000E+02  0.00000000000E+00 0. -1.
          5    1    1    2  501    0 -0.47092513567E+01  0.15134919398E+02 -0.25033321124E+02  0.30000000000E+02  0.47000000000E+01 0. -1.
         -5    1    1    2    0  501  0.47092513567E+01 -0.15134919398E+02  0.25033321124E+02  0.30000000000E+02  0.47000000000E+01 0.  1.
</event>
<event>
 4    1  0.7503339E-002  0.6000000E+02  0.7546771E-02  0.1259629E+00
         11   -1    0    0    0    0  0.00000000000E+00  0.00000000000E+00  0.30000000000E+02  0.30000000000E+02  0.00000000000E+00 0.  1.
        -11   -1    0    0    0    0 -0.00000000000E+00 -0.00000000000E+00 -0.30000000000E+02  0.30000000000E+02  0.00000000000E+00 0. -1.
          5    1    1    2  501    0  0.17420051365E+02 -0.44243457895E+01 -0.23555826769E+02  0.30000000000E+02  0.47000000000E+01 0. -1.
         -5    1    1    2    0  501 -0.17420051365E+02  0.44243457895E+01  0.23555826769E+02  0.30000000000E+02  0.47000000000E+01 0.  1.
</event>
<event>
 4    1  0.7503339E-002  0.6000000E+02  0.7546771E-02  0.1259629E+00
         11   -1    0    0    0    0  0.00000000000E+00  0.00000000000E+00  0.30000000000E+02  0.30000000000E+02  0.00000000000E+00 0.  1.
        -11   -1    0    0    0    0 -0.00000000000E+00 -0.00000000000E+00 -0.30000000000E+02  0.30000000000E+02  0.00000000000E+00 0. -1.
          5    1    1    2  501    0 -0.17984171333E+02  0.96266474380E+01  0.21489700803E+02  0.30000000000E+02  0.47000000000E+01 0.  1.
         -5    1    1    2    0  501  0.17984171333E+02 -0.96266474380E+01 -0.21489700803E+02  0.30000000000E+02  0.47000000000E+01 0. -1.
</event>
<event>
 4    1  0.7503339E-002  0.6000000E+02  0.7546771E-02  0.1259629E+00
         11   -1    0    0    0    0  0.00000000000E+00  0.00000000000E+00  0.30000000000E+02  0.30000000000E+02  0.00000000000E+00 0.  1.
        -11   -1    0    0    0    0 -0.00000000000E+00 -0.00000000000E+00 -0.30000000000E+02  0.30000000000E+02  0.00000000000E+00 0. -1.
          5    1    1    2  501    0 -0.13770582233E+01 -0.24323185000E+02 -0.16864055921E+02  0.30000000000E+02  0.47000000000E+01 0. -1.
         -5    1    1    2    0  501  0.13770582233E+01  0.24323185000E+02  0.16864055921E+02  0.30000000000E+02  0.47000000000E+01 0.  1.
</event>
<event>
 4    1  0.7503339E-002  0.6000000E+02  0.7546771E-02  0.1259629E+00
         11   -1    0    0    0    0  0.00000000000E+00  0.00000000000E+00  0.30000000000E+02  0.30000000000E+02  0.00000000000E+00 0. -1.
        -11   -1    0    0    0    0 -0.00000000000E+00 -0.00000000000E+00 -0.30000000000E+02  0.30000000000E+02  0.00000000000E+00 0.  1.
          5    1    1    2  501    0 -0.80186656953E+01  0.21513302575E+02 -0.18729356977E+02  0.30000000000E+02  0.47000000000E+01 0.  1.
         -5    1    1    2    0  501  0.80186656953E+01 -0.21513302575E+02  0.18729356977E+02  0.30000000000E+02  0.47000000000E+01 0. -1.
</event>
<event>
 4    1  0.7503339E-002  0.6000000E+02  0.7546771E-02  0.1259629E+00
         11   -1    0    0    0    0  0.00000000000E+00  0.00000000000E+00  0.30000000000E+02  0.30000000000E+02  0.00000000000E+00 0. -1.
        -11   -1    0    0    0    0 -0.00000000000E+00 -0.00000000000E+00 -0.30000000000E+02  0.30000000000E+02  0.00000000000E+00 0.  1.
          5    1    1    2  501    0 -0.19670780118E+02  0.11577898426E+02  0.18892397349E+02  0.30000000000E+02  0.47000000000E+01 0. -1.
         -5    1    1    2    0  501  0.19670780118E+02 -0.11577898426E+02 -0.18892397349E+02  0.30000000000E+02  0.47000000000E+01 0.  1.
</event>
<event>
 4    1  0.7503339E-002  0.6000000E+02  0.7546771E-02  0.1259629E+00
         11   -1    0    0    0    0  0.00000000000E+00  0.00000000000E+00  0.30000000000E+02  0.30000000000E+02  0.00000000000E+00 0.  1.
        -11   -1    0    0    0    0 -0.00000000000E+00 -0.00000000000E+00 -0.30000000000E+02  0.30000000000E+02  0.00000000000E+00 0. -1.
          5    1    1    2  501    0  0.14567779510E+02 -0.25765339688E+02  0.13553858953E+01  0.30000000000E+02  0.47000000000E+01 0. -1.
         -5    1    1    2    0  501 -0.14567779510E+02  0.25765339688E+02 -0.13553858953E+01  0.30000000000E+02  0.47000000000E+01 0.  1.
</event>
<event>
 4    1  0.7503339E-002  0.6000000E+02  0.7546771E-02  0.1259629E+00
         11   -1    0    0    0    0  0.00000000000E+00  0.00000000000E+00  0.30000000000E+02  0.30000000000E+02  0.00000000000E+00 0.  1.
        -11   -1    0    0    0    0 -0.00000000000E+00 -0.00000000000E+00 -0.30000000000E+02  0.30000000000E+02  0.00000000000E+00 0. -1.
          5    1    1    2  501    0  0.15626125542E+02 -0.57710820837E+01 -0.24503648955E+02  0.30000000000E+02  0.47000000000E+01 0. -1.
         -5    1    1    2    0  501 -0.15626125542E+02  0.57710820837E+01  0.24503648955E+02  0.30000000000E+02  0.47000000000E+01 0.  1.
</event>
<event>
 4    1  0.7503339E-002  0.6000000E+02  0.7546771E-02  0.1259629E+00
         11   -1    0    0    0    0  0.00000000000E+00  0.00000000000E+00  0.30000000000E+02  0.30000000000E+02  0.00000000000E+00 0.  1.
        -11   -1    0    0    0    0 -0.00000000000E+00 -0.00000000000E+00 -0.30000000000E+02  0.30000000000E+02  0.00000000000E+00 0. -1.
          5    1    1    2  501    0  0.24541909871E+01 -0.23215563510E+02 -0.18246220362E+02  0.30000000000E+02  0.47000000000E+01 0. -1.
         -5    1    1    2    0  501 -0.24541909871E+01  0.23215563510E+02  0.18246220362E+02  0.30000000000E+02  0.47000000000E+01 0.  1.
</event>
<event>
 4    1  0.7503339E-002  0.6000000E+02  0.7546771E-02  0.1259629E+00
         11   -1    0    0    0    0  0.00000000000E+00  0.00000000000E+00  0.30000000000E+02  0.30000000000E+02  0.00000000000E+00 0.  1.
        -11   -1    0    0    0    0 -0.00000000000E+00 -0.00000000000E+00 -0.30000000000E+02  0.30000000000E+02  0.00000000000E+00 0. -1.
          5    1    1    2  501    0 -0.23962824138E+02 -0.56062837912E+01 -0.16500383067E+02  0.30000000000E+02  0.47000000000E+01 0. -1.
         -5    1    1    2    0  501  0.23962824138E+02  0.56062837912E+01  0.16500383067E+02  0.30000000000E+02  0.47000000000E+01 0.  1.
</event>
<event>
 4    1  0.7503339E-002  0.6000000E+02  0.7546771E-02  0.1259629E+00
         11   -1    0    0    0    0  0.00000000000E+00  0.00000000000E+00  0.30000000000E+02  0.30000000000E+02  0.00000000000E+00 0.  1.
        -11   -1    0    0    0    0 -0.00000000000E+00 -0.00000000000E+00 -0.30000000000E+02  0.30000000000E+02  0.00000000000E+00 0. -1.
          5    1    1    2  501    0  0.14745609775E+02  0.61463651145E+01 -0.24953941337E+02  0.30000000000E+02  0.47000000000E+01 0. -1.
         -5    1    1    2    0  501 -0.14745609775E+02 -0.61463651145E+01  0.24953941337E+02  0.30000000000E+02  0.47000000000E+01 0.  1.
</event>
<event>
 4    1  0.7503339E-002  0.6000000E+02  0.7546771E-02  0.1259629E+00
         11   -1    0    0    0    0  0.00000000000E+00  0.00000000000E+00  0.30000000000E+02  0.30000000000E+02  0.00000000000E+00 0. -1.
        -11   -1    0    0    0    0 -0.00000000000E+00 -0.00000000000E+00 -0.30000000000E+02  0.30000000000E+02  0.00000000000E+00 0.  1.
          5    1    1    2  501    0  0.14183261719E+02  0.25992881930E+02  0.10560189425E+01  0.30000000000E+02  0.47000000000E+01 0.  1.
         -5    1    1    2    0  501 -0.14183261719E+02 -0.25992881930E+02 -0.10560189425E+01  0.30000000000E+02  0.47000000000E+01 0. -1.
</event>
<event>
 4    1  0.7503339E-002  0.6000000E+02  0.7546771E-02  0.1259629E+00
         11   -1    0    0    0    0  0.00000000000E+00  0.00000000000E+00  0.30000000000E+02  0.30000000000E+02  0.00000000000E+00 0.  1.
        -11   -1    0    0    0    0 -0.00000000000E+00 -0.00000000000E+00 -0.30000000000E+02  0.30000000000E+02  0.00000000000E+00 0. -1.
          5    1    1    2  501    0  0.12834287544E+02  0.11078692431E+02 -0.24299251784E+02  0.30000000000E+02  0.47000000000E+01 0. -1.
         -5    1    1    2    0  501 -0.12834287544E+02 -0.11078692431E+02  0.24299251784E+02  0.30000000000E+02  0.47000000000E+01 0.  1.
</event>
<event>
 4    1  0.7503339E-002  0.6000000E+02  0.7546771E-02  0.1259629E+00
         11   -1    0    0    0    0  0.00000000000E+00  0.00000000000E+00  0.30000000000E+02  0.30000000000E+02  0.00000000000E+00 0.  1.
        -11   -1    0    0    0    0 -0.00000000000E+00 -0.00000000000E+00 -0.30000000000E+02  0.30000000000E+02  0.00000000000E+00 0. -1.
          5    1    1    2  501    0  0.22936637419E+02  0.10579895097E+01 -0.18727021175E+02  0.30000000000E+02  0.47000000000E+01 0. -1.
         -5    1    1    2    0  501 -0.22936637419E+02 -0.10579895097E+01  0.18727021175E+02  0.30000000000E+02  0.47000000000E+01 0.  1.
</event>
<event>
 4    1  0.7503339E-002  0.6000000E+02  0.7546771E-02  0.1259629E+00
         11   -1    0    0    0    0  0.00000000000E+00  0.00000000000E+00  0.30000000000E+02  0.30000000000E+02  0.00000000000E+00 0.  1.
        -11   -1    0    0    0    0 -0.00000000000E+00 -0.00000000000E+00 -0.30000000000E+02  0.30000000000E+02  0.00000000000E+00 0. -1.
          5    1    1    2  501    0  0.18963436176E+02  0.27628821694E+01 -0.22597888630E+02  0.30000000000E+02  0.47000000000E+01 0. -1.
         -5    1    1    2    0  501 -0.18963436176E+02 -0.27628821694E+01  0.22597888630E+02  0.30000000000E+02  0.47000000000E+01 0.  1.
</event>
<event>
 4    1  0.7503339E-002  0.6000000E+02  0.7546771E-02  0.1259629E+00
         11   -1    0    0    0    0  0.00000000000E+00  0.00000000000E+00  0.30000000000E+02  0.30000000000E+02  0.00000000000E+00 0. -1.
        -11   -1    0    0    0    0 -0.00000000000E+00 -0.00000000000E+00 -0.30000000000E+02  0.30000000000E+02  0.00000000000E+00 0.  1.
          5    1    1    2  501    0 -0.91540758058E+01 -0.10754101213E+02  0.26047307025E+02  0.30000000000E+02  0.47000000000E+01 0. -1.
         -5    1    1    2    0  501  0.91540758058E+01  0.10754101213E+02 -0.26047307025E+02  0.30000000000E+02  0.47000000000E+01 0.  1.
</event>
<event>
 4    1  0.7503339E-002  0.6000000E+02  0.7546771E-02  0.1259629E+00
         11   -1    0    0    0    0  0.00000000000E+00  0.00000000000E+00  0.30000000000E+02  0.30000000000E+02  0.00000000000E+00 0.  1.
        -11   -1    0    0    0    0 -0.00000000000E+00 -0.00000000000E+00 -0.30000000000E+02  0.30000000000E+02  0.00000000000E+00 0. -1.
          5    1    1    2  501    0 -0.17487214695E+02 -0.36768716541E+01 -0.23634465026E+02  0.30000000000E+02  0.47000000000E+01 0. -1.
         -5    1    1    2    0  501  0.17487214695E+02  0.36768716541E+01  0.23634465026E+02  0.30000000000E+02  0.47000000000E+01 0.  1.
</event>
<event>
 4    1  0.7503339E-002  0.6000000E+02  0.7546771E-02  0.1259629E+00
         11   -1    0    0    0    0  0.00000000000E+00  0.00000000000E+00  0.30000000000E+02  0.30000000000E+02  0.00000000000E+00 0. -1.
        -11   -1    0    0    0    0 -0.00000000000E+00 -0.00000000000E+00 -0.30000000000E+02  0.30000000000E+02  0.00000000000E+00 0.  1.
          5    1    1    2  501    0 -0.26158133193E+02  0.36191563403E+01 -0.13437402102E+02  0.30000000000E+02  0.47000000000E+01 0.  1.
         -5    1    1    2    0  501  0.26158133193E+02 -0.36191563403E+01  0.13437402102E+02  0.30000000000E+02  0.47000000000E+01 0. -1.
</event>
<event>
 4    1  0.7503339E-002  0.6000000E+02  0.7546771E-02  0.1259629E+00
         11   -1    0    0    0    0  0.00000000000E+00  0.00000000000E+00  0.30000000000E+02  0.30000000000E+02  0.00000000000E+00 0.  1.
        -11   -1    0    0    0    0 -0.00000000000E+00 -0.00000000000E+00 -0.30000000000E+02  0.30000000000E+02  0.00000000000E+00 0. -1.
          5    1    1    2  501    0  0.76638685998E+01  0.28619549392E+02 -0.31066169282E+00  0.30000000000E+02  0.47000000000E+01 0. -1.
         -5    1    1    2    0  501 -0.76638685998E+01 -0.28619549392E+02  0.31066169282E+00  0.30000000000E+02  0.47000000000E+01 0.  1.
</event>
<event>
 4    1  0.7503339E-002  0.6000000E+02  0.7546771E-02  0.1259629E+00
         11   -1    0    0    0    0  0.00000000000E+00  0.00000000000E+00  0.30000000000E+02  0.30000000000E+02  0.00000000000E+00 0.  1.
        -11   -1    0    0    0    0 -0.00000000000E+00 -0.00000000000E+00 -0.30000000000E+02  0.30000000000E+02  0.00000000000E+00 0. -1.
          5    1    1    2  501    0  0.11111981039E+02 -0.21169715649E+01 -0.27385257143E+02  0.30000000000E+02  0.47000000000E+01 0. -1.
         -5    1    1    2    0  501 -0.11111981039E+02  0.21169715649E+01  0.27385257143E+02  0.30000000000E+02  0.47000000000E+01 0.  1.
</event>
<event>
 4    1  0.7503339E-002  0.6000000E+02  0.7546771E-02  0.1259629E+00
         11   -1    0    0    0    0  0.00000000000E+00  0.00000000000E+00  0.30000000000E+02  0.30000000000E+02  0.00000000000E+00 0.  1.
        -11   -1    0    0    0    0 -0.00000000000E+00 -0.00000000000E+00 -0.30000000000E+02  0.30000000000E+02  0.00000000000E+00 0. -1.
          5    1    1    2  501    0 -0.76023943092E+01  0.33969883746E+01 -0.28435436883E+02  0.30000000000E+02  0.47000000000E+01 0. -1.
         -5    1    1    2    0  501  0.76023943092E+01 -0.33969883746E+01  0.28435436883E+02  0.30000000000E+02  0.47000000000E+01 0.  1.
</event>
<event>
 4    1  0.7503339E-002  0.6000000E+02  0.7546771E-02  0.1259629E+00
         11   -1    0    0    0    0  0.00000000000E+00  0.00000000000E+00  0.30000000000E+02  0.30000000000E+02  0.00000000000E+00 0.  1.
        -11   -1    0    0    0    0 -0.00000000000E+00 -0.00000000000E+00 -0.30000000000E+02  0.30000000000E+02  0.00000000000E+00 0. -1.
          5    1    1    2  501    0 -0.12241752671E+02 -0.12877945394E+02 -0.23710926046E+02  0.30000000000E+02  0.47000000000E+01 0. -1.
         -5    1    1    2    0  501  0.12241752671E+02  0.12877945394E+02  0.23710926046E+02  0.30000000000E+02  0.47000000000E+01 0.  1.
</event>
<event>
 4    1  0.7503339E-002  0.6000000E+02  0.7546771E-02  0.1259629E+00
         11   -1    0    0    0    0  0.00000000000E+00  0.00000000000E+00  0.30000000000E+02  0.30000000000E+02  0.00000000000E+00 0. -1.
        -11   -1    0    0    0    0 -0.00000000000E+00 -0.00000000000E+00 -0.30000000000E+02  0.30000000000E+02  0.00000000000E+00 0.  1.
          5    1    1    2  501    0  0.15778688507E+02 -0.15614286188E+02 -0.19624909066E+02  0.30000000000E+02  0.47000000000E+01 0.  1.
         -5    1    1    2    0  501 -0.15778688507E+02  0.15614286188E+02  0.19624909066E+02  0.30000000000E+02  0.47000000000E+01 0. -1.
</event>
<event>
 4    1  0.7503339E-002  0.6000000E+02  0.7546771E-02  0.1259629E+00
         11   -1    0    0    0    0  0.00000000000E+00  0.00000000000E+00  0.30000000000E+02  0.30000000000E+02  0.00000000000E+00 0.  1.
        -11   -1    0    0    0    0 -0.00000000000E+00 -0.00000000000E+00 -0.30000000000E+02  0.30000000000E+02  0.00000000000E+00 0. -1.
          5    1    1    2  501    0  0.10637669916E+02 -0.17894185599E+02 -0.21084309344E+02  0.30000000000E+02  0.47000000000E+01 0. -1.
         -5    1    1    2    0  501 -0.10637669916E+02  0.17894185599E+02  0.21084309344E+02  0.30000000000E+02  0.47000000000E+01 0.  1.
</event>
<event>
 4    1  0.7503339E-002  0.6000000E+02  0.7546771E-02  0.1259629E+00
         11   -1    0    0    0    0  0.00000000000E+00  0.00000000000E+00  0.30000000000E+02  0.30000000000E+02  0.00000000000E+00 0. -1.
        -11   -1    0    0    0    0 -0.00000000000E+00 -0.00000000000E+00 -0.30000000000E+02  0.30000000000E+02  0.00000000000E+00 0.  1.
          5    1    1    2  501    0  0.13664859665E+02  0.22070837883E+02 -0.14284947513E+02  0.30000000000E+02  0.47000000000E+01 0.  1.
         -5    1    1    2    0  501 -0.13664859665E+02 -0.22070837883E+02  0.14284947513E+02  0.30000000000E+02  0.47000000000E+01 0. -1.
</event>
<event>
 4    1  0.7503339E-002  0.6000000E+02  0.7546771E-02  0.1259629E+00
         11   -1    0    0    0    0  0.00000000000E+00  0.00000000000E+00  0.30000000000E+02  0.30000000000E+02  0.00000000000E+00 0.  1.
        -11   -1    0    0    0    0 -0.00000000000E+00 -0.00000000000E+00 -0.30000000000E+02  0.30000000000E+02  0.00000000000E+00 0. -1.
          5    1    1    2  501    0 -0.24651045227E+02  0.12470504829E+02 -0.10710857973E+02  0.30000000000E+02  0.47000000000E+01 0. -1.
         -5    1    1    2    0  501  0.24651045227E+02 -0.12470504829E+02  0.10710857973E+02  0.30000000000E+02  0.47000000000E+01 0.  1.
</event>
<event>
 4    1  0.7503339E-002  0.6000000E+02  0.7546771E-02  0.1259629E+00
         11   -1    0    0    0    0  0.00000000000E+00  0.00000000000E+00  0.30000000000E+02  0.30000000000E+02  0.00000000000E+00 0.  1.
        -11   -1    0    0    0    0 -0.00000000000E+00 -0.00000000000E+00 -0.30000000000E+02  0.30000000000E+02  0.00000000000E+00 0. -1.
          5    1    1    2  501    0 -0.18082529574E+02  0.83180945688E+00  0.23457199689E+02  0.30000000000E+02  0.47000000000E+01 0.  1.
         -5    1    1    2    0  501  0.18082529574E+02 -0.83180945688E+00 -0.23457199689E+02  0.30000000000E+02  0.47000000000E+01 0. -1.
</event>
<event>
 4    1  0.7503339E-002  0.6000000E+02  0.7546771E-02  0.1259629E+00
         11   -1    0    0    0    0  0.00000000000E+00  0.00000000000E+00  0.30000000000E+02  0.30000000000E+02  0.00000000000E+00 0.  1.
        -11   -1    0    0    0    0 -0.00000000000E+00 -0.00000000000E+00 -0.30000000000E+02  0.30000000000E+02  0.00000000000E+00 0. -1.
          5    1    1    2  501    0  0.16618053299E+02 -0.93705422752E+01 -0.22670316319E+02  0.30000000000E+02  0.47000000000E+01 0. -1.
         -5    1    1    2    0  501 -0.16618053299E+02  0.93705422752E+01  0.22670316319E+02  0.30000000000E+02  0.47000000000E+01 0.  1.
</event>
<event>
 4    1  0.7503339E-002  0.6000000E+02  0.7546771E-02  0.1259629E+00
         11   -1    0    0    0    0  0.00000000000E+00  0.00000000000E+00  0.30000000000E+02  0.30000000000E+02  0.00000000000E+00 0.  1.
        -11   -1    0    0    0    0 -0.00000000000E+00 -0.00000000000E+00 -0.30000000000E+02  0.30000000000E+02  0.00000000000E+00 0. -1.
          5    1    1    2  501    0 -0.36259502428E+01  0.97895224940E+01 -0.27729546231E+02  0.30000000000E+02  0.47000000000E+01 0. -1.
         -5    1    1    2    0  501  0.36259502428E+01 -0.97895224940E+01  0.27729546231E+02  0.30000000000E+02  0.47000000000E+01 0.  1.
</event>
<event>
 4    1  0.7503339E-002  0.6000000E+02  0.7546771E-02  0.1259629E+00
         11   -1    0    0    0    0  0.00000000000E+00  0.00000000000E+00  0.30000000000E+02  0.30000000000E+02  0.00000000000E+00 0.  1.
        -11   -1    0    0    0    0 -0.00000000000E+00 -0.00000000000E+00 -0.30000000000E+02  0.30000000000E+02  0.00000000000E+00 0. -1.
          5    1    1    2  501    0 -0.68119957400E+01 -0.96044014004E+01 -0.27189376377E+02  0.30000000000E+02  0.47000000000E+01 0. -1.
         -5    1    1    2    0  501  0.68119957400E+01  0.96044014004E+01  0.27189376377E+02  0.30000000000E+02  0.47000000000E+01 0.  1.
</event>
<event>
 4    1  0.7503339E-002  0.6000000E+02  0.7546771E-02  0.1259629E+00
         11   -1    0    0    0    0  0.00000000000E+00  0.00000000000E+00  0.30000000000E+02  0.30000000000E+02  0.00000000000E+00 0.  1.
        -11   -1    0    0    0    0 -0.00000000000E+00 -0.00000000000E+00 -0.30000000000E+02  0.30000000000E+02  0.00000000000E+00 0. -1.
          5    1    1    2  501    0 -0.26187316946E+02  0.26652375921E+01 -0.13602607830E+02  0.30000000000E+02  0.47000000000E+01 0. -1.
         -5    1    1    2    0  501  0.26187316946E+02 -0.26652375921E+01  0.13602607830E+02  0.30000000000E+02  0.47000000000E+01 0.  1.
</event>
<event>
 4    1  0.7503339E-002  0.6000000E+02  0.7546771E-02  0.1259629E+00
         11   -1    0    0    0    0  0.00000000000E+00  0.00000000000E+00  0.30000000000E+02  0.30000000000E+02  0.00000000000E+00 0.  1.
        -11   -1    0    0    0    0 -0.00000000000E+00 -0.00000000000E+00 -0.30000000000E+02  0.30000000000E+02  0.00000000000E+00 0. -1.
          5    1    1    2  501    0  0.81529588136E+00 -0.15195520772E+01 -0.29579321394E+02  0.30000000000E+02  0.47000000000E+01 0. -1.
         -5    1    1    2    0  501 -0.81529588136E+00  0.15195520772E+01  0.29579321394E+02  0.30000000000E+02  0.47000000000E+01 0.  1.
</event>
<event>
 4    1  0.7503339E-002  0.6000000E+02  0.7546771E-02  0.1259629E+00
         11   -1    0    0    0    0  0.00000000000E+00  0.00000000000E+00  0.30000000000E+02  0.30000000000E+02  0.00000000000E+00 0.  1.
        -11   -1    0    0    0    0 -0.00000000000E+00 -0.00000000000E+00 -0.30000000000E+02  0.30000000000E+02  0.00000000000E+00 0. -1.
          5    1    1    2  501    0 -0.27118473233E+02 -0.49822575781E+01  0.10847834757E+02  0.30000000000E+02  0.47000000000E+01 0.  1.
         -5    1    1    2    0  501  0.27118473233E+02  0.49822575781E+01 -0.10847834757E+02  0.30000000000E+02  0.47000000000E+01 0. -1.
</event>
<event>
 4    1  0.7503339E-002  0.6000000E+02  0.7546771E-02  0.1259629E+00
         11   -1    0    0    0    0  0.00000000000E+00  0.00000000000E+00  0.30000000000E+02  0.30000000000E+02  0.00000000000E+00 0.  1.
        -11   -1    0    0    0    0 -0.00000000000E+00 -0.00000000000E+00 -0.30000000000E+02  0.30000000000E+02  0.00000000000E+00 0. -1.
          5    1    1    2  501    0  0.18574417283E+02 -0.22494771335E+02 -0.51851986654E+01  0.30000000000E+02  0.47000000000E+01 0. -1.
         -5    1    1    2    0  501 -0.18574417283E+02  0.22494771335E+02  0.51851986654E+01  0.30000000000E+02  0.47000000000E+01 0.  1.
</event>
<event>
 4    1  0.7503339E-002  0.6000000E+02  0.7546771E-02  0.1259629E+00
         11   -1    0    0    0    0  0.00000000000E+00  0.00000000000E+00  0.30000000000E+02  0.30000000000E+02  0.00000000000E+00 0.  1.
        -11   -1    0    0    0    0 -0.00000000000E+00 -0.00000000000E+00 -0.30000000000E+02  0.30000000000E+02  0.00000000000E+00 0. -1.
          5    1    1    2  501    0 -0.29026902832E+01  0.29173692029E+02 -0.42871998438E+01  0.30000000000E+02  0.47000000000E+01 0. -1.
         -5    1    1    2    0  501  0.29026902832E+01 -0.29173692029E+02  0.42871998438E+01  0.30000000000E+02  0.47000000000E+01 0.  1.
</event>
<event>
 4    1  0.7503339E-002  0.6000000E+02  0.7546771E-02  0.1259629E+00
         11   -1    0    0    0    0  0.00000000000E+00  0.00000000000E+00  0.30000000000E+02  0.30000000000E+02  0.00000000000E+00 0.  1.
        -11   -1    0    0    0    0 -0.00000000000E+00 -0.00000000000E+00 -0.30000000000E+02  0.30000000000E+02  0.00000000000E+00 0. -1.
          5    1    1    2  501    0  0.22858364864E+02 -0.62754240279E+01 -0.17777069753E+02  0.30000000000E+02  0.47000000000E+01 0. -1.
         -5    1    1    2    0  501 -0.22858364864E+02  0.62754240279E+01  0.17777069753E+02  0.30000000000E+02  0.47000000000E+01 0.  1.
</event>
<event>
 4    1  0.7503339E-002  0.6000000E+02  0.7546771E-02  0.1259629E+00
         11   -1    0    0    0    0  0.00000000000E+00  0.00000000000E+00  0.30000000000E+02  0.30000000000E+02  0.00000000000E+00 0.  1.
        -11   -1    0    0    0    0 -0.00000000000E+00 -0.00000000000E+00 -0.30000000000E+02  0.30000000000E+02  0.00000000000E+00 0. -1.
          5    1    1    2  501    0 -0.17279874497E+02  0.17089476708E+02 -0.16948915105E+02  0.30000000000E+02  0.47000000000E+01 0.  1.
         -5    1    1    2    0  501  0.17279874497E+02 -0.17089476708E+02  0.16948915105E+02  0.30000000000E+02  0.47000000000E+01 0.  1.
</event>
<event>
 4    1  0.7503339E-002  0.6000000E+02  0.7546771E-02  0.1259629E+00
         11   -1    0    0    0    0  0.00000000000E+00  0.00000000000E+00  0.30000000000E+02  0.30000000000E+02  0.00000000000E+00 0.  1.
        -11   -1    0    0    0    0 -0.00000000000E+00 -0.00000000000E+00 -0.30000000000E+02  0.30000000000E+02  0.00000000000E+00 0. -1.
          5    1    1    2  501    0 -0.20775444268E+02  0.17172970267E+02  0.12303658304E+02  0.30000000000E+02  0.47000000000E+01 0. -1.
         -5    1    1    2    0  501  0.20775444268E+02 -0.17172970267E+02 -0.12303658304E+02  0.30000000000E+02  0.47000000000E+01 0.  1.
</event>
<event>
 4    1  0.7503339E-002  0.6000000E+02  0.7546771E-02  0.1259629E+00
         11   -1    0    0    0    0  0.00000000000E+00  0.00000000000E+00  0.30000000000E+02  0.30000000000E+02  0.00000000000E+00 0.  1.
        -11   -1    0    0    0    0 -0.00000000000E+00 -0.00000000000E+00 -0.30000000000E+02  0.30000000000E+02  0.00000000000E+00 0. -1.
          5    1    1    2  501    0 -0.12134135107E+02 -0.10882055443E+02 -0.24743759507E+02  0.30000000000E+02  0.47000000000E+01 0. -1.
         -5    1    1    2    0  501  0.12134135107E+02  0.10882055443E+02  0.24743759507E+02  0.30000000000E+02  0.47000000000E+01 0.  1.
</event>
<event>
 4    1  0.7503339E-002  0.6000000E+02  0.7546771E-02  0.1259629E+00
         11   -1    0    0    0    0  0.00000000000E+00  0.00000000000E+00  0.30000000000E+02  0.30000000000E+02  0.00000000000E+00 0.  1.
        -11   -1    0    0    0    0 -0.00000000000E+00 -0.00000000000E+00 -0.30000000000E+02  0.30000000000E+02  0.00000000000E+00 0. -1.
          5    1    1    2  501    0 -0.17784228977E+02  0.99919532527E+01 -0.21489347824E+02  0.30000000000E+02  0.47000000000E+01 0. -1.
         -5    1    1    2    0  501  0.17784228977E+02 -0.99919532527E+01  0.21489347824E+02  0.30000000000E+02  0.47000000000E+01 0.  1.
</event>
<event>
 4    1  0.7503339E-002  0.6000000E+02  0.7546771E-02  0.1259629E+00
         11   -1    0    0    0    0  0.00000000000E+00  0.00000000000E+00  0.30000000000E+02  0.30000000000E+02  0.00000000000E+00 0.  1.
        -11   -1    0    0    0    0 -0.00000000000E+00 -0.00000000000E+00 -0.30000000000E+02  0.30000000000E+02  0.00000000000E+00 0. -1.
          5    1    1    2  501    0  0.22805568322E+02 -0.18911759401E+02 -0.40175849493E+00  0.30000000000E+02  0.47000000000E+01 0. -1.
         -5    1    1    2    0  501 -0.22805568322E+02  0.18911759401E+02  0.40175849493E+00  0.30000000000E+02  0.47000000000E+01 0.  1.
</event>
<event>
 4    1  0.7503339E-002  0.6000000E+02  0.7546771E-02  0.1259629E+00
         11   -1    0    0    0    0  0.00000000000E+00  0.00000000000E+00  0.30000000000E+02  0.30000000000E+02  0.00000000000E+00 0. -1.
        -11   -1    0    0    0    0 -0.00000000000E+00 -0.00000000000E+00 -0.30000000000E+02  0.30000000000E+02  0.00000000000E+00 0.  1.
          5    1    1    2  501    0  0.99825950047E+01 -0.28517561099E+01 -0.27751131221E+02  0.30000000000E+02  0.47000000000E+01 0.  1.
         -5    1    1    2    0  501 -0.99825950047E+01  0.28517561099E+01  0.27751131221E+02  0.30000000000E+02  0.47000000000E+01 0. -1.
</event>
<event>
 4    1  0.7503339E-002  0.6000000E+02  0.7546771E-02  0.1259629E+00
         11   -1    0    0    0    0  0.00000000000E+00  0.00000000000E+00  0.30000000000E+02  0.30000000000E+02  0.00000000000E+00 0.  1.
        -11   -1    0    0    0    0 -0.00000000000E+00 -0.00000000000E+00 -0.30000000000E+02  0.30000000000E+02  0.00000000000E+00 0. -1.
          5    1    1    2  501    0 -0.59987917296E+00 -0.24093540067E+01 -0.29525330790E+02  0.30000000000E+02  0.47000000000E+01 0. -1.
         -5    1    1    2    0  501  0.59987917296E+00  0.24093540067E+01  0.29525330790E+02  0.30000000000E+02  0.47000000000E+01 0.  1.
</event>
<event>
 4    1  0.7503339E-002  0.6000000E+02  0.7546771E-02  0.1259629E+00
         11   -1    0    0    0    0  0.00000000000E+00  0.00000000000E+00  0.30000000000E+02  0.30000000000E+02  0.00000000000E+00 0.  1.
        -11   -1    0    0    0    0 -0.00000000000E+00 -0.00000000000E+00 -0.30000000000E+02  0.30000000000E+02  0.00000000000E+00 0. -1.
          5    1    1    2  501    0 -0.29488124562E+02  0.28208584258E+01  0.63503351585E+00  0.30000000000E+02  0.47000000000E+01 0. -1.
         -5    1    1    2    0  501  0.29488124562E+02 -0.28208584258E+01 -0.63503351585E+00  0.30000000000E+02  0.47000000000E+01 0.  1.
</event>
<event>
 4    1  0.7503339E-002  0.6000000E+02  0.7546771E-02  0.1259629E+00
         11   -1    0    0    0    0  0.00000000000E+00  0.00000000000E+00  0.30000000000E+02  0.30000000000E+02  0.00000000000E+00 0.  1.
        -11   -1    0    0    0    0 -0.00000000000E+00 -0.00000000000E+00 -0.30000000000E+02  0.30000000000E+02  0.00000000000E+00 0. -1.
          5    1    1    2  501    0  0.18160589133E+02  0.11255371390E+02 -0.20528507428E+02  0.30000000000E+02  0.47000000000E+01 0. -1.
         -5    1    1    2    0  501 -0.18160589133E+02 -0.11255371390E+02  0.20528507428E+02  0.30000000000E+02  0.47000000000E+01 0.  1.
</event>
<event>
 4    1  0.7503339E-002  0.6000000E+02  0.7546771E-02  0.1259629E+00
         11   -1    0    0    0    0  0.00000000000E+00  0.00000000000E+00  0.30000000000E+02  0.30000000000E+02  0.00000000000E+00 0.  1.
        -11   -1    0    0    0    0 -0.00000000000E+00 -0.00000000000E+00 -0.30000000000E+02  0.30000000000E+02  0.00000000000E+00 0. -1.
          5    1    1    2  501    0  0.15934439604E+02 -0.11027435330E+02 -0.22414265648E+02  0.30000000000E+02  0.47000000000E+01 0. -1.
         -5    1    1    2    0  501 -0.15934439604E+02  0.11027435330E+02  0.22414265648E+02  0.30000000000E+02  0.47000000000E+01 0.  1.
</event>
<event>
 4    1  0.7503339E-002  0.6000000E+02  0.7546771E-02  0.1259629E+00
         11   -1    0    0    0    0  0.00000000000E+00  0.00000000000E+00  0.30000000000E+02  0.30000000000E+02  0.00000000000E+00 0.  1.
        -11   -1    0    0    0    0 -0.00000000000E+00 -0.00000000000E+00 -0.30000000000E+02  0.30000000000E+02  0.00000000000E+00 0. -1.
          5    1    1    2  501    0 -0.26756042286E+02  0.55348566900E+01 -0.11462528631E+02  0.30000000000E+02  0.47000000000E+01 0. -1.
         -5    1    1    2    0  501  0.26756042286E+02 -0.55348566900E+01  0.11462528631E+02  0.30000000000E+02  0.47000000000E+01 0.  1.
</event>
<event>
 4    1  0.7503339E-002  0.6000000E+02  0.7546771E-02  0.1259629E+00
         11   -1    0    0    0    0  0.00000000000E+00  0.00000000000E+00  0.30000000000E+02  0.30000000000E+02  0.00000000000E+00 0.  1.
        -11   -1    0    0    0    0 -0.00000000000E+00 -0.00000000000E+00 -0.30000000000E+02  0.30000000000E+02  0.00000000000E+00 0. -1.
          5    1    1    2  501    0  0.36804146127E+01  0.32380916994E+01 -0.29221213363E+02  0.30000000000E+02  0.47000000000E+01 0. -1.
         -5    1    1    2    0  501 -0.36804146127E+01 -0.32380916994E+01  0.29221213363E+02  0.30000000000E+02  0.47000000000E+01 0.  1.
</event>
<event>
 4    1  0.7503339E-002  0.6000000E+02  0.7546771E-02  0.1259629E+00
         11   -1    0    0    0    0  0.00000000000E+00  0.00000000000E+00  0.30000000000E+02  0.30000000000E+02  0.00000000000E+00 0.  1.
        -11   -1    0    0    0    0 -0.00000000000E+00 -0.00000000000E+00 -0.30000000000E+02  0.30000000000E+02  0.00000000000E+00 0. -1.
          5    1    1    2  501    0 -0.14127460103E+02 -0.34865909215E+01 -0.25810241277E+02  0.30000000000E+02  0.47000000000E+01 0. -1.
         -5    1    1    2    0  501  0.14127460103E+02  0.34865909215E+01  0.25810241277E+02  0.30000000000E+02  0.47000000000E+01 0.  1.
</event>
<event>
 4    1  0.7503339E-002  0.6000000E+02  0.7546771E-02  0.1259629E+00
         11   -1    0    0    0    0  0.00000000000E+00  0.00000000000E+00  0.30000000000E+02  0.30000000000E+02  0.00000000000E+00 0.  1.
        -11   -1    0    0    0    0 -0.00000000000E+00 -0.00000000000E+00 -0.30000000000E+02  0.30000000000E+02  0.00000000000E+00 0. -1.
          5    1    1    2  501    0 -0.98920944138E+00  0.60959728933E+01 -0.28978795337E+02  0.30000000000E+02  0.47000000000E+01 0. -1.
         -5    1    1    2    0  501  0.98920944138E+00 -0.60959728933E+01  0.28978795337E+02  0.30000000000E+02  0.47000000000E+01 0.  1.
</event>
<event>
 4    1  0.7503339E-002  0.6000000E+02  0.7546771E-02  0.1259629E+00
         11   -1    0    0    0    0  0.00000000000E+00  0.00000000000E+00  0.30000000000E+02  0.30000000000E+02  0.00000000000E+00 0.  1.
        -11   -1    0    0    0    0 -0.00000000000E+00 -0.00000000000E+00 -0.30000000000E+02  0.30000000000E+02  0.00000000000E+00 0. -1.
          5    1    1    2  501    0  0.28452074982E+02  0.32006670117E+01 -0.76252973642E+01  0.30000000000E+02  0.47000000000E+01 0. -1.
         -5    1    1    2    0  501 -0.28452074982E+02 -0.32006670117E+01  0.76252973642E+01  0.30000000000E+02  0.47000000000E+01 0.  1.
</event>
<event>
 4    1  0.7503339E-002  0.6000000E+02  0.7546771E-02  0.1259629E+00
         11   -1    0    0    0    0  0.00000000000E+00  0.00000000000E+00  0.30000000000E+02  0.30000000000E+02  0.00000000000E+00 0.  1.
        -11   -1    0    0    0    0 -0.00000000000E+00 -0.00000000000E+00 -0.30000000000E+02  0.30000000000E+02  0.00000000000E+00 0. -1.
          5    1    1    2  501    0 -0.91861742165E+01  0.13573928912E+02 -0.24683449053E+02  0.30000000000E+02  0.47000000000E+01 0. -1.
         -5    1    1    2    0  501  0.91861742165E+01 -0.13573928912E+02  0.24683449053E+02  0.30000000000E+02  0.47000000000E+01 0.  1.
</event>
<event>
 4    1  0.7503339E-002  0.6000000E+02  0.7546771E-02  0.1259629E+00
         11   -1    0    0    0    0  0.00000000000E+00  0.00000000000E+00  0.30000000000E+02  0.30000000000E+02  0.00000000000E+00 0. -1.
        -11   -1    0    0    0    0 -0.00000000000E+00 -0.00000000000E+00 -0.30000000000E+02  0.30000000000E+02  0.00000000000E+00 0.  1.
          5    1    1    2  501    0 -0.12803063392E+02 -0.46675214718E+01 -0.26309804467E+02  0.30000000000E+02  0.47000000000E+01 0.  1.
         -5    1    1    2    0  501  0.12803063392E+02  0.46675214718E+01  0.26309804467E+02  0.30000000000E+02  0.47000000000E+01 0. -1.
</event>
<event>
 4    1  0.7503339E-002  0.6000000E+02  0.7546771E-02  0.1259629E+00
         11   -1    0    0    0    0  0.00000000000E+00  0.00000000000E+00  0.30000000000E+02  0.30000000000E+02  0.00000000000E+00 0.  1.
        -11   -1    0    0    0    0 -0.00000000000E+00 -0.00000000000E+00 -0.30000000000E+02  0.30000000000E+02  0.00000000000E+00 0. -1.
          5    1    1    2  501    0  0.25685393151E+02 -0.11278728149E+02  0.95373408267E+01  0.30000000000E+02  0.47000000000E+01 0.  1.
         -5    1    1    2    0  501 -0.25685393151E+02  0.11278728149E+02 -0.95373408267E+01  0.30000000000E+02  0.47000000000E+01 0. -1.
</event>
<event>
 4    1  0.7503339E-002  0.6000000E+02  0.7546771E-02  0.1259629E+00
         11   -1    0    0    0    0  0.00000000000E+00  0.00000000000E+00  0.30000000000E+02  0.30000000000E+02  0.00000000000E+00 0.  1.
        -11   -1    0    0    0    0 -0.00000000000E+00 -0.00000000000E+00 -0.30000000000E+02  0.30000000000E+02  0.00000000000E+00 0. -1.
          5    1    1    2  501    0 -0.29301746229E+02 -0.13868740020E+00  0.43929982603E+01  0.30000000000E+02  0.47000000000E+01 0. -1.
         -5    1    1    2    0  501  0.29301746229E+02  0.13868740020E+00 -0.43929982603E+01  0.30000000000E+02  0.47000000000E+01 0.  1.
</event>
<event>
 4    1  0.7503339E-002  0.6000000E+02  0.7546771E-02  0.1259629E+00
         11   -1    0    0    0    0  0.00000000000E+00  0.00000000000E+00  0.30000000000E+02  0.30000000000E+02  0.00000000000E+00 0. -1.
        -11   -1    0    0    0    0 -0.00000000000E+00 -0.00000000000E+00 -0.30000000000E+02  0.30000000000E+02  0.00000000000E+00 0.  1.
          5    1    1    2  501    0  0.68128112091E+01  0.92925010147E+01 -0.27297344712E+02  0.30000000000E+02  0.47000000000E+01 0.  1.
         -5    1    1    2    0  501 -0.68128112091E+01 -0.92925010147E+01  0.27297344712E+02  0.30000000000E+02  0.47000000000E+01 0. -1.
</event>
<event>
 4    1  0.7503339E-002  0.6000000E+02  0.7546771E-02  0.1259629E+00
         11   -1    0    0    0    0  0.00000000000E+00  0.00000000000E+00  0.30000000000E+02  0.30000000000E+02  0.00000000000E+00 0.  1.
        -11   -1    0    0    0    0 -0.00000000000E+00 -0.00000000000E+00 -0.30000000000E+02  0.30000000000E+02  0.00000000000E+00 0. -1.
          5    1    1    2  501    0  0.28986274457E+02  0.63853158988E+00  0.61072228166E+01  0.30000000000E+02  0.47000000000E+01 0.  1.
         -5    1    1    2    0  501 -0.28986274457E+02 -0.63853158988E+00 -0.61072228166E+01  0.30000000000E+02  0.47000000000E+01 0. -1.
</event>
<event>
 4    1  0.7503339E-002  0.6000000E+02  0.7546771E-02  0.1259629E+00
         11   -1    0    0    0    0  0.00000000000E+00  0.00000000000E+00  0.30000000000E+02  0.30000000000E+02  0.00000000000E+00 0.  1.
        -11   -1    0    0    0    0 -0.00000000000E+00 -0.00000000000E+00 -0.30000000000E+02  0.30000000000E+02  0.00000000000E+00 0. -1.
          5    1    1    2  501    0 -0.27633150469E+02  0.25750565747E+01 -0.10377286678E+02  0.30000000000E+02  0.47000000000E+01 0. -1.
         -5    1    1    2    0  501  0.27633150469E+02 -0.25750565747E+01  0.10377286678E+02  0.30000000000E+02  0.47000000000E+01 0.  1.
</event>
<event>
 4    1  0.7503339E-002  0.6000000E+02  0.7546771E-02  0.1259629E+00
         11   -1    0    0    0    0  0.00000000000E+00  0.00000000000E+00  0.30000000000E+02  0.30000000000E+02  0.00000000000E+00 0.  1.
        -11   -1    0    0    0    0 -0.00000000000E+00 -0.00000000000E+00 -0.30000000000E+02  0.30000000000E+02  0.00000000000E+00 0. -1.
          5    1    1    2  501    0  0.19101568376E+02 -0.22192450924E+02 -0.45315789242E+01  0.30000000000E+02  0.47000000000E+01 0. -1.
         -5    1    1    2    0  501 -0.19101568376E+02  0.22192450924E+02  0.45315789242E+01  0.30000000000E+02  0.47000000000E+01 0.  1.
</event>
<event>
 4    1  0.7503339E-002  0.6000000E+02  0.7546771E-02  0.1259629E+00
         11   -1    0    0    0    0  0.00000000000E+00  0.00000000000E+00  0.30000000000E+02  0.30000000000E+02  0.00000000000E+00 0.  1.
        -11   -1    0    0    0    0 -0.00000000000E+00 -0.00000000000E+00 -0.30000000000E+02  0.30000000000E+02  0.00000000000E+00 0. -1.
          5    1    1    2  501    0 -0.24841260611E+01  0.22007471411E+02 -0.19682741674E+02  0.30000000000E+02  0.47000000000E+01 0. -1.
         -5    1    1    2    0  501  0.24841260611E+01 -0.22007471411E+02  0.19682741674E+02  0.30000000000E+02  0.47000000000E+01 0.  1.
</event>
<event>
 4    1  0.7503339E-002  0.6000000E+02  0.7546771E-02  0.1259629E+00
         11   -1    0    0    0    0  0.00000000000E+00  0.00000000000E+00  0.30000000000E+02  0.30000000000E+02  0.00000000000E+00 0. -1.
        -11   -1    0    0    0    0 -0.00000000000E+00 -0.00000000000E+00 -0.30000000000E+02  0.30000000000E+02  0.00000000000E+00 0.  1.
          5    1    1    2  501    0 -0.10134752818E+02  0.13193018285E+02 -0.24518178029E+02  0.30000000000E+02  0.47000000000E+01 0.  1.
         -5    1    1    2    0  501  0.10134752818E+02 -0.13193018285E+02  0.24518178029E+02  0.30000000000E+02  0.47000000000E+01 0. -1.
</event>
<event>
 4    1  0.7503339E-002  0.6000000E+02  0.7546771E-02  0.1259629E+00
         11   -1    0    0    0    0  0.00000000000E+00  0.00000000000E+00  0.30000000000E+02  0.30000000000E+02  0.00000000000E+00 0.  1.
        -11   -1    0    0    0    0 -0.00000000000E+00 -0.00000000000E+00 -0.30000000000E+02  0.30000000000E+02  0.00000000000E+00 0. -1.
          5    1    1    2  501    0 -0.45239917387E+01 -0.88317256368E+01 -0.27918526484E+02  0.30000000000E+02  0.47000000000E+01 0. -1.
         -5    1    1    2    0  501  0.45239917387E+01  0.88317256368E+01  0.27918526484E+02  0.30000000000E+02  0.47000000000E+01 0.  1.
</event>
<event>
 4    1  0.7503339E-002  0.6000000E+02  0.7546771E-02  0.1259629E+00
         11   -1    0    0    0    0  0.00000000000E+00  0.00000000000E+00  0.30000000000E+02  0.30000000000E+02  0.00000000000E+00 0.  1.
        -11   -1    0    0    0    0 -0.00000000000E+00 -0.00000000000E+00 -0.30000000000E+02  0.30000000000E+02  0.00000000000E+00 0. -1.
          5    1    1    2  501    0 -0.23668405139E+01  0.11872445368E+01 -0.29510989756E+02  0.30000000000E+02  0.47000000000E+01 0. -1.
         -5    1    1    2    0  501  0.23668405139E+01 -0.11872445368E+01  0.29510989756E+02  0.30000000000E+02  0.47000000000E+01 0.  1.
</event>
<event>
 4    1  0.7503339E-002  0.6000000E+02  0.7546771E-02  0.1259629E+00
         11   -1    0    0    0    0  0.00000000000E+00  0.00000000000E+00  0.30000000000E+02  0.30000000000E+02  0.00000000000E+00 0. -1.
        -11   -1    0    0    0    0 -0.00000000000E+00 -0.00000000000E+00 -0.30000000000E+02  0.30000000000E+02  0.00000000000E+00 0.  1.
          5    1    1    2  501    0  0.59942933255E+01  0.24318289982E+02 -0.15830325955E+02  0.30000000000E+02  0.47000000000E+01 0.  1.
         -5    1    1    2    0  501 -0.59942933255E+01 -0.24318289982E+02  0.15830325955E+02  0.30000000000E+02  0.47000000000E+01 0. -1.
</event>
<event>
 4    1  0.7503339E-002  0.6000000E+02  0.7546771E-02  0.1259629E+00
         11   -1    0    0    0    0  0.00000000000E+00  0.00000000000E+00  0.30000000000E+02  0.30000000000E+02  0.00000000000E+00 0.  1.
        -11   -1    0    0    0    0 -0.00000000000E+00 -0.00000000000E+00 -0.30000000000E+02  0.30000000000E+02  0.00000000000E+00 0. -1.
          5    1    1    2  501    0 -0.89254490888E+01  0.18156683176E+01 -0.28194852493E+02  0.30000000000E+02  0.47000000000E+01 0. -1.
         -5    1    1    2    0  501  0.89254490888E+01 -0.18156683176E+01  0.28194852493E+02  0.30000000000E+02  0.47000000000E+01 0.  1.
</event>
<event>
 4    1  0.7503339E-002  0.6000000E+02  0.7546771E-02  0.1259629E+00
         11   -1    0    0    0    0  0.00000000000E+00  0.00000000000E+00  0.30000000000E+02  0.30000000000E+02  0.00000000000E+00 0.  1.
        -11   -1    0    0    0    0 -0.00000000000E+00 -0.00000000000E+00 -0.30000000000E+02  0.30000000000E+02  0.00000000000E+00 0. -1.
          5    1    1    2  501    0  0.91658690887E+01  0.16705800303E+02 -0.22689492725E+02  0.30000000000E+02  0.47000000000E+01 0. -1.
         -5    1    1    2    0  501 -0.91658690887E+01 -0.16705800303E+02  0.22689492725E+02  0.30000000000E+02  0.47000000000E+01 0.  1.
</event>
<event>
 4    1  0.7503339E-002  0.6000000E+02  0.7546771E-02  0.1259629E+00
         11   -1    0    0    0    0  0.00000000000E+00  0.00000000000E+00  0.30000000000E+02  0.30000000000E+02  0.00000000000E+00 0.  1.
        -11   -1    0    0    0    0 -0.00000000000E+00 -0.00000000000E+00 -0.30000000000E+02  0.30000000000E+02  0.00000000000E+00 0. -1.
          5    1    1    2  501    0 -0.79515924129E+01 -0.26316761539E+02  0.11050350229E+02  0.30000000000E+02  0.47000000000E+01 0. -1.
         -5    1    1    2    0  501  0.79515924129E+01  0.26316761539E+02 -0.11050350229E+02  0.30000000000E+02  0.47000000000E+01 0.  1.
</event>
<event>
 4    1  0.7503339E-002  0.6000000E+02  0.7546771E-02  0.1259629E+00
         11   -1    0    0    0    0  0.00000000000E+00  0.00000000000E+00  0.30000000000E+02  0.30000000000E+02  0.00000000000E+00 0.  1.
        -11   -1    0    0    0    0 -0.00000000000E+00 -0.00000000000E+00 -0.30000000000E+02  0.30000000000E+02  0.00000000000E+00 0. -1.
          5    1    1    2  501    0  0.17944061829E+02  0.18585701457E+02 -0.14508354366E+02  0.30000000000E+02  0.47000000000E+01 0. -1.
         -5    1    1    2    0  501 -0.17944061829E+02 -0.18585701457E+02  0.14508354366E+02  0.30000000000E+02  0.47000000000E+01 0.  1.
</event>
<event>
 4    1  0.7503339E-002  0.6000000E+02  0.7546771E-02  0.1259629E+00
         11   -1    0    0    0    0  0.00000000000E+00  0.00000000000E+00  0.30000000000E+02  0.30000000000E+02  0.00000000000E+00 0. -1.
        -11   -1    0    0    0    0 -0.00000000000E+00 -0.00000000000E+00 -0.30000000000E+02  0.30000000000E+02  0.00000000000E+00 0.  1.
          5    1    1    2  501    0  0.29199904601E+02  0.50030937236E+01 -0.49459528247E+00  0.30000000000E+02  0.47000000000E+01 0.  1.
         -5    1    1    2    0  501 -0.29199904601E+02 -0.50030937236E+01  0.49459528247E+00  0.30000000000E+02  0.47000000000E+01 0. -1.
</event>
<event>
 4    1  0.7503339E-002  0.6000000E+02  0.7546771E-02  0.1259629E+00
         11   -1    0    0    0    0  0.00000000000E+00  0.00000000000E+00  0.30000000000E+02  0.30000000000E+02  0.00000000000E+00 0. -1.
        -11   -1    0    0    0    0 -0.00000000000E+00 -0.00000000000E+00 -0.30000000000E+02  0.30000000000E+02  0.00000000000E+00 0.  1.
          5    1    1    2  501    0  0.21154485685E+02 -0.43216841458E+00 -0.20741527568E+02  0.30000000000E+02  0.47000000000E+01 0.  1.
         -5    1    1    2    0  501 -0.21154485685E+02  0.43216841458E+00  0.20741527568E+02  0.30000000000E+02  0.47000000000E+01 0. -1.
</event>
<event>
 4    1  0.7503339E-002  0.6000000E+02  0.7546771E-02  0.1259629E+00
         11   -1    0    0    0    0  0.00000000000E+00  0.00000000000E+00  0.30000000000E+02  0.30000000000E+02  0.00000000000E+00 0.  1.
        -11   -1    0    0    0    0 -0.00000000000E+00 -0.00000000000E+00 -0.30000000000E+02  0.30000000000E+02  0.00000000000E+00 0. -1.
          5    1    1    2  501    0  0.76069924312E+01 -0.20298968831E+02 -0.20198899241E+02  0.30000000000E+02  0.47000000000E+01 0. -1.
         -5    1    1    2    0  501 -0.76069924312E+01  0.20298968831E+02  0.20198899241E+02  0.30000000000E+02  0.47000000000E+01 0.  1.
</event>
<event>
 4    1  0.7503339E-002  0.6000000E+02  0.7546771E-02  0.1259629E+00
         11   -1    0    0    0    0  0.00000000000E+00  0.00000000000E+00  0.30000000000E+02  0.30000000000E+02  0.00000000000E+00 0.  1.
        -11   -1    0    0    0    0 -0.00000000000E+00 -0.00000000000E+00 -0.30000000000E+02  0.30000000000E+02  0.00000000000E+00 0. -1.
          5    1    1    2  501    0 -0.25985560847E+02 -0.97675950479E+01 -0.10356385201E+02  0.30000000000E+02  0.47000000000E+01 0. -1.
         -5    1    1    2    0  501  0.25985560847E+02  0.97675950479E+01  0.10356385201E+02  0.30000000000E+02  0.47000000000E+01 0.  1.
</event>
<event>
 4    1  0.7503339E-002  0.6000000E+02  0.7546771E-02  0.1259629E+00
         11   -1    0    0    0    0  0.00000000000E+00  0.00000000000E+00  0.30000000000E+02  0.30000000000E+02  0.00000000000E+00 0. -1.
        -11   -1    0    0    0    0 -0.00000000000E+00 -0.00000000000E+00 -0.30000000000E+02  0.30000000000E+02  0.00000000000E+00 0.  1.
          5    1    1    2  501    0  0.17605567263E+02  0.56123068786E+01 -0.23161520089E+02  0.30000000000E+02  0.47000000000E+01 0.  1.
         -5    1    1    2    0  501 -0.17605567263E+02 -0.56123068786E+01  0.23161520089E+02  0.30000000000E+02  0.47000000000E+01 0. -1.
</event>
<event>
 4    1  0.7503339E-002  0.6000000E+02  0.7546771E-02  0.1259629E+00
         11   -1    0    0    0    0  0.00000000000E+00  0.00000000000E+00  0.30000000000E+02  0.30000000000E+02  0.00000000000E+00 0. -1.
        -11   -1    0    0    0    0 -0.00000000000E+00 -0.00000000000E+00 -0.30000000000E+02  0.30000000000E+02  0.00000000000E+00 0.  1.
          5    1    1    2  501    0 -0.10003446874E+02  0.11048075500E+02 -0.25608222867E+02  0.30000000000E+02  0.47000000000E+01 0.  1.
         -5    1    1    2    0  501  0.10003446874E+02 -0.11048075500E+02  0.25608222867E+02  0.30000000000E+02  0.47000000000E+01 0. -1.
</event>
<event>
 4    1  0.7503339E-002  0.6000000E+02  0.7546771E-02  0.1259629E+00
         11   -1    0    0    0    0  0.00000000000E+00  0.00000000000E+00  0.30000000000E+02  0.30000000000E+02  0.00000000000E+00 0.  1.
        -11   -1    0    0    0    0 -0.00000000000E+00 -0.00000000000E+00 -0.30000000000E+02  0.30000000000E+02  0.00000000000E+00 0. -1.
          5    1    1    2  501    0  0.10490775099E+02  0.87623858246E+01  0.26288290786E+02  0.30000000000E+02  0.47000000000E+01 0.  1.
         -5    1    1    2    0  501 -0.10490775099E+02 -0.87623858246E+01 -0.26288290786E+02  0.30000000000E+02  0.47000000000E+01 0. -1.
</event>
<event>
 4    1  0.7503339E-002  0.6000000E+02  0.7546771E-02  0.1259629E+00
         11   -1    0    0    0    0  0.00000000000E+00  0.00000000000E+00  0.30000000000E+02  0.30000000000E+02  0.00000000000E+00 0.  1.
        -11   -1    0    0    0    0 -0.00000000000E+00 -0.00000000000E+00 -0.30000000000E+02  0.30000000000E+02  0.00000000000E+00 0. -1.
          5    1    1    2  501    0 -0.14139548578E+01  0.64161930255E+01 -0.28891922725E+02  0.30000000000E+02  0.47000000000E+01 0. -1.
         -5    1    1    2    0  501  0.14139548578E+01 -0.64161930255E+01  0.28891922725E+02  0.30000000000E+02  0.47000000000E+01 0.  1.
</event>
<event>
 4    1  0.7503339E-002  0.6000000E+02  0.7546771E-02  0.1259629E+00
         11   -1    0    0    0    0  0.00000000000E+00  0.00000000000E+00  0.30000000000E+02  0.30000000000E+02  0.00000000000E+00 0. -1.
        -11   -1    0    0    0    0 -0.00000000000E+00 -0.00000000000E+00 -0.30000000000E+02  0.30000000000E+02  0.00000000000E+00 0.  1.
          5    1    1    2  501    0 -0.25756647637E+02 -0.14410073915E+02 -0.26181810993E+01  0.30000000000E+02  0.47000000000E+01 0.  1.
         -5    1    1    2    0  501  0.25756647637E+02  0.14410073915E+02  0.26181810993E+01  0.30000000000E+02  0.47000000000E+01 0. -1.
</event>
<event>
 4    1  0.7503339E-002  0.6000000E+02  0.7546771E-02  0.1259629E+00
         11   -1    0    0    0    0  0.00000000000E+00  0.00000000000E+00  0.30000000000E+02  0.30000000000E+02  0.00000000000E+00 0.  1.
        -11   -1    0    0    0    0 -0.00000000000E+00 -0.00000000000E+00 -0.30000000000E+02  0.30000000000E+02  0.00000000000E+00 0. -1.
          5    1    1    2  501    0 -0.10216556711E+02 -0.14140632098E+02 -0.23949415292E+02  0.30000000000E+02  0.47000000000E+01 0. -1.
         -5    1    1    2    0  501  0.10216556711E+02  0.14140632098E+02  0.23949415292E+02  0.30000000000E+02  0.47000000000E+01 0.  1.
</event>
<event>
 4    1  0.7503339E-002  0.6000000E+02  0.7546771E-02  0.1259629E+00
         11   -1    0    0    0    0  0.00000000000E+00  0.00000000000E+00  0.30000000000E+02  0.30000000000E+02  0.00000000000E+00 0.  1.
        -11   -1    0    0    0    0 -0.00000000000E+00 -0.00000000000E+00 -0.30000000000E+02  0.30000000000E+02  0.00000000000E+00 0. -1.
          5    1    1    2  501    0 -0.28995430436E+02 -0.43579746548E+00  0.60815371742E+01  0.30000000000E+02  0.47000000000E+01 0. -1.
         -5    1    1    2    0  501  0.28995430436E+02  0.43579746548E+00 -0.60815371742E+01  0.30000000000E+02  0.47000000000E+01 0.  1.
</event>
<event>
 4    1  0.7503339E-002  0.6000000E+02  0.7546771E-02  0.1259629E+00
         11   -1    0    0    0    0  0.00000000000E+00  0.00000000000E+00  0.30000000000E+02  0.30000000000E+02  0.00000000000E+00 0. -1.
        -11   -1    0    0    0    0 -0.00000000000E+00 -0.00000000000E+00 -0.30000000000E+02  0.30000000000E+02  0.00000000000E+00 0.  1.
          5    1    1    2  501    0 -0.98129146687E+01 -0.21254828346E+02 -0.18161744896E+02  0.30000000000E+02  0.47000000000E+01 0.  1.
         -5    1    1    2    0  501  0.98129146687E+01  0.21254828346E+02  0.18161744896E+02  0.30000000000E+02  0.47000000000E+01 0. -1.
</event>
<event>
 4    1  0.7503339E-002  0.6000000E+02  0.7546771E-02  0.1259629E+00
         11   -1    0    0    0    0  0.00000000000E+00  0.00000000000E+00  0.30000000000E+02  0.30000000000E+02  0.00000000000E+00 0.  1.
        -11   -1    0    0    0    0 -0.00000000000E+00 -0.00000000000E+00 -0.30000000000E+02  0.30000000000E+02  0.00000000000E+00 0. -1.
          5    1    1    2  501    0  0.82288252400E+01  0.85638369234E+01 -0.27145112494E+02  0.30000000000E+02  0.47000000000E+01 0. -1.
         -5    1    1    2    0  501 -0.82288252400E+01 -0.85638369234E+01  0.27145112494E+02  0.30000000000E+02  0.47000000000E+01 0.  1.
</event>
<event>
 4    1  0.7503339E-002  0.6000000E+02  0.7546771E-02  0.1259629E+00
         11   -1    0    0    0    0  0.00000000000E+00  0.00000000000E+00  0.30000000000E+02  0.30000000000E+02  0.00000000000E+00 0.  1.
        -11   -1    0    0    0    0 -0.00000000000E+00 -0.00000000000E+00 -0.30000000000E+02  0.30000000000E+02  0.00000000000E+00 0. -1.
          5    1    1    2  501    0 -0.76601282658E+01  0.12373013441E+02  0.25809706960E+02  0.30000000000E+02  0.47000000000E+01 0.  1.
         -5    1    1    2    0  501  0.76601282658E+01 -0.12373013441E+02 -0.25809706960E+02  0.30000000000E+02  0.47000000000E+01 0. -1.
</event>
<event>
 4    1  0.7503339E-002  0.6000000E+02  0.7546771E-02  0.1259629E+00
         11   -1    0    0    0    0  0.00000000000E+00  0.00000000000E+00  0.30000000000E+02  0.30000000000E+02  0.00000000000E+00 0.  1.
        -11   -1    0    0    0    0 -0.00000000000E+00 -0.00000000000E+00 -0.30000000000E+02  0.30000000000E+02  0.00000000000E+00 0. -1.
          5    1    1    2  501    0 -0.17422070916E+01 -0.13210664121E+02 -0.26464184626E+02  0.30000000000E+02  0.47000000000E+01 0. -1.
         -5    1    1    2    0  501  0.17422070916E+01  0.13210664121E+02  0.26464184626E+02  0.30000000000E+02  0.47000000000E+01 0.  1.
</event>
<event>
 4    1  0.7503339E-002  0.6000000E+02  0.7546771E-02  0.1259629E+00
         11   -1    0    0    0    0  0.00000000000E+00  0.00000000000E+00  0.30000000000E+02  0.30000000000E+02  0.00000000000E+00 0.  1.
        -11   -1    0    0    0    0 -0.00000000000E+00 -0.00000000000E+00 -0.30000000000E+02  0.30000000000E+02  0.00000000000E+00 0. -1.
          5    1    1    2  501    0  0.79980752782E+01  0.16021671743E+02 -0.23606076048E+02  0.30000000000E+02  0.47000000000E+01 0. -1.
         -5    1    1    2    0  501 -0.79980752782E+01 -0.16021671743E+02  0.23606076048E+02  0.30000000000E+02  0.47000000000E+01 0.  1.
</event>
<event>
 4    1  0.7503339E-002  0.6000000E+02  0.7546771E-02  0.1259629E+00
         11   -1    0    0    0    0  0.00000000000E+00  0.00000000000E+00  0.30000000000E+02  0.30000000000E+02  0.00000000000E+00 0. -1.
        -11   -1    0    0    0    0 -0.00000000000E+00 -0.00000000000E+00 -0.30000000000E+02  0.30000000000E+02  0.00000000000E+00 0.  1.
          5    1    1    2  501    0  0.10169508063E+02 -0.20847646849E+02  0.18435474678E+02  0.30000000000E+02  0.47000000000E+01 0. -1.
         -5    1    1    2    0  501 -0.10169508063E+02  0.20847646849E+02 -0.18435474678E+02  0.30000000000E+02  0.47000000000E+01 0.  1.
</event>
<event>
 4    1  0.7503339E-002  0.6000000E+02  0.7546771E-02  0.1259629E+00
         11   -1    0    0    0    0  0.00000000000E+00  0.00000000000E+00  0.30000000000E+02  0.30000000000E+02  0.00000000000E+00 0.  1.
        -11   -1    0    0    0    0 -0.00000000000E+00 -0.00000000000E+00 -0.30000000000E+02  0.30000000000E+02  0.00000000000E+00 0. -1.
          5    1    1    2  501    0  0.23726322287E+02 -0.15143692368E+02 -0.92541997064E+01  0.30000000000E+02  0.47000000000E+01 0. -1.
         -5    1    1    2    0  501 -0.23726322287E+02  0.15143692368E+02  0.92541997064E+01  0.30000000000E+02  0.47000000000E+01 0.  1.
</event>
<event>
 4    1  0.7503339E-002  0.6000000E+02  0.7546771E-02  0.1259629E+00
         11   -1    0    0    0    0  0.00000000000E+00  0.00000000000E+00  0.30000000000E+02  0.30000000000E+02  0.00000000000E+00 0.  1.
        -11   -1    0    0    0    0 -0.00000000000E+00 -0.00000000000E+00 -0.30000000000E+02  0.30000000000E+02  0.00000000000E+00 0. -1.
          5    1    1    2  501    0  0.40373299726E+01 -0.23603913568E+02 -0.17448932087E+02  0.30000000000E+02  0.47000000000E+01 0. -1.
         -5    1    1    2    0  501 -0.40373299726E+01  0.23603913568E+02  0.17448932087E+02  0.30000000000E+02  0.47000000000E+01 0.  1.
</event>
<event>
 4    1  0.7503339E-002  0.6000000E+02  0.7546771E-02  0.1259629E+00
         11   -1    0    0    0    0  0.00000000000E+00  0.00000000000E+00  0.30000000000E+02  0.30000000000E+02  0.00000000000E+00 0.  1.
        -11   -1    0    0    0    0 -0.00000000000E+00 -0.00000000000E+00 -0.30000000000E+02  0.30000000000E+02  0.00000000000E+00 0. -1.
          5    1    1    2  501    0 -0.14895821065E+02  0.70779694687E+01 -0.24615581711E+02  0.30000000000E+02  0.47000000000E+01 0. -1.
         -5    1    1    2    0  501  0.14895821065E+02 -0.70779694687E+01  0.24615581711E+02  0.30000000000E+02  0.47000000000E+01 0.  1.
</event>
<event>
 4    1  0.7503339E-002  0.6000000E+02  0.7546771E-02  0.1259629E+00
         11   -1    0    0    0    0  0.00000000000E+00  0.00000000000E+00  0.30000000000E+02  0.30000000000E+02  0.00000000000E+00 0.  1.
        -11   -1    0    0    0    0 -0.00000000000E+00 -0.00000000000E+00 -0.30000000000E+02  0.30000000000E+02  0.00000000000E+00 0. -1.
          5    1    1    2  501    0  0.29157175939E+02 -0.46510533223E+01 -0.24772553821E+01  0.30000000000E+02  0.47000000000E+01 0. -1.
         -5    1    1    2    0  501 -0.29157175939E+02  0.46510533223E+01  0.24772553821E+01  0.30000000000E+02  0.47000000000E+01 0.  1.
</event>
<event>
 4    1  0.7503339E-002  0.6000000E+02  0.7546771E-02  0.1259629E+00
         11   -1    0    0    0    0  0.00000000000E+00  0.00000000000E+00  0.30000000000E+02  0.30000000000E+02  0.00000000000E+00 0.  1.
        -11   -1    0    0    0    0 -0.00000000000E+00 -0.00000000000E+00 -0.30000000000E+02  0.30000000000E+02  0.00000000000E+00 0. -1.
          5    1    1    2  501    0 -0.20219398927E+02  0.19407529661E+02 -0.96142446146E+01  0.30000000000E+02  0.47000000000E+01 0.  1.
         -5    1    1    2    0  501  0.20219398927E+02 -0.19407529661E+02  0.96142446146E+01  0.30000000000E+02  0.47000000000E+01 0. -1.
</event>
<event>
 4    1  0.7503339E-002  0.6000000E+02  0.7546771E-02  0.1259629E+00
         11   -1    0    0    0    0  0.00000000000E+00  0.00000000000E+00  0.30000000000E+02  0.30000000000E+02  0.00000000000E+00 0. -1.
        -11   -1    0    0    0    0 -0.00000000000E+00 -0.00000000000E+00 -0.30000000000E+02  0.30000000000E+02  0.00000000000E+00 0.  1.
          5    1    1    2  501    0 -0.11904492207E+02  0.56952126410E+01 -0.26528430377E+02  0.30000000000E+02  0.47000000000E+01 0.  1.
         -5    1    1    2    0  501  0.11904492207E+02 -0.56952126410E+01  0.26528430377E+02  0.30000000000E+02  0.47000000000E+01 0. -1.
</event>
<event>
 4    1  0.7503339E-002  0.6000000E+02  0.7546771E-02  0.1259629E+00
         11   -1    0    0    0    0  0.00000000000E+00  0.00000000000E+00  0.30000000000E+02  0.30000000000E+02  0.00000000000E+00 0.  1.
        -11   -1    0    0    0    0 -0.00000000000E+00 -0.00000000000E+00 -0.30000000000E+02  0.30000000000E+02  0.00000000000E+00 0. -1.
          5    1    1    2  501    0  0.16364180488E+02 -0.21798888580E+02 -0.11616025724E+02  0.30000000000E+02  0.47000000000E+01 0. -1.
         -5    1    1    2    0  501 -0.16364180488E+02  0.21798888580E+02  0.11616025724E+02  0.30000000000E+02  0.47000000000E+01 0.  1.
</event>
<event>
 4    1  0.7503339E-002  0.6000000E+02  0.7546771E-02  0.1259629E+00
         11   -1    0    0    0    0  0.00000000000E+00  0.00000000000E+00  0.30000000000E+02  0.30000000000E+02  0.00000000000E+00 0.  1.
        -11   -1    0    0    0    0 -0.00000000000E+00 -0.00000000000E+00 -0.30000000000E+02  0.30000000000E+02  0.00000000000E+00 0. -1.
          5    1    1    2  501    0 -0.15611426088E+02 -0.21903503803E+02 -0.12426982604E+02  0.30000000000E+02  0.47000000000E+01 0. -1.
         -5    1    1    2    0  501  0.15611426088E+02  0.21903503803E+02  0.12426982604E+02  0.30000000000E+02  0.47000000000E+01 0.  1.
</event>
<event>
 4    1  0.7503339E-002  0.6000000E+02  0.7546771E-02  0.1259629E+00
         11   -1    0    0    0    0  0.00000000000E+00  0.00000000000E+00  0.30000000000E+02  0.30000000000E+02  0.00000000000E+00 0.  1.
        -11   -1    0    0    0    0 -0.00000000000E+00 -0.00000000000E+00 -0.30000000000E+02  0.30000000000E+02  0.00000000000E+00 0. -1.
          5    1    1    2  501    0 -0.11538299565E+02 -0.88014651056E+01  0.25832379975E+02  0.30000000000E+02  0.47000000000E+01 0.  1.
         -5    1    1    2    0  501  0.11538299565E+02  0.88014651056E+01 -0.25832379975E+02  0.30000000000E+02  0.47000000000E+01 0. -1.
</event>
<event>
 4    1  0.7503339E-002  0.6000000E+02  0.7546771E-02  0.1259629E+00
         11   -1    0    0    0    0  0.00000000000E+00  0.00000000000E+00  0.30000000000E+02  0.30000000000E+02  0.00000000000E+00 0.  1.
        -11   -1    0    0    0    0 -0.00000000000E+00 -0.00000000000E+00 -0.30000000000E+02  0.30000000000E+02  0.00000000000E+00 0. -1.
          5    1    1    2  501    0  0.37829814015E+01  0.23337579196E+02 -0.17859351864E+02  0.30000000000E+02  0.47000000000E+01 0. -1.
         -5    1    1    2    0  501 -0.37829814015E+01 -0.23337579196E+02  0.17859351864E+02  0.30000000000E+02  0.47000000000E+01 0.  1.
</event>
<event>
 4    1  0.7503339E-002  0.6000000E+02  0.7546771E-02  0.1259629E+00
         11   -1    0    0    0    0  0.00000000000E+00  0.00000000000E+00  0.30000000000E+02  0.30000000000E+02  0.00000000000E+00 0.  1.
        -11   -1    0    0    0    0 -0.00000000000E+00 -0.00000000000E+00 -0.30000000000E+02  0.30000000000E+02  0.00000000000E+00 0. -1.
          5    1    1    2  501    0 -0.10207598685E+02 -0.13260256196E+01 -0.27784106700E+02  0.30000000000E+02  0.47000000000E+01 0. -1.
         -5    1    1    2    0  501  0.10207598685E+02  0.13260256196E+01  0.27784106700E+02  0.30000000000E+02  0.47000000000E+01 0.  1.
</event>
<event>
 4    1  0.7503339E-002  0.6000000E+02  0.7546771E-02  0.1259629E+00
         11   -1    0    0    0    0  0.00000000000E+00  0.00000000000E+00  0.30000000000E+02  0.30000000000E+02  0.00000000000E+00 0. -1.
        -11   -1    0    0    0    0 -0.00000000000E+00 -0.00000000000E+00 -0.30000000000E+02  0.30000000000E+02  0.00000000000E+00 0.  1.
          5    1    1    2  501    0 -0.12754822511E+02  0.84251687887E+01 -0.25381903664E+02  0.30000000000E+02  0.47000000000E+01 0.  1.
         -5    1    1    2    0  501  0.12754822511E+02 -0.84251687887E+01  0.25381903664E+02  0.30000000000E+02  0.47000000000E+01 0. -1.
</event>
<event>
 4    1  0.7503339E-002  0.6000000E+02  0.7546771E-02  0.1259629E+00
         11   -1    0    0    0    0  0.00000000000E+00  0.00000000000E+00  0.30000000000E+02  0.30000000000E+02  0.00000000000E+00 0.  1.
        -11   -1    0    0    0    0 -0.00000000000E+00 -0.00000000000E+00 -0.30000000000E+02  0.30000000000E+02  0.00000000000E+00 0. -1.
          5    1    1    2  501    0  0.21976487386E+02 -0.92296065089E+01 -0.17599953575E+02  0.30000000000E+02  0.47000000000E+01 0. -1.
         -5    1    1    2    0  501 -0.21976487386E+02  0.92296065089E+01  0.17599953575E+02  0.30000000000E+02  0.47000000000E+01 0.  1.
</event>
<event>
 4    1  0.7503339E-002  0.6000000E+02  0.7546771E-02  0.1259629E+00
         11   -1    0    0    0    0  0.00000000000E+00  0.00000000000E+00  0.30000000000E+02  0.30000000000E+02  0.00000000000E+00 0.  1.
        -11   -1    0    0    0    0 -0.00000000000E+00 -0.00000000000E+00 -0.30000000000E+02  0.30000000000E+02  0.00000000000E+00 0. -1.
          5    1    1    2  501    0 -0.55970237845E+01 -0.10940239425E+02 -0.26960980807E+02  0.30000000000E+02  0.47000000000E+01 0. -1.
         -5    1    1    2    0  501  0.55970237845E+01  0.10940239425E+02  0.26960980807E+02  0.30000000000E+02  0.47000000000E+01 0.  1.
</event>
<event>
 4    1  0.7503339E-002  0.6000000E+02  0.7546771E-02  0.1259629E+00
         11   -1    0    0    0    0  0.00000000000E+00  0.00000000000E+00  0.30000000000E+02  0.30000000000E+02  0.00000000000E+00 0. -1.
        -11   -1    0    0    0    0 -0.00000000000E+00 -0.00000000000E+00 -0.30000000000E+02  0.30000000000E+02  0.00000000000E+00 0.  1.
          5    1    1    2  501    0  0.11118987815E+02 -0.34407880040E+01 -0.27247735463E+02  0.30000000000E+02  0.47000000000E+01 0.  1.
         -5    1    1    2    0  501 -0.11118987815E+02  0.34407880040E+01  0.27247735463E+02  0.30000000000E+02  0.47000000000E+01 0. -1.
</event>
<event>
 4    1  0.7503339E-002  0.6000000E+02  0.7546771E-02  0.1259629E+00
         11   -1    0    0    0    0  0.00000000000E+00  0.00000000000E+00  0.30000000000E+02  0.30000000000E+02  0.00000000000E+00 0.  1.
        -11   -1    0    0    0    0 -0.00000000000E+00 -0.00000000000E+00 -0.30000000000E+02  0.30000000000E+02  0.00000000000E+00 0. -1.
          5    1    1    2  501    0 -0.11518797921E+02 -0.11626348755E+02  0.24699297745E+02  0.30000000000E+02  0.47000000000E+01 0.  1.
         -5    1    1    2    0  501  0.11518797921E+02  0.11626348755E+02 -0.24699297745E+02  0.30000000000E+02  0.47000000000E+01 0. -1.
</event>
<event>
 4    1  0.7503339E-002  0.6000000E+02  0.7546771E-02  0.1259629E+00
         11   -1    0    0    0    0  0.00000000000E+00  0.00000000000E+00  0.30000000000E+02  0.30000000000E+02  0.00000000000E+00 0.  1.
        -11   -1    0    0    0    0 -0.00000000000E+00 -0.00000000000E+00 -0.30000000000E+02  0.30000000000E+02  0.00000000000E+00 0. -1.
          5    1    1    2  501    0  0.17353169516E+02 -0.11733095308E+02  0.20954998980E+02  0.30000000000E+02  0.47000000000E+01 0.  1.
         -5    1    1    2    0  501 -0.17353169516E+02  0.11733095308E+02 -0.20954998980E+02  0.30000000000E+02  0.47000000000E+01 0. -1.
</event>
<event>
 4    1  0.7503339E-002  0.6000000E+02  0.7546771E-02  0.1259629E+00
         11   -1    0    0    0    0  0.00000000000E+00  0.00000000000E+00  0.30000000000E+02  0.30000000000E+02  0.00000000000E+00 0. -1.
        -11   -1    0    0    0    0 -0.00000000000E+00 -0.00000000000E+00 -0.30000000000E+02  0.30000000000E+02  0.00000000000E+00 0.  1.
          5    1    1    2  501    0 -0.27517436320E+02  0.21169443409E+01  0.10780503004E+02  0.30000000000E+02  0.47000000000E+01 0.  1.
         -5    1    1    2    0  501  0.27517436320E+02 -0.21169443409E+01 -0.10780503004E+02  0.30000000000E+02  0.47000000000E+01 0. -1.
</event>
<event>
 4    1  0.7503339E-002  0.6000000E+02  0.7546771E-02  0.1259629E+00
         11   -1    0    0    0    0  0.00000000000E+00  0.00000000000E+00  0.30000000000E+02  0.30000000000E+02  0.00000000000E+00 0.  1.
        -11   -1    0    0    0    0 -0.00000000000E+00 -0.00000000000E+00 -0.30000000000E+02  0.30000000000E+02  0.00000000000E+00 0. -1.
          5    1    1    2  501    0 -0.25040259182E+02  0.15719643252E+02 -0.19463391606E+01  0.30000000000E+02  0.47000000000E+01 0. -1.
         -5    1    1    2    0  501  0.25040259182E+02 -0.15719643252E+02  0.19463391606E+01  0.30000000000E+02  0.47000000000E+01 0.  1.
</event>
<event>
 4    1  0.7503339E-002  0.6000000E+02  0.7546771E-02  0.1259629E+00
         11   -1    0    0    0    0  0.00000000000E+00  0.00000000000E+00  0.30000000000E+02  0.30000000000E+02  0.00000000000E+00 0.  1.
        -11   -1    0    0    0    0 -0.00000000000E+00 -0.00000000000E+00 -0.30000000000E+02  0.30000000000E+02  0.00000000000E+00 0. -1.
          5    1    1    2  501    0  0.51110662094E+00  0.22179849818E+01 -0.29541992361E+02  0.30000000000E+02  0.47000000000E+01 0. -1.
         -5    1    1    2    0  501 -0.51110662094E+00 -0.22179849818E+01  0.29541992361E+02  0.30000000000E+02  0.47000000000E+01 0.  1.
</event>
<event>
 4    1  0.7503339E-002  0.6000000E+02  0.7546771E-02  0.1259629E+00
         11   -1    0    0    0    0  0.00000000000E+00  0.00000000000E+00  0.30000000000E+02  0.30000000000E+02  0.00000000000E+00 0.  1.
        -11   -1    0    0    0    0 -0.00000000000E+00 -0.00000000000E+00 -0.30000000000E+02  0.30000000000E+02  0.00000000000E+00 0. -1.
          5    1    1    2  501    0  0.19983187333E+02 -0.65633156392E+01 -0.20868759231E+02  0.30000000000E+02  0.47000000000E+01 0. -1.
         -5    1    1    2    0  501 -0.19983187333E+02  0.65633156392E+01  0.20868759231E+02  0.30000000000E+02  0.47000000000E+01 0.  1.
</event>
<event>
 4    1  0.7503339E-002  0.6000000E+02  0.7546771E-02  0.1259629E+00
         11   -1    0    0    0    0  0.00000000000E+00  0.00000000000E+00  0.30000000000E+02  0.30000000000E+02  0.00000000000E+00 0. -1.
        -11   -1    0    0    0    0 -0.00000000000E+00 -0.00000000000E+00 -0.30000000000E+02  0.30000000000E+02  0.00000000000E+00 0.  1.
          5    1    1    2  501    0  0.83713952458E+01  0.22563186172E+02 -0.17283876053E+02  0.30000000000E+02  0.47000000000E+01 0.  1.
         -5    1    1    2    0  501 -0.83713952458E+01 -0.22563186172E+02  0.17283876053E+02  0.30000000000E+02  0.47000000000E+01 0. -1.
</event>
<event>
 4    1  0.7503339E-002  0.6000000E+02  0.7546771E-02  0.1259629E+00
         11   -1    0    0    0    0  0.00000000000E+00  0.00000000000E+00  0.30000000000E+02  0.30000000000E+02  0.00000000000E+00 0. -1.
        -11   -1    0    0    0    0 -0.00000000000E+00 -0.00000000000E+00 -0.30000000000E+02  0.30000000000E+02  0.00000000000E+00 0.  1.
          5    1    1    2  501    0  0.10883722480E+02 -0.18232957271E+02 -0.20664313541E+02  0.30000000000E+02  0.47000000000E+01 0.  1.
         -5    1    1    2    0  501 -0.10883722480E+02  0.18232957271E+02  0.20664313541E+02  0.30000000000E+02  0.47000000000E+01 0. -1.
</event>
<event>
 4    1  0.7503339E-002  0.6000000E+02  0.7546771E-02  0.1259629E+00
         11   -1    0    0    0    0  0.00000000000E+00  0.00000000000E+00  0.30000000000E+02  0.30000000000E+02  0.00000000000E+00 0. -1.
        -11   -1    0    0    0    0 -0.00000000000E+00 -0.00000000000E+00 -0.30000000000E+02  0.30000000000E+02  0.00000000000E+00 0.  1.
          5    1    1    2  501    0 -0.16922428862E+02 -0.15858949262E+02  0.18440041478E+02  0.30000000000E+02  0.47000000000E+01 0. -1.
         -5    1    1    2    0  501  0.16922428862E+02  0.15858949262E+02 -0.18440041478E+02  0.30000000000E+02  0.47000000000E+01 0.  1.
</event>
<event>
 4    1  0.7503339E-002  0.6000000E+02  0.7546771E-02  0.1259629E+00
         11   -1    0    0    0    0  0.00000000000E+00  0.00000000000E+00  0.30000000000E+02  0.30000000000E+02  0.00000000000E+00 0.  1.
        -11   -1    0    0    0    0 -0.00000000000E+00 -0.00000000000E+00 -0.30000000000E+02  0.30000000000E+02  0.00000000000E+00 0. -1.
          5    1    1    2  501    0 -0.15066618204E+01  0.18635019241E+02 -0.22986431390E+02  0.30000000000E+02  0.47000000000E+01 0. -1.
         -5    1    1    2    0  501  0.15066618204E+01 -0.18635019241E+02  0.22986431390E+02  0.30000000000E+02  0.47000000000E+01 0.  1.
</event>
<event>
 4    1  0.7503339E-002  0.6000000E+02  0.7546771E-02  0.1259629E+00
         11   -1    0    0    0    0  0.00000000000E+00  0.00000000000E+00  0.30000000000E+02  0.30000000000E+02  0.00000000000E+00 0.  1.
        -11   -1    0    0    0    0 -0.00000000000E+00 -0.00000000000E+00 -0.30000000000E+02  0.30000000000E+02  0.00000000000E+00 0. -1.
          5    1    1    2  501    0  0.93852503204E+01 -0.12712485702E+02  0.25064312951E+02  0.30000000000E+02  0.47000000000E+01 0.  1.
         -5    1    1    2    0  501 -0.93852503204E+01  0.12712485702E+02 -0.25064312951E+02  0.30000000000E+02  0.47000000000E+01 0. -1.
</event>
<event>
 4    1  0.7503339E-002  0.6000000E+02  0.7546771E-02  0.1259629E+00
         11   -1    0    0    0    0  0.00000000000E+00  0.00000000000E+00  0.30000000000E+02  0.30000000000E+02  0.00000000000E+00 0. -1.
        -11   -1    0    0    0    0 -0.00000000000E+00 -0.00000000000E+00 -0.30000000000E+02  0.30000000000E+02  0.00000000000E+00 0.  1.
          5    1    1    2  501    0  0.16847358703E+02 -0.11761684753E+02  0.21348050883E+02  0.30000000000E+02  0.47000000000E+01 0. -1.
         -5    1    1    2    0  501 -0.16847358703E+02  0.11761684753E+02 -0.21348050883E+02  0.30000000000E+02  0.47000000000E+01 0.  1.
</event>
<event>
 4    1  0.7503339E-002  0.6000000E+02  0.7546771E-02  0.1259629E+00
         11   -1    0    0    0    0  0.00000000000E+00  0.00000000000E+00  0.30000000000E+02  0.30000000000E+02  0.00000000000E+00 0.  1.
        -11   -1    0    0    0    0 -0.00000000000E+00 -0.00000000000E+00 -0.30000000000E+02  0.30000000000E+02  0.00000000000E+00 0. -1.
          5    1    1    2  501    0 -0.93253682879E+01  0.95439387522E+01  0.26454881202E+02  0.30000000000E+02  0.47000000000E+01 0.  1.
         -5    1    1    2    0  501  0.93253682879E+01 -0.95439387522E+01 -0.26454881202E+02  0.30000000000E+02  0.47000000000E+01 0. -1.
</event>
<event>
 4    1  0.7503339E-002  0.6000000E+02  0.7546771E-02  0.1259629E+00
         11   -1    0    0    0    0  0.00000000000E+00  0.00000000000E+00  0.30000000000E+02  0.30000000000E+02  0.00000000000E+00 0.  1.
        -11   -1    0    0    0    0 -0.00000000000E+00 -0.00000000000E+00 -0.30000000000E+02  0.30000000000E+02  0.00000000000E+00 0. -1.
          5    1    1    2  501    0  0.23537355121E+02 -0.86744072889E-01 -0.17997093915E+02  0.30000000000E+02  0.47000000000E+01 0. -1.
         -5    1    1    2    0  501 -0.23537355121E+02  0.86744072889E-01  0.17997093915E+02  0.30000000000E+02  0.47000000000E+01 0.  1.
</event>
<event>
 4    1  0.7503339E-002  0.6000000E+02  0.7546771E-02  0.1259629E+00
         11   -1    0    0    0    0  0.00000000000E+00  0.00000000000E+00  0.30000000000E+02  0.30000000000E+02  0.00000000000E+00 0.  1.
        -11   -1    0    0    0    0 -0.00000000000E+00 -0.00000000000E+00 -0.30000000000E+02  0.30000000000E+02  0.00000000000E+00 0. -1.
          5    1    1    2  501    0 -0.16691479050E+02 -0.99952721439E+01  0.22347238350E+02  0.30000000000E+02  0.47000000000E+01 0.  1.
         -5    1    1    2    0  501  0.16691479050E+02  0.99952721439E+01 -0.22347238350E+02  0.30000000000E+02  0.47000000000E+01 0. -1.
</event>
<event>
 4    1  0.7503339E-002  0.6000000E+02  0.7546771E-02  0.1259629E+00
         11   -1    0    0    0    0  0.00000000000E+00  0.00000000000E+00  0.30000000000E+02  0.30000000000E+02  0.00000000000E+00 0.  1.
        -11   -1    0    0    0    0 -0.00000000000E+00 -0.00000000000E+00 -0.30000000000E+02  0.30000000000E+02  0.00000000000E+00 0. -1.
          5    1    1    2  501    0 -0.65136188219E+01  0.18024886724E+02 -0.22596155169E+02  0.30000000000E+02  0.47000000000E+01 0. -1.
         -5    1    1    2    0  501  0.65136188219E+01 -0.18024886724E+02  0.22596155169E+02  0.30000000000E+02  0.47000000000E+01 0.  1.
</event>
<event>
 4    1  0.7503339E-002  0.6000000E+02  0.7546771E-02  0.1259629E+00
         11   -1    0    0    0    0  0.00000000000E+00  0.00000000000E+00  0.30000000000E+02  0.30000000000E+02  0.00000000000E+00 0.  1.
        -11   -1    0    0    0    0 -0.00000000000E+00 -0.00000000000E+00 -0.30000000000E+02  0.30000000000E+02  0.00000000000E+00 0. -1.
          5    1    1    2  501    0 -0.24885423287E+02 -0.16080662393E+02  0.19494832296E+00  0.30000000000E+02  0.47000000000E+01 0. -1.
         -5    1    1    2    0  501  0.24885423287E+02  0.16080662393E+02 -0.19494832296E+00  0.30000000000E+02  0.47000000000E+01 0.  1.
</event>
<event>
 4    1  0.7503339E-002  0.6000000E+02  0.7546771E-02  0.1259629E+00
         11   -1    0    0    0    0  0.00000000000E+00  0.00000000000E+00  0.30000000000E+02  0.30000000000E+02  0.00000000000E+00 0.  1.
        -11   -1    0    0    0    0 -0.00000000000E+00 -0.00000000000E+00 -0.30000000000E+02  0.30000000000E+02  0.00000000000E+00 0. -1.
          5    1    1    2  501    0  0.29014408324E+02 -0.63922671322E-01 -0.60058324566E+01  0.30000000000E+02  0.47000000000E+01 0.  1.
         -5    1    1    2    0  501 -0.29014408324E+02  0.63922671322E-01  0.60058324566E+01  0.30000000000E+02  0.47000000000E+01 0. -1.
</event>
<event>
 4    1  0.7503339E-002  0.6000000E+02  0.7546771E-02  0.1259629E+00
         11   -1    0    0    0    0  0.00000000000E+00  0.00000000000E+00  0.30000000000E+02  0.30000000000E+02  0.00000000000E+00 0.  1.
        -11   -1    0    0    0    0 -0.00000000000E+00 -0.00000000000E+00 -0.30000000000E+02  0.30000000000E+02  0.00000000000E+00 0. -1.
          5    1    1    2  501    0  0.45925311030E+01 -0.10094536815E+02 -0.27475789062E+02  0.30000000000E+02  0.47000000000E+01 0. -1.
         -5    1    1    2    0  501 -0.45925311030E+01  0.10094536815E+02  0.27475789062E+02  0.30000000000E+02  0.47000000000E+01 0.  1.
</event>
<event>
 4    1  0.7503339E-002  0.6000000E+02  0.7546771E-02  0.1259629E+00
         11   -1    0    0    0    0  0.00000000000E+00  0.00000000000E+00  0.30000000000E+02  0.30000000000E+02  0.00000000000E+00 0.  1.
        -11   -1    0    0    0    0 -0.00000000000E+00 -0.00000000000E+00 -0.30000000000E+02  0.30000000000E+02  0.00000000000E+00 0. -1.
          5    1    1    2  501    0  0.26548868905E+02 -0.10729885893E+02 -0.76116429610E+01  0.30000000000E+02  0.47000000000E+01 0. -1.
         -5    1    1    2    0  501 -0.26548868905E+02  0.10729885893E+02  0.76116429610E+01  0.30000000000E+02  0.47000000000E+01 0.  1.
</event>
<event>
 4    1  0.7503339E-002  0.6000000E+02  0.7546771E-02  0.1259629E+00
         11   -1    0    0    0    0  0.00000000000E+00  0.00000000000E+00  0.30000000000E+02  0.30000000000E+02  0.00000000000E+00 0.  1.
        -11   -1    0    0    0    0 -0.00000000000E+00 -0.00000000000E+00 -0.30000000000E+02  0.30000000000E+02  0.00000000000E+00 0. -1.
          5    1    1    2  501    0 -0.14096140558E+02 -0.21158114479E+02 -0.15216537487E+02  0.30000000000E+02  0.47000000000E+01 0. -1.
         -5    1    1    2    0  501  0.14096140558E+02  0.21158114479E+02  0.15216537487E+02  0.30000000000E+02  0.47000000000E+01 0.  1.
</event>
<event>
 4    1  0.7503339E-002  0.6000000E+02  0.7546771E-02  0.1259629E+00
         11   -1    0    0    0    0  0.00000000000E+00  0.00000000000E+00  0.30000000000E+02  0.30000000000E+02  0.00000000000E+00 0.  1.
        -11   -1    0    0    0    0 -0.00000000000E+00 -0.00000000000E+00 -0.30000000000E+02  0.30000000000E+02  0.00000000000E+00 0. -1.
          5    1    1    2  501    0  0.58489985766E+01 -0.22571134060E+02 -0.18282317219E+02  0.30000000000E+02  0.47000000000E+01 0. -1.
         -5    1    1    2    0  501 -0.58489985766E+01  0.22571134060E+02  0.18282317219E+02  0.30000000000E+02  0.47000000000E+01 0.  1.
</event>
<event>
 4    1  0.7503339E-002  0.6000000E+02  0.7546771E-02  0.1259629E+00
         11   -1    0    0    0    0  0.00000000000E+00  0.00000000000E+00  0.30000000000E+02  0.30000000000E+02  0.00000000000E+00 0.  1.
        -11   -1    0    0    0    0 -0.00000000000E+00 -0.00000000000E+00 -0.30000000000E+02  0.30000000000E+02  0.00000000000E+00 0. -1.
          5    1    1    2  501    0  0.53397143131E+01 -0.21566254694E+02 -0.19603420863E+02  0.30000000000E+02  0.47000000000E+01 0. -1.
         -5    1    1    2    0  501 -0.53397143131E+01  0.21566254694E+02  0.19603420863E+02  0.30000000000E+02  0.47000000000E+01 0.  1.
</event>
<event>
 4    1  0.7503339E-002  0.6000000E+02  0.7546771E-02  0.1259629E+00
         11   -1    0    0    0    0  0.00000000000E+00  0.00000000000E+00  0.30000000000E+02  0.30000000000E+02  0.00000000000E+00 0.  1.
        -11   -1    0    0    0    0 -0.00000000000E+00 -0.00000000000E+00 -0.30000000000E+02  0.30000000000E+02  0.00000000000E+00 0. -1.
          5    1    1    2  501    0 -0.11242347313E+02 -0.23499518728E+02  0.14117090579E+02  0.30000000000E+02  0.47000000000E+01 0. -1.
         -5    1    1    2    0  501  0.11242347313E+02  0.23499518728E+02 -0.14117090579E+02  0.30000000000E+02  0.47000000000E+01 0.  1.
</event>
<event>
 4    1  0.7503339E-002  0.6000000E+02  0.7546771E-02  0.1259629E+00
         11   -1    0    0    0    0  0.00000000000E+00  0.00000000000E+00  0.30000000000E+02  0.30000000000E+02  0.00000000000E+00 0.  1.
        -11   -1    0    0    0    0 -0.00000000000E+00 -0.00000000000E+00 -0.30000000000E+02  0.30000000000E+02  0.00000000000E+00 0. -1.
          5    1    1    2  501    0  0.24447866101E+02  0.13101836188E+02  0.10418912208E+02  0.30000000000E+02  0.47000000000E+01 0.  1.
         -5    1    1    2    0  501 -0.24447866101E+02 -0.13101836188E+02 -0.10418912208E+02  0.30000000000E+02  0.47000000000E+01 0. -1.
</event>
<event>
 4    1  0.7503339E-002  0.6000000E+02  0.7546771E-02  0.1259629E+00
         11   -1    0    0    0    0  0.00000000000E+00  0.00000000000E+00  0.30000000000E+02  0.30000000000E+02  0.00000000000E+00 0. -1.
        -11   -1    0    0    0    0 -0.00000000000E+00 -0.00000000000E+00 -0.30000000000E+02  0.30000000000E+02  0.00000000000E+00 0.  1.
          5    1    1    2  501    0 -0.10769201203E+02  0.23691309120E+02 -0.14165316008E+02  0.30000000000E+02  0.47000000000E+01 0.  1.
         -5    1    1    2    0  501  0.10769201203E+02 -0.23691309120E+02  0.14165316008E+02  0.30000000000E+02  0.47000000000E+01 0. -1.
</event>
<event>
 4    1  0.7503339E-002  0.6000000E+02  0.7546771E-02  0.1259629E+00
         11   -1    0    0    0    0  0.00000000000E+00  0.00000000000E+00  0.30000000000E+02  0.30000000000E+02  0.00000000000E+00 0. -1.
        -11   -1    0    0    0    0 -0.00000000000E+00 -0.00000000000E+00 -0.30000000000E+02  0.30000000000E+02  0.00000000000E+00 0.  1.
          5    1    1    2  501    0  0.20800108611E+02 -0.20939451923E+02  0.26086078579E+01  0.30000000000E+02  0.47000000000E+01 0. -1.
         -5    1    1    2    0  501 -0.20800108611E+02  0.20939451923E+02 -0.26086078579E+01  0.30000000000E+02  0.47000000000E+01 0.  1.
</event>
<event>
 4    1  0.7503339E-002  0.6000000E+02  0.7546771E-02  0.1259629E+00
         11   -1    0    0    0    0  0.00000000000E+00  0.00000000000E+00  0.30000000000E+02  0.30000000000E+02  0.00000000000E+00 0.  1.
        -11   -1    0    0    0    0 -0.00000000000E+00 -0.00000000000E+00 -0.30000000000E+02  0.30000000000E+02  0.00000000000E+00 0. -1.
          5    1    1    2  501    0  0.27290749791E+02  0.82051966734E+00 -0.11508767238E+02  0.30000000000E+02  0.47000000000E+01 0. -1.
         -5    1    1    2    0  501 -0.27290749791E+02 -0.82051966734E+00  0.11508767238E+02  0.30000000000E+02  0.47000000000E+01 0.  1.
</event>
<event>
 4    1  0.7503339E-002  0.6000000E+02  0.7546771E-02  0.1259629E+00
         11   -1    0    0    0    0  0.00000000000E+00  0.00000000000E+00  0.30000000000E+02  0.30000000000E+02  0.00000000000E+00 0.  1.
        -11   -1    0    0    0    0 -0.00000000000E+00 -0.00000000000E+00 -0.30000000000E+02  0.30000000000E+02  0.00000000000E+00 0. -1.
          5    1    1    2  501    0  0.64621384398E+01 -0.10406975210E+02 -0.26978614378E+02  0.30000000000E+02  0.47000000000E+01 0. -1.
         -5    1    1    2    0  501 -0.64621384398E+01  0.10406975210E+02  0.26978614378E+02  0.30000000000E+02  0.47000000000E+01 0.  1.
</event>
<event>
 4    1  0.7503339E-002  0.6000000E+02  0.7546771E-02  0.1259629E+00
         11   -1    0    0    0    0  0.00000000000E+00  0.00000000000E+00  0.30000000000E+02  0.30000000000E+02  0.00000000000E+00 0.  1.
        -11   -1    0    0    0    0 -0.00000000000E+00 -0.00000000000E+00 -0.30000000000E+02  0.30000000000E+02  0.00000000000E+00 0. -1.
          5    1    1    2  501    0  0.19542397941E+02 -0.22147271721E+02  0.23458554978E+01  0.30000000000E+02  0.47000000000E+01 0. -1.
         -5    1    1    2    0  501 -0.19542397941E+02  0.22147271721E+02 -0.23458554978E+01  0.30000000000E+02  0.47000000000E+01 0.  1.
</event>
<event>
 4    1  0.7503339E-002  0.6000000E+02  0.7546771E-02  0.1259629E+00
         11   -1    0    0    0    0  0.00000000000E+00  0.00000000000E+00  0.30000000000E+02  0.30000000000E+02  0.00000000000E+00 0.  1.
        -11   -1    0    0    0    0 -0.00000000000E+00 -0.00000000000E+00 -0.30000000000E+02  0.30000000000E+02  0.00000000000E+00 0. -1.
          5    1    1    2  501    0 -0.19062493119E+02 -0.16808237222E+02 -0.15232022768E+02  0.30000000000E+02  0.47000000000E+01 0. -1.
         -5    1    1    2    0  501  0.19062493119E+02  0.16808237222E+02  0.15232022768E+02  0.30000000000E+02  0.47000000000E+01 0.  1.
</event>
<event>
 4    1  0.7503339E-002  0.6000000E+02  0.7546771E-02  0.1259629E+00
         11   -1    0    0    0    0  0.00000000000E+00  0.00000000000E+00  0.30000000000E+02  0.30000000000E+02  0.00000000000E+00 0.  1.
        -11   -1    0    0    0    0 -0.00000000000E+00 -0.00000000000E+00 -0.30000000000E+02  0.30000000000E+02  0.00000000000E+00 0. -1.
          5    1    1    2  501    0  0.12668837233E+02 -0.74726664282E+01 -0.25720999584E+02  0.30000000000E+02  0.47000000000E+01 0. -1.
         -5    1    1    2    0  501 -0.12668837233E+02  0.74726664282E+01  0.25720999584E+02  0.30000000000E+02  0.47000000000E+01 0.  1.
</event>
<event>
 4    1  0.7503339E-002  0.6000000E+02  0.7546771E-02  0.1259629E+00
         11   -1    0    0    0    0  0.00000000000E+00  0.00000000000E+00  0.30000000000E+02  0.30000000000E+02  0.00000000000E+00 0.  1.
        -11   -1    0    0    0    0 -0.00000000000E+00 -0.00000000000E+00 -0.30000000000E+02  0.30000000000E+02  0.00000000000E+00 0. -1.
          5    1    1    2  501    0  0.31050288538E+01  0.36848419906E+01 -0.29235094242E+02  0.30000000000E+02  0.47000000000E+01 0. -1.
         -5    1    1    2    0  501 -0.31050288538E+01 -0.36848419906E+01  0.29235094242E+02  0.30000000000E+02  0.47000000000E+01 0.  1.
</event>
<event>
 4    1  0.7503339E-002  0.6000000E+02  0.7546771E-02  0.1259629E+00
         11   -1    0    0    0    0  0.00000000000E+00  0.00000000000E+00  0.30000000000E+02  0.30000000000E+02  0.00000000000E+00 0. -1.
        -11   -1    0    0    0    0 -0.00000000000E+00 -0.00000000000E+00 -0.30000000000E+02  0.30000000000E+02  0.00000000000E+00 0.  1.
          5    1    1    2  501    0 -0.42999480838E+01 -0.15914282354E+02 -0.24620236872E+02  0.30000000000E+02  0.47000000000E+01 0.  1.
         -5    1    1    2    0  501  0.42999480838E+01  0.15914282354E+02  0.24620236872E+02  0.30000000000E+02  0.47000000000E+01 0. -1.
</event>
<event>
 4    1  0.7503339E-002  0.6000000E+02  0.7546771E-02  0.1259629E+00
         11   -1    0    0    0    0  0.00000000000E+00  0.00000000000E+00  0.30000000000E+02  0.30000000000E+02  0.00000000000E+00 0. -1.
        -11   -1    0    0    0    0 -0.00000000000E+00 -0.00000000000E+00 -0.30000000000E+02  0.30000000000E+02  0.00000000000E+00 0.  1.
          5    1    1    2  501    0 -0.14097095093E+02 -0.21164970868E+02 -0.15206114497E+02  0.30000000000E+02  0.47000000000E+01 0.  1.
         -5    1    1    2    0  501  0.14097095093E+02  0.21164970868E+02  0.15206114497E+02  0.30000000000E+02  0.47000000000E+01 0. -1.
</event>
<event>
 4    1  0.7503339E-002  0.6000000E+02  0.7546771E-02  0.1259629E+00
         11   -1    0    0    0    0  0.00000000000E+00  0.00000000000E+00  0.30000000000E+02  0.30000000000E+02  0.00000000000E+00 0.  1.
        -11   -1    0    0    0    0 -0.00000000000E+00 -0.00000000000E+00 -0.30000000000E+02  0.30000000000E+02  0.00000000000E+00 0. -1.
          5    1    1    2  501    0 -0.16362387610E+02  0.23994187337E+02 -0.58703701522E+01  0.30000000000E+02  0.47000000000E+01 0. -1.
         -5    1    1    2    0  501  0.16362387610E+02 -0.23994187337E+02  0.58703701522E+01  0.30000000000E+02  0.47000000000E+01 0.  1.
</event>
<event>
 4    1  0.7503339E-002  0.6000000E+02  0.7546771E-02  0.1259629E+00
         11   -1    0    0    0    0  0.00000000000E+00  0.00000000000E+00  0.30000000000E+02  0.30000000000E+02  0.00000000000E+00 0.  1.
        -11   -1    0    0    0    0 -0.00000000000E+00 -0.00000000000E+00 -0.30000000000E+02  0.30000000000E+02  0.00000000000E+00 0. -1.
          5    1    1    2  501    0 -0.11694469128E+01  0.13715803362E+02 -0.26237742511E+02  0.30000000000E+02  0.47000000000E+01 0. -1.
         -5    1    1    2    0  501  0.11694469128E+01 -0.13715803362E+02  0.26237742511E+02  0.30000000000E+02  0.47000000000E+01 0.  1.
</event>
<event>
 4    1  0.7503339E-002  0.6000000E+02  0.7546771E-02  0.1259629E+00
         11   -1    0    0    0    0  0.00000000000E+00  0.00000000000E+00  0.30000000000E+02  0.30000000000E+02  0.00000000000E+00 0. -1.
        -11   -1    0    0    0    0 -0.00000000000E+00 -0.00000000000E+00 -0.30000000000E+02  0.30000000000E+02  0.00000000000E+00 0.  1.
          5    1    1    2  501    0 -0.11438404971E+02 -0.13995087520E+02 -0.23477870794E+02  0.30000000000E+02  0.47000000000E+01 0.  1.
         -5    1    1    2    0  501  0.11438404971E+02  0.13995087520E+02  0.23477870794E+02  0.30000000000E+02  0.47000000000E+01 0. -1.
</event>
<event>
 4    1  0.7503339E-002  0.6000000E+02  0.7546771E-02  0.1259629E+00
         11   -1    0    0    0    0  0.00000000000E+00  0.00000000000E+00  0.30000000000E+02  0.30000000000E+02  0.00000000000E+00 0.  1.
        -11   -1    0    0    0    0 -0.00000000000E+00 -0.00000000000E+00 -0.30000000000E+02  0.30000000000E+02  0.00000000000E+00 0. -1.
          5    1    1    2  501    0 -0.21447696475E+02 -0.18956241832E+02  0.76529217643E+01  0.30000000000E+02  0.47000000000E+01 0.  1.
         -5    1    1    2    0  501  0.21447696475E+02  0.18956241832E+02 -0.76529217643E+01  0.30000000000E+02  0.47000000000E+01 0. -1.
</event>
<event>
 4    1  0.7503339E-002  0.6000000E+02  0.7546771E-02  0.1259629E+00
         11   -1    0    0    0    0  0.00000000000E+00  0.00000000000E+00  0.30000000000E+02  0.30000000000E+02  0.00000000000E+00 0.  1.
        -11   -1    0    0    0    0 -0.00000000000E+00 -0.00000000000E+00 -0.30000000000E+02  0.30000000000E+02  0.00000000000E+00 0. -1.
          5    1    1    2  501    0 -0.25377568600E+02 -0.14684449922E+02  0.42726973247E+01  0.30000000000E+02  0.47000000000E+01 0.  1.
         -5    1    1    2    0  501  0.25377568600E+02  0.14684449922E+02 -0.42726973247E+01  0.30000000000E+02  0.47000000000E+01 0. -1.
</event>
<event>
 4    1  0.7503339E-002  0.6000000E+02  0.7546771E-02  0.1259629E+00
         11   -1    0    0    0    0  0.00000000000E+00  0.00000000000E+00  0.30000000000E+02  0.30000000000E+02  0.00000000000E+00 0.  1.
        -11   -1    0    0    0    0 -0.00000000000E+00 -0.00000000000E+00 -0.30000000000E+02  0.30000000000E+02  0.00000000000E+00 0. -1.
          5    1    1    2  501    0  0.18976375134E+02  0.15266962429E+02 -0.16873856848E+02  0.30000000000E+02  0.47000000000E+01 0. -1.
         -5    1    1    2    0  501 -0.18976375134E+02 -0.15266962429E+02  0.16873856848E+02  0.30000000000E+02  0.47000000000E+01 0.  1.
</event>
<event>
 4    1  0.7503339E-002  0.6000000E+02  0.7546771E-02  0.1259629E+00
         11   -1    0    0    0    0  0.00000000000E+00  0.00000000000E+00  0.30000000000E+02  0.30000000000E+02  0.00000000000E+00 0.  1.
        -11   -1    0    0    0    0 -0.00000000000E+00 -0.00000000000E+00 -0.30000000000E+02  0.30000000000E+02  0.00000000000E+00 0. -1.
          5    1    1    2  501    0 -0.12462717103E+02  0.19353407220E+02 -0.18655731328E+02  0.30000000000E+02  0.47000000000E+01 0. -1.
         -5    1    1    2    0  501  0.12462717103E+02 -0.19353407220E+02  0.18655731328E+02  0.30000000000E+02  0.47000000000E+01 0.  1.
</event>
<event>
 4    1  0.7503339E-002  0.6000000E+02  0.7546771E-02  0.1259629E+00
         11   -1    0    0    0    0  0.00000000000E+00  0.00000000000E+00  0.30000000000E+02  0.30000000000E+02  0.00000000000E+00 0. -1.
        -11   -1    0    0    0    0 -0.00000000000E+00 -0.00000000000E+00 -0.30000000000E+02  0.30000000000E+02  0.00000000000E+00 0.  1.
          5    1    1    2  501    0 -0.13343573237E+02 -0.46392925264E+01 -0.26044884683E+02  0.30000000000E+02  0.47000000000E+01 0.  1.
         -5    1    1    2    0  501  0.13343573237E+02  0.46392925264E+01  0.26044884683E+02  0.30000000000E+02  0.47000000000E+01 0. -1.
</event>
<event>
 4    1  0.7503339E-002  0.6000000E+02  0.7546771E-02  0.1259629E+00
         11   -1    0    0    0    0  0.00000000000E+00  0.00000000000E+00  0.30000000000E+02  0.30000000000E+02  0.00000000000E+00 0.  1.
        -11   -1    0    0    0    0 -0.00000000000E+00 -0.00000000000E+00 -0.30000000000E+02  0.30000000000E+02  0.00000000000E+00 0. -1.
          5    1    1    2  501    0 -0.63202734322E+01 -0.83127387650E+01 -0.27728370272E+02  0.30000000000E+02  0.47000000000E+01 0. -1.
         -5    1    1    2    0  501  0.63202734322E+01  0.83127387650E+01  0.27728370272E+02  0.30000000000E+02  0.47000000000E+01 0.  1.
</event>
<event>
 4    1  0.7503339E-002  0.6000000E+02  0.7546771E-02  0.1259629E+00
         11   -1    0    0    0    0  0.00000000000E+00  0.00000000000E+00  0.30000000000E+02  0.30000000000E+02  0.00000000000E+00 0.  1.
        -11   -1    0    0    0    0 -0.00000000000E+00 -0.00000000000E+00 -0.30000000000E+02  0.30000000000E+02  0.00000000000E+00 0. -1.
          5    1    1    2  501    0  0.55693258209E+01  0.21271365330E+02 -0.19860051029E+02  0.30000000000E+02  0.47000000000E+01 0. -1.
         -5    1    1    2    0  501 -0.55693258209E+01 -0.21271365330E+02  0.19860051029E+02  0.30000000000E+02  0.47000000000E+01 0.  1.
</event>
<event>
 4    1  0.7503339E-002  0.6000000E+02  0.7546771E-02  0.1259629E+00
         11   -1    0    0    0    0  0.00000000000E+00  0.00000000000E+00  0.30000000000E+02  0.30000000000E+02  0.00000000000E+00 0.  1.
        -11   -1    0    0    0    0 -0.00000000000E+00 -0.00000000000E+00 -0.30000000000E+02  0.30000000000E+02  0.00000000000E+00 0. -1.
          5    1    1    2  501    0 -0.93831078498E+01 -0.18307853783E+02 -0.21323456027E+02  0.30000000000E+02  0.47000000000E+01 0. -1.
         -5    1    1    2    0  501  0.93831078498E+01  0.18307853783E+02  0.21323456027E+02  0.30000000000E+02  0.47000000000E+01 0.  1.
</event>
<event>
 4    1  0.7503339E-002  0.6000000E+02  0.7546771E-02  0.1259629E+00
         11   -1    0    0    0    0  0.00000000000E+00  0.00000000000E+00  0.30000000000E+02  0.30000000000E+02  0.00000000000E+00 0.  1.
        -11   -1    0    0    0    0 -0.00000000000E+00 -0.00000000000E+00 -0.30000000000E+02  0.30000000000E+02  0.00000000000E+00 0. -1.
          5    1    1    2  501    0 -0.28053248039E+02  0.85523822208E+01 -0.42168747711E+01  0.30000000000E+02  0.47000000000E+01 0. -1.
         -5    1    1    2    0  501  0.28053248039E+02 -0.85523822208E+01  0.42168747711E+01  0.30000000000E+02  0.47000000000E+01 0.  1.
</event>
<event>
 4    1  0.7503339E-002  0.6000000E+02  0.7546771E-02  0.1259629E+00
         11   -1    0    0    0    0  0.00000000000E+00  0.00000000000E+00  0.30000000000E+02  0.30000000000E+02  0.00000000000E+00 0.  1.
        -11   -1    0    0    0    0 -0.00000000000E+00 -0.00000000000E+00 -0.30000000000E+02  0.30000000000E+02  0.00000000000E+00 0. -1.
          5    1    1    2  501    0 -0.15092741289E+02 -0.18787285457E+02 -0.17238244271E+02  0.30000000000E+02  0.47000000000E+01 0. -1.
         -5    1    1    2    0  501  0.15092741289E+02  0.18787285457E+02  0.17238244271E+02  0.30000000000E+02  0.47000000000E+01 0.  1.
</event>
<event>
 4    1  0.7503339E-002  0.6000000E+02  0.7546771E-02  0.1259629E+00
         11   -1    0    0    0    0  0.00000000000E+00  0.00000000000E+00  0.30000000000E+02  0.30000000000E+02  0.00000000000E+00 0.  1.
        -11   -1    0    0    0    0 -0.00000000000E+00 -0.00000000000E+00 -0.30000000000E+02  0.30000000000E+02  0.00000000000E+00 0. -1.
          5    1    1    2  501    0  0.21263879847E+02 -0.16054689503E+01  0.20571336449E+02  0.30000000000E+02  0.47000000000E+01 0.  1.
         -5    1    1    2    0  501 -0.21263879847E+02  0.16054689503E+01 -0.20571336449E+02  0.30000000000E+02  0.47000000000E+01 0. -1.
</event>
<event>
 4    1  0.7503339E-002  0.6000000E+02  0.7546771E-02  0.1259629E+00
         11   -1    0    0    0    0  0.00000000000E+00  0.00000000000E+00  0.30000000000E+02  0.30000000000E+02  0.00000000000E+00 0.  1.
        -11   -1    0    0    0    0 -0.00000000000E+00 -0.00000000000E+00 -0.30000000000E+02  0.30000000000E+02  0.00000000000E+00 0. -1.
          5    1    1    2  501    0 -0.97712053220E+00  0.28880976194E+02 -0.65455671669E+01  0.30000000000E+02  0.47000000000E+01 0. -1.
         -5    1    1    2    0  501  0.97712053220E+00 -0.28880976194E+02  0.65455671669E+01  0.30000000000E+02  0.47000000000E+01 0.  1.
</event>
<event>
 4    1  0.7503339E-002  0.6000000E+02  0.7546771E-02  0.1259629E+00
         11   -1    0    0    0    0  0.00000000000E+00  0.00000000000E+00  0.30000000000E+02  0.30000000000E+02  0.00000000000E+00 0.  1.
        -11   -1    0    0    0    0 -0.00000000000E+00 -0.00000000000E+00 -0.30000000000E+02  0.30000000000E+02  0.00000000000E+00 0. -1.
          5    1    1    2  501    0 -0.17999608274E+02  0.88739261349E+01 -0.21798567313E+02  0.30000000000E+02  0.47000000000E+01 0. -1.
         -5    1    1    2    0  501  0.17999608274E+02 -0.88739261349E+01  0.21798567313E+02  0.30000000000E+02  0.47000000000E+01 0.  1.
</event>
<event>
 4    1  0.7503339E-002  0.6000000E+02  0.7546771E-02  0.1259629E+00
         11   -1    0    0    0    0  0.00000000000E+00  0.00000000000E+00  0.30000000000E+02  0.30000000000E+02  0.00000000000E+00 0.  1.
        -11   -1    0    0    0    0 -0.00000000000E+00 -0.00000000000E+00 -0.30000000000E+02  0.30000000000E+02  0.00000000000E+00 0. -1.
          5    1    1    2  501    0 -0.73091489061E+01  0.21167628634E+02 -0.19401490671E+02  0.30000000000E+02  0.47000000000E+01 0. -1.
         -5    1    1    2    0  501  0.73091489061E+01 -0.21167628634E+02  0.19401490671E+02  0.30000000000E+02  0.47000000000E+01 0.  1.
</event>
<event>
 4    1  0.7503339E-002  0.6000000E+02  0.7546771E-02  0.1259629E+00
         11   -1    0    0    0    0  0.00000000000E+00  0.00000000000E+00  0.30000000000E+02  0.30000000000E+02  0.00000000000E+00 0.  1.
        -11   -1    0    0    0    0 -0.00000000000E+00 -0.00000000000E+00 -0.30000000000E+02  0.30000000000E+02  0.00000000000E+00 0. -1.
          5    1    1    2  501    0  0.26457913068E+01  0.29010993526E+02 -0.54103644025E+01  0.30000000000E+02  0.47000000000E+01 0. -1.
         -5    1    1    2    0  501 -0.26457913068E+01 -0.29010993526E+02  0.54103644025E+01  0.30000000000E+02  0.47000000000E+01 0.  1.
</event>
<event>
 4    1  0.7503339E-002  0.6000000E+02  0.7546771E-02  0.1259629E+00
         11   -1    0    0    0    0  0.00000000000E+00  0.00000000000E+00  0.30000000000E+02  0.30000000000E+02  0.00000000000E+00 0.  1.
        -11   -1    0    0    0    0 -0.00000000000E+00 -0.00000000000E+00 -0.30000000000E+02  0.30000000000E+02  0.00000000000E+00 0. -1.
          5    1    1    2  501    0  0.55841508127E+01 -0.58063056885E+01 -0.28513401655E+02  0.30000000000E+02  0.47000000000E+01 0. -1.
         -5    1    1    2    0  501 -0.55841508127E+01  0.58063056885E+01  0.28513401655E+02  0.30000000000E+02  0.47000000000E+01 0.  1.
</event>
<event>
 4    1  0.7503339E-002  0.6000000E+02  0.7546771E-02  0.1259629E+00
         11   -1    0    0    0    0  0.00000000000E+00  0.00000000000E+00  0.30000000000E+02  0.30000000000E+02  0.00000000000E+00 0.  1.
        -11   -1    0    0    0    0 -0.00000000000E+00 -0.00000000000E+00 -0.30000000000E+02  0.30000000000E+02  0.00000000000E+00 0. -1.
          5    1    1    2  501    0  0.29444302452E+00 -0.27623925309E+02 -0.10711771741E+02  0.30000000000E+02  0.47000000000E+01 0. -1.
         -5    1    1    2    0  501 -0.29444302452E+00  0.27623925309E+02  0.10711771741E+02  0.30000000000E+02  0.47000000000E+01 0.  1.
</event>
<event>
 4    1  0.7503339E-002  0.6000000E+02  0.7546771E-02  0.1259629E+00
         11   -1    0    0    0    0  0.00000000000E+00  0.00000000000E+00  0.30000000000E+02  0.30000000000E+02  0.00000000000E+00 0.  1.
        -11   -1    0    0    0    0 -0.00000000000E+00 -0.00000000000E+00 -0.30000000000E+02  0.30000000000E+02  0.00000000000E+00 0. -1.
          5    1    1    2  501    0 -0.97006516992E+01  0.18281051320E+02 -0.21204021299E+02  0.30000000000E+02  0.47000000000E+01 0. -1.
         -5    1    1    2    0  501  0.97006516992E+01 -0.18281051320E+02  0.21204021299E+02  0.30000000000E+02  0.47000000000E+01 0.  1.
</event>
<event>
 4    1  0.7503339E-002  0.6000000E+02  0.7546771E-02  0.1259629E+00
         11   -1    0    0    0    0  0.00000000000E+00  0.00000000000E+00  0.30000000000E+02  0.30000000000E+02  0.00000000000E+00 0.  1.
        -11   -1    0    0    0    0 -0.00000000000E+00 -0.00000000000E+00 -0.30000000000E+02  0.30000000000E+02  0.00000000000E+00 0. -1.
          5    1    1    2  501    0 -0.82788689508E+01 -0.20958986725E+02 -0.19237754660E+02  0.30000000000E+02  0.47000000000E+01 0. -1.
         -5    1    1    2    0  501  0.82788689508E+01  0.20958986725E+02  0.19237754660E+02  0.30000000000E+02  0.47000000000E+01 0.  1.
</event>
<event>
 4    1  0.7503339E-002  0.6000000E+02  0.7546771E-02  0.1259629E+00
         11   -1    0    0    0    0  0.00000000000E+00  0.00000000000E+00  0.30000000000E+02  0.30000000000E+02  0.00000000000E+00 0.  1.
        -11   -1    0    0    0    0 -0.00000000000E+00 -0.00000000000E+00 -0.30000000000E+02  0.30000000000E+02  0.00000000000E+00 0. -1.
          5    1    1    2  501    0 -0.32868581249E+01 -0.42554398010E+01 -0.29137566744E+02  0.30000000000E+02  0.47000000000E+01 0. -1.
         -5    1    1    2    0  501  0.32868581249E+01  0.42554398010E+01  0.29137566744E+02  0.30000000000E+02  0.47000000000E+01 0.  1.
</event>
<event>
 4    1  0.7503339E-002  0.6000000E+02  0.7546771E-02  0.1259629E+00
         11   -1    0    0    0    0  0.00000000000E+00  0.00000000000E+00  0.30000000000E+02  0.30000000000E+02  0.00000000000E+00 0.  1.
        -11   -1    0    0    0    0 -0.00000000000E+00 -0.00000000000E+00 -0.30000000000E+02  0.30000000000E+02  0.00000000000E+00 0. -1.
          5    1    1    2  501    0  0.21103976760E+01 -0.10339354669E+02 -0.27686711012E+02  0.30000000000E+02  0.47000000000E+01 0. -1.
         -5    1    1    2    0  501 -0.21103976760E+01  0.10339354669E+02  0.27686711012E+02  0.30000000000E+02  0.47000000000E+01 0.  1.
</event>
<event>
 4    1  0.7503339E-002  0.6000000E+02  0.7546771E-02  0.1259629E+00
         11   -1    0    0    0    0  0.00000000000E+00  0.00000000000E+00  0.30000000000E+02  0.30000000000E+02  0.00000000000E+00 0.  1.
        -11   -1    0    0    0    0 -0.00000000000E+00 -0.00000000000E+00 -0.30000000000E+02  0.30000000000E+02  0.00000000000E+00 0. -1.
          5    1    1    2  501    0 -0.15331963398E+02  0.23554601091E+02  0.93819862395E+01  0.30000000000E+02  0.47000000000E+01 0. -1.
         -5    1    1    2    0  501  0.15331963398E+02 -0.23554601091E+02 -0.93819862395E+01  0.30000000000E+02  0.47000000000E+01 0.  1.
</event>
<event>
 4    1  0.7503339E-002  0.6000000E+02  0.7546771E-02  0.1259629E+00
         11   -1    0    0    0    0  0.00000000000E+00  0.00000000000E+00  0.30000000000E+02  0.30000000000E+02  0.00000000000E+00 0.  1.
        -11   -1    0    0    0    0 -0.00000000000E+00 -0.00000000000E+00 -0.30000000000E+02  0.30000000000E+02  0.00000000000E+00 0. -1.
          5    1    1    2  501    0  0.11480724463E+02  0.13020937000E+02 -0.24011625631E+02  0.30000000000E+02  0.47000000000E+01 0. -1.
         -5    1    1    2    0  501 -0.11480724463E+02 -0.13020937000E+02  0.24011625631E+02  0.30000000000E+02  0.47000000000E+01 0.  1.
</event>
<event>
 4    1  0.7503339E-002  0.6000000E+02  0.7546771E-02  0.1259629E+00
         11   -1    0    0    0    0  0.00000000000E+00  0.00000000000E+00  0.30000000000E+02  0.30000000000E+02  0.00000000000E+00 0.  1.
        -11   -1    0    0    0    0 -0.00000000000E+00 -0.00000000000E+00 -0.30000000000E+02  0.30000000000E+02  0.00000000000E+00 0. -1.
          5    1    1    2  501    0 -0.65647484551E+01  0.25964991810E+02 -0.12674118432E+02  0.30000000000E+02  0.47000000000E+01 0. -1.
         -5    1    1    2    0  501  0.65647484551E+01 -0.25964991810E+02  0.12674118432E+02  0.30000000000E+02  0.47000000000E+01 0.  1.
</event>
<event>
 4    1  0.7503339E-002  0.6000000E+02  0.7546771E-02  0.1259629E+00
         11   -1    0    0    0    0  0.00000000000E+00  0.00000000000E+00  0.30000000000E+02  0.30000000000E+02  0.00000000000E+00 0.  1.
        -11   -1    0    0    0    0 -0.00000000000E+00 -0.00000000000E+00 -0.30000000000E+02  0.30000000000E+02  0.00000000000E+00 0. -1.
          5    1    1    2  501    0  0.18438274029E+01 -0.49881174704E+01 -0.29148395918E+02  0.30000000000E+02  0.47000000000E+01 0. -1.
         -5    1    1    2    0  501 -0.18438274029E+01  0.49881174704E+01  0.29148395918E+02  0.30000000000E+02  0.47000000000E+01 0.  1.
</event>
<event>
 4    1  0.7503339E-002  0.6000000E+02  0.7546771E-02  0.1259629E+00
         11   -1    0    0    0    0  0.00000000000E+00  0.00000000000E+00  0.30000000000E+02  0.30000000000E+02  0.00000000000E+00 0.  1.
        -11   -1    0    0    0    0 -0.00000000000E+00 -0.00000000000E+00 -0.30000000000E+02  0.30000000000E+02  0.00000000000E+00 0. -1.
          5    1    1    2  501    0 -0.18088915243E+02 -0.24368917655E+01 -0.23340152181E+02  0.30000000000E+02  0.47000000000E+01 0. -1.
         -5    1    1    2    0  501  0.18088915243E+02  0.24368917655E+01  0.23340152181E+02  0.30000000000E+02  0.47000000000E+01 0.  1.
</event>
<event>
 4    1  0.7503339E-002  0.6000000E+02  0.7546771E-02  0.1259629E+00
         11   -1    0    0    0    0  0.00000000000E+00  0.00000000000E+00  0.30000000000E+02  0.30000000000E+02  0.00000000000E+00 0. -1.
        -11   -1    0    0    0    0 -0.00000000000E+00 -0.00000000000E+00 -0.30000000000E+02  0.30000000000E+02  0.00000000000E+00 0.  1.
          5    1    1    2  501    0  0.92113997022E+00  0.38057949512E+01 -0.29369668468E+02  0.30000000000E+02  0.47000000000E+01 0.  1.
         -5    1    1    2    0  501 -0.92113997022E+00 -0.38057949512E+01  0.29369668468E+02  0.30000000000E+02  0.47000000000E+01 0. -1.
</event>
<event>
 4    1  0.7503339E-002  0.6000000E+02  0.7546771E-02  0.1259629E+00
         11   -1    0    0    0    0  0.00000000000E+00  0.00000000000E+00  0.30000000000E+02  0.30000000000E+02  0.00000000000E+00 0.  1.
        -11   -1    0    0    0    0 -0.00000000000E+00 -0.00000000000E+00 -0.30000000000E+02  0.30000000000E+02  0.00000000000E+00 0. -1.
          5    1    1    2  501    0 -0.65418426123E+01  0.26278710296E+02 -0.12022632008E+02  0.30000000000E+02  0.47000000000E+01 0. -1.
         -5    1    1    2    0  501  0.65418426123E+01 -0.26278710296E+02  0.12022632008E+02  0.30000000000E+02  0.47000000000E+01 0.  1.
</event>
<event>
 4    1  0.7503339E-002  0.6000000E+02  0.7546771E-02  0.1259629E+00
         11   -1    0    0    0    0  0.00000000000E+00  0.00000000000E+00  0.30000000000E+02  0.30000000000E+02  0.00000000000E+00 0. -1.
        -11   -1    0    0    0    0 -0.00000000000E+00 -0.00000000000E+00 -0.30000000000E+02  0.30000000000E+02  0.00000000000E+00 0.  1.
          5    1    1    2  501    0 -0.35657369339E+01 -0.82606639684E+01 -0.28230425978E+02  0.30000000000E+02  0.47000000000E+01 0.  1.
         -5    1    1    2    0  501  0.35657369339E+01  0.82606639684E+01  0.28230425978E+02  0.30000000000E+02  0.47000000000E+01 0. -1.
</event>
<event>
 4    1  0.7503339E-002  0.6000000E+02  0.7546771E-02  0.1259629E+00
         11   -1    0    0    0    0  0.00000000000E+00  0.00000000000E+00  0.30000000000E+02  0.30000000000E+02  0.00000000000E+00 0.  1.
        -11   -1    0    0    0    0 -0.00000000000E+00 -0.00000000000E+00 -0.30000000000E+02  0.30000000000E+02  0.00000000000E+00 0. -1.
          5    1    1    2  501    0 -0.56511996104E+01 -0.12123231095E+02  0.26438631031E+02  0.30000000000E+02  0.47000000000E+01 0. -1.
         -5    1    1    2    0  501  0.56511996104E+01  0.12123231095E+02 -0.26438631031E+02  0.30000000000E+02  0.47000000000E+01 0.  1.
</event>
<event>
 4    1  0.7503339E-002  0.6000000E+02  0.7546771E-02  0.1259629E+00
         11   -1    0    0    0    0  0.00000000000E+00  0.00000000000E+00  0.30000000000E+02  0.30000000000E+02  0.00000000000E+00 0. -1.
        -11   -1    0    0    0    0 -0.00000000000E+00 -0.00000000000E+00 -0.30000000000E+02  0.30000000000E+02  0.00000000000E+00 0.  1.
          5    1    1    2  501    0 -0.19477866031E+02 -0.60390726445E+01 -0.21495402682E+02  0.30000000000E+02  0.47000000000E+01 0.  1.
         -5    1    1    2    0  501  0.19477866031E+02  0.60390726445E+01  0.21495402682E+02  0.30000000000E+02  0.47000000000E+01 0. -1.
</event>
<event>
 4    1  0.7503339E-002  0.6000000E+02  0.7546771E-02  0.1259629E+00
         11   -1    0    0    0    0  0.00000000000E+00  0.00000000000E+00  0.30000000000E+02  0.30000000000E+02  0.00000000000E+00 0.  1.
        -11   -1    0    0    0    0 -0.00000000000E+00 -0.00000000000E+00 -0.30000000000E+02  0.30000000000E+02  0.00000000000E+00 0. -1.
          5    1    1    2  501    0 -0.37175779276E+01  0.66257395417E+01 -0.28638945335E+02  0.30000000000E+02  0.47000000000E+01 0. -1.
         -5    1    1    2    0  501  0.37175779276E+01 -0.66257395417E+01  0.28638945335E+02  0.30000000000E+02  0.47000000000E+01 0.  1.
</event>
<event>
 4    1  0.7503339E-002  0.6000000E+02  0.7546771E-02  0.1259629E+00
         11   -1    0    0    0    0  0.00000000000E+00  0.00000000000E+00  0.30000000000E+02  0.30000000000E+02  0.00000000000E+00 0.  1.
        -11   -1    0    0    0    0 -0.00000000000E+00 -0.00000000000E+00 -0.30000000000E+02  0.30000000000E+02  0.00000000000E+00 0. -1.
          5    1    1    2  501    0  0.15936368875E+02 -0.16045839155E+02 -0.19143489569E+02  0.30000000000E+02  0.47000000000E+01 0. -1.
         -5    1    1    2    0  501 -0.15936368875E+02  0.16045839155E+02  0.19143489569E+02  0.30000000000E+02  0.47000000000E+01 0.  1.
</event>
<event>
 4    1  0.7503339E-002  0.6000000E+02  0.7546771E-02  0.1259629E+00
         11   -1    0    0    0    0  0.00000000000E+00  0.00000000000E+00  0.30000000000E+02  0.30000000000E+02  0.00000000000E+00 0.  1.
        -11   -1    0    0    0    0 -0.00000000000E+00 -0.00000000000E+00 -0.30000000000E+02  0.30000000000E+02  0.00000000000E+00 0. -1.
          5    1    1    2  501    0  0.11580370194E+02 -0.11076420340E+02 -0.24922237833E+02  0.30000000000E+02  0.47000000000E+01 0. -1.
         -5    1    1    2    0  501 -0.11580370194E+02  0.11076420340E+02  0.24922237833E+02  0.30000000000E+02  0.47000000000E+01 0.  1.
</event>
<event>
 4    1  0.7503339E-002  0.6000000E+02  0.7546771E-02  0.1259629E+00
         11   -1    0    0    0    0  0.00000000000E+00  0.00000000000E+00  0.30000000000E+02  0.30000000000E+02  0.00000000000E+00 0.  1.
        -11   -1    0    0    0    0 -0.00000000000E+00 -0.00000000000E+00 -0.30000000000E+02  0.30000000000E+02  0.00000000000E+00 0. -1.
          5    1    1    2  501    0 -0.17753541192E+02 -0.21697310446E+02  0.95889777621E+01  0.30000000000E+02  0.47000000000E+01 0.  1.
         -5    1    1    2    0  501  0.17753541192E+02  0.21697310446E+02 -0.95889777621E+01  0.30000000000E+02  0.47000000000E+01 0. -1.
</event>
<event>
 4    1  0.7503339E-002  0.6000000E+02  0.7546771E-02  0.1259629E+00
         11   -1    0    0    0    0  0.00000000000E+00  0.00000000000E+00  0.30000000000E+02  0.30000000000E+02  0.00000000000E+00 0. -1.
        -11   -1    0    0    0    0 -0.00000000000E+00 -0.00000000000E+00 -0.30000000000E+02  0.30000000000E+02  0.00000000000E+00 0.  1.
          5    1    1    2  501    0 -0.21788082140E+02 -0.18899205176E+02  0.67830317962E+01  0.30000000000E+02  0.47000000000E+01 0.  1.
         -5    1    1    2    0  501  0.21788082140E+02  0.18899205176E+02 -0.67830317962E+01  0.30000000000E+02  0.47000000000E+01 0. -1.
</event>
<event>
 4    1  0.7503339E-002  0.6000000E+02  0.7546771E-02  0.1259629E+00
         11   -1    0    0    0    0  0.00000000000E+00  0.00000000000E+00  0.30000000000E+02  0.30000000000E+02  0.00000000000E+00 0.  1.
        -11   -1    0    0    0    0 -0.00000000000E+00 -0.00000000000E+00 -0.30000000000E+02  0.30000000000E+02  0.00000000000E+00 0. -1.
          5    1    1    2  501    0  0.21563489098E+02  0.13944480001E+02 -0.14780981544E+02  0.30000000000E+02  0.47000000000E+01 0. -1.
         -5    1    1    2    0  501 -0.21563489098E+02 -0.13944480001E+02  0.14780981544E+02  0.30000000000E+02  0.47000000000E+01 0.  1.
</event>
<event>
 4    1  0.7503339E-002  0.6000000E+02  0.7546771E-02  0.1259629E+00
         11   -1    0    0    0    0  0.00000000000E+00  0.00000000000E+00  0.30000000000E+02  0.30000000000E+02  0.00000000000E+00 0.  1.
        -11   -1    0    0    0    0 -0.00000000000E+00 -0.00000000000E+00 -0.30000000000E+02  0.30000000000E+02  0.00000000000E+00 0. -1.
          5    1    1    2  501    0  0.18579125942E+02  0.19513571208E+02 -0.12326662887E+02  0.30000000000E+02  0.47000000000E+01 0. -1.
         -5    1    1    2    0  501 -0.18579125942E+02 -0.19513571208E+02  0.12326662887E+02  0.30000000000E+02  0.47000000000E+01 0.  1.
</event>
<event>
 4    1  0.7503339E-002  0.6000000E+02  0.7546771E-02  0.1259629E+00
         11   -1    0    0    0    0  0.00000000000E+00  0.00000000000E+00  0.30000000000E+02  0.30000000000E+02  0.00000000000E+00 0.  1.
        -11   -1    0    0    0    0 -0.00000000000E+00 -0.00000000000E+00 -0.30000000000E+02  0.30000000000E+02  0.00000000000E+00 0. -1.
          5    1    1    2  501    0 -0.25977897106E+02  0.76287472474E+01 -0.12035824750E+02  0.30000000000E+02  0.47000000000E+01 0. -1.
         -5    1    1    2    0  501  0.25977897106E+02 -0.76287472474E+01  0.12035824750E+02  0.30000000000E+02  0.47000000000E+01 0.  1.
</event>
<event>
 4    1  0.7503339E-002  0.6000000E+02  0.7546771E-02  0.1259629E+00
         11   -1    0    0    0    0  0.00000000000E+00  0.00000000000E+00  0.30000000000E+02  0.30000000000E+02  0.00000000000E+00 0.  1.
        -11   -1    0    0    0    0 -0.00000000000E+00 -0.00000000000E+00 -0.30000000000E+02  0.30000000000E+02  0.00000000000E+00 0. -1.
          5    1    1    2  501    0  0.30358246462E+01 -0.27991222507E+02  0.92295845677E+01  0.30000000000E+02  0.47000000000E+01 0. -1.
         -5    1    1    2    0  501 -0.30358246462E+01  0.27991222507E+02 -0.92295845677E+01  0.30000000000E+02  0.47000000000E+01 0. -1.
</event>
<event>
 4    1  0.7503339E-002  0.6000000E+02  0.7546771E-02  0.1259629E+00
         11   -1    0    0    0    0  0.00000000000E+00  0.00000000000E+00  0.30000000000E+02  0.30000000000E+02  0.00000000000E+00 0.  1.
        -11   -1    0    0    0    0 -0.00000000000E+00 -0.00000000000E+00 -0.30000000000E+02  0.30000000000E+02  0.00000000000E+00 0. -1.
          5    1    1    2  501    0 -0.25587016689E+02  0.12943301042E+02  0.74622741239E+01  0.30000000000E+02  0.47000000000E+01 0. -1.
         -5    1    1    2    0  501  0.25587016689E+02 -0.12943301042E+02 -0.74622741239E+01  0.30000000000E+02  0.47000000000E+01 0.  1.
</event>
<event>
 4    1  0.7503339E-002  0.6000000E+02  0.7546771E-02  0.1259629E+00
         11   -1    0    0    0    0  0.00000000000E+00  0.00000000000E+00  0.30000000000E+02  0.30000000000E+02  0.00000000000E+00 0. -1.
        -11   -1    0    0    0    0 -0.00000000000E+00 -0.00000000000E+00 -0.30000000000E+02  0.30000000000E+02  0.00000000000E+00 0.  1.
          5    1    1    2  501    0  0.11710861036E+02  0.97155688275E+01 -0.25423875711E+02  0.30000000000E+02  0.47000000000E+01 0.  1.
         -5    1    1    2    0  501 -0.11710861036E+02 -0.97155688275E+01  0.25423875711E+02  0.30000000000E+02  0.47000000000E+01 0. -1.
</event>
<event>
 4    1  0.7503339E-002  0.6000000E+02  0.7546771E-02  0.1259629E+00
         11   -1    0    0    0    0  0.00000000000E+00  0.00000000000E+00  0.30000000000E+02  0.30000000000E+02  0.00000000000E+00 0.  1.
        -11   -1    0    0    0    0 -0.00000000000E+00 -0.00000000000E+00 -0.30000000000E+02  0.30000000000E+02  0.00000000000E+00 0. -1.
          5    1    1    2  501    0 -0.27111849189E+02 -0.11779128776E+02 -0.20272540116E+01  0.30000000000E+02  0.47000000000E+01 0. -1.
         -5    1    1    2    0  501  0.27111849189E+02  0.11779128776E+02  0.20272540116E+01  0.30000000000E+02  0.47000000000E+01 0.  1.
</event>
<event>
 4    1  0.7503339E-002  0.6000000E+02  0.7546771E-02  0.1259629E+00
         11   -1    0    0    0    0  0.00000000000E+00  0.00000000000E+00  0.30000000000E+02  0.30000000000E+02  0.00000000000E+00 0.  1.
        -11   -1    0    0    0    0 -0.00000000000E+00 -0.00000000000E+00 -0.30000000000E+02  0.30000000000E+02  0.00000000000E+00 0. -1.
          5    1    1    2  501    0 -0.19170111991E+02  0.17097657288E+02 -0.14767766300E+02  0.30000000000E+02  0.47000000000E+01 0. -1.
         -5    1    1    2    0  501  0.19170111991E+02 -0.17097657288E+02  0.14767766300E+02  0.30000000000E+02  0.47000000000E+01 0.  1.
</event>
<event>
 4    1  0.7503339E-002  0.6000000E+02  0.7546771E-02  0.1259629E+00
         11   -1    0    0    0    0  0.00000000000E+00  0.00000000000E+00  0.30000000000E+02  0.30000000000E+02  0.00000000000E+00 0. -1.
        -11   -1    0    0    0    0 -0.00000000000E+00 -0.00000000000E+00 -0.30000000000E+02  0.30000000000E+02  0.00000000000E+00 0.  1.
          5    1    1    2  501    0 -0.32051028697E+01 -0.21171596655E+02 -0.20479277592E+02  0.30000000000E+02  0.47000000000E+01 0.  1.
         -5    1    1    2    0  501  0.32051028697E+01  0.21171596655E+02  0.20479277592E+02  0.30000000000E+02  0.47000000000E+01 0. -1.
</event>
<event>
 4    1  0.7503339E-002  0.6000000E+02  0.7546771E-02  0.1259629E+00
         11   -1    0    0    0    0  0.00000000000E+00  0.00000000000E+00  0.30000000000E+02  0.30000000000E+02  0.00000000000E+00 0.  1.
        -11   -1    0    0    0    0 -0.00000000000E+00 -0.00000000000E+00 -0.30000000000E+02  0.30000000000E+02  0.00000000000E+00 0. -1.
          5    1    1    2  501    0 -0.21817080622E+02 -0.94976831259E+01 -0.17655565932E+02  0.30000000000E+02  0.47000000000E+01 0. -1.
         -5    1    1    2    0  501  0.21817080622E+02  0.94976831259E+01  0.17655565932E+02  0.30000000000E+02  0.47000000000E+01 0.  1.
</event>
<event>
 4    1  0.7503339E-002  0.6000000E+02  0.7546771E-02  0.1259629E+00
         11   -1    0    0    0    0  0.00000000000E+00  0.00000000000E+00  0.30000000000E+02  0.30000000000E+02  0.00000000000E+00 0.  1.
        -11   -1    0    0    0    0 -0.00000000000E+00 -0.00000000000E+00 -0.30000000000E+02  0.30000000000E+02  0.00000000000E+00 0. -1.
          5    1    1    2  501    0 -0.24717488069E+01  0.22589013927E+02  0.19014123898E+02  0.30000000000E+02  0.47000000000E+01 0. -1.
         -5    1    1    2    0  501  0.24717488069E+01 -0.22589013927E+02 -0.19014123898E+02  0.30000000000E+02  0.47000000000E+01 0.  1.
</event>
<event>
 4    1  0.7503339E-002  0.6000000E+02  0.7546771E-02  0.1259629E+00
         11   -1    0    0    0    0  0.00000000000E+00  0.00000000000E+00  0.30000000000E+02  0.30000000000E+02  0.00000000000E+00 0. -1.
        -11   -1    0    0    0    0 -0.00000000000E+00 -0.00000000000E+00 -0.30000000000E+02  0.30000000000E+02  0.00000000000E+00 0.  1.
          5    1    1    2  501    0  0.27750861325E+02 -0.49740948381E+01 -0.91136203697E+01  0.30000000000E+02  0.47000000000E+01 0.  1.
         -5    1    1    2    0  501 -0.27750861325E+02  0.49740948381E+01  0.91136203697E+01  0.30000000000E+02  0.47000000000E+01 0. -1.
</event>
<event>
 4    1  0.7503339E-002  0.6000000E+02  0.7546771E-02  0.1259629E+00
         11   -1    0    0    0    0  0.00000000000E+00  0.00000000000E+00  0.30000000000E+02  0.30000000000E+02  0.00000000000E+00 0.  1.
        -11   -1    0    0    0    0 -0.00000000000E+00 -0.00000000000E+00 -0.30000000000E+02  0.30000000000E+02  0.00000000000E+00 0. -1.
          5    1    1    2  501    0 -0.90670787560E+01  0.27798892162E+02 -0.47874499913E+01  0.30000000000E+02  0.47000000000E+01 0. -1.
         -5    1    1    2    0  501  0.90670787560E+01 -0.27798892162E+02  0.47874499913E+01  0.30000000000E+02  0.47000000000E+01 0.  1.
</event>
<event>
 4    1  0.7503339E-002  0.6000000E+02  0.7546771E-02  0.1259629E+00
         11   -1    0    0    0    0  0.00000000000E+00  0.00000000000E+00  0.30000000000E+02  0.30000000000E+02  0.00000000000E+00 0.  1.
        -11   -1    0    0    0    0 -0.00000000000E+00 -0.00000000000E+00 -0.30000000000E+02  0.30000000000E+02  0.00000000000E+00 0. -1.
          5    1    1    2  501    0  0.82756569987E+01 -0.12468861974E+02  0.25572465316E+02  0.30000000000E+02  0.47000000000E+01 0.  1.
         -5    1    1    2    0  501 -0.82756569987E+01  0.12468861974E+02 -0.25572465316E+02  0.30000000000E+02  0.47000000000E+01 0. -1.
</event>
<event>
 4    1  0.7503339E-002  0.6000000E+02  0.7546771E-02  0.1259629E+00
         11   -1    0    0    0    0  0.00000000000E+00  0.00000000000E+00  0.30000000000E+02  0.30000000000E+02  0.00000000000E+00 0.  1.
        -11   -1    0    0    0    0 -0.00000000000E+00 -0.00000000000E+00 -0.30000000000E+02  0.30000000000E+02  0.00000000000E+00 0. -1.
          5    1    1    2  501    0  0.13602399801E+02 -0.63526957820E+01 -0.25544627144E+02  0.30000000000E+02  0.47000000000E+01 0. -1.
         -5    1    1    2    0  501 -0.13602399801E+02  0.63526957820E+01  0.25544627144E+02  0.30000000000E+02  0.47000000000E+01 0.  1.
</event>
<event>
 4    1  0.7503339E-002  0.6000000E+02  0.7546771E-02  0.1259629E+00
         11   -1    0    0    0    0  0.00000000000E+00  0.00000000000E+00  0.30000000000E+02  0.30000000000E+02  0.00000000000E+00 0.  1.
        -11   -1    0    0    0    0 -0.00000000000E+00 -0.00000000000E+00 -0.30000000000E+02  0.30000000000E+02  0.00000000000E+00 0. -1.
          5    1    1    2  501    0 -0.22825550276E+02  0.20485842361E+01 -0.18780510036E+02  0.30000000000E+02  0.47000000000E+01 0. -1.
         -5    1    1    2    0  501  0.22825550276E+02 -0.20485842361E+01  0.18780510036E+02  0.30000000000E+02  0.47000000000E+01 0.  1.
</event>
<event>
 4    1  0.7503339E-002  0.6000000E+02  0.7546771E-02  0.1259629E+00
         11   -1    0    0    0    0  0.00000000000E+00  0.00000000000E+00  0.30000000000E+02  0.30000000000E+02  0.00000000000E+00 0. -1.
        -11   -1    0    0    0    0 -0.00000000000E+00 -0.00000000000E+00 -0.30000000000E+02  0.30000000000E+02  0.00000000000E+00 0.  1.
          5    1    1    2  501    0  0.26384302321E+02 -0.30438282049E+01 -0.13134447111E+02  0.30000000000E+02  0.47000000000E+01 0.  1.
         -5    1    1    2    0  501 -0.26384302321E+02  0.30438282049E+01  0.13134447111E+02  0.30000000000E+02  0.47000000000E+01 0. -1.
</event>
<event>
 4    1  0.7503339E-002  0.6000000E+02  0.7546771E-02  0.1259629E+00
         11   -1    0    0    0    0  0.00000000000E+00  0.00000000000E+00  0.30000000000E+02  0.30000000000E+02  0.00000000000E+00 0.  1.
        -11   -1    0    0    0    0 -0.00000000000E+00 -0.00000000000E+00 -0.30000000000E+02  0.30000000000E+02  0.00000000000E+00 0. -1.
          5    1    1    2  501    0  0.30844142223E+01 -0.13453056505E+02 -0.26218536564E+02  0.30000000000E+02  0.47000000000E+01 0. -1.
         -5    1    1    2    0  501 -0.30844142223E+01  0.13453056505E+02  0.26218536564E+02  0.30000000000E+02  0.47000000000E+01 0.  1.
</event>
<event>
 4    1  0.7503339E-002  0.6000000E+02  0.7546771E-02  0.1259629E+00
         11   -1    0    0    0    0  0.00000000000E+00  0.00000000000E+00  0.30000000000E+02  0.30000000000E+02  0.00000000000E+00 0. -1.
        -11   -1    0    0    0    0 -0.00000000000E+00 -0.00000000000E+00 -0.30000000000E+02  0.30000000000E+02  0.00000000000E+00 0.  1.
          5    1    1    2  501    0 -0.18293725655E+02 -0.49145449669E+01 -0.22783697010E+02  0.30000000000E+02  0.47000000000E+01 0.  1.
         -5    1    1    2    0  501  0.18293725655E+02  0.49145449669E+01  0.22783697010E+02  0.30000000000E+02  0.47000000000E+01 0. -1.
</event>
<event>
 4    1  0.7503339E-002  0.6000000E+02  0.7546771E-02  0.1259629E+00
         11   -1    0    0    0    0  0.00000000000E+00  0.00000000000E+00  0.30000000000E+02  0.30000000000E+02  0.00000000000E+00 0.  1.
        -11   -1    0    0    0    0 -0.00000000000E+00 -0.00000000000E+00 -0.30000000000E+02  0.30000000000E+02  0.00000000000E+00 0. -1.
          5    1    1    2  501    0  0.23479102811E+02 -0.39859208449E+00 -0.18068836585E+02  0.30000000000E+02  0.47000000000E+01 0. -1.
         -5    1    1    2    0  501 -0.23479102811E+02  0.39859208449E+00  0.18068836585E+02  0.30000000000E+02  0.47000000000E+01 0.  1.
</event>
<event>
 4    1  0.7503339E-002  0.6000000E+02  0.7546771E-02  0.1259629E+00
         11   -1    0    0    0    0  0.00000000000E+00  0.00000000000E+00  0.30000000000E+02  0.30000000000E+02  0.00000000000E+00 0.  1.
        -11   -1    0    0    0    0 -0.00000000000E+00 -0.00000000000E+00 -0.30000000000E+02  0.30000000000E+02  0.00000000000E+00 0. -1.
          5    1    1    2  501    0 -0.21074399088E+02  0.19977837179E+02  0.58877605872E+01  0.30000000000E+02  0.47000000000E+01 0. -1.
         -5    1    1    2    0  501  0.21074399088E+02 -0.19977837179E+02 -0.58877605872E+01  0.30000000000E+02  0.47000000000E+01 0.  1.
</event>
<event>
 4    1  0.7503339E-002  0.6000000E+02  0.7546771E-02  0.1259629E+00
         11   -1    0    0    0    0  0.00000000000E+00  0.00000000000E+00  0.30000000000E+02  0.30000000000E+02  0.00000000000E+00 0.  1.
        -11   -1    0    0    0    0 -0.00000000000E+00 -0.00000000000E+00 -0.30000000000E+02  0.30000000000E+02  0.00000000000E+00 0. -1.
          5    1    1    2  501    0  0.23662819133E+01 -0.68901745485E+01 -0.28719961779E+02  0.30000000000E+02  0.47000000000E+01 0. -1.
         -5    1    1    2    0  501 -0.23662819133E+01  0.68901745485E+01  0.28719961779E+02  0.30000000000E+02  0.47000000000E+01 0.  1.
</event>
<event>
 4    1  0.7503339E-002  0.6000000E+02  0.7546771E-02  0.1259629E+00
         11   -1    0    0    0    0  0.00000000000E+00  0.00000000000E+00  0.30000000000E+02  0.30000000000E+02  0.00000000000E+00 0.  1.
        -11   -1    0    0    0    0 -0.00000000000E+00 -0.00000000000E+00 -0.30000000000E+02  0.30000000000E+02  0.00000000000E+00 0. -1.
          5    1    1    2  501    0  0.20228944834E+02  0.17116600802E+02 -0.13256008746E+02  0.30000000000E+02  0.47000000000E+01 0. -1.
         -5    1    1    2    0  501 -0.20228944834E+02 -0.17116600802E+02  0.13256008746E+02  0.30000000000E+02  0.47000000000E+01 0.  1.
</event>
<event>
 4    1  0.7503339E-002  0.6000000E+02  0.7546771E-02  0.1259629E+00
         11   -1    0    0    0    0  0.00000000000E+00  0.00000000000E+00  0.30000000000E+02  0.30000000000E+02  0.00000000000E+00 0. -1.
        -11   -1    0    0    0    0 -0.00000000000E+00 -0.00000000000E+00 -0.30000000000E+02  0.30000000000E+02  0.00000000000E+00 0.  1.
          5    1    1    2  501    0  0.76471250325E+01  0.57960796415E+01 -0.28032783300E+02  0.30000000000E+02  0.47000000000E+01 0.  1.
         -5    1    1    2    0  501 -0.76471250325E+01 -0.57960796415E+01  0.28032783300E+02  0.30000000000E+02  0.47000000000E+01 0. -1.
</event>
<event>
 4    1  0.7503339E-002  0.6000000E+02  0.7546771E-02  0.1259629E+00
         11   -1    0    0    0    0  0.00000000000E+00  0.00000000000E+00  0.30000000000E+02  0.30000000000E+02  0.00000000000E+00 0. -1.
        -11   -1    0    0    0    0 -0.00000000000E+00 -0.00000000000E+00 -0.30000000000E+02  0.30000000000E+02  0.00000000000E+00 0.  1.
          5    1    1    2  501    0 -0.19189223112E+02 -0.71905034099E+01 -0.21400476094E+02  0.30000000000E+02  0.47000000000E+01 0.  1.
         -5    1    1    2    0  501  0.19189223112E+02  0.71905034099E+01  0.21400476094E+02  0.30000000000E+02  0.47000000000E+01 0. -1.
</event>
<event>
 4    1  0.7503339E-002  0.6000000E+02  0.7546771E-02  0.1259629E+00
         11   -1    0    0    0    0  0.00000000000E+00  0.00000000000E+00  0.30000000000E+02  0.30000000000E+02  0.00000000000E+00 0.  1.
        -11   -1    0    0    0    0 -0.00000000000E+00 -0.00000000000E+00 -0.30000000000E+02  0.30000000000E+02  0.00000000000E+00 0. -1.
          5    1    1    2  501    0  0.23860861499E+02  0.15528746324E+02 -0.82114143806E+01  0.30000000000E+02  0.47000000000E+01 0. -1.
         -5    1    1    2    0  501 -0.23860861499E+02 -0.15528746324E+02  0.82114143806E+01  0.30000000000E+02  0.47000000000E+01 0.  1.
</event>
<event>
 4    1  0.7503339E-002  0.6000000E+02  0.7546771E-02  0.1259629E+00
         11   -1    0    0    0    0  0.00000000000E+00  0.00000000000E+00  0.30000000000E+02  0.30000000000E+02  0.00000000000E+00 0.  1.
        -11   -1    0    0    0    0 -0.00000000000E+00 -0.00000000000E+00 -0.30000000000E+02  0.30000000000E+02  0.00000000000E+00 0. -1.
          5    1    1    2  501    0 -0.15056825701E+02  0.15360345988E+02 -0.20377972690E+02  0.30000000000E+02  0.47000000000E+01 0. -1.
         -5    1    1    2    0  501  0.15056825701E+02 -0.15360345988E+02  0.20377972690E+02  0.30000000000E+02  0.47000000000E+01 0.  1.
</event>
<event>
 4    1  0.7503339E-002  0.6000000E+02  0.7546771E-02  0.1259629E+00
         11   -1    0    0    0    0  0.00000000000E+00  0.00000000000E+00  0.30000000000E+02  0.30000000000E+02  0.00000000000E+00 0.  1.
        -11   -1    0    0    0    0 -0.00000000000E+00 -0.00000000000E+00 -0.30000000000E+02  0.30000000000E+02  0.00000000000E+00 0. -1.
          5    1    1    2  501    0 -0.14389555736E+02  0.24220864607E+02 -0.91760777776E+01  0.30000000000E+02  0.47000000000E+01 0. -1.
         -5    1    1    2    0  501  0.14389555736E+02 -0.24220864607E+02  0.91760777776E+01  0.30000000000E+02  0.47000000000E+01 0.  1.
</event>
<event>
 4    1  0.7503339E-002  0.6000000E+02  0.7546771E-02  0.1259629E+00
         11   -1    0    0    0    0  0.00000000000E+00  0.00000000000E+00  0.30000000000E+02  0.30000000000E+02  0.00000000000E+00 0.  1.
        -11   -1    0    0    0    0 -0.00000000000E+00 -0.00000000000E+00 -0.30000000000E+02  0.30000000000E+02  0.00000000000E+00 0. -1.
          5    1    1    2  501    0 -0.21145931427E+02  0.20666764305E+02 -0.19090409235E+01  0.30000000000E+02  0.47000000000E+01 0. -1.
         -5    1    1    2    0  501  0.21145931427E+02 -0.20666764305E+02  0.19090409235E+01  0.30000000000E+02  0.47000000000E+01 0.  1.
</event>
<event>
 4    1  0.7503339E-002  0.6000000E+02  0.7546771E-02  0.1259629E+00
         11   -1    0    0    0    0  0.00000000000E+00  0.00000000000E+00  0.30000000000E+02  0.30000000000E+02  0.00000000000E+00 0.  1.
        -11   -1    0    0    0    0 -0.00000000000E+00 -0.00000000000E+00 -0.30000000000E+02  0.30000000000E+02  0.00000000000E+00 0. -1.
          5    1    1    2  501    0  0.53720510141E+01  0.21630197741E+01 -0.29058086884E+02  0.30000000000E+02  0.47000000000E+01 0. -1.
         -5    1    1    2    0  501 -0.53720510141E+01 -0.21630197741E+01  0.29058086884E+02  0.30000000000E+02  0.47000000000E+01 0.  1.
</event>
<event>
 4    1  0.7503339E-002  0.6000000E+02  0.7546771E-02  0.1259629E+00
         11   -1    0    0    0    0  0.00000000000E+00  0.00000000000E+00  0.30000000000E+02  0.30000000000E+02  0.00000000000E+00 0. -1.
        -11   -1    0    0    0    0 -0.00000000000E+00 -0.00000000000E+00 -0.30000000000E+02  0.30000000000E+02  0.00000000000E+00 0.  1.
          5    1    1    2  501    0  0.38918562472E+01 -0.35119501052E+01 -0.29162127176E+02  0.30000000000E+02  0.47000000000E+01 0.  1.
         -5    1    1    2    0  501 -0.38918562472E+01  0.35119501052E+01  0.29162127176E+02  0.30000000000E+02  0.47000000000E+01 0. -1.
</event>
<event>
 4    1  0.7503339E-002  0.6000000E+02  0.7546771E-02  0.1259629E+00
         11   -1    0    0    0    0  0.00000000000E+00  0.00000000000E+00  0.30000000000E+02  0.30000000000E+02  0.00000000000E+00 0.  1.
        -11   -1    0    0    0    0 -0.00000000000E+00 -0.00000000000E+00 -0.30000000000E+02  0.30000000000E+02  0.00000000000E+00 0. -1.
          5    1    1    2  501    0  0.14684830087E+02  0.23652085443E+02 -0.10141233628E+02  0.30000000000E+02  0.47000000000E+01 0. -1.
         -5    1    1    2    0  501 -0.14684830087E+02 -0.23652085443E+02  0.10141233628E+02  0.30000000000E+02  0.47000000000E+01 0.  1.
</event>
<event>
 4    1  0.7503339E-002  0.6000000E+02  0.7546771E-02  0.1259629E+00
         11   -1    0    0    0    0  0.00000000000E+00  0.00000000000E+00  0.30000000000E+02  0.30000000000E+02  0.00000000000E+00 0.  1.
        -11   -1    0    0    0    0 -0.00000000000E+00 -0.00000000000E+00 -0.30000000000E+02  0.30000000000E+02  0.00000000000E+00 0. -1.
          5    1    1    2  501    0 -0.43660025510E+01  0.29096206507E+02 -0.35012552937E+01  0.30000000000E+02  0.47000000000E+01 0. -1.
         -5    1    1    2    0  501  0.43660025510E+01 -0.29096206507E+02  0.35012552937E+01  0.30000000000E+02  0.47000000000E+01 0.  1.
</event>
<event>
 4    1  0.7503339E-002  0.6000000E+02  0.7546771E-02  0.1259629E+00
         11   -1    0    0    0    0  0.00000000000E+00  0.00000000000E+00  0.30000000000E+02  0.30000000000E+02  0.00000000000E+00 0.  1.
        -11   -1    0    0    0    0 -0.00000000000E+00 -0.00000000000E+00 -0.30000000000E+02  0.30000000000E+02  0.00000000000E+00 0. -1.
          5    1    1    2  501    0 -0.16854636583E+01 -0.59058749212E+01 -0.28986028594E+02  0.30000000000E+02  0.47000000000E+01 0. -1.
         -5    1    1    2    0  501  0.16854636583E+01  0.59058749212E+01  0.28986028594E+02  0.30000000000E+02  0.47000000000E+01 0.  1.
</event>
<event>
 4    1  0.7503339E-002  0.6000000E+02  0.7546771E-02  0.1259629E+00
         11   -1    0    0    0    0  0.00000000000E+00  0.00000000000E+00  0.30000000000E+02  0.30000000000E+02  0.00000000000E+00 0.  1.
        -11   -1    0    0    0    0 -0.00000000000E+00 -0.00000000000E+00 -0.30000000000E+02  0.30000000000E+02  0.00000000000E+00 0. -1.
          5    1    1    2  501    0 -0.25080637948E+02  0.84887861758E+01 -0.13297071458E+02  0.30000000000E+02  0.47000000000E+01 0. -1.
         -5    1    1    2    0  501  0.25080637948E+02 -0.84887861758E+01  0.13297071458E+02  0.30000000000E+02  0.47000000000E+01 0.  1.
</event>
<event>
 4    1  0.7503339E-002  0.6000000E+02  0.7546771E-02  0.1259629E+00
         11   -1    0    0    0    0  0.00000000000E+00  0.00000000000E+00  0.30000000000E+02  0.30000000000E+02  0.00000000000E+00 0.  1.
        -11   -1    0    0    0    0 -0.00000000000E+00 -0.00000000000E+00 -0.30000000000E+02  0.30000000000E+02  0.00000000000E+00 0. -1.
          5    1    1    2  501    0  0.30286486496E+01 -0.14278827862E+02 -0.25784731184E+02  0.30000000000E+02  0.47000000000E+01 0. -1.
         -5    1    1    2    0  501 -0.30286486496E+01  0.14278827862E+02  0.25784731184E+02  0.30000000000E+02  0.47000000000E+01 0.  1.
</event>
<event>
 4    1  0.7503339E-002  0.6000000E+02  0.7546771E-02  0.1259629E+00
         11   -1    0    0    0    0  0.00000000000E+00  0.00000000000E+00  0.30000000000E+02  0.30000000000E+02  0.00000000000E+00 0.  1.
        -11   -1    0    0    0    0 -0.00000000000E+00 -0.00000000000E+00 -0.30000000000E+02  0.30000000000E+02  0.00000000000E+00 0. -1.
          5    1    1    2  501    0  0.77791795340E+01 -0.15874411907E+02 -0.23778086811E+02  0.30000000000E+02  0.47000000000E+01 0. -1.
         -5    1    1    2    0  501 -0.77791795340E+01  0.15874411907E+02  0.23778086811E+02  0.30000000000E+02  0.47000000000E+01 0.  1.
</event>
<event>
 4    1  0.7503339E-002  0.6000000E+02  0.7546771E-02  0.1259629E+00
         11   -1    0    0    0    0  0.00000000000E+00  0.00000000000E+00  0.30000000000E+02  0.30000000000E+02  0.00000000000E+00 0.  1.
        -11   -1    0    0    0    0 -0.00000000000E+00 -0.00000000000E+00 -0.30000000000E+02  0.30000000000E+02  0.00000000000E+00 0. -1.
          5    1    1    2  501    0 -0.17147076452E+02 -0.47993118176E+01 -0.23682364224E+02  0.30000000000E+02  0.47000000000E+01 0. -1.
         -5    1    1    2    0  501  0.17147076452E+02  0.47993118176E+01  0.23682364224E+02  0.30000000000E+02  0.47000000000E+01 0.  1.
</event>
<event>
 4    1  0.7503339E-002  0.6000000E+02  0.7546771E-02  0.1259629E+00
         11   -1    0    0    0    0  0.00000000000E+00  0.00000000000E+00  0.30000000000E+02  0.30000000000E+02  0.00000000000E+00 0. -1.
        -11   -1    0    0    0    0 -0.00000000000E+00 -0.00000000000E+00 -0.30000000000E+02  0.30000000000E+02  0.00000000000E+00 0.  1.
          5    1    1    2  501    0  0.83806479354E+01 -0.21129703461E+02 -0.19005535294E+02  0.30000000000E+02  0.47000000000E+01 0.  1.
         -5    1    1    2    0  501 -0.83806479354E+01  0.21129703461E+02  0.19005535294E+02  0.30000000000E+02  0.47000000000E+01 0. -1.
</event>
<event>
 4    1  0.7503339E-002  0.6000000E+02  0.7546771E-02  0.1259629E+00
         11   -1    0    0    0    0  0.00000000000E+00  0.00000000000E+00  0.30000000000E+02  0.30000000000E+02  0.00000000000E+00 0. -1.
        -11   -1    0    0    0    0 -0.00000000000E+00 -0.00000000000E+00 -0.30000000000E+02  0.30000000000E+02  0.00000000000E+00 0.  1.
          5    1    1    2  501    0 -0.21955324993E+02  0.16909096821E+01  0.19824594041E+02  0.30000000000E+02  0.47000000000E+01 0. -1.
         -5    1    1    2    0  501  0.21955324993E+02 -0.16909096821E+01 -0.19824594041E+02  0.30000000000E+02  0.47000000000E+01 0.  1.
</event>
<event>
 4    1  0.7503339E-002  0.6000000E+02  0.7546771E-02  0.1259629E+00
         11   -1    0    0    0    0  0.00000000000E+00  0.00000000000E+00  0.30000000000E+02  0.30000000000E+02  0.00000000000E+00 0.  1.
        -11   -1    0    0    0    0 -0.00000000000E+00 -0.00000000000E+00 -0.30000000000E+02  0.30000000000E+02  0.00000000000E+00 0. -1.
          5    1    1    2  501    0 -0.16930330338E+02  0.17443174308E+02 -0.16941357227E+02  0.30000000000E+02  0.47000000000E+01 0. -1.
         -5    1    1    2    0  501  0.16930330338E+02 -0.17443174308E+02  0.16941357227E+02  0.30000000000E+02  0.47000000000E+01 0.  1.
</event>
<event>
 4    1  0.7503339E-002  0.6000000E+02  0.7546771E-02  0.1259629E+00
         11   -1    0    0    0    0  0.00000000000E+00  0.00000000000E+00  0.30000000000E+02  0.30000000000E+02  0.00000000000E+00 0.  1.
        -11   -1    0    0    0    0 -0.00000000000E+00 -0.00000000000E+00 -0.30000000000E+02  0.30000000000E+02  0.00000000000E+00 0. -1.
          5    1    1    2  501    0 -0.10239386958E+02 -0.24091366947E+02 -0.13880597730E+02  0.30000000000E+02  0.47000000000E+01 0. -1.
         -5    1    1    2    0  501  0.10239386958E+02  0.24091366947E+02  0.13880597730E+02  0.30000000000E+02  0.47000000000E+01 0.  1.
</event>
<event>
 4    1  0.7503339E-002  0.6000000E+02  0.7546771E-02  0.1259629E+00
         11   -1    0    0    0    0  0.00000000000E+00  0.00000000000E+00  0.30000000000E+02  0.30000000000E+02  0.00000000000E+00 0.  1.
        -11   -1    0    0    0    0 -0.00000000000E+00 -0.00000000000E+00 -0.30000000000E+02  0.30000000000E+02  0.00000000000E+00 0. -1.
          5    1    1    2  501    0  0.10069169731E+02  0.10850684005E+02 -0.25666797181E+02  0.30000000000E+02  0.47000000000E+01 0. -1.
         -5    1    1    2    0  501 -0.10069169731E+02 -0.10850684005E+02  0.25666797181E+02  0.30000000000E+02  0.47000000000E+01 0.  1.
</event>
<event>
 4    1  0.7503339E-002  0.6000000E+02  0.7546771E-02  0.1259629E+00
         11   -1    0    0    0    0  0.00000000000E+00  0.00000000000E+00  0.30000000000E+02  0.30000000000E+02  0.00000000000E+00 0. -1.
        -11   -1    0    0    0    0 -0.00000000000E+00 -0.00000000000E+00 -0.30000000000E+02  0.30000000000E+02  0.00000000000E+00 0.  1.
          5    1    1    2  501    0  0.71751967181E+01  0.13261170956E+02  0.25506232512E+02  0.30000000000E+02  0.47000000000E+01 0. -1.
         -5    1    1    2    0  501 -0.71751967181E+01 -0.13261170956E+02 -0.25506232512E+02  0.30000000000E+02  0.47000000000E+01 0.  1.
</event>
<event>
 4    1  0.7503339E-002  0.6000000E+02  0.7546771E-02  0.1259629E+00
         11   -1    0    0    0    0  0.00000000000E+00  0.00000000000E+00  0.30000000000E+02  0.30000000000E+02  0.00000000000E+00 0.  1.
        -11   -1    0    0    0    0 -0.00000000000E+00 -0.00000000000E+00 -0.30000000000E+02  0.30000000000E+02  0.00000000000E+00 0. -1.
          5    1    1    2  501    0  0.85584921329E+01  0.20012833959E+02 -0.20103449688E+02  0.30000000000E+02  0.47000000000E+01 0. -1.
         -5    1    1    2    0  501 -0.85584921329E+01 -0.20012833959E+02  0.20103449688E+02  0.30000000000E+02  0.47000000000E+01 0.  1.
</event>
<event>
 4    1  0.7503339E-002  0.6000000E+02  0.7546771E-02  0.1259629E+00
         11   -1    0    0    0    0  0.00000000000E+00  0.00000000000E+00  0.30000000000E+02  0.30000000000E+02  0.00000000000E+00 0.  1.
        -11   -1    0    0    0    0 -0.00000000000E+00 -0.00000000000E+00 -0.30000000000E+02  0.30000000000E+02  0.00000000000E+00 0. -1.
          5    1    1    2  501    0 -0.81833496840E+01 -0.13361267954E+01 -0.28445694808E+02  0.30000000000E+02  0.47000000000E+01 0. -1.
         -5    1    1    2    0  501  0.81833496840E+01  0.13361267954E+01  0.28445694808E+02  0.30000000000E+02  0.47000000000E+01 0.  1.
</event>
<event>
 4    1  0.7503339E-002  0.6000000E+02  0.7546771E-02  0.1259629E+00
         11   -1    0    0    0    0  0.00000000000E+00  0.00000000000E+00  0.30000000000E+02  0.30000000000E+02  0.00000000000E+00 0.  1.
        -11   -1    0    0    0    0 -0.00000000000E+00 -0.00000000000E+00 -0.30000000000E+02  0.30000000000E+02  0.00000000000E+00 0. -1.
          5    1    1    2  501    0 -0.23153057647E+02 -0.15681411652E+02 -0.97948583550E+01  0.30000000000E+02  0.47000000000E+01 0. -1.
         -5    1    1    2    0  501  0.23153057647E+02  0.15681411652E+02  0.97948583550E+01  0.30000000000E+02  0.47000000000E+01 0.  1.
</event>
<event>
 4    1  0.7503339E-002  0.6000000E+02  0.7546771E-02  0.1259629E+00
         11   -1    0    0    0    0  0.00000000000E+00  0.00000000000E+00  0.30000000000E+02  0.30000000000E+02  0.00000000000E+00 0.  1.
        -11   -1    0    0    0    0 -0.00000000000E+00 -0.00000000000E+00 -0.30000000000E+02  0.30000000000E+02  0.00000000000E+00 0. -1.
          5    1    1    2  501    0  0.11169658505E+02  0.66891822178E+01 -0.26615851858E+02  0.30000000000E+02  0.47000000000E+01 0. -1.
         -5    1    1    2    0  501 -0.11169658505E+02 -0.66891822178E+01  0.26615851858E+02  0.30000000000E+02  0.47000000000E+01 0.  1.
</event>
<event>
 4    1  0.7503339E-002  0.6000000E+02  0.7546771E-02  0.1259629E+00
         11   -1    0    0    0    0  0.00000000000E+00  0.00000000000E+00  0.30000000000E+02  0.30000000000E+02  0.00000000000E+00 0.  1.
        -11   -1    0    0    0    0 -0.00000000000E+00 -0.00000000000E+00 -0.30000000000E+02  0.30000000000E+02  0.00000000000E+00 0. -1.
          5    1    1    2  501    0  0.51066697299E+01 -0.45514915999E+01 -0.28829079911E+02  0.30000000000E+02  0.47000000000E+01 0. -1.
         -5    1    1    2    0  501 -0.51066697299E+01  0.45514915999E+01  0.28829079911E+02  0.30000000000E+02  0.47000000000E+01 0.  1.
</event>
<event>
 4    1  0.7503339E-002  0.6000000E+02  0.7546771E-02  0.1259629E+00
         11   -1    0    0    0    0  0.00000000000E+00  0.00000000000E+00  0.30000000000E+02  0.30000000000E+02  0.00000000000E+00 0. -1.
        -11   -1    0    0    0    0 -0.00000000000E+00 -0.00000000000E+00 -0.30000000000E+02  0.30000000000E+02  0.00000000000E+00 0.  1.
          5    1    1    2  501    0  0.30760249914E+01  0.53254581301E+01 -0.28984264109E+02  0.30000000000E+02  0.47000000000E+01 0.  1.
         -5    1    1    2    0  501 -0.30760249914E+01 -0.53254581301E+01  0.28984264109E+02  0.30000000000E+02  0.47000000000E+01 0. -1.
</event>
<event>
 4    1  0.7503339E-002  0.6000000E+02  0.7546771E-02  0.1259629E+00
         11   -1    0    0    0    0  0.00000000000E+00  0.00000000000E+00  0.30000000000E+02  0.30000000000E+02  0.00000000000E+00 0. -1.
        -11   -1    0    0    0    0 -0.00000000000E+00 -0.00000000000E+00 -0.30000000000E+02  0.30000000000E+02  0.00000000000E+00 0.  1.
          5    1    1    2  501    0  0.35643314127E+01  0.64119160272E+00 -0.29407387081E+02  0.30000000000E+02  0.47000000000E+01 0.  1.
         -5    1    1    2    0  501 -0.35643314127E+01 -0.64119160272E+00  0.29407387081E+02  0.30000000000E+02  0.47000000000E+01 0. -1.
</event>
<event>
 4    1  0.7503339E-002  0.6000000E+02  0.7546771E-02  0.1259629E+00
         11   -1    0    0    0    0  0.00000000000E+00  0.00000000000E+00  0.30000000000E+02  0.30000000000E+02  0.00000000000E+00 0.  1.
        -11   -1    0    0    0    0 -0.00000000000E+00 -0.00000000000E+00 -0.30000000000E+02  0.30000000000E+02  0.00000000000E+00 0. -1.
          5    1    1    2  501    0  0.13841685657E+02  0.15797594890E+02 -0.20898653877E+02  0.30000000000E+02  0.47000000000E+01 0. -1.
         -5    1    1    2    0  501 -0.13841685657E+02 -0.15797594890E+02  0.20898653877E+02  0.30000000000E+02  0.47000000000E+01 0.  1.
</event>
<event>
 4    1  0.7503339E-002  0.6000000E+02  0.7546771E-02  0.1259629E+00
         11   -1    0    0    0    0  0.00000000000E+00  0.00000000000E+00  0.30000000000E+02  0.30000000000E+02  0.00000000000E+00 0. -1.
        -11   -1    0    0    0    0 -0.00000000000E+00 -0.00000000000E+00 -0.30000000000E+02  0.30000000000E+02  0.00000000000E+00 0.  1.
          5    1    1    2  501    0 -0.21004826430E+02 -0.42231462158E+01 -0.20466370042E+02  0.30000000000E+02  0.47000000000E+01 0.  1.
         -5    1    1    2    0  501  0.21004826430E+02  0.42231462158E+01  0.20466370042E+02  0.30000000000E+02  0.47000000000E+01 0. -1.
</event>
<event>
 4    1  0.7503339E-002  0.6000000E+02  0.7546771E-02  0.1259629E+00
         11   -1    0    0    0    0  0.00000000000E+00  0.00000000000E+00  0.30000000000E+02  0.30000000000E+02  0.00000000000E+00 0. -1.
        -11   -1    0    0    0    0 -0.00000000000E+00 -0.00000000000E+00 -0.30000000000E+02  0.30000000000E+02  0.00000000000E+00 0.  1.
          5    1    1    2  501    0  0.13008991160E+02  0.78940750128E+01 -0.25423605737E+02  0.30000000000E+02  0.47000000000E+01 0.  1.
         -5    1    1    2    0  501 -0.13008991160E+02 -0.78940750128E+01  0.25423605737E+02  0.30000000000E+02  0.47000000000E+01 0. -1.
</event>
<event>
 4    1  0.7503339E-002  0.6000000E+02  0.7546771E-02  0.1259629E+00
         11   -1    0    0    0    0  0.00000000000E+00  0.00000000000E+00  0.30000000000E+02  0.30000000000E+02  0.00000000000E+00 0.  1.
        -11   -1    0    0    0    0 -0.00000000000E+00 -0.00000000000E+00 -0.30000000000E+02  0.30000000000E+02  0.00000000000E+00 0. -1.
          5    1    1    2  501    0  0.12311909903E+02 -0.26892930031E+02 -0.17598831994E+01  0.30000000000E+02  0.47000000000E+01 0. -1.
         -5    1    1    2    0  501 -0.12311909903E+02  0.26892930031E+02  0.17598831994E+01  0.30000000000E+02  0.47000000000E+01 0.  1.
</event>
<event>
 4    1  0.7503339E-002  0.6000000E+02  0.7546771E-02  0.1259629E+00
         11   -1    0    0    0    0  0.00000000000E+00  0.00000000000E+00  0.30000000000E+02  0.30000000000E+02  0.00000000000E+00 0. -1.
        -11   -1    0    0    0    0 -0.00000000000E+00 -0.00000000000E+00 -0.30000000000E+02  0.30000000000E+02  0.00000000000E+00 0.  1.
          5    1    1    2  501    0  0.24561992903E+02  0.16206560511E+02  0.34591763524E+01  0.30000000000E+02  0.47000000000E+01 0.  1.
         -5    1    1    2    0  501 -0.24561992903E+02 -0.16206560511E+02 -0.34591763524E+01  0.30000000000E+02  0.47000000000E+01 0. -1.
</event>
<event>
 4    1  0.7503339E-002  0.6000000E+02  0.7546771E-02  0.1259629E+00
         11   -1    0    0    0    0  0.00000000000E+00  0.00000000000E+00  0.30000000000E+02  0.30000000000E+02  0.00000000000E+00 0.  1.
        -11   -1    0    0    0    0 -0.00000000000E+00 -0.00000000000E+00 -0.30000000000E+02  0.30000000000E+02  0.00000000000E+00 0. -1.
          5    1    1    2  501    0  0.70628192118E+01 -0.23259881044E+02  0.16941207708E+02  0.30000000000E+02  0.47000000000E+01 0.  1.
         -5    1    1    2    0  501 -0.70628192118E+01  0.23259881044E+02 -0.16941207708E+02  0.30000000000E+02  0.47000000000E+01 0. -1.
</event>
<event>
 4    1  0.7503339E-002  0.6000000E+02  0.7546771E-02  0.1259629E+00
         11   -1    0    0    0    0  0.00000000000E+00  0.00000000000E+00  0.30000000000E+02  0.30000000000E+02  0.00000000000E+00 0.  1.
        -11   -1    0    0    0    0 -0.00000000000E+00 -0.00000000000E+00 -0.30000000000E+02  0.30000000000E+02  0.00000000000E+00 0. -1.
          5    1    1    2  501    0  0.20420236785E+02  0.15051180574E+01 -0.21416315025E+02  0.30000000000E+02  0.47000000000E+01 0. -1.
         -5    1    1    2    0  501 -0.20420236785E+02 -0.15051180574E+01  0.21416315025E+02  0.30000000000E+02  0.47000000000E+01 0.  1.
</event>
<event>
 4    1  0.7503339E-002  0.6000000E+02  0.7546771E-02  0.1259629E+00
         11   -1    0    0    0    0  0.00000000000E+00  0.00000000000E+00  0.30000000000E+02  0.30000000000E+02  0.00000000000E+00 0.  1.
        -11   -1    0    0    0    0 -0.00000000000E+00 -0.00000000000E+00 -0.30000000000E+02  0.30000000000E+02  0.00000000000E+00 0. -1.
          5    1    1    2  501    0 -0.25803589982E+02 -0.62229748602E+01 -0.13166598950E+02  0.30000000000E+02  0.47000000000E+01 0. -1.
         -5    1    1    2    0  501  0.25803589982E+02  0.62229748602E+01  0.13166598950E+02  0.30000000000E+02  0.47000000000E+01 0.  1.
</event>
<event>
 4    1  0.7503339E-002  0.6000000E+02  0.7546771E-02  0.1259629E+00
         11   -1    0    0    0    0  0.00000000000E+00  0.00000000000E+00  0.30000000000E+02  0.30000000000E+02  0.00000000000E+00 0.  1.
        -11   -1    0    0    0    0 -0.00000000000E+00 -0.00000000000E+00 -0.30000000000E+02  0.30000000000E+02  0.00000000000E+00 0. -1.
          5    1    1    2  501    0 -0.15459268298E+02 -0.24004719083E+02 -0.79179849360E+01  0.30000000000E+02  0.47000000000E+01 0. -1.
         -5    1    1    2    0  501  0.15459268298E+02  0.24004719083E+02  0.79179849360E+01  0.30000000000E+02  0.47000000000E+01 0.  1.
</event>
<event>
 4    1  0.7503339E-002  0.6000000E+02  0.7546771E-02  0.1259629E+00
         11   -1    0    0    0    0  0.00000000000E+00  0.00000000000E+00  0.30000000000E+02  0.30000000000E+02  0.00000000000E+00 0. -1.
        -11   -1    0    0    0    0 -0.00000000000E+00 -0.00000000000E+00 -0.30000000000E+02  0.30000000000E+02  0.00000000000E+00 0.  1.
          5    1    1    2  501    0  0.24398599529E+02 -0.15956197802E+02  0.52932119463E+01  0.30000000000E+02  0.47000000000E+01 0.  1.
         -5    1    1    2    0  501 -0.24398599529E+02  0.15956197802E+02 -0.52932119463E+01  0.30000000000E+02  0.47000000000E+01 0. -1.
</event>
<event>
 4    1  0.7503339E-002  0.6000000E+02  0.7546771E-02  0.1259629E+00
         11   -1    0    0    0    0  0.00000000000E+00  0.00000000000E+00  0.30000000000E+02  0.30000000000E+02  0.00000000000E+00 0. -1.
        -11   -1    0    0    0    0 -0.00000000000E+00 -0.00000000000E+00 -0.30000000000E+02  0.30000000000E+02  0.00000000000E+00 0.  1.
          5    1    1    2  501    0 -0.11562908235E+02 -0.14713617608E+02 -0.22972126807E+02  0.30000000000E+02  0.47000000000E+01 0.  1.
         -5    1    1    2    0  501  0.11562908235E+02  0.14713617608E+02  0.22972126807E+02  0.30000000000E+02  0.47000000000E+01 0. -1.
</event>
<event>
 4    1  0.7503339E-002  0.6000000E+02  0.7546771E-02  0.1259629E+00
         11   -1    0    0    0    0  0.00000000000E+00  0.00000000000E+00  0.30000000000E+02  0.30000000000E+02  0.00000000000E+00 0.  1.
        -11   -1    0    0    0    0 -0.00000000000E+00 -0.00000000000E+00 -0.30000000000E+02  0.30000000000E+02  0.00000000000E+00 0. -1.
          5    1    1    2  501    0 -0.17803743020E+02  0.97604010579E+01 -0.21579418566E+02  0.30000000000E+02  0.47000000000E+01 0. -1.
         -5    1    1    2    0  501  0.17803743020E+02 -0.97604010579E+01  0.21579418566E+02  0.30000000000E+02  0.47000000000E+01 0.  1.
</event>
<event>
 4    1  0.7503339E-002  0.6000000E+02  0.7546771E-02  0.1259629E+00
         11   -1    0    0    0    0  0.00000000000E+00  0.00000000000E+00  0.30000000000E+02  0.30000000000E+02  0.00000000000E+00 0.  1.
        -11   -1    0    0    0    0 -0.00000000000E+00 -0.00000000000E+00 -0.30000000000E+02  0.30000000000E+02  0.00000000000E+00 0. -1.
          5    1    1    2  501    0 -0.12320445794E+02 -0.13986419289E+02 -0.23032513777E+02  0.30000000000E+02  0.47000000000E+01 0. -1.
         -5    1    1    2    0  501  0.12320445794E+02  0.13986419289E+02  0.23032513777E+02  0.30000000000E+02  0.47000000000E+01 0.  1.
</event>
<event>
 4    1  0.7503339E-002  0.6000000E+02  0.7546771E-02  0.1259629E+00
         11   -1    0    0    0    0  0.00000000000E+00  0.00000000000E+00  0.30000000000E+02  0.30000000000E+02  0.00000000000E+00 0. -1.
        -11   -1    0    0    0    0 -0.00000000000E+00 -0.00000000000E+00 -0.30000000000E+02  0.30000000000E+02  0.00000000000E+00 0.  1.
          5    1    1    2  501    0  0.24451508001E+02  0.71889432874E+01 -0.15111348414E+02  0.30000000000E+02  0.47000000000E+01 0.  1.
         -5    1    1    2    0  501 -0.24451508001E+02 -0.71889432874E+01  0.15111348414E+02  0.30000000000E+02  0.47000000000E+01 0. -1.
</event>
<event>
 4    1  0.7503339E-002  0.6000000E+02  0.7546771E-02  0.1259629E+00
         11   -1    0    0    0    0  0.00000000000E+00  0.00000000000E+00  0.30000000000E+02  0.30000000000E+02  0.00000000000E+00 0.  1.
        -11   -1    0    0    0    0 -0.00000000000E+00 -0.00000000000E+00 -0.30000000000E+02  0.30000000000E+02  0.00000000000E+00 0. -1.
          5    1    1    2  501    0  0.23570966008E+02 -0.10066824006E+02 -0.14865349504E+02  0.30000000000E+02  0.47000000000E+01 0. -1.
         -5    1    1    2    0  501 -0.23570966008E+02  0.10066824006E+02  0.14865349504E+02  0.30000000000E+02  0.47000000000E+01 0.  1.
</event>
<event>
 4    1  0.7503339E-002  0.6000000E+02  0.7546771E-02  0.1259629E+00
         11   -1    0    0    0    0  0.00000000000E+00  0.00000000000E+00  0.30000000000E+02  0.30000000000E+02  0.00000000000E+00 0.  1.
        -11   -1    0    0    0    0 -0.00000000000E+00 -0.00000000000E+00 -0.30000000000E+02  0.30000000000E+02  0.00000000000E+00 0. -1.
          5    1    1    2  501    0  0.14087498628E+01  0.16277082020E+01 -0.29551243457E+02  0.30000000000E+02  0.47000000000E+01 0. -1.
         -5    1    1    2    0  501 -0.14087498628E+01 -0.16277082020E+01  0.29551243457E+02  0.30000000000E+02  0.47000000000E+01 0.  1.
</event>
<event>
 4    1  0.7503339E-002  0.6000000E+02  0.7546771E-02  0.1259629E+00
         11   -1    0    0    0    0  0.00000000000E+00  0.00000000000E+00  0.30000000000E+02  0.30000000000E+02  0.00000000000E+00 0.  1.
        -11   -1    0    0    0    0 -0.00000000000E+00 -0.00000000000E+00 -0.30000000000E+02  0.30000000000E+02  0.00000000000E+00 0. -1.
          5    1    1    2  501    0  0.51595468087E+01  0.91823567155E+01 -0.27694284643E+02  0.30000000000E+02  0.47000000000E+01 0. -1.
         -5    1    1    2    0  501 -0.51595468087E+01 -0.91823567155E+01  0.27694284643E+02  0.30000000000E+02  0.47000000000E+01 0.  1.
</event>
<event>
 4    1  0.7503339E-002  0.6000000E+02  0.7546771E-02  0.1259629E+00
         11   -1    0    0    0    0  0.00000000000E+00  0.00000000000E+00  0.30000000000E+02  0.30000000000E+02  0.00000000000E+00 0. -1.
        -11   -1    0    0    0    0 -0.00000000000E+00 -0.00000000000E+00 -0.30000000000E+02  0.30000000000E+02  0.00000000000E+00 0.  1.
          5    1    1    2  501    0 -0.23409238474E+02 -0.99491193956E+01 -0.15196465948E+02  0.30000000000E+02  0.47000000000E+01 0.  1.
         -5    1    1    2    0  501  0.23409238474E+02  0.99491193956E+01  0.15196465948E+02  0.30000000000E+02  0.47000000000E+01 0. -1.
</event>
<event>
 4    1  0.7503339E-002  0.6000000E+02  0.7546771E-02  0.1259629E+00
         11   -1    0    0    0    0  0.00000000000E+00  0.00000000000E+00  0.30000000000E+02  0.30000000000E+02  0.00000000000E+00 0. -1.
        -11   -1    0    0    0    0 -0.00000000000E+00 -0.00000000000E+00 -0.30000000000E+02  0.30000000000E+02  0.00000000000E+00 0.  1.
          5    1    1    2  501    0  0.34779696780E+01 -0.19055392471E+02 -0.22421100435E+02  0.30000000000E+02  0.47000000000E+01 0.  1.
         -5    1    1    2    0  501 -0.34779696780E+01  0.19055392471E+02  0.22421100435E+02  0.30000000000E+02  0.47000000000E+01 0. -1.
</event>
<event>
 4    1  0.7503339E-002  0.6000000E+02  0.7546771E-02  0.1259629E+00
         11   -1    0    0    0    0  0.00000000000E+00  0.00000000000E+00  0.30000000000E+02  0.30000000000E+02  0.00000000000E+00 0.  1.
        -11   -1    0    0    0    0 -0.00000000000E+00 -0.00000000000E+00 -0.30000000000E+02  0.30000000000E+02  0.00000000000E+00 0. -1.
          5    1    1    2  501    0  0.14727657488E+01 -0.20800020164E+02 -0.21049943521E+02  0.30000000000E+02  0.47000000000E+01 0. -1.
         -5    1    1    2    0  501 -0.14727657488E+01  0.20800020164E+02  0.21049943521E+02  0.30000000000E+02  0.47000000000E+01 0.  1.
</event>
<event>
 4    1  0.7503339E-002  0.6000000E+02  0.7546771E-02  0.1259629E+00
         11   -1    0    0    0    0  0.00000000000E+00  0.00000000000E+00  0.30000000000E+02  0.30000000000E+02  0.00000000000E+00 0.  1.
        -11   -1    0    0    0    0 -0.00000000000E+00 -0.00000000000E+00 -0.30000000000E+02  0.30000000000E+02  0.00000000000E+00 0. -1.
          5    1    1    2  501    0  0.93018151776E+00  0.27383989676E+02 -0.11276607281E+02  0.30000000000E+02  0.47000000000E+01 0. -1.
         -5    1    1    2    0  501 -0.93018151776E+00 -0.27383989676E+02  0.11276607281E+02  0.30000000000E+02  0.47000000000E+01 0.  1.
</event>
<event>
 4    1  0.7503339E-002  0.6000000E+02  0.7546771E-02  0.1259629E+00
         11   -1    0    0    0    0  0.00000000000E+00  0.00000000000E+00  0.30000000000E+02  0.30000000000E+02  0.00000000000E+00 0. -1.
        -11   -1    0    0    0    0 -0.00000000000E+00 -0.00000000000E+00 -0.30000000000E+02  0.30000000000E+02  0.00000000000E+00 0.  1.
          5    1    1    2  501    0 -0.22600487446E+02  0.64728118186E+01 -0.18034152998E+02  0.30000000000E+02  0.47000000000E+01 0.  1.
         -5    1    1    2    0  501  0.22600487446E+02 -0.64728118186E+01  0.18034152998E+02  0.30000000000E+02  0.47000000000E+01 0. -1.
</event>
<event>
 4    1  0.7503339E-002  0.6000000E+02  0.7546771E-02  0.1259629E+00
         11   -1    0    0    0    0  0.00000000000E+00  0.00000000000E+00  0.30000000000E+02  0.30000000000E+02  0.00000000000E+00 0. -1.
        -11   -1    0    0    0    0 -0.00000000000E+00 -0.00000000000E+00 -0.30000000000E+02  0.30000000000E+02  0.00000000000E+00 0.  1.
          5    1    1    2  501    0  0.17267753245E+02  0.20347593530E+02 -0.12872844885E+02  0.30000000000E+02  0.47000000000E+01 0. -1.
         -5    1    1    2    0  501 -0.17267753245E+02 -0.20347593530E+02  0.12872844885E+02  0.30000000000E+02  0.47000000000E+01 0.  1.
</event>
<event>
 4    1  0.7503339E-002  0.6000000E+02  0.7546771E-02  0.1259629E+00
         11   -1    0    0    0    0  0.00000000000E+00  0.00000000000E+00  0.30000000000E+02  0.30000000000E+02  0.00000000000E+00 0. -1.
        -11   -1    0    0    0    0 -0.00000000000E+00 -0.00000000000E+00 -0.30000000000E+02  0.30000000000E+02  0.00000000000E+00 0.  1.
          5    1    1    2  501    0  0.33488556015E+01 -0.69603467464E+01 -0.28605047445E+02  0.30000000000E+02  0.47000000000E+01 0.  1.
         -5    1    1    2    0  501 -0.33488556015E+01  0.69603467464E+01  0.28605047445E+02  0.30000000000E+02  0.47000000000E+01 0. -1.
</event>
<event>
 4    1  0.7503339E-002  0.6000000E+02  0.7546771E-02  0.1259629E+00
         11   -1    0    0    0    0  0.00000000000E+00  0.00000000000E+00  0.30000000000E+02  0.30000000000E+02  0.00000000000E+00 0.  1.
        -11   -1    0    0    0    0 -0.00000000000E+00 -0.00000000000E+00 -0.30000000000E+02  0.30000000000E+02  0.00000000000E+00 0. -1.
          5    1    1    2  501    0 -0.16944440434E+02  0.55817807740E+01 -0.23656704373E+02  0.30000000000E+02  0.47000000000E+01 0. -1.
         -5    1    1    2    0  501  0.16944440434E+02 -0.55817807740E+01  0.23656704373E+02  0.30000000000E+02  0.47000000000E+01 0.  1.
</event>
<event>
 4    1  0.7503339E-002  0.6000000E+02  0.7546771E-02  0.1259629E+00
         11   -1    0    0    0    0  0.00000000000E+00  0.00000000000E+00  0.30000000000E+02  0.30000000000E+02  0.00000000000E+00 0.  1.
        -11   -1    0    0    0    0 -0.00000000000E+00 -0.00000000000E+00 -0.30000000000E+02  0.30000000000E+02  0.00000000000E+00 0. -1.
          5    1    1    2  501    0  0.18350988776E+02  0.18352858800E+02 -0.14294187098E+02  0.30000000000E+02  0.47000000000E+01 0. -1.
         -5    1    1    2    0  501 -0.18350988776E+02 -0.18352858800E+02  0.14294187098E+02  0.30000000000E+02  0.47000000000E+01 0.  1.
</event>
<event>
 4    1  0.7503339E-002  0.6000000E+02  0.7546771E-02  0.1259629E+00
         11   -1    0    0    0    0  0.00000000000E+00  0.00000000000E+00  0.30000000000E+02  0.30000000000E+02  0.00000000000E+00 0.  1.
        -11   -1    0    0    0    0 -0.00000000000E+00 -0.00000000000E+00 -0.30000000000E+02  0.30000000000E+02  0.00000000000E+00 0. -1.
          5    1    1    2  501    0  0.21902221174E+02 -0.57421098319E+01 -0.19111014686E+02  0.30000000000E+02  0.47000000000E+01 0. -1.
         -5    1    1    2    0  501 -0.21902221174E+02  0.57421098319E+01  0.19111014686E+02  0.30000000000E+02  0.47000000000E+01 0.  1.
</event>
<event>
 4    1  0.7503339E-002  0.6000000E+02  0.7546771E-02  0.1259629E+00
         11   -1    0    0    0    0  0.00000000000E+00  0.00000000000E+00  0.30000000000E+02  0.30000000000E+02  0.00000000000E+00 0.  1.
        -11   -1    0    0    0    0 -0.00000000000E+00 -0.00000000000E+00 -0.30000000000E+02  0.30000000000E+02  0.00000000000E+00 0. -1.
          5    1    1    2  501    0  0.14350931559E+02 -0.12638330133E+02 -0.22632573315E+02  0.30000000000E+02  0.47000000000E+01 0. -1.
         -5    1    1    2    0  501 -0.14350931559E+02  0.12638330133E+02  0.22632573315E+02  0.30000000000E+02  0.47000000000E+01 0.  1.
</event>
<event>
 4    1  0.7503339E-002  0.6000000E+02  0.7546771E-02  0.1259629E+00
         11   -1    0    0    0    0  0.00000000000E+00  0.00000000000E+00  0.30000000000E+02  0.30000000000E+02  0.00000000000E+00 0.  1.
        -11   -1    0    0    0    0 -0.00000000000E+00 -0.00000000000E+00 -0.30000000000E+02  0.30000000000E+02  0.00000000000E+00 0. -1.
          5    1    1    2  501    0  0.59969191325E+01 -0.11956745888E+02 -0.26438290200E+02  0.30000000000E+02  0.47000000000E+01 0. -1.
         -5    1    1    2    0  501 -0.59969191325E+01  0.11956745888E+02  0.26438290200E+02  0.30000000000E+02  0.47000000000E+01 0.  1.
</event>
<event>
 4    1  0.7503339E-002  0.6000000E+02  0.7546771E-02  0.1259629E+00
         11   -1    0    0    0    0  0.00000000000E+00  0.00000000000E+00  0.30000000000E+02  0.30000000000E+02  0.00000000000E+00 0.  1.
        -11   -1    0    0    0    0 -0.00000000000E+00 -0.00000000000E+00 -0.30000000000E+02  0.30000000000E+02  0.00000000000E+00 0. -1.
          5    1    1    2  501    0 -0.16484539849E+02 -0.23545227902E+02 -0.71966790259E+01  0.30000000000E+02  0.47000000000E+01 0. -1.
         -5    1    1    2    0  501  0.16484539849E+02  0.23545227902E+02  0.71966790259E+01  0.30000000000E+02  0.47000000000E+01 0.  1.
</event>
<event>
 4    1  0.7503339E-002  0.6000000E+02  0.7546771E-02  0.1259629E+00
         11   -1    0    0    0    0  0.00000000000E+00  0.00000000000E+00  0.30000000000E+02  0.30000000000E+02  0.00000000000E+00 0.  1.
        -11   -1    0    0    0    0 -0.00000000000E+00 -0.00000000000E+00 -0.30000000000E+02  0.30000000000E+02  0.00000000000E+00 0. -1.
          5    1    1    2  501    0  0.11740320220E+02  0.20907597484E+02 -0.17405379874E+02  0.30000000000E+02  0.47000000000E+01 0. -1.
         -5    1    1    2    0  501 -0.11740320220E+02 -0.20907597484E+02  0.17405379874E+02  0.30000000000E+02  0.47000000000E+01 0.  1.
</event>
<event>
 4    1  0.7503339E-002  0.6000000E+02  0.7546771E-02  0.1259629E+00
         11   -1    0    0    0    0  0.00000000000E+00  0.00000000000E+00  0.30000000000E+02  0.30000000000E+02  0.00000000000E+00 0. -1.
        -11   -1    0    0    0    0 -0.00000000000E+00 -0.00000000000E+00 -0.30000000000E+02  0.30000000000E+02  0.00000000000E+00 0.  1.
          5    1    1    2  501    0  0.29422426313E+02  0.34862335767E+01 -0.27749829170E+00  0.30000000000E+02  0.47000000000E+01 0.  1.
         -5    1    1    2    0  501 -0.29422426313E+02 -0.34862335767E+01  0.27749829170E+00  0.30000000000E+02  0.47000000000E+01 0. -1.
</event>
<event>
 4    1  0.7503339E-002  0.6000000E+02  0.7546771E-02  0.1259629E+00
         11   -1    0    0    0    0  0.00000000000E+00  0.00000000000E+00  0.30000000000E+02  0.30000000000E+02  0.00000000000E+00 0.  1.
        -11   -1    0    0    0    0 -0.00000000000E+00 -0.00000000000E+00 -0.30000000000E+02  0.30000000000E+02  0.00000000000E+00 0. -1.
          5    1    1    2  501    0  0.53788822748E+01 -0.16578365371E+02 -0.23961123244E+02  0.30000000000E+02  0.47000000000E+01 0. -1.
         -5    1    1    2    0  501 -0.53788822748E+01  0.16578365371E+02  0.23961123244E+02  0.30000000000E+02  0.47000000000E+01 0.  1.
</event>
<event>
 4    1  0.7503339E-002  0.6000000E+02  0.7546771E-02  0.1259629E+00
         11   -1    0    0    0    0  0.00000000000E+00  0.00000000000E+00  0.30000000000E+02  0.30000000000E+02  0.00000000000E+00 0.  1.
        -11   -1    0    0    0    0 -0.00000000000E+00 -0.00000000000E+00 -0.30000000000E+02  0.30000000000E+02  0.00000000000E+00 0. -1.
          5    1    1    2  501    0  0.15088851287E+02 -0.22178016143E+02 -0.12584600384E+02  0.30000000000E+02  0.47000000000E+01 0. -1.
         -5    1    1    2    0  501 -0.15088851287E+02  0.22178016143E+02  0.12584600384E+02  0.30000000000E+02  0.47000000000E+01 0.  1.
</event>
<event>
 4    1  0.7503339E-002  0.6000000E+02  0.7546771E-02  0.1259629E+00
         11   -1    0    0    0    0  0.00000000000E+00  0.00000000000E+00  0.30000000000E+02  0.30000000000E+02  0.00000000000E+00 0.  1.
        -11   -1    0    0    0    0 -0.00000000000E+00 -0.00000000000E+00 -0.30000000000E+02  0.30000000000E+02  0.00000000000E+00 0. -1.
          5    1    1    2  501    0  0.21173009573E+02  0.10335869393E+02 -0.17966175707E+02  0.30000000000E+02  0.47000000000E+01 0. -1.
         -5    1    1    2    0  501 -0.21173009573E+02 -0.10335869393E+02  0.17966175707E+02  0.30000000000E+02  0.47000000000E+01 0.  1.
</event>
<event>
 4    1  0.7503339E-002  0.6000000E+02  0.7546771E-02  0.1259629E+00
         11   -1    0    0    0    0  0.00000000000E+00  0.00000000000E+00  0.30000000000E+02  0.30000000000E+02  0.00000000000E+00 0.  1.
        -11   -1    0    0    0    0 -0.00000000000E+00 -0.00000000000E+00 -0.30000000000E+02  0.30000000000E+02  0.00000000000E+00 0. -1.
          5    1    1    2  501    0  0.22289545783E+02 -0.17785288749E+02 -0.80479595493E+01  0.30000000000E+02  0.47000000000E+01 0. -1.
         -5    1    1    2    0  501 -0.22289545783E+02  0.17785288749E+02  0.80479595493E+01  0.30000000000E+02  0.47000000000E+01 0.  1.
</event>
<event>
 4    1  0.7503339E-002  0.6000000E+02  0.7546771E-02  0.1259629E+00
         11   -1    0    0    0    0  0.00000000000E+00  0.00000000000E+00  0.30000000000E+02  0.30000000000E+02  0.00000000000E+00 0.  1.
        -11   -1    0    0    0    0 -0.00000000000E+00 -0.00000000000E+00 -0.30000000000E+02  0.30000000000E+02  0.00000000000E+00 0. -1.
          5    1    1    2  501    0 -0.18839364927E+02  0.21371586195E+02  0.81390191467E+01  0.30000000000E+02  0.47000000000E+01 0. -1.
         -5    1    1    2    0  501  0.18839364927E+02 -0.21371586195E+02 -0.81390191467E+01  0.30000000000E+02  0.47000000000E+01 0.  1.
</event>
<event>
 4    1  0.7503339E-002  0.6000000E+02  0.7546771E-02  0.1259629E+00
         11   -1    0    0    0    0  0.00000000000E+00  0.00000000000E+00  0.30000000000E+02  0.30000000000E+02  0.00000000000E+00 0.  1.
        -11   -1    0    0    0    0 -0.00000000000E+00 -0.00000000000E+00 -0.30000000000E+02  0.30000000000E+02  0.00000000000E+00 0. -1.
          5    1    1    2  501    0 -0.11350811670E+01 -0.13575489171E+02 -0.26312120487E+02  0.30000000000E+02  0.47000000000E+01 0. -1.
         -5    1    1    2    0  501  0.11350811670E+01  0.13575489171E+02  0.26312120487E+02  0.30000000000E+02  0.47000000000E+01 0.  1.
</event>
<event>
 4    1  0.7503339E-002  0.6000000E+02  0.7546771E-02  0.1259629E+00
         11   -1    0    0    0    0  0.00000000000E+00  0.00000000000E+00  0.30000000000E+02  0.30000000000E+02  0.00000000000E+00 0. -1.
        -11   -1    0    0    0    0 -0.00000000000E+00 -0.00000000000E+00 -0.30000000000E+02  0.30000000000E+02  0.00000000000E+00 0.  1.
          5    1    1    2  501    0 -0.62087870272E+01  0.23410035648E+02 -0.17068426835E+02  0.30000000000E+02  0.47000000000E+01 0.  1.
         -5    1    1    2    0  501  0.62087870272E+01 -0.23410035648E+02  0.17068426835E+02  0.30000000000E+02  0.47000000000E+01 0. -1.
</event>
<event>
 4    1  0.7503339E-002  0.6000000E+02  0.7546771E-02  0.1259629E+00
         11   -1    0    0    0    0  0.00000000000E+00  0.00000000000E+00  0.30000000000E+02  0.30000000000E+02  0.00000000000E+00 0.  1.
        -11   -1    0    0    0    0 -0.00000000000E+00 -0.00000000000E+00 -0.30000000000E+02  0.30000000000E+02  0.00000000000E+00 0. -1.
          5    1    1    2  501    0  0.93486021536E+01  0.17501819097E+02 -0.22004544214E+02  0.30000000000E+02  0.47000000000E+01 0. -1.
         -5    1    1    2    0  501 -0.93486021536E+01 -0.17501819097E+02  0.22004544214E+02  0.30000000000E+02  0.47000000000E+01 0.  1.
</event>
<event>
 4    1  0.7503339E-002  0.6000000E+02  0.7546771E-02  0.1259629E+00
         11   -1    0    0    0    0  0.00000000000E+00  0.00000000000E+00  0.30000000000E+02  0.30000000000E+02  0.00000000000E+00 0.  1.
        -11   -1    0    0    0    0 -0.00000000000E+00 -0.00000000000E+00 -0.30000000000E+02  0.30000000000E+02  0.00000000000E+00 0. -1.
          5    1    1    2  501    0 -0.16246656822E+02 -0.83701397181E+01 -0.23321597355E+02  0.30000000000E+02  0.47000000000E+01 0. -1.
         -5    1    1    2    0  501  0.16246656822E+02  0.83701397181E+01  0.23321597355E+02  0.30000000000E+02  0.47000000000E+01 0.  1.
</event>
<event>
 4    1  0.7503339E-002  0.6000000E+02  0.7546771E-02  0.1259629E+00
         11   -1    0    0    0    0  0.00000000000E+00  0.00000000000E+00  0.30000000000E+02  0.30000000000E+02  0.00000000000E+00 0. -1.
        -11   -1    0    0    0    0 -0.00000000000E+00 -0.00000000000E+00 -0.30000000000E+02  0.30000000000E+02  0.00000000000E+00 0.  1.
          5    1    1    2  501    0 -0.10277790621E+02 -0.11951972870E+02  0.25088391030E+02  0.30000000000E+02  0.47000000000E+01 0. -1.
         -5    1    1    2    0  501  0.10277790621E+02  0.11951972870E+02 -0.25088391030E+02  0.30000000000E+02  0.47000000000E+01 0.  1.
</event>
<event>
 4    1  0.7503339E-002  0.6000000E+02  0.7546771E-02  0.1259629E+00
         11   -1    0    0    0    0  0.00000000000E+00  0.00000000000E+00  0.30000000000E+02  0.30000000000E+02  0.00000000000E+00 0. -1.
        -11   -1    0    0    0    0 -0.00000000000E+00 -0.00000000000E+00 -0.30000000000E+02  0.30000000000E+02  0.00000000000E+00 0.  1.
          5    1    1    2  501    0 -0.18677758201E+02  0.10307735633E+02  0.20562148106E+02  0.30000000000E+02  0.47000000000E+01 0.  1.
         -5    1    1    2    0  501  0.18677758201E+02 -0.10307735633E+02 -0.20562148106E+02  0.30000000000E+02  0.47000000000E+01 0.  1.
</event>
<event>
 4    1  0.7503339E-002  0.6000000E+02  0.7546771E-02  0.1259629E+00
         11   -1    0    0    0    0  0.00000000000E+00  0.00000000000E+00  0.30000000000E+02  0.30000000000E+02  0.00000000000E+00 0.  1.
        -11   -1    0    0    0    0 -0.00000000000E+00 -0.00000000000E+00 -0.30000000000E+02  0.30000000000E+02  0.00000000000E+00 0. -1.
          5    1    1    2  501    0  0.74207257882E+01  0.49060993840E+00 -0.28681041311E+02  0.30000000000E+02  0.47000000000E+01 0. -1.
         -5    1    1    2    0  501 -0.74207257882E+01 -0.49060993840E+00  0.28681041311E+02  0.30000000000E+02  0.47000000000E+01 0.  1.
</event>
<event>
 4    1  0.7503339E-002  0.6000000E+02  0.7546771E-02  0.1259629E+00
         11   -1    0    0    0    0  0.00000000000E+00  0.00000000000E+00  0.30000000000E+02  0.30000000000E+02  0.00000000000E+00 0.  1.
        -11   -1    0    0    0    0 -0.00000000000E+00 -0.00000000000E+00 -0.30000000000E+02  0.30000000000E+02  0.00000000000E+00 0. -1.
          5    1    1    2  501    0  0.66479713021E+01  0.19951875757E+02 -0.20871922081E+02  0.30000000000E+02  0.47000000000E+01 0. -1.
         -5    1    1    2    0  501 -0.66479713021E+01 -0.19951875757E+02  0.20871922081E+02  0.30000000000E+02  0.47000000000E+01 0.  1.
</event>
<event>
 4    1  0.7503339E-002  0.6000000E+02  0.7546771E-02  0.1259629E+00
         11   -1    0    0    0    0  0.00000000000E+00  0.00000000000E+00  0.30000000000E+02  0.30000000000E+02  0.00000000000E+00 0.  1.
        -11   -1    0    0    0    0 -0.00000000000E+00 -0.00000000000E+00 -0.30000000000E+02  0.30000000000E+02  0.00000000000E+00 0. -1.
          5    1    1    2  501    0 -0.24080415780E+02  0.16965711851E+02  0.31950269559E+01  0.30000000000E+02  0.47000000000E+01 0. -1.
         -5    1    1    2    0  501  0.24080415780E+02 -0.16965711851E+02 -0.31950269559E+01  0.30000000000E+02  0.47000000000E+01 0.  1.
</event>
<event>
 4    1  0.7503339E-002  0.6000000E+02  0.7546771E-02  0.1259629E+00
         11   -1    0    0    0    0  0.00000000000E+00  0.00000000000E+00  0.30000000000E+02  0.30000000000E+02  0.00000000000E+00 0. -1.
        -11   -1    0    0    0    0 -0.00000000000E+00 -0.00000000000E+00 -0.30000000000E+02  0.30000000000E+02  0.00000000000E+00 0.  1.
          5    1    1    2  501    0  0.13196816280E+02  0.23004637715E+02 -0.13211384623E+02  0.30000000000E+02  0.47000000000E+01 0.  1.
         -5    1    1    2    0  501 -0.13196816280E+02 -0.23004637715E+02  0.13211384623E+02  0.30000000000E+02  0.47000000000E+01 0. -1.
</event>
<event>
 4    1  0.7503339E-002  0.6000000E+02  0.7546771E-02  0.1259629E+00
         11   -1    0    0    0    0  0.00000000000E+00  0.00000000000E+00  0.30000000000E+02  0.30000000000E+02  0.00000000000E+00 0.  1.
        -11   -1    0    0    0    0 -0.00000000000E+00 -0.00000000000E+00 -0.30000000000E+02  0.30000000000E+02  0.00000000000E+00 0. -1.
          5    1    1    2  501    0  0.66234452455E+01  0.21519878154E+02 -0.19259668152E+02  0.30000000000E+02  0.47000000000E+01 0. -1.
         -5    1    1    2    0  501 -0.66234452455E+01 -0.21519878154E+02  0.19259668152E+02  0.30000000000E+02  0.47000000000E+01 0.  1.
</event>
<event>
 4    1  0.7503339E-002  0.6000000E+02  0.7546771E-02  0.1259629E+00
         11   -1    0    0    0    0  0.00000000000E+00  0.00000000000E+00  0.30000000000E+02  0.30000000000E+02  0.00000000000E+00 0.  1.
        -11   -1    0    0    0    0 -0.00000000000E+00 -0.00000000000E+00 -0.30000000000E+02  0.30000000000E+02  0.00000000000E+00 0. -1.
          5    1    1    2  501    0  0.29581315982E+02  0.11848071091E+01 -0.12049800432E+01  0.30000000000E+02  0.47000000000E+01 0. -1.
         -5    1    1    2    0  501 -0.29581315982E+02 -0.11848071091E+01  0.12049800432E+01  0.30000000000E+02  0.47000000000E+01 0.  1.
</event>
<event>
 4    1  0.7503339E-002  0.6000000E+02  0.7546771E-02  0.1259629E+00
         11   -1    0    0    0    0  0.00000000000E+00  0.00000000000E+00  0.30000000000E+02  0.30000000000E+02  0.00000000000E+00 0.  1.
        -11   -1    0    0    0    0 -0.00000000000E+00 -0.00000000000E+00 -0.30000000000E+02  0.30000000000E+02  0.00000000000E+00 0. -1.
          5    1    1    2  501    0  0.48473727148E+01  0.28535355324E+02  0.63361245483E+01  0.30000000000E+02  0.47000000000E+01 0.  1.
         -5    1    1    2    0  501 -0.48473727148E+01 -0.28535355324E+02 -0.63361245483E+01  0.30000000000E+02  0.47000000000E+01 0. -1.
</event>
<event>
 4    1  0.7503339E-002  0.6000000E+02  0.7546771E-02  0.1259629E+00
         11   -1    0    0    0    0  0.00000000000E+00  0.00000000000E+00  0.30000000000E+02  0.30000000000E+02  0.00000000000E+00 0.  1.
        -11   -1    0    0    0    0 -0.00000000000E+00 -0.00000000000E+00 -0.30000000000E+02  0.30000000000E+02  0.00000000000E+00 0. -1.
          5    1    1    2  501    0  0.32625019663E+01 -0.18504816147E+02  0.22909340023E+02  0.30000000000E+02  0.47000000000E+01 0. -1.
         -5    1    1    2    0  501 -0.32625019663E+01  0.18504816147E+02 -0.22909340023E+02  0.30000000000E+02  0.47000000000E+01 0.  1.
</event>
<event>
 4    1  0.7503339E-002  0.6000000E+02  0.7546771E-02  0.1259629E+00
         11   -1    0    0    0    0  0.00000000000E+00  0.00000000000E+00  0.30000000000E+02  0.30000000000E+02  0.00000000000E+00 0.  1.
        -11   -1    0    0    0    0 -0.00000000000E+00 -0.00000000000E+00 -0.30000000000E+02  0.30000000000E+02  0.00000000000E+00 0. -1.
          5    1    1    2  501    0  0.13544484360E+02 -0.10781423898E+01 -0.26330487128E+02  0.30000000000E+02  0.47000000000E+01 0. -1.
         -5    1    1    2    0  501 -0.13544484360E+02  0.10781423898E+01  0.26330487128E+02  0.30000000000E+02  0.47000000000E+01 0.  1.
</event>
<event>
 4    1  0.7503339E-002  0.6000000E+02  0.7546771E-02  0.1259629E+00
         11   -1    0    0    0    0  0.00000000000E+00  0.00000000000E+00  0.30000000000E+02  0.30000000000E+02  0.00000000000E+00 0.  1.
        -11   -1    0    0    0    0 -0.00000000000E+00 -0.00000000000E+00 -0.30000000000E+02  0.30000000000E+02  0.00000000000E+00 0. -1.
          5    1    1    2  501    0  0.28847492474E+02 -0.12496605575E+01  0.66460910654E+01  0.30000000000E+02  0.47000000000E+01 0.  1.
         -5    1    1    2    0  501 -0.28847492474E+02  0.12496605575E+01 -0.66460910654E+01  0.30000000000E+02  0.47000000000E+01 0. -1.
</event>
<event>
 4    1  0.7503339E-002  0.6000000E+02  0.7546771E-02  0.1259629E+00
         11   -1    0    0    0    0  0.00000000000E+00  0.00000000000E+00  0.30000000000E+02  0.30000000000E+02  0.00000000000E+00 0.  1.
        -11   -1    0    0    0    0 -0.00000000000E+00 -0.00000000000E+00 -0.30000000000E+02  0.30000000000E+02  0.00000000000E+00 0. -1.
          5    1    1    2  501    0 -0.36037325989E+01 -0.18424222774E+02 -0.22923156993E+02  0.30000000000E+02  0.47000000000E+01 0. -1.
         -5    1    1    2    0  501  0.36037325989E+01  0.18424222774E+02  0.22923156993E+02  0.30000000000E+02  0.47000000000E+01 0.  1.
</event>
<event>
 4    1  0.7503339E-002  0.6000000E+02  0.7546771E-02  0.1259629E+00
         11   -1    0    0    0    0  0.00000000000E+00  0.00000000000E+00  0.30000000000E+02  0.30000000000E+02  0.00000000000E+00 0. -1.
        -11   -1    0    0    0    0 -0.00000000000E+00 -0.00000000000E+00 -0.30000000000E+02  0.30000000000E+02  0.00000000000E+00 0.  1.
          5    1    1    2  501    0  0.12627117438E+02 -0.20663381903E+02 -0.17073094433E+02  0.30000000000E+02  0.47000000000E+01 0.  1.
         -5    1    1    2    0  501 -0.12627117438E+02  0.20663381903E+02  0.17073094433E+02  0.30000000000E+02  0.47000000000E+01 0. -1.
</event>
<event>
 4    1  0.7503339E-002  0.6000000E+02  0.7546771E-02  0.1259629E+00
         11   -1    0    0    0    0  0.00000000000E+00  0.00000000000E+00  0.30000000000E+02  0.30000000000E+02  0.00000000000E+00 0. -1.
        -11   -1    0    0    0    0 -0.00000000000E+00 -0.00000000000E+00 -0.30000000000E+02  0.30000000000E+02  0.00000000000E+00 0.  1.
          5    1    1    2  501    0 -0.70336393518E+01  0.24712025692E+02 -0.14756480056E+02  0.30000000000E+02  0.47000000000E+01 0.  1.
         -5    1    1    2    0  501  0.70336393518E+01 -0.24712025692E+02  0.14756480056E+02  0.30000000000E+02  0.47000000000E+01 0. -1.
</event>
<event>
 4    1  0.7503339E-002  0.6000000E+02  0.7546771E-02  0.1259629E+00
         11   -1    0    0    0    0  0.00000000000E+00  0.00000000000E+00  0.30000000000E+02  0.30000000000E+02  0.00000000000E+00 0.  1.
        -11   -1    0    0    0    0 -0.00000000000E+00 -0.00000000000E+00 -0.30000000000E+02  0.30000000000E+02  0.00000000000E+00 0. -1.
          5    1    1    2  501    0  0.24724840657E+01 -0.90191747925E+01 -0.28114965919E+02  0.30000000000E+02  0.47000000000E+01 0. -1.
         -5    1    1    2    0  501 -0.24724840657E+01  0.90191747925E+01  0.28114965919E+02  0.30000000000E+02  0.47000000000E+01 0.  1.
</event>
<event>
 4    1  0.7503339E-002  0.6000000E+02  0.7546771E-02  0.1259629E+00
         11   -1    0    0    0    0  0.00000000000E+00  0.00000000000E+00  0.30000000000E+02  0.30000000000E+02  0.00000000000E+00 0.  1.
        -11   -1    0    0    0    0 -0.00000000000E+00 -0.00000000000E+00 -0.30000000000E+02  0.30000000000E+02  0.00000000000E+00 0. -1.
          5    1    1    2  501    0  0.21111437819E+02  0.18433304326E+02 -0.96140774300E+01  0.30000000000E+02  0.47000000000E+01 0. -1.
         -5    1    1    2    0  501 -0.21111437819E+02 -0.18433304326E+02  0.96140774300E+01  0.30000000000E+02  0.47000000000E+01 0.  1.
</event>
<event>
 4    1  0.7503339E-002  0.6000000E+02  0.7546771E-02  0.1259629E+00
         11   -1    0    0    0    0  0.00000000000E+00  0.00000000000E+00  0.30000000000E+02  0.30000000000E+02  0.00000000000E+00 0. -1.
        -11   -1    0    0    0    0 -0.00000000000E+00 -0.00000000000E+00 -0.30000000000E+02  0.30000000000E+02  0.00000000000E+00 0.  1.
          5    1    1    2  501    0 -0.15833325167E+02  0.23576696965E+02  0.84471992012E+01  0.30000000000E+02  0.47000000000E+01 0.  1.
         -5    1    1    2    0  501  0.15833325167E+02 -0.23576696965E+02 -0.84471992012E+01  0.30000000000E+02  0.47000000000E+01 0. -1.
</event>
<event>
 4    1  0.7503339E-002  0.6000000E+02  0.7546771E-02  0.1259629E+00
         11   -1    0    0    0    0  0.00000000000E+00  0.00000000000E+00  0.30000000000E+02  0.30000000000E+02  0.00000000000E+00 0.  1.
        -11   -1    0    0    0    0 -0.00000000000E+00 -0.00000000000E+00 -0.30000000000E+02  0.30000000000E+02  0.00000000000E+00 0. -1.
          5    1    1    2  501    0  0.11408267145E+02 -0.27336384194E+02  0.69537037122E+00  0.30000000000E+02  0.47000000000E+01 0. -1.
         -5    1    1    2    0  501 -0.11408267145E+02  0.27336384194E+02 -0.69537037122E+00  0.30000000000E+02  0.47000000000E+01 0.  1.
</event>
<event>
 4    1  0.7503339E-002  0.6000000E+02  0.7546771E-02  0.1259629E+00
         11   -1    0    0    0    0  0.00000000000E+00  0.00000000000E+00  0.30000000000E+02  0.30000000000E+02  0.00000000000E+00 0.  1.
        -11   -1    0    0    0    0 -0.00000000000E+00 -0.00000000000E+00 -0.30000000000E+02  0.30000000000E+02  0.00000000000E+00 0. -1.
          5    1    1    2  501    0 -0.27552756663E+02  0.86404656564E+01 -0.66406290007E+01  0.30000000000E+02  0.47000000000E+01 0. -1.
         -5    1    1    2    0  501  0.27552756663E+02 -0.86404656564E+01  0.66406290007E+01  0.30000000000E+02  0.47000000000E+01 0.  1.
</event>
<event>
 4    1  0.7503339E-002  0.6000000E+02  0.7546771E-02  0.1259629E+00
         11   -1    0    0    0    0  0.00000000000E+00  0.00000000000E+00  0.30000000000E+02  0.30000000000E+02  0.00000000000E+00 0.  1.
        -11   -1    0    0    0    0 -0.00000000000E+00 -0.00000000000E+00 -0.30000000000E+02  0.30000000000E+02  0.00000000000E+00 0. -1.
          5    1    1    2  501    0 -0.10856827492E+02 -0.27552843955E+02 -0.93812943213E+00  0.30000000000E+02  0.47000000000E+01 0. -1.
         -5    1    1    2    0  501  0.10856827492E+02  0.27552843955E+02  0.93812943213E+00  0.30000000000E+02  0.47000000000E+01 0.  1.
</event>
<event>
 4    1  0.7503339E-002  0.6000000E+02  0.7546771E-02  0.1259629E+00
         11   -1    0    0    0    0  0.00000000000E+00  0.00000000000E+00  0.30000000000E+02  0.30000000000E+02  0.00000000000E+00 0. -1.
        -11   -1    0    0    0    0 -0.00000000000E+00 -0.00000000000E+00 -0.30000000000E+02  0.30000000000E+02  0.00000000000E+00 0.  1.
          5    1    1    2  501    0  0.12934365358E+01  0.80726521783E+01 -0.28479278585E+02  0.30000000000E+02  0.47000000000E+01 0.  1.
         -5    1    1    2    0  501 -0.12934365358E+01 -0.80726521783E+01  0.28479278585E+02  0.30000000000E+02  0.47000000000E+01 0. -1.
</event>
<event>
 4    1  0.7503339E-002  0.6000000E+02  0.7546771E-02  0.1259629E+00
         11   -1    0    0    0    0  0.00000000000E+00  0.00000000000E+00  0.30000000000E+02  0.30000000000E+02  0.00000000000E+00 0.  1.
        -11   -1    0    0    0    0 -0.00000000000E+00 -0.00000000000E+00 -0.30000000000E+02  0.30000000000E+02  0.00000000000E+00 0. -1.
          5    1    1    2  501    0 -0.66530692920E+01 -0.13450830114E+02 -0.25548421443E+02  0.30000000000E+02  0.47000000000E+01 0. -1.
         -5    1    1    2    0  501  0.66530692920E+01  0.13450830114E+02  0.25548421443E+02  0.30000000000E+02  0.47000000000E+01 0.  1.
</event>
<event>
 4    1  0.7503339E-002  0.6000000E+02  0.7546771E-02  0.1259629E+00
         11   -1    0    0    0    0  0.00000000000E+00  0.00000000000E+00  0.30000000000E+02  0.30000000000E+02  0.00000000000E+00 0. -1.
        -11   -1    0    0    0    0 -0.00000000000E+00 -0.00000000000E+00 -0.30000000000E+02  0.30000000000E+02  0.00000000000E+00 0.  1.
          5    1    1    2  501    0  0.26863507366E+01 -0.56527546695E+01 -0.28961006273E+02  0.30000000000E+02  0.47000000000E+01 0.  1.
         -5    1    1    2    0  501 -0.26863507366E+01  0.56527546695E+01  0.28961006273E+02  0.30000000000E+02  0.47000000000E+01 0. -1.
</event>
<event>
 4    1  0.7503339E-002  0.6000000E+02  0.7546771E-02  0.1259629E+00
         11   -1    0    0    0    0  0.00000000000E+00  0.00000000000E+00  0.30000000000E+02  0.30000000000E+02  0.00000000000E+00 0. -1.
        -11   -1    0    0    0    0 -0.00000000000E+00 -0.00000000000E+00 -0.30000000000E+02  0.30000000000E+02  0.00000000000E+00 0.  1.
          5    1    1    2  501    0  0.48686357147E+01  0.29058006893E+02  0.31366577218E+01  0.30000000000E+02  0.47000000000E+01 0. -1.
         -5    1    1    2    0  501 -0.48686357147E+01 -0.29058006893E+02 -0.31366577218E+01  0.30000000000E+02  0.47000000000E+01 0.  1.
</event>
<event>
 4    1  0.7503339E-002  0.6000000E+02  0.7546771E-02  0.1259629E+00
         11   -1    0    0    0    0  0.00000000000E+00  0.00000000000E+00  0.30000000000E+02  0.30000000000E+02  0.00000000000E+00 0.  1.
        -11   -1    0    0    0    0 -0.00000000000E+00 -0.00000000000E+00 -0.30000000000E+02  0.30000000000E+02  0.00000000000E+00 0. -1.
          5    1    1    2  501    0  0.12564070592E+02 -0.26418899686E+02  0.47006243760E+01  0.30000000000E+02  0.47000000000E+01 0. -1.
         -5    1    1    2    0  501 -0.12564070592E+02  0.26418899686E+02 -0.47006243760E+01  0.30000000000E+02  0.47000000000E+01 0.  1.
</event>
<event>
 4    1  0.7503339E-002  0.6000000E+02  0.7546771E-02  0.1259629E+00
         11   -1    0    0    0    0  0.00000000000E+00  0.00000000000E+00  0.30000000000E+02  0.30000000000E+02  0.00000000000E+00 0.  1.
        -11   -1    0    0    0    0 -0.00000000000E+00 -0.00000000000E+00 -0.30000000000E+02  0.30000000000E+02  0.00000000000E+00 0. -1.
          5    1    1    2  501    0  0.67389266773E+01 -0.32329257327E+01 -0.28671328160E+02  0.30000000000E+02  0.47000000000E+01 0. -1.
         -5    1    1    2    0  501 -0.67389266773E+01  0.32329257327E+01  0.28671328160E+02  0.30000000000E+02  0.47000000000E+01 0.  1.
</event>
<event>
 4    1  0.7503339E-002  0.6000000E+02  0.7546771E-02  0.1259629E+00
         11   -1    0    0    0    0  0.00000000000E+00  0.00000000000E+00  0.30000000000E+02  0.30000000000E+02  0.00000000000E+00 0.  1.
        -11   -1    0    0    0    0 -0.00000000000E+00 -0.00000000000E+00 -0.30000000000E+02  0.30000000000E+02  0.00000000000E+00 0. -1.
          5    1    1    2  501    0 -0.22911236433E+02 -0.31166185928E+01 -0.18527599242E+02  0.30000000000E+02  0.47000000000E+01 0. -1.
         -5    1    1    2    0  501  0.22911236433E+02  0.31166185928E+01  0.18527599242E+02  0.30000000000E+02  0.47000000000E+01 0.  1.
</event>
<event>
 4    1  0.7503339E-002  0.6000000E+02  0.7546771E-02  0.1259629E+00
         11   -1    0    0    0    0  0.00000000000E+00  0.00000000000E+00  0.30000000000E+02  0.30000000000E+02  0.00000000000E+00 0.  1.
        -11   -1    0    0    0    0 -0.00000000000E+00 -0.00000000000E+00 -0.30000000000E+02  0.30000000000E+02  0.00000000000E+00 0. -1.
          5    1    1    2  501    0 -0.11173743948E+02  0.49078312718E+00 -0.27437503132E+02  0.30000000000E+02  0.47000000000E+01 0. -1.
         -5    1    1    2    0  501  0.11173743948E+02 -0.49078312718E+00  0.27437503132E+02  0.30000000000E+02  0.47000000000E+01 0.  1.
</event>
<event>
 4    1  0.7503339E-002  0.6000000E+02  0.7546771E-02  0.1259629E+00
         11   -1    0    0    0    0  0.00000000000E+00  0.00000000000E+00  0.30000000000E+02  0.30000000000E+02  0.00000000000E+00 0.  1.
        -11   -1    0    0    0    0 -0.00000000000E+00 -0.00000000000E+00 -0.30000000000E+02  0.30000000000E+02  0.00000000000E+00 0. -1.
          5    1    1    2  501    0  0.14111131837E+02 -0.22398917057E+02 -0.13306933265E+02  0.30000000000E+02  0.47000000000E+01 0. -1.
         -5    1    1    2    0  501 -0.14111131837E+02  0.22398917057E+02  0.13306933265E+02  0.30000000000E+02  0.47000000000E+01 0.  1.
</event>
<event>
 4    1  0.7503339E-002  0.6000000E+02  0.7546771E-02  0.1259629E+00
         11   -1    0    0    0    0  0.00000000000E+00  0.00000000000E+00  0.30000000000E+02  0.30000000000E+02  0.00000000000E+00 0.  1.
        -11   -1    0    0    0    0 -0.00000000000E+00 -0.00000000000E+00 -0.30000000000E+02  0.30000000000E+02  0.00000000000E+00 0. -1.
          5    1    1    2  501    0  0.20630660117E+02 -0.67423823502E+01 -0.20169931665E+02  0.30000000000E+02  0.47000000000E+01 0. -1.
         -5    1    1    2    0  501 -0.20630660117E+02  0.67423823502E+01  0.20169931665E+02  0.30000000000E+02  0.47000000000E+01 0.  1.
</event>
<event>
 4    1  0.7503339E-002  0.6000000E+02  0.7546771E-02  0.1259629E+00
         11   -1    0    0    0    0  0.00000000000E+00  0.00000000000E+00  0.30000000000E+02  0.30000000000E+02  0.00000000000E+00 0. -1.
        -11   -1    0    0    0    0 -0.00000000000E+00 -0.00000000000E+00 -0.30000000000E+02  0.30000000000E+02  0.00000000000E+00 0.  1.
          5    1    1    2  501    0 -0.28366174448E+01  0.23998518239E+02  0.17144524601E+02  0.30000000000E+02  0.47000000000E+01 0. -1.
         -5    1    1    2    0  501  0.28366174448E+01 -0.23998518239E+02 -0.17144524601E+02  0.30000000000E+02  0.47000000000E+01 0.  1.
</event>
<event>
 4    1  0.7503339E-002  0.6000000E+02  0.7546771E-02  0.1259629E+00
         11   -1    0    0    0    0  0.00000000000E+00  0.00000000000E+00  0.30000000000E+02  0.30000000000E+02  0.00000000000E+00 0.  1.
        -11   -1    0    0    0    0 -0.00000000000E+00 -0.00000000000E+00 -0.30000000000E+02  0.30000000000E+02  0.00000000000E+00 0. -1.
          5    1    1    2  501    0  0.88530858131E+01 -0.19273934652E+02 -0.20689328520E+02  0.30000000000E+02  0.47000000000E+01 0. -1.
         -5    1    1    2    0  501 -0.88530858131E+01  0.19273934652E+02  0.20689328520E+02  0.30000000000E+02  0.47000000000E+01 0.  1.
</event>
<event>
 4    1  0.7503339E-002  0.6000000E+02  0.7546771E-02  0.1259629E+00
         11   -1    0    0    0    0  0.00000000000E+00  0.00000000000E+00  0.30000000000E+02  0.30000000000E+02  0.00000000000E+00 0.  1.
        -11   -1    0    0    0    0 -0.00000000000E+00 -0.00000000000E+00 -0.30000000000E+02  0.30000000000E+02  0.00000000000E+00 0. -1.
          5    1    1    2  501    0  0.16618194551E+02  0.10450256486E+02 -0.22193191507E+02  0.30000000000E+02  0.47000000000E+01 0. -1.
         -5    1    1    2    0  501 -0.16618194551E+02 -0.10450256486E+02  0.22193191507E+02  0.30000000000E+02  0.47000000000E+01 0.  1.
</event>
<event>
 4    1  0.7503339E-002  0.6000000E+02  0.7546771E-02  0.1259629E+00
         11   -1    0    0    0    0  0.00000000000E+00  0.00000000000E+00  0.30000000000E+02  0.30000000000E+02  0.00000000000E+00 0.  1.
        -11   -1    0    0    0    0 -0.00000000000E+00 -0.00000000000E+00 -0.30000000000E+02  0.30000000000E+02  0.00000000000E+00 0. -1.
          5    1    1    2  501    0  0.25111416934E+02 -0.10179517061E+02 -0.11987667496E+02  0.30000000000E+02  0.47000000000E+01 0. -1.
         -5    1    1    2    0  501 -0.25111416934E+02  0.10179517061E+02  0.11987667496E+02  0.30000000000E+02  0.47000000000E+01 0.  1.
</event>
<event>
 4    1  0.7503339E-002  0.6000000E+02  0.7546771E-02  0.1259629E+00
         11   -1    0    0    0    0  0.00000000000E+00  0.00000000000E+00  0.30000000000E+02  0.30000000000E+02  0.00000000000E+00 0.  1.
        -11   -1    0    0    0    0 -0.00000000000E+00 -0.00000000000E+00 -0.30000000000E+02  0.30000000000E+02  0.00000000000E+00 0. -1.
          5    1    1    2  501    0 -0.25261485391E+02 -0.14792709929E+02  0.45763619601E+01  0.30000000000E+02  0.47000000000E+01 0.  1.
         -5    1    1    2    0  501  0.25261485391E+02  0.14792709929E+02 -0.45763619601E+01  0.30000000000E+02  0.47000000000E+01 0. -1.
</event>
<event>
 4    1  0.7503339E-002  0.6000000E+02  0.7546771E-02  0.1259629E+00
         11   -1    0    0    0    0  0.00000000000E+00  0.00000000000E+00  0.30000000000E+02  0.30000000000E+02  0.00000000000E+00 0.  1.
        -11   -1    0    0    0    0 -0.00000000000E+00 -0.00000000000E+00 -0.30000000000E+02  0.30000000000E+02  0.00000000000E+00 0. -1.
          5    1    1    2  501    0 -0.99413550046E+01  0.15690113340E+02 -0.23084622675E+02  0.30000000000E+02  0.47000000000E+01 0. -1.
         -5    1    1    2    0  501  0.99413550046E+01 -0.15690113340E+02  0.23084622675E+02  0.30000000000E+02  0.47000000000E+01 0.  1.
</event>
<event>
 4    1  0.7503339E-002  0.6000000E+02  0.7546771E-02  0.1259629E+00
         11   -1    0    0    0    0  0.00000000000E+00  0.00000000000E+00  0.30000000000E+02  0.30000000000E+02  0.00000000000E+00 0.  1.
        -11   -1    0    0    0    0 -0.00000000000E+00 -0.00000000000E+00 -0.30000000000E+02  0.30000000000E+02  0.00000000000E+00 0. -1.
          5    1    1    2  501    0  0.95907350073E+00 -0.20010458260E+02 -0.21830523087E+02  0.30000000000E+02  0.47000000000E+01 0. -1.
         -5    1    1    2    0  501 -0.95907350073E+00  0.20010458260E+02  0.21830523087E+02  0.30000000000E+02  0.47000000000E+01 0.  1.
</event>
<event>
 4    1  0.7503339E-002  0.6000000E+02  0.7546771E-02  0.1259629E+00
         11   -1    0    0    0    0  0.00000000000E+00  0.00000000000E+00  0.30000000000E+02  0.30000000000E+02  0.00000000000E+00 0. -1.
        -11   -1    0    0    0    0 -0.00000000000E+00 -0.00000000000E+00 -0.30000000000E+02  0.30000000000E+02  0.00000000000E+00 0.  1.
          5    1    1    2  501    0 -0.12334480395E+01  0.88512200437E+01 -0.28249681585E+02  0.30000000000E+02  0.47000000000E+01 0.  1.
         -5    1    1    2    0  501  0.12334480395E+01 -0.88512200437E+01  0.28249681585E+02  0.30000000000E+02  0.47000000000E+01 0. -1.
</event>
<event>
 4    1  0.7503339E-002  0.6000000E+02  0.7546771E-02  0.1259629E+00
         11   -1    0    0    0    0  0.00000000000E+00  0.00000000000E+00  0.30000000000E+02  0.30000000000E+02  0.00000000000E+00 0. -1.
        -11   -1    0    0    0    0 -0.00000000000E+00 -0.00000000000E+00 -0.30000000000E+02  0.30000000000E+02  0.00000000000E+00 0.  1.
          5    1    1    2  501    0 -0.21325380553E+02 -0.20334105640E+02 -0.31084227655E+01  0.30000000000E+02  0.47000000000E+01 0.  1.
         -5    1    1    2    0  501  0.21325380553E+02  0.20334105640E+02  0.31084227655E+01  0.30000000000E+02  0.47000000000E+01 0. -1.
</event>
<event>
 4    1  0.7503339E-002  0.6000000E+02  0.7546771E-02  0.1259629E+00
         11   -1    0    0    0    0  0.00000000000E+00  0.00000000000E+00  0.30000000000E+02  0.30000000000E+02  0.00000000000E+00 0.  1.
        -11   -1    0    0    0    0 -0.00000000000E+00 -0.00000000000E+00 -0.30000000000E+02  0.30000000000E+02  0.00000000000E+00 0. -1.
          5    1    1    2  501    0  0.97278625649E+01 -0.24801736273E+02 -0.12967365491E+02  0.30000000000E+02  0.47000000000E+01 0. -1.
         -5    1    1    2    0  501 -0.97278625649E+01  0.24801736273E+02  0.12967365491E+02  0.30000000000E+02  0.47000000000E+01 0.  1.
</event>
<event>
 4    1  0.7503339E-002  0.6000000E+02  0.7546771E-02  0.1259629E+00
         11   -1    0    0    0    0  0.00000000000E+00  0.00000000000E+00  0.30000000000E+02  0.30000000000E+02  0.00000000000E+00 0.  1.
        -11   -1    0    0    0    0 -0.00000000000E+00 -0.00000000000E+00 -0.30000000000E+02  0.30000000000E+02  0.00000000000E+00 0. -1.
          5    1    1    2  501    0  0.72740960839E+01  0.27553156244E+02 -0.81130208388E+01  0.30000000000E+02  0.47000000000E+01 0. -1.
         -5    1    1    2    0  501 -0.72740960839E+01 -0.27553156244E+02  0.81130208388E+01  0.30000000000E+02  0.47000000000E+01 0.  1.
</event>
<event>
 4    1  0.7503339E-002  0.6000000E+02  0.7546771E-02  0.1259629E+00
         11   -1    0    0    0    0  0.00000000000E+00  0.00000000000E+00  0.30000000000E+02  0.30000000000E+02  0.00000000000E+00 0.  1.
        -11   -1    0    0    0    0 -0.00000000000E+00 -0.00000000000E+00 -0.30000000000E+02  0.30000000000E+02  0.00000000000E+00 0. -1.
          5    1    1    2  501    0  0.22025882185E+02 -0.10368183315E+02 -0.16889975984E+02  0.30000000000E+02  0.47000000000E+01 0. -1.
         -5    1    1    2    0  501 -0.22025882185E+02  0.10368183315E+02  0.16889975984E+02  0.30000000000E+02  0.47000000000E+01 0.  1.
</event>
<event>
 4    1  0.7503339E-002  0.6000000E+02  0.7546771E-02  0.1259629E+00
         11   -1    0    0    0    0  0.00000000000E+00  0.00000000000E+00  0.30000000000E+02  0.30000000000E+02  0.00000000000E+00 0.  1.
        -11   -1    0    0    0    0 -0.00000000000E+00 -0.00000000000E+00 -0.30000000000E+02  0.30000000000E+02  0.00000000000E+00 0. -1.
          5    1    1    2  501    0  0.42904069603E+01  0.84190711549E+01 -0.28082408177E+02  0.30000000000E+02  0.47000000000E+01 0. -1.
         -5    1    1    2    0  501 -0.42904069603E+01 -0.84190711549E+01  0.28082408177E+02  0.30000000000E+02  0.47000000000E+01 0.  1.
</event>
<event>
 4    1  0.7503339E-002  0.6000000E+02  0.7546771E-02  0.1259629E+00
         11   -1    0    0    0    0  0.00000000000E+00  0.00000000000E+00  0.30000000000E+02  0.30000000000E+02  0.00000000000E+00 0.  1.
        -11   -1    0    0    0    0 -0.00000000000E+00 -0.00000000000E+00 -0.30000000000E+02  0.30000000000E+02  0.00000000000E+00 0. -1.
          5    1    1    2  501    0  0.22610745378E+02  0.58110067730E+01 -0.18245448576E+02  0.30000000000E+02  0.47000000000E+01 0. -1.
         -5    1    1    2    0  501 -0.22610745378E+02 -0.58110067730E+01  0.18245448576E+02  0.30000000000E+02  0.47000000000E+01 0.  1.
</event>
<event>
 4    1  0.7503339E-002  0.6000000E+02  0.7546771E-02  0.1259629E+00
         11   -1    0    0    0    0  0.00000000000E+00  0.00000000000E+00  0.30000000000E+02  0.30000000000E+02  0.00000000000E+00 0.  1.
        -11   -1    0    0    0    0 -0.00000000000E+00 -0.00000000000E+00 -0.30000000000E+02  0.30000000000E+02  0.00000000000E+00 0. -1.
          5    1    1    2  501    0  0.89653865417E+01  0.22296017764E+02 -0.17332611922E+02  0.30000000000E+02  0.47000000000E+01 0. -1.
         -5    1    1    2    0  501 -0.89653865417E+01 -0.22296017764E+02  0.17332611922E+02  0.30000000000E+02  0.47000000000E+01 0.  1.
</event>
<event>
 4    1  0.7503339E-002  0.6000000E+02  0.7546771E-02  0.1259629E+00
         11   -1    0    0    0    0  0.00000000000E+00  0.00000000000E+00  0.30000000000E+02  0.30000000000E+02  0.00000000000E+00 0.  1.
        -11   -1    0    0    0    0 -0.00000000000E+00 -0.00000000000E+00 -0.30000000000E+02  0.30000000000E+02  0.00000000000E+00 0. -1.
          5    1    1    2  501    0 -0.96347552889E+01 -0.70588910280E+01 -0.27115559149E+02  0.30000000000E+02  0.47000000000E+01 0. -1.
         -5    1    1    2    0  501  0.96347552889E+01  0.70588910280E+01  0.27115559149E+02  0.30000000000E+02  0.47000000000E+01 0.  1.
</event>
<event>
 4    1  0.7503339E-002  0.6000000E+02  0.7546771E-02  0.1259629E+00
         11   -1    0    0    0    0  0.00000000000E+00  0.00000000000E+00  0.30000000000E+02  0.30000000000E+02  0.00000000000E+00 0.  1.
        -11   -1    0    0    0    0 -0.00000000000E+00 -0.00000000000E+00 -0.30000000000E+02  0.30000000000E+02  0.00000000000E+00 0. -1.
          5    1    1    2  501    0 -0.78819348686E+01 -0.11019927498E+02 -0.26350451621E+02  0.30000000000E+02  0.47000000000E+01 0. -1.
         -5    1    1    2    0  501  0.78819348686E+01  0.11019927498E+02  0.26350451621E+02  0.30000000000E+02  0.47000000000E+01 0.  1.
</event>
<event>
 4    1  0.7503339E-002  0.6000000E+02  0.7546771E-02  0.1259629E+00
         11   -1    0    0    0    0  0.00000000000E+00  0.00000000000E+00  0.30000000000E+02  0.30000000000E+02  0.00000000000E+00 0.  1.
        -11   -1    0    0    0    0 -0.00000000000E+00 -0.00000000000E+00 -0.30000000000E+02  0.30000000000E+02  0.00000000000E+00 0. -1.
          5    1    1    2  501    0 -0.51486159474E+01  0.47357532552E+01 -0.28791915444E+02  0.30000000000E+02  0.47000000000E+01 0. -1.
         -5    1    1    2    0  501  0.51486159474E+01 -0.47357532552E+01  0.28791915444E+02  0.30000000000E+02  0.47000000000E+01 0.  1.
</event>
<event>
 4    1  0.7503339E-002  0.6000000E+02  0.7546771E-02  0.1259629E+00
         11   -1    0    0    0    0  0.00000000000E+00  0.00000000000E+00  0.30000000000E+02  0.30000000000E+02  0.00000000000E+00 0.  1.
        -11   -1    0    0    0    0 -0.00000000000E+00 -0.00000000000E+00 -0.30000000000E+02  0.30000000000E+02  0.00000000000E+00 0. -1.
          5    1    1    2  501    0  0.18984523996E+02  0.35172674451E+01 -0.22475023434E+02  0.30000000000E+02  0.47000000000E+01 0. -1.
         -5    1    1    2    0  501 -0.18984523996E+02 -0.35172674451E+01  0.22475023434E+02  0.30000000000E+02  0.47000000000E+01 0.  1.
</event>
<event>
 4    1  0.7503339E-002  0.6000000E+02  0.7546771E-02  0.1259629E+00
         11   -1    0    0    0    0  0.00000000000E+00  0.00000000000E+00  0.30000000000E+02  0.30000000000E+02  0.00000000000E+00 0. -1.
        -11   -1    0    0    0    0 -0.00000000000E+00 -0.00000000000E+00 -0.30000000000E+02  0.30000000000E+02  0.00000000000E+00 0.  1.
          5    1    1    2  501    0 -0.22931223005E+02 -0.50807441969E+01  0.18062531658E+02  0.30000000000E+02  0.47000000000E+01 0. -1.
         -5    1    1    2    0  501  0.22931223005E+02  0.50807441969E+01 -0.18062531658E+02  0.30000000000E+02  0.47000000000E+01 0.  1.
</event>
<event>
 4    1  0.7503339E-002  0.6000000E+02  0.7546771E-02  0.1259629E+00
         11   -1    0    0    0    0  0.00000000000E+00  0.00000000000E+00  0.30000000000E+02  0.30000000000E+02  0.00000000000E+00 0.  1.
        -11   -1    0    0    0    0 -0.00000000000E+00 -0.00000000000E+00 -0.30000000000E+02  0.30000000000E+02  0.00000000000E+00 0. -1.
          5    1    1    2  501    0  0.24774724501E+02  0.11610359877E+02 -0.11372008152E+02  0.30000000000E+02  0.47000000000E+01 0. -1.
         -5    1    1    2    0  501 -0.24774724501E+02 -0.11610359877E+02  0.11372008152E+02  0.30000000000E+02  0.47000000000E+01 0.  1.
</event>
<event>
 4    1  0.7503339E-002  0.6000000E+02  0.7546771E-02  0.1259629E+00
         11   -1    0    0    0    0  0.00000000000E+00  0.00000000000E+00  0.30000000000E+02  0.30000000000E+02  0.00000000000E+00 0.  1.
        -11   -1    0    0    0    0 -0.00000000000E+00 -0.00000000000E+00 -0.30000000000E+02  0.30000000000E+02  0.00000000000E+00 0. -1.
          5    1    1    2  501    0 -0.81385449147E+01  0.25079258847E+02  0.13516836255E+02  0.30000000000E+02  0.47000000000E+01 0. -1.
         -5    1    1    2    0  501  0.81385449147E+01 -0.25079258847E+02 -0.13516836255E+02  0.30000000000E+02  0.47000000000E+01 0.  1.
</event>
<event>
 4    1  0.7503339E-002  0.6000000E+02  0.7546771E-02  0.1259629E+00
         11   -1    0    0    0    0  0.00000000000E+00  0.00000000000E+00  0.30000000000E+02  0.30000000000E+02  0.00000000000E+00 0.  1.
        -11   -1    0    0    0    0 -0.00000000000E+00 -0.00000000000E+00 -0.30000000000E+02  0.30000000000E+02  0.00000000000E+00 0. -1.
          5    1    1    2  501    0 -0.12980359459E+02 -0.21966530608E+02 -0.15062928047E+02  0.30000000000E+02  0.47000000000E+01 0. -1.
         -5    1    1    2    0  501  0.12980359459E+02  0.21966530608E+02  0.15062928047E+02  0.30000000000E+02  0.47000000000E+01 0.  1.
</event>
<event>
 4    1  0.7503339E-002  0.6000000E+02  0.7546771E-02  0.1259629E+00
         11   -1    0    0    0    0  0.00000000000E+00  0.00000000000E+00  0.30000000000E+02  0.30000000000E+02  0.00000000000E+00 0.  1.
        -11   -1    0    0    0    0 -0.00000000000E+00 -0.00000000000E+00 -0.30000000000E+02  0.30000000000E+02  0.00000000000E+00 0. -1.
          5    1    1    2  501    0 -0.84951864130E+01  0.10768441772E+01 -0.28365158459E+02  0.30000000000E+02  0.47000000000E+01 0. -1.
         -5    1    1    2    0  501  0.84951864130E+01 -0.10768441772E+01  0.28365158459E+02  0.30000000000E+02  0.47000000000E+01 0.  1.
</event>
<event>
 4    1  0.7503339E-002  0.6000000E+02  0.7546771E-02  0.1259629E+00
         11   -1    0    0    0    0  0.00000000000E+00  0.00000000000E+00  0.30000000000E+02  0.30000000000E+02  0.00000000000E+00 0. -1.
        -11   -1    0    0    0    0 -0.00000000000E+00 -0.00000000000E+00 -0.30000000000E+02  0.30000000000E+02  0.00000000000E+00 0.  1.
          5    1    1    2  501    0  0.14535155460E+02 -0.25721578445E+02 -0.22449182711E+01  0.30000000000E+02  0.47000000000E+01 0.  1.
         -5    1    1    2    0  501 -0.14535155460E+02  0.25721578445E+02  0.22449182711E+01  0.30000000000E+02  0.47000000000E+01 0. -1.
</event>
<event>
 4    1  0.7503339E-002  0.6000000E+02  0.7546771E-02  0.1259629E+00
         11   -1    0    0    0    0  0.00000000000E+00  0.00000000000E+00  0.30000000000E+02  0.30000000000E+02  0.00000000000E+00 0. -1.
        -11   -1    0    0    0    0 -0.00000000000E+00 -0.00000000000E+00 -0.30000000000E+02  0.30000000000E+02  0.00000000000E+00 0.  1.
          5    1    1    2  501    0  0.10101850030E+02 -0.12257691044E+02 -0.25012229733E+02  0.30000000000E+02  0.47000000000E+01 0.  1.
         -5    1    1    2    0  501 -0.10101850030E+02  0.12257691044E+02  0.25012229733E+02  0.30000000000E+02  0.47000000000E+01 0. -1.
</event>
<event>
 4    1  0.7503339E-002  0.6000000E+02  0.7546771E-02  0.1259629E+00
         11   -1    0    0    0    0  0.00000000000E+00  0.00000000000E+00  0.30000000000E+02  0.30000000000E+02  0.00000000000E+00 0.  1.
        -11   -1    0    0    0    0 -0.00000000000E+00 -0.00000000000E+00 -0.30000000000E+02  0.30000000000E+02  0.00000000000E+00 0. -1.
          5    1    1    2  501    0  0.16736046540E+01 -0.24161637982E+02 -0.17068224790E+02  0.30000000000E+02  0.47000000000E+01 0. -1.
         -5    1    1    2    0  501 -0.16736046540E+01  0.24161637982E+02  0.17068224790E+02  0.30000000000E+02  0.47000000000E+01 0.  1.
</event>
<event>
 4    1  0.7503339E-002  0.6000000E+02  0.7546771E-02  0.1259629E+00
         11   -1    0    0    0    0  0.00000000000E+00  0.00000000000E+00  0.30000000000E+02  0.30000000000E+02  0.00000000000E+00 0.  1.
        -11   -1    0    0    0    0 -0.00000000000E+00 -0.00000000000E+00 -0.30000000000E+02  0.30000000000E+02  0.00000000000E+00 0. -1.
          5    1    1    2  501    0  0.15882273393E+01 -0.11286042976E+02  0.27349822081E+02  0.30000000000E+02  0.47000000000E+01 0.  1.
         -5    1    1    2    0  501 -0.15882273393E+01  0.11286042976E+02 -0.27349822081E+02  0.30000000000E+02  0.47000000000E+01 0. -1.
</event>
<event>
 4    1  0.7503339E-002  0.6000000E+02  0.7546771E-02  0.1259629E+00
         11   -1    0    0    0    0  0.00000000000E+00  0.00000000000E+00  0.30000000000E+02  0.30000000000E+02  0.00000000000E+00 0.  1.
        -11   -1    0    0    0    0 -0.00000000000E+00 -0.00000000000E+00 -0.30000000000E+02  0.30000000000E+02  0.00000000000E+00 0. -1.
          5    1    1    2  501    0 -0.26896487483E+02  0.95190636561E+01 -0.79922705288E+01  0.30000000000E+02  0.47000000000E+01 0. -1.
         -5    1    1    2    0  501  0.26896487483E+02 -0.95190636561E+01  0.79922705288E+01  0.30000000000E+02  0.47000000000E+01 0.  1.
</event>
<event>
 4    1  0.7503339E-002  0.6000000E+02  0.7546771E-02  0.1259629E+00
         11   -1    0    0    0    0  0.00000000000E+00  0.00000000000E+00  0.30000000000E+02  0.30000000000E+02  0.00000000000E+00 0. -1.
        -11   -1    0    0    0    0 -0.00000000000E+00 -0.00000000000E+00 -0.30000000000E+02  0.30000000000E+02  0.00000000000E+00 0.  1.
          5    1    1    2  501    0  0.27922931349E+02  0.76690286337E+01 -0.62774122621E+01  0.30000000000E+02  0.47000000000E+01 0.  1.
         -5    1    1    2    0  501 -0.27922931349E+02 -0.76690286337E+01  0.62774122621E+01  0.30000000000E+02  0.47000000000E+01 0. -1.
</event>
<event>
 4    1  0.7503339E-002  0.6000000E+02  0.7546771E-02  0.1259629E+00
         11   -1    0    0    0    0  0.00000000000E+00  0.00000000000E+00  0.30000000000E+02  0.30000000000E+02  0.00000000000E+00 0.  1.
        -11   -1    0    0    0    0 -0.00000000000E+00 -0.00000000000E+00 -0.30000000000E+02  0.30000000000E+02  0.00000000000E+00 0. -1.
          5    1    1    2  501    0 -0.32283550712E+01  0.97725720398E+00 -0.29436927351E+02  0.30000000000E+02  0.47000000000E+01 0. -1.
         -5    1    1    2    0  501  0.32283550712E+01 -0.97725720398E+00  0.29436927351E+02  0.30000000000E+02  0.47000000000E+01 0.  1.
</event>
<event>
 4    1  0.7503339E-002  0.6000000E+02  0.7546771E-02  0.1259629E+00
         11   -1    0    0    0    0  0.00000000000E+00  0.00000000000E+00  0.30000000000E+02  0.30000000000E+02  0.00000000000E+00 0.  1.
        -11   -1    0    0    0    0 -0.00000000000E+00 -0.00000000000E+00 -0.30000000000E+02  0.30000000000E+02  0.00000000000E+00 0. -1.
          5    1    1    2  501    0 -0.13242579974E+02 -0.50057018842E+01 -0.26028580912E+02  0.30000000000E+02  0.47000000000E+01 0. -1.
         -5    1    1    2    0  501  0.13242579974E+02  0.50057018842E+01  0.26028580912E+02  0.30000000000E+02  0.47000000000E+01 0.  1.
</event>
<event>
 4    1  0.7503339E-002  0.6000000E+02  0.7546771E-02  0.1259629E+00
         11   -1    0    0    0    0  0.00000000000E+00  0.00000000000E+00  0.30000000000E+02  0.30000000000E+02  0.00000000000E+00 0.  1.
        -11   -1    0    0    0    0 -0.00000000000E+00 -0.00000000000E+00 -0.30000000000E+02  0.30000000000E+02  0.00000000000E+00 0. -1.
          5    1    1    2  501    0  0.28481254119E+02 -0.68660329503E+01 -0.44255796602E+01  0.30000000000E+02  0.47000000000E+01 0. -1.
         -5    1    1    2    0  501 -0.28481254119E+02  0.68660329503E+01  0.44255796602E+01  0.30000000000E+02  0.47000000000E+01 0.  1.
</event>
<event>
 4    1  0.7503339E-002  0.6000000E+02  0.7546771E-02  0.1259629E+00
         11   -1    0    0    0    0  0.00000000000E+00  0.00000000000E+00  0.30000000000E+02  0.30000000000E+02  0.00000000000E+00 0.  1.
        -11   -1    0    0    0    0 -0.00000000000E+00 -0.00000000000E+00 -0.30000000000E+02  0.30000000000E+02  0.00000000000E+00 0. -1.
          5    1    1    2  501    0  0.11591858899E+02  0.86198143046E+01 -0.25869627145E+02  0.30000000000E+02  0.47000000000E+01 0. -1.
         -5    1    1    2    0  501 -0.11591858899E+02 -0.86198143046E+01  0.25869627145E+02  0.30000000000E+02  0.47000000000E+01 0.  1.
</event>
<event>
 4    1  0.7503339E-002  0.6000000E+02  0.7546771E-02  0.1259629E+00
         11   -1    0    0    0    0  0.00000000000E+00  0.00000000000E+00  0.30000000000E+02  0.30000000000E+02  0.00000000000E+00 0.  1.
        -11   -1    0    0    0    0 -0.00000000000E+00 -0.00000000000E+00 -0.30000000000E+02  0.30000000000E+02  0.00000000000E+00 0. -1.
          5    1    1    2  501    0  0.18744190364E+02  0.38088717378E+01 -0.22628694697E+02  0.30000000000E+02  0.47000000000E+01 0. -1.
         -5    1    1    2    0  501 -0.18744190364E+02 -0.38088717378E+01  0.22628694697E+02  0.30000000000E+02  0.47000000000E+01 0.  1.
</event>
<event>
 4    1  0.7503339E-002  0.6000000E+02  0.7546771E-02  0.1259629E+00
         11   -1    0    0    0    0  0.00000000000E+00  0.00000000000E+00  0.30000000000E+02  0.30000000000E+02  0.00000000000E+00 0.  1.
        -11   -1    0    0    0    0 -0.00000000000E+00 -0.00000000000E+00 -0.30000000000E+02  0.30000000000E+02  0.00000000000E+00 0. -1.
          5    1    1    2  501    0  0.11597233784E+02  0.23619671565E+02 -0.13620766635E+02  0.30000000000E+02  0.47000000000E+01 0. -1.
         -5    1    1    2    0  501 -0.11597233784E+02 -0.23619671565E+02  0.13620766635E+02  0.30000000000E+02  0.47000000000E+01 0.  1.
</event>
<event>
 4    1  0.7503339E-002  0.6000000E+02  0.7546771E-02  0.1259629E+00
         11   -1    0    0    0    0  0.00000000000E+00  0.00000000000E+00  0.30000000000E+02  0.30000000000E+02  0.00000000000E+00 0. -1.
        -11   -1    0    0    0    0 -0.00000000000E+00 -0.00000000000E+00 -0.30000000000E+02  0.30000000000E+02  0.00000000000E+00 0.  1.
          5    1    1    2  501    0  0.55641411982E+01 -0.23315459468E+02 -0.17416649577E+02  0.30000000000E+02  0.47000000000E+01 0.  1.
         -5    1    1    2    0  501 -0.55641411982E+01  0.23315459468E+02  0.17416649577E+02  0.30000000000E+02  0.47000000000E+01 0. -1.
</event>
<event>
 4    1  0.7503339E-002  0.6000000E+02  0.7546771E-02  0.1259629E+00
         11   -1    0    0    0    0  0.00000000000E+00  0.00000000000E+00  0.30000000000E+02  0.30000000000E+02  0.00000000000E+00 0.  1.
        -11   -1    0    0    0    0 -0.00000000000E+00 -0.00000000000E+00 -0.30000000000E+02  0.30000000000E+02  0.00000000000E+00 0. -1.
          5    1    1    2  501    0  0.77781245707E+01  0.28589014291E+02 -0.28114054100E+00  0.30000000000E+02  0.47000000000E+01 0. -1.
         -5    1    1    2    0  501 -0.77781245707E+01 -0.28589014291E+02  0.28114054100E+00  0.30000000000E+02  0.47000000000E+01 0.  1.
</event>
<event>
 4    1  0.7503339E-002  0.6000000E+02  0.7546771E-02  0.1259629E+00
         11   -1    0    0    0    0  0.00000000000E+00  0.00000000000E+00  0.30000000000E+02  0.30000000000E+02  0.00000000000E+00 0. -1.
        -11   -1    0    0    0    0 -0.00000000000E+00 -0.00000000000E+00 -0.30000000000E+02  0.30000000000E+02  0.00000000000E+00 0.  1.
          5    1    1    2  501    0  0.68289365497E+01 -0.16139575537E+02 -0.23891206062E+02  0.30000000000E+02  0.47000000000E+01 0.  1.
         -5    1    1    2    0  501 -0.68289365497E+01  0.16139575537E+02  0.23891206062E+02  0.30000000000E+02  0.47000000000E+01 0. -1.
</event>
<event>
 4    1  0.7503339E-002  0.6000000E+02  0.7546771E-02  0.1259629E+00
         11   -1    0    0    0    0  0.00000000000E+00  0.00000000000E+00  0.30000000000E+02  0.30000000000E+02  0.00000000000E+00 0.  1.
        -11   -1    0    0    0    0 -0.00000000000E+00 -0.00000000000E+00 -0.30000000000E+02  0.30000000000E+02  0.00000000000E+00 0. -1.
          5    1    1    2  501    0  0.67836086983E+01  0.23052098432E+02 -0.17334745770E+02  0.30000000000E+02  0.47000000000E+01 0. -1.
         -5    1    1    2    0  501 -0.67836086983E+01 -0.23052098432E+02  0.17334745770E+02  0.30000000000E+02  0.47000000000E+01 0.  1.
</event>
<event>
 4    1  0.7503339E-002  0.6000000E+02  0.7546771E-02  0.1259629E+00
         11   -1    0    0    0    0  0.00000000000E+00  0.00000000000E+00  0.30000000000E+02  0.30000000000E+02  0.00000000000E+00 0. -1.
        -11   -1    0    0    0    0 -0.00000000000E+00 -0.00000000000E+00 -0.30000000000E+02  0.30000000000E+02  0.00000000000E+00 0.  1.
          5    1    1    2  501    0 -0.89083007773E+01 -0.26963594802E+02 -0.84567566245E+01  0.30000000000E+02  0.47000000000E+01 0.  1.
         -5    1    1    2    0  501  0.89083007773E+01  0.26963594802E+02  0.84567566245E+01  0.30000000000E+02  0.47000000000E+01 0. -1.
</event>
<event>
 4    1  0.7503339E-002  0.6000000E+02  0.7546771E-02  0.1259629E+00
         11   -1    0    0    0    0  0.00000000000E+00  0.00000000000E+00  0.30000000000E+02  0.30000000000E+02  0.00000000000E+00 0. -1.
        -11   -1    0    0    0    0 -0.00000000000E+00 -0.00000000000E+00 -0.30000000000E+02  0.30000000000E+02  0.00000000000E+00 0.  1.
          5    1    1    2  501    0  0.12502170007E+02  0.26767449855E+02 -0.22603923138E+01  0.30000000000E+02  0.47000000000E+01 0. -1.
         -5    1    1    2    0  501 -0.12502170007E+02 -0.26767449855E+02  0.22603923138E+01  0.30000000000E+02  0.47000000000E+01 0.  1.
</event>
<event>
 4    1  0.7503339E-002  0.6000000E+02  0.7546771E-02  0.1259629E+00
         11   -1    0    0    0    0  0.00000000000E+00  0.00000000000E+00  0.30000000000E+02  0.30000000000E+02  0.00000000000E+00 0.  1.
        -11   -1    0    0    0    0 -0.00000000000E+00 -0.00000000000E+00 -0.30000000000E+02  0.30000000000E+02  0.00000000000E+00 0. -1.
          5    1    1    2  501    0 -0.22638660611E+02  0.11638116357E+02 -0.15164276884E+02  0.30000000000E+02  0.47000000000E+01 0. -1.
         -5    1    1    2    0  501  0.22638660611E+02 -0.11638116357E+02  0.15164276884E+02  0.30000000000E+02  0.47000000000E+01 0.  1.
</event>
<event>
 4    1  0.7503339E-002  0.6000000E+02  0.7546771E-02  0.1259629E+00
         11   -1    0    0    0    0  0.00000000000E+00  0.00000000000E+00  0.30000000000E+02  0.30000000000E+02  0.00000000000E+00 0.  1.
        -11   -1    0    0    0    0 -0.00000000000E+00 -0.00000000000E+00 -0.30000000000E+02  0.30000000000E+02  0.00000000000E+00 0. -1.
          5    1    1    2  501    0 -0.21441224785E+02  0.14528813894E+02 -0.14390880672E+02  0.30000000000E+02  0.47000000000E+01 0.  1.
         -5    1    1    2    0  501  0.21441224785E+02 -0.14528813894E+02  0.14390880672E+02  0.30000000000E+02  0.47000000000E+01 0. -1.
</event>
<event>
 4    1  0.7503339E-002  0.6000000E+02  0.7546771E-02  0.1259629E+00
         11   -1    0    0    0    0  0.00000000000E+00  0.00000000000E+00  0.30000000000E+02  0.30000000000E+02  0.00000000000E+00 0. -1.
        -11   -1    0    0    0    0 -0.00000000000E+00 -0.00000000000E+00 -0.30000000000E+02  0.30000000000E+02  0.00000000000E+00 0.  1.
          5    1    1    2  501    0  0.11163534982E+02 -0.24022874796E+02 -0.13273544111E+02  0.30000000000E+02  0.47000000000E+01 0.  1.
         -5    1    1    2    0  501 -0.11163534982E+02  0.24022874796E+02  0.13273544111E+02  0.30000000000E+02  0.47000000000E+01 0. -1.
</event>
<event>
 4    1  0.7503339E-002  0.6000000E+02  0.7546771E-02  0.1259629E+00
         11   -1    0    0    0    0  0.00000000000E+00  0.00000000000E+00  0.30000000000E+02  0.30000000000E+02  0.00000000000E+00 0.  1.
        -11   -1    0    0    0    0 -0.00000000000E+00 -0.00000000000E+00 -0.30000000000E+02  0.30000000000E+02  0.00000000000E+00 0. -1.
          5    1    1    2  501    0 -0.23523621064E+02  0.15786912827E+02 -0.86788614143E+01  0.30000000000E+02  0.47000000000E+01 0. -1.
         -5    1    1    2    0  501  0.23523621064E+02 -0.15786912827E+02  0.86788614143E+01  0.30000000000E+02  0.47000000000E+01 0.  1.
</event>
<event>
 4    1  0.7503339E-002  0.6000000E+02  0.7546771E-02  0.1259629E+00
         11   -1    0    0    0    0  0.00000000000E+00  0.00000000000E+00  0.30000000000E+02  0.30000000000E+02  0.00000000000E+00 0.  1.
        -11   -1    0    0    0    0 -0.00000000000E+00 -0.00000000000E+00 -0.30000000000E+02  0.30000000000E+02  0.00000000000E+00 0. -1.
          5    1    1    2  501    0  0.29128165596E+02 -0.10285610927E+00  0.54267291853E+01  0.30000000000E+02  0.47000000000E+01 0.  1.
         -5    1    1    2    0  501 -0.29128165596E+02  0.10285610927E+00 -0.54267291853E+01  0.30000000000E+02  0.47000000000E+01 0. -1.
</event>
<event>
 4    1  0.7503339E-002  0.6000000E+02  0.7546771E-02  0.1259629E+00
         11   -1    0    0    0    0  0.00000000000E+00  0.00000000000E+00  0.30000000000E+02  0.30000000000E+02  0.00000000000E+00 0.  1.
        -11   -1    0    0    0    0 -0.00000000000E+00 -0.00000000000E+00 -0.30000000000E+02  0.30000000000E+02  0.00000000000E+00 0. -1.
          5    1    1    2  501    0  0.27137408940E+02 -0.79025609083E+01 -0.88893513331E+01  0.30000000000E+02  0.47000000000E+01 0. -1.
         -5    1    1    2    0  501 -0.27137408940E+02  0.79025609083E+01  0.88893513331E+01  0.30000000000E+02  0.47000000000E+01 0.  1.
</event>
<event>
 4    1  0.7503339E-002  0.6000000E+02  0.7546771E-02  0.1259629E+00
         11   -1    0    0    0    0  0.00000000000E+00  0.00000000000E+00  0.30000000000E+02  0.30000000000E+02  0.00000000000E+00 0. -1.
        -11   -1    0    0    0    0 -0.00000000000E+00 -0.00000000000E+00 -0.30000000000E+02  0.30000000000E+02  0.00000000000E+00 0.  1.
          5    1    1    2  501    0 -0.26133414473E+02  0.17775854412E+01 -0.13849001335E+02  0.30000000000E+02  0.47000000000E+01 0.  1.
         -5    1    1    2    0  501  0.26133414473E+02 -0.17775854412E+01  0.13849001335E+02  0.30000000000E+02  0.47000000000E+01 0. -1.
</event>
<event>
 4    1  0.7503339E-002  0.6000000E+02  0.7546771E-02  0.1259629E+00
         11   -1    0    0    0    0  0.00000000000E+00  0.00000000000E+00  0.30000000000E+02  0.30000000000E+02  0.00000000000E+00 0. -1.
        -11   -1    0    0    0    0 -0.00000000000E+00 -0.00000000000E+00 -0.30000000000E+02  0.30000000000E+02  0.00000000000E+00 0.  1.
          5    1    1    2  501    0  0.10384911031E+02 -0.12832885966E+00 -0.27749723505E+02  0.30000000000E+02  0.47000000000E+01 0.  1.
         -5    1    1    2    0  501 -0.10384911031E+02  0.12832885966E+00  0.27749723505E+02  0.30000000000E+02  0.47000000000E+01 0. -1.
</event>
<event>
 4    1  0.7503339E-002  0.6000000E+02  0.7546771E-02  0.1259629E+00
         11   -1    0    0    0    0  0.00000000000E+00  0.00000000000E+00  0.30000000000E+02  0.30000000000E+02  0.00000000000E+00 0.  1.
        -11   -1    0    0    0    0 -0.00000000000E+00 -0.00000000000E+00 -0.30000000000E+02  0.30000000000E+02  0.00000000000E+00 0. -1.
          5    1    1    2  501    0  0.77137541929E+00 -0.22657545303E+02 -0.19077489897E+02  0.30000000000E+02  0.47000000000E+01 0. -1.
         -5    1    1    2    0  501 -0.77137541929E+00  0.22657545303E+02  0.19077489897E+02  0.30000000000E+02  0.47000000000E+01 0.  1.
</event>
<event>
 4    1  0.7503339E-002  0.6000000E+02  0.7546771E-02  0.1259629E+00
         11   -1    0    0    0    0  0.00000000000E+00  0.00000000000E+00  0.30000000000E+02  0.30000000000E+02  0.00000000000E+00 0.  1.
        -11   -1    0    0    0    0 -0.00000000000E+00 -0.00000000000E+00 -0.30000000000E+02  0.30000000000E+02  0.00000000000E+00 0. -1.
          5    1    1    2  501    0 -0.77464783867E+01 -0.93362828056E+01 -0.27032127108E+02  0.30000000000E+02  0.47000000000E+01 0. -1.
         -5    1    1    2    0  501  0.77464783867E+01  0.93362828056E+01  0.27032127108E+02  0.30000000000E+02  0.47000000000E+01 0.  1.
</event>
<event>
 4    1  0.7503339E-002  0.6000000E+02  0.7546771E-02  0.1259629E+00
         11   -1    0    0    0    0  0.00000000000E+00  0.00000000000E+00  0.30000000000E+02  0.30000000000E+02  0.00000000000E+00 0.  1.
        -11   -1    0    0    0    0 -0.00000000000E+00 -0.00000000000E+00 -0.30000000000E+02  0.30000000000E+02  0.00000000000E+00 0. -1.
          5    1    1    2  501    0  0.71947190682E+01  0.19572495339E+02  0.21049072277E+02  0.30000000000E+02  0.47000000000E+01 0.  1.
         -5    1    1    2    0  501 -0.71947190682E+01 -0.19572495339E+02 -0.21049072277E+02  0.30000000000E+02  0.47000000000E+01 0. -1.
</event>
<event>
 4    1  0.7503339E-002  0.6000000E+02  0.7546771E-02  0.1259629E+00
         11   -1    0    0    0    0  0.00000000000E+00  0.00000000000E+00  0.30000000000E+02  0.30000000000E+02  0.00000000000E+00 0.  1.
        -11   -1    0    0    0    0 -0.00000000000E+00 -0.00000000000E+00 -0.30000000000E+02  0.30000000000E+02  0.00000000000E+00 0. -1.
          5    1    1    2  501    0 -0.48124955062E+01 -0.26371435840E+01 -0.29116925674E+02  0.30000000000E+02  0.47000000000E+01 0. -1.
         -5    1    1    2    0  501  0.48124955062E+01  0.26371435840E+01  0.29116925674E+02  0.30000000000E+02  0.47000000000E+01 0.  1.
</event>
<event>
 4    1  0.7503339E-002  0.6000000E+02  0.7546771E-02  0.1259629E+00
         11   -1    0    0    0    0  0.00000000000E+00  0.00000000000E+00  0.30000000000E+02  0.30000000000E+02  0.00000000000E+00 0. -1.
        -11   -1    0    0    0    0 -0.00000000000E+00 -0.00000000000E+00 -0.30000000000E+02  0.30000000000E+02  0.00000000000E+00 0.  1.
          5    1    1    2  501    0 -0.29151714762E+01  0.19980472654E+02  0.21683922334E+02  0.30000000000E+02  0.47000000000E+01 0. -1.
         -5    1    1    2    0  501  0.29151714762E+01 -0.19980472654E+02 -0.21683922334E+02  0.30000000000E+02  0.47000000000E+01 0.  1.
</event>
<event>
 4    1  0.7503339E-002  0.6000000E+02  0.7546771E-02  0.1259629E+00
         11   -1    0    0    0    0  0.00000000000E+00  0.00000000000E+00  0.30000000000E+02  0.30000000000E+02  0.00000000000E+00 0.  1.
        -11   -1    0    0    0    0 -0.00000000000E+00 -0.00000000000E+00 -0.30000000000E+02  0.30000000000E+02  0.00000000000E+00 0. -1.
          5    1    1    2  501    0 -0.29507505845E+02  0.25764943566E+01 -0.76077303540E+00  0.30000000000E+02  0.47000000000E+01 0. -1.
         -5    1    1    2    0  501  0.29507505845E+02 -0.25764943566E+01  0.76077303540E+00  0.30000000000E+02  0.47000000000E+01 0.  1.
</event>
<event>
 4    1  0.7503339E-002  0.6000000E+02  0.7546771E-02  0.1259629E+00
         11   -1    0    0    0    0  0.00000000000E+00  0.00000000000E+00  0.30000000000E+02  0.30000000000E+02  0.00000000000E+00 0.  1.
        -11   -1    0    0    0    0 -0.00000000000E+00 -0.00000000000E+00 -0.30000000000E+02  0.30000000000E+02  0.00000000000E+00 0. -1.
          5    1    1    2  501    0  0.22097222127E+01  0.95130687728E+01 -0.27973713559E+02  0.30000000000E+02  0.47000000000E+01 0. -1.
         -5    1    1    2    0  501 -0.22097222127E+01 -0.95130687728E+01  0.27973713559E+02  0.30000000000E+02  0.47000000000E+01 0.  1.
</event>
<event>
 4    1  0.7503339E-002  0.6000000E+02  0.7546771E-02  0.1259629E+00
         11   -1    0    0    0    0  0.00000000000E+00  0.00000000000E+00  0.30000000000E+02  0.30000000000E+02  0.00000000000E+00 0.  1.
        -11   -1    0    0    0    0 -0.00000000000E+00 -0.00000000000E+00 -0.30000000000E+02  0.30000000000E+02  0.00000000000E+00 0. -1.
          5    1    1    2  501    0  0.20376839750E+02  0.18463362493E+02  0.11036242442E+02  0.30000000000E+02  0.47000000000E+01 0. -1.
         -5    1    1    2    0  501 -0.20376839750E+02 -0.18463362493E+02 -0.11036242442E+02  0.30000000000E+02  0.47000000000E+01 0.  1.
</event>
<event>
 4    1  0.7503339E-002  0.6000000E+02  0.7546771E-02  0.1259629E+00
         11   -1    0    0    0    0  0.00000000000E+00  0.00000000000E+00  0.30000000000E+02  0.30000000000E+02  0.00000000000E+00 0.  1.
        -11   -1    0    0    0    0 -0.00000000000E+00 -0.00000000000E+00 -0.30000000000E+02  0.30000000000E+02  0.00000000000E+00 0. -1.
          5    1    1    2  501    0  0.12583714194E+02  0.16545711962E+02 -0.21113965823E+02  0.30000000000E+02  0.47000000000E+01 0. -1.
         -5    1    1    2    0  501 -0.12583714194E+02 -0.16545711962E+02  0.21113965823E+02  0.30000000000E+02  0.47000000000E+01 0.  1.
</event>
<event>
 4    1  0.7503339E-002  0.6000000E+02  0.7546771E-02  0.1259629E+00
         11   -1    0    0    0    0  0.00000000000E+00  0.00000000000E+00  0.30000000000E+02  0.30000000000E+02  0.00000000000E+00 0. -1.
        -11   -1    0    0    0    0 -0.00000000000E+00 -0.00000000000E+00 -0.30000000000E+02  0.30000000000E+02  0.00000000000E+00 0.  1.
          5    1    1    2  501    0  0.28907768737E+01  0.27453970373E+02 -0.10762570316E+02  0.30000000000E+02  0.47000000000E+01 0.  1.
         -5    1    1    2    0  501 -0.28907768737E+01 -0.27453970373E+02  0.10762570316E+02  0.30000000000E+02  0.47000000000E+01 0. -1.
</event>
<event>
 4    1  0.7503339E-002  0.6000000E+02  0.7546771E-02  0.1259629E+00
         11   -1    0    0    0    0  0.00000000000E+00  0.00000000000E+00  0.30000000000E+02  0.30000000000E+02  0.00000000000E+00 0.  1.
        -11   -1    0    0    0    0 -0.00000000000E+00 -0.00000000000E+00 -0.30000000000E+02  0.30000000000E+02  0.00000000000E+00 0. -1.
          5    1    1    2  501    0  0.20012337401E+01 -0.12009156464E+02  0.27012686363E+02  0.30000000000E+02  0.47000000000E+01 0.  1.
         -5    1    1    2    0  501 -0.20012337401E+01  0.12009156464E+02 -0.27012686363E+02  0.30000000000E+02  0.47000000000E+01 0. -1.
</event>
<event>
 4    1  0.7503339E-002  0.6000000E+02  0.7546771E-02  0.1259629E+00
         11   -1    0    0    0    0  0.00000000000E+00  0.00000000000E+00  0.30000000000E+02  0.30000000000E+02  0.00000000000E+00 0.  1.
        -11   -1    0    0    0    0 -0.00000000000E+00 -0.00000000000E+00 -0.30000000000E+02  0.30000000000E+02  0.00000000000E+00 0. -1.
          5    1    1    2  501    0  0.25246905871E+01 -0.32771221084E+01 -0.29339332101E+02  0.30000000000E+02  0.47000000000E+01 0. -1.
         -5    1    1    2    0  501 -0.25246905871E+01  0.32771221084E+01  0.29339332101E+02  0.30000000000E+02  0.47000000000E+01 0.  1.
</event>
<event>
 4    1  0.7503339E-002  0.6000000E+02  0.7546771E-02  0.1259629E+00
         11   -1    0    0    0    0  0.00000000000E+00  0.00000000000E+00  0.30000000000E+02  0.30000000000E+02  0.00000000000E+00 0.  1.
        -11   -1    0    0    0    0 -0.00000000000E+00 -0.00000000000E+00 -0.30000000000E+02  0.30000000000E+02  0.00000000000E+00 0. -1.
          5    1    1    2  501    0  0.73045816092E+00 -0.12507447855E+02 -0.26850329216E+02  0.30000000000E+02  0.47000000000E+01 0. -1.
         -5    1    1    2    0  501 -0.73045816092E+00  0.12507447855E+02  0.26850329216E+02  0.30000000000E+02  0.47000000000E+01 0.  1.
</event>
<event>
 4    1  0.7503339E-002  0.6000000E+02  0.7546771E-02  0.1259629E+00
         11   -1    0    0    0    0  0.00000000000E+00  0.00000000000E+00  0.30000000000E+02  0.30000000000E+02  0.00000000000E+00 0.  1.
        -11   -1    0    0    0    0 -0.00000000000E+00 -0.00000000000E+00 -0.30000000000E+02  0.30000000000E+02  0.00000000000E+00 0. -1.
          5    1    1    2  501    0  0.13181025842E+02  0.25115231415E+02 -0.85671295500E+01  0.30000000000E+02  0.47000000000E+01 0. -1.
         -5    1    1    2    0  501 -0.13181025842E+02 -0.25115231415E+02  0.85671295500E+01  0.30000000000E+02  0.47000000000E+01 0.  1.
</event>
<event>
 4    1  0.7503339E-002  0.6000000E+02  0.7546771E-02  0.1259629E+00
         11   -1    0    0    0    0  0.00000000000E+00  0.00000000000E+00  0.30000000000E+02  0.30000000000E+02  0.00000000000E+00 0. -1.
        -11   -1    0    0    0    0 -0.00000000000E+00 -0.00000000000E+00 -0.30000000000E+02  0.30000000000E+02  0.00000000000E+00 0.  1.
          5    1    1    2  501    0  0.10615788747E+01  0.29567493484E+02  0.15957378739E+01  0.30000000000E+02  0.47000000000E+01 0.  1.
         -5    1    1    2    0  501 -0.10615788747E+01 -0.29567493484E+02 -0.15957378739E+01  0.30000000000E+02  0.47000000000E+01 0. -1.
</event>
<event>
 4    1  0.7503339E-002  0.6000000E+02  0.7546771E-02  0.1259629E+00
         11   -1    0    0    0    0  0.00000000000E+00  0.00000000000E+00  0.30000000000E+02  0.30000000000E+02  0.00000000000E+00 0. -1.
        -11   -1    0    0    0    0 -0.00000000000E+00 -0.00000000000E+00 -0.30000000000E+02  0.30000000000E+02  0.00000000000E+00 0.  1.
          5    1    1    2  501    0  0.72600813698E+01 -0.14276745786E+02 -0.24927409578E+02  0.30000000000E+02  0.47000000000E+01 0.  1.
         -5    1    1    2    0  501 -0.72600813698E+01  0.14276745786E+02  0.24927409578E+02  0.30000000000E+02  0.47000000000E+01 0. -1.
</event>
<event>
 4    1  0.7503339E-002  0.6000000E+02  0.7546771E-02  0.1259629E+00
         11   -1    0    0    0    0  0.00000000000E+00  0.00000000000E+00  0.30000000000E+02  0.30000000000E+02  0.00000000000E+00 0.  1.
        -11   -1    0    0    0    0 -0.00000000000E+00 -0.00000000000E+00 -0.30000000000E+02  0.30000000000E+02  0.00000000000E+00 0. -1.
          5    1    1    2  501    0 -0.16963140329E+02  0.53084190109E+01 -0.23706171302E+02  0.30000000000E+02  0.47000000000E+01 0. -1.
         -5    1    1    2    0  501  0.16963140329E+02 -0.53084190109E+01  0.23706171302E+02  0.30000000000E+02  0.47000000000E+01 0.  1.
</event>
<event>
 4    1  0.7503339E-002  0.6000000E+02  0.7546771E-02  0.1259629E+00
         11   -1    0    0    0    0  0.00000000000E+00  0.00000000000E+00  0.30000000000E+02  0.30000000000E+02  0.00000000000E+00 0.  1.
        -11   -1    0    0    0    0 -0.00000000000E+00 -0.00000000000E+00 -0.30000000000E+02  0.30000000000E+02  0.00000000000E+00 0. -1.
          5    1    1    2  501    0  0.26664203425E+02  0.20440683079E+01 -0.12757430793E+02  0.30000000000E+02  0.47000000000E+01 0. -1.
         -5    1    1    2    0  501 -0.26664203425E+02 -0.20440683079E+01  0.12757430793E+02  0.30000000000E+02  0.47000000000E+01 0.  1.
</event>
<event>
 4    1  0.7503339E-002  0.6000000E+02  0.7546771E-02  0.1259629E+00
         11   -1    0    0    0    0  0.00000000000E+00  0.00000000000E+00  0.30000000000E+02  0.30000000000E+02  0.00000000000E+00 0.  1.
        -11   -1    0    0    0    0 -0.00000000000E+00 -0.00000000000E+00 -0.30000000000E+02  0.30000000000E+02  0.00000000000E+00 0. -1.
          5    1    1    2  501    0  0.12224320834E+02  0.42419643988E+01 -0.26654862937E+02  0.30000000000E+02  0.47000000000E+01 0. -1.
         -5    1    1    2    0  501 -0.12224320834E+02 -0.42419643988E+01  0.26654862937E+02  0.30000000000E+02  0.47000000000E+01 0.  1.
</event>
<event>
 4    1  0.7503339E-002  0.6000000E+02  0.7546771E-02  0.1259629E+00
         11   -1    0    0    0    0  0.00000000000E+00  0.00000000000E+00  0.30000000000E+02  0.30000000000E+02  0.00000000000E+00 0.  1.
        -11   -1    0    0    0    0 -0.00000000000E+00 -0.00000000000E+00 -0.30000000000E+02  0.30000000000E+02  0.00000000000E+00 0. -1.
          5    1    1    2  501    0 -0.11322205456E+02  0.17169755551E+02 -0.21328787072E+02  0.30000000000E+02  0.47000000000E+01 0. -1.
         -5    1    1    2    0  501  0.11322205456E+02 -0.17169755551E+02  0.21328787072E+02  0.30000000000E+02  0.47000000000E+01 0.  1.
</event>
<event>
 4    1  0.7503339E-002  0.6000000E+02  0.7546771E-02  0.1259629E+00
         11   -1    0    0    0    0  0.00000000000E+00  0.00000000000E+00  0.30000000000E+02  0.30000000000E+02  0.00000000000E+00 0.  1.
        -11   -1    0    0    0    0 -0.00000000000E+00 -0.00000000000E+00 -0.30000000000E+02  0.30000000000E+02  0.00000000000E+00 0. -1.
          5    1    1    2  501    0  0.27640968206E+01  0.29375267836E+02 -0.27135600846E+01  0.30000000000E+02  0.47000000000E+01 0. -1.
         -5    1    1    2    0  501 -0.27640968206E+01 -0.29375267836E+02  0.27135600846E+01  0.30000000000E+02  0.47000000000E+01 0.  1.
</event>
<event>
 4    1  0.7503339E-002  0.6000000E+02  0.7546771E-02  0.1259629E+00
         11   -1    0    0    0    0  0.00000000000E+00  0.00000000000E+00  0.30000000000E+02  0.30000000000E+02  0.00000000000E+00 0. -1.
        -11   -1    0    0    0    0 -0.00000000000E+00 -0.00000000000E+00 -0.30000000000E+02  0.30000000000E+02  0.00000000000E+00 0.  1.
          5    1    1    2  501    0 -0.75464530700E+01  0.14950935117E+02 -0.24442393197E+02  0.30000000000E+02  0.47000000000E+01 0.  1.
         -5    1    1    2    0  501  0.75464530700E+01 -0.14950935117E+02  0.24442393197E+02  0.30000000000E+02  0.47000000000E+01 0. -1.
</event>
<event>
 4    1  0.7503339E-002  0.6000000E+02  0.7546771E-02  0.1259629E+00
         11   -1    0    0    0    0  0.00000000000E+00  0.00000000000E+00  0.30000000000E+02  0.30000000000E+02  0.00000000000E+00 0.  1.
        -11   -1    0    0    0    0 -0.00000000000E+00 -0.00000000000E+00 -0.30000000000E+02  0.30000000000E+02  0.00000000000E+00 0. -1.
          5    1    1    2  501    0 -0.15779572959E+02  0.22113957335E+02 -0.11827424412E+02  0.30000000000E+02  0.47000000000E+01 0. -1.
         -5    1    1    2    0  501  0.15779572959E+02 -0.22113957335E+02  0.11827424412E+02  0.30000000000E+02  0.47000000000E+01 0.  1.
</event>
<event>
 4    1  0.7503339E-002  0.6000000E+02  0.7546771E-02  0.1259629E+00
         11   -1    0    0    0    0  0.00000000000E+00  0.00000000000E+00  0.30000000000E+02  0.30000000000E+02  0.00000000000E+00 0.  1.
        -11   -1    0    0    0    0 -0.00000000000E+00 -0.00000000000E+00 -0.30000000000E+02  0.30000000000E+02  0.00000000000E+00 0. -1.
          5    1    1    2  501    0 -0.57251427673E+01 -0.72572415182E+01 -0.28150758175E+02  0.30000000000E+02  0.47000000000E+01 0. -1.
         -5    1    1    2    0  501  0.57251427673E+01  0.72572415182E+01  0.28150758175E+02  0.30000000000E+02  0.47000000000E+01 0.  1.
</event>
<event>
 4    1  0.7503339E-002  0.6000000E+02  0.7546771E-02  0.1259629E+00
         11   -1    0    0    0    0  0.00000000000E+00  0.00000000000E+00  0.30000000000E+02  0.30000000000E+02  0.00000000000E+00 0.  1.
        -11   -1    0    0    0    0 -0.00000000000E+00 -0.00000000000E+00 -0.30000000000E+02  0.30000000000E+02  0.00000000000E+00 0. -1.
          5    1    1    2  501    0 -0.21649768427E+02  0.54209817136E+01  0.19488727109E+02  0.30000000000E+02  0.47000000000E+01 0.  1.
         -5    1    1    2    0  501  0.21649768427E+02 -0.54209817136E+01 -0.19488727109E+02  0.30000000000E+02  0.47000000000E+01 0. -1.
</event>
<event>
 4    1  0.7503339E-002  0.6000000E+02  0.7546771E-02  0.1259629E+00
         11   -1    0    0    0    0  0.00000000000E+00  0.00000000000E+00  0.30000000000E+02  0.30000000000E+02  0.00000000000E+00 0.  1.
        -11   -1    0    0    0    0 -0.00000000000E+00 -0.00000000000E+00 -0.30000000000E+02  0.30000000000E+02  0.00000000000E+00 0. -1.
          5    1    1    2  501    0  0.14774712842E+02  0.72651176015E+01 -0.24634039999E+02  0.30000000000E+02  0.47000000000E+01 0. -1.
         -5    1    1    2    0  501 -0.14774712842E+02 -0.72651176015E+01  0.24634039999E+02  0.30000000000E+02  0.47000000000E+01 0.  1.
</event>
<event>
 4    1  0.7503339E-002  0.6000000E+02  0.7546771E-02  0.1259629E+00
         11   -1    0    0    0    0  0.00000000000E+00  0.00000000000E+00  0.30000000000E+02  0.30000000000E+02  0.00000000000E+00 0.  1.
        -11   -1    0    0    0    0 -0.00000000000E+00 -0.00000000000E+00 -0.30000000000E+02  0.30000000000E+02  0.00000000000E+00 0. -1.
          5    1    1    2  501    0 -0.34832777536E+01  0.17964914946E+02 -0.23303188774E+02  0.30000000000E+02  0.47000000000E+01 0. -1.
         -5    1    1    2    0  501  0.34832777536E+01 -0.17964914946E+02  0.23303188774E+02  0.30000000000E+02  0.47000000000E+01 0.  1.
</event>
<event>
 4    1  0.7503339E-002  0.6000000E+02  0.7546771E-02  0.1259629E+00
         11   -1    0    0    0    0  0.00000000000E+00  0.00000000000E+00  0.30000000000E+02  0.30000000000E+02  0.00000000000E+00 0.  1.
        -11   -1    0    0    0    0 -0.00000000000E+00 -0.00000000000E+00 -0.30000000000E+02  0.30000000000E+02  0.00000000000E+00 0. -1.
          5    1    1    2  501    0  0.22406709699E+02  0.19041365091E+02  0.36435938262E+01  0.30000000000E+02  0.47000000000E+01 0. -1.
         -5    1    1    2    0  501 -0.22406709699E+02 -0.19041365091E+02 -0.36435938262E+01  0.30000000000E+02  0.47000000000E+01 0.  1.
</event>
<event>
 4    1  0.7503339E-002  0.6000000E+02  0.7546771E-02  0.1259629E+00
         11   -1    0    0    0    0  0.00000000000E+00  0.00000000000E+00  0.30000000000E+02  0.30000000000E+02  0.00000000000E+00 0.  1.
        -11   -1    0    0    0    0 -0.00000000000E+00 -0.00000000000E+00 -0.30000000000E+02  0.30000000000E+02  0.00000000000E+00 0. -1.
          5    1    1    2  501    0  0.24679105650E+01 -0.60298224520E+01 -0.28904336329E+02  0.30000000000E+02  0.47000000000E+01 0. -1.
         -5    1    1    2    0  501 -0.24679105650E+01  0.60298224520E+01  0.28904336329E+02  0.30000000000E+02  0.47000000000E+01 0.  1.
</event>
<event>
 4    1  0.7503339E-002  0.6000000E+02  0.7546771E-02  0.1259629E+00
         11   -1    0    0    0    0  0.00000000000E+00  0.00000000000E+00  0.30000000000E+02  0.30000000000E+02  0.00000000000E+00 0.  1.
        -11   -1    0    0    0    0 -0.00000000000E+00 -0.00000000000E+00 -0.30000000000E+02  0.30000000000E+02  0.00000000000E+00 0. -1.
          5    1    1    2  501    0 -0.10017038983E+02 -0.15374658581E+02 -0.23263464994E+02  0.30000000000E+02  0.47000000000E+01 0. -1.
         -5    1    1    2    0  501  0.10017038983E+02  0.15374658581E+02  0.23263464994E+02  0.30000000000E+02  0.47000000000E+01 0.  1.
</event>
<event>
 4    1  0.7503339E-002  0.6000000E+02  0.7546771E-02  0.1259629E+00
         11   -1    0    0    0    0  0.00000000000E+00  0.00000000000E+00  0.30000000000E+02  0.30000000000E+02  0.00000000000E+00 0.  1.
        -11   -1    0    0    0    0 -0.00000000000E+00 -0.00000000000E+00 -0.30000000000E+02  0.30000000000E+02  0.00000000000E+00 0. -1.
          5    1    1    2  501    0 -0.11656765022E+02 -0.18831826066E+02 -0.19682280260E+02  0.30000000000E+02  0.47000000000E+01 0. -1.
         -5    1    1    2    0  501  0.11656765022E+02  0.18831826066E+02  0.19682280260E+02  0.30000000000E+02  0.47000000000E+01 0.  1.
</event>
<event>
 4    1  0.7503339E-002  0.6000000E+02  0.7546771E-02  0.1259629E+00
         11   -1    0    0    0    0  0.00000000000E+00  0.00000000000E+00  0.30000000000E+02  0.30000000000E+02  0.00000000000E+00 0.  1.
        -11   -1    0    0    0    0 -0.00000000000E+00 -0.00000000000E+00 -0.30000000000E+02  0.30000000000E+02  0.00000000000E+00 0. -1.
          5    1    1    2  501    0 -0.12783659344E+02  0.12814398268E+02 -0.23458031691E+02  0.30000000000E+02  0.47000000000E+01 0. -1.
         -5    1    1    2    0  501  0.12783659344E+02 -0.12814398268E+02  0.23458031691E+02  0.30000000000E+02  0.47000000000E+01 0.  1.
</event>
<event>
 4    1  0.7503339E-002  0.6000000E+02  0.7546771E-02  0.1259629E+00
         11   -1    0    0    0    0  0.00000000000E+00  0.00000000000E+00  0.30000000000E+02  0.30000000000E+02  0.00000000000E+00 0.  1.
        -11   -1    0    0    0    0 -0.00000000000E+00 -0.00000000000E+00 -0.30000000000E+02  0.30000000000E+02  0.00000000000E+00 0. -1.
          5    1    1    2  501    0  0.10477370900E+02  0.25663924509E+02 -0.10464113809E+02  0.30000000000E+02  0.47000000000E+01 0. -1.
         -5    1    1    2    0  501 -0.10477370900E+02 -0.25663924509E+02  0.10464113809E+02  0.30000000000E+02  0.47000000000E+01 0.  1.
</event>
<event>
 4    1  0.7503339E-002  0.6000000E+02  0.7546771E-02  0.1259629E+00
         11   -1    0    0    0    0  0.00000000000E+00  0.00000000000E+00  0.30000000000E+02  0.30000000000E+02  0.00000000000E+00 0. -1.
        -11   -1    0    0    0    0 -0.00000000000E+00 -0.00000000000E+00 -0.30000000000E+02  0.30000000000E+02  0.00000000000E+00 0.  1.
          5    1    1    2  501    0 -0.74832835225E+01 -0.26971643159E+02  0.97180724951E+01  0.30000000000E+02  0.47000000000E+01 0.  1.
         -5    1    1    2    0  501  0.74832835225E+01  0.26971643159E+02 -0.97180724951E+01  0.30000000000E+02  0.47000000000E+01 0. -1.
</event>
<event>
 4    1  0.7503339E-002  0.6000000E+02  0.7546771E-02  0.1259629E+00
         11   -1    0    0    0    0  0.00000000000E+00  0.00000000000E+00  0.30000000000E+02  0.30000000000E+02  0.00000000000E+00 0.  1.
        -11   -1    0    0    0    0 -0.00000000000E+00 -0.00000000000E+00 -0.30000000000E+02  0.30000000000E+02  0.00000000000E+00 0. -1.
          5    1    1    2  501    0 -0.25047674655E+02 -0.61610880113E+01 -0.14579608667E+02  0.30000000000E+02  0.47000000000E+01 0. -1.
         -5    1    1    2    0  501  0.25047674655E+02  0.61610880113E+01  0.14579608667E+02  0.30000000000E+02  0.47000000000E+01 0.  1.
</event>
<event>
 4    1  0.7503339E-002  0.6000000E+02  0.7546771E-02  0.1259629E+00
         11   -1    0    0    0    0  0.00000000000E+00  0.00000000000E+00  0.30000000000E+02  0.30000000000E+02  0.00000000000E+00 0.  1.
        -11   -1    0    0    0    0 -0.00000000000E+00 -0.00000000000E+00 -0.30000000000E+02  0.30000000000E+02  0.00000000000E+00 0. -1.
          5    1    1    2  501    0  0.85253181047E+01 -0.18174515684E+02 -0.21792565954E+02  0.30000000000E+02  0.47000000000E+01 0. -1.
         -5    1    1    2    0  501 -0.85253181047E+01  0.18174515684E+02  0.21792565954E+02  0.30000000000E+02  0.47000000000E+01 0.  1.
</event>
<event>
 4    1  0.7503339E-002  0.6000000E+02  0.7546771E-02  0.1259629E+00
         11   -1    0    0    0    0  0.00000000000E+00  0.00000000000E+00  0.30000000000E+02  0.30000000000E+02  0.00000000000E+00 0.  1.
        -11   -1    0    0    0    0 -0.00000000000E+00 -0.00000000000E+00 -0.30000000000E+02  0.30000000000E+02  0.00000000000E+00 0. -1.
          5    1    1    2  501    0 -0.20426013635E+02  0.18179197765E+02 -0.11410728969E+02  0.30000000000E+02  0.47000000000E+01 0. -1.
         -5    1    1    2    0  501  0.20426013635E+02 -0.18179197765E+02  0.11410728969E+02  0.30000000000E+02  0.47000000000E+01 0.  1.
</event>
<event>
 4    1  0.7503339E-002  0.6000000E+02  0.7546771E-02  0.1259629E+00
         11   -1    0    0    0    0  0.00000000000E+00  0.00000000000E+00  0.30000000000E+02  0.30000000000E+02  0.00000000000E+00 0.  1.
        -11   -1    0    0    0    0 -0.00000000000E+00 -0.00000000000E+00 -0.30000000000E+02  0.30000000000E+02  0.00000000000E+00 0. -1.
          5    1    1    2  501    0 -0.63838698707E+01  0.14267804032E+02 -0.25171133736E+02  0.30000000000E+02  0.47000000000E+01 0. -1.
         -5    1    1    2    0  501  0.63838698707E+01 -0.14267804032E+02  0.25171133736E+02  0.30000000000E+02  0.47000000000E+01 0.  1.
</event>
<event>
 4    1  0.7503339E-002  0.6000000E+02  0.7546771E-02  0.1259629E+00
         11   -1    0    0    0    0  0.00000000000E+00  0.00000000000E+00  0.30000000000E+02  0.30000000000E+02  0.00000000000E+00 0.  1.
        -11   -1    0    0    0    0 -0.00000000000E+00 -0.00000000000E+00 -0.30000000000E+02  0.30000000000E+02  0.00000000000E+00 0. -1.
          5    1    1    2  501    0  0.26976349666E+02  0.61691100793E+01 -0.10589081146E+02  0.30000000000E+02  0.47000000000E+01 0. -1.
         -5    1    1    2    0  501 -0.26976349666E+02 -0.61691100793E+01  0.10589081146E+02  0.30000000000E+02  0.47000000000E+01 0.  1.
</event>
<event>
 4    1  0.7503339E-002  0.6000000E+02  0.7546771E-02  0.1259629E+00
         11   -1    0    0    0    0  0.00000000000E+00  0.00000000000E+00  0.30000000000E+02  0.30000000000E+02  0.00000000000E+00 0.  1.
        -11   -1    0    0    0    0 -0.00000000000E+00 -0.00000000000E+00 -0.30000000000E+02  0.30000000000E+02  0.00000000000E+00 0. -1.
          5    1    1    2  501    0 -0.42891456270E+01 -0.98520596949E+01 -0.27612499879E+02  0.30000000000E+02  0.47000000000E+01 0. -1.
         -5    1    1    2    0  501  0.42891456270E+01  0.98520596949E+01  0.27612499879E+02  0.30000000000E+02  0.47000000000E+01 0.  1.
</event>
<event>
 4    1  0.7503339E-002  0.6000000E+02  0.7546771E-02  0.1259629E+00
         11   -1    0    0    0    0  0.00000000000E+00  0.00000000000E+00  0.30000000000E+02  0.30000000000E+02  0.00000000000E+00 0.  1.
        -11   -1    0    0    0    0 -0.00000000000E+00 -0.00000000000E+00 -0.30000000000E+02  0.30000000000E+02  0.00000000000E+00 0. -1.
          5    1    1    2  501    0  0.23951190323E+02  0.99776516613E+01 -0.14307234164E+02  0.30000000000E+02  0.47000000000E+01 0. -1.
         -5    1    1    2    0  501 -0.23951190323E+02 -0.99776516613E+01  0.14307234164E+02  0.30000000000E+02  0.47000000000E+01 0.  1.
</event>
<event>
 4    1  0.7503339E-002  0.6000000E+02  0.7546771E-02  0.1259629E+00
         11   -1    0    0    0    0  0.00000000000E+00  0.00000000000E+00  0.30000000000E+02  0.30000000000E+02  0.00000000000E+00 0.  1.
        -11   -1    0    0    0    0 -0.00000000000E+00 -0.00000000000E+00 -0.30000000000E+02  0.30000000000E+02  0.00000000000E+00 0. -1.
          5    1    1    2  501    0  0.23466402364E+01  0.19806265498E+02 -0.21911529537E+02  0.30000000000E+02  0.47000000000E+01 0. -1.
         -5    1    1    2    0  501 -0.23466402364E+01 -0.19806265498E+02  0.21911529537E+02  0.30000000000E+02  0.47000000000E+01 0.  1.
</event>
<event>
 4    1  0.7503339E-002  0.6000000E+02  0.7546771E-02  0.1259629E+00
         11   -1    0    0    0    0  0.00000000000E+00  0.00000000000E+00  0.30000000000E+02  0.30000000000E+02  0.00000000000E+00 0. -1.
        -11   -1    0    0    0    0 -0.00000000000E+00 -0.00000000000E+00 -0.30000000000E+02  0.30000000000E+02  0.00000000000E+00 0.  1.
          5    1    1    2  501    0  0.15428052850E+02 -0.76276839488E+00 -0.25284449166E+02  0.30000000000E+02  0.47000000000E+01 0.  1.
         -5    1    1    2    0  501 -0.15428052850E+02  0.76276839488E+00  0.25284449166E+02  0.30000000000E+02  0.47000000000E+01 0. -1.
</event>
<event>
 4    1  0.7503339E-002  0.6000000E+02  0.7546771E-02  0.1259629E+00
         11   -1    0    0    0    0  0.00000000000E+00  0.00000000000E+00  0.30000000000E+02  0.30000000000E+02  0.00000000000E+00 0.  1.
        -11   -1    0    0    0    0 -0.00000000000E+00 -0.00000000000E+00 -0.30000000000E+02  0.30000000000E+02  0.00000000000E+00 0. -1.
          5    1    1    2  501    0 -0.38247733259E+01  0.14954854342E+02 -0.25290975478E+02  0.30000000000E+02  0.47000000000E+01 0. -1.
         -5    1    1    2    0  501  0.38247733259E+01 -0.14954854342E+02  0.25290975478E+02  0.30000000000E+02  0.47000000000E+01 0.  1.
</event>
<event>
 4    1  0.7503339E-002  0.6000000E+02  0.7546771E-02  0.1259629E+00
         11   -1    0    0    0    0  0.00000000000E+00  0.00000000000E+00  0.30000000000E+02  0.30000000000E+02  0.00000000000E+00 0. -1.
        -11   -1    0    0    0    0 -0.00000000000E+00 -0.00000000000E+00 -0.30000000000E+02  0.30000000000E+02  0.00000000000E+00 0.  1.
          5    1    1    2  501    0  0.88047334280E+01  0.24500858103E+02 -0.14145480603E+02  0.30000000000E+02  0.47000000000E+01 0.  1.
         -5    1    1    2    0  501 -0.88047334280E+01 -0.24500858103E+02  0.14145480603E+02  0.30000000000E+02  0.47000000000E+01 0. -1.
</event>
<event>
 4    1  0.7503339E-002  0.6000000E+02  0.7546771E-02  0.1259629E+00
         11   -1    0    0    0    0  0.00000000000E+00  0.00000000000E+00  0.30000000000E+02  0.30000000000E+02  0.00000000000E+00 0.  1.
        -11   -1    0    0    0    0 -0.00000000000E+00 -0.00000000000E+00 -0.30000000000E+02  0.30000000000E+02  0.00000000000E+00 0. -1.
          5    1    1    2  501    0 -0.86184432621E+01 -0.13799253349E+02 -0.24763138790E+02  0.30000000000E+02  0.47000000000E+01 0. -1.
         -5    1    1    2    0  501  0.86184432621E+01  0.13799253349E+02  0.24763138790E+02  0.30000000000E+02  0.47000000000E+01 0.  1.
</event>
<event>
 4    1  0.7503339E-002  0.6000000E+02  0.7546771E-02  0.1259629E+00
         11   -1    0    0    0    0  0.00000000000E+00  0.00000000000E+00  0.30000000000E+02  0.30000000000E+02  0.00000000000E+00 0. -1.
        -11   -1    0    0    0    0 -0.00000000000E+00 -0.00000000000E+00 -0.30000000000E+02  0.30000000000E+02  0.00000000000E+00 0.  1.
          5    1    1    2  501    0  0.27185099815E+02  0.11595996062E+02 -0.21007673355E+01  0.30000000000E+02  0.47000000000E+01 0.  1.
         -5    1    1    2    0  501 -0.27185099815E+02 -0.11595996062E+02  0.21007673355E+01  0.30000000000E+02  0.47000000000E+01 0. -1.
</event>
<event>
 4    1  0.7503339E-002  0.6000000E+02  0.7546771E-02  0.1259629E+00
         11   -1    0    0    0    0  0.00000000000E+00  0.00000000000E+00  0.30000000000E+02  0.30000000000E+02  0.00000000000E+00 0.  1.
        -11   -1    0    0    0    0 -0.00000000000E+00 -0.00000000000E+00 -0.30000000000E+02  0.30000000000E+02  0.00000000000E+00 0. -1.
          5    1    1    2  501    0  0.28643128363E+02  0.27825301412E+01 -0.70525685800E+01  0.30000000000E+02  0.47000000000E+01 0. -1.
         -5    1    1    2    0  501 -0.28643128363E+02 -0.27825301412E+01  0.70525685800E+01  0.30000000000E+02  0.47000000000E+01 0.  1.
</event>
<event>
 4    1  0.7503339E-002  0.6000000E+02  0.7546771E-02  0.1259629E+00
         11   -1    0    0    0    0  0.00000000000E+00  0.00000000000E+00  0.30000000000E+02  0.30000000000E+02  0.00000000000E+00 0. -1.
        -11   -1    0    0    0    0 -0.00000000000E+00 -0.00000000000E+00 -0.30000000000E+02  0.30000000000E+02  0.00000000000E+00 0.  1.
          5    1    1    2  501    0 -0.20709511547E+01 -0.12734603317E+02 -0.26673039566E+02  0.30000000000E+02  0.47000000000E+01 0.  1.
         -5    1    1    2    0  501  0.20709511547E+01  0.12734603317E+02  0.26673039566E+02  0.30000000000E+02  0.47000000000E+01 0. -1.
</event>
<event>
 4    1  0.7503339E-002  0.6000000E+02  0.7546771E-02  0.1259629E+00
         11   -1    0    0    0    0  0.00000000000E+00  0.00000000000E+00  0.30000000000E+02  0.30000000000E+02  0.00000000000E+00 0. -1.
        -11   -1    0    0    0    0 -0.00000000000E+00 -0.00000000000E+00 -0.30000000000E+02  0.30000000000E+02  0.00000000000E+00 0.  1.
          5    1    1    2  501    0  0.21029054101E+02 -0.11562674158E+02 -0.17377958739E+02  0.30000000000E+02  0.47000000000E+01 0.  1.
         -5    1    1    2    0  501 -0.21029054101E+02  0.11562674158E+02  0.17377958739E+02  0.30000000000E+02  0.47000000000E+01 0. -1.
</event>
<event>
 4    1  0.7503339E-002  0.6000000E+02  0.7546771E-02  0.1259629E+00
         11   -1    0    0    0    0  0.00000000000E+00  0.00000000000E+00  0.30000000000E+02  0.30000000000E+02  0.00000000000E+00 0. -1.
        -11   -1    0    0    0    0 -0.00000000000E+00 -0.00000000000E+00 -0.30000000000E+02  0.30000000000E+02  0.00000000000E+00 0.  1.
          5    1    1    2  501    0  0.16359999072E+02  0.77954130096E+01  0.23441244983E+02  0.30000000000E+02  0.47000000000E+01 0. -1.
         -5    1    1    2    0  501 -0.16359999072E+02 -0.77954130096E+01 -0.23441244983E+02  0.30000000000E+02  0.47000000000E+01 0.  1.
</event>
<event>
 4    1  0.7503339E-002  0.6000000E+02  0.7546771E-02  0.1259629E+00
         11   -1    0    0    0    0  0.00000000000E+00  0.00000000000E+00  0.30000000000E+02  0.30000000000E+02  0.00000000000E+00 0. -1.
        -11   -1    0    0    0    0 -0.00000000000E+00 -0.00000000000E+00 -0.30000000000E+02  0.30000000000E+02  0.00000000000E+00 0.  1.
          5    1    1    2  501    0  0.24621822160E+02  0.30467612827E+01 -0.16198552997E+02  0.30000000000E+02  0.47000000000E+01 0.  1.
         -5    1    1    2    0  501 -0.24621822160E+02 -0.30467612827E+01  0.16198552997E+02  0.30000000000E+02  0.47000000000E+01 0. -1.
</event>
<event>
 4    1  0.7503339E-002  0.6000000E+02  0.7546771E-02  0.1259629E+00
         11   -1    0    0    0    0  0.00000000000E+00  0.00000000000E+00  0.30000000000E+02  0.30000000000E+02  0.00000000000E+00 0.  1.
        -11   -1    0    0    0    0 -0.00000000000E+00 -0.00000000000E+00 -0.30000000000E+02  0.30000000000E+02  0.00000000000E+00 0. -1.
          5    1    1    2  501    0  0.14599028763E+02  0.25257133821E+02  0.51822341051E+01  0.30000000000E+02  0.47000000000E+01 0. -1.
         -5    1    1    2    0  501 -0.14599028763E+02 -0.25257133821E+02 -0.51822341051E+01  0.30000000000E+02  0.47000000000E+01 0.  1.
</event>
<event>
 4    1  0.7503339E-002  0.6000000E+02  0.7546771E-02  0.1259629E+00
         11   -1    0    0    0    0  0.00000000000E+00  0.00000000000E+00  0.30000000000E+02  0.30000000000E+02  0.00000000000E+00 0.  1.
        -11   -1    0    0    0    0 -0.00000000000E+00 -0.00000000000E+00 -0.30000000000E+02  0.30000000000E+02  0.00000000000E+00 0. -1.
          5    1    1    2  501    0 -0.67303353980E+01  0.18414203644E+02 -0.22215528119E+02  0.30000000000E+02  0.47000000000E+01 0. -1.
         -5    1    1    2    0  501  0.67303353980E+01 -0.18414203644E+02  0.22215528119E+02  0.30000000000E+02  0.47000000000E+01 0.  1.
</event>
<event>
 4    1  0.7503339E-002  0.6000000E+02  0.7546771E-02  0.1259629E+00
         11   -1    0    0    0    0  0.00000000000E+00  0.00000000000E+00  0.30000000000E+02  0.30000000000E+02  0.00000000000E+00 0. -1.
        -11   -1    0    0    0    0 -0.00000000000E+00 -0.00000000000E+00 -0.30000000000E+02  0.30000000000E+02  0.00000000000E+00 0.  1.
          5    1    1    2  501    0  0.14875079278E+02  0.95421435384E+01 -0.23782125918E+02  0.30000000000E+02  0.47000000000E+01 0.  1.
         -5    1    1    2    0  501 -0.14875079278E+02 -0.95421435384E+01  0.23782125918E+02  0.30000000000E+02  0.47000000000E+01 0. -1.
</event>
<event>
 4    1  0.7503339E-002  0.6000000E+02  0.7546771E-02  0.1259629E+00
         11   -1    0    0    0    0  0.00000000000E+00  0.00000000000E+00  0.30000000000E+02  0.30000000000E+02  0.00000000000E+00 0. -1.
        -11   -1    0    0    0    0 -0.00000000000E+00 -0.00000000000E+00 -0.30000000000E+02  0.30000000000E+02  0.00000000000E+00 0.  1.
          5    1    1    2  501    0 -0.15416022710E+02 -0.16007638908E+02  0.19596217503E+02  0.30000000000E+02  0.47000000000E+01 0. -1.
         -5    1    1    2    0  501  0.15416022710E+02  0.16007638908E+02 -0.19596217503E+02  0.30000000000E+02  0.47000000000E+01 0. -1.
</event>
<event>
 4    1  0.7503339E-002  0.6000000E+02  0.7546771E-02  0.1259629E+00
         11   -1    0    0    0    0  0.00000000000E+00  0.00000000000E+00  0.30000000000E+02  0.30000000000E+02  0.00000000000E+00 0.  1.
        -11   -1    0    0    0    0 -0.00000000000E+00 -0.00000000000E+00 -0.30000000000E+02  0.30000000000E+02  0.00000000000E+00 0. -1.
          5    1    1    2  501    0  0.48061770795E+01 -0.28468622284E+02 -0.66594449582E+01  0.30000000000E+02  0.47000000000E+01 0. -1.
         -5    1    1    2    0  501 -0.48061770795E+01  0.28468622284E+02  0.66594449582E+01  0.30000000000E+02  0.47000000000E+01 0.  1.
</event>
<event>
 4    1  0.7503339E-002  0.6000000E+02  0.7546771E-02  0.1259629E+00
         11   -1    0    0    0    0  0.00000000000E+00  0.00000000000E+00  0.30000000000E+02  0.30000000000E+02  0.00000000000E+00 0.  1.
        -11   -1    0    0    0    0 -0.00000000000E+00 -0.00000000000E+00 -0.30000000000E+02  0.30000000000E+02  0.00000000000E+00 0. -1.
          5    1    1    2  501    0 -0.73431637092E+01 -0.13829523013E+02 -0.25154169435E+02  0.30000000000E+02  0.47000000000E+01 0. -1.
         -5    1    1    2    0  501  0.73431637092E+01  0.13829523013E+02  0.25154169435E+02  0.30000000000E+02  0.47000000000E+01 0.  1.
</event>
<event>
 4    1  0.7503339E-002  0.6000000E+02  0.7546771E-02  0.1259629E+00
         11   -1    0    0    0    0  0.00000000000E+00  0.00000000000E+00  0.30000000000E+02  0.30000000000E+02  0.00000000000E+00 0.  1.
        -11   -1    0    0    0    0 -0.00000000000E+00 -0.00000000000E+00 -0.30000000000E+02  0.30000000000E+02  0.00000000000E+00 0. -1.
          5    1    1    2  501    0  0.16670095074E+01  0.18631923440E+02 -0.22977869967E+02  0.30000000000E+02  0.47000000000E+01 0.  1.
         -5    1    1    2    0  501 -0.16670095074E+01 -0.18631923440E+02  0.22977869967E+02  0.30000000000E+02  0.47000000000E+01 0. -1.
</event>
<event>
 4    1  0.7503339E-002  0.6000000E+02  0.7546771E-02  0.1259629E+00
         11   -1    0    0    0    0  0.00000000000E+00  0.00000000000E+00  0.30000000000E+02  0.30000000000E+02  0.00000000000E+00 0. -1.
        -11   -1    0    0    0    0 -0.00000000000E+00 -0.00000000000E+00 -0.30000000000E+02  0.30000000000E+02  0.00000000000E+00 0.  1.
          5    1    1    2  501    0  0.55173366878E+01 -0.18209197150E+02 -0.22713303041E+02  0.30000000000E+02  0.47000000000E+01 0.  1.
         -5    1    1    2    0  501 -0.55173366878E+01  0.18209197150E+02  0.22713303041E+02  0.30000000000E+02  0.47000000000E+01 0. -1.
</event>
<event>
 4    1  0.7503339E-002  0.6000000E+02  0.7546771E-02  0.1259629E+00
         11   -1    0    0    0    0  0.00000000000E+00  0.00000000000E+00  0.30000000000E+02  0.30000000000E+02  0.00000000000E+00 0. -1.
        -11   -1    0    0    0    0 -0.00000000000E+00 -0.00000000000E+00 -0.30000000000E+02  0.30000000000E+02  0.00000000000E+00 0.  1.
          5    1    1    2  501    0  0.25624028631E+02 -0.14031649187E+02  0.49428714137E+01  0.30000000000E+02  0.47000000000E+01 0.  1.
         -5    1    1    2    0  501 -0.25624028631E+02  0.14031649187E+02 -0.49428714137E+01  0.30000000000E+02  0.47000000000E+01 0. -1.
</event>
<event>
 4    1  0.7503339E-002  0.6000000E+02  0.7546771E-02  0.1259629E+00
         11   -1    0    0    0    0  0.00000000000E+00  0.00000000000E+00  0.30000000000E+02  0.30000000000E+02  0.00000000000E+00 0.  1.
        -11   -1    0    0    0    0 -0.00000000000E+00 -0.00000000000E+00 -0.30000000000E+02  0.30000000000E+02  0.00000000000E+00 0. -1.
          5    1    1    2  501    0  0.53775855480E+01 -0.16796483392E+02 -0.23809026006E+02  0.30000000000E+02  0.47000000000E+01 0. -1.
         -5    1    1    2    0  501 -0.53775855480E+01  0.16796483392E+02  0.23809026006E+02  0.30000000000E+02  0.47000000000E+01 0.  1.
</event>
<event>
 4    1  0.7503339E-002  0.6000000E+02  0.7546771E-02  0.1259629E+00
         11   -1    0    0    0    0  0.00000000000E+00  0.00000000000E+00  0.30000000000E+02  0.30000000000E+02  0.00000000000E+00 0.  1.
        -11   -1    0    0    0    0 -0.00000000000E+00 -0.00000000000E+00 -0.30000000000E+02  0.30000000000E+02  0.00000000000E+00 0. -1.
          5    1    1    2  501    0  0.10027119484E+02 -0.13753553371E+02 -0.24252971870E+02  0.30000000000E+02  0.47000000000E+01 0. -1.
         -5    1    1    2    0  501 -0.10027119484E+02  0.13753553371E+02  0.24252971870E+02  0.30000000000E+02  0.47000000000E+01 0.  1.
</event>
<event>
 4    1  0.7503339E-002  0.6000000E+02  0.7546771E-02  0.1259629E+00
         11   -1    0    0    0    0  0.00000000000E+00  0.00000000000E+00  0.30000000000E+02  0.30000000000E+02  0.00000000000E+00 0.  1.
        -11   -1    0    0    0    0 -0.00000000000E+00 -0.00000000000E+00 -0.30000000000E+02  0.30000000000E+02  0.00000000000E+00 0. -1.
          5    1    1    2  501    0  0.15271105670E+02  0.88739981148E+01 -0.23789819022E+02  0.30000000000E+02  0.47000000000E+01 0. -1.
         -5    1    1    2    0  501 -0.15271105670E+02 -0.88739981148E+01  0.23789819022E+02  0.30000000000E+02  0.47000000000E+01 0.  1.
</event>
<event>
 4    1  0.7503339E-002  0.6000000E+02  0.7546771E-02  0.1259629E+00
         11   -1    0    0    0    0  0.00000000000E+00  0.00000000000E+00  0.30000000000E+02  0.30000000000E+02  0.00000000000E+00 0.  1.
        -11   -1    0    0    0    0 -0.00000000000E+00 -0.00000000000E+00 -0.30000000000E+02  0.30000000000E+02  0.00000000000E+00 0. -1.
          5    1    1    2  501    0  0.15072274769E+02  0.19307858802E+02 -0.16671626249E+02  0.30000000000E+02  0.47000000000E+01 0. -1.
         -5    1    1    2    0  501 -0.15072274769E+02 -0.19307858802E+02  0.16671626249E+02  0.30000000000E+02  0.47000000000E+01 0.  1.
</event>
<event>
 4    1  0.7503339E-002  0.6000000E+02  0.7546771E-02  0.1259629E+00
         11   -1    0    0    0    0  0.00000000000E+00  0.00000000000E+00  0.30000000000E+02  0.30000000000E+02  0.00000000000E+00 0. -1.
        -11   -1    0    0    0    0 -0.00000000000E+00 -0.00000000000E+00 -0.30000000000E+02  0.30000000000E+02  0.00000000000E+00 0.  1.
          5    1    1    2  501    0 -0.10118922932E+02  0.27014910478E+02 -0.67610657878E+01  0.30000000000E+02  0.47000000000E+01 0.  1.
         -5    1    1    2    0  501  0.10118922932E+02 -0.27014910478E+02  0.67610657878E+01  0.30000000000E+02  0.47000000000E+01 0. -1.
</event>
<event>
 4    1  0.7503339E-002  0.6000000E+02  0.7546771E-02  0.1259629E+00
         11   -1    0    0    0    0  0.00000000000E+00  0.00000000000E+00  0.30000000000E+02  0.30000000000E+02  0.00000000000E+00 0.  1.
        -11   -1    0    0    0    0 -0.00000000000E+00 -0.00000000000E+00 -0.30000000000E+02  0.30000000000E+02  0.00000000000E+00 0. -1.
          5    1    1    2  501    0  0.19080715879E+02  0.21708965221E+02 -0.65235811157E+01  0.30000000000E+02  0.47000000000E+01 0. -1.
         -5    1    1    2    0  501 -0.19080715879E+02 -0.21708965221E+02  0.65235811157E+01  0.30000000000E+02  0.47000000000E+01 0.  1.
</event>
<event>
 4    1  0.7503339E-002  0.6000000E+02  0.7546771E-02  0.1259629E+00
         11   -1    0    0    0    0  0.00000000000E+00  0.00000000000E+00  0.30000000000E+02  0.30000000000E+02  0.00000000000E+00 0. -1.
        -11   -1    0    0    0    0 -0.00000000000E+00 -0.00000000000E+00 -0.30000000000E+02  0.30000000000E+02  0.00000000000E+00 0.  1.
          5    1    1    2  501    0  0.15822396354E+02  0.16812883427E+02 -0.18571179943E+02  0.30000000000E+02  0.47000000000E+01 0.  1.
         -5    1    1    2    0  501 -0.15822396354E+02 -0.16812883427E+02  0.18571179943E+02  0.30000000000E+02  0.47000000000E+01 0. -1.
</event>
<event>
 4    1  0.7503339E-002  0.6000000E+02  0.7546771E-02  0.1259629E+00
         11   -1    0    0    0    0  0.00000000000E+00  0.00000000000E+00  0.30000000000E+02  0.30000000000E+02  0.00000000000E+00 0.  1.
        -11   -1    0    0    0    0 -0.00000000000E+00 -0.00000000000E+00 -0.30000000000E+02  0.30000000000E+02  0.00000000000E+00 0. -1.
          5    1    1    2  501    0  0.19588288903E+02 -0.86195095204E+01 -0.20491778680E+02  0.30000000000E+02  0.47000000000E+01 0. -1.
         -5    1    1    2    0  501 -0.19588288903E+02  0.86195095204E+01  0.20491778680E+02  0.30000000000E+02  0.47000000000E+01 0.  1.
</event>
<event>
 4    1  0.7503339E-002  0.6000000E+02  0.7546771E-02  0.1259629E+00
         11   -1    0    0    0    0  0.00000000000E+00  0.00000000000E+00  0.30000000000E+02  0.30000000000E+02  0.00000000000E+00 0.  1.
        -11   -1    0    0    0    0 -0.00000000000E+00 -0.00000000000E+00 -0.30000000000E+02  0.30000000000E+02  0.00000000000E+00 0. -1.
          5    1    1    2  501    0 -0.16263600142E+02 -0.23183685576E+02 -0.87133250574E+01  0.30000000000E+02  0.47000000000E+01 0. -1.
         -5    1    1    2    0  501  0.16263600142E+02  0.23183685576E+02  0.87133250574E+01  0.30000000000E+02  0.47000000000E+01 0.  1.
</event>
<event>
 4    1  0.7503339E-002  0.6000000E+02  0.7546771E-02  0.1259629E+00
         11   -1    0    0    0    0  0.00000000000E+00  0.00000000000E+00  0.30000000000E+02  0.30000000000E+02  0.00000000000E+00 0.  1.
        -11   -1    0    0    0    0 -0.00000000000E+00 -0.00000000000E+00 -0.30000000000E+02  0.30000000000E+02  0.00000000000E+00 0. -1.
          5    1    1    2  501    0  0.16741630608E+02  0.22020860341E+02  0.10616473728E+02  0.30000000000E+02  0.47000000000E+01 0.  1.
         -5    1    1    2    0  501 -0.16741630608E+02 -0.22020860341E+02 -0.10616473728E+02  0.30000000000E+02  0.47000000000E+01 0. -1.
</event>
<event>
 4    1  0.7503339E-002  0.6000000E+02  0.7546771E-02  0.1259629E+00
         11   -1    0    0    0    0  0.00000000000E+00  0.00000000000E+00  0.30000000000E+02  0.30000000000E+02  0.00000000000E+00 0.  1.
        -11   -1    0    0    0    0 -0.00000000000E+00 -0.00000000000E+00 -0.30000000000E+02  0.30000000000E+02  0.00000000000E+00 0. -1.
          5    1    1    2  501    0  0.27392398409E+02 -0.75798305903E+01 -0.83733313348E+01  0.30000000000E+02  0.47000000000E+01 0. -1.
         -5    1    1    2    0  501 -0.27392398409E+02  0.75798305903E+01  0.83733313348E+01  0.30000000000E+02  0.47000000000E+01 0.  1.
</event>
<event>
 4    1  0.7503339E-002  0.6000000E+02  0.7546771E-02  0.1259629E+00
         11   -1    0    0    0    0  0.00000000000E+00  0.00000000000E+00  0.30000000000E+02  0.30000000000E+02  0.00000000000E+00 0. -1.
        -11   -1    0    0    0    0 -0.00000000000E+00 -0.00000000000E+00 -0.30000000000E+02  0.30000000000E+02  0.00000000000E+00 0.  1.
          5    1    1    2  501    0 -0.26614132579E+02  0.52307389316E+01 -0.11926328745E+02  0.30000000000E+02  0.47000000000E+01 0.  1.
         -5    1    1    2    0  501  0.26614132579E+02 -0.52307389316E+01  0.11926328745E+02  0.30000000000E+02  0.47000000000E+01 0. -1.
</event>
<event>
 4    1  0.7503339E-002  0.6000000E+02  0.7546771E-02  0.1259629E+00
         11   -1    0    0    0    0  0.00000000000E+00  0.00000000000E+00  0.30000000000E+02  0.30000000000E+02  0.00000000000E+00 0.  1.
        -11   -1    0    0    0    0 -0.00000000000E+00 -0.00000000000E+00 -0.30000000000E+02  0.30000000000E+02  0.00000000000E+00 0. -1.
          5    1    1    2  501    0  0.16210765876E+02 -0.19089200436E+02 -0.15834250737E+02  0.30000000000E+02  0.47000000000E+01 0. -1.
         -5    1    1    2    0  501 -0.16210765876E+02  0.19089200436E+02  0.15834250737E+02  0.30000000000E+02  0.47000000000E+01 0.  1.
</event>
<event>
 4    1  0.7503339E-002  0.6000000E+02  0.7546771E-02  0.1259629E+00
         11   -1    0    0    0    0  0.00000000000E+00  0.00000000000E+00  0.30000000000E+02  0.30000000000E+02  0.00000000000E+00 0.  1.
        -11   -1    0    0    0    0 -0.00000000000E+00 -0.00000000000E+00 -0.30000000000E+02  0.30000000000E+02  0.00000000000E+00 0. -1.
          5    1    1    2  501    0 -0.79157230584E+01  0.54385811249E+01 -0.28029862001E+02  0.30000000000E+02  0.47000000000E+01 0. -1.
         -5    1    1    2    0  501  0.79157230584E+01 -0.54385811249E+01  0.28029862001E+02  0.30000000000E+02  0.47000000000E+01 0.  1.
</event>
<event>
 4    1  0.7503339E-002  0.6000000E+02  0.7546771E-02  0.1259629E+00
         11   -1    0    0    0    0  0.00000000000E+00  0.00000000000E+00  0.30000000000E+02  0.30000000000E+02  0.00000000000E+00 0.  1.
        -11   -1    0    0    0    0 -0.00000000000E+00 -0.00000000000E+00 -0.30000000000E+02  0.30000000000E+02  0.00000000000E+00 0. -1.
          5    1    1    2  501    0 -0.94478026527E+01 -0.53639556212E+01 -0.27565866667E+02  0.30000000000E+02  0.47000000000E+01 0. -1.
         -5    1    1    2    0  501  0.94478026527E+01  0.53639556212E+01  0.27565866667E+02  0.30000000000E+02  0.47000000000E+01 0.  1.
</event>
<event>
 4    1  0.7503339E-002  0.6000000E+02  0.7546771E-02  0.1259629E+00
         11   -1    0    0    0    0  0.00000000000E+00  0.00000000000E+00  0.30000000000E+02  0.30000000000E+02  0.00000000000E+00 0.  1.
        -11   -1    0    0    0    0 -0.00000000000E+00 -0.00000000000E+00 -0.30000000000E+02  0.30000000000E+02  0.00000000000E+00 0. -1.
          5    1    1    2  501    0  0.27395910188E+01  0.26349634444E+02 -0.13270320482E+02  0.30000000000E+02  0.47000000000E+01 0. -1.
         -5    1    1    2    0  501 -0.27395910188E+01 -0.26349634444E+02  0.13270320482E+02  0.30000000000E+02  0.47000000000E+01 0.  1.
</event>
<event>
 4    1  0.7503339E-002  0.6000000E+02  0.7546771E-02  0.1259629E+00
         11   -1    0    0    0    0  0.00000000000E+00  0.00000000000E+00  0.30000000000E+02  0.30000000000E+02  0.00000000000E+00 0. -1.
        -11   -1    0    0    0    0 -0.00000000000E+00 -0.00000000000E+00 -0.30000000000E+02  0.30000000000E+02  0.00000000000E+00 0.  1.
          5    1    1    2  501    0 -0.92693519142E+01  0.26696678971E+02  0.89037321968E+01  0.30000000000E+02  0.47000000000E+01 0.  1.
         -5    1    1    2    0  501  0.92693519142E+01 -0.26696678971E+02 -0.89037321968E+01  0.30000000000E+02  0.47000000000E+01 0. -1.
</event>
<event>
 4    1  0.7503339E-002  0.6000000E+02  0.7546771E-02  0.1259629E+00
         11   -1    0    0    0    0  0.00000000000E+00  0.00000000000E+00  0.30000000000E+02  0.30000000000E+02  0.00000000000E+00 0.  1.
        -11   -1    0    0    0    0 -0.00000000000E+00 -0.00000000000E+00 -0.30000000000E+02  0.30000000000E+02  0.00000000000E+00 0. -1.
          5    1    1    2  501    0  0.29350662036E+02 -0.35519445275E+00  0.40401082818E+01  0.30000000000E+02  0.47000000000E+01 0. -1.
         -5    1    1    2    0  501 -0.29350662036E+02  0.35519445275E+00 -0.40401082818E+01  0.30000000000E+02  0.47000000000E+01 0.  1.
</event>
<event>
 4    1  0.7503339E-002  0.6000000E+02  0.7546771E-02  0.1259629E+00
         11   -1    0    0    0    0  0.00000000000E+00  0.00000000000E+00  0.30000000000E+02  0.30000000000E+02  0.00000000000E+00 0.  1.
        -11   -1    0    0    0    0 -0.00000000000E+00 -0.00000000000E+00 -0.30000000000E+02  0.30000000000E+02  0.00000000000E+00 0. -1.
          5    1    1    2  501    0  0.27723093106E+02 -0.28243430300E+01 -0.10067929037E+02  0.30000000000E+02  0.47000000000E+01 0. -1.
         -5    1    1    2    0  501 -0.27723093106E+02  0.28243430300E+01  0.10067929037E+02  0.30000000000E+02  0.47000000000E+01 0.  1.
</event>
<event>
 4    1  0.7503339E-002  0.6000000E+02  0.7546771E-02  0.1259629E+00
         11   -1    0    0    0    0  0.00000000000E+00  0.00000000000E+00  0.30000000000E+02  0.30000000000E+02  0.00000000000E+00 0.  1.
        -11   -1    0    0    0    0 -0.00000000000E+00 -0.00000000000E+00 -0.30000000000E+02  0.30000000000E+02  0.00000000000E+00 0. -1.
          5    1    1    2  501    0  0.29042666595E+02  0.44050811457E+01 -0.38766966838E+01  0.30000000000E+02  0.47000000000E+01 0. -1.
         -5    1    1    2    0  501 -0.29042666595E+02 -0.44050811457E+01  0.38766966838E+01  0.30000000000E+02  0.47000000000E+01 0.  1.
</event>
<event>
 4    1  0.7503339E-002  0.6000000E+02  0.7546771E-02  0.1259629E+00
         11   -1    0    0    0    0  0.00000000000E+00  0.00000000000E+00  0.30000000000E+02  0.30000000000E+02  0.00000000000E+00 0.  1.
        -11   -1    0    0    0    0 -0.00000000000E+00 -0.00000000000E+00 -0.30000000000E+02  0.30000000000E+02  0.00000000000E+00 0. -1.
          5    1    1    2  501    0 -0.27309934223E+02 -0.10081572514E+02 -0.55171902637E+01  0.30000000000E+02  0.47000000000E+01 0. -1.
         -5    1    1    2    0  501  0.27309934223E+02  0.10081572514E+02  0.55171902637E+01  0.30000000000E+02  0.47000000000E+01 0.  1.
</event>
<event>
 4    1  0.7503339E-002  0.6000000E+02  0.7546771E-02  0.1259629E+00
         11   -1    0    0    0    0  0.00000000000E+00  0.00000000000E+00  0.30000000000E+02  0.30000000000E+02  0.00000000000E+00 0.  1.
        -11   -1    0    0    0    0 -0.00000000000E+00 -0.00000000000E+00 -0.30000000000E+02  0.30000000000E+02  0.00000000000E+00 0. -1.
          5    1    1    2  501    0  0.11230802755E+02  0.59161471622E+01 -0.26772715070E+02  0.30000000000E+02  0.47000000000E+01 0. -1.
         -5    1    1    2    0  501 -0.11230802755E+02 -0.59161471622E+01  0.26772715070E+02  0.30000000000E+02  0.47000000000E+01 0.  1.
</event>
<event>
 4    1  0.7503339E-002  0.6000000E+02  0.7546771E-02  0.1259629E+00
         11   -1    0    0    0    0  0.00000000000E+00  0.00000000000E+00  0.30000000000E+02  0.30000000000E+02  0.00000000000E+00 0.  1.
        -11   -1    0    0    0    0 -0.00000000000E+00 -0.00000000000E+00 -0.30000000000E+02  0.30000000000E+02  0.00000000000E+00 0. -1.
          5    1    1    2  501    0 -0.85608332324E+01  0.26568231965E+02  0.99373630621E+01  0.30000000000E+02  0.47000000000E+01 0. -1.
         -5    1    1    2    0  501  0.85608332324E+01 -0.26568231965E+02 -0.99373630621E+01  0.30000000000E+02  0.47000000000E+01 0.  1.
</event>
<event>
 4    1  0.7503339E-002  0.6000000E+02  0.7546771E-02  0.1259629E+00
         11   -1    0    0    0    0  0.00000000000E+00  0.00000000000E+00  0.30000000000E+02  0.30000000000E+02  0.00000000000E+00 0.  1.
        -11   -1    0    0    0    0 -0.00000000000E+00 -0.00000000000E+00 -0.30000000000E+02  0.30000000000E+02  0.00000000000E+00 0. -1.
          5    1    1    2  501    0 -0.55868584327E+01 -0.11150915416E+02 -0.26876645963E+02  0.30000000000E+02  0.47000000000E+01 0. -1.
         -5    1    1    2    0  501  0.55868584327E+01  0.11150915416E+02  0.26876645963E+02  0.30000000000E+02  0.47000000000E+01 0.  1.
</event>
<event>
 4    1  0.7503339E-002  0.6000000E+02  0.7546771E-02  0.1259629E+00
         11   -1    0    0    0    0  0.00000000000E+00  0.00000000000E+00  0.30000000000E+02  0.30000000000E+02  0.00000000000E+00 0.  1.
        -11   -1    0    0    0    0 -0.00000000000E+00 -0.00000000000E+00 -0.30000000000E+02  0.30000000000E+02  0.00000000000E+00 0. -1.
          5    1    1    2  501    0 -0.65948507031E+01  0.28295196478E+02 -0.58137595794E+01  0.30000000000E+02  0.47000000000E+01 0. -1.
         -5    1    1    2    0  501  0.65948507031E+01 -0.28295196478E+02  0.58137595794E+01  0.30000000000E+02  0.47000000000E+01 0.  1.
</event>
<event>
 4    1  0.7503339E-002  0.6000000E+02  0.7546771E-02  0.1259629E+00
         11   -1    0    0    0    0  0.00000000000E+00  0.00000000000E+00  0.30000000000E+02  0.30000000000E+02  0.00000000000E+00 0.  1.
        -11   -1    0    0    0    0 -0.00000000000E+00 -0.00000000000E+00 -0.30000000000E+02  0.30000000000E+02  0.00000000000E+00 0. -1.
          5    1    1    2  501    0  0.10586986963E+02 -0.12265595877E+02 -0.24806871323E+02  0.30000000000E+02  0.47000000000E+01 0. -1.
         -5    1    1    2    0  501 -0.10586986963E+02  0.12265595877E+02  0.24806871323E+02  0.30000000000E+02  0.47000000000E+01 0.  1.
</event>
<event>
 4    1  0.7503339E-002  0.6000000E+02  0.7546771E-02  0.1259629E+00
         11   -1    0    0    0    0  0.00000000000E+00  0.00000000000E+00  0.30000000000E+02  0.30000000000E+02  0.00000000000E+00 0.  1.
        -11   -1    0    0    0    0 -0.00000000000E+00 -0.00000000000E+00 -0.30000000000E+02  0.30000000000E+02  0.00000000000E+00 0. -1.
          5    1    1    2  501    0 -0.27569381015E+02 -0.29554760097E+01 -0.10445304784E+02  0.30000000000E+02  0.47000000000E+01 0. -1.
         -5    1    1    2    0  501  0.27569381015E+02  0.29554760097E+01  0.10445304784E+02  0.30000000000E+02  0.47000000000E+01 0.  1.
</event>
<event>
 4    1  0.7503339E-002  0.6000000E+02  0.7546771E-02  0.1259629E+00
         11   -1    0    0    0    0  0.00000000000E+00  0.00000000000E+00  0.30000000000E+02  0.30000000000E+02  0.00000000000E+00 0. -1.
        -11   -1    0    0    0    0 -0.00000000000E+00 -0.00000000000E+00 -0.30000000000E+02  0.30000000000E+02  0.00000000000E+00 0.  1.
          5    1    1    2  501    0 -0.27116779760E+02 -0.37258836187E+01  0.11344956884E+02  0.30000000000E+02  0.47000000000E+01 0.  1.
         -5    1    1    2    0  501  0.27116779760E+02  0.37258836187E+01 -0.11344956884E+02  0.30000000000E+02  0.47000000000E+01 0. -1.
</event>
<event>
 4    1  0.7503339E-002  0.6000000E+02  0.7546771E-02  0.1259629E+00
         11   -1    0    0    0    0  0.00000000000E+00  0.00000000000E+00  0.30000000000E+02  0.30000000000E+02  0.00000000000E+00 0.  1.
        -11   -1    0    0    0    0 -0.00000000000E+00 -0.00000000000E+00 -0.30000000000E+02  0.30000000000E+02  0.00000000000E+00 0. -1.
          5    1    1    2  501    0  0.21394964117E+02 -0.18317702506E+02 -0.91993089586E+01  0.30000000000E+02  0.47000000000E+01 0. -1.
         -5    1    1    2    0  501 -0.21394964117E+02  0.18317702506E+02  0.91993089586E+01  0.30000000000E+02  0.47000000000E+01 0.  1.
</event>
<event>
 4    1  0.7503339E-002  0.6000000E+02  0.7546771E-02  0.1259629E+00
         11   -1    0    0    0    0  0.00000000000E+00  0.00000000000E+00  0.30000000000E+02  0.30000000000E+02  0.00000000000E+00 0.  1.
        -11   -1    0    0    0    0 -0.00000000000E+00 -0.00000000000E+00 -0.30000000000E+02  0.30000000000E+02  0.00000000000E+00 0. -1.
          5    1    1    2  501    0  0.29458878326E+02  0.31623333471E+01 -0.29006134715E+00  0.30000000000E+02  0.47000000000E+01 0. -1.
         -5    1    1    2    0  501 -0.29458878326E+02 -0.31623333471E+01  0.29006134715E+00  0.30000000000E+02  0.47000000000E+01 0.  1.
</event>
<event>
 4    1  0.7503339E-002  0.6000000E+02  0.7546771E-02  0.1259629E+00
         11   -1    0    0    0    0  0.00000000000E+00  0.00000000000E+00  0.30000000000E+02  0.30000000000E+02  0.00000000000E+00 0.  1.
        -11   -1    0    0    0    0 -0.00000000000E+00 -0.00000000000E+00 -0.30000000000E+02  0.30000000000E+02  0.00000000000E+00 0. -1.
          5    1    1    2  501    0  0.14858621541E+02 -0.15434454351E+02 -0.20467266177E+02  0.30000000000E+02  0.47000000000E+01 0. -1.
         -5    1    1    2    0  501 -0.14858621541E+02  0.15434454351E+02  0.20467266177E+02  0.30000000000E+02  0.47000000000E+01 0.  1.
</event>
<event>
 4    1  0.7503339E-002  0.6000000E+02  0.7546771E-02  0.1259629E+00
         11   -1    0    0    0    0  0.00000000000E+00  0.00000000000E+00  0.30000000000E+02  0.30000000000E+02  0.00000000000E+00 0. -1.
        -11   -1    0    0    0    0 -0.00000000000E+00 -0.00000000000E+00 -0.30000000000E+02  0.30000000000E+02  0.00000000000E+00 0.  1.
          5    1    1    2  501    0  0.16536333578E+02 -0.21320154428E+02 -0.12243801983E+02  0.30000000000E+02  0.47000000000E+01 0.  1.
         -5    1    1    2    0  501 -0.16536333578E+02  0.21320154428E+02  0.12243801983E+02  0.30000000000E+02  0.47000000000E+01 0. -1.
</event>
<event>
 4    1  0.7503339E-002  0.6000000E+02  0.7546771E-02  0.1259629E+00
         11   -1    0    0    0    0  0.00000000000E+00  0.00000000000E+00  0.30000000000E+02  0.30000000000E+02  0.00000000000E+00 0.  1.
        -11   -1    0    0    0    0 -0.00000000000E+00 -0.00000000000E+00 -0.30000000000E+02  0.30000000000E+02  0.00000000000E+00 0. -1.
          5    1    1    2  501    0  0.17668444708E+02 -0.23517854767E+02 -0.35562014541E+01  0.30000000000E+02  0.47000000000E+01 0. -1.
         -5    1    1    2    0  501 -0.17668444708E+02  0.23517854767E+02  0.35562014541E+01  0.30000000000E+02  0.47000000000E+01 0.  1.
</event>
<event>
 4    1  0.7503339E-002  0.6000000E+02  0.7546771E-02  0.1259629E+00
         11   -1    0    0    0    0  0.00000000000E+00  0.00000000000E+00  0.30000000000E+02  0.30000000000E+02  0.00000000000E+00 0.  1.
        -11   -1    0    0    0    0 -0.00000000000E+00 -0.00000000000E+00 -0.30000000000E+02  0.30000000000E+02  0.00000000000E+00 0. -1.
          5    1    1    2  501    0  0.58203190803E+01  0.18804871445E+02  0.22145218349E+02  0.30000000000E+02  0.47000000000E+01 0.  1.
         -5    1    1    2    0  501 -0.58203190803E+01 -0.18804871445E+02 -0.22145218349E+02  0.30000000000E+02  0.47000000000E+01 0. -1.
</event>
<event>
 4    1  0.7503339E-002  0.6000000E+02  0.7546771E-02  0.1259629E+00
         11   -1    0    0    0    0  0.00000000000E+00  0.00000000000E+00  0.30000000000E+02  0.30000000000E+02  0.00000000000E+00 0.  1.
        -11   -1    0    0    0    0 -0.00000000000E+00 -0.00000000000E+00 -0.30000000000E+02  0.30000000000E+02  0.00000000000E+00 0. -1.
          5    1    1    2  501    0 -0.44303756119E+01 -0.47162483961E+01 -0.28914335078E+02  0.30000000000E+02  0.47000000000E+01 0. -1.
         -5    1    1    2    0  501  0.44303756119E+01  0.47162483961E+01  0.28914335078E+02  0.30000000000E+02  0.47000000000E+01 0.  1.
</event>
<event>
 4    1  0.7503339E-002  0.6000000E+02  0.7546771E-02  0.1259629E+00
         11   -1    0    0    0    0  0.00000000000E+00  0.00000000000E+00  0.30000000000E+02  0.30000000000E+02  0.00000000000E+00 0.  1.
        -11   -1    0    0    0    0 -0.00000000000E+00 -0.00000000000E+00 -0.30000000000E+02  0.30000000000E+02  0.00000000000E+00 0. -1.
          5    1    1    2  501    0  0.10879075859E+02 -0.19973575268E+02 -0.18989786715E+02  0.30000000000E+02  0.47000000000E+01 0. -1.
         -5    1    1    2    0  501 -0.10879075859E+02  0.19973575268E+02  0.18989786715E+02  0.30000000000E+02  0.47000000000E+01 0.  1.
</event>
<event>
 4    1  0.7503339E-002  0.6000000E+02  0.7546771E-02  0.1259629E+00
         11   -1    0    0    0    0  0.00000000000E+00  0.00000000000E+00  0.30000000000E+02  0.30000000000E+02  0.00000000000E+00 0.  1.
        -11   -1    0    0    0    0 -0.00000000000E+00 -0.00000000000E+00 -0.30000000000E+02  0.30000000000E+02  0.00000000000E+00 0. -1.
          5    1    1    2  501    0  0.18047341171E+02 -0.19689952329E+01 -0.23416373212E+02  0.30000000000E+02  0.47000000000E+01 0. -1.
         -5    1    1    2    0  501 -0.18047341171E+02  0.19689952329E+01  0.23416373212E+02  0.30000000000E+02  0.47000000000E+01 0.  1.
</event>
<event>
 4    1  0.7503339E-002  0.6000000E+02  0.7546771E-02  0.1259629E+00
         11   -1    0    0    0    0  0.00000000000E+00  0.00000000000E+00  0.30000000000E+02  0.30000000000E+02  0.00000000000E+00 0.  1.
        -11   -1    0    0    0    0 -0.00000000000E+00 -0.00000000000E+00 -0.30000000000E+02  0.30000000000E+02  0.00000000000E+00 0. -1.
          5    1    1    2  501    0  0.13449205561E+02 -0.42779260216E+01  0.26052412916E+02  0.30000000000E+02  0.47000000000E+01 0.  1.
         -5    1    1    2    0  501 -0.13449205561E+02  0.42779260216E+01 -0.26052412916E+02  0.30000000000E+02  0.47000000000E+01 0. -1.
</event>
<event>
 4    1  0.7503339E-002  0.6000000E+02  0.7546771E-02  0.1259629E+00
         11   -1    0    0    0    0  0.00000000000E+00  0.00000000000E+00  0.30000000000E+02  0.30000000000E+02  0.00000000000E+00 0.  1.
        -11   -1    0    0    0    0 -0.00000000000E+00 -0.00000000000E+00 -0.30000000000E+02  0.30000000000E+02  0.00000000000E+00 0. -1.
          5    1    1    2  501    0 -0.26336950558E+02  0.11907174150E+01 -0.13522471199E+02  0.30000000000E+02  0.47000000000E+01 0. -1.
         -5    1    1    2    0  501  0.26336950558E+02 -0.11907174150E+01  0.13522471199E+02  0.30000000000E+02  0.47000000000E+01 0.  1.
</event>
<event>
 4    1  0.7503339E-002  0.6000000E+02  0.7546771E-02  0.1259629E+00
         11   -1    0    0    0    0  0.00000000000E+00  0.00000000000E+00  0.30000000000E+02  0.30000000000E+02  0.00000000000E+00 0.  1.
        -11   -1    0    0    0    0 -0.00000000000E+00 -0.00000000000E+00 -0.30000000000E+02  0.30000000000E+02  0.00000000000E+00 0. -1.
          5    1    1    2  501    0 -0.13410700833E+02  0.20103512718E+02 -0.17143858363E+02  0.30000000000E+02  0.47000000000E+01 0. -1.
         -5    1    1    2    0  501  0.13410700833E+02 -0.20103512718E+02  0.17143858363E+02  0.30000000000E+02  0.47000000000E+01 0.  1.
</event>
<event>
 4    1  0.7503339E-002  0.6000000E+02  0.7546771E-02  0.1259629E+00
         11   -1    0    0    0    0  0.00000000000E+00  0.00000000000E+00  0.30000000000E+02  0.30000000000E+02  0.00000000000E+00 0.  1.
        -11   -1    0    0    0    0 -0.00000000000E+00 -0.00000000000E+00 -0.30000000000E+02  0.30000000000E+02  0.00000000000E+00 0. -1.
          5    1    1    2  501    0 -0.21757540618E+02 -0.12719452273E+02 -0.15579953791E+02  0.30000000000E+02  0.47000000000E+01 0. -1.
         -5    1    1    2    0  501  0.21757540618E+02  0.12719452273E+02  0.15579953791E+02  0.30000000000E+02  0.47000000000E+01 0.  1.
</event>
<event>
 4    1  0.7503339E-002  0.6000000E+02  0.7546771E-02  0.1259629E+00
         11   -1    0    0    0    0  0.00000000000E+00  0.00000000000E+00  0.30000000000E+02  0.30000000000E+02  0.00000000000E+00 0.  1.
        -11   -1    0    0    0    0 -0.00000000000E+00 -0.00000000000E+00 -0.30000000000E+02  0.30000000000E+02  0.00000000000E+00 0. -1.
          5    1    1    2  501    0  0.11600280945E+02 -0.12255504329E+02  0.24354590853E+02  0.30000000000E+02  0.47000000000E+01 0.  1.
         -5    1    1    2    0  501 -0.11600280945E+02  0.12255504329E+02 -0.24354590853E+02  0.30000000000E+02  0.47000000000E+01 0. -1.
</event>
<event>
 4    1  0.7503339E-002  0.6000000E+02  0.7546771E-02  0.1259629E+00
         11   -1    0    0    0    0  0.00000000000E+00  0.00000000000E+00  0.30000000000E+02  0.30000000000E+02  0.00000000000E+00 0. -1.
        -11   -1    0    0    0    0 -0.00000000000E+00 -0.00000000000E+00 -0.30000000000E+02  0.30000000000E+02  0.00000000000E+00 0.  1.
          5    1    1    2  501    0 -0.16849556709E+02 -0.17653511261E+02  0.16803451397E+02  0.30000000000E+02  0.47000000000E+01 0. -1.
         -5    1    1    2    0  501  0.16849556709E+02  0.17653511261E+02 -0.16803451397E+02  0.30000000000E+02  0.47000000000E+01 0.  1.
</event>
<event>
 4    1  0.7503339E-002  0.6000000E+02  0.7546771E-02  0.1259629E+00
         11   -1    0    0    0    0  0.00000000000E+00  0.00000000000E+00  0.30000000000E+02  0.30000000000E+02  0.00000000000E+00 0.  1.
        -11   -1    0    0    0    0 -0.00000000000E+00 -0.00000000000E+00 -0.30000000000E+02  0.30000000000E+02  0.00000000000E+00 0. -1.
          5    1    1    2  501    0  0.18539221010E+02  0.15614370595E+02 -0.17041089028E+02  0.30000000000E+02  0.47000000000E+01 0. -1.
         -5    1    1    2    0  501 -0.18539221010E+02 -0.15614370595E+02  0.17041089028E+02  0.30000000000E+02  0.47000000000E+01 0.  1.
</event>
<event>
 4    1  0.7503339E-002  0.6000000E+02  0.7546771E-02  0.1259629E+00
         11   -1    0    0    0    0  0.00000000000E+00  0.00000000000E+00  0.30000000000E+02  0.30000000000E+02  0.00000000000E+00 0.  1.
        -11   -1    0    0    0    0 -0.00000000000E+00 -0.00000000000E+00 -0.30000000000E+02  0.30000000000E+02  0.00000000000E+00 0. -1.
          5    1    1    2  501    0 -0.10955046277E+01 -0.12879515969E+02 -0.26661356642E+02  0.30000000000E+02  0.47000000000E+01 0. -1.
         -5    1    1    2    0  501  0.10955046277E+01  0.12879515969E+02  0.26661356642E+02  0.30000000000E+02  0.47000000000E+01 0.  1.
</event>
<event>
 4    1  0.7503339E-002  0.6000000E+02  0.7546771E-02  0.1259629E+00
         11   -1    0    0    0    0  0.00000000000E+00  0.00000000000E+00  0.30000000000E+02  0.30000000000E+02  0.00000000000E+00 0. -1.
        -11   -1    0    0    0    0 -0.00000000000E+00 -0.00000000000E+00 -0.30000000000E+02  0.30000000000E+02  0.00000000000E+00 0.  1.
          5    1    1    2  501    0  0.29529055508E+02  0.24288410521E+01 -0.21356960411E+00  0.30000000000E+02  0.47000000000E+01 0.  1.
         -5    1    1    2    0  501 -0.29529055508E+02 -0.24288410521E+01  0.21356960411E+00  0.30000000000E+02  0.47000000000E+01 0.  1.
</event>
<event>
 4    1  0.7503339E-002  0.6000000E+02  0.7546771E-02  0.1259629E+00
         11   -1    0    0    0    0  0.00000000000E+00  0.00000000000E+00  0.30000000000E+02  0.30000000000E+02  0.00000000000E+00 0.  1.
        -11   -1    0    0    0    0 -0.00000000000E+00 -0.00000000000E+00 -0.30000000000E+02  0.30000000000E+02  0.00000000000E+00 0. -1.
          5    1    1    2  501    0  0.17841370409E+02  0.16341825967E+02  0.17103807354E+02  0.30000000000E+02  0.47000000000E+01 0. -1.
         -5    1    1    2    0  501 -0.17841370409E+02 -0.16341825967E+02 -0.17103807354E+02  0.30000000000E+02  0.47000000000E+01 0.  1.
</event>
<event>
 4    1  0.7503339E-002  0.6000000E+02  0.7546771E-02  0.1259629E+00
         11   -1    0    0    0    0  0.00000000000E+00  0.00000000000E+00  0.30000000000E+02  0.30000000000E+02  0.00000000000E+00 0.  1.
        -11   -1    0    0    0    0 -0.00000000000E+00 -0.00000000000E+00 -0.30000000000E+02  0.30000000000E+02  0.00000000000E+00 0. -1.
          5    1    1    2  501    0  0.19503959528E+02 -0.34524008480E-01 -0.22304806003E+02  0.30000000000E+02  0.47000000000E+01 0. -1.
         -5    1    1    2    0  501 -0.19503959528E+02  0.34524008480E-01  0.22304806003E+02  0.30000000000E+02  0.47000000000E+01 0.  1.
</event>
<event>
 4    1  0.7503339E-002  0.6000000E+02  0.7546771E-02  0.1259629E+00
         11   -1    0    0    0    0  0.00000000000E+00  0.00000000000E+00  0.30000000000E+02  0.30000000000E+02  0.00000000000E+00 0.  1.
        -11   -1    0    0    0    0 -0.00000000000E+00 -0.00000000000E+00 -0.30000000000E+02  0.30000000000E+02  0.00000000000E+00 0. -1.
          5    1    1    2  501    0 -0.13749258346E+02 -0.24996263110E+02 -0.80034196109E+01  0.30000000000E+02  0.47000000000E+01 0. -1.
         -5    1    1    2    0  501  0.13749258346E+02  0.24996263110E+02  0.80034196109E+01  0.30000000000E+02  0.47000000000E+01 0.  1.
</event>
<event>
 4    1  0.7503339E-002  0.6000000E+02  0.7546771E-02  0.1259629E+00
         11   -1    0    0    0    0  0.00000000000E+00  0.00000000000E+00  0.30000000000E+02  0.30000000000E+02  0.00000000000E+00 0.  1.
        -11   -1    0    0    0    0 -0.00000000000E+00 -0.00000000000E+00 -0.30000000000E+02  0.30000000000E+02  0.00000000000E+00 0. -1.
          5    1    1    2  501    0 -0.17872478381E+02 -0.22575637497E+02 -0.69874965571E+01  0.30000000000E+02  0.47000000000E+01 0. -1.
         -5    1    1    2    0  501  0.17872478381E+02  0.22575637497E+02  0.69874965571E+01  0.30000000000E+02  0.47000000000E+01 0.  1.
</event>
<event>
 4    1  0.7503339E-002  0.6000000E+02  0.7546771E-02  0.1259629E+00
         11   -1    0    0    0    0  0.00000000000E+00  0.00000000000E+00  0.30000000000E+02  0.30000000000E+02  0.00000000000E+00 0.  1.
        -11   -1    0    0    0    0 -0.00000000000E+00 -0.00000000000E+00 -0.30000000000E+02  0.30000000000E+02  0.00000000000E+00 0. -1.
          5    1    1    2  501    0 -0.23008374275E+02  0.18158995213E+02 -0.43330827436E+01  0.30000000000E+02  0.47000000000E+01 0. -1.
         -5    1    1    2    0  501  0.23008374275E+02 -0.18158995213E+02  0.43330827436E+01  0.30000000000E+02  0.47000000000E+01 0.  1.
</event>
<event>
 4    1  0.7503339E-002  0.6000000E+02  0.7546771E-02  0.1259629E+00
         11   -1    0    0    0    0  0.00000000000E+00  0.00000000000E+00  0.30000000000E+02  0.30000000000E+02  0.00000000000E+00 0. -1.
        -11   -1    0    0    0    0 -0.00000000000E+00 -0.00000000000E+00 -0.30000000000E+02  0.30000000000E+02  0.00000000000E+00 0.  1.
          5    1    1    2  501    0  0.13083882702E+02 -0.25783036238E+02  0.64774266315E+01  0.30000000000E+02  0.47000000000E+01 0.  1.
         -5    1    1    2    0  501 -0.13083882702E+02  0.25783036238E+02 -0.64774266315E+01  0.30000000000E+02  0.47000000000E+01 0. -1.
</event>
<event>
 4    1  0.7503339E-002  0.6000000E+02  0.7546771E-02  0.1259629E+00
         11   -1    0    0    0    0  0.00000000000E+00  0.00000000000E+00  0.30000000000E+02  0.30000000000E+02  0.00000000000E+00 0. -1.
        -11   -1    0    0    0    0 -0.00000000000E+00 -0.00000000000E+00 -0.30000000000E+02  0.30000000000E+02  0.00000000000E+00 0.  1.
          5    1    1    2  501    0 -0.42773308339E+01 -0.28773868359E+02 -0.56284048000E+01  0.30000000000E+02  0.47000000000E+01 0.  1.
         -5    1    1    2    0  501  0.42773308339E+01  0.28773868359E+02  0.56284048000E+01  0.30000000000E+02  0.47000000000E+01 0. -1.
</event>
<event>
 4    1  0.7503339E-002  0.6000000E+02  0.7546771E-02  0.1259629E+00
         11   -1    0    0    0    0  0.00000000000E+00  0.00000000000E+00  0.30000000000E+02  0.30000000000E+02  0.00000000000E+00 0.  1.
        -11   -1    0    0    0    0 -0.00000000000E+00 -0.00000000000E+00 -0.30000000000E+02  0.30000000000E+02  0.00000000000E+00 0. -1.
          5    1    1    2  501    0  0.17499131698E+02  0.23850469882E+02  0.16868539461E+01  0.30000000000E+02  0.47000000000E+01 0. -1.
         -5    1    1    2    0  501 -0.17499131698E+02 -0.23850469882E+02 -0.16868539461E+01  0.30000000000E+02  0.47000000000E+01 0.  1.
</event>
<event>
 4    1  0.7503339E-002  0.6000000E+02  0.7546771E-02  0.1259629E+00
         11   -1    0    0    0    0  0.00000000000E+00  0.00000000000E+00  0.30000000000E+02  0.30000000000E+02  0.00000000000E+00 0.  1.
        -11   -1    0    0    0    0 -0.00000000000E+00 -0.00000000000E+00 -0.30000000000E+02  0.30000000000E+02  0.00000000000E+00 0. -1.
          5    1    1    2  501    0 -0.10403930890E+02 -0.20463698209E+02 -0.18732465872E+02  0.30000000000E+02  0.47000000000E+01 0. -1.
         -5    1    1    2    0  501  0.10403930890E+02  0.20463698209E+02  0.18732465872E+02  0.30000000000E+02  0.47000000000E+01 0.  1.
</event>
<event>
 4    1  0.7503339E-002  0.6000000E+02  0.7546771E-02  0.1259629E+00
         11   -1    0    0    0    0  0.00000000000E+00  0.00000000000E+00  0.30000000000E+02  0.30000000000E+02  0.00000000000E+00 0.  1.
        -11   -1    0    0    0    0 -0.00000000000E+00 -0.00000000000E+00 -0.30000000000E+02  0.30000000000E+02  0.00000000000E+00 0. -1.
          5    1    1    2  501    0  0.12991141535E+02 -0.18953694377E+02 -0.18705552947E+02  0.30000000000E+02  0.47000000000E+01 0. -1.
         -5    1    1    2    0  501 -0.12991141535E+02  0.18953694377E+02  0.18705552947E+02  0.30000000000E+02  0.47000000000E+01 0.  1.
</event>
<event>
 4    1  0.7503339E-002  0.6000000E+02  0.7546771E-02  0.1259629E+00
         11   -1    0    0    0    0  0.00000000000E+00  0.00000000000E+00  0.30000000000E+02  0.30000000000E+02  0.00000000000E+00 0. -1.
        -11   -1    0    0    0    0 -0.00000000000E+00 -0.00000000000E+00 -0.30000000000E+02  0.30000000000E+02  0.00000000000E+00 0.  1.
          5    1    1    2  501    0  0.14581414991E+02 -0.23067855439E+02 -0.11539773928E+02  0.30000000000E+02  0.47000000000E+01 0.  1.
         -5    1    1    2    0  501 -0.14581414991E+02  0.23067855439E+02  0.11539773928E+02  0.30000000000E+02  0.47000000000E+01 0. -1.
</event>
<event>
 4    1  0.7503339E-002  0.6000000E+02  0.7546771E-02  0.1259629E+00
         11   -1    0    0    0    0  0.00000000000E+00  0.00000000000E+00  0.30000000000E+02  0.30000000000E+02  0.00000000000E+00 0.  1.
        -11   -1    0    0    0    0 -0.00000000000E+00 -0.00000000000E+00 -0.30000000000E+02  0.30000000000E+02  0.00000000000E+00 0. -1.
          5    1    1    2  501    0  0.44968422369E+01 -0.20063983114E+02 -0.21333658652E+02  0.30000000000E+02  0.47000000000E+01 0. -1.
         -5    1    1    2    0  501 -0.44968422369E+01  0.20063983114E+02  0.21333658652E+02  0.30000000000E+02  0.47000000000E+01 0.  1.
</event>
<event>
 4    1  0.7503339E-002  0.6000000E+02  0.7546771E-02  0.1259629E+00
         11   -1    0    0    0    0  0.00000000000E+00  0.00000000000E+00  0.30000000000E+02  0.30000000000E+02  0.00000000000E+00 0.  1.
        -11   -1    0    0    0    0 -0.00000000000E+00 -0.00000000000E+00 -0.30000000000E+02  0.30000000000E+02  0.00000000000E+00 0. -1.
          5    1    1    2  501    0  0.74592046476E+01  0.92351548897E+01  0.27147415718E+02  0.30000000000E+02  0.47000000000E+01 0.  1.
         -5    1    1    2    0  501 -0.74592046476E+01 -0.92351548897E+01 -0.27147415718E+02  0.30000000000E+02  0.47000000000E+01 0. -1.
</event>
<event>
 4    1  0.7503339E-002  0.6000000E+02  0.7546771E-02  0.1259629E+00
         11   -1    0    0    0    0  0.00000000000E+00  0.00000000000E+00  0.30000000000E+02  0.30000000000E+02  0.00000000000E+00 0.  1.
        -11   -1    0    0    0    0 -0.00000000000E+00 -0.00000000000E+00 -0.30000000000E+02  0.30000000000E+02  0.00000000000E+00 0. -1.
          5    1    1    2  501    0 -0.63221497849E+00 -0.12833219418E+01 -0.29594989255E+02  0.30000000000E+02  0.47000000000E+01 0. -1.
         -5    1    1    2    0  501  0.63221497849E+00  0.12833219418E+01  0.29594989255E+02  0.30000000000E+02  0.47000000000E+01 0.  1.
</event>
<event>
 4    1  0.7503339E-002  0.6000000E+02  0.7546771E-02  0.1259629E+00
         11   -1    0    0    0    0  0.00000000000E+00  0.00000000000E+00  0.30000000000E+02  0.30000000000E+02  0.00000000000E+00 0. -1.
        -11   -1    0    0    0    0 -0.00000000000E+00 -0.00000000000E+00 -0.30000000000E+02  0.30000000000E+02  0.00000000000E+00 0.  1.
          5    1    1    2  501    0  0.19606272830E+02  0.18414560193E+02  0.12426103114E+02  0.30000000000E+02  0.47000000000E+01 0.  1.
         -5    1    1    2    0  501 -0.19606272830E+02 -0.18414560193E+02 -0.12426103114E+02  0.30000000000E+02  0.47000000000E+01 0. -1.
</event>
<event>
 4    1  0.7503339E-002  0.6000000E+02  0.7546771E-02  0.1259629E+00
         11   -1    0    0    0    0  0.00000000000E+00  0.00000000000E+00  0.30000000000E+02  0.30000000000E+02  0.00000000000E+00 0.  1.
        -11   -1    0    0    0    0 -0.00000000000E+00 -0.00000000000E+00 -0.30000000000E+02  0.30000000000E+02  0.00000000000E+00 0. -1.
          5    1    1    2  501    0  0.88798286483E+01  0.14384966836E+02 -0.24333749656E+02  0.30000000000E+02  0.47000000000E+01 0. -1.
         -5    1    1    2    0  501 -0.88798286483E+01 -0.14384966836E+02  0.24333749656E+02  0.30000000000E+02  0.47000000000E+01 0.  1.
</event>
<event>
 4    1  0.7503339E-002  0.6000000E+02  0.7546771E-02  0.1259629E+00
         11   -1    0    0    0    0  0.00000000000E+00  0.00000000000E+00  0.30000000000E+02  0.30000000000E+02  0.00000000000E+00 0.  1.
        -11   -1    0    0    0    0 -0.00000000000E+00 -0.00000000000E+00 -0.30000000000E+02  0.30000000000E+02  0.00000000000E+00 0. -1.
          5    1    1    2  501    0 -0.19647127673E+02 -0.18850572620E+02  0.11685730021E+02  0.30000000000E+02  0.47000000000E+01 0. -1.
         -5    1    1    2    0  501  0.19647127673E+02  0.18850572620E+02 -0.11685730021E+02  0.30000000000E+02  0.47000000000E+01 0.  1.
</event>
<event>
 4    1  0.7503339E-002  0.6000000E+02  0.7546771E-02  0.1259629E+00
         11   -1    0    0    0    0  0.00000000000E+00  0.00000000000E+00  0.30000000000E+02  0.30000000000E+02  0.00000000000E+00 0. -1.
        -11   -1    0    0    0    0 -0.00000000000E+00 -0.00000000000E+00 -0.30000000000E+02  0.30000000000E+02  0.00000000000E+00 0.  1.
          5    1    1    2  501    0 -0.55218774136E+01  0.27423766925E+02 -0.97650334099E+01  0.30000000000E+02  0.47000000000E+01 0.  1.
         -5    1    1    2    0  501  0.55218774136E+01 -0.27423766925E+02  0.97650334099E+01  0.30000000000E+02  0.47000000000E+01 0. -1.
</event>
<event>
 4    1  0.7503339E-002  0.6000000E+02  0.7546771E-02  0.1259629E+00
         11   -1    0    0    0    0  0.00000000000E+00  0.00000000000E+00  0.30000000000E+02  0.30000000000E+02  0.00000000000E+00 0.  1.
        -11   -1    0    0    0    0 -0.00000000000E+00 -0.00000000000E+00 -0.30000000000E+02  0.30000000000E+02  0.00000000000E+00 0. -1.
          5    1    1    2  501    0  0.46903410825E+01 -0.73657216512E+01 -0.28313545258E+02  0.30000000000E+02  0.47000000000E+01 0. -1.
         -5    1    1    2    0  501 -0.46903410825E+01  0.73657216512E+01  0.28313545258E+02  0.30000000000E+02  0.47000000000E+01 0.  1.
</event>
<event>
 4    1  0.7503339E-002  0.6000000E+02  0.7546771E-02  0.1259629E+00
         11   -1    0    0    0    0  0.00000000000E+00  0.00000000000E+00  0.30000000000E+02  0.30000000000E+02  0.00000000000E+00 0.  1.
        -11   -1    0    0    0    0 -0.00000000000E+00 -0.00000000000E+00 -0.30000000000E+02  0.30000000000E+02  0.00000000000E+00 0. -1.
          5    1    1    2  501    0 -0.28955453000E+02 -0.62710455665E+01  0.40709832857E+00  0.30000000000E+02  0.47000000000E+01 0.  1.
         -5    1    1    2    0  501  0.28955453000E+02  0.62710455665E+01 -0.40709832857E+00  0.30000000000E+02  0.47000000000E+01 0. -1.
</event>
<event>
 4    1  0.7503339E-002  0.6000000E+02  0.7546771E-02  0.1259629E+00
         11   -1    0    0    0    0  0.00000000000E+00  0.00000000000E+00  0.30000000000E+02  0.30000000000E+02  0.00000000000E+00 0.  1.
        -11   -1    0    0    0    0 -0.00000000000E+00 -0.00000000000E+00 -0.30000000000E+02  0.30000000000E+02  0.00000000000E+00 0. -1.
          5    1    1    2  501    0  0.28123577733E+02  0.93256951953E+01 -0.76056662092E-01  0.30000000000E+02  0.47000000000E+01 0. -1.
         -5    1    1    2    0  501 -0.28123577733E+02 -0.93256951953E+01  0.76056662092E-01  0.30000000000E+02  0.47000000000E+01 0.  1.
</event>
<event>
 4    1  0.7503339E-002  0.6000000E+02  0.7546771E-02  0.1259629E+00
         11   -1    0    0    0    0  0.00000000000E+00  0.00000000000E+00  0.30000000000E+02  0.30000000000E+02  0.00000000000E+00 0.  1.
        -11   -1    0    0    0    0 -0.00000000000E+00 -0.00000000000E+00 -0.30000000000E+02  0.30000000000E+02  0.00000000000E+00 0. -1.
          5    1    1    2  501    0  0.11576185707E+02 -0.33872798476E+01 -0.27063411827E+02  0.30000000000E+02  0.47000000000E+01 0. -1.
         -5    1    1    2    0  501 -0.11576185707E+02  0.33872798476E+01  0.27063411827E+02  0.30000000000E+02  0.47000000000E+01 0.  1.
</event>
<event>
 4    1  0.7503339E-002  0.6000000E+02  0.7546771E-02  0.1259629E+00
         11   -1    0    0    0    0  0.00000000000E+00  0.00000000000E+00  0.30000000000E+02  0.30000000000E+02  0.00000000000E+00 0.  1.
        -11   -1    0    0    0    0 -0.00000000000E+00 -0.00000000000E+00 -0.30000000000E+02  0.30000000000E+02  0.00000000000E+00 0. -1.
          5    1    1    2  501    0 -0.11100965687E+02 -0.68088311955E+01 -0.26614251418E+02  0.30000000000E+02  0.47000000000E+01 0. -1.
         -5    1    1    2    0  501  0.11100965687E+02  0.68088311955E+01  0.26614251418E+02  0.30000000000E+02  0.47000000000E+01 0.  1.
</event>
<event>
 4    1  0.7503339E-002  0.6000000E+02  0.7546771E-02  0.1259629E+00
         11   -1    0    0    0    0  0.00000000000E+00  0.00000000000E+00  0.30000000000E+02  0.30000000000E+02  0.00000000000E+00 0.  1.
        -11   -1    0    0    0    0 -0.00000000000E+00 -0.00000000000E+00 -0.30000000000E+02  0.30000000000E+02  0.00000000000E+00 0. -1.
          5    1    1    2  501    0 -0.63967776051E+01  0.28722059286E+02  0.34690844073E+01  0.30000000000E+02  0.47000000000E+01 0. -1.
         -5    1    1    2    0  501  0.63967776051E+01 -0.28722059286E+02 -0.34690844073E+01  0.30000000000E+02  0.47000000000E+01 0.  1.
</event>
<event>
 4    1  0.7503339E-002  0.6000000E+02  0.7546771E-02  0.1259629E+00
         11   -1    0    0    0    0  0.00000000000E+00  0.00000000000E+00  0.30000000000E+02  0.30000000000E+02  0.00000000000E+00 0.  1.
        -11   -1    0    0    0    0 -0.00000000000E+00 -0.00000000000E+00 -0.30000000000E+02  0.30000000000E+02  0.00000000000E+00 0. -1.
          5    1    1    2  501    0  0.98704561745E+00 -0.18244351231E+02 -0.23325509407E+02  0.30000000000E+02  0.47000000000E+01 0. -1.
         -5    1    1    2    0  501 -0.98704561745E+00  0.18244351231E+02  0.23325509407E+02  0.30000000000E+02  0.47000000000E+01 0.  1.
</event>
<event>
 4    1  0.7503339E-002  0.6000000E+02  0.7546771E-02  0.1259629E+00
         11   -1    0    0    0    0  0.00000000000E+00  0.00000000000E+00  0.30000000000E+02  0.30000000000E+02  0.00000000000E+00 0.  1.
        -11   -1    0    0    0    0 -0.00000000000E+00 -0.00000000000E+00 -0.30000000000E+02  0.30000000000E+02  0.00000000000E+00 0. -1.
          5    1    1    2  501    0  0.19266104198E+02 -0.18369560970E+02 -0.13011012980E+02  0.30000000000E+02  0.47000000000E+01 0. -1.
         -5    1    1    2    0  501 -0.19266104198E+02  0.18369560970E+02  0.13011012980E+02  0.30000000000E+02  0.47000000000E+01 0.  1.
</event>
<event>
 4    1  0.7503339E-002  0.6000000E+02  0.7546771E-02  0.1259629E+00
         11   -1    0    0    0    0  0.00000000000E+00  0.00000000000E+00  0.30000000000E+02  0.30000000000E+02  0.00000000000E+00 0.  1.
        -11   -1    0    0    0    0 -0.00000000000E+00 -0.00000000000E+00 -0.30000000000E+02  0.30000000000E+02  0.00000000000E+00 0. -1.
          5    1    1    2  501    0  0.69053394461E+01  0.13434211137E+02 -0.25490160028E+02  0.30000000000E+02  0.47000000000E+01 0. -1.
         -5    1    1    2    0  501 -0.69053394461E+01 -0.13434211137E+02  0.25490160028E+02  0.30000000000E+02  0.47000000000E+01 0.  1.
</event>
<event>
 4    1  0.7503339E-002  0.6000000E+02  0.7546771E-02  0.1259629E+00
         11   -1    0    0    0    0  0.00000000000E+00  0.00000000000E+00  0.30000000000E+02  0.30000000000E+02  0.00000000000E+00 0. -1.
        -11   -1    0    0    0    0 -0.00000000000E+00 -0.00000000000E+00 -0.30000000000E+02  0.30000000000E+02  0.00000000000E+00 0.  1.
          5    1    1    2  501    0  0.18126667391E+02  0.13816834611E+02 -0.18932221492E+02  0.30000000000E+02  0.47000000000E+01 0.  1.
         -5    1    1    2    0  501 -0.18126667391E+02 -0.13816834611E+02  0.18932221492E+02  0.30000000000E+02  0.47000000000E+01 0. -1.
</event>
<event>
 4    1  0.7503339E-002  0.6000000E+02  0.7546771E-02  0.1259629E+00
         11   -1    0    0    0    0  0.00000000000E+00  0.00000000000E+00  0.30000000000E+02  0.30000000000E+02  0.00000000000E+00 0. -1.
        -11   -1    0    0    0    0 -0.00000000000E+00 -0.00000000000E+00 -0.30000000000E+02  0.30000000000E+02  0.00000000000E+00 0.  1.
          5    1    1    2  501    0 -0.22680371382E+02  0.14549260385E+02 -0.12321922586E+02  0.30000000000E+02  0.47000000000E+01 0.  1.
         -5    1    1    2    0  501  0.22680371382E+02 -0.14549260385E+02  0.12321922586E+02  0.30000000000E+02  0.47000000000E+01 0. -1.
</event>
<event>
 4    1  0.7503339E-002  0.6000000E+02  0.7546771E-02  0.1259629E+00
         11   -1    0    0    0    0  0.00000000000E+00  0.00000000000E+00  0.30000000000E+02  0.30000000000E+02  0.00000000000E+00 0. -1.
        -11   -1    0    0    0    0 -0.00000000000E+00 -0.00000000000E+00 -0.30000000000E+02  0.30000000000E+02  0.00000000000E+00 0.  1.
          5    1    1    2  501    0  0.20427610964E+02 -0.85298921221E+01 -0.19694254255E+02  0.30000000000E+02  0.47000000000E+01 0.  1.
         -5    1    1    2    0  501 -0.20427610964E+02  0.85298921221E+01  0.19694254255E+02  0.30000000000E+02  0.47000000000E+01 0. -1.
</event>
<event>
 4    1  0.7503339E-002  0.6000000E+02  0.7546771E-02  0.1259629E+00
         11   -1    0    0    0    0  0.00000000000E+00  0.00000000000E+00  0.30000000000E+02  0.30000000000E+02  0.00000000000E+00 0.  1.
        -11   -1    0    0    0    0 -0.00000000000E+00 -0.00000000000E+00 -0.30000000000E+02  0.30000000000E+02  0.00000000000E+00 0. -1.
          5    1    1    2  501    0  0.39988200019E+01 -0.13097807699E+02 -0.26274833436E+02  0.30000000000E+02  0.47000000000E+01 0. -1.
         -5    1    1    2    0  501 -0.39988200019E+01  0.13097807699E+02  0.26274833436E+02  0.30000000000E+02  0.47000000000E+01 0.  1.
</event>
<event>
 4    1  0.7503339E-002  0.6000000E+02  0.7546771E-02  0.1259629E+00
         11   -1    0    0    0    0  0.00000000000E+00  0.00000000000E+00  0.30000000000E+02  0.30000000000E+02  0.00000000000E+00 0.  1.
        -11   -1    0    0    0    0 -0.00000000000E+00 -0.00000000000E+00 -0.30000000000E+02  0.30000000000E+02  0.00000000000E+00 0. -1.
          5    1    1    2  501    0 -0.19623676365E+02  0.13582428136E+02 -0.17559583476E+02  0.30000000000E+02  0.47000000000E+01 0. -1.
         -5    1    1    2    0  501  0.19623676365E+02 -0.13582428136E+02  0.17559583476E+02  0.30000000000E+02  0.47000000000E+01 0.  1.
</event>
<event>
 4    1  0.7503339E-002  0.6000000E+02  0.7546771E-02  0.1259629E+00
         11   -1    0    0    0    0  0.00000000000E+00  0.00000000000E+00  0.30000000000E+02  0.30000000000E+02  0.00000000000E+00 0. -1.
        -11   -1    0    0    0    0 -0.00000000000E+00 -0.00000000000E+00 -0.30000000000E+02  0.30000000000E+02  0.00000000000E+00 0.  1.
          5    1    1    2  501    0  0.55364703419E+01  0.28448259132E+02 -0.61606857189E+01  0.30000000000E+02  0.47000000000E+01 0.  1.
         -5    1    1    2    0  501 -0.55364703419E+01 -0.28448259132E+02  0.61606857189E+01  0.30000000000E+02  0.47000000000E+01 0. -1.
</event>
<event>
 4    1  0.7503339E-002  0.6000000E+02  0.7546771E-02  0.1259629E+00
         11   -1    0    0    0    0  0.00000000000E+00  0.00000000000E+00  0.30000000000E+02  0.30000000000E+02  0.00000000000E+00 0.  1.
        -11   -1    0    0    0    0 -0.00000000000E+00 -0.00000000000E+00 -0.30000000000E+02  0.30000000000E+02  0.00000000000E+00 0. -1.
          5    1    1    2  501    0 -0.24480154743E+02 -0.77829678952E+01  0.14766767910E+02  0.30000000000E+02  0.47000000000E+01 0. -1.
         -5    1    1    2    0  501  0.24480154743E+02  0.77829678952E+01 -0.14766767910E+02  0.30000000000E+02  0.47000000000E+01 0.  1.
</event>
<event>
 4    1  0.7503339E-002  0.6000000E+02  0.7546771E-02  0.1259629E+00
         11   -1    0    0    0    0  0.00000000000E+00  0.00000000000E+00  0.30000000000E+02  0.30000000000E+02  0.00000000000E+00 0.  1.
        -11   -1    0    0    0    0 -0.00000000000E+00 -0.00000000000E+00 -0.30000000000E+02  0.30000000000E+02  0.00000000000E+00 0. -1.
          5    1    1    2  501    0 -0.15000845420E+02 -0.48325328041E+01 -0.25090461602E+02  0.30000000000E+02  0.47000000000E+01 0. -1.
         -5    1    1    2    0  501  0.15000845420E+02  0.48325328041E+01  0.25090461602E+02  0.30000000000E+02  0.47000000000E+01 0.  1.
</event>
<event>
 4    1  0.7503339E-002  0.6000000E+02  0.7546771E-02  0.1259629E+00
         11   -1    0    0    0    0  0.00000000000E+00  0.00000000000E+00  0.30000000000E+02  0.30000000000E+02  0.00000000000E+00 0.  1.
        -11   -1    0    0    0    0 -0.00000000000E+00 -0.00000000000E+00 -0.30000000000E+02  0.30000000000E+02  0.00000000000E+00 0. -1.
          5    1    1    2  501    0  0.95178289607E+01  0.43339976344E+01  0.27722507036E+02  0.30000000000E+02  0.47000000000E+01 0.  1.
         -5    1    1    2    0  501 -0.95178289607E+01 -0.43339976344E+01 -0.27722507036E+02  0.30000000000E+02  0.47000000000E+01 0. -1.
</event>
<event>
 4    1  0.7503339E-002  0.6000000E+02  0.7546771E-02  0.1259629E+00
         11   -1    0    0    0    0  0.00000000000E+00  0.00000000000E+00  0.30000000000E+02  0.30000000000E+02  0.00000000000E+00 0.  1.
        -11   -1    0    0    0    0 -0.00000000000E+00 -0.00000000000E+00 -0.30000000000E+02  0.30000000000E+02  0.00000000000E+00 0. -1.
          5    1    1    2  501    0  0.18130522448E+02  0.46497020693E+00 -0.23430278668E+02  0.30000000000E+02  0.47000000000E+01 0. -1.
         -5    1    1    2    0  501 -0.18130522448E+02 -0.46497020693E+00  0.23430278668E+02  0.30000000000E+02  0.47000000000E+01 0.  1.
</event>
<event>
 4    1  0.7503339E-002  0.6000000E+02  0.7546771E-02  0.1259629E+00
         11   -1    0    0    0    0  0.00000000000E+00  0.00000000000E+00  0.30000000000E+02  0.30000000000E+02  0.00000000000E+00 0.  1.
        -11   -1    0    0    0    0 -0.00000000000E+00 -0.00000000000E+00 -0.30000000000E+02  0.30000000000E+02  0.00000000000E+00 0. -1.
          5    1    1    2  501    0  0.19764163710E+02 -0.64479018947E+01 -0.21111901714E+02  0.30000000000E+02  0.47000000000E+01 0. -1.
         -5    1    1    2    0  501 -0.19764163710E+02  0.64479018947E+01  0.21111901714E+02  0.30000000000E+02  0.47000000000E+01 0.  1.
</event>
<event>
 4    1  0.7503339E-002  0.6000000E+02  0.7546771E-02  0.1259629E+00
         11   -1    0    0    0    0  0.00000000000E+00  0.00000000000E+00  0.30000000000E+02  0.30000000000E+02  0.00000000000E+00 0.  1.
        -11   -1    0    0    0    0 -0.00000000000E+00 -0.00000000000E+00 -0.30000000000E+02  0.30000000000E+02  0.00000000000E+00 0. -1.
          5    1    1    2  501    0 -0.68282665951E+00 -0.19999429436E+02 -0.21851008444E+02  0.30000000000E+02  0.47000000000E+01 0. -1.
         -5    1    1    2    0  501  0.68282665951E+00  0.19999429436E+02  0.21851008444E+02  0.30000000000E+02  0.47000000000E+01 0.  1.
</event>
<event>
 4    1  0.7503339E-002  0.6000000E+02  0.7546771E-02  0.1259629E+00
         11   -1    0    0    0    0  0.00000000000E+00  0.00000000000E+00  0.30000000000E+02  0.30000000000E+02  0.00000000000E+00 0.  1.
        -11   -1    0    0    0    0 -0.00000000000E+00 -0.00000000000E+00 -0.30000000000E+02  0.30000000000E+02  0.00000000000E+00 0. -1.
          5    1    1    2  501    0 -0.20250448090E+02  0.20118846632E+02  0.79411184577E+01  0.30000000000E+02  0.47000000000E+01 0.  1.
         -5    1    1    2    0  501  0.20250448090E+02 -0.20118846632E+02 -0.79411184577E+01  0.30000000000E+02  0.47000000000E+01 0. -1.
</event>
<event>
 4    1  0.7503339E-002  0.6000000E+02  0.7546771E-02  0.1259629E+00
         11   -1    0    0    0    0  0.00000000000E+00  0.00000000000E+00  0.30000000000E+02  0.30000000000E+02  0.00000000000E+00 0. -1.
        -11   -1    0    0    0    0 -0.00000000000E+00 -0.00000000000E+00 -0.30000000000E+02  0.30000000000E+02  0.00000000000E+00 0.  1.
          5    1    1    2  501    0  0.26341834407E+02 -0.82099459851E+01 -0.10798821556E+02  0.30000000000E+02  0.47000000000E+01 0.  1.
         -5    1    1    2    0  501 -0.26341834407E+02  0.82099459851E+01  0.10798821556E+02  0.30000000000E+02  0.47000000000E+01 0. -1.
</event>
<event>
 4    1  0.7503339E-002  0.6000000E+02  0.7546771E-02  0.1259629E+00
         11   -1    0    0    0    0  0.00000000000E+00  0.00000000000E+00  0.30000000000E+02  0.30000000000E+02  0.00000000000E+00 0.  1.
        -11   -1    0    0    0    0 -0.00000000000E+00 -0.00000000000E+00 -0.30000000000E+02  0.30000000000E+02  0.00000000000E+00 0. -1.
          5    1    1    2  501    0  0.24556014850E+02 -0.13264479852E+02 -0.99481510305E+01  0.30000000000E+02  0.47000000000E+01 0. -1.
         -5    1    1    2    0  501 -0.24556014850E+02  0.13264479852E+02  0.99481510305E+01  0.30000000000E+02  0.47000000000E+01 0.  1.
</event>
<event>
 4    1  0.7503339E-002  0.6000000E+02  0.7546771E-02  0.1259629E+00
         11   -1    0    0    0    0  0.00000000000E+00  0.00000000000E+00  0.30000000000E+02  0.30000000000E+02  0.00000000000E+00 0.  1.
        -11   -1    0    0    0    0 -0.00000000000E+00 -0.00000000000E+00 -0.30000000000E+02  0.30000000000E+02  0.00000000000E+00 0. -1.
          5    1    1    2  501    0  0.75213297050E+01  0.28653488271E+02  0.56321345864E+00  0.30000000000E+02  0.47000000000E+01 0. -1.
         -5    1    1    2    0  501 -0.75213297050E+01 -0.28653488271E+02 -0.56321345864E+00  0.30000000000E+02  0.47000000000E+01 0.  1.
</event>
<event>
 4    1  0.7503339E-002  0.6000000E+02  0.7546771E-02  0.1259629E+00
         11   -1    0    0    0    0  0.00000000000E+00  0.00000000000E+00  0.30000000000E+02  0.30000000000E+02  0.00000000000E+00 0.  1.
        -11   -1    0    0    0    0 -0.00000000000E+00 -0.00000000000E+00 -0.30000000000E+02  0.30000000000E+02  0.00000000000E+00 0. -1.
          5    1    1    2  501    0 -0.15944393794E+02 -0.13065669898E+02 -0.21283199399E+02  0.30000000000E+02  0.47000000000E+01 0. -1.
         -5    1    1    2    0  501  0.15944393794E+02  0.13065669898E+02  0.21283199399E+02  0.30000000000E+02  0.47000000000E+01 0.  1.
</event>
<event>
 4    1  0.7503339E-002  0.6000000E+02  0.7546771E-02  0.1259629E+00
         11   -1    0    0    0    0  0.00000000000E+00  0.00000000000E+00  0.30000000000E+02  0.30000000000E+02  0.00000000000E+00 0.  1.
        -11   -1    0    0    0    0 -0.00000000000E+00 -0.00000000000E+00 -0.30000000000E+02  0.30000000000E+02  0.00000000000E+00 0. -1.
          5    1    1    2  501    0  0.90241291737E+01  0.16085780876E+02 -0.23188849611E+02  0.30000000000E+02  0.47000000000E+01 0. -1.
         -5    1    1    2    0  501 -0.90241291737E+01 -0.16085780876E+02  0.23188849611E+02  0.30000000000E+02  0.47000000000E+01 0.  1.
</event>
<event>
 4    1  0.7503339E-002  0.6000000E+02  0.7546771E-02  0.1259629E+00
         11   -1    0    0    0    0  0.00000000000E+00  0.00000000000E+00  0.30000000000E+02  0.30000000000E+02  0.00000000000E+00 0. -1.
        -11   -1    0    0    0    0 -0.00000000000E+00 -0.00000000000E+00 -0.30000000000E+02  0.30000000000E+02  0.00000000000E+00 0.  1.
          5    1    1    2  501    0  0.96349128276E+01  0.27863818427E+02 -0.29472152017E+01  0.30000000000E+02  0.47000000000E+01 0.  1.
         -5    1    1    2    0  501 -0.96349128276E+01 -0.27863818427E+02  0.29472152017E+01  0.30000000000E+02  0.47000000000E+01 0. -1.
</event>
<event>
 4    1  0.7503339E-002  0.6000000E+02  0.7546771E-02  0.1259629E+00
         11   -1    0    0    0    0  0.00000000000E+00  0.00000000000E+00  0.30000000000E+02  0.30000000000E+02  0.00000000000E+00 0.  1.
        -11   -1    0    0    0    0 -0.00000000000E+00 -0.00000000000E+00 -0.30000000000E+02  0.30000000000E+02  0.00000000000E+00 0. -1.
          5    1    1    2  501    0 -0.18293281018E+02 -0.40229669649E+01 -0.22958257913E+02  0.30000000000E+02  0.47000000000E+01 0. -1.
         -5    1    1    2    0  501  0.18293281018E+02  0.40229669649E+01  0.22958257913E+02  0.30000000000E+02  0.47000000000E+01 0.  1.
</event>
<event>
 4    1  0.7503339E-002  0.6000000E+02  0.7546771E-02  0.1259629E+00
         11   -1    0    0    0    0  0.00000000000E+00  0.00000000000E+00  0.30000000000E+02  0.30000000000E+02  0.00000000000E+00 0.  1.
        -11   -1    0    0    0    0 -0.00000000000E+00 -0.00000000000E+00 -0.30000000000E+02  0.30000000000E+02  0.00000000000E+00 0. -1.
          5    1    1    2  501    0 -0.34242997394E+01  0.12418596659E+02 -0.26682627838E+02  0.30000000000E+02  0.47000000000E+01 0. -1.
         -5    1    1    2    0  501  0.34242997394E+01 -0.12418596659E+02  0.26682627838E+02  0.30000000000E+02  0.47000000000E+01 0.  1.
</event>
<event>
 4    1  0.7503339E-002  0.6000000E+02  0.7546771E-02  0.1259629E+00
         11   -1    0    0    0    0  0.00000000000E+00  0.00000000000E+00  0.30000000000E+02  0.30000000000E+02  0.00000000000E+00 0.  1.
        -11   -1    0    0    0    0 -0.00000000000E+00 -0.00000000000E+00 -0.30000000000E+02  0.30000000000E+02  0.00000000000E+00 0. -1.
          5    1    1    2  501    0  0.19166482759E+01 -0.18604607751E+02 -0.22980535891E+02  0.30000000000E+02  0.47000000000E+01 0. -1.
         -5    1    1    2    0  501 -0.19166482759E+01  0.18604607751E+02  0.22980535891E+02  0.30000000000E+02  0.47000000000E+01 0.  1.
</event>
<event>
 4    1  0.7503339E-002  0.6000000E+02  0.7546771E-02  0.1259629E+00
         11   -1    0    0    0    0  0.00000000000E+00  0.00000000000E+00  0.30000000000E+02  0.30000000000E+02  0.00000000000E+00 0.  1.
        -11   -1    0    0    0    0 -0.00000000000E+00 -0.00000000000E+00 -0.30000000000E+02  0.30000000000E+02  0.00000000000E+00 0. -1.
          5    1    1    2  501    0  0.13112910766E+02 -0.11050571545E+02 -0.24162914554E+02  0.30000000000E+02  0.47000000000E+01 0. -1.
         -5    1    1    2    0  501 -0.13112910766E+02  0.11050571545E+02  0.24162914554E+02  0.30000000000E+02  0.47000000000E+01 0.  1.
</event>
<event>
 4    1  0.7503339E-002  0.6000000E+02  0.7546771E-02  0.1259629E+00
         11   -1    0    0    0    0  0.00000000000E+00  0.00000000000E+00  0.30000000000E+02  0.30000000000E+02  0.00000000000E+00 0.  1.
        -11   -1    0    0    0    0 -0.00000000000E+00 -0.00000000000E+00 -0.30000000000E+02  0.30000000000E+02  0.00000000000E+00 0. -1.
          5    1    1    2  501    0 -0.55758161501E+01  0.24100151985E+02 -0.16309596823E+02  0.30000000000E+02  0.47000000000E+01 0. -1.
         -5    1    1    2    0  501  0.55758161501E+01 -0.24100151985E+02  0.16309596823E+02  0.30000000000E+02  0.47000000000E+01 0.  1.
</event>
<event>
 4    1  0.7503339E-002  0.6000000E+02  0.7546771E-02  0.1259629E+00
         11   -1    0    0    0    0  0.00000000000E+00  0.00000000000E+00  0.30000000000E+02  0.30000000000E+02  0.00000000000E+00 0.  1.
        -11   -1    0    0    0    0 -0.00000000000E+00 -0.00000000000E+00 -0.30000000000E+02  0.30000000000E+02  0.00000000000E+00 0. -1.
          5    1    1    2  501    0 -0.13486369457E+02  0.20642446306E+02 -0.16429158511E+02  0.30000000000E+02  0.47000000000E+01 0. -1.
         -5    1    1    2    0  501  0.13486369457E+02 -0.20642446306E+02  0.16429158511E+02  0.30000000000E+02  0.47000000000E+01 0.  1.
</event>
<event>
 4    1  0.7503339E-002  0.6000000E+02  0.7546771E-02  0.1259629E+00
         11   -1    0    0    0    0  0.00000000000E+00  0.00000000000E+00  0.30000000000E+02  0.30000000000E+02  0.00000000000E+00 0.  1.
        -11   -1    0    0    0    0 -0.00000000000E+00 -0.00000000000E+00 -0.30000000000E+02  0.30000000000E+02  0.00000000000E+00 0. -1.
          5    1    1    2  501    0 -0.76241821409E+01  0.19498928477E+00  0.28631168783E+02  0.30000000000E+02  0.47000000000E+01 0.  1.
         -5    1    1    2    0  501  0.76241821409E+01 -0.19498928477E+00 -0.28631168783E+02  0.30000000000E+02  0.47000000000E+01 0. -1.
</event>
<event>
 4    1  0.7503339E-002  0.6000000E+02  0.7546771E-02  0.1259629E+00
         11   -1    0    0    0    0  0.00000000000E+00  0.00000000000E+00  0.30000000000E+02  0.30000000000E+02  0.00000000000E+00 0.  1.
        -11   -1    0    0    0    0 -0.00000000000E+00 -0.00000000000E+00 -0.30000000000E+02  0.30000000000E+02  0.00000000000E+00 0. -1.
          5    1    1    2  501    0  0.17056645653E+02  0.23525984300E+02 -0.57886873951E+01  0.30000000000E+02  0.47000000000E+01 0. -1.
         -5    1    1    2    0  501 -0.17056645653E+02 -0.23525984300E+02  0.57886873951E+01  0.30000000000E+02  0.47000000000E+01 0.  1.
</event>
<event>
 4    1  0.7503339E-002  0.6000000E+02  0.7546771E-02  0.1259629E+00
         11   -1    0    0    0    0  0.00000000000E+00  0.00000000000E+00  0.30000000000E+02  0.30000000000E+02  0.00000000000E+00 0. -1.
        -11   -1    0    0    0    0 -0.00000000000E+00 -0.00000000000E+00 -0.30000000000E+02  0.30000000000E+02  0.00000000000E+00 0.  1.
          5    1    1    2  501    0  0.50544928999E+01  0.27222718382E+02  0.10549204018E+02  0.30000000000E+02  0.47000000000E+01 0. -1.
         -5    1    1    2    0  501 -0.50544928999E+01 -0.27222718382E+02 -0.10549204018E+02  0.30000000000E+02  0.47000000000E+01 0.  1.
</event>
<event>
 4    1  0.7503339E-002  0.6000000E+02  0.7546771E-02  0.1259629E+00
         11   -1    0    0    0    0  0.00000000000E+00  0.00000000000E+00  0.30000000000E+02  0.30000000000E+02  0.00000000000E+00 0.  1.
        -11   -1    0    0    0    0 -0.00000000000E+00 -0.00000000000E+00 -0.30000000000E+02  0.30000000000E+02  0.00000000000E+00 0. -1.
          5    1    1    2  501    0 -0.17678681427E+02 -0.17289274525E+02  0.16323455804E+02  0.30000000000E+02  0.47000000000E+01 0.  1.
         -5    1    1    2    0  501  0.17678681427E+02  0.17289274525E+02 -0.16323455804E+02  0.30000000000E+02  0.47000000000E+01 0. -1.
</event>
<event>
 4    1  0.7503339E-002  0.6000000E+02  0.7546771E-02  0.1259629E+00
         11   -1    0    0    0    0  0.00000000000E+00  0.00000000000E+00  0.30000000000E+02  0.30000000000E+02  0.00000000000E+00 0.  1.
        -11   -1    0    0    0    0 -0.00000000000E+00 -0.00000000000E+00 -0.30000000000E+02  0.30000000000E+02  0.00000000000E+00 0. -1.
          5    1    1    2  501    0 -0.11529621815E+00 -0.10487274309E+02 -0.27711257358E+02  0.30000000000E+02  0.47000000000E+01 0. -1.
         -5    1    1    2    0  501  0.11529621815E+00  0.10487274309E+02  0.27711257358E+02  0.30000000000E+02  0.47000000000E+01 0.  1.
</event>
<event>
 4    1  0.7503339E-002  0.6000000E+02  0.7546771E-02  0.1259629E+00
         11   -1    0    0    0    0  0.00000000000E+00  0.00000000000E+00  0.30000000000E+02  0.30000000000E+02  0.00000000000E+00 0.  1.
        -11   -1    0    0    0    0 -0.00000000000E+00 -0.00000000000E+00 -0.30000000000E+02  0.30000000000E+02  0.00000000000E+00 0. -1.
          5    1    1    2  501    0  0.19666750861E+02 -0.10354878201E+01 -0.22137223754E+02  0.30000000000E+02  0.47000000000E+01 0. -1.
         -5    1    1    2    0  501 -0.19666750861E+02  0.10354878201E+01  0.22137223754E+02  0.30000000000E+02  0.47000000000E+01 0.  1.
</event>
<event>
 4    1  0.7503339E-002  0.6000000E+02  0.7546771E-02  0.1259629E+00
         11   -1    0    0    0    0  0.00000000000E+00  0.00000000000E+00  0.30000000000E+02  0.30000000000E+02  0.00000000000E+00 0. -1.
        -11   -1    0    0    0    0 -0.00000000000E+00 -0.00000000000E+00 -0.30000000000E+02  0.30000000000E+02  0.00000000000E+00 0.  1.
          5    1    1    2  501    0  0.12561604117E+02 -0.53902064497E+01  0.26288053873E+02  0.30000000000E+02  0.47000000000E+01 0. -1.
         -5    1    1    2    0  501 -0.12561604117E+02  0.53902064497E+01 -0.26288053873E+02  0.30000000000E+02  0.47000000000E+01 0.  1.
</event>
<event>
 4    1  0.7503339E-002  0.6000000E+02  0.7546771E-02  0.1259629E+00
         11   -1    0    0    0    0  0.00000000000E+00  0.00000000000E+00  0.30000000000E+02  0.30000000000E+02  0.00000000000E+00 0.  1.
        -11   -1    0    0    0    0 -0.00000000000E+00 -0.00000000000E+00 -0.30000000000E+02  0.30000000000E+02  0.00000000000E+00 0. -1.
          5    1    1    2  501    0 -0.68732414971E+01 -0.26458929661E+02 -0.11427755359E+02  0.30000000000E+02  0.47000000000E+01 0. -1.
         -5    1    1    2    0  501  0.68732414971E+01  0.26458929661E+02  0.11427755359E+02  0.30000000000E+02  0.47000000000E+01 0.  1.
</event>
<event>
 4    1  0.7503339E-002  0.6000000E+02  0.7546771E-02  0.1259629E+00
         11   -1    0    0    0    0  0.00000000000E+00  0.00000000000E+00  0.30000000000E+02  0.30000000000E+02  0.00000000000E+00 0. -1.
        -11   -1    0    0    0    0 -0.00000000000E+00 -0.00000000000E+00 -0.30000000000E+02  0.30000000000E+02  0.00000000000E+00 0.  1.
          5    1    1    2  501    0 -0.20174315447E+02  0.20225549856E+02 -0.78634680191E+01  0.30000000000E+02  0.47000000000E+01 0.  1.
         -5    1    1    2    0  501  0.20174315447E+02 -0.20225549856E+02  0.78634680191E+01  0.30000000000E+02  0.47000000000E+01 0. -1.
</event>
<event>
 4    1  0.7503339E-002  0.6000000E+02  0.7546771E-02  0.1259629E+00
         11   -1    0    0    0    0  0.00000000000E+00  0.00000000000E+00  0.30000000000E+02  0.30000000000E+02  0.00000000000E+00 0.  1.
        -11   -1    0    0    0    0 -0.00000000000E+00 -0.00000000000E+00 -0.30000000000E+02  0.30000000000E+02  0.00000000000E+00 0. -1.
          5    1    1    2  501    0  0.23679050420E+02  0.17054987715E+02  0.51322475819E+01  0.30000000000E+02  0.47000000000E+01 0.  1.
         -5    1    1    2    0  501 -0.23679050420E+02 -0.17054987715E+02 -0.51322475819E+01  0.30000000000E+02  0.47000000000E+01 0. -1.
</event>
<event>
 4    1  0.7503339E-002  0.6000000E+02  0.7546771E-02  0.1259629E+00
         11   -1    0    0    0    0  0.00000000000E+00  0.00000000000E+00  0.30000000000E+02  0.30000000000E+02  0.00000000000E+00 0.  1.
        -11   -1    0    0    0    0 -0.00000000000E+00 -0.00000000000E+00 -0.30000000000E+02  0.30000000000E+02  0.00000000000E+00 0. -1.
          5    1    1    2  501    0  0.40303203182E+01  0.25784157896E+02 -0.14030100488E+02  0.30000000000E+02  0.47000000000E+01 0. -1.
         -5    1    1    2    0  501 -0.40303203182E+01 -0.25784157896E+02  0.14030100488E+02  0.30000000000E+02  0.47000000000E+01 0.  1.
</event>
<event>
 4    1  0.7503339E-002  0.6000000E+02  0.7546771E-02  0.1259629E+00
         11   -1    0    0    0    0  0.00000000000E+00  0.00000000000E+00  0.30000000000E+02  0.30000000000E+02  0.00000000000E+00 0.  1.
        -11   -1    0    0    0    0 -0.00000000000E+00 -0.00000000000E+00 -0.30000000000E+02  0.30000000000E+02  0.00000000000E+00 0. -1.
          5    1    1    2  501    0 -0.12118875292E+02  0.25389090326E+02  0.92971476307E+01  0.30000000000E+02  0.47000000000E+01 0. -1.
         -5    1    1    2    0  501  0.12118875292E+02 -0.25389090326E+02 -0.92971476307E+01  0.30000000000E+02  0.47000000000E+01 0.  1.
</event>
<event>
 4    1  0.7503339E-002  0.6000000E+02  0.7546771E-02  0.1259629E+00
         11   -1    0    0    0    0  0.00000000000E+00  0.00000000000E+00  0.30000000000E+02  0.30000000000E+02  0.00000000000E+00 0.  1.
        -11   -1    0    0    0    0 -0.00000000000E+00 -0.00000000000E+00 -0.30000000000E+02  0.30000000000E+02  0.00000000000E+00 0. -1.
          5    1    1    2  501    0  0.23310849622E+02  0.17419434813E+02 -0.55747269637E+01  0.30000000000E+02  0.47000000000E+01 0. -1.
         -5    1    1    2    0  501 -0.23310849622E+02 -0.17419434813E+02  0.55747269637E+01  0.30000000000E+02  0.47000000000E+01 0.  1.
</event>
<event>
 4    1  0.7503339E-002  0.6000000E+02  0.7546771E-02  0.1259629E+00
         11   -1    0    0    0    0  0.00000000000E+00  0.00000000000E+00  0.30000000000E+02  0.30000000000E+02  0.00000000000E+00 0.  1.
        -11   -1    0    0    0    0 -0.00000000000E+00 -0.00000000000E+00 -0.30000000000E+02  0.30000000000E+02  0.00000000000E+00 0. -1.
          5    1    1    2  501    0 -0.15616813813E+02  0.23111302379E+02 -0.99946399980E+01  0.30000000000E+02  0.47000000000E+01 0. -1.
         -5    1    1    2    0  501  0.15616813813E+02 -0.23111302379E+02  0.99946399980E+01  0.30000000000E+02  0.47000000000E+01 0.  1.
</event>
<event>
 4    1  0.7503339E-002  0.6000000E+02  0.7546771E-02  0.1259629E+00
         11   -1    0    0    0    0  0.00000000000E+00  0.00000000000E+00  0.30000000000E+02  0.30000000000E+02  0.00000000000E+00 0.  1.
        -11   -1    0    0    0    0 -0.00000000000E+00 -0.00000000000E+00 -0.30000000000E+02  0.30000000000E+02  0.00000000000E+00 0. -1.
          5    1    1    2  501    0  0.16611257978E+02  0.17910454365E+02 -0.16768772550E+02  0.30000000000E+02  0.47000000000E+01 0. -1.
         -5    1    1    2    0  501 -0.16611257978E+02 -0.17910454365E+02  0.16768772550E+02  0.30000000000E+02  0.47000000000E+01 0.  1.
</event>
<event>
 4    1  0.7503339E-002  0.6000000E+02  0.7546771E-02  0.1259629E+00
         11   -1    0    0    0    0  0.00000000000E+00  0.00000000000E+00  0.30000000000E+02  0.30000000000E+02  0.00000000000E+00 0.  1.
        -11   -1    0    0    0    0 -0.00000000000E+00 -0.00000000000E+00 -0.30000000000E+02  0.30000000000E+02  0.00000000000E+00 0. -1.
          5    1    1    2  501    0  0.26657376761E+02  0.97996993105E+01 -0.84415731739E+01  0.30000000000E+02  0.47000000000E+01 0. -1.
         -5    1    1    2    0  501 -0.26657376761E+02 -0.97996993105E+01  0.84415731739E+01  0.30000000000E+02  0.47000000000E+01 0.  1.
</event>
<event>
 4    1  0.7503339E-002  0.6000000E+02  0.7546771E-02  0.1259629E+00
         11   -1    0    0    0    0  0.00000000000E+00  0.00000000000E+00  0.30000000000E+02  0.30000000000E+02  0.00000000000E+00 0. -1.
        -11   -1    0    0    0    0 -0.00000000000E+00 -0.00000000000E+00 -0.30000000000E+02  0.30000000000E+02  0.00000000000E+00 0.  1.
          5    1    1    2  501    0 -0.89062123199E+01 -0.10051210722E+02 -0.26411409374E+02  0.30000000000E+02  0.47000000000E+01 0.  1.
         -5    1    1    2    0  501  0.89062123199E+01  0.10051210722E+02  0.26411409374E+02  0.30000000000E+02  0.47000000000E+01 0. -1.
</event>
<event>
 4    1  0.7503339E-002  0.6000000E+02  0.7546771E-02  0.1259629E+00
         11   -1    0    0    0    0  0.00000000000E+00  0.00000000000E+00  0.30000000000E+02  0.30000000000E+02  0.00000000000E+00 0.  1.
        -11   -1    0    0    0    0 -0.00000000000E+00 -0.00000000000E+00 -0.30000000000E+02  0.30000000000E+02  0.00000000000E+00 0. -1.
          5    1    1    2  501    0  0.13836653774E+02 -0.14253966859E+02 -0.21983663050E+02  0.30000000000E+02  0.47000000000E+01 0. -1.
         -5    1    1    2    0  501 -0.13836653774E+02  0.14253966859E+02  0.21983663050E+02  0.30000000000E+02  0.47000000000E+01 0.  1.
</event>
<event>
 4    1  0.7503339E-002  0.6000000E+02  0.7546771E-02  0.1259629E+00
         11   -1    0    0    0    0  0.00000000000E+00  0.00000000000E+00  0.30000000000E+02  0.30000000000E+02  0.00000000000E+00 0.  1.
        -11   -1    0    0    0    0 -0.00000000000E+00 -0.00000000000E+00 -0.30000000000E+02  0.30000000000E+02  0.00000000000E+00 0. -1.
          5    1    1    2  501    0 -0.96742180604E+00 -0.29717801611E+01 -0.29464260006E+02  0.30000000000E+02  0.47000000000E+01 0. -1.
         -5    1    1    2    0  501  0.96742180604E+00  0.29717801611E+01  0.29464260006E+02  0.30000000000E+02  0.47000000000E+01 0.  1.
</event>
<event>
 4    1  0.7503339E-002  0.6000000E+02  0.7546771E-02  0.1259629E+00
         11   -1    0    0    0    0  0.00000000000E+00  0.00000000000E+00  0.30000000000E+02  0.30000000000E+02  0.00000000000E+00 0.  1.
        -11   -1    0    0    0    0 -0.00000000000E+00 -0.00000000000E+00 -0.30000000000E+02  0.30000000000E+02  0.00000000000E+00 0. -1.
          5    1    1    2  501    0  0.65334170260E+01  0.20406619106E+02 -0.20464465754E+02  0.30000000000E+02  0.47000000000E+01 0. -1.
         -5    1    1    2    0  501 -0.65334170260E+01 -0.20406619106E+02  0.20464465754E+02  0.30000000000E+02  0.47000000000E+01 0.  1.
</event>
<event>
 4    1  0.7503339E-002  0.6000000E+02  0.7546771E-02  0.1259629E+00
         11   -1    0    0    0    0  0.00000000000E+00  0.00000000000E+00  0.30000000000E+02  0.30000000000E+02  0.00000000000E+00 0.  1.
        -11   -1    0    0    0    0 -0.00000000000E+00 -0.00000000000E+00 -0.30000000000E+02  0.30000000000E+02  0.00000000000E+00 0. -1.
          5    1    1    2  501    0  0.55744912900E+00 -0.33725371906E+01 -0.29431704731E+02  0.30000000000E+02  0.47000000000E+01 0. -1.
         -5    1    1    2    0  501 -0.55744912900E+00  0.33725371906E+01  0.29431704731E+02  0.30000000000E+02  0.47000000000E+01 0.  1.
</event>
<event>
 4    1  0.7503339E-002  0.6000000E+02  0.7546771E-02  0.1259629E+00
         11   -1    0    0    0    0  0.00000000000E+00  0.00000000000E+00  0.30000000000E+02  0.30000000000E+02  0.00000000000E+00 0.  1.
        -11   -1    0    0    0    0 -0.00000000000E+00 -0.00000000000E+00 -0.30000000000E+02  0.30000000000E+02  0.00000000000E+00 0. -1.
          5    1    1    2  501    0 -0.54854184880E+01  0.15736333516E+02 -0.24498734488E+02  0.30000000000E+02  0.47000000000E+01 0. -1.
         -5    1    1    2    0  501  0.54854184880E+01 -0.15736333516E+02  0.24498734488E+02  0.30000000000E+02  0.47000000000E+01 0.  1.
</event>
<event>
 4    1  0.7503339E-002  0.6000000E+02  0.7546771E-02  0.1259629E+00
         11   -1    0    0    0    0  0.00000000000E+00  0.00000000000E+00  0.30000000000E+02  0.30000000000E+02  0.00000000000E+00 0.  1.
        -11   -1    0    0    0    0 -0.00000000000E+00 -0.00000000000E+00 -0.30000000000E+02  0.30000000000E+02  0.00000000000E+00 0. -1.
          5    1    1    2  501    0  0.13435160509E+02  0.17246151649E+02  0.19999417877E+02  0.30000000000E+02  0.47000000000E+01 0.  1.
         -5    1    1    2    0  501 -0.13435160509E+02 -0.17246151649E+02 -0.19999417877E+02  0.30000000000E+02  0.47000000000E+01 0. -1.
</event>
<event>
 4    1  0.7503339E-002  0.6000000E+02  0.7546771E-02  0.1259629E+00
         11   -1    0    0    0    0  0.00000000000E+00  0.00000000000E+00  0.30000000000E+02  0.30000000000E+02  0.00000000000E+00 0.  1.
        -11   -1    0    0    0    0 -0.00000000000E+00 -0.00000000000E+00 -0.30000000000E+02  0.30000000000E+02  0.00000000000E+00 0. -1.
          5    1    1    2  501    0 -0.25039826744E+02  0.15085168854E+02  0.48326759942E+01  0.30000000000E+02  0.47000000000E+01 0. -1.
         -5    1    1    2    0  501  0.25039826744E+02 -0.15085168854E+02 -0.48326759942E+01  0.30000000000E+02  0.47000000000E+01 0.  1.
</event>
<event>
 4    1  0.7503339E-002  0.6000000E+02  0.7546771E-02  0.1259629E+00
         11   -1    0    0    0    0  0.00000000000E+00  0.00000000000E+00  0.30000000000E+02  0.30000000000E+02  0.00000000000E+00 0.  1.
        -11   -1    0    0    0    0 -0.00000000000E+00 -0.00000000000E+00 -0.30000000000E+02  0.30000000000E+02  0.00000000000E+00 0. -1.
          5    1    1    2  501    0 -0.96707474138E+01  0.18453644753E+02 -0.21067739314E+02  0.30000000000E+02  0.47000000000E+01 0. -1.
         -5    1    1    2    0  501  0.96707474138E+01 -0.18453644753E+02  0.21067739314E+02  0.30000000000E+02  0.47000000000E+01 0.  1.
</event>
<event>
 4    1  0.7503339E-002  0.6000000E+02  0.7546771E-02  0.1259629E+00
         11   -1    0    0    0    0  0.00000000000E+00  0.00000000000E+00  0.30000000000E+02  0.30000000000E+02  0.00000000000E+00 0.  1.
        -11   -1    0    0    0    0 -0.00000000000E+00 -0.00000000000E+00 -0.30000000000E+02  0.30000000000E+02  0.00000000000E+00 0. -1.
          5    1    1    2  501    0 -0.92295250274E+01  0.11279391650E+02  0.25797309778E+02  0.30000000000E+02  0.47000000000E+01 0.  1.
         -5    1    1    2    0  501  0.92295250274E+01 -0.11279391650E+02 -0.25797309778E+02  0.30000000000E+02  0.47000000000E+01 0. -1.
</event>
<event>
 4    1  0.7503339E-002  0.6000000E+02  0.7546771E-02  0.1259629E+00
         11   -1    0    0    0    0  0.00000000000E+00  0.00000000000E+00  0.30000000000E+02  0.30000000000E+02  0.00000000000E+00 0.  1.
        -11   -1    0    0    0    0 -0.00000000000E+00 -0.00000000000E+00 -0.30000000000E+02  0.30000000000E+02  0.00000000000E+00 0. -1.
          5    1    1    2  501    0  0.77778440956E+01  0.17707283235E+02 -0.22446987808E+02  0.30000000000E+02  0.47000000000E+01 0. -1.
         -5    1    1    2    0  501 -0.77778440956E+01 -0.17707283235E+02  0.22446987808E+02  0.30000000000E+02  0.47000000000E+01 0.  1.
</event>
<event>
 4    1  0.7503339E-002  0.6000000E+02  0.7546771E-02  0.1259629E+00
         11   -1    0    0    0    0  0.00000000000E+00  0.00000000000E+00  0.30000000000E+02  0.30000000000E+02  0.00000000000E+00 0. -1.
        -11   -1    0    0    0    0 -0.00000000000E+00 -0.00000000000E+00 -0.30000000000E+02  0.30000000000E+02  0.00000000000E+00 0.  1.
          5    1    1    2  501    0  0.10123589453E+02  0.23448434272E+02  0.15019782514E+02  0.30000000000E+02  0.47000000000E+01 0.  1.
         -5    1    1    2    0  501 -0.10123589453E+02 -0.23448434272E+02 -0.15019782514E+02  0.30000000000E+02  0.47000000000E+01 0. -1.
</event>
<event>
 4    1  0.7503339E-002  0.6000000E+02  0.7546771E-02  0.1259629E+00
         11   -1    0    0    0    0  0.00000000000E+00  0.00000000000E+00  0.30000000000E+02  0.30000000000E+02  0.00000000000E+00 0.  1.
        -11   -1    0    0    0    0 -0.00000000000E+00 -0.00000000000E+00 -0.30000000000E+02  0.30000000000E+02  0.00000000000E+00 0. -1.
          5    1    1    2  501    0 -0.24470837137E+02  0.16184747361E+02  0.41402998330E+01  0.30000000000E+02  0.47000000000E+01 0.  1.
         -5    1    1    2    0  501  0.24470837137E+02 -0.16184747361E+02 -0.41402998330E+01  0.30000000000E+02  0.47000000000E+01 0. -1.
</event>
<event>
 4    1  0.7503339E-002  0.6000000E+02  0.7546771E-02  0.1259629E+00
         11   -1    0    0    0    0  0.00000000000E+00  0.00000000000E+00  0.30000000000E+02  0.30000000000E+02  0.00000000000E+00 0.  1.
        -11   -1    0    0    0    0 -0.00000000000E+00 -0.00000000000E+00 -0.30000000000E+02  0.30000000000E+02  0.00000000000E+00 0. -1.
          5    1    1    2  501    0  0.28600493808E+02  0.67008609161E+01 -0.38755924587E+01  0.30000000000E+02  0.47000000000E+01 0. -1.
         -5    1    1    2    0  501 -0.28600493808E+02 -0.67008609161E+01  0.38755924587E+01  0.30000000000E+02  0.47000000000E+01 0.  1.
</event>
<event>
 4    1  0.7503339E-002  0.6000000E+02  0.7546771E-02  0.1259629E+00
         11   -1    0    0    0    0  0.00000000000E+00  0.00000000000E+00  0.30000000000E+02  0.30000000000E+02  0.00000000000E+00 0. -1.
        -11   -1    0    0    0    0 -0.00000000000E+00 -0.00000000000E+00 -0.30000000000E+02  0.30000000000E+02  0.00000000000E+00 0.  1.
          5    1    1    2  501    0  0.12733535392E+02  0.68139772180E+01 -0.25871544038E+02  0.30000000000E+02  0.47000000000E+01 0.  1.
         -5    1    1    2    0  501 -0.12733535392E+02 -0.68139772180E+01  0.25871544038E+02  0.30000000000E+02  0.47000000000E+01 0. -1.
</event>
<event>
 4    1  0.7503339E-002  0.6000000E+02  0.7546771E-02  0.1259629E+00
         11   -1    0    0    0    0  0.00000000000E+00  0.00000000000E+00  0.30000000000E+02  0.30000000000E+02  0.00000000000E+00 0.  1.
        -11   -1    0    0    0    0 -0.00000000000E+00 -0.00000000000E+00 -0.30000000000E+02  0.30000000000E+02  0.00000000000E+00 0. -1.
          5    1    1    2  501    0 -0.49414772194E+01 -0.28516119438E+02 -0.63500185102E+01  0.30000000000E+02  0.47000000000E+01 0. -1.
         -5    1    1    2    0  501  0.49414772194E+01  0.28516119438E+02  0.63500185102E+01  0.30000000000E+02  0.47000000000E+01 0.  1.
</event>
<event>
 4    1  0.7503339E-002  0.6000000E+02  0.7546771E-02  0.1259629E+00
         11   -1    0    0    0    0  0.00000000000E+00  0.00000000000E+00  0.30000000000E+02  0.30000000000E+02  0.00000000000E+00 0.  1.
        -11   -1    0    0    0    0 -0.00000000000E+00 -0.00000000000E+00 -0.30000000000E+02  0.30000000000E+02  0.00000000000E+00 0. -1.
          5    1    1    2  501    0 -0.17482596081E+02 -0.90733290591E+01 -0.22134668149E+02  0.30000000000E+02  0.47000000000E+01 0. -1.
         -5    1    1    2    0  501  0.17482596081E+02  0.90733290591E+01  0.22134668149E+02  0.30000000000E+02  0.47000000000E+01 0.  1.
</event>
<event>
 4    1  0.7503339E-002  0.6000000E+02  0.7546771E-02  0.1259629E+00
         11   -1    0    0    0    0  0.00000000000E+00  0.00000000000E+00  0.30000000000E+02  0.30000000000E+02  0.00000000000E+00 0.  1.
        -11   -1    0    0    0    0 -0.00000000000E+00 -0.00000000000E+00 -0.30000000000E+02  0.30000000000E+02  0.00000000000E+00 0. -1.
          5    1    1    2  501    0 -0.82711023443E+01 -0.10494004802E+02 -0.26445693964E+02  0.30000000000E+02  0.47000000000E+01 0. -1.
         -5    1    1    2    0  501  0.82711023443E+01  0.10494004802E+02  0.26445693964E+02  0.30000000000E+02  0.47000000000E+01 0.  1.
</event>
<event>
 4    1  0.7503339E-002  0.6000000E+02  0.7546771E-02  0.1259629E+00
         11   -1    0    0    0    0  0.00000000000E+00  0.00000000000E+00  0.30000000000E+02  0.30000000000E+02  0.00000000000E+00 0.  1.
        -11   -1    0    0    0    0 -0.00000000000E+00 -0.00000000000E+00 -0.30000000000E+02  0.30000000000E+02  0.00000000000E+00 0. -1.
          5    1    1    2  501    0 -0.19859169616E+02  0.21891486312E+02  0.20703162112E+01  0.30000000000E+02  0.47000000000E+01 0. -1.
         -5    1    1    2    0  501  0.19859169616E+02 -0.21891486312E+02 -0.20703162112E+01  0.30000000000E+02  0.47000000000E+01 0.  1.
</event>
<event>
 4    1  0.7503339E-002  0.6000000E+02  0.7546771E-02  0.1259629E+00
         11   -1    0    0    0    0  0.00000000000E+00  0.00000000000E+00  0.30000000000E+02  0.30000000000E+02  0.00000000000E+00 0.  1.
        -11   -1    0    0    0    0 -0.00000000000E+00 -0.00000000000E+00 -0.30000000000E+02  0.30000000000E+02  0.00000000000E+00 0. -1.
          5    1    1    2  501    0 -0.28607206588E+02  0.28340936214E+01 -0.71767433132E+01  0.30000000000E+02  0.47000000000E+01 0. -1.
         -5    1    1    2    0  501  0.28607206588E+02 -0.28340936214E+01  0.71767433132E+01  0.30000000000E+02  0.47000000000E+01 0.  1.
</event>
<event>
 4    1  0.7503339E-002  0.6000000E+02  0.7546771E-02  0.1259629E+00
         11   -1    0    0    0    0  0.00000000000E+00  0.00000000000E+00  0.30000000000E+02  0.30000000000E+02  0.00000000000E+00 0. -1.
        -11   -1    0    0    0    0 -0.00000000000E+00 -0.00000000000E+00 -0.30000000000E+02  0.30000000000E+02  0.00000000000E+00 0.  1.
          5    1    1    2  501    0  0.19819244575E+01 -0.10760573480E+02  0.27535287066E+02  0.30000000000E+02  0.47000000000E+01 0. -1.
         -5    1    1    2    0  501 -0.19819244575E+01  0.10760573480E+02 -0.27535287066E+02  0.30000000000E+02  0.47000000000E+01 0.  1.
</event>
<event>
 4    1  0.7503339E-002  0.6000000E+02  0.7546771E-02  0.1259629E+00
         11   -1    0    0    0    0  0.00000000000E+00  0.00000000000E+00  0.30000000000E+02  0.30000000000E+02  0.00000000000E+00 0.  1.
        -11   -1    0    0    0    0 -0.00000000000E+00 -0.00000000000E+00 -0.30000000000E+02  0.30000000000E+02  0.00000000000E+00 0. -1.
          5    1    1    2  501    0 -0.16742016676E+02  0.13008913971E+02 -0.20697416141E+02  0.30000000000E+02  0.47000000000E+01 0. -1.
         -5    1    1    2    0  501  0.16742016676E+02 -0.13008913971E+02  0.20697416141E+02  0.30000000000E+02  0.47000000000E+01 0.  1.
</event>
<event>
 4    1  0.7503339E-002  0.6000000E+02  0.7546771E-02  0.1259629E+00
         11   -1    0    0    0    0  0.00000000000E+00  0.00000000000E+00  0.30000000000E+02  0.30000000000E+02  0.00000000000E+00 0.  1.
        -11   -1    0    0    0    0 -0.00000000000E+00 -0.00000000000E+00 -0.30000000000E+02  0.30000000000E+02  0.00000000000E+00 0. -1.
          5    1    1    2  501    0  0.16502600345E+02 -0.69670401158E+01 -0.23601579055E+02  0.30000000000E+02  0.47000000000E+01 0. -1.
         -5    1    1    2    0  501 -0.16502600345E+02  0.69670401158E+01  0.23601579055E+02  0.30000000000E+02  0.47000000000E+01 0.  1.
</event>
<event>
 4    1  0.7503339E-002  0.6000000E+02  0.7546771E-02  0.1259629E+00
         11   -1    0    0    0    0  0.00000000000E+00  0.00000000000E+00  0.30000000000E+02  0.30000000000E+02  0.00000000000E+00 0.  1.
        -11   -1    0    0    0    0 -0.00000000000E+00 -0.00000000000E+00 -0.30000000000E+02  0.30000000000E+02  0.00000000000E+00 0. -1.
          5    1    1    2  501    0  0.28449283018E+02 -0.70952320962E+01 -0.42668462884E+01  0.30000000000E+02  0.47000000000E+01 0. -1.
         -5    1    1    2    0  501 -0.28449283018E+02  0.70952320962E+01  0.42668462884E+01  0.30000000000E+02  0.47000000000E+01 0.  1.
</event>
<event>
 4    1  0.7503339E-002  0.6000000E+02  0.7546771E-02  0.1259629E+00
         11   -1    0    0    0    0  0.00000000000E+00  0.00000000000E+00  0.30000000000E+02  0.30000000000E+02  0.00000000000E+00 0.  1.
        -11   -1    0    0    0    0 -0.00000000000E+00 -0.00000000000E+00 -0.30000000000E+02  0.30000000000E+02  0.00000000000E+00 0. -1.
          5    1    1    2  501    0  0.24760583469E+02  0.15743722384E+02 -0.41180956496E+01  0.30000000000E+02  0.47000000000E+01 0. -1.
         -5    1    1    2    0  501 -0.24760583469E+02 -0.15743722384E+02  0.41180956496E+01  0.30000000000E+02  0.47000000000E+01 0. -1.
</event>
<event>
 4    1  0.7503339E-002  0.6000000E+02  0.7546771E-02  0.1259629E+00
         11   -1    0    0    0    0  0.00000000000E+00  0.00000000000E+00  0.30000000000E+02  0.30000000000E+02  0.00000000000E+00 0. -1.
        -11   -1    0    0    0    0 -0.00000000000E+00 -0.00000000000E+00 -0.30000000000E+02  0.30000000000E+02  0.00000000000E+00 0.  1.
          5    1    1    2  501    0 -0.14381789583E+02 -0.25159438359E+02 -0.61706393365E+01  0.30000000000E+02  0.47000000000E+01 0.  1.
         -5    1    1    2    0  501  0.14381789583E+02  0.25159438359E+02  0.61706393365E+01  0.30000000000E+02  0.47000000000E+01 0. -1.
</event>
<event>
 4    1  0.7503339E-002  0.6000000E+02  0.7546771E-02  0.1259629E+00
         11   -1    0    0    0    0  0.00000000000E+00  0.00000000000E+00  0.30000000000E+02  0.30000000000E+02  0.00000000000E+00 0. -1.
        -11   -1    0    0    0    0 -0.00000000000E+00 -0.00000000000E+00 -0.30000000000E+02  0.30000000000E+02  0.00000000000E+00 0.  1.
          5    1    1    2  501    0  0.30567878622E+01 -0.10922529116E+02 -0.27372694527E+02  0.30000000000E+02  0.47000000000E+01 0.  1.
         -5    1    1    2    0  501 -0.30567878622E+01  0.10922529116E+02  0.27372694527E+02  0.30000000000E+02  0.47000000000E+01 0. -1.
</event>
<event>
 4    1  0.7503339E-002  0.6000000E+02  0.7546771E-02  0.1259629E+00
         11   -1    0    0    0    0  0.00000000000E+00  0.00000000000E+00  0.30000000000E+02  0.30000000000E+02  0.00000000000E+00 0.  1.
        -11   -1    0    0    0    0 -0.00000000000E+00 -0.00000000000E+00 -0.30000000000E+02  0.30000000000E+02  0.00000000000E+00 0. -1.
          5    1    1    2  501    0  0.24007544866E+01 -0.15300836426E+02 -0.25259271220E+02  0.30000000000E+02  0.47000000000E+01 0. -1.
         -5    1    1    2    0  501 -0.24007544866E+01  0.15300836426E+02  0.25259271220E+02  0.30000000000E+02  0.47000000000E+01 0.  1.
</event>
<event>
 4    1  0.7503339E-002  0.6000000E+02  0.7546771E-02  0.1259629E+00
         11   -1    0    0    0    0  0.00000000000E+00  0.00000000000E+00  0.30000000000E+02  0.30000000000E+02  0.00000000000E+00 0. -1.
        -11   -1    0    0    0    0 -0.00000000000E+00 -0.00000000000E+00 -0.30000000000E+02  0.30000000000E+02  0.00000000000E+00 0.  1.
          5    1    1    2  501    0  0.18629685459E+01  0.15430256801E+01 -0.29530635278E+02  0.30000000000E+02  0.47000000000E+01 0.  1.
         -5    1    1    2    0  501 -0.18629685459E+01 -0.15430256801E+01  0.29530635278E+02  0.30000000000E+02  0.47000000000E+01 0. -1.
</event>
<event>
 4    1  0.7503339E-002  0.6000000E+02  0.7546771E-02  0.1259629E+00
         11   -1    0    0    0    0  0.00000000000E+00  0.00000000000E+00  0.30000000000E+02  0.30000000000E+02  0.00000000000E+00 0.  1.
        -11   -1    0    0    0    0 -0.00000000000E+00 -0.00000000000E+00 -0.30000000000E+02  0.30000000000E+02  0.00000000000E+00 0. -1.
          5    1    1    2  501    0 -0.20804507028E+02 -0.10816522712E+02 -0.18113125731E+02  0.30000000000E+02  0.47000000000E+01 0.  1.
         -5    1    1    2    0  501  0.20804507028E+02  0.10816522712E+02  0.18113125731E+02  0.30000000000E+02  0.47000000000E+01 0. -1.
</event>
<event>
 4    1  0.7503339E-002  0.6000000E+02  0.7546771E-02  0.1259629E+00
         11   -1    0    0    0    0  0.00000000000E+00  0.00000000000E+00  0.30000000000E+02  0.30000000000E+02  0.00000000000E+00 0. -1.
        -11   -1    0    0    0    0 -0.00000000000E+00 -0.00000000000E+00 -0.30000000000E+02  0.30000000000E+02  0.00000000000E+00 0.  1.
          5    1    1    2  501    0  0.10710958884E+02 -0.11240607305E+02 -0.25235572258E+02  0.30000000000E+02  0.47000000000E+01 0.  1.
         -5    1    1    2    0  501 -0.10710958884E+02  0.11240607305E+02  0.25235572258E+02  0.30000000000E+02  0.47000000000E+01 0. -1.
</event>
<event>
 4    1  0.7503339E-002  0.6000000E+02  0.7546771E-02  0.1259629E+00
         11   -1    0    0    0    0  0.00000000000E+00  0.00000000000E+00  0.30000000000E+02  0.30000000000E+02  0.00000000000E+00 0.  1.
        -11   -1    0    0    0    0 -0.00000000000E+00 -0.00000000000E+00 -0.30000000000E+02  0.30000000000E+02  0.00000000000E+00 0. -1.
          5    1    1    2  501    0  0.20662546025E+02 -0.84481393638E+01 -0.19483278294E+02  0.30000000000E+02  0.47000000000E+01 0. -1.
         -5    1    1    2    0  501 -0.20662546025E+02  0.84481393638E+01  0.19483278294E+02  0.30000000000E+02  0.47000000000E+01 0.  1.
</event>
<event>
 4    1  0.7503339E-002  0.6000000E+02  0.7546771E-02  0.1259629E+00
         11   -1    0    0    0    0  0.00000000000E+00  0.00000000000E+00  0.30000000000E+02  0.30000000000E+02  0.00000000000E+00 0. -1.
        -11   -1    0    0    0    0 -0.00000000000E+00 -0.00000000000E+00 -0.30000000000E+02  0.30000000000E+02  0.00000000000E+00 0.  1.
          5    1    1    2  501    0  0.36460530530E+00 -0.14529988686E+02 -0.25819691938E+02  0.30000000000E+02  0.47000000000E+01 0.  1.
         -5    1    1    2    0  501 -0.36460530530E+00  0.14529988686E+02  0.25819691938E+02  0.30000000000E+02  0.47000000000E+01 0. -1.
</event>
<event>
 4    1  0.7503339E-002  0.6000000E+02  0.7546771E-02  0.1259629E+00
         11   -1    0    0    0    0  0.00000000000E+00  0.00000000000E+00  0.30000000000E+02  0.30000000000E+02  0.00000000000E+00 0.  1.
        -11   -1    0    0    0    0 -0.00000000000E+00 -0.00000000000E+00 -0.30000000000E+02  0.30000000000E+02  0.00000000000E+00 0. -1.
          5    1    1    2  501    0  0.20008919836E+02 -0.20531804039E+02  0.74831911563E+01  0.30000000000E+02  0.47000000000E+01 0.  1.
         -5    1    1    2    0  501 -0.20008919836E+02  0.20531804039E+02 -0.74831911563E+01  0.30000000000E+02  0.47000000000E+01 0. -1.
</event>
<event>
 4    1  0.7503339E-002  0.6000000E+02  0.7546771E-02  0.1259629E+00
         11   -1    0    0    0    0  0.00000000000E+00  0.00000000000E+00  0.30000000000E+02  0.30000000000E+02  0.00000000000E+00 0.  1.
        -11   -1    0    0    0    0 -0.00000000000E+00 -0.00000000000E+00 -0.30000000000E+02  0.30000000000E+02  0.00000000000E+00 0. -1.
          5    1    1    2  501    0 -0.42810046132E+01 -0.14638921969E+02 -0.25402459784E+02  0.30000000000E+02  0.47000000000E+01 0. -1.
         -5    1    1    2    0  501  0.42810046132E+01  0.14638921969E+02  0.25402459784E+02  0.30000000000E+02  0.47000000000E+01 0.  1.
</event>
<event>
 4    1  0.7503339E-002  0.6000000E+02  0.7546771E-02  0.1259629E+00
         11   -1    0    0    0    0  0.00000000000E+00  0.00000000000E+00  0.30000000000E+02  0.30000000000E+02  0.00000000000E+00 0.  1.
        -11   -1    0    0    0    0 -0.00000000000E+00 -0.00000000000E+00 -0.30000000000E+02  0.30000000000E+02  0.00000000000E+00 0. -1.
          5    1    1    2  501    0 -0.18785786299E+02  0.22850408819E+02  0.16920549391E+01  0.30000000000E+02  0.47000000000E+01 0. -1.
         -5    1    1    2    0  501  0.18785786299E+02 -0.22850408819E+02 -0.16920549391E+01  0.30000000000E+02  0.47000000000E+01 0.  1.
</event>
<event>
 4    1  0.7503339E-002  0.6000000E+02  0.7546771E-02  0.1259629E+00
         11   -1    0    0    0    0  0.00000000000E+00  0.00000000000E+00  0.30000000000E+02  0.30000000000E+02  0.00000000000E+00 0.  1.
        -11   -1    0    0    0    0 -0.00000000000E+00 -0.00000000000E+00 -0.30000000000E+02  0.30000000000E+02  0.00000000000E+00 0. -1.
          5    1    1    2  501    0 -0.14842129718E+02  0.65176043090E+01 -0.24802056759E+02  0.30000000000E+02  0.47000000000E+01 0. -1.
         -5    1    1    2    0  501  0.14842129718E+02 -0.65176043090E+01  0.24802056759E+02  0.30000000000E+02  0.47000000000E+01 0.  1.
</event>
<event>
 4    1  0.7503339E-002  0.6000000E+02  0.7546771E-02  0.1259629E+00
         11   -1    0    0    0    0  0.00000000000E+00  0.00000000000E+00  0.30000000000E+02  0.30000000000E+02  0.00000000000E+00 0. -1.
        -11   -1    0    0    0    0 -0.00000000000E+00 -0.00000000000E+00 -0.30000000000E+02  0.30000000000E+02  0.00000000000E+00 0.  1.
          5    1    1    2  501    0 -0.15439226715E+02 -0.22807466424E+02  0.10925188957E+02  0.30000000000E+02  0.47000000000E+01 0.  1.
         -5    1    1    2    0  501  0.15439226715E+02  0.22807466424E+02 -0.10925188957E+02  0.30000000000E+02  0.47000000000E+01 0. -1.
</event>
<event>
 4    1  0.7503339E-002  0.6000000E+02  0.7546771E-02  0.1259629E+00
         11   -1    0    0    0    0  0.00000000000E+00  0.00000000000E+00  0.30000000000E+02  0.30000000000E+02  0.00000000000E+00 0.  1.
        -11   -1    0    0    0    0 -0.00000000000E+00 -0.00000000000E+00 -0.30000000000E+02  0.30000000000E+02  0.00000000000E+00 0. -1.
          5    1    1    2  501    0 -0.20974644807E+02 -0.10213828395E+02 -0.18266143127E+02  0.30000000000E+02  0.47000000000E+01 0. -1.
         -5    1    1    2    0  501  0.20974644807E+02  0.10213828395E+02  0.18266143127E+02  0.30000000000E+02  0.47000000000E+01 0.  1.
</event>
<event>
 4    1  0.7503339E-002  0.6000000E+02  0.7546771E-02  0.1259629E+00
         11   -1    0    0    0    0  0.00000000000E+00  0.00000000000E+00  0.30000000000E+02  0.30000000000E+02  0.00000000000E+00 0. -1.
        -11   -1    0    0    0    0 -0.00000000000E+00 -0.00000000000E+00 -0.30000000000E+02  0.30000000000E+02  0.00000000000E+00 0.  1.
          5    1    1    2  501    0 -0.18294207235E+02 -0.29406607568E+01 -0.23121083365E+02  0.30000000000E+02  0.47000000000E+01 0.  1.
         -5    1    1    2    0  501  0.18294207235E+02  0.29406607568E+01  0.23121083365E+02  0.30000000000E+02  0.47000000000E+01 0. -1.
</event>
<event>
 4    1  0.7503339E-002  0.6000000E+02  0.7546771E-02  0.1259629E+00
         11   -1    0    0    0    0  0.00000000000E+00  0.00000000000E+00  0.30000000000E+02  0.30000000000E+02  0.00000000000E+00 0. -1.
        -11   -1    0    0    0    0 -0.00000000000E+00 -0.00000000000E+00 -0.30000000000E+02  0.30000000000E+02  0.00000000000E+00 0.  1.
          5    1    1    2  501    0 -0.33415769210E+01 -0.12728124499E+02 -0.26546915271E+02  0.30000000000E+02  0.47000000000E+01 0.  1.
         -5    1    1    2    0  501  0.33415769210E+01  0.12728124499E+02  0.26546915271E+02  0.30000000000E+02  0.47000000000E+01 0. -1.
</event>
<event>
 4    1  0.7503339E-002  0.6000000E+02  0.7546771E-02  0.1259629E+00
         11   -1    0    0    0    0  0.00000000000E+00  0.00000000000E+00  0.30000000000E+02  0.30000000000E+02  0.00000000000E+00 0.  1.
        -11   -1    0    0    0    0 -0.00000000000E+00 -0.00000000000E+00 -0.30000000000E+02  0.30000000000E+02  0.00000000000E+00 0. -1.
          5    1    1    2  501    0  0.95488118007E+01  0.11703244314E+02 -0.25490474019E+02  0.30000000000E+02  0.47000000000E+01 0. -1.
         -5    1    1    2    0  501 -0.95488118007E+01 -0.11703244314E+02  0.25490474019E+02  0.30000000000E+02  0.47000000000E+01 0.  1.
</event>
<event>
 4    1  0.7503339E-002  0.6000000E+02  0.7546771E-02  0.1259629E+00
         11   -1    0    0    0    0  0.00000000000E+00  0.00000000000E+00  0.30000000000E+02  0.30000000000E+02  0.00000000000E+00 0. -1.
        -11   -1    0    0    0    0 -0.00000000000E+00 -0.00000000000E+00 -0.30000000000E+02  0.30000000000E+02  0.00000000000E+00 0.  1.
          5    1    1    2  501    0 -0.63770344968E+01 -0.28458210034E+02  0.52319893611E+01  0.30000000000E+02  0.47000000000E+01 0.  1.
         -5    1    1    2    0  501  0.63770344968E+01  0.28458210034E+02 -0.52319893611E+01  0.30000000000E+02  0.47000000000E+01 0. -1.
</event>
<event>
 4    1  0.7503339E-002  0.6000000E+02  0.7546771E-02  0.1259629E+00
         11   -1    0    0    0    0  0.00000000000E+00  0.00000000000E+00  0.30000000000E+02  0.30000000000E+02  0.00000000000E+00 0. -1.
        -11   -1    0    0    0    0 -0.00000000000E+00 -0.00000000000E+00 -0.30000000000E+02  0.30000000000E+02  0.00000000000E+00 0.  1.
          5    1    1    2  501    0 -0.10764689110E-01  0.27105513011E+02 -0.11966664052E+02  0.30000000000E+02  0.47000000000E+01 0.  1.
         -5    1    1    2    0  501  0.10764689110E-01 -0.27105513011E+02  0.11966664052E+02  0.30000000000E+02  0.47000000000E+01 0. -1.
</event>
<event>
 4    1  0.7503339E-002  0.6000000E+02  0.7546771E-02  0.1259629E+00
         11   -1    0    0    0    0  0.00000000000E+00  0.00000000000E+00  0.30000000000E+02  0.30000000000E+02  0.00000000000E+00 0.  1.
        -11   -1    0    0    0    0 -0.00000000000E+00 -0.00000000000E+00 -0.30000000000E+02  0.30000000000E+02  0.00000000000E+00 0. -1.
          5    1    1    2  501    0  0.14349673499E+02  0.23931782516E+02  0.99632653327E+01  0.30000000000E+02  0.47000000000E+01 0. -1.
         -5    1    1    2    0  501 -0.14349673499E+02 -0.23931782516E+02 -0.99632653327E+01  0.30000000000E+02  0.47000000000E+01 0.  1.
</event>
<event>
 4    1  0.7503339E-002  0.6000000E+02  0.7546771E-02  0.1259629E+00
         11   -1    0    0    0    0  0.00000000000E+00  0.00000000000E+00  0.30000000000E+02  0.30000000000E+02  0.00000000000E+00 0.  1.
        -11   -1    0    0    0    0 -0.00000000000E+00 -0.00000000000E+00 -0.30000000000E+02  0.30000000000E+02  0.00000000000E+00 0. -1.
          5    1    1    2  501    0  0.19113933060E+02 -0.19180641725E+02  0.12027906967E+02  0.30000000000E+02  0.47000000000E+01 0. -1.
         -5    1    1    2    0  501 -0.19113933060E+02  0.19180641725E+02 -0.12027906967E+02  0.30000000000E+02  0.47000000000E+01 0.  1.
</event>
<event>
 4    1  0.7503339E-002  0.6000000E+02  0.7546771E-02  0.1259629E+00
         11   -1    0    0    0    0  0.00000000000E+00  0.00000000000E+00  0.30000000000E+02  0.30000000000E+02  0.00000000000E+00 0.  1.
        -11   -1    0    0    0    0 -0.00000000000E+00 -0.00000000000E+00 -0.30000000000E+02  0.30000000000E+02  0.00000000000E+00 0. -1.
          5    1    1    2  501    0 -0.16363441812E+02 -0.24061495624E+02 -0.55849977986E+01  0.30000000000E+02  0.47000000000E+01 0. -1.
         -5    1    1    2    0  501  0.16363441812E+02  0.24061495624E+02  0.55849977986E+01  0.30000000000E+02  0.47000000000E+01 0.  1.
</event>
<event>
 4    1  0.7503339E-002  0.6000000E+02  0.7546771E-02  0.1259629E+00
         11   -1    0    0    0    0  0.00000000000E+00  0.00000000000E+00  0.30000000000E+02  0.30000000000E+02  0.00000000000E+00 0.  1.
        -11   -1    0    0    0    0 -0.00000000000E+00 -0.00000000000E+00 -0.30000000000E+02  0.30000000000E+02  0.00000000000E+00 0. -1.
          5    1    1    2  501    0  0.25171423122E+02  0.11816975162E+02 -0.10230765173E+02  0.30000000000E+02  0.47000000000E+01 0. -1.
         -5    1    1    2    0  501 -0.25171423122E+02 -0.11816975162E+02  0.10230765173E+02  0.30000000000E+02  0.47000000000E+01 0.  1.
</event>
<event>
 4    1  0.7503339E-002  0.6000000E+02  0.7546771E-02  0.1259629E+00
         11   -1    0    0    0    0  0.00000000000E+00  0.00000000000E+00  0.30000000000E+02  0.30000000000E+02  0.00000000000E+00 0.  1.
        -11   -1    0    0    0    0 -0.00000000000E+00 -0.00000000000E+00 -0.30000000000E+02  0.30000000000E+02  0.00000000000E+00 0. -1.
          5    1    1    2  501    0  0.10582238933E+02  0.87789646872E+01 -0.26246066337E+02  0.30000000000E+02  0.47000000000E+01 0. -1.
         -5    1    1    2    0  501 -0.10582238933E+02 -0.87789646872E+01  0.26246066337E+02  0.30000000000E+02  0.47000000000E+01 0.  1.
</event>
<event>
 4    1  0.7503339E-002  0.6000000E+02  0.7546771E-02  0.1259629E+00
         11   -1    0    0    0    0  0.00000000000E+00  0.00000000000E+00  0.30000000000E+02  0.30000000000E+02  0.00000000000E+00 0.  1.
        -11   -1    0    0    0    0 -0.00000000000E+00 -0.00000000000E+00 -0.30000000000E+02  0.30000000000E+02  0.00000000000E+00 0. -1.
          5    1    1    2  501    0 -0.15020187561E+02  0.14342371793E+02 -0.21132920692E+02  0.30000000000E+02  0.47000000000E+01 0. -1.
         -5    1    1    2    0  501  0.15020187561E+02 -0.14342371793E+02  0.21132920692E+02  0.30000000000E+02  0.47000000000E+01 0.  1.
</event>
<event>
 4    1  0.7503339E-002  0.6000000E+02  0.7546771E-02  0.1259629E+00
         11   -1    0    0    0    0  0.00000000000E+00  0.00000000000E+00  0.30000000000E+02  0.30000000000E+02  0.00000000000E+00 0. -1.
        -11   -1    0    0    0    0 -0.00000000000E+00 -0.00000000000E+00 -0.30000000000E+02  0.30000000000E+02  0.00000000000E+00 0.  1.
          5    1    1    2  501    0  0.56508000766E+01 -0.38904391225E+01 -0.28824346340E+02  0.30000000000E+02  0.47000000000E+01 0.  1.
         -5    1    1    2    0  501 -0.56508000766E+01  0.38904391225E+01  0.28824346340E+02  0.30000000000E+02  0.47000000000E+01 0. -1.
</event>
<event>
 4    1  0.7503339E-002  0.6000000E+02  0.7546771E-02  0.1259629E+00
         11   -1    0    0    0    0  0.00000000000E+00  0.00000000000E+00  0.30000000000E+02  0.30000000000E+02  0.00000000000E+00 0.  1.
        -11   -1    0    0    0    0 -0.00000000000E+00 -0.00000000000E+00 -0.30000000000E+02  0.30000000000E+02  0.00000000000E+00 0. -1.
          5    1    1    2  501    0  0.19591522331E+02  0.14984764510E+02 -0.16417645548E+02  0.30000000000E+02  0.47000000000E+01 0. -1.
         -5    1    1    2    0  501 -0.19591522331E+02 -0.14984764510E+02  0.16417645548E+02  0.30000000000E+02  0.47000000000E+01 0.  1.
</event>
<event>
 4    1  0.7503339E-002  0.6000000E+02  0.7546771E-02  0.1259629E+00
         11   -1    0    0    0    0  0.00000000000E+00  0.00000000000E+00  0.30000000000E+02  0.30000000000E+02  0.00000000000E+00 0.  1.
        -11   -1    0    0    0    0 -0.00000000000E+00 -0.00000000000E+00 -0.30000000000E+02  0.30000000000E+02  0.00000000000E+00 0. -1.
          5    1    1    2  501    0  0.50430292710E+01  0.20933038609E+02 -0.20354010670E+02  0.30000000000E+02  0.47000000000E+01 0. -1.
         -5    1    1    2    0  501 -0.50430292710E+01 -0.20933038609E+02  0.20354010670E+02  0.30000000000E+02  0.47000000000E+01 0.  1.
</event>
<event>
 4    1  0.7503339E-002  0.6000000E+02  0.7546771E-02  0.1259629E+00
         11   -1    0    0    0    0  0.00000000000E+00  0.00000000000E+00  0.30000000000E+02  0.30000000000E+02  0.00000000000E+00 0.  1.
        -11   -1    0    0    0    0 -0.00000000000E+00 -0.00000000000E+00 -0.30000000000E+02  0.30000000000E+02  0.00000000000E+00 0. -1.
          5    1    1    2  501    0  0.22235358487E+02 -0.23597779409E+01 -0.19440429034E+02  0.30000000000E+02  0.47000000000E+01 0. -1.
         -5    1    1    2    0  501 -0.22235358487E+02  0.23597779409E+01  0.19440429034E+02  0.30000000000E+02  0.47000000000E+01 0.  1.
</event>
<event>
 4    1  0.7503339E-002  0.6000000E+02  0.7546771E-02  0.1259629E+00
         11   -1    0    0    0    0  0.00000000000E+00  0.00000000000E+00  0.30000000000E+02  0.30000000000E+02  0.00000000000E+00 0.  1.
        -11   -1    0    0    0    0 -0.00000000000E+00 -0.00000000000E+00 -0.30000000000E+02  0.30000000000E+02  0.00000000000E+00 0. -1.
          5    1    1    2  501    0 -0.25675877536E+02 -0.97049145181E+01 -0.11156789277E+02  0.30000000000E+02  0.47000000000E+01 0. -1.
         -5    1    1    2    0  501  0.25675877536E+02  0.97049145181E+01  0.11156789277E+02  0.30000000000E+02  0.47000000000E+01 0.  1.
</event>
<event>
 4    1  0.7503339E-002  0.6000000E+02  0.7546771E-02  0.1259629E+00
         11   -1    0    0    0    0  0.00000000000E+00  0.00000000000E+00  0.30000000000E+02  0.30000000000E+02  0.00000000000E+00 0.  1.
        -11   -1    0    0    0    0 -0.00000000000E+00 -0.00000000000E+00 -0.30000000000E+02  0.30000000000E+02  0.00000000000E+00 0. -1.
          5    1    1    2  501    0 -0.10645786174E+02 -0.25046411199E+02  0.11715567540E+02  0.30000000000E+02  0.47000000000E+01 0. -1.
         -5    1    1    2    0  501  0.10645786174E+02  0.25046411199E+02 -0.11715567540E+02  0.30000000000E+02  0.47000000000E+01 0.  1.
</event>
<event>
 4    1  0.7503339E-002  0.6000000E+02  0.7546771E-02  0.1259629E+00
         11   -1    0    0    0    0  0.00000000000E+00  0.00000000000E+00  0.30000000000E+02  0.30000000000E+02  0.00000000000E+00 0. -1.
        -11   -1    0    0    0    0 -0.00000000000E+00 -0.00000000000E+00 -0.30000000000E+02  0.30000000000E+02  0.00000000000E+00 0.  1.
          5    1    1    2  501    0 -0.18582875803E+02 -0.62743997672E+00 -0.23069309612E+02  0.30000000000E+02  0.47000000000E+01 0.  1.
         -5    1    1    2    0  501  0.18582875803E+02  0.62743997672E+00  0.23069309612E+02  0.30000000000E+02  0.47000000000E+01 0. -1.
</event>
<event>
 4    1  0.7503339E-002  0.6000000E+02  0.7546771E-02  0.1259629E+00
         11   -1    0    0    0    0  0.00000000000E+00  0.00000000000E+00  0.30000000000E+02  0.30000000000E+02  0.00000000000E+00 0.  1.
        -11   -1    0    0    0    0 -0.00000000000E+00 -0.00000000000E+00 -0.30000000000E+02  0.30000000000E+02  0.00000000000E+00 0. -1.
          5    1    1    2  501    0  0.22885251070E+02  0.15991387930E+02 -0.99222374261E+01  0.30000000000E+02  0.47000000000E+01 0. -1.
         -5    1    1    2    0  501 -0.22885251070E+02 -0.15991387930E+02  0.99222374261E+01  0.30000000000E+02  0.47000000000E+01 0.  1.
</event>
<event>
 4    1  0.7503339E-002  0.6000000E+02  0.7546771E-02  0.1259629E+00
         11   -1    0    0    0    0  0.00000000000E+00  0.00000000000E+00  0.30000000000E+02  0.30000000000E+02  0.00000000000E+00 0. -1.
        -11   -1    0    0    0    0 -0.00000000000E+00 -0.00000000000E+00 -0.30000000000E+02  0.30000000000E+02  0.00000000000E+00 0.  1.
          5    1    1    2  501    0 -0.47528610574E+01 -0.15838003682E+02  0.24586133310E+02  0.30000000000E+02  0.47000000000E+01 0. -1.
         -5    1    1    2    0  501  0.47528610574E+01  0.15838003682E+02 -0.24586133310E+02  0.30000000000E+02  0.47000000000E+01 0.  1.
</event>
<event>
 4    1  0.7503339E-002  0.6000000E+02  0.7546771E-02  0.1259629E+00
         11   -1    0    0    0    0  0.00000000000E+00  0.00000000000E+00  0.30000000000E+02  0.30000000000E+02  0.00000000000E+00 0.  1.
        -11   -1    0    0    0    0 -0.00000000000E+00 -0.00000000000E+00 -0.30000000000E+02  0.30000000000E+02  0.00000000000E+00 0. -1.
          5    1    1    2  501    0 -0.15569825027E+02 -0.24589116627E+02  0.55557080667E+01  0.30000000000E+02  0.47000000000E+01 0. -1.
         -5    1    1    2    0  501  0.15569825027E+02  0.24589116627E+02 -0.55557080667E+01  0.30000000000E+02  0.47000000000E+01 0.  1.
</event>
<event>
 4    1  0.7503339E-002  0.6000000E+02  0.7546771E-02  0.1259629E+00
         11   -1    0    0    0    0  0.00000000000E+00  0.00000000000E+00  0.30000000000E+02  0.30000000000E+02  0.00000000000E+00 0.  1.
        -11   -1    0    0    0    0 -0.00000000000E+00 -0.00000000000E+00 -0.30000000000E+02  0.30000000000E+02  0.00000000000E+00 0. -1.
          5    1    1    2  501    0  0.83074484819E+01 -0.30376914949E+01 -0.28278414561E+02  0.30000000000E+02  0.47000000000E+01 0. -1.
         -5    1    1    2    0  501 -0.83074484819E+01  0.30376914949E+01  0.28278414561E+02  0.30000000000E+02  0.47000000000E+01 0.  1.
</event>
<event>
 4    1  0.7503339E-002  0.6000000E+02  0.7546771E-02  0.1259629E+00
         11   -1    0    0    0    0  0.00000000000E+00  0.00000000000E+00  0.30000000000E+02  0.30000000000E+02  0.00000000000E+00 0.  1.
        -11   -1    0    0    0    0 -0.00000000000E+00 -0.00000000000E+00 -0.30000000000E+02  0.30000000000E+02  0.00000000000E+00 0. -1.
          5    1    1    2  501    0  0.22876055208E+02  0.14035322283E+02 -0.12554115920E+02  0.30000000000E+02  0.47000000000E+01 0. -1.
         -5    1    1    2    0  501 -0.22876055208E+02 -0.14035322283E+02  0.12554115920E+02  0.30000000000E+02  0.47000000000E+01 0.  1.
</event>
<event>
 4    1  0.7503339E-002  0.6000000E+02  0.7546771E-02  0.1259629E+00
         11   -1    0    0    0    0  0.00000000000E+00  0.00000000000E+00  0.30000000000E+02  0.30000000000E+02  0.00000000000E+00 0. -1.
        -11   -1    0    0    0    0 -0.00000000000E+00 -0.00000000000E+00 -0.30000000000E+02  0.30000000000E+02  0.00000000000E+00 0.  1.
          5    1    1    2  501    0 -0.11712855944E+02  0.21601038166E+02 -0.16556393200E+02  0.30000000000E+02  0.47000000000E+01 0.  1.
         -5    1    1    2    0  501  0.11712855944E+02 -0.21601038166E+02  0.16556393200E+02  0.30000000000E+02  0.47000000000E+01 0. -1.
</event>
<event>
 4    1  0.7503339E-002  0.6000000E+02  0.7546771E-02  0.1259629E+00
         11   -1    0    0    0    0  0.00000000000E+00  0.00000000000E+00  0.30000000000E+02  0.30000000000E+02  0.00000000000E+00 0.  1.
        -11   -1    0    0    0    0 -0.00000000000E+00 -0.00000000000E+00 -0.30000000000E+02  0.30000000000E+02  0.00000000000E+00 0. -1.
          5    1    1    2  501    0  0.23585047619E+02  0.65418747521E+01 -0.16699083914E+02  0.30000000000E+02  0.47000000000E+01 0. -1.
         -5    1    1    2    0  501 -0.23585047619E+02 -0.65418747521E+01  0.16699083914E+02  0.30000000000E+02  0.47000000000E+01 0.  1.
</event>
<event>
 4    1  0.7503339E-002  0.6000000E+02  0.7546771E-02  0.1259629E+00
         11   -1    0    0    0    0  0.00000000000E+00  0.00000000000E+00  0.30000000000E+02  0.30000000000E+02  0.00000000000E+00 0.  1.
        -11   -1    0    0    0    0 -0.00000000000E+00 -0.00000000000E+00 -0.30000000000E+02  0.30000000000E+02  0.00000000000E+00 0. -1.
          5    1    1    2  501    0  0.16035606937E+02 -0.22488559770E+02 -0.10725389952E+02  0.30000000000E+02  0.47000000000E+01 0. -1.
         -5    1    1    2    0  501 -0.16035606937E+02  0.22488559770E+02  0.10725389952E+02  0.30000000000E+02  0.47000000000E+01 0.  1.
</event>
<event>
 4    1  0.7503339E-002  0.6000000E+02  0.7546771E-02  0.1259629E+00
         11   -1    0    0    0    0  0.00000000000E+00  0.00000000000E+00  0.30000000000E+02  0.30000000000E+02  0.00000000000E+00 0.  1.
        -11   -1    0    0    0    0 -0.00000000000E+00 -0.00000000000E+00 -0.30000000000E+02  0.30000000000E+02  0.00000000000E+00 0. -1.
          5    1    1    2  501    0  0.23331963951E+02 -0.10960946988E+02  0.14607775303E+02  0.30000000000E+02  0.47000000000E+01 0. -1.
         -5    1    1    2    0  501 -0.23331963951E+02  0.10960946988E+02 -0.14607775303E+02  0.30000000000E+02  0.47000000000E+01 0.  1.
</event>
<event>
 4    1  0.7503339E-002  0.6000000E+02  0.7546771E-02  0.1259629E+00
         11   -1    0    0    0    0  0.00000000000E+00  0.00000000000E+00  0.30000000000E+02  0.30000000000E+02  0.00000000000E+00 0.  1.
        -11   -1    0    0    0    0 -0.00000000000E+00 -0.00000000000E+00 -0.30000000000E+02  0.30000000000E+02  0.00000000000E+00 0. -1.
          5    1    1    2  501    0  0.22420198804E+02  0.19087513833E+02 -0.33032561564E+01  0.30000000000E+02  0.47000000000E+01 0. -1.
         -5    1    1    2    0  501 -0.22420198804E+02 -0.19087513833E+02  0.33032561564E+01  0.30000000000E+02  0.47000000000E+01 0.  1.
</event>
<event>
 4    1  0.7503339E-002  0.6000000E+02  0.7546771E-02  0.1259629E+00
         11   -1    0    0    0    0  0.00000000000E+00  0.00000000000E+00  0.30000000000E+02  0.30000000000E+02  0.00000000000E+00 0.  1.
        -11   -1    0    0    0    0 -0.00000000000E+00 -0.00000000000E+00 -0.30000000000E+02  0.30000000000E+02  0.00000000000E+00 0. -1.
          5    1    1    2  501    0 -0.16073899476E+02 -0.24266495970E+01 -0.24771982710E+02  0.30000000000E+02  0.47000000000E+01 0. -1.
         -5    1    1    2    0  501  0.16073899476E+02  0.24266495970E+01  0.24771982710E+02  0.30000000000E+02  0.47000000000E+01 0.  1.
</event>
<event>
 4    1  0.7503339E-002  0.6000000E+02  0.7546771E-02  0.1259629E+00
         11   -1    0    0    0    0  0.00000000000E+00  0.00000000000E+00  0.30000000000E+02  0.30000000000E+02  0.00000000000E+00 0.  1.
        -11   -1    0    0    0    0 -0.00000000000E+00 -0.00000000000E+00 -0.30000000000E+02  0.30000000000E+02  0.00000000000E+00 0. -1.
          5    1    1    2  501    0 -0.11967196863E+02  0.23947754128E+02 -0.12696506270E+02  0.30000000000E+02  0.47000000000E+01 0. -1.
         -5    1    1    2    0  501  0.11967196863E+02 -0.23947754128E+02  0.12696506270E+02  0.30000000000E+02  0.47000000000E+01 0.  1.
</event>
<event>
 4    1  0.7503339E-002  0.6000000E+02  0.7546771E-02  0.1259629E+00
         11   -1    0    0    0    0  0.00000000000E+00  0.00000000000E+00  0.30000000000E+02  0.30000000000E+02  0.00000000000E+00 0.  1.
        -11   -1    0    0    0    0 -0.00000000000E+00 -0.00000000000E+00 -0.30000000000E+02  0.30000000000E+02  0.00000000000E+00 0. -1.
          5    1    1    2  501    0  0.15549466152E+02  0.22175241170E+02  0.12015938642E+02  0.30000000000E+02  0.47000000000E+01 0.  1.
         -5    1    1    2    0  501 -0.15549466152E+02 -0.22175241170E+02 -0.12015938642E+02  0.30000000000E+02  0.47000000000E+01 0. -1.
</event>
<event>
 4    1  0.7503339E-002  0.6000000E+02  0.7546771E-02  0.1259629E+00
         11   -1    0    0    0    0  0.00000000000E+00  0.00000000000E+00  0.30000000000E+02  0.30000000000E+02  0.00000000000E+00 0. -1.
        -11   -1    0    0    0    0 -0.00000000000E+00 -0.00000000000E+00 -0.30000000000E+02  0.30000000000E+02  0.00000000000E+00 0.  1.
          5    1    1    2  501    0 -0.10053367404E+02 -0.45996024488E+01 -0.27489697364E+02  0.30000000000E+02  0.47000000000E+01 0.  1.
         -5    1    1    2    0  501  0.10053367404E+02  0.45996024488E+01  0.27489697364E+02  0.30000000000E+02  0.47000000000E+01 0. -1.
</event>
<event>
 4    1  0.7503339E-002  0.6000000E+02  0.7546771E-02  0.1259629E+00
         11   -1    0    0    0    0  0.00000000000E+00  0.00000000000E+00  0.30000000000E+02  0.30000000000E+02  0.00000000000E+00 0.  1.
        -11   -1    0    0    0    0 -0.00000000000E+00 -0.00000000000E+00 -0.30000000000E+02  0.30000000000E+02  0.00000000000E+00 0. -1.
          5    1    1    2  501    0 -0.70604302105E+01 -0.27155403678E+02 -0.95207340219E+01  0.30000000000E+02  0.47000000000E+01 0. -1.
         -5    1    1    2    0  501  0.70604302105E+01  0.27155403678E+02  0.95207340219E+01  0.30000000000E+02  0.47000000000E+01 0.  1.
</event>
<event>
 4    1  0.7503339E-002  0.6000000E+02  0.7546771E-02  0.1259629E+00
         11   -1    0    0    0    0  0.00000000000E+00  0.00000000000E+00  0.30000000000E+02  0.30000000000E+02  0.00000000000E+00 0.  1.
        -11   -1    0    0    0    0 -0.00000000000E+00 -0.00000000000E+00 -0.30000000000E+02  0.30000000000E+02  0.00000000000E+00 0. -1.
          5    1    1    2  501    0 -0.78024781093E+01  0.24612277376E+02  0.14535031397E+02  0.30000000000E+02  0.47000000000E+01 0.  1.
         -5    1    1    2    0  501  0.78024781093E+01 -0.24612277376E+02 -0.14535031397E+02  0.30000000000E+02  0.47000000000E+01 0. -1.
</event>
<event>
 4    1  0.7503339E-002  0.6000000E+02  0.7546771E-02  0.1259629E+00
         11   -1    0    0    0    0  0.00000000000E+00  0.00000000000E+00  0.30000000000E+02  0.30000000000E+02  0.00000000000E+00 0.  1.
        -11   -1    0    0    0    0 -0.00000000000E+00 -0.00000000000E+00 -0.30000000000E+02  0.30000000000E+02  0.00000000000E+00 0. -1.
          5    1    1    2  501    0 -0.26931679639E+01  0.14103306312E+02 -0.25918209764E+02  0.30000000000E+02  0.47000000000E+01 0. -1.
         -5    1    1    2    0  501  0.26931679639E+01 -0.14103306312E+02  0.25918209764E+02  0.30000000000E+02  0.47000000000E+01 0.  1.
</event>
<event>
 4    1  0.7503339E-002  0.6000000E+02  0.7546771E-02  0.1259629E+00
         11   -1    0    0    0    0  0.00000000000E+00  0.00000000000E+00  0.30000000000E+02  0.30000000000E+02  0.00000000000E+00 0.  1.
        -11   -1    0    0    0    0 -0.00000000000E+00 -0.00000000000E+00 -0.30000000000E+02  0.30000000000E+02  0.00000000000E+00 0. -1.
          5    1    1    2  501    0  0.16817957822E+02 -0.82911276280E+01 -0.22941741375E+02  0.30000000000E+02  0.47000000000E+01 0. -1.
         -5    1    1    2    0  501 -0.16817957822E+02  0.82911276280E+01  0.22941741375E+02  0.30000000000E+02  0.47000000000E+01 0.  1.
</event>
<event>
 4    1  0.7503339E-002  0.6000000E+02  0.7546771E-02  0.1259629E+00
         11   -1    0    0    0    0  0.00000000000E+00  0.00000000000E+00  0.30000000000E+02  0.30000000000E+02  0.00000000000E+00 0.  1.
        -11   -1    0    0    0    0 -0.00000000000E+00 -0.00000000000E+00 -0.30000000000E+02  0.30000000000E+02  0.00000000000E+00 0. -1.
          5    1    1    2  501    0  0.58793105941E+01  0.73972403868E+01 -0.28082459679E+02  0.30000000000E+02  0.47000000000E+01 0. -1.
         -5    1    1    2    0  501 -0.58793105941E+01 -0.73972403868E+01  0.28082459679E+02  0.30000000000E+02  0.47000000000E+01 0.  1.
</event>
<event>
 4    1  0.7503339E-002  0.6000000E+02  0.7546771E-02  0.1259629E+00
         11   -1    0    0    0    0  0.00000000000E+00  0.00000000000E+00  0.30000000000E+02  0.30000000000E+02  0.00000000000E+00 0.  1.
        -11   -1    0    0    0    0 -0.00000000000E+00 -0.00000000000E+00 -0.30000000000E+02  0.30000000000E+02  0.00000000000E+00 0. -1.
          5    1    1    2  501    0  0.17938091298E+02 -0.21007931497E+02 -0.10714555277E+02  0.30000000000E+02  0.47000000000E+01 0. -1.
         -5    1    1    2    0  501 -0.17938091298E+02  0.21007931497E+02  0.10714555277E+02  0.30000000000E+02  0.47000000000E+01 0.  1.
</event>
<event>
 4    1  0.7503339E-002  0.6000000E+02  0.7546771E-02  0.1259629E+00
         11   -1    0    0    0    0  0.00000000000E+00  0.00000000000E+00  0.30000000000E+02  0.30000000000E+02  0.00000000000E+00 0.  1.
        -11   -1    0    0    0    0 -0.00000000000E+00 -0.00000000000E+00 -0.30000000000E+02  0.30000000000E+02  0.00000000000E+00 0. -1.
          5    1    1    2  501    0 -0.43706414230E-01  0.21977195257E+01 -0.29547895333E+02  0.30000000000E+02  0.47000000000E+01 0. -1.
         -5    1    1    2    0  501  0.43706414230E-01 -0.21977195257E+01  0.29547895333E+02  0.30000000000E+02  0.47000000000E+01 0.  1.
</event>
<event>
 4    1  0.7503339E-002  0.6000000E+02  0.7546771E-02  0.1259629E+00
         11   -1    0    0    0    0  0.00000000000E+00  0.00000000000E+00  0.30000000000E+02  0.30000000000E+02  0.00000000000E+00 0.  1.
        -11   -1    0    0    0    0 -0.00000000000E+00 -0.00000000000E+00 -0.30000000000E+02  0.30000000000E+02  0.00000000000E+00 0. -1.
          5    1    1    2  501    0 -0.72014285151E+01  0.81912515859E+00 -0.28729400643E+02  0.30000000000E+02  0.47000000000E+01 0. -1.
         -5    1    1    2    0  501  0.72014285151E+01 -0.81912515859E+00  0.28729400643E+02  0.30000000000E+02  0.47000000000E+01 0.  1.
</event>
<event>
 4    1  0.7503339E-002  0.6000000E+02  0.7546771E-02  0.1259629E+00
         11   -1    0    0    0    0  0.00000000000E+00  0.00000000000E+00  0.30000000000E+02  0.30000000000E+02  0.00000000000E+00 0.  1.
        -11   -1    0    0    0    0 -0.00000000000E+00 -0.00000000000E+00 -0.30000000000E+02  0.30000000000E+02  0.00000000000E+00 0. -1.
          5    1    1    2  501    0 -0.11312589030E+02 -0.26171482715E+02 -0.80615644836E+01  0.30000000000E+02  0.47000000000E+01 0. -1.
         -5    1    1    2    0  501  0.11312589030E+02  0.26171482715E+02  0.80615644836E+01  0.30000000000E+02  0.47000000000E+01 0.  1.
</event>
<event>
 4    1  0.7503339E-002  0.6000000E+02  0.7546771E-02  0.1259629E+00
         11   -1    0    0    0    0  0.00000000000E+00  0.00000000000E+00  0.30000000000E+02  0.30000000000E+02  0.00000000000E+00 0.  1.
        -11   -1    0    0    0    0 -0.00000000000E+00 -0.00000000000E+00 -0.30000000000E+02  0.30000000000E+02  0.00000000000E+00 0. -1.
          5    1    1    2  501    0  0.16109051901E+01 -0.86898036664E+01 -0.28280776098E+02  0.30000000000E+02  0.47000000000E+01 0. -1.
         -5    1    1    2    0  501 -0.16109051901E+01  0.86898036664E+01  0.28280776098E+02  0.30000000000E+02  0.47000000000E+01 0.  1.
</event>
<event>
 4    1  0.7503339E-002  0.6000000E+02  0.7546771E-02  0.1259629E+00
         11   -1    0    0    0    0  0.00000000000E+00  0.00000000000E+00  0.30000000000E+02  0.30000000000E+02  0.00000000000E+00 0.  1.
        -11   -1    0    0    0    0 -0.00000000000E+00 -0.00000000000E+00 -0.30000000000E+02  0.30000000000E+02  0.00000000000E+00 0. -1.
          5    1    1    2  501    0 -0.25535353681E+02 -0.42729875915E+01  0.14408236860E+02  0.30000000000E+02  0.47000000000E+01 0.  1.
         -5    1    1    2    0  501  0.25535353681E+02  0.42729875915E+01 -0.14408236860E+02  0.30000000000E+02  0.47000000000E+01 0. -1.
</event>
<event>
 4    1  0.7503339E-002  0.6000000E+02  0.7546771E-02  0.1259629E+00
         11   -1    0    0    0    0  0.00000000000E+00  0.00000000000E+00  0.30000000000E+02  0.30000000000E+02  0.00000000000E+00 0.  1.
        -11   -1    0    0    0    0 -0.00000000000E+00 -0.00000000000E+00 -0.30000000000E+02  0.30000000000E+02  0.00000000000E+00 0. -1.
          5    1    1    2  501    0 -0.45749038220E+01 -0.29260159424E+02  0.90737284342E+00  0.30000000000E+02  0.47000000000E+01 0. -1.
         -5    1    1    2    0  501  0.45749038220E+01  0.29260159424E+02 -0.90737284342E+00  0.30000000000E+02  0.47000000000E+01 0.  1.
</event>
<event>
 4    1  0.7503339E-002  0.6000000E+02  0.7546771E-02  0.1259629E+00
         11   -1    0    0    0    0  0.00000000000E+00  0.00000000000E+00  0.30000000000E+02  0.30000000000E+02  0.00000000000E+00 0.  1.
        -11   -1    0    0    0    0 -0.00000000000E+00 -0.00000000000E+00 -0.30000000000E+02  0.30000000000E+02  0.00000000000E+00 0. -1.
          5    1    1    2  501    0 -0.10848862237E+02 -0.19841622986E+02 -0.19144769141E+02  0.30000000000E+02  0.47000000000E+01 0. -1.
         -5    1    1    2    0  501  0.10848862237E+02  0.19841622986E+02  0.19144769141E+02  0.30000000000E+02  0.47000000000E+01 0.  1.
</event>
<event>
 4    1  0.7503339E-002  0.6000000E+02  0.7546771E-02  0.1259629E+00
         11   -1    0    0    0    0  0.00000000000E+00  0.00000000000E+00  0.30000000000E+02  0.30000000000E+02  0.00000000000E+00 0. -1.
        -11   -1    0    0    0    0 -0.00000000000E+00 -0.00000000000E+00 -0.30000000000E+02  0.30000000000E+02  0.00000000000E+00 0.  1.
          5    1    1    2  501    0  0.60734415355E+01 -0.28374955070E+02  0.59904284245E+01  0.30000000000E+02  0.47000000000E+01 0. -1.
         -5    1    1    2    0  501 -0.60734415355E+01  0.28374955070E+02 -0.59904284245E+01  0.30000000000E+02  0.47000000000E+01 0.  1.
</event>
<event>
 4    1  0.7503339E-002  0.6000000E+02  0.7546771E-02  0.1259629E+00
         11   -1    0    0    0    0  0.00000000000E+00  0.00000000000E+00  0.30000000000E+02  0.30000000000E+02  0.00000000000E+00 0.  1.
        -11   -1    0    0    0    0 -0.00000000000E+00 -0.00000000000E+00 -0.30000000000E+02  0.30000000000E+02  0.00000000000E+00 0. -1.
          5    1    1    2  501    0  0.21763658826E+02 -0.12718394839E+02 -0.15572269816E+02  0.30000000000E+02  0.47000000000E+01 0. -1.
         -5    1    1    2    0  501 -0.21763658826E+02  0.12718394839E+02  0.15572269816E+02  0.30000000000E+02  0.47000000000E+01 0.  1.
</event>
<event>
 4    1  0.7503339E-002  0.6000000E+02  0.7546771E-02  0.1259629E+00
         11   -1    0    0    0    0  0.00000000000E+00  0.00000000000E+00  0.30000000000E+02  0.30000000000E+02  0.00000000000E+00 0.  1.
        -11   -1    0    0    0    0 -0.00000000000E+00 -0.00000000000E+00 -0.30000000000E+02  0.30000000000E+02  0.00000000000E+00 0. -1.
          5    1    1    2  501    0  0.27986990332E+02  0.85776671539E+01 -0.45893352852E+01  0.30000000000E+02  0.47000000000E+01 0. -1.
         -5    1    1    2    0  501 -0.27986990332E+02 -0.85776671539E+01  0.45893352852E+01  0.30000000000E+02  0.47000000000E+01 0.  1.
</event>
<event>
 4    1  0.7503339E-002  0.6000000E+02  0.7546771E-02  0.1259629E+00
         11   -1    0    0    0    0  0.00000000000E+00  0.00000000000E+00  0.30000000000E+02  0.30000000000E+02  0.00000000000E+00 0. -1.
        -11   -1    0    0    0    0 -0.00000000000E+00 -0.00000000000E+00 -0.30000000000E+02  0.30000000000E+02  0.00000000000E+00 0.  1.
          5    1    1    2  501    0  0.10998494667E+02 -0.15442846617E+02 -0.22769751940E+02  0.30000000000E+02  0.47000000000E+01 0.  1.
         -5    1    1    2    0  501 -0.10998494667E+02  0.15442846617E+02  0.22769751940E+02  0.30000000000E+02  0.47000000000E+01 0. -1.
</event>
<event>
 4    1  0.7503339E-002  0.6000000E+02  0.7546771E-02  0.1259629E+00
         11   -1    0    0    0    0  0.00000000000E+00  0.00000000000E+00  0.30000000000E+02  0.30000000000E+02  0.00000000000E+00 0.  1.
        -11   -1    0    0    0    0 -0.00000000000E+00 -0.00000000000E+00 -0.30000000000E+02  0.30000000000E+02  0.00000000000E+00 0. -1.
          5    1    1    2  501    0  0.15599969678E+02 -0.55202187451E+01 -0.24578000957E+02  0.30000000000E+02  0.47000000000E+01 0. -1.
         -5    1    1    2    0  501 -0.15599969678E+02  0.55202187451E+01  0.24578000957E+02  0.30000000000E+02  0.47000000000E+01 0.  1.
</event>
<event>
 4    1  0.7503339E-002  0.6000000E+02  0.7546771E-02  0.1259629E+00
         11   -1    0    0    0    0  0.00000000000E+00  0.00000000000E+00  0.30000000000E+02  0.30000000000E+02  0.00000000000E+00 0.  1.
        -11   -1    0    0    0    0 -0.00000000000E+00 -0.00000000000E+00 -0.30000000000E+02  0.30000000000E+02  0.00000000000E+00 0. -1.
          5    1    1    2  501    0 -0.15748558272E+02 -0.15883274836E+02 -0.19432305392E+02  0.30000000000E+02  0.47000000000E+01 0. -1.
         -5    1    1    2    0  501  0.15748558272E+02  0.15883274836E+02  0.19432305392E+02  0.30000000000E+02  0.47000000000E+01 0.  1.
</event>
<event>
 4    1  0.7503339E-002  0.6000000E+02  0.7546771E-02  0.1259629E+00
         11   -1    0    0    0    0  0.00000000000E+00  0.00000000000E+00  0.30000000000E+02  0.30000000000E+02  0.00000000000E+00 0.  1.
        -11   -1    0    0    0    0 -0.00000000000E+00 -0.00000000000E+00 -0.30000000000E+02  0.30000000000E+02  0.00000000000E+00 0. -1.
          5    1    1    2  501    0 -0.13137972398E+02 -0.22193472090E+02 -0.14586071366E+02  0.30000000000E+02  0.47000000000E+01 0. -1.
         -5    1    1    2    0  501  0.13137972398E+02  0.22193472090E+02  0.14586071366E+02  0.30000000000E+02  0.47000000000E+01 0.  1.
</event>
<event>
 4    1  0.7503339E-002  0.6000000E+02  0.7546771E-02  0.1259629E+00
         11   -1    0    0    0    0  0.00000000000E+00  0.00000000000E+00  0.30000000000E+02  0.30000000000E+02  0.00000000000E+00 0. -1.
        -11   -1    0    0    0    0 -0.00000000000E+00 -0.00000000000E+00 -0.30000000000E+02  0.30000000000E+02  0.00000000000E+00 0.  1.
          5    1    1    2  501    0  0.30214937552E+01  0.13117534937E+02 -0.26395280879E+02  0.30000000000E+02  0.47000000000E+01 0.  1.
         -5    1    1    2    0  501 -0.30214937552E+01 -0.13117534937E+02  0.26395280879E+02  0.30000000000E+02  0.47000000000E+01 0. -1.
</event>
<event>
 4    1  0.7503339E-002  0.6000000E+02  0.7546771E-02  0.1259629E+00
         11   -1    0    0    0    0  0.00000000000E+00  0.00000000000E+00  0.30000000000E+02  0.30000000000E+02  0.00000000000E+00 0.  1.
        -11   -1    0    0    0    0 -0.00000000000E+00 -0.00000000000E+00 -0.30000000000E+02  0.30000000000E+02  0.00000000000E+00 0. -1.
          5    1    1    2  501    0 -0.19461862030E+02 -0.13370388560E+02 -0.17899123891E+02  0.30000000000E+02  0.47000000000E+01 0. -1.
         -5    1    1    2    0  501  0.19461862030E+02  0.13370388560E+02  0.17899123891E+02  0.30000000000E+02  0.47000000000E+01 0.  1.
</event>
<event>
 4    1  0.7503339E-002  0.6000000E+02  0.7546771E-02  0.1259629E+00
         11   -1    0    0    0    0  0.00000000000E+00  0.00000000000E+00  0.30000000000E+02  0.30000000000E+02  0.00000000000E+00 0.  1.
        -11   -1    0    0    0    0 -0.00000000000E+00 -0.00000000000E+00 -0.30000000000E+02  0.30000000000E+02  0.00000000000E+00 0. -1.
          5    1    1    2  501    0 -0.23961143784E+02  0.15421685988E+02 -0.81206643712E+01  0.30000000000E+02  0.47000000000E+01 0. -1.
         -5    1    1    2    0  501  0.23961143784E+02 -0.15421685988E+02  0.81206643712E+01  0.30000000000E+02  0.47000000000E+01 0.  1.
</event>
<event>
 4    1  0.7503339E-002  0.6000000E+02  0.7546771E-02  0.1259629E+00
         11   -1    0    0    0    0  0.00000000000E+00  0.00000000000E+00  0.30000000000E+02  0.30000000000E+02  0.00000000000E+00 0.  1.
        -11   -1    0    0    0    0 -0.00000000000E+00 -0.00000000000E+00 -0.30000000000E+02  0.30000000000E+02  0.00000000000E+00 0. -1.
          5    1    1    2  501    0  0.14922011638E+02  0.14748058308E+02 -0.20922197419E+02  0.30000000000E+02  0.47000000000E+01 0. -1.
         -5    1    1    2    0  501 -0.14922011638E+02 -0.14748058308E+02  0.20922197419E+02  0.30000000000E+02  0.47000000000E+01 0.  1.
</event>
<event>
 4    1  0.7503339E-002  0.6000000E+02  0.7546771E-02  0.1259629E+00
         11   -1    0    0    0    0  0.00000000000E+00  0.00000000000E+00  0.30000000000E+02  0.30000000000E+02  0.00000000000E+00 0. -1.
        -11   -1    0    0    0    0 -0.00000000000E+00 -0.00000000000E+00 -0.30000000000E+02  0.30000000000E+02  0.00000000000E+00 0.  1.
          5    1    1    2  501    0 -0.13775306275E+02 -0.46079830925E+01 -0.25824744507E+02  0.30000000000E+02  0.47000000000E+01 0.  1.
         -5    1    1    2    0  501  0.13775306275E+02  0.46079830925E+01  0.25824744507E+02  0.30000000000E+02  0.47000000000E+01 0. -1.
</event>
<event>
 4    1  0.7503339E-002  0.6000000E+02  0.7546771E-02  0.1259629E+00
         11   -1    0    0    0    0  0.00000000000E+00  0.00000000000E+00  0.30000000000E+02  0.30000000000E+02  0.00000000000E+00 0.  1.
        -11   -1    0    0    0    0 -0.00000000000E+00 -0.00000000000E+00 -0.30000000000E+02  0.30000000000E+02  0.00000000000E+00 0. -1.
          5    1    1    2  501    0  0.23882144470E+02 -0.31055251674E+01 -0.17260037339E+02  0.30000000000E+02  0.47000000000E+01 0. -1.
         -5    1    1    2    0  501 -0.23882144470E+02  0.31055251674E+01  0.17260037339E+02  0.30000000000E+02  0.47000000000E+01 0.  1.
</event>
<event>
 4    1  0.7503339E-002  0.6000000E+02  0.7546771E-02  0.1259629E+00
         11   -1    0    0    0    0  0.00000000000E+00  0.00000000000E+00  0.30000000000E+02  0.30000000000E+02  0.00000000000E+00 0.  1.
        -11   -1    0    0    0    0 -0.00000000000E+00 -0.00000000000E+00 -0.30000000000E+02  0.30000000000E+02  0.00000000000E+00 0. -1.
          5    1    1    2  501    0  0.29516860953E+02 -0.25797710807E+01  0.98491824789E-01  0.30000000000E+02  0.47000000000E+01 0. -1.
         -5    1    1    2    0  501 -0.29516860953E+02  0.25797710807E+01 -0.98491824789E-01  0.30000000000E+02  0.47000000000E+01 0.  1.
</event>
<event>
 4    1  0.7503339E-002  0.6000000E+02  0.7546771E-02  0.1259629E+00
         11   -1    0    0    0    0  0.00000000000E+00  0.00000000000E+00  0.30000000000E+02  0.30000000000E+02  0.00000000000E+00 0. -1.
        -11   -1    0    0    0    0 -0.00000000000E+00 -0.00000000000E+00 -0.30000000000E+02  0.30000000000E+02  0.00000000000E+00 0.  1.
          5    1    1    2  501    0 -0.16308607278E+02 -0.18767933632E+02 -0.16115334184E+02  0.30000000000E+02  0.47000000000E+01 0.  1.
         -5    1    1    2    0  501  0.16308607278E+02  0.18767933632E+02  0.16115334184E+02  0.30000000000E+02  0.47000000000E+01 0. -1.
</event>
<event>
 4    1  0.7503339E-002  0.6000000E+02  0.7546771E-02  0.1259629E+00
         11   -1    0    0    0    0  0.00000000000E+00  0.00000000000E+00  0.30000000000E+02  0.30000000000E+02  0.00000000000E+00 0.  1.
        -11   -1    0    0    0    0 -0.00000000000E+00 -0.00000000000E+00 -0.30000000000E+02  0.30000000000E+02  0.00000000000E+00 0. -1.
          5    1    1    2  501    0  0.12897932688E+02 -0.21350260527E+02 -0.15991238470E+02  0.30000000000E+02  0.47000000000E+01 0. -1.
         -5    1    1    2    0  501 -0.12897932688E+02  0.21350260527E+02  0.15991238470E+02  0.30000000000E+02  0.47000000000E+01 0.  1.
</event>
<event>
 4    1  0.7503339E-002  0.6000000E+02  0.7546771E-02  0.1259629E+00
         11   -1    0    0    0    0  0.00000000000E+00  0.00000000000E+00  0.30000000000E+02  0.30000000000E+02  0.00000000000E+00 0. -1.
        -11   -1    0    0    0    0 -0.00000000000E+00 -0.00000000000E+00 -0.30000000000E+02  0.30000000000E+02  0.00000000000E+00 0.  1.
          5    1    1    2  501    0  0.27257598890E+02  0.53252968680E+01 -0.10323493401E+02  0.30000000000E+02  0.47000000000E+01 0.  1.
         -5    1    1    2    0  501 -0.27257598890E+02 -0.53252968680E+01  0.10323493401E+02  0.30000000000E+02  0.47000000000E+01 0. -1.
</event>
<event>
 4    1  0.7503339E-002  0.6000000E+02  0.7546771E-02  0.1259629E+00
         11   -1    0    0    0    0  0.00000000000E+00  0.00000000000E+00  0.30000000000E+02  0.30000000000E+02  0.00000000000E+00 0.  1.
        -11   -1    0    0    0    0 -0.00000000000E+00 -0.00000000000E+00 -0.30000000000E+02  0.30000000000E+02  0.00000000000E+00 0. -1.
          5    1    1    2  501    0  0.24228331817E+02  0.15775958209E+02 -0.64820583113E+01  0.30000000000E+02  0.47000000000E+01 0. -1.
         -5    1    1    2    0  501 -0.24228331817E+02 -0.15775958209E+02  0.64820583113E+01  0.30000000000E+02  0.47000000000E+01 0.  1.
</event>
<event>
 4    1  0.7503339E-002  0.6000000E+02  0.7546771E-02  0.1259629E+00
         11   -1    0    0    0    0  0.00000000000E+00  0.00000000000E+00  0.30000000000E+02  0.30000000000E+02  0.00000000000E+00 0.  1.
        -11   -1    0    0    0    0 -0.00000000000E+00 -0.00000000000E+00 -0.30000000000E+02  0.30000000000E+02  0.00000000000E+00 0. -1.
          5    1    1    2  501    0  0.11719273654E+01  0.25114632515E+02 -0.15677749197E+02  0.30000000000E+02  0.47000000000E+01 0. -1.
         -5    1    1    2    0  501 -0.11719273654E+01 -0.25114632515E+02  0.15677749197E+02  0.30000000000E+02  0.47000000000E+01 0.  1.
</event>
<event>
 4    1  0.7503339E-002  0.6000000E+02  0.7546771E-02  0.1259629E+00
         11   -1    0    0    0    0  0.00000000000E+00  0.00000000000E+00  0.30000000000E+02  0.30000000000E+02  0.00000000000E+00 0.  1.
        -11   -1    0    0    0    0 -0.00000000000E+00 -0.00000000000E+00 -0.30000000000E+02  0.30000000000E+02  0.00000000000E+00 0. -1.
          5    1    1    2  501    0  0.30323326155E+01 -0.12892100373E+02 -0.26504880812E+02  0.30000000000E+02  0.47000000000E+01 0. -1.
         -5    1    1    2    0  501 -0.30323326155E+01  0.12892100373E+02  0.26504880812E+02  0.30000000000E+02  0.47000000000E+01 0.  1.
</event>
<event>
 4    1  0.7503339E-002  0.6000000E+02  0.7546771E-02  0.1259629E+00
         11   -1    0    0    0    0  0.00000000000E+00  0.00000000000E+00  0.30000000000E+02  0.30000000000E+02  0.00000000000E+00 0.  1.
        -11   -1    0    0    0    0 -0.00000000000E+00 -0.00000000000E+00 -0.30000000000E+02  0.30000000000E+02  0.00000000000E+00 0. -1.
          5    1    1    2  501    0  0.43024123037E+01 -0.12136979810E+02 -0.26685070160E+02  0.30000000000E+02  0.47000000000E+01 0. -1.
         -5    1    1    2    0  501 -0.43024123037E+01  0.12136979810E+02  0.26685070160E+02  0.30000000000E+02  0.47000000000E+01 0.  1.
</event>
<event>
 4    1  0.7503339E-002  0.6000000E+02  0.7546771E-02  0.1259629E+00
         11   -1    0    0    0    0  0.00000000000E+00  0.00000000000E+00  0.30000000000E+02  0.30000000000E+02  0.00000000000E+00 0.  1.
        -11   -1    0    0    0    0 -0.00000000000E+00 -0.00000000000E+00 -0.30000000000E+02  0.30000000000E+02  0.00000000000E+00 0. -1.
          5    1    1    2  501    0  0.27902558851E+01 -0.18993135659E+02 -0.22569565125E+02  0.30000000000E+02  0.47000000000E+01 0. -1.
         -5    1    1    2    0  501 -0.27902558851E+01  0.18993135659E+02  0.22569565125E+02  0.30000000000E+02  0.47000000000E+01 0.  1.
</event>
<event>
 4    1  0.7503339E-002  0.6000000E+02  0.7546771E-02  0.1259629E+00
         11   -1    0    0    0    0  0.00000000000E+00  0.00000000000E+00  0.30000000000E+02  0.30000000000E+02  0.00000000000E+00 0. -1.
        -11   -1    0    0    0    0 -0.00000000000E+00 -0.00000000000E+00 -0.30000000000E+02  0.30000000000E+02  0.00000000000E+00 0.  1.
          5    1    1    2  501    0 -0.26619143112E+02 -0.39920102212E+00  0.13006608263E+02  0.30000000000E+02  0.47000000000E+01 0. -1.
         -5    1    1    2    0  501  0.26619143112E+02  0.39920102212E+00 -0.13006608263E+02  0.30000000000E+02  0.47000000000E+01 0.  1.
</event>
<event>
 4    1  0.7503339E-002  0.6000000E+02  0.7546771E-02  0.1259629E+00
         11   -1    0    0    0    0  0.00000000000E+00  0.00000000000E+00  0.30000000000E+02  0.30000000000E+02  0.00000000000E+00 0.  1.
        -11   -1    0    0    0    0 -0.00000000000E+00 -0.00000000000E+00 -0.30000000000E+02  0.30000000000E+02  0.00000000000E+00 0. -1.
          5    1    1    2  501    0  0.18825367904E+02  0.20597622903E+02 -0.99626027736E+01  0.30000000000E+02  0.47000000000E+01 0. -1.
         -5    1    1    2    0  501 -0.18825367904E+02 -0.20597622903E+02  0.99626027736E+01  0.30000000000E+02  0.47000000000E+01 0.  1.
</event>
<event>
 4    1  0.7503339E-002  0.6000000E+02  0.7546771E-02  0.1259629E+00
         11   -1    0    0    0    0  0.00000000000E+00  0.00000000000E+00  0.30000000000E+02  0.30000000000E+02  0.00000000000E+00 0.  1.
        -11   -1    0    0    0    0 -0.00000000000E+00 -0.00000000000E+00 -0.30000000000E+02  0.30000000000E+02  0.00000000000E+00 0. -1.
          5    1    1    2  501    0 -0.19164738550E+02  0.36080329460E+01 -0.22307059299E+02  0.30000000000E+02  0.47000000000E+01 0. -1.
         -5    1    1    2    0  501  0.19164738550E+02 -0.36080329460E+01  0.22307059299E+02  0.30000000000E+02  0.47000000000E+01 0.  1.
</event>
<event>
 4    1  0.7503339E-002  0.6000000E+02  0.7546771E-02  0.1259629E+00
         11   -1    0    0    0    0  0.00000000000E+00  0.00000000000E+00  0.30000000000E+02  0.30000000000E+02  0.00000000000E+00 0. -1.
        -11   -1    0    0    0    0 -0.00000000000E+00 -0.00000000000E+00 -0.30000000000E+02  0.30000000000E+02  0.00000000000E+00 0.  1.
          5    1    1    2  501    0 -0.84482950502E+01  0.22583595522E+02 -0.17219684202E+02  0.30000000000E+02  0.47000000000E+01 0. -1.
         -5    1    1    2    0  501  0.84482950502E+01 -0.22583595522E+02  0.17219684202E+02  0.30000000000E+02  0.47000000000E+01 0.  1.
</event>
<event>
 4    1  0.7503339E-002  0.6000000E+02  0.7546771E-02  0.1259629E+00
         11   -1    0    0    0    0  0.00000000000E+00  0.00000000000E+00  0.30000000000E+02  0.30000000000E+02  0.00000000000E+00 0.  1.
        -11   -1    0    0    0    0 -0.00000000000E+00 -0.00000000000E+00 -0.30000000000E+02  0.30000000000E+02  0.00000000000E+00 0. -1.
          5    1    1    2  501    0 -0.40220368000E+01  0.23256084489E+02 -0.17913340119E+02  0.30000000000E+02  0.47000000000E+01 0. -1.
         -5    1    1    2    0  501  0.40220368000E+01 -0.23256084489E+02  0.17913340119E+02  0.30000000000E+02  0.47000000000E+01 0.  1.
</event>
<event>
 4    1  0.7503339E-002  0.6000000E+02  0.7546771E-02  0.1259629E+00
         11   -1    0    0    0    0  0.00000000000E+00  0.00000000000E+00  0.30000000000E+02  0.30000000000E+02  0.00000000000E+00 0.  1.
        -11   -1    0    0    0    0 -0.00000000000E+00 -0.00000000000E+00 -0.30000000000E+02  0.30000000000E+02  0.00000000000E+00 0. -1.
          5    1    1    2  501    0  0.70071963453E+01 -0.35609424895E+01 -0.28567969616E+02  0.30000000000E+02  0.47000000000E+01 0. -1.
         -5    1    1    2    0  501 -0.70071963453E+01  0.35609424895E+01  0.28567969616E+02  0.30000000000E+02  0.47000000000E+01 0.  1.
</event>
<event>
 4    1  0.7503339E-002  0.6000000E+02  0.7546771E-02  0.1259629E+00
         11   -1    0    0    0    0  0.00000000000E+00  0.00000000000E+00  0.30000000000E+02  0.30000000000E+02  0.00000000000E+00 0.  1.
        -11   -1    0    0    0    0 -0.00000000000E+00 -0.00000000000E+00 -0.30000000000E+02  0.30000000000E+02  0.00000000000E+00 0. -1.
          5    1    1    2  501    0 -0.18451364128E+02 -0.12788672542E+02 -0.19336675424E+02  0.30000000000E+02  0.47000000000E+01 0. -1.
         -5    1    1    2    0  501  0.18451364128E+02  0.12788672542E+02  0.19336675424E+02  0.30000000000E+02  0.47000000000E+01 0.  1.
</event>
<event>
 4    1  0.7503339E-002  0.6000000E+02  0.7546771E-02  0.1259629E+00
         11   -1    0    0    0    0  0.00000000000E+00  0.00000000000E+00  0.30000000000E+02  0.30000000000E+02  0.00000000000E+00 0. -1.
        -11   -1    0    0    0    0 -0.00000000000E+00 -0.00000000000E+00 -0.30000000000E+02  0.30000000000E+02  0.00000000000E+00 0.  1.
          5    1    1    2  501    0 -0.26745759243E+02 -0.41908809071E+01 -0.12042046326E+02  0.30000000000E+02  0.47000000000E+01 0.  1.
         -5    1    1    2    0  501  0.26745759243E+02  0.41908809071E+01  0.12042046326E+02  0.30000000000E+02  0.47000000000E+01 0. -1.
</event>
<event>
 4    1  0.7503339E-002  0.6000000E+02  0.7546771E-02  0.1259629E+00
         11   -1    0    0    0    0  0.00000000000E+00  0.00000000000E+00  0.30000000000E+02  0.30000000000E+02  0.00000000000E+00 0.  1.
        -11   -1    0    0    0    0 -0.00000000000E+00 -0.00000000000E+00 -0.30000000000E+02  0.30000000000E+02  0.00000000000E+00 0. -1.
          5    1    1    2  501    0  0.53233876433E+01 -0.26331542346E+02 -0.12498856815E+02  0.30000000000E+02  0.47000000000E+01 0. -1.
         -5    1    1    2    0  501 -0.53233876433E+01  0.26331542346E+02  0.12498856815E+02  0.30000000000E+02  0.47000000000E+01 0.  1.
</event>
<event>
 4    1  0.7503339E-002  0.6000000E+02  0.7546771E-02  0.1259629E+00
         11   -1    0    0    0    0  0.00000000000E+00  0.00000000000E+00  0.30000000000E+02  0.30000000000E+02  0.00000000000E+00 0.  1.
        -11   -1    0    0    0    0 -0.00000000000E+00 -0.00000000000E+00 -0.30000000000E+02  0.30000000000E+02  0.00000000000E+00 0. -1.
          5    1    1    2  501    0  0.11366636384E+02  0.71380781949E+01 -0.26415098277E+02  0.30000000000E+02  0.47000000000E+01 0. -1.
         -5    1    1    2    0  501 -0.11366636384E+02 -0.71380781949E+01  0.26415098277E+02  0.30000000000E+02  0.47000000000E+01 0.  1.
</event>
<event>
 4    1  0.7503339E-002  0.6000000E+02  0.7546771E-02  0.1259629E+00
         11   -1    0    0    0    0  0.00000000000E+00  0.00000000000E+00  0.30000000000E+02  0.30000000000E+02  0.00000000000E+00 0.  1.
        -11   -1    0    0    0    0 -0.00000000000E+00 -0.00000000000E+00 -0.30000000000E+02  0.30000000000E+02  0.00000000000E+00 0. -1.
          5    1    1    2  501    0 -0.78708584540E+00 -0.15484834512E+02 -0.25248968217E+02  0.30000000000E+02  0.47000000000E+01 0. -1.
         -5    1    1    2    0  501  0.78708584540E+00  0.15484834512E+02  0.25248968217E+02  0.30000000000E+02  0.47000000000E+01 0.  1.
</event>
<event>
 4    1  0.7503339E-002  0.6000000E+02  0.7546771E-02  0.1259629E+00
         11   -1    0    0    0    0  0.00000000000E+00  0.00000000000E+00  0.30000000000E+02  0.30000000000E+02  0.00000000000E+00 0. -1.
        -11   -1    0    0    0    0 -0.00000000000E+00 -0.00000000000E+00 -0.30000000000E+02  0.30000000000E+02  0.00000000000E+00 0.  1.
          5    1    1    2  501    0 -0.23731646178E+02 -0.12340860730E+02 -0.12744493953E+02  0.30000000000E+02  0.47000000000E+01 0.  1.
         -5    1    1    2    0  501  0.23731646178E+02  0.12340860730E+02  0.12744493953E+02  0.30000000000E+02  0.47000000000E+01 0. -1.
</event>
<event>
 4    1  0.7503339E-002  0.6000000E+02  0.7546771E-02  0.1259629E+00
         11   -1    0    0    0    0  0.00000000000E+00  0.00000000000E+00  0.30000000000E+02  0.30000000000E+02  0.00000000000E+00 0.  1.
        -11   -1    0    0    0    0 -0.00000000000E+00 -0.00000000000E+00 -0.30000000000E+02  0.30000000000E+02  0.00000000000E+00 0. -1.
          5    1    1    2  501    0  0.12044412894E+01 -0.20067313062E+02 -0.21766080668E+02  0.30000000000E+02  0.47000000000E+01 0. -1.
         -5    1    1    2    0  501 -0.12044412894E+01  0.20067313062E+02  0.21766080668E+02  0.30000000000E+02  0.47000000000E+01 0.  1.
</event>
<event>
 4    1  0.7503339E-002  0.6000000E+02  0.7546771E-02  0.1259629E+00
         11   -1    0    0    0    0  0.00000000000E+00  0.00000000000E+00  0.30000000000E+02  0.30000000000E+02  0.00000000000E+00 0.  1.
        -11   -1    0    0    0    0 -0.00000000000E+00 -0.00000000000E+00 -0.30000000000E+02  0.30000000000E+02  0.00000000000E+00 0. -1.
          5    1    1    2  501    0 -0.13289248615E+02 -0.67296836195E+01 -0.25612833300E+02  0.30000000000E+02  0.47000000000E+01 0. -1.
         -5    1    1    2    0  501  0.13289248615E+02  0.67296836195E+01  0.25612833300E+02  0.30000000000E+02  0.47000000000E+01 0.  1.
</event>
<event>
 4    1  0.7503339E-002  0.6000000E+02  0.7546771E-02  0.1259629E+00
         11   -1    0    0    0    0  0.00000000000E+00  0.00000000000E+00  0.30000000000E+02  0.30000000000E+02  0.00000000000E+00 0. -1.
        -11   -1    0    0    0    0 -0.00000000000E+00 -0.00000000000E+00 -0.30000000000E+02  0.30000000000E+02  0.00000000000E+00 0.  1.
          5    1    1    2  501    0  0.10278159953E+02  0.25674434292E+02 -0.10634512295E+02  0.30000000000E+02  0.47000000000E+01 0.  1.
         -5    1    1    2    0  501 -0.10278159953E+02 -0.25674434292E+02  0.10634512295E+02  0.30000000000E+02  0.47000000000E+01 0. -1.
</event>
<event>
 4    1  0.7503339E-002  0.6000000E+02  0.7546771E-02  0.1259629E+00
         11   -1    0    0    0    0  0.00000000000E+00  0.00000000000E+00  0.30000000000E+02  0.30000000000E+02  0.00000000000E+00 0. -1.
        -11   -1    0    0    0    0 -0.00000000000E+00 -0.00000000000E+00 -0.30000000000E+02  0.30000000000E+02  0.00000000000E+00 0.  1.
          5    1    1    2  501    0 -0.45694066394E+01  0.28879939198E+02 -0.47937078453E+01  0.30000000000E+02  0.47000000000E+01 0.  1.
         -5    1    1    2    0  501  0.45694066394E+01 -0.28879939198E+02  0.47937078453E+01  0.30000000000E+02  0.47000000000E+01 0. -1.
</event>
<event>
 4    1  0.7503339E-002  0.6000000E+02  0.7546771E-02  0.1259629E+00
         11   -1    0    0    0    0  0.00000000000E+00  0.00000000000E+00  0.30000000000E+02  0.30000000000E+02  0.00000000000E+00 0.  1.
        -11   -1    0    0    0    0 -0.00000000000E+00 -0.00000000000E+00 -0.30000000000E+02  0.30000000000E+02  0.00000000000E+00 0. -1.
          5    1    1    2  501    0  0.70760954459E+01  0.81101462783E+01  0.27605513953E+02  0.30000000000E+02  0.47000000000E+01 0.  1.
         -5    1    1    2    0  501 -0.70760954459E+01 -0.81101462783E+01 -0.27605513953E+02  0.30000000000E+02  0.47000000000E+01 0. -1.
</event>
<event>
 4    1  0.7503339E-002  0.6000000E+02  0.7546771E-02  0.1259629E+00
         11   -1    0    0    0    0  0.00000000000E+00  0.00000000000E+00  0.30000000000E+02  0.30000000000E+02  0.00000000000E+00 0.  1.
        -11   -1    0    0    0    0 -0.00000000000E+00 -0.00000000000E+00 -0.30000000000E+02  0.30000000000E+02  0.00000000000E+00 0. -1.
          5    1    1    2  501    0 -0.44095702918E+01 -0.27911195948E+02 -0.89123975775E+01  0.30000000000E+02  0.47000000000E+01 0. -1.
         -5    1    1    2    0  501  0.44095702918E+01  0.27911195948E+02  0.89123975775E+01  0.30000000000E+02  0.47000000000E+01 0.  1.
</event>
<event>
 4    1  0.7503339E-002  0.6000000E+02  0.7546771E-02  0.1259629E+00
         11   -1    0    0    0    0  0.00000000000E+00  0.00000000000E+00  0.30000000000E+02  0.30000000000E+02  0.00000000000E+00 0.  1.
        -11   -1    0    0    0    0 -0.00000000000E+00 -0.00000000000E+00 -0.30000000000E+02  0.30000000000E+02  0.00000000000E+00 0. -1.
          5    1    1    2  501    0 -0.25602906997E+02  0.55673776391E+01 -0.13834936196E+02  0.30000000000E+02  0.47000000000E+01 0. -1.
         -5    1    1    2    0  501  0.25602906997E+02 -0.55673776391E+01  0.13834936196E+02  0.30000000000E+02  0.47000000000E+01 0.  1.
</event>
<event>
 4    1  0.7503339E-002  0.6000000E+02  0.7546771E-02  0.1259629E+00
         11   -1    0    0    0    0  0.00000000000E+00  0.00000000000E+00  0.30000000000E+02  0.30000000000E+02  0.00000000000E+00 0.  1.
        -11   -1    0    0    0    0 -0.00000000000E+00 -0.00000000000E+00 -0.30000000000E+02  0.30000000000E+02  0.00000000000E+00 0. -1.
          5    1    1    2  501    0  0.10634239048E+02  0.27169214382E+02 -0.51630175000E+01  0.30000000000E+02  0.47000000000E+01 0. -1.
         -5    1    1    2    0  501 -0.10634239048E+02 -0.27169214382E+02  0.51630175000E+01  0.30000000000E+02  0.47000000000E+01 0.  1.
</event>
<event>
 4    1  0.7503339E-002  0.6000000E+02  0.7546771E-02  0.1259629E+00
         11   -1    0    0    0    0  0.00000000000E+00  0.00000000000E+00  0.30000000000E+02  0.30000000000E+02  0.00000000000E+00 0.  1.
        -11   -1    0    0    0    0 -0.00000000000E+00 -0.00000000000E+00 -0.30000000000E+02  0.30000000000E+02  0.00000000000E+00 0. -1.
          5    1    1    2  501    0 -0.31325997480E+01 -0.79461811024E+01 -0.28371729322E+02  0.30000000000E+02  0.47000000000E+01 0. -1.
         -5    1    1    2    0  501  0.31325997480E+01  0.79461811024E+01  0.28371729322E+02  0.30000000000E+02  0.47000000000E+01 0.  1.
</event>
<event>
 4    1  0.7503339E-002  0.6000000E+02  0.7546771E-02  0.1259629E+00
         11   -1    0    0    0    0  0.00000000000E+00  0.00000000000E+00  0.30000000000E+02  0.30000000000E+02  0.00000000000E+00 0.  1.
        -11   -1    0    0    0    0 -0.00000000000E+00 -0.00000000000E+00 -0.30000000000E+02  0.30000000000E+02  0.00000000000E+00 0. -1.
          5    1    1    2  501    0 -0.19172041259E+02  0.82940075783E+01 -0.21013145225E+02  0.30000000000E+02  0.47000000000E+01 0. -1.
         -5    1    1    2    0  501  0.19172041259E+02 -0.82940075783E+01  0.21013145225E+02  0.30000000000E+02  0.47000000000E+01 0.  1.
</event>
<event>
 4    1  0.7503339E-002  0.6000000E+02  0.7546771E-02  0.1259629E+00
         11   -1    0    0    0    0  0.00000000000E+00  0.00000000000E+00  0.30000000000E+02  0.30000000000E+02  0.00000000000E+00 0.  1.
        -11   -1    0    0    0    0 -0.00000000000E+00 -0.00000000000E+00 -0.30000000000E+02  0.30000000000E+02  0.00000000000E+00 0. -1.
          5    1    1    2  501    0  0.12408202975E+02 -0.11896870548E+02 -0.24133192290E+02  0.30000000000E+02  0.47000000000E+01 0. -1.
         -5    1    1    2    0  501 -0.12408202975E+02  0.11896870548E+02  0.24133192290E+02  0.30000000000E+02  0.47000000000E+01 0.  1.
</event>
<event>
 4    1  0.7503339E-002  0.6000000E+02  0.7546771E-02  0.1259629E+00
         11   -1    0    0    0    0  0.00000000000E+00  0.00000000000E+00  0.30000000000E+02  0.30000000000E+02  0.00000000000E+00 0.  1.
        -11   -1    0    0    0    0 -0.00000000000E+00 -0.00000000000E+00 -0.30000000000E+02  0.30000000000E+02  0.00000000000E+00 0. -1.
          5    1    1    2  501    0 -0.34089280423E+01  0.27179678273E+02 -0.11293993917E+02  0.30000000000E+02  0.47000000000E+01 0. -1.
         -5    1    1    2    0  501  0.34089280423E+01 -0.27179678273E+02  0.11293993917E+02  0.30000000000E+02  0.47000000000E+01 0.  1.
</event>
<event>
 4    1  0.7503339E-002  0.6000000E+02  0.7546771E-02  0.1259629E+00
         11   -1    0    0    0    0  0.00000000000E+00  0.00000000000E+00  0.30000000000E+02  0.30000000000E+02  0.00000000000E+00 0.  1.
        -11   -1    0    0    0    0 -0.00000000000E+00 -0.00000000000E+00 -0.30000000000E+02  0.30000000000E+02  0.00000000000E+00 0. -1.
          5    1    1    2  501    0  0.44757247227E+01 -0.25532513599E+02  0.14351607490E+02  0.30000000000E+02  0.47000000000E+01 0. -1.
         -5    1    1    2    0  501 -0.44757247227E+01  0.25532513599E+02 -0.14351607490E+02  0.30000000000E+02  0.47000000000E+01 0.  1.
</event>
<event>
 4    1  0.7503339E-002  0.6000000E+02  0.7546771E-02  0.1259629E+00
         11   -1    0    0    0    0  0.00000000000E+00  0.00000000000E+00  0.30000000000E+02  0.30000000000E+02  0.00000000000E+00 0.  1.
        -11   -1    0    0    0    0 -0.00000000000E+00 -0.00000000000E+00 -0.30000000000E+02  0.30000000000E+02  0.00000000000E+00 0. -1.
          5    1    1    2  501    0 -0.24925691125E+02 -0.10961578868E+02 -0.11681768302E+02  0.30000000000E+02  0.47000000000E+01 0. -1.
         -5    1    1    2    0  501  0.24925691125E+02  0.10961578868E+02  0.11681768302E+02  0.30000000000E+02  0.47000000000E+01 0.  1.
</event>
<event>
 4    1  0.7503339E-002  0.6000000E+02  0.7546771E-02  0.1259629E+00
         11   -1    0    0    0    0  0.00000000000E+00  0.00000000000E+00  0.30000000000E+02  0.30000000000E+02  0.00000000000E+00 0.  1.
        -11   -1    0    0    0    0 -0.00000000000E+00 -0.00000000000E+00 -0.30000000000E+02  0.30000000000E+02  0.00000000000E+00 0. -1.
          5    1    1    2  501    0 -0.25741241620E+01 -0.28093123493E+02 -0.90587138827E+01  0.30000000000E+02  0.47000000000E+01 0. -1.
         -5    1    1    2    0  501  0.25741241620E+01  0.28093123493E+02  0.90587138827E+01  0.30000000000E+02  0.47000000000E+01 0.  1.
</event>
<event>
 4    1  0.7503339E-002  0.6000000E+02  0.7546771E-02  0.1259629E+00
         11   -1    0    0    0    0  0.00000000000E+00  0.00000000000E+00  0.30000000000E+02  0.30000000000E+02  0.00000000000E+00 0.  1.
        -11   -1    0    0    0    0 -0.00000000000E+00 -0.00000000000E+00 -0.30000000000E+02  0.30000000000E+02  0.00000000000E+00 0. -1.
          5    1    1    2  501    0 -0.13499510363E+02 -0.18357535286E+02 -0.18938693677E+02  0.30000000000E+02  0.47000000000E+01 0. -1.
         -5    1    1    2    0  501  0.13499510363E+02  0.18357535286E+02  0.18938693677E+02  0.30000000000E+02  0.47000000000E+01 0.  1.
</event>
<event>
 4    1  0.7503339E-002  0.6000000E+02  0.7546771E-02  0.1259629E+00
         11   -1    0    0    0    0  0.00000000000E+00  0.00000000000E+00  0.30000000000E+02  0.30000000000E+02  0.00000000000E+00 0. -1.
        -11   -1    0    0    0    0 -0.00000000000E+00 -0.00000000000E+00 -0.30000000000E+02  0.30000000000E+02  0.00000000000E+00 0.  1.
          5    1    1    2  501    0  0.53321985748E+01  0.13754044306E+02 -0.25696379581E+02  0.30000000000E+02  0.47000000000E+01 0.  1.
         -5    1    1    2    0  501 -0.53321985748E+01 -0.13754044306E+02  0.25696379581E+02  0.30000000000E+02  0.47000000000E+01 0. -1.
</event>
<event>
 4    1  0.7503339E-002  0.6000000E+02  0.7546771E-02  0.1259629E+00
         11   -1    0    0    0    0  0.00000000000E+00  0.00000000000E+00  0.30000000000E+02  0.30000000000E+02  0.00000000000E+00 0. -1.
        -11   -1    0    0    0    0 -0.00000000000E+00 -0.00000000000E+00 -0.30000000000E+02  0.30000000000E+02  0.00000000000E+00 0.  1.
          5    1    1    2  501    0 -0.20853624102E+01 -0.29149878574E+02  0.48832205267E+01  0.30000000000E+02  0.47000000000E+01 0. -1.
         -5    1    1    2    0  501  0.20853624102E+01  0.29149878574E+02 -0.48832205267E+01  0.30000000000E+02  0.47000000000E+01 0.  1.
</event>
<event>
 4    1  0.7503339E-002  0.6000000E+02  0.7546771E-02  0.1259629E+00
         11   -1    0    0    0    0  0.00000000000E+00  0.00000000000E+00  0.30000000000E+02  0.30000000000E+02  0.00000000000E+00 0.  1.
        -11   -1    0    0    0    0 -0.00000000000E+00 -0.00000000000E+00 -0.30000000000E+02  0.30000000000E+02  0.00000000000E+00 0. -1.
          5    1    1    2  501    0 -0.11520787253E+02 -0.23394680626E+02 -0.14066640661E+02  0.30000000000E+02  0.47000000000E+01 0. -1.
         -5    1    1    2    0  501  0.11520787253E+02  0.23394680626E+02  0.14066640661E+02  0.30000000000E+02  0.47000000000E+01 0.  1.
</event>
<event>
 4    1  0.7503339E-002  0.6000000E+02  0.7546771E-02  0.1259629E+00
         11   -1    0    0    0    0  0.00000000000E+00  0.00000000000E+00  0.30000000000E+02  0.30000000000E+02  0.00000000000E+00 0.  1.
        -11   -1    0    0    0    0 -0.00000000000E+00 -0.00000000000E+00 -0.30000000000E+02  0.30000000000E+02  0.00000000000E+00 0. -1.
          5    1    1    2  501    0 -0.24813220810E+02 -0.16030263230E+02  0.22901383865E+01  0.30000000000E+02  0.47000000000E+01 0. -1.
         -5    1    1    2    0  501  0.24813220810E+02  0.16030263230E+02 -0.22901383865E+01  0.30000000000E+02  0.47000000000E+01 0.  1.
</event>
<event>
 4    1  0.7503339E-002  0.6000000E+02  0.7546771E-02  0.1259629E+00
         11   -1    0    0    0    0  0.00000000000E+00  0.00000000000E+00  0.30000000000E+02  0.30000000000E+02  0.00000000000E+00 0.  1.
        -11   -1    0    0    0    0 -0.00000000000E+00 -0.00000000000E+00 -0.30000000000E+02  0.30000000000E+02  0.00000000000E+00 0. -1.
          5    1    1    2  501    0 -0.16401404644E+02  0.12332573172E+02 -0.21373150555E+02  0.30000000000E+02  0.47000000000E+01 0. -1.
         -5    1    1    2    0  501  0.16401404644E+02 -0.12332573172E+02  0.21373150555E+02  0.30000000000E+02  0.47000000000E+01 0.  1.
</event>
<event>
 4    1  0.7503339E-002  0.6000000E+02  0.7546771E-02  0.1259629E+00
         11   -1    0    0    0    0  0.00000000000E+00  0.00000000000E+00  0.30000000000E+02  0.30000000000E+02  0.00000000000E+00 0. -1.
        -11   -1    0    0    0    0 -0.00000000000E+00 -0.00000000000E+00 -0.30000000000E+02  0.30000000000E+02  0.00000000000E+00 0.  1.
          5    1    1    2  501    0 -0.22743161400E+02  0.17543697042E+02 -0.72716781868E+01  0.30000000000E+02  0.47000000000E+01 0.  1.
         -5    1    1    2    0  501  0.22743161400E+02 -0.17543697042E+02  0.72716781868E+01  0.30000000000E+02  0.47000000000E+01 0. -1.
</event>
<event>
 4    1  0.7503339E-002  0.6000000E+02  0.7546771E-02  0.1259629E+00
         11   -1    0    0    0    0  0.00000000000E+00  0.00000000000E+00  0.30000000000E+02  0.30000000000E+02  0.00000000000E+00 0.  1.
        -11   -1    0    0    0    0 -0.00000000000E+00 -0.00000000000E+00 -0.30000000000E+02  0.30000000000E+02  0.00000000000E+00 0. -1.
          5    1    1    2  501    0  0.83174251139E+01 -0.27169255249E+02 -0.84001195643E+01  0.30000000000E+02  0.47000000000E+01 0. -1.
         -5    1    1    2    0  501 -0.83174251139E+01  0.27169255249E+02  0.84001195643E+01  0.30000000000E+02  0.47000000000E+01 0.  1.
</event>
<event>
 4    1  0.7503339E-002  0.6000000E+02  0.7546771E-02  0.1259629E+00
         11   -1    0    0    0    0  0.00000000000E+00  0.00000000000E+00  0.30000000000E+02  0.30000000000E+02  0.00000000000E+00 0.  1.
        -11   -1    0    0    0    0 -0.00000000000E+00 -0.00000000000E+00 -0.30000000000E+02  0.30000000000E+02  0.00000000000E+00 0. -1.
          5    1    1    2  501    0 -0.85424332017E+01  0.53495224654E+01 -0.27862509657E+02  0.30000000000E+02  0.47000000000E+01 0. -1.
         -5    1    1    2    0  501  0.85424332017E+01 -0.53495224654E+01  0.27862509657E+02  0.30000000000E+02  0.47000000000E+01 0.  1.
</event>
<event>
 4    1  0.7503339E-002  0.6000000E+02  0.7546771E-02  0.1259629E+00
         11   -1    0    0    0    0  0.00000000000E+00  0.00000000000E+00  0.30000000000E+02  0.30000000000E+02  0.00000000000E+00 0.  1.
        -11   -1    0    0    0    0 -0.00000000000E+00 -0.00000000000E+00 -0.30000000000E+02  0.30000000000E+02  0.00000000000E+00 0. -1.
          5    1    1    2  501    0 -0.14245888543E+01  0.23812111616E+02 -0.17574523805E+02  0.30000000000E+02  0.47000000000E+01 0. -1.
         -5    1    1    2    0  501  0.14245888543E+01 -0.23812111616E+02  0.17574523805E+02  0.30000000000E+02  0.47000000000E+01 0.  1.
</event>
<event>
 4    1  0.7503339E-002  0.6000000E+02  0.7546771E-02  0.1259629E+00
         11   -1    0    0    0    0  0.00000000000E+00  0.00000000000E+00  0.30000000000E+02  0.30000000000E+02  0.00000000000E+00 0.  1.
        -11   -1    0    0    0    0 -0.00000000000E+00 -0.00000000000E+00 -0.30000000000E+02  0.30000000000E+02  0.00000000000E+00 0. -1.
          5    1    1    2  501    0  0.26133314886E+02  0.37299670940E+01 -0.13455378053E+02  0.30000000000E+02  0.47000000000E+01 0. -1.
         -5    1    1    2    0  501 -0.26133314886E+02 -0.37299670940E+01  0.13455378053E+02  0.30000000000E+02  0.47000000000E+01 0.  1.
</event>
<event>
 4    1  0.7503339E-002  0.6000000E+02  0.7546771E-02  0.1259629E+00
         11   -1    0    0    0    0  0.00000000000E+00  0.00000000000E+00  0.30000000000E+02  0.30000000000E+02  0.00000000000E+00 0.  1.
        -11   -1    0    0    0    0 -0.00000000000E+00 -0.00000000000E+00 -0.30000000000E+02  0.30000000000E+02  0.00000000000E+00 0. -1.
          5    1    1    2  501    0 -0.24753327582E+02 -0.12499821929E+02 -0.10437299717E+02  0.30000000000E+02  0.47000000000E+01 0.  1.
         -5    1    1    2    0  501  0.24753327582E+02  0.12499821929E+02  0.10437299717E+02  0.30000000000E+02  0.47000000000E+01 0. -1.
</event>
<event>
 4    1  0.7503339E-002  0.6000000E+02  0.7546771E-02  0.1259629E+00
         11   -1    0    0    0    0  0.00000000000E+00  0.00000000000E+00  0.30000000000E+02  0.30000000000E+02  0.00000000000E+00 0. -1.
        -11   -1    0    0    0    0 -0.00000000000E+00 -0.00000000000E+00 -0.30000000000E+02  0.30000000000E+02  0.00000000000E+00 0.  1.
          5    1    1    2  501    0  0.68361025101E+01 -0.45617368787E+00 -0.28826543463E+02  0.30000000000E+02  0.47000000000E+01 0.  1.
         -5    1    1    2    0  501 -0.68361025101E+01  0.45617368787E+00  0.28826543463E+02  0.30000000000E+02  0.47000000000E+01 0. -1.
</event>
<event>
 4    1  0.7503339E-002  0.6000000E+02  0.7546771E-02  0.1259629E+00
         11   -1    0    0    0    0  0.00000000000E+00  0.00000000000E+00  0.30000000000E+02  0.30000000000E+02  0.00000000000E+00 0. -1.
        -11   -1    0    0    0    0 -0.00000000000E+00 -0.00000000000E+00 -0.30000000000E+02  0.30000000000E+02  0.00000000000E+00 0.  1.
          5    1    1    2  501    0 -0.15903257950E+02  0.18092110998E+02  0.17253170903E+02  0.30000000000E+02  0.47000000000E+01 0.  1.
         -5    1    1    2    0  501  0.15903257950E+02 -0.18092110998E+02 -0.17253170903E+02  0.30000000000E+02  0.47000000000E+01 0. -1.
</event>
<event>
 4    1  0.7503339E-002  0.6000000E+02  0.7546771E-02  0.1259629E+00
         11   -1    0    0    0    0  0.00000000000E+00  0.00000000000E+00  0.30000000000E+02  0.30000000000E+02  0.00000000000E+00 0.  1.
        -11   -1    0    0    0    0 -0.00000000000E+00 -0.00000000000E+00 -0.30000000000E+02  0.30000000000E+02  0.00000000000E+00 0. -1.
          5    1    1    2  501    0 -0.13520338690E+02  0.24574378673E+02 -0.95504112226E+01  0.30000000000E+02  0.47000000000E+01 0. -1.
         -5    1    1    2    0  501  0.13520338690E+02 -0.24574378673E+02  0.95504112226E+01  0.30000000000E+02  0.47000000000E+01 0.  1.
</event>
<event>
 4    1  0.7503339E-002  0.6000000E+02  0.7546771E-02  0.1259629E+00
         11   -1    0    0    0    0  0.00000000000E+00  0.00000000000E+00  0.30000000000E+02  0.30000000000E+02  0.00000000000E+00 0. -1.
        -11   -1    0    0    0    0 -0.00000000000E+00 -0.00000000000E+00 -0.30000000000E+02  0.30000000000E+02  0.00000000000E+00 0.  1.
          5    1    1    2  501    0  0.27169252770E+02 -0.43921348449E+00 -0.11813077306E+02  0.30000000000E+02  0.47000000000E+01 0.  1.
         -5    1    1    2    0  501 -0.27169252770E+02  0.43921348449E+00  0.11813077306E+02  0.30000000000E+02  0.47000000000E+01 0. -1.
</event>
<event>
 4    1  0.7503339E-002  0.6000000E+02  0.7546771E-02  0.1259629E+00
         11   -1    0    0    0    0  0.00000000000E+00  0.00000000000E+00  0.30000000000E+02  0.30000000000E+02  0.00000000000E+00 0.  1.
        -11   -1    0    0    0    0 -0.00000000000E+00 -0.00000000000E+00 -0.30000000000E+02  0.30000000000E+02  0.00000000000E+00 0. -1.
          5    1    1    2  501    0  0.19237632967E+02  0.22453358873E+02 -0.19157643809E+01  0.30000000000E+02  0.47000000000E+01 0. -1.
         -5    1    1    2    0  501 -0.19237632967E+02 -0.22453358873E+02  0.19157643809E+01  0.30000000000E+02  0.47000000000E+01 0.  1.
</event>
<event>
 4    1  0.7503339E-002  0.6000000E+02  0.7546771E-02  0.1259629E+00
         11   -1    0    0    0    0  0.00000000000E+00  0.00000000000E+00  0.30000000000E+02  0.30000000000E+02  0.00000000000E+00 0.  1.
        -11   -1    0    0    0    0 -0.00000000000E+00 -0.00000000000E+00 -0.30000000000E+02  0.30000000000E+02  0.00000000000E+00 0. -1.
          5    1    1    2  501    0 -0.23546182629E+02  0.16374518893E+02 -0.74405923581E+01  0.30000000000E+02  0.47000000000E+01 0. -1.
         -5    1    1    2    0  501  0.23546182629E+02 -0.16374518893E+02  0.74405923581E+01  0.30000000000E+02  0.47000000000E+01 0.  1.
</event>
<event>
 4    1  0.7503339E-002  0.6000000E+02  0.7546771E-02  0.1259629E+00
         11   -1    0    0    0    0  0.00000000000E+00  0.00000000000E+00  0.30000000000E+02  0.30000000000E+02  0.00000000000E+00 0. -1.
        -11   -1    0    0    0    0 -0.00000000000E+00 -0.00000000000E+00 -0.30000000000E+02  0.30000000000E+02  0.00000000000E+00 0.  1.
          5    1    1    2  501    0 -0.38215025954E+01 -0.26891541784E+02  0.11838542916E+02  0.30000000000E+02  0.47000000000E+01 0. -1.
         -5    1    1    2    0  501  0.38215025954E+01  0.26891541784E+02 -0.11838542916E+02  0.30000000000E+02  0.47000000000E+01 0.  1.
</event>
<event>
 4    1  0.7503339E-002  0.6000000E+02  0.7546771E-02  0.1259629E+00
         11   -1    0    0    0    0  0.00000000000E+00  0.00000000000E+00  0.30000000000E+02  0.30000000000E+02  0.00000000000E+00 0. -1.
        -11   -1    0    0    0    0 -0.00000000000E+00 -0.00000000000E+00 -0.30000000000E+02  0.30000000000E+02  0.00000000000E+00 0.  1.
          5    1    1    2  501    0  0.46667251860E+01  0.19679987196E+02  0.21652477456E+02  0.30000000000E+02  0.47000000000E+01 0. -1.
         -5    1    1    2    0  501 -0.46667251860E+01 -0.19679987196E+02 -0.21652477456E+02  0.30000000000E+02  0.47000000000E+01 0.  1.
</event>
<event>
 4    1  0.7503339E-002  0.6000000E+02  0.7546771E-02  0.1259629E+00
         11   -1    0    0    0    0  0.00000000000E+00  0.00000000000E+00  0.30000000000E+02  0.30000000000E+02  0.00000000000E+00 0. -1.
        -11   -1    0    0    0    0 -0.00000000000E+00 -0.00000000000E+00 -0.30000000000E+02  0.30000000000E+02  0.00000000000E+00 0.  1.
          5    1    1    2  501    0 -0.15263105454E+02 -0.21367595513E+02 -0.13724921635E+02  0.30000000000E+02  0.47000000000E+01 0.  1.
         -5    1    1    2    0  501  0.15263105454E+02  0.21367595513E+02  0.13724921635E+02  0.30000000000E+02  0.47000000000E+01 0. -1.
</event>
<event>
 4    1  0.7503339E-002  0.6000000E+02  0.7546771E-02  0.1259629E+00
         11   -1    0    0    0    0  0.00000000000E+00  0.00000000000E+00  0.30000000000E+02  0.30000000000E+02  0.00000000000E+00 0.  1.
        -11   -1    0    0    0    0 -0.00000000000E+00 -0.00000000000E+00 -0.30000000000E+02  0.30000000000E+02  0.00000000000E+00 0. -1.
          5    1    1    2  501    0  0.15354737833E+02  0.85412428372E+01 -0.23857686327E+02  0.30000000000E+02  0.47000000000E+01 0. -1.
         -5    1    1    2    0  501 -0.15354737833E+02 -0.85412428372E+01  0.23857686327E+02  0.30000000000E+02  0.47000000000E+01 0.  1.
</event>
<event>
 4    1  0.7503339E-002  0.6000000E+02  0.7546771E-02  0.1259629E+00
         11   -1    0    0    0    0  0.00000000000E+00  0.00000000000E+00  0.30000000000E+02  0.30000000000E+02  0.00000000000E+00 0.  1.
        -11   -1    0    0    0    0 -0.00000000000E+00 -0.00000000000E+00 -0.30000000000E+02  0.30000000000E+02  0.00000000000E+00 0. -1.
          5    1    1    2  501    0 -0.22378902622E+01  0.23152691740E+02 -0.18353602163E+02  0.30000000000E+02  0.47000000000E+01 0. -1.
         -5    1    1    2    0  501  0.22378902622E+01 -0.23152691740E+02  0.18353602163E+02  0.30000000000E+02  0.47000000000E+01 0.  1.
</event>
<event>
 4    1  0.7503339E-002  0.6000000E+02  0.7546771E-02  0.1259629E+00
         11   -1    0    0    0    0  0.00000000000E+00  0.00000000000E+00  0.30000000000E+02  0.30000000000E+02  0.00000000000E+00 0. -1.
        -11   -1    0    0    0    0 -0.00000000000E+00 -0.00000000000E+00 -0.30000000000E+02  0.30000000000E+02  0.00000000000E+00 0.  1.
          5    1    1    2  501    0  0.10076203783E+01 -0.71599717125E+01 -0.28733769440E+02  0.30000000000E+02  0.47000000000E+01 0.  1.
         -5    1    1    2    0  501 -0.10076203783E+01  0.71599717125E+01  0.28733769440E+02  0.30000000000E+02  0.47000000000E+01 0. -1.
</event>
<event>
 4    1  0.7503339E-002  0.6000000E+02  0.7546771E-02  0.1259629E+00
         11   -1    0    0    0    0  0.00000000000E+00  0.00000000000E+00  0.30000000000E+02  0.30000000000E+02  0.00000000000E+00 0.  1.
        -11   -1    0    0    0    0 -0.00000000000E+00 -0.00000000000E+00 -0.30000000000E+02  0.30000000000E+02  0.00000000000E+00 0. -1.
          5    1    1    2  501    0 -0.16424212494E+02 -0.14547992865E+02  0.19912587666E+02  0.30000000000E+02  0.47000000000E+01 0.  1.
         -5    1    1    2    0  501  0.16424212494E+02  0.14547992865E+02 -0.19912587666E+02  0.30000000000E+02  0.47000000000E+01 0. -1.
</event>
<event>
 4    1  0.7503339E-002  0.6000000E+02  0.7546771E-02  0.1259629E+00
         11   -1    0    0    0    0  0.00000000000E+00  0.00000000000E+00  0.30000000000E+02  0.30000000000E+02  0.00000000000E+00 0.  1.
        -11   -1    0    0    0    0 -0.00000000000E+00 -0.00000000000E+00 -0.30000000000E+02  0.30000000000E+02  0.00000000000E+00 0. -1.
          5    1    1    2  501    0 -0.84327040138E+01  0.64046926916E+01 -0.27672719681E+02  0.30000000000E+02  0.47000000000E+01 0. -1.
         -5    1    1    2    0  501  0.84327040138E+01 -0.64046926916E+01  0.27672719681E+02  0.30000000000E+02  0.47000000000E+01 0.  1.
</event>
<event>
 4    1  0.7503339E-002  0.6000000E+02  0.7546771E-02  0.1259629E+00
         11   -1    0    0    0    0  0.00000000000E+00  0.00000000000E+00  0.30000000000E+02  0.30000000000E+02  0.00000000000E+00 0. -1.
        -11   -1    0    0    0    0 -0.00000000000E+00 -0.00000000000E+00 -0.30000000000E+02  0.30000000000E+02  0.00000000000E+00 0.  1.
          5    1    1    2  501    0  0.11804236121E+02 -0.19391920872E+02 -0.19040047650E+02  0.30000000000E+02  0.47000000000E+01 0.  1.
         -5    1    1    2    0  501 -0.11804236121E+02  0.19391920872E+02  0.19040047650E+02  0.30000000000E+02  0.47000000000E+01 0. -1.
</event>
<event>
 4    1  0.7503339E-002  0.6000000E+02  0.7546771E-02  0.1259629E+00
         11   -1    0    0    0    0  0.00000000000E+00  0.00000000000E+00  0.30000000000E+02  0.30000000000E+02  0.00000000000E+00 0.  1.
        -11   -1    0    0    0    0 -0.00000000000E+00 -0.00000000000E+00 -0.30000000000E+02  0.30000000000E+02  0.00000000000E+00 0. -1.
          5    1    1    2  501    0  0.12135182058E+02  0.18747229353E+02 -0.19472769398E+02  0.30000000000E+02  0.47000000000E+01 0. -1.
         -5    1    1    2    0  501 -0.12135182058E+02 -0.18747229353E+02  0.19472769398E+02  0.30000000000E+02  0.47000000000E+01 0.  1.
</event>
<event>
 4    1  0.7503339E-002  0.6000000E+02  0.7546771E-02  0.1259629E+00
         11   -1    0    0    0    0  0.00000000000E+00  0.00000000000E+00  0.30000000000E+02  0.30000000000E+02  0.00000000000E+00 0.  1.
        -11   -1    0    0    0    0 -0.00000000000E+00 -0.00000000000E+00 -0.30000000000E+02  0.30000000000E+02  0.00000000000E+00 0. -1.
          5    1    1    2  501    0  0.18438953271E+02  0.23192973262E+02  0.31520416556E-01  0.30000000000E+02  0.47000000000E+01 0.  1.
         -5    1    1    2    0  501 -0.18438953271E+02 -0.23192973262E+02 -0.31520416556E-01  0.30000000000E+02  0.47000000000E+01 0. -1.
</event>
<event>
 4    1  0.7503339E-002  0.6000000E+02  0.7546771E-02  0.1259629E+00
         11   -1    0    0    0    0  0.00000000000E+00  0.00000000000E+00  0.30000000000E+02  0.30000000000E+02  0.00000000000E+00 0. -1.
        -11   -1    0    0    0    0 -0.00000000000E+00 -0.00000000000E+00 -0.30000000000E+02  0.30000000000E+02  0.00000000000E+00 0.  1.
          5    1    1    2  501    0 -0.13230839994E+02 -0.76572695169E+00 -0.26500349720E+02  0.30000000000E+02  0.47000000000E+01 0.  1.
         -5    1    1    2    0  501  0.13230839994E+02  0.76572695169E+00  0.26500349720E+02  0.30000000000E+02  0.47000000000E+01 0. -1.
</event>
<event>
 4    1  0.7503339E-002  0.6000000E+02  0.7546771E-02  0.1259629E+00
         11   -1    0    0    0    0  0.00000000000E+00  0.00000000000E+00  0.30000000000E+02  0.30000000000E+02  0.00000000000E+00 0.  1.
        -11   -1    0    0    0    0 -0.00000000000E+00 -0.00000000000E+00 -0.30000000000E+02  0.30000000000E+02  0.00000000000E+00 0. -1.
          5    1    1    2  501    0  0.21505053077E+02 -0.17728137391E+02 -0.10057625803E+02  0.30000000000E+02  0.47000000000E+01 0. -1.
         -5    1    1    2    0  501 -0.21505053077E+02  0.17728137391E+02  0.10057625803E+02  0.30000000000E+02  0.47000000000E+01 0.  1.
</event>
<event>
 4    1  0.7503339E-002  0.6000000E+02  0.7546771E-02  0.1259629E+00
         11   -1    0    0    0    0  0.00000000000E+00  0.00000000000E+00  0.30000000000E+02  0.30000000000E+02  0.00000000000E+00 0.  1.
        -11   -1    0    0    0    0 -0.00000000000E+00 -0.00000000000E+00 -0.30000000000E+02  0.30000000000E+02  0.00000000000E+00 0. -1.
          5    1    1    2  501    0  0.11384959184E+02 -0.27350972737E+02 -0.46582692228E+00  0.30000000000E+02  0.47000000000E+01 0. -1.
         -5    1    1    2    0  501 -0.11384959184E+02  0.27350972737E+02  0.46582692228E+00  0.30000000000E+02  0.47000000000E+01 0.  1.
</event>
<event>
 4    1  0.7503339E-002  0.6000000E+02  0.7546771E-02  0.1259629E+00
         11   -1    0    0    0    0  0.00000000000E+00  0.00000000000E+00  0.30000000000E+02  0.30000000000E+02  0.00000000000E+00 0.  1.
        -11   -1    0    0    0    0 -0.00000000000E+00 -0.00000000000E+00 -0.30000000000E+02  0.30000000000E+02  0.00000000000E+00 0. -1.
          5    1    1    2  501    0  0.13040178264E+02 -0.70629982525E+01 -0.25651078077E+02  0.30000000000E+02  0.47000000000E+01 0. -1.
         -5    1    1    2    0  501 -0.13040178264E+02  0.70629982525E+01  0.25651078077E+02  0.30000000000E+02  0.47000000000E+01 0.  1.
</event>
<event>
 4    1  0.7503339E-002  0.6000000E+02  0.7546771E-02  0.1259629E+00
         11   -1    0    0    0    0  0.00000000000E+00  0.00000000000E+00  0.30000000000E+02  0.30000000000E+02  0.00000000000E+00 0.  1.
        -11   -1    0    0    0    0 -0.00000000000E+00 -0.00000000000E+00 -0.30000000000E+02  0.30000000000E+02  0.00000000000E+00 0. -1.
          5    1    1    2  501    0  0.64046210663E+01  0.27670374837E+02 -0.84404493595E+01  0.30000000000E+02  0.47000000000E+01 0. -1.
         -5    1    1    2    0  501 -0.64046210663E+01 -0.27670374837E+02  0.84404493595E+01  0.30000000000E+02  0.47000000000E+01 0.  1.
</event>
<event>
 4    1  0.7503339E-002  0.6000000E+02  0.7546771E-02  0.1259629E+00
         11   -1    0    0    0    0  0.00000000000E+00  0.00000000000E+00  0.30000000000E+02  0.30000000000E+02  0.00000000000E+00 0.  1.
        -11   -1    0    0    0    0 -0.00000000000E+00 -0.00000000000E+00 -0.30000000000E+02  0.30000000000E+02  0.00000000000E+00 0. -1.
          5    1    1    2  501    0  0.28109172012E+02  0.74335606289E+01  0.57032118281E+01  0.30000000000E+02  0.47000000000E+01 0. -1.
         -5    1    1    2    0  501 -0.28109172012E+02 -0.74335606289E+01 -0.57032118281E+01  0.30000000000E+02  0.47000000000E+01 0.  1.
</event>
<event>
 4    1  0.7503339E-002  0.6000000E+02  0.7546771E-02  0.1259629E+00
         11   -1    0    0    0    0  0.00000000000E+00  0.00000000000E+00  0.30000000000E+02  0.30000000000E+02  0.00000000000E+00 0.  1.
        -11   -1    0    0    0    0 -0.00000000000E+00 -0.00000000000E+00 -0.30000000000E+02  0.30000000000E+02  0.00000000000E+00 0. -1.
          5    1    1    2  501    0 -0.21743404128E+02  0.47680903685E+01 -0.19555042601E+02  0.30000000000E+02  0.47000000000E+01 0. -1.
         -5    1    1    2    0  501  0.21743404128E+02 -0.47680903685E+01  0.19555042601E+02  0.30000000000E+02  0.47000000000E+01 0.  1.
</event>
<event>
 4    1  0.7503339E-002  0.6000000E+02  0.7546771E-02  0.1259629E+00
         11   -1    0    0    0    0  0.00000000000E+00  0.00000000000E+00  0.30000000000E+02  0.30000000000E+02  0.00000000000E+00 0.  1.
        -11   -1    0    0    0    0 -0.00000000000E+00 -0.00000000000E+00 -0.30000000000E+02  0.30000000000E+02  0.00000000000E+00 0. -1.
          5    1    1    2  501    0  0.25482501174E+02 -0.11044153983E+02 -0.10323700727E+02  0.30000000000E+02  0.47000000000E+01 0. -1.
         -5    1    1    2    0  501 -0.25482501174E+02  0.11044153983E+02  0.10323700727E+02  0.30000000000E+02  0.47000000000E+01 0.  1.
</event>
<event>
 4    1  0.7503339E-002  0.6000000E+02  0.7546771E-02  0.1259629E+00
         11   -1    0    0    0    0  0.00000000000E+00  0.00000000000E+00  0.30000000000E+02  0.30000000000E+02  0.00000000000E+00 0. -1.
        -11   -1    0    0    0    0 -0.00000000000E+00 -0.00000000000E+00 -0.30000000000E+02  0.30000000000E+02  0.00000000000E+00 0.  1.
          5    1    1    2  501    0 -0.13760856223E+02 -0.25962264018E+02  0.38091577866E+01  0.30000000000E+02  0.47000000000E+01 0.  1.
         -5    1    1    2    0  501  0.13760856223E+02  0.25962264018E+02 -0.38091577866E+01  0.30000000000E+02  0.47000000000E+01 0. -1.
</event>
<event>
 4    1  0.7503339E-002  0.6000000E+02  0.7546771E-02  0.1259629E+00
         11   -1    0    0    0    0  0.00000000000E+00  0.00000000000E+00  0.30000000000E+02  0.30000000000E+02  0.00000000000E+00 0.  1.
        -11   -1    0    0    0    0 -0.00000000000E+00 -0.00000000000E+00 -0.30000000000E+02  0.30000000000E+02  0.00000000000E+00 0. -1.
          5    1    1    2  501    0 -0.65761253676E+00 -0.28192882969E+02 -0.90905937994E+01  0.30000000000E+02  0.47000000000E+01 0. -1.
         -5    1    1    2    0  501  0.65761253676E+00  0.28192882969E+02  0.90905937994E+01  0.30000000000E+02  0.47000000000E+01 0.  1.
</event>
<event>
 4    1  0.7503339E-002  0.6000000E+02  0.7546771E-02  0.1259629E+00
         11   -1    0    0    0    0  0.00000000000E+00  0.00000000000E+00  0.30000000000E+02  0.30000000000E+02  0.00000000000E+00 0.  1.
        -11   -1    0    0    0    0 -0.00000000000E+00 -0.00000000000E+00 -0.30000000000E+02  0.30000000000E+02  0.00000000000E+00 0. -1.
          5    1    1    2  501    0  0.98803758515E+01  0.20393846383E+01 -0.27859093369E+02  0.30000000000E+02  0.47000000000E+01 0. -1.
         -5    1    1    2    0  501 -0.98803758515E+01 -0.20393846383E+01  0.27859093369E+02  0.30000000000E+02  0.47000000000E+01 0.  1.
</event>
<event>
 4    1  0.7503339E-002  0.6000000E+02  0.7546771E-02  0.1259629E+00
         11   -1    0    0    0    0  0.00000000000E+00  0.00000000000E+00  0.30000000000E+02  0.30000000000E+02  0.00000000000E+00 0.  1.
        -11   -1    0    0    0    0 -0.00000000000E+00 -0.00000000000E+00 -0.30000000000E+02  0.30000000000E+02  0.00000000000E+00 0. -1.
          5    1    1    2  501    0  0.24949732642E+02 -0.46039608174E+01  0.15304391065E+02  0.30000000000E+02  0.47000000000E+01 0.  1.
         -5    1    1    2    0  501 -0.24949732642E+02  0.46039608174E+01 -0.15304391065E+02  0.30000000000E+02  0.47000000000E+01 0. -1.
</event>
<event>
 4    1  0.7503339E-002  0.6000000E+02  0.7546771E-02  0.1259629E+00
         11   -1    0    0    0    0  0.00000000000E+00  0.00000000000E+00  0.30000000000E+02  0.30000000000E+02  0.00000000000E+00 0.  1.
        -11   -1    0    0    0    0 -0.00000000000E+00 -0.00000000000E+00 -0.30000000000E+02  0.30000000000E+02  0.00000000000E+00 0. -1.
          5    1    1    2  501    0 -0.23452864570E+01 -0.74453343149E+01 -0.28582803018E+02  0.30000000000E+02  0.47000000000E+01 0. -1.
         -5    1    1    2    0  501  0.23452864570E+01  0.74453343149E+01  0.28582803018E+02  0.30000000000E+02  0.47000000000E+01 0.  1.
</event>
<event>
 4    1  0.7503339E-002  0.6000000E+02  0.7546771E-02  0.1259629E+00
         11   -1    0    0    0    0  0.00000000000E+00  0.00000000000E+00  0.30000000000E+02  0.30000000000E+02  0.00000000000E+00 0.  1.
        -11   -1    0    0    0    0 -0.00000000000E+00 -0.00000000000E+00 -0.30000000000E+02  0.30000000000E+02  0.00000000000E+00 0. -1.
          5    1    1    2  501    0 -0.13933224238E+02  0.52884745970E+01 -0.25608734814E+02  0.30000000000E+02  0.47000000000E+01 0. -1.
         -5    1    1    2    0  501  0.13933224238E+02 -0.52884745970E+01  0.25608734814E+02  0.30000000000E+02  0.47000000000E+01 0.  1.
</event>
<event>
 4    1  0.7503339E-002  0.6000000E+02  0.7546771E-02  0.1259629E+00
         11   -1    0    0    0    0  0.00000000000E+00  0.00000000000E+00  0.30000000000E+02  0.30000000000E+02  0.00000000000E+00 0. -1.
        -11   -1    0    0    0    0 -0.00000000000E+00 -0.00000000000E+00 -0.30000000000E+02  0.30000000000E+02  0.00000000000E+00 0.  1.
          5    1    1    2  501    0  0.15768159526E+01 -0.37193084613E+01 -0.29352860100E+02  0.30000000000E+02  0.47000000000E+01 0.  1.
         -5    1    1    2    0  501 -0.15768159526E+01  0.37193084613E+01  0.29352860100E+02  0.30000000000E+02  0.47000000000E+01 0. -1.
</event>
<event>
 4    1  0.7503339E-002  0.6000000E+02  0.7546771E-02  0.1259629E+00
         11   -1    0    0    0    0  0.00000000000E+00  0.00000000000E+00  0.30000000000E+02  0.30000000000E+02  0.00000000000E+00 0.  1.
        -11   -1    0    0    0    0 -0.00000000000E+00 -0.00000000000E+00 -0.30000000000E+02  0.30000000000E+02  0.00000000000E+00 0. -1.
          5    1    1    2  501    0 -0.23874512333E+01 -0.17974479418E+02 -0.23433483870E+02  0.30000000000E+02  0.47000000000E+01 0. -1.
         -5    1    1    2    0  501  0.23874512333E+01  0.17974479418E+02  0.23433483870E+02  0.30000000000E+02  0.47000000000E+01 0.  1.
</event>
<event>
 4    1  0.7503339E-002  0.6000000E+02  0.7546771E-02  0.1259629E+00
         11   -1    0    0    0    0  0.00000000000E+00  0.00000000000E+00  0.30000000000E+02  0.30000000000E+02  0.00000000000E+00 0.  1.
        -11   -1    0    0    0    0 -0.00000000000E+00 -0.00000000000E+00 -0.30000000000E+02  0.30000000000E+02  0.00000000000E+00 0. -1.
          5    1    1    2  501    0  0.15149934861E+02  0.66569708176E+01 -0.24577921255E+02  0.30000000000E+02  0.47000000000E+01 0. -1.
         -5    1    1    2    0  501 -0.15149934861E+02 -0.66569708176E+01  0.24577921255E+02  0.30000000000E+02  0.47000000000E+01 0.  1.
</event>
<event>
 4    1  0.7503339E-002  0.6000000E+02  0.7546771E-02  0.1259629E+00
         11   -1    0    0    0    0  0.00000000000E+00  0.00000000000E+00  0.30000000000E+02  0.30000000000E+02  0.00000000000E+00 0.  1.
        -11   -1    0    0    0    0 -0.00000000000E+00 -0.00000000000E+00 -0.30000000000E+02  0.30000000000E+02  0.00000000000E+00 0. -1.
          5    1    1    2  501    0  0.14319395392E+02 -0.25116203028E+02  0.64839232790E+01  0.30000000000E+02  0.47000000000E+01 0. -1.
         -5    1    1    2    0  501 -0.14319395392E+02  0.25116203028E+02 -0.64839232790E+01  0.30000000000E+02  0.47000000000E+01 0.  1.
</event>
<event>
 4    1  0.7503339E-002  0.6000000E+02  0.7546771E-02  0.1259629E+00
         11   -1    0    0    0    0  0.00000000000E+00  0.00000000000E+00  0.30000000000E+02  0.30000000000E+02  0.00000000000E+00 0.  1.
        -11   -1    0    0    0    0 -0.00000000000E+00 -0.00000000000E+00 -0.30000000000E+02  0.30000000000E+02  0.00000000000E+00 0. -1.
          5    1    1    2  501    0 -0.28841518321E+02 -0.52993350412E+01 -0.42419180859E+01  0.30000000000E+02  0.47000000000E+01 0. -1.
         -5    1    1    2    0  501  0.28841518321E+02  0.52993350412E+01  0.42419180859E+01  0.30000000000E+02  0.47000000000E+01 0.  1.
</event>
<event>
 4    1  0.7503339E-002  0.6000000E+02  0.7546771E-02  0.1259629E+00
         11   -1    0    0    0    0  0.00000000000E+00  0.00000000000E+00  0.30000000000E+02  0.30000000000E+02  0.00000000000E+00 0.  1.
        -11   -1    0    0    0    0 -0.00000000000E+00 -0.00000000000E+00 -0.30000000000E+02  0.30000000000E+02  0.00000000000E+00 0. -1.
          5    1    1    2  501    0  0.48996547748E+01  0.28367619988E+02 -0.70129536804E+01  0.30000000000E+02  0.47000000000E+01 0.  1.
         -5    1    1    2    0  501 -0.48996547748E+01 -0.28367619988E+02  0.70129536804E+01  0.30000000000E+02  0.47000000000E+01 0. -1.
</event>
<event>
 4    1  0.7503339E-002  0.6000000E+02  0.7546771E-02  0.1259629E+00
         11   -1    0    0    0    0  0.00000000000E+00  0.00000000000E+00  0.30000000000E+02  0.30000000000E+02  0.00000000000E+00 0. -1.
        -11   -1    0    0    0    0 -0.00000000000E+00 -0.00000000000E+00 -0.30000000000E+02  0.30000000000E+02  0.00000000000E+00 0.  1.
          5    1    1    2  501    0  0.21311801240E+02  0.19013360256E+02 -0.78872846818E+01  0.30000000000E+02  0.47000000000E+01 0.  1.
         -5    1    1    2    0  501 -0.21311801240E+02 -0.19013360256E+02  0.78872846818E+01  0.30000000000E+02  0.47000000000E+01 0. -1.
</event>
<event>
 4    1  0.7503339E-002  0.6000000E+02  0.7546771E-02  0.1259629E+00
         11   -1    0    0    0    0  0.00000000000E+00  0.00000000000E+00  0.30000000000E+02  0.30000000000E+02  0.00000000000E+00 0. -1.
        -11   -1    0    0    0    0 -0.00000000000E+00 -0.00000000000E+00 -0.30000000000E+02  0.30000000000E+02  0.00000000000E+00 0.  1.
          5    1    1    2  501    0 -0.53181909977E+01 -0.19886214953E+02 -0.21311154341E+02  0.30000000000E+02  0.47000000000E+01 0.  1.
         -5    1    1    2    0  501  0.53181909977E+01  0.19886214953E+02  0.21311154341E+02  0.30000000000E+02  0.47000000000E+01 0. -1.
</event>
<event>
 4    1  0.7503339E-002  0.6000000E+02  0.7546771E-02  0.1259629E+00
         11   -1    0    0    0    0  0.00000000000E+00  0.00000000000E+00  0.30000000000E+02  0.30000000000E+02  0.00000000000E+00 0.  1.
        -11   -1    0    0    0    0 -0.00000000000E+00 -0.00000000000E+00 -0.30000000000E+02  0.30000000000E+02  0.00000000000E+00 0. -1.
          5    1    1    2  501    0 -0.25230827606E+02  0.58788192085E+01 -0.14378971557E+02  0.30000000000E+02  0.47000000000E+01 0. -1.
         -5    1    1    2    0  501  0.25230827606E+02 -0.58788192085E+01  0.14378971557E+02  0.30000000000E+02  0.47000000000E+01 0.  1.
</event>
<event>
 4    1  0.7503339E-002  0.6000000E+02  0.7546771E-02  0.1259629E+00
         11   -1    0    0    0    0  0.00000000000E+00  0.00000000000E+00  0.30000000000E+02  0.30000000000E+02  0.00000000000E+00 0. -1.
        -11   -1    0    0    0    0 -0.00000000000E+00 -0.00000000000E+00 -0.30000000000E+02  0.30000000000E+02  0.00000000000E+00 0.  1.
          5    1    1    2  501    0 -0.19970769610E+02  0.15546652441E+01  0.21832576054E+02  0.30000000000E+02  0.47000000000E+01 0.  1.
         -5    1    1    2    0  501  0.19970769610E+02 -0.15546652441E+01 -0.21832576054E+02  0.30000000000E+02  0.47000000000E+01 0. -1.
</event>
<event>
 4    1  0.7503339E-002  0.6000000E+02  0.7546771E-02  0.1259629E+00
         11   -1    0    0    0    0  0.00000000000E+00  0.00000000000E+00  0.30000000000E+02  0.30000000000E+02  0.00000000000E+00 0.  1.
        -11   -1    0    0    0    0 -0.00000000000E+00 -0.00000000000E+00 -0.30000000000E+02  0.30000000000E+02  0.00000000000E+00 0. -1.
          5    1    1    2  501    0  0.27740992793E+02 -0.96874863091E+01  0.38078770826E+01  0.30000000000E+02  0.47000000000E+01 0. -1.
         -5    1    1    2    0  501 -0.27740992793E+02  0.96874863091E+01 -0.38078770826E+01  0.30000000000E+02  0.47000000000E+01 0.  1.
</event>
<event>
 4    1  0.7503339E-002  0.6000000E+02  0.7546771E-02  0.1259629E+00
         11   -1    0    0    0    0  0.00000000000E+00  0.00000000000E+00  0.30000000000E+02  0.30000000000E+02  0.00000000000E+00 0.  1.
        -11   -1    0    0    0    0 -0.00000000000E+00 -0.00000000000E+00 -0.30000000000E+02  0.30000000000E+02  0.00000000000E+00 0. -1.
          5    1    1    2  501    0 -0.77703341180E+01  0.13793459827E+02 -0.25045406240E+02  0.30000000000E+02  0.47000000000E+01 0. -1.
         -5    1    1    2    0  501  0.77703341180E+01 -0.13793459827E+02  0.25045406240E+02  0.30000000000E+02  0.47000000000E+01 0.  1.
</event>
<event>
 4    1  0.7503339E-002  0.6000000E+02  0.7546771E-02  0.1259629E+00
         11   -1    0    0    0    0  0.00000000000E+00  0.00000000000E+00  0.30000000000E+02  0.30000000000E+02  0.00000000000E+00 0.  1.
        -11   -1    0    0    0    0 -0.00000000000E+00 -0.00000000000E+00 -0.30000000000E+02  0.30000000000E+02  0.00000000000E+00 0. -1.
          5    1    1    2  501    0  0.20064737345E+02 -0.52663757490E+01 -0.21156124450E+02  0.30000000000E+02  0.47000000000E+01 0. -1.
         -5    1    1    2    0  501 -0.20064737345E+02  0.52663757490E+01  0.21156124450E+02  0.30000000000E+02  0.47000000000E+01 0.  1.
</event>
<event>
 4    1  0.7503339E-002  0.6000000E+02  0.7546771E-02  0.1259629E+00
         11   -1    0    0    0    0  0.00000000000E+00  0.00000000000E+00  0.30000000000E+02  0.30000000000E+02  0.00000000000E+00 0.  1.
        -11   -1    0    0    0    0 -0.00000000000E+00 -0.00000000000E+00 -0.30000000000E+02  0.30000000000E+02  0.00000000000E+00 0. -1.
          5    1    1    2  501    0  0.45707449782E+01  0.24595317325E+02 -0.15877300022E+02  0.30000000000E+02  0.47000000000E+01 0. -1.
         -5    1    1    2    0  501 -0.45707449782E+01 -0.24595317325E+02  0.15877300022E+02  0.30000000000E+02  0.47000000000E+01 0.  1.
</event>
<event>
 4    1  0.7503339E-002  0.6000000E+02  0.7546771E-02  0.1259629E+00
         11   -1    0    0    0    0  0.00000000000E+00  0.00000000000E+00  0.30000000000E+02  0.30000000000E+02  0.00000000000E+00 0.  1.
        -11   -1    0    0    0    0 -0.00000000000E+00 -0.00000000000E+00 -0.30000000000E+02  0.30000000000E+02  0.00000000000E+00 0. -1.
          5    1    1    2  501    0 -0.11417790382E+02  0.38857051103E+00  0.27338490736E+02  0.30000000000E+02  0.47000000000E+01 0.  1.
         -5    1    1    2    0  501  0.11417790382E+02 -0.38857051103E+00 -0.27338490736E+02  0.30000000000E+02  0.47000000000E+01 0. -1.
</event>
<event>
 4    1  0.7503339E-002  0.6000000E+02  0.7546771E-02  0.1259629E+00
         11   -1    0    0    0    0  0.00000000000E+00  0.00000000000E+00  0.30000000000E+02  0.30000000000E+02  0.00000000000E+00 0.  1.
        -11   -1    0    0    0    0 -0.00000000000E+00 -0.00000000000E+00 -0.30000000000E+02  0.30000000000E+02  0.00000000000E+00 0. -1.
          5    1    1    2  501    0  0.19024617957E+02  0.33570606253E+01 -0.22465619412E+02  0.30000000000E+02  0.47000000000E+01 0. -1.
         -5    1    1    2    0  501 -0.19024617957E+02 -0.33570606253E+01  0.22465619412E+02  0.30000000000E+02  0.47000000000E+01 0.  1.
</event>
<event>
 4    1  0.7503339E-002  0.6000000E+02  0.7546771E-02  0.1259629E+00
         11   -1    0    0    0    0  0.00000000000E+00  0.00000000000E+00  0.30000000000E+02  0.30000000000E+02  0.00000000000E+00 0.  1.
        -11   -1    0    0    0    0 -0.00000000000E+00 -0.00000000000E+00 -0.30000000000E+02  0.30000000000E+02  0.00000000000E+00 0. -1.
          5    1    1    2  501    0 -0.33443311220E+01 -0.15065469080E+02 -0.25293419910E+02  0.30000000000E+02  0.47000000000E+01 0. -1.
         -5    1    1    2    0  501  0.33443311220E+01  0.15065469080E+02  0.25293419910E+02  0.30000000000E+02  0.47000000000E+01 0.  1.
</event>
<event>
 4    1  0.7503339E-002  0.6000000E+02  0.7546771E-02  0.1259629E+00
         11   -1    0    0    0    0  0.00000000000E+00  0.00000000000E+00  0.30000000000E+02  0.30000000000E+02  0.00000000000E+00 0. -1.
        -11   -1    0    0    0    0 -0.00000000000E+00 -0.00000000000E+00 -0.30000000000E+02  0.30000000000E+02  0.00000000000E+00 0.  1.
          5    1    1    2  501    0  0.74834969213E+01  0.28668785122E+02  0.89629619190E-01  0.30000000000E+02  0.47000000000E+01 0.  1.
         -5    1    1    2    0  501 -0.74834969213E+01 -0.28668785122E+02 -0.89629619190E-01  0.30000000000E+02  0.47000000000E+01 0. -1.
</event>
<event>
 4    1  0.7503339E-002  0.6000000E+02  0.7546771E-02  0.1259629E+00
         11   -1    0    0    0    0  0.00000000000E+00  0.00000000000E+00  0.30000000000E+02  0.30000000000E+02  0.00000000000E+00 0. -1.
        -11   -1    0    0    0    0 -0.00000000000E+00 -0.00000000000E+00 -0.30000000000E+02  0.30000000000E+02  0.00000000000E+00 0.  1.
          5    1    1    2  501    0 -0.10029695009E+02  0.10597877202E+00 -0.27880171924E+02  0.30000000000E+02  0.47000000000E+01 0.  1.
         -5    1    1    2    0  501  0.10029695009E+02 -0.10597877202E+00  0.27880171924E+02  0.30000000000E+02  0.47000000000E+01 0. -1.
</event>
<event>
 4    1  0.7503339E-002  0.6000000E+02  0.7546771E-02  0.1259629E+00
         11   -1    0    0    0    0  0.00000000000E+00  0.00000000000E+00  0.30000000000E+02  0.30000000000E+02  0.00000000000E+00 0. -1.
        -11   -1    0    0    0    0 -0.00000000000E+00 -0.00000000000E+00 -0.30000000000E+02  0.30000000000E+02  0.00000000000E+00 0.  1.
          5    1    1    2  501    0  0.78393777422E+01 -0.20216457811E+02  0.20192795502E+02  0.30000000000E+02  0.47000000000E+01 0. -1.
         -5    1    1    2    0  501 -0.78393777422E+01  0.20216457811E+02 -0.20192795502E+02  0.30000000000E+02  0.47000000000E+01 0.  1.
</event>
<event>
 4    1  0.7503339E-002  0.6000000E+02  0.7546771E-02  0.1259629E+00
         11   -1    0    0    0    0  0.00000000000E+00  0.00000000000E+00  0.30000000000E+02  0.30000000000E+02  0.00000000000E+00 0. -1.
        -11   -1    0    0    0    0 -0.00000000000E+00 -0.00000000000E+00 -0.30000000000E+02  0.30000000000E+02  0.00000000000E+00 0.  1.
          5    1    1    2  501    0  0.21704599395E+02 -0.23106293536E+01 -0.20036999703E+02  0.30000000000E+02  0.47000000000E+01 0.  1.
         -5    1    1    2    0  501 -0.21704599395E+02  0.23106293536E+01  0.20036999703E+02  0.30000000000E+02  0.47000000000E+01 0. -1.
</event>
<event>
 4    1  0.7503339E-002  0.6000000E+02  0.7546771E-02  0.1259629E+00
         11   -1    0    0    0    0  0.00000000000E+00  0.00000000000E+00  0.30000000000E+02  0.30000000000E+02  0.00000000000E+00 0.  1.
        -11   -1    0    0    0    0 -0.00000000000E+00 -0.00000000000E+00 -0.30000000000E+02  0.30000000000E+02  0.00000000000E+00 0. -1.
          5    1    1    2  501    0 -0.24725071423E+02 -0.82736543182E+01 -0.14075776617E+02  0.30000000000E+02  0.47000000000E+01 0. -1.
         -5    1    1    2    0  501  0.24725071423E+02  0.82736543182E+01  0.14075776617E+02  0.30000000000E+02  0.47000000000E+01 0.  1.
</event>
<event>
 4    1  0.7503339E-002  0.6000000E+02  0.7546771E-02  0.1259629E+00
         11   -1    0    0    0    0  0.00000000000E+00  0.00000000000E+00  0.30000000000E+02  0.30000000000E+02  0.00000000000E+00 0. -1.
        -11   -1    0    0    0    0 -0.00000000000E+00 -0.00000000000E+00 -0.30000000000E+02  0.30000000000E+02  0.00000000000E+00 0.  1.
          5    1    1    2  501    0 -0.24260491457E+01 -0.17753618905E+02 -0.23597315553E+02  0.30000000000E+02  0.47000000000E+01 0.  1.
         -5    1    1    2    0  501  0.24260491457E+01  0.17753618905E+02  0.23597315553E+02  0.30000000000E+02  0.47000000000E+01 0. -1.
</event>
<event>
 4    1  0.7503339E-002  0.6000000E+02  0.7546771E-02  0.1259629E+00
         11   -1    0    0    0    0  0.00000000000E+00  0.00000000000E+00  0.30000000000E+02  0.30000000000E+02  0.00000000000E+00 0. -1.
        -11   -1    0    0    0    0 -0.00000000000E+00 -0.00000000000E+00 -0.30000000000E+02  0.30000000000E+02  0.00000000000E+00 0.  1.
          5    1    1    2  501    0 -0.17774296972E+02  0.23631875045E+02 -0.18758595382E+01  0.30000000000E+02  0.47000000000E+01 0.  1.
         -5    1    1    2    0  501  0.17774296972E+02 -0.23631875045E+02  0.18758595382E+01  0.30000000000E+02  0.47000000000E+01 0. -1.
</event>
<event>
 4    1  0.7503339E-002  0.6000000E+02  0.7546771E-02  0.1259629E+00
         11   -1    0    0    0    0  0.00000000000E+00  0.00000000000E+00  0.30000000000E+02  0.30000000000E+02  0.00000000000E+00 0. -1.
        -11   -1    0    0    0    0 -0.00000000000E+00 -0.00000000000E+00 -0.30000000000E+02  0.30000000000E+02  0.00000000000E+00 0.  1.
          5    1    1    2  501    0  0.13502247195E+02 -0.15544990559E+02 -0.21306163174E+02  0.30000000000E+02  0.47000000000E+01 0.  1.
         -5    1    1    2    0  501 -0.13502247195E+02  0.15544990559E+02  0.21306163174E+02  0.30000000000E+02  0.47000000000E+01 0. -1.
</event>
<event>
 4    1  0.7503339E-002  0.6000000E+02  0.7546771E-02  0.1259629E+00
         11   -1    0    0    0    0  0.00000000000E+00  0.00000000000E+00  0.30000000000E+02  0.30000000000E+02  0.00000000000E+00 0. -1.
        -11   -1    0    0    0    0 -0.00000000000E+00 -0.00000000000E+00 -0.30000000000E+02  0.30000000000E+02  0.00000000000E+00 0.  1.
          5    1    1    2  501    0  0.24199547815E+02 -0.29472457222E+01 -0.16840594651E+02  0.30000000000E+02  0.47000000000E+01 0.  1.
         -5    1    1    2    0  501 -0.24199547815E+02  0.29472457222E+01  0.16840594651E+02  0.30000000000E+02  0.47000000000E+01 0. -1.
</event>
<event>
 4    1  0.7503339E-002  0.6000000E+02  0.7546771E-02  0.1259629E+00
         11   -1    0    0    0    0  0.00000000000E+00  0.00000000000E+00  0.30000000000E+02  0.30000000000E+02  0.00000000000E+00 0.  1.
        -11   -1    0    0    0    0 -0.00000000000E+00 -0.00000000000E+00 -0.30000000000E+02  0.30000000000E+02  0.00000000000E+00 0. -1.
          5    1    1    2  501    0  0.16579683640E+02 -0.21501861507E+02 -0.11861451940E+02  0.30000000000E+02  0.47000000000E+01 0. -1.
         -5    1    1    2    0  501 -0.16579683640E+02  0.21501861507E+02  0.11861451940E+02  0.30000000000E+02  0.47000000000E+01 0.  1.
</event>
<event>
 4    1  0.7503339E-002  0.6000000E+02  0.7546771E-02  0.1259629E+00
         11   -1    0    0    0    0  0.00000000000E+00  0.00000000000E+00  0.30000000000E+02  0.30000000000E+02  0.00000000000E+00 0.  1.
        -11   -1    0    0    0    0 -0.00000000000E+00 -0.00000000000E+00 -0.30000000000E+02  0.30000000000E+02  0.00000000000E+00 0. -1.
          5    1    1    2  501    0 -0.11730707840E+02 -0.17606497299E+02 -0.20743956866E+02  0.30000000000E+02  0.47000000000E+01 0. -1.
         -5    1    1    2    0  501  0.11730707840E+02  0.17606497299E+02  0.20743956866E+02  0.30000000000E+02  0.47000000000E+01 0.  1.
</event>
<event>
 4    1  0.7503339E-002  0.6000000E+02  0.7546771E-02  0.1259629E+00
         11   -1    0    0    0    0  0.00000000000E+00  0.00000000000E+00  0.30000000000E+02  0.30000000000E+02  0.00000000000E+00 0.  1.
        -11   -1    0    0    0    0 -0.00000000000E+00 -0.00000000000E+00 -0.30000000000E+02  0.30000000000E+02  0.00000000000E+00 0. -1.
          5    1    1    2  501    0 -0.27885107075E+01  0.14059240642E+02 -0.25932064333E+02  0.30000000000E+02  0.47000000000E+01 0. -1.
         -5    1    1    2    0  501  0.27885107075E+01 -0.14059240642E+02  0.25932064333E+02  0.30000000000E+02  0.47000000000E+01 0.  1.
</event>
<event>
 4    1  0.7503339E-002  0.6000000E+02  0.7546771E-02  0.1259629E+00
         11   -1    0    0    0    0  0.00000000000E+00  0.00000000000E+00  0.30000000000E+02  0.30000000000E+02  0.00000000000E+00 0.  1.
        -11   -1    0    0    0    0 -0.00000000000E+00 -0.00000000000E+00 -0.30000000000E+02  0.30000000000E+02  0.00000000000E+00 0. -1.
          5    1    1    2  501    0  0.22104170780E+02 -0.13437837558E+02 -0.14447842603E+02  0.30000000000E+02  0.47000000000E+01 0. -1.
         -5    1    1    2    0  501 -0.22104170780E+02  0.13437837558E+02  0.14447842603E+02  0.30000000000E+02  0.47000000000E+01 0.  1.
</event>
<event>
 4    1  0.7503339E-002  0.6000000E+02  0.7546771E-02  0.1259629E+00
         11   -1    0    0    0    0  0.00000000000E+00  0.00000000000E+00  0.30000000000E+02  0.30000000000E+02  0.00000000000E+00 0.  1.
        -11   -1    0    0    0    0 -0.00000000000E+00 -0.00000000000E+00 -0.30000000000E+02  0.30000000000E+02  0.00000000000E+00 0. -1.
          5    1    1    2  501    0 -0.17017383539E+02 -0.17795069218E+02 -0.16481934626E+02  0.30000000000E+02  0.47000000000E+01 0. -1.
         -5    1    1    2    0  501  0.17017383539E+02  0.17795069218E+02  0.16481934626E+02  0.30000000000E+02  0.47000000000E+01 0.  1.
</event>
<event>
 4    1  0.7503339E-002  0.6000000E+02  0.7546771E-02  0.1259629E+00
         11   -1    0    0    0    0  0.00000000000E+00  0.00000000000E+00  0.30000000000E+02  0.30000000000E+02  0.00000000000E+00 0. -1.
        -11   -1    0    0    0    0 -0.00000000000E+00 -0.00000000000E+00 -0.30000000000E+02  0.30000000000E+02  0.00000000000E+00 0.  1.
          5    1    1    2  501    0  0.18504438754E+02 -0.58973994796E+00  0.23133265078E+02  0.30000000000E+02  0.47000000000E+01 0.  1.
         -5    1    1    2    0  501 -0.18504438754E+02  0.58973994796E+00 -0.23133265078E+02  0.30000000000E+02  0.47000000000E+01 0. -1.
</event>
<event>
 4    1  0.7503339E-002  0.6000000E+02  0.7546771E-02  0.1259629E+00
         11   -1    0    0    0    0  0.00000000000E+00  0.00000000000E+00  0.30000000000E+02  0.30000000000E+02  0.00000000000E+00 0.  1.
        -11   -1    0    0    0    0 -0.00000000000E+00 -0.00000000000E+00 -0.30000000000E+02  0.30000000000E+02  0.00000000000E+00 0. -1.
          5    1    1    2  501    0 -0.92259766563E+01  0.64045928754E+01 -0.27418470870E+02  0.30000000000E+02  0.47000000000E+01 0. -1.
         -5    1    1    2    0  501  0.92259766563E+01 -0.64045928754E+01  0.27418470870E+02  0.30000000000E+02  0.47000000000E+01 0.  1.
</event>
<event>
 4    1  0.7503339E-002  0.6000000E+02  0.7546771E-02  0.1259629E+00
         11   -1    0    0    0    0  0.00000000000E+00  0.00000000000E+00  0.30000000000E+02  0.30000000000E+02  0.00000000000E+00 0.  1.
        -11   -1    0    0    0    0 -0.00000000000E+00 -0.00000000000E+00 -0.30000000000E+02  0.30000000000E+02  0.00000000000E+00 0. -1.
          5    1    1    2  501    0  0.34489598739E+01  0.20947004292E+02 -0.20669728759E+02  0.30000000000E+02  0.47000000000E+01 0. -1.
         -5    1    1    2    0  501 -0.34489598739E+01 -0.20947004292E+02  0.20669728759E+02  0.30000000000E+02  0.47000000000E+01 0.  1.
</event>
<event>
 4    1  0.7503339E-002  0.6000000E+02  0.7546771E-02  0.1259629E+00
         11   -1    0    0    0    0  0.00000000000E+00  0.00000000000E+00  0.30000000000E+02  0.30000000000E+02  0.00000000000E+00 0. -1.
        -11   -1    0    0    0    0 -0.00000000000E+00 -0.00000000000E+00 -0.30000000000E+02  0.30000000000E+02  0.00000000000E+00 0.  1.
          5    1    1    2  501    0 -0.88981670947E+01 -0.16365811657E+02 -0.23041111761E+02  0.30000000000E+02  0.47000000000E+01 0.  1.
         -5    1    1    2    0  501  0.88981670947E+01  0.16365811657E+02  0.23041111761E+02  0.30000000000E+02  0.47000000000E+01 0. -1.
</event>
<event>
 4    1  0.7503339E-002  0.6000000E+02  0.7546771E-02  0.1259629E+00
         11   -1    0    0    0    0  0.00000000000E+00  0.00000000000E+00  0.30000000000E+02  0.30000000000E+02  0.00000000000E+00 0.  1.
        -11   -1    0    0    0    0 -0.00000000000E+00 -0.00000000000E+00 -0.30000000000E+02  0.30000000000E+02  0.00000000000E+00 0. -1.
          5    1    1    2  501    0 -0.22120230651E+02 -0.18821281065E+02 -0.58621476438E+01  0.30000000000E+02  0.47000000000E+01 0. -1.
         -5    1    1    2    0  501  0.22120230651E+02  0.18821281065E+02  0.58621476438E+01  0.30000000000E+02  0.47000000000E+01 0.  1.
</event>
<event>
 4    1  0.7503339E-002  0.6000000E+02  0.7546771E-02  0.1259629E+00
         11   -1    0    0    0    0  0.00000000000E+00  0.00000000000E+00  0.30000000000E+02  0.30000000000E+02  0.00000000000E+00 0. -1.
        -11   -1    0    0    0    0 -0.00000000000E+00 -0.00000000000E+00 -0.30000000000E+02  0.30000000000E+02  0.00000000000E+00 0.  1.
          5    1    1    2  501    0 -0.38653156622E+01  0.21621862560E+02 -0.19886286588E+02  0.30000000000E+02  0.47000000000E+01 0.  1.
         -5    1    1    2    0  501  0.38653156622E+01 -0.21621862560E+02  0.19886286588E+02  0.30000000000E+02  0.47000000000E+01 0. -1.
</event>
<event>
 4    1  0.7503339E-002  0.6000000E+02  0.7546771E-02  0.1259629E+00
         11   -1    0    0    0    0  0.00000000000E+00  0.00000000000E+00  0.30000000000E+02  0.30000000000E+02  0.00000000000E+00 0.  1.
        -11   -1    0    0    0    0 -0.00000000000E+00 -0.00000000000E+00 -0.30000000000E+02  0.30000000000E+02  0.00000000000E+00 0. -1.
          5    1    1    2  501    0 -0.16287641730E+02 -0.56111439732E+01 -0.24106799667E+02  0.30000000000E+02  0.47000000000E+01 0. -1.
         -5    1    1    2    0  501  0.16287641730E+02  0.56111439732E+01  0.24106799667E+02  0.30000000000E+02  0.47000000000E+01 0.  1.
</event>
<event>
 4    1  0.7503339E-002  0.6000000E+02  0.7546771E-02  0.1259629E+00
         11   -1    0    0    0    0  0.00000000000E+00  0.00000000000E+00  0.30000000000E+02  0.30000000000E+02  0.00000000000E+00 0.  1.
        -11   -1    0    0    0    0 -0.00000000000E+00 -0.00000000000E+00 -0.30000000000E+02  0.30000000000E+02  0.00000000000E+00 0. -1.
          5    1    1    2  501    0  0.16671718808E+02  0.21394041654E+02 -0.11927228250E+02  0.30000000000E+02  0.47000000000E+01 0. -1.
         -5    1    1    2    0  501 -0.16671718808E+02 -0.21394041654E+02  0.11927228250E+02  0.30000000000E+02  0.47000000000E+01 0.  1.
</event>
<event>
 4    1  0.7503339E-002  0.6000000E+02  0.7546771E-02  0.1259629E+00
         11   -1    0    0    0    0  0.00000000000E+00  0.00000000000E+00  0.30000000000E+02  0.30000000000E+02  0.00000000000E+00 0.  1.
        -11   -1    0    0    0    0 -0.00000000000E+00 -0.00000000000E+00 -0.30000000000E+02  0.30000000000E+02  0.00000000000E+00 0. -1.
          5    1    1    2  501    0  0.15011509827E+02  0.25541894157E+02 -0.41978041659E+00  0.30000000000E+02  0.47000000000E+01 0. -1.
         -5    1    1    2    0  501 -0.15011509827E+02 -0.25541894157E+02  0.41978041659E+00  0.30000000000E+02  0.47000000000E+01 0. -1.
</event>
<event>
 4    1  0.7503339E-002  0.6000000E+02  0.7546771E-02  0.1259629E+00
         11   -1    0    0    0    0  0.00000000000E+00  0.00000000000E+00  0.30000000000E+02  0.30000000000E+02  0.00000000000E+00 0. -1.
        -11   -1    0    0    0    0 -0.00000000000E+00 -0.00000000000E+00 -0.30000000000E+02  0.30000000000E+02  0.00000000000E+00 0.  1.
          5    1    1    2  501    0 -0.14318678337E+02  0.24664406177E+02 -0.80344582043E+01  0.30000000000E+02  0.47000000000E+01 0.  1.
         -5    1    1    2    0  501  0.14318678337E+02 -0.24664406177E+02  0.80344582043E+01  0.30000000000E+02  0.47000000000E+01 0. -1.
</event>
<event>
 4    1  0.7503339E-002  0.6000000E+02  0.7546771E-02  0.1259629E+00
         11   -1    0    0    0    0  0.00000000000E+00  0.00000000000E+00  0.30000000000E+02  0.30000000000E+02  0.00000000000E+00 0. -1.
        -11   -1    0    0    0    0 -0.00000000000E+00 -0.00000000000E+00 -0.30000000000E+02  0.30000000000E+02  0.00000000000E+00 0.  1.
          5    1    1    2  501    0 -0.16433695502E+02  0.11238422202E+02 -0.21944054287E+02  0.30000000000E+02  0.47000000000E+01 0.  1.
         -5    1    1    2    0  501  0.16433695502E+02 -0.11238422202E+02  0.21944054287E+02  0.30000000000E+02  0.47000000000E+01 0. -1.
</event>
