<event>
 5    1  0.4814700E-001  0.8000000E+02  0.7546771E-02  0.1203772E+00
         11   -1    0    0    0    0  0.00000000000E+00  0.00000000000E+00  0.40000000000E+02  0.40000000000E+02  0.00000000000E+00 0.  1.
        -11   -1    0    0    0    0 -0.00000000000E+00 -0.00000000000E+00 -0.40000000000E+02  0.40000000000E+02  0.00000000000E+00 0. -1.
         23    2    1    2    0    0  0.00000000000E+00  0.00000000000E+00  0.00000000000E+00  0.80000000000E+02  0.80000000000E+02 0.  0.
          5    1    3    3  501    0  0.31744736621E+01 -0.97858912460E+01 -0.38367552039E+02  0.40000000000E+02  0.47000000000E+01 0. -1.
         -5    1    3    3    0  501 -0.31744736621E+01  0.97858912460E+01  0.38367552039E+02  0.40000000000E+02  0.47000000000E+01 0.  1.
</event>
<event>
 5    1  0.4814700E-001  0.8000000E+02  0.7546771E-02  0.1203772E+00
         11   -1    0    0    0    0  0.00000000000E+00  0.00000000000E+00  0.40000000000E+02  0.40000000000E+02  0.00000000000E+00 0.  1.
        -11   -1    0    0    0    0 -0.00000000000E+00 -0.00000000000E+00 -0.40000000000E+02  0.40000000000E+02  0.00000000000E+00 0. -1.
         23    2    1    2    0    0  0.00000000000E+00  0.00000000000E+00  0.00000000000E+00  0.80000000000E+02  0.80000000000E+02 0.  0.
          5    1    3    3  501    0  0.58806040280E+00 -0.14393661735E+02 -0.37018734268E+02  0.40000000000E+02  0.47000000000E+01 0. -1.
         -5    1    3    3    0  501 -0.58806040280E+00  0.14393661735E+02  0.37018734268E+02  0.40000000000E+02  0.47000000000E+01 0.  1.
</event>
<event>
 5    1  0.4814700E-001  0.8000000E+02  0.7546771E-02  0.1203772E+00
         11   -1    0    0    0    0  0.00000000000E+00  0.00000000000E+00  0.40000000000E+02  0.40000000000E+02  0.00000000000E+00 0. -1.
        -11   -1    0    0    0    0 -0.00000000000E+00 -0.00000000000E+00 -0.40000000000E+02  0.40000000000E+02  0.00000000000E+00 0.  1.
         23    2    1    2    0    0  0.00000000000E+00  0.00000000000E+00  0.00000000000E+00  0.80000000000E+02  0.80000000000E+02 0.  0.
          5    1    3    3  501    0  0.18698402939E+02  0.16954842245E+02  0.30672675983E+02  0.40000000000E+02  0.47000000000E+01 0. -1.
         -5    1    3    3    0  501 -0.18698402939E+02 -0.16954842245E+02 -0.30672675983E+02  0.40000000000E+02  0.47000000000E+01 0.  1.
</event>
<event>
 5    1  0.4814700E-001  0.8000000E+02  0.7546771E-02  0.1203772E+00
         11   -1    0    0    0    0  0.00000000000E+00  0.00000000000E+00  0.40000000000E+02  0.40000000000E+02  0.00000000000E+00 0.  1.
        -11   -1    0    0    0    0 -0.00000000000E+00 -0.00000000000E+00 -0.40000000000E+02  0.40000000000E+02  0.00000000000E+00 0. -1.
         23    2    1    2    0    0  0.00000000000E+00  0.00000000000E+00  0.00000000000E+00  0.80000000000E+02  0.80000000000E+02 0.  0.
          5    1    3    3  501    0  0.15834830434E+02  0.33701389952E+02  0.13834177257E+02  0.40000000000E+02  0.47000000000E+01 0. -1.
         -5    1    3    3    0  501 -0.15834830434E+02 -0.33701389952E+02 -0.13834177257E+02  0.40000000000E+02  0.47000000000E+01 0.  1.
</event>
<event>
 5    1  0.4814700E-001  0.8000000E+02  0.7546771E-02  0.1203772E+00
         11   -1    0    0    0    0  0.00000000000E+00  0.00000000000E+00  0.40000000000E+02  0.40000000000E+02  0.00000000000E+00 0. -1.
        -11   -1    0    0    0    0 -0.00000000000E+00 -0.00000000000E+00 -0.40000000000E+02  0.40000000000E+02  0.00000000000E+00 0.  1.
         23    2    1    2    0    0  0.00000000000E+00  0.00000000000E+00  0.00000000000E+00  0.80000000000E+02  0.80000000000E+02 0.  0.
          5    1    3    3  501    0  0.12593611194E+01 -0.39377022487E+02 -0.50768208229E+01  0.40000000000E+02  0.47000000000E+01 0. -1.
         -5    1    3    3    0  501 -0.12593611194E+01  0.39377022487E+02  0.50768208229E+01  0.40000000000E+02  0.47000000000E+01 0.  1.
</event>
<event>
 5    1  0.4814700E-001  0.8000000E+02  0.7546771E-02  0.1203772E+00
         11   -1    0    0    0    0  0.00000000000E+00  0.00000000000E+00  0.40000000000E+02  0.40000000000E+02  0.00000000000E+00 0.  1.
        -11   -1    0    0    0    0 -0.00000000000E+00 -0.00000000000E+00 -0.40000000000E+02  0.40000000000E+02  0.00000000000E+00 0. -1.
         23    2    1    2    0    0  0.00000000000E+00  0.00000000000E+00  0.00000000000E+00  0.80000000000E+02  0.80000000000E+02 0.  0.
          5    1    3    3  501    0  0.23100406406E+02 -0.21469375057E+02  0.24152580784E+02  0.40000000000E+02  0.47000000000E+01 0. -1.
         -5    1    3    3    0  501 -0.23100406406E+02  0.21469375057E+02 -0.24152580784E+02  0.40000000000E+02  0.47000000000E+01 0.  1.
</event>
<event>
 5    1  0.4814700E-001  0.8000000E+02  0.7546771E-02  0.1203772E+00
         11   -1    0    0    0    0  0.00000000000E+00  0.00000000000E+00  0.40000000000E+02  0.40000000000E+02  0.00000000000E+00 0. -1.
        -11   -1    0    0    0    0 -0.00000000000E+00 -0.00000000000E+00 -0.40000000000E+02  0.40000000000E+02  0.00000000000E+00 0.  1.
         23    2    1    2    0    0  0.00000000000E+00  0.00000000000E+00  0.00000000000E+00  0.80000000000E+02  0.80000000000E+02 0.  0.
          5    1    3    3  501    0 -0.10047298551E+02  0.43163050014E+01  0.38188104207E+02  0.40000000000E+02  0.47000000000E+01 0. -1.
         -5    1    3    3    0  501  0.10047298551E+02 -0.43163050014E+01 -0.38188104207E+02  0.40000000000E+02  0.47000000000E+01 0.  1.
</event>
<event>
 5    1  0.4814700E-001  0.8000000E+02  0.7546771E-02  0.1203772E+00
         11   -1    0    0    0    0  0.00000000000E+00  0.00000000000E+00  0.40000000000E+02  0.40000000000E+02  0.00000000000E+00 0.  1.
        -11   -1    0    0    0    0 -0.00000000000E+00 -0.00000000000E+00 -0.40000000000E+02  0.40000000000E+02  0.00000000000E+00 0. -1.
         23    2    1    2    0    0  0.00000000000E+00  0.00000000000E+00  0.00000000000E+00  0.80000000000E+02  0.80000000000E+02 0.  0.
          5    1    3    3  501    0  0.18805141711E+02  0.26414982343E+02 -0.22946140264E+02  0.40000000000E+02  0.47000000000E+01 0. -1.
         -5    1    3    3    0  501 -0.18805141711E+02 -0.26414982343E+02  0.22946140264E+02  0.40000000000E+02  0.47000000000E+01 0.  1.
</event>
<event>
 5    1  0.4814700E-001  0.8000000E+02  0.7546771E-02  0.1203772E+00
         11   -1    0    0    0    0  0.00000000000E+00  0.00000000000E+00  0.40000000000E+02  0.40000000000E+02  0.00000000000E+00 0. -1.
        -11   -1    0    0    0    0 -0.00000000000E+00 -0.00000000000E+00 -0.40000000000E+02  0.40000000000E+02  0.00000000000E+00 0.  1.
         23    2    1    2    0    0  0.00000000000E+00  0.00000000000E+00  0.00000000000E+00  0.80000000000E+02  0.80000000000E+02 0.  0.
          5    1    3    3  501    0 -0.34288884152E+02  0.15438245921E+02 -0.12800116661E+02  0.40000000000E+02  0.47000000000E+01 0. -1.
         -5    1    3    3    0  501  0.34288884152E+02 -0.15438245921E+02  0.12800116661E+02  0.40000000000E+02  0.47000000000E+01 0.  1.
</event>
<event>
 5    1  0.4814700E-001  0.8000000E+02  0.7546771E-02  0.1203772E+00
         11   -1    0    0    0    0  0.00000000000E+00  0.00000000000E+00  0.40000000000E+02  0.40000000000E+02  0.00000000000E+00 0. -1.
        -11   -1    0    0    0    0 -0.00000000000E+00 -0.00000000000E+00 -0.40000000000E+02  0.40000000000E+02  0.00000000000E+00 0.  1.
         23    2    1    2    0    0  0.00000000000E+00  0.00000000000E+00  0.00000000000E+00  0.80000000000E+02  0.80000000000E+02 0.  0.
          5    1    3    3  501    0  0.12835266251E+02 -0.67492278637E+01  0.36981263682E+02  0.40000000000E+02  0.47000000000E+01 0. -1.
         -5    1    3    3    0  501 -0.12835266251E+02  0.67492278637E+01 -0.36981263682E+02  0.40000000000E+02  0.47000000000E+01 0.  1.
</event>
<event>
 5    1  0.4814700E-001  0.8000000E+02  0.7546771E-02  0.1203772E+00
         11   -1    0    0    0    0  0.00000000000E+00  0.00000000000E+00  0.40000000000E+02  0.40000000000E+02  0.00000000000E+00 0.  1.
        -11   -1    0    0    0    0 -0.00000000000E+00 -0.00000000000E+00 -0.40000000000E+02  0.40000000000E+02  0.00000000000E+00 0. -1.
         23    2    1    2    0    0  0.00000000000E+00  0.00000000000E+00  0.00000000000E+00  0.80000000000E+02  0.80000000000E+02 0.  0.
          5    1    3    3  501    0 -0.28221723406E+02 -0.26900487840E+02 -0.76031626273E+01  0.40000000000E+02  0.47000000000E+01 0. -1.
         -5    1    3    3    0  501  0.28221723406E+02  0.26900487840E+02  0.76031626273E+01  0.40000000000E+02  0.47000000000E+01 0.  1.
</event>
<event>
 5    1  0.4814700E-001  0.8000000E+02  0.7546771E-02  0.1203772E+00
         11   -1    0    0    0    0  0.00000000000E+00  0.00000000000E+00  0.40000000000E+02  0.40000000000E+02  0.00000000000E+00 0. -1.
        -11   -1    0    0    0    0 -0.00000000000E+00 -0.00000000000E+00 -0.40000000000E+02  0.40000000000E+02  0.00000000000E+00 0.  1.
         23    2    1    2    0    0  0.00000000000E+00  0.00000000000E+00  0.00000000000E+00  0.80000000000E+02  0.80000000000E+02 0.  0.
          5    1    3    3  501    0 -0.18307067746E+02 -0.33513543788E+02  0.10936345519E+02  0.40000000000E+02  0.47000000000E+01 0. -1.
         -5    1    3    3    0  501  0.18307067746E+02  0.33513543788E+02 -0.10936345519E+02  0.40000000000E+02  0.47000000000E+01 0.  1.
</event>
<event>
 5    1  0.4814700E-001  0.8000000E+02  0.7546771E-02  0.1203772E+00
         11   -1    0    0    0    0  0.00000000000E+00  0.00000000000E+00  0.40000000000E+02  0.40000000000E+02  0.00000000000E+00 0. -1.
        -11   -1    0    0    0    0 -0.00000000000E+00 -0.00000000000E+00 -0.40000000000E+02  0.40000000000E+02  0.00000000000E+00 0.  1.
         23    2    1    2    0    0  0.00000000000E+00  0.00000000000E+00  0.00000000000E+00  0.80000000000E+02  0.80000000000E+02 0.  0.
          5    1    3    3  501    0 -0.37610080017E+02  0.11026124959E+02  0.64665639611E+01  0.40000000000E+02  0.47000000000E+01 0. -1.
         -5    1    3    3    0  501  0.37610080017E+02 -0.11026124959E+02 -0.64665639611E+01  0.40000000000E+02  0.47000000000E+01 0.  1.
</event>
<event>
 5    1  0.4814700E-001  0.8000000E+02  0.7546771E-02  0.1203772E+00
         11   -1    0    0    0    0  0.00000000000E+00  0.00000000000E+00  0.40000000000E+02  0.40000000000E+02  0.00000000000E+00 0. -1.
        -11   -1    0    0    0    0 -0.00000000000E+00 -0.00000000000E+00 -0.40000000000E+02  0.40000000000E+02  0.00000000000E+00 0.  1.
         23    2    1    2    0    0  0.00000000000E+00  0.00000000000E+00  0.00000000000E+00  0.80000000000E+02  0.80000000000E+02 0.  0.
          5    1    3    3  501    0  0.10995169187E+02  0.11544574491E+02  0.36383224903E+02  0.40000000000E+02  0.47000000000E+01 0. -1.
         -5    1    3    3    0  501 -0.10995169187E+02 -0.11544574491E+02 -0.36383224903E+02  0.40000000000E+02  0.47000000000E+01 0.  1.
</event>
<event>
 5    1  0.4814700E-001  0.8000000E+02  0.7546771E-02  0.1203772E+00
         11   -1    0    0    0    0  0.00000000000E+00  0.00000000000E+00  0.40000000000E+02  0.40000000000E+02  0.00000000000E+00 0. -1.
        -11   -1    0    0    0    0 -0.00000000000E+00 -0.00000000000E+00 -0.40000000000E+02  0.40000000000E+02  0.00000000000E+00 0.  1.
         23    2    1    2    0    0  0.00000000000E+00  0.00000000000E+00  0.00000000000E+00  0.80000000000E+02  0.80000000000E+02 0.  0.
          5    1    3    3  501    0  0.18060196238E+02 -0.20775499580E+02  0.28637701183E+02  0.40000000000E+02  0.47000000000E+01 0. -1.
         -5    1    3    3    0  501 -0.18060196238E+02  0.20775499580E+02 -0.28637701183E+02  0.40000000000E+02  0.47000000000E+01 0.  1.
</event>
<event>
 5    1  0.4814700E-001  0.8000000E+02  0.7546771E-02  0.1203772E+00
         11   -1    0    0    0    0  0.00000000000E+00  0.00000000000E+00  0.40000000000E+02  0.40000000000E+02  0.00000000000E+00 0.  1.
        -11   -1    0    0    0    0 -0.00000000000E+00 -0.00000000000E+00 -0.40000000000E+02  0.40000000000E+02  0.00000000000E+00 0. -1.
         23    2    1    2    0    0  0.00000000000E+00  0.00000000000E+00  0.00000000000E+00  0.80000000000E+02  0.80000000000E+02 0.  0.
          5    1    3    3  501    0 -0.25144047234E+02 -0.10997317913E+01 -0.30732352313E+02  0.40000000000E+02  0.47000000000E+01 0. -1.
         -5    1    3    3    0  501  0.25144047234E+02  0.10997317913E+01  0.30732352313E+02  0.40000000000E+02  0.47000000000E+01 0.  1.
</event>
<event>
 5    1  0.4814700E-001  0.8000000E+02  0.7546771E-02  0.1203772E+00
         11   -1    0    0    0    0  0.00000000000E+00  0.00000000000E+00  0.40000000000E+02  0.40000000000E+02  0.00000000000E+00 0.  1.
        -11   -1    0    0    0    0 -0.00000000000E+00 -0.00000000000E+00 -0.40000000000E+02  0.40000000000E+02  0.00000000000E+00 0. -1.
         23    2    1    2    0    0  0.00000000000E+00  0.00000000000E+00  0.00000000000E+00  0.80000000000E+02  0.80000000000E+02 0.  0.
          5    1    3    3  501    0 -0.13350633769E+02  0.10491809056E+02 -0.35910896963E+02  0.40000000000E+02  0.47000000000E+01 0. -1.
         -5    1    3    3    0  501  0.13350633769E+02 -0.10491809056E+02  0.35910896963E+02  0.40000000000E+02  0.47000000000E+01 0.  1.
</event>
<event>
 5    1  0.4814700E-001  0.8000000E+02  0.7546771E-02  0.1203772E+00
         11   -1    0    0    0    0  0.00000000000E+00  0.00000000000E+00  0.40000000000E+02  0.40000000000E+02  0.00000000000E+00 0. -1.
        -11   -1    0    0    0    0 -0.00000000000E+00 -0.00000000000E+00 -0.40000000000E+02  0.40000000000E+02  0.00000000000E+00 0.  1.
         23    2    1    2    0    0  0.00000000000E+00  0.00000000000E+00  0.00000000000E+00  0.80000000000E+02  0.80000000000E+02 0.  0.
          5    1    3    3  501    0 -0.14965043089E+02 -0.16753326589E+02  0.32761006296E+02  0.40000000000E+02  0.47000000000E+01 0. -1.
         -5    1    3    3    0  501  0.14965043089E+02  0.16753326589E+02 -0.32761006296E+02  0.40000000000E+02  0.47000000000E+01 0.  1.
</event>
<event>
 5    1  0.4814700E-001  0.8000000E+02  0.7546771E-02  0.1203772E+00
         11   -1    0    0    0    0  0.00000000000E+00  0.00000000000E+00  0.40000000000E+02  0.40000000000E+02  0.00000000000E+00 0. -1.
        -11   -1    0    0    0    0 -0.00000000000E+00 -0.00000000000E+00 -0.40000000000E+02  0.40000000000E+02  0.00000000000E+00 0.  1.
         23    2    1    2    0    0  0.00000000000E+00  0.00000000000E+00  0.00000000000E+00  0.80000000000E+02  0.80000000000E+02 0.  0.
          5    1    3    3  501    0 -0.13559674332E+02 -0.23449410163E+02  0.29054610564E+02  0.40000000000E+02  0.47000000000E+01 0. -1.
         -5    1    3    3    0  501  0.13559674332E+02  0.23449410163E+02 -0.29054610564E+02  0.40000000000E+02  0.47000000000E+01 0.  1.
</event>
<event>
 5    1  0.4814700E-001  0.8000000E+02  0.7546771E-02  0.1203772E+00
         11   -1    0    0    0    0  0.00000000000E+00  0.00000000000E+00  0.40000000000E+02  0.40000000000E+02  0.00000000000E+00 0. -1.
        -11   -1    0    0    0    0 -0.00000000000E+00 -0.00000000000E+00 -0.40000000000E+02  0.40000000000E+02  0.00000000000E+00 0.  1.
         23    2    1    2    0    0  0.00000000000E+00  0.00000000000E+00  0.00000000000E+00  0.80000000000E+02  0.80000000000E+02 0.  0.
          5    1    3    3  501    0 -0.11965700469E+02 -0.36315087903E+02  0.10767841144E+02  0.40000000000E+02  0.47000000000E+01 0. -1.
         -5    1    3    3    0  501  0.11965700469E+02  0.36315087903E+02 -0.10767841144E+02  0.40000000000E+02  0.47000000000E+01 0.  1.
</event>
<event>
 5    1  0.4814700E-001  0.8000000E+02  0.7546771E-02  0.1203772E+00
         11   -1    0    0    0    0  0.00000000000E+00  0.00000000000E+00  0.40000000000E+02  0.40000000000E+02  0.00000000000E+00 0. -1.
        -11   -1    0    0    0    0 -0.00000000000E+00 -0.00000000000E+00 -0.40000000000E+02  0.40000000000E+02  0.00000000000E+00 0.  1.
         23    2    1    2    0    0  0.00000000000E+00  0.00000000000E+00  0.00000000000E+00  0.80000000000E+02  0.80000000000E+02 0.  0.
          5    1    3    3  501    0 -0.12059686362E+02 -0.36020543724E+02  0.11618708820E+02  0.40000000000E+02  0.47000000000E+01 0. -1.
         -5    1    3    3    0  501  0.12059686362E+02  0.36020543724E+02 -0.11618708820E+02  0.40000000000E+02  0.47000000000E+01 0.  1.
</event>
<event>
 5    1  0.4814700E-001  0.8000000E+02  0.7546771E-02  0.1203772E+00
         11   -1    0    0    0    0  0.00000000000E+00  0.00000000000E+00  0.40000000000E+02  0.40000000000E+02  0.00000000000E+00 0.  1.
        -11   -1    0    0    0    0 -0.00000000000E+00 -0.00000000000E+00 -0.40000000000E+02  0.40000000000E+02  0.00000000000E+00 0. -1.
         23    2    1    2    0    0  0.00000000000E+00  0.00000000000E+00  0.00000000000E+00  0.80000000000E+02  0.80000000000E+02 0.  0.
          5    1    3    3  501    0  0.35689439034E+02  0.17340998747E+02  0.18611028790E+01  0.40000000000E+02  0.47000000000E+01 0. -1.
         -5    1    3    3    0  501 -0.35689439034E+02 -0.17340998747E+02 -0.18611028790E+01  0.40000000000E+02  0.47000000000E+01 0.  1.
</event>
<event>
 5    1  0.4814700E-001  0.8000000E+02  0.7546771E-02  0.1203772E+00
         11   -1    0    0    0    0  0.00000000000E+00  0.00000000000E+00  0.40000000000E+02  0.40000000000E+02  0.00000000000E+00 0. -1.
        -11   -1    0    0    0    0 -0.00000000000E+00 -0.00000000000E+00 -0.40000000000E+02  0.40000000000E+02  0.00000000000E+00 0.  1.
         23    2    1    2    0    0  0.00000000000E+00  0.00000000000E+00  0.00000000000E+00  0.80000000000E+02  0.80000000000E+02 0.  0.
          5    1    3    3  501    0  0.26559340306E+02 -0.28953317590E+02  0.58495164823E+01  0.40000000000E+02  0.47000000000E+01 0. -1.
         -5    1    3    3    0  501 -0.26559340306E+02  0.28953317590E+02 -0.58495164823E+01  0.40000000000E+02  0.47000000000E+01 0.  1.
</event>
<event>
 5    1  0.4814700E-001  0.8000000E+02  0.7546771E-02  0.1203772E+00
         11   -1    0    0    0    0  0.00000000000E+00  0.00000000000E+00  0.40000000000E+02  0.40000000000E+02  0.00000000000E+00 0. -1.
        -11   -1    0    0    0    0 -0.00000000000E+00 -0.00000000000E+00 -0.40000000000E+02  0.40000000000E+02  0.00000000000E+00 0.  1.
         23    2    1    2    0    0  0.00000000000E+00  0.00000000000E+00  0.00000000000E+00  0.80000000000E+02  0.80000000000E+02 0.  0.
          5    1    3    3  501    0  0.12813008620E+02  0.10588098864E+02  0.36078095467E+02  0.40000000000E+02  0.47000000000E+01 0. -1.
         -5    1    3    3    0  501 -0.12813008620E+02 -0.10588098864E+02 -0.36078095467E+02  0.40000000000E+02  0.47000000000E+01 0.  1.
</event>
<event>
 5    1  0.4814700E-001  0.8000000E+02  0.7546771E-02  0.1203772E+00
         11   -1    0    0    0    0  0.00000000000E+00  0.00000000000E+00  0.40000000000E+02  0.40000000000E+02  0.00000000000E+00 0. -1.
        -11   -1    0    0    0    0 -0.00000000000E+00 -0.00000000000E+00 -0.40000000000E+02  0.40000000000E+02  0.00000000000E+00 0.  1.
         23    2    1    2    0    0  0.00000000000E+00  0.00000000000E+00  0.00000000000E+00  0.80000000000E+02  0.80000000000E+02 0.  0.
          5    1    3    3  501    0 -0.26266921866E+01  0.21049227837E+02  0.33584825377E+02  0.40000000000E+02  0.47000000000E+01 0. -1.
         -5    1    3    3    0  501  0.26266921866E+01 -0.21049227837E+02 -0.33584825377E+02  0.40000000000E+02  0.47000000000E+01 0.  1.
</event>
<event>
 5    1  0.4814700E-001  0.8000000E+02  0.7546771E-02  0.1203772E+00
         11   -1    0    0    0    0  0.00000000000E+00  0.00000000000E+00  0.40000000000E+02  0.40000000000E+02  0.00000000000E+00 0.  1.
        -11   -1    0    0    0    0 -0.00000000000E+00 -0.00000000000E+00 -0.40000000000E+02  0.40000000000E+02  0.00000000000E+00 0. -1.
         23    2    1    2    0    0  0.00000000000E+00  0.00000000000E+00  0.00000000000E+00  0.80000000000E+02  0.80000000000E+02 0.  0.
          5    1    3    3  501    0 -0.22691813476E+02  0.25876842378E+02 -0.19833825393E+02  0.40000000000E+02  0.47000000000E+01 0. -1.
         -5    1    3    3    0  501  0.22691813476E+02 -0.25876842378E+02  0.19833825393E+02  0.40000000000E+02  0.47000000000E+01 0.  1.
</event>
<event>
 5    1  0.4814700E-001  0.8000000E+02  0.7546771E-02  0.1203772E+00
         11   -1    0    0    0    0  0.00000000000E+00  0.00000000000E+00  0.40000000000E+02  0.40000000000E+02  0.00000000000E+00 0.  1.
        -11   -1    0    0    0    0 -0.00000000000E+00 -0.00000000000E+00 -0.40000000000E+02  0.40000000000E+02  0.00000000000E+00 0. -1.
         23    2    1    2    0    0  0.00000000000E+00  0.00000000000E+00  0.00000000000E+00  0.80000000000E+02  0.80000000000E+02 0.  0.
          5    1    3    3  501    0  0.63482947710E+01 -0.57160906353E+01 -0.38793497668E+02  0.40000000000E+02  0.47000000000E+01 0. -1.
         -5    1    3    3    0  501 -0.63482947710E+01  0.57160906353E+01  0.38793497668E+02  0.40000000000E+02  0.47000000000E+01 0.  1.
</event>
<event>
 5    1  0.4814700E-001  0.8000000E+02  0.7546771E-02  0.1203772E+00
         11   -1    0    0    0    0  0.00000000000E+00  0.00000000000E+00  0.40000000000E+02  0.40000000000E+02  0.00000000000E+00 0.  1.
        -11   -1    0    0    0    0 -0.00000000000E+00 -0.00000000000E+00 -0.40000000000E+02  0.40000000000E+02  0.00000000000E+00 0. -1.
         23    2    1    2    0    0  0.00000000000E+00  0.00000000000E+00  0.00000000000E+00  0.80000000000E+02  0.80000000000E+02 0.  0.
          5    1    3    3  501    0 -0.34906685422E+02  0.13602427009E+02 -0.13206335311E+02  0.40000000000E+02  0.47000000000E+01 0. -1.
         -5    1    3    3    0  501  0.34906685422E+02 -0.13602427009E+02  0.13206335311E+02  0.40000000000E+02  0.47000000000E+01 0.  1.
</event>
<event>
 5    1  0.4814700E-001  0.8000000E+02  0.7546771E-02  0.1203772E+00
         11   -1    0    0    0    0  0.00000000000E+00  0.00000000000E+00  0.40000000000E+02  0.40000000000E+02  0.00000000000E+00 0.  1.
        -11   -1    0    0    0    0 -0.00000000000E+00 -0.00000000000E+00 -0.40000000000E+02  0.40000000000E+02  0.00000000000E+00 0. -1.
         23    2    1    2    0    0  0.00000000000E+00  0.00000000000E+00  0.00000000000E+00  0.80000000000E+02  0.80000000000E+02 0.  0.
          5    1    3    3  501    0  0.10867241583E+01  0.18820022189E+02 -0.34964779356E+02  0.40000000000E+02  0.47000000000E+01 0. -1.
         -5    1    3    3    0  501 -0.10867241583E+01 -0.18820022189E+02  0.34964779356E+02  0.40000000000E+02  0.47000000000E+01 0.  1.
</event>
<event>
 5    1  0.4814700E-001  0.8000000E+02  0.7546771E-02  0.1203772E+00
         11   -1    0    0    0    0  0.00000000000E+00  0.00000000000E+00  0.40000000000E+02  0.40000000000E+02  0.00000000000E+00 0. -1.
        -11   -1    0    0    0    0 -0.00000000000E+00 -0.00000000000E+00 -0.40000000000E+02  0.40000000000E+02  0.00000000000E+00 0.  1.
         23    2    1    2    0    0  0.00000000000E+00  0.00000000000E+00  0.00000000000E+00  0.80000000000E+02  0.80000000000E+02 0.  0.
          5    1    3    3  501    0  0.55165949524E+01 -0.18273098480E+02 -0.34836346710E+02  0.40000000000E+02  0.47000000000E+01 0.  1.
         -5    1    3    3    0  501 -0.55165949524E+01  0.18273098480E+02  0.34836346710E+02  0.40000000000E+02  0.47000000000E+01 0. -1.
</event>
<event>
 5    1  0.4814700E-001  0.8000000E+02  0.7546771E-02  0.1203772E+00
         11   -1    0    0    0    0  0.00000000000E+00  0.00000000000E+00  0.40000000000E+02  0.40000000000E+02  0.00000000000E+00 0. -1.
        -11   -1    0    0    0    0 -0.00000000000E+00 -0.00000000000E+00 -0.40000000000E+02  0.40000000000E+02  0.00000000000E+00 0.  1.
         23    2    1    2    0    0  0.00000000000E+00  0.00000000000E+00  0.00000000000E+00  0.80000000000E+02  0.80000000000E+02 0.  0.
          5    1    3    3  501    0  0.13739481193E+02 -0.12456524644E+01  0.37250302099E+02  0.40000000000E+02  0.47000000000E+01 0. -1.
         -5    1    3    3    0  501 -0.13739481193E+02  0.12456524644E+01 -0.37250302099E+02  0.40000000000E+02  0.47000000000E+01 0.  1.
</event>
<event>
 5    1  0.4814700E-001  0.8000000E+02  0.7546771E-02  0.1203772E+00
         11   -1    0    0    0    0  0.00000000000E+00  0.00000000000E+00  0.40000000000E+02  0.40000000000E+02  0.00000000000E+00 0.  1.
        -11   -1    0    0    0    0 -0.00000000000E+00 -0.00000000000E+00 -0.40000000000E+02  0.40000000000E+02  0.00000000000E+00 0. -1.
         23    2    1    2    0    0  0.00000000000E+00  0.00000000000E+00  0.00000000000E+00  0.80000000000E+02  0.80000000000E+02 0.  0.
          5    1    3    3  501    0 -0.21606966609E+02 -0.18220797213E+02 -0.27911494816E+02  0.40000000000E+02  0.47000000000E+01 0. -1.
         -5    1    3    3    0  501  0.21606966609E+02  0.18220797213E+02  0.27911494816E+02  0.40000000000E+02  0.47000000000E+01 0.  1.
</event>
<event>
 5    1  0.4814700E-001  0.8000000E+02  0.7546771E-02  0.1203772E+00
         11   -1    0    0    0    0  0.00000000000E+00  0.00000000000E+00  0.40000000000E+02  0.40000000000E+02  0.00000000000E+00 0.  1.
        -11   -1    0    0    0    0 -0.00000000000E+00 -0.00000000000E+00 -0.40000000000E+02  0.40000000000E+02  0.00000000000E+00 0. -1.
         23    2    1    2    0    0  0.00000000000E+00  0.00000000000E+00  0.00000000000E+00  0.80000000000E+02  0.80000000000E+02 0.  0.
          5    1    3    3  501    0 -0.15123859625E+02  0.30708785811E+02 -0.20153147250E+02  0.40000000000E+02  0.47000000000E+01 0. -1.
         -5    1    3    3    0  501  0.15123859625E+02 -0.30708785811E+02  0.20153147250E+02  0.40000000000E+02  0.47000000000E+01 0.  1.
</event>
<event>
 5    1  0.4814700E-001  0.8000000E+02  0.7546771E-02  0.1203772E+00
         11   -1    0    0    0    0  0.00000000000E+00  0.00000000000E+00  0.40000000000E+02  0.40000000000E+02  0.00000000000E+00 0.  1.
        -11   -1    0    0    0    0 -0.00000000000E+00 -0.00000000000E+00 -0.40000000000E+02  0.40000000000E+02  0.00000000000E+00 0. -1.
         23    2    1    2    0    0  0.00000000000E+00  0.00000000000E+00  0.00000000000E+00  0.80000000000E+02  0.80000000000E+02 0.  0.
          5    1    3    3  501    0  0.24069263023E+01  0.42184716028E+01 -0.39424880509E+02  0.40000000000E+02  0.47000000000E+01 0. -1.
         -5    1    3    3    0  501 -0.24069263023E+01 -0.42184716028E+01  0.39424880509E+02  0.40000000000E+02  0.47000000000E+01 0.  1.
</event>
<event>
 5    1  0.4814700E-001  0.8000000E+02  0.7546771E-02  0.1203772E+00
         11   -1    0    0    0    0  0.00000000000E+00  0.00000000000E+00  0.40000000000E+02  0.40000000000E+02  0.00000000000E+00 0.  1.
        -11   -1    0    0    0    0 -0.00000000000E+00 -0.00000000000E+00 -0.40000000000E+02  0.40000000000E+02  0.00000000000E+00 0. -1.
         23    2    1    2    0    0  0.00000000000E+00  0.00000000000E+00  0.00000000000E+00  0.80000000000E+02  0.80000000000E+02 0.  0.
          5    1    3    3  501    0  0.26859355007E+00 -0.16325667649E+02 -0.36212020564E+02  0.40000000000E+02  0.47000000000E+01 0. -1.
         -5    1    3    3    0  501 -0.26859355007E+00  0.16325667649E+02  0.36212020564E+02  0.40000000000E+02  0.47000000000E+01 0.  1.
</event>
<event>
 5    1  0.4814700E-001  0.8000000E+02  0.7546771E-02  0.1203772E+00
         11   -1    0    0    0    0  0.00000000000E+00  0.00000000000E+00  0.40000000000E+02  0.40000000000E+02  0.00000000000E+00 0.  1.
        -11   -1    0    0    0    0 -0.00000000000E+00 -0.00000000000E+00 -0.40000000000E+02  0.40000000000E+02  0.00000000000E+00 0. -1.
         23    2    1    2    0    0  0.00000000000E+00  0.00000000000E+00  0.00000000000E+00  0.80000000000E+02  0.80000000000E+02 0.  0.
          5    1    3    3  501    0 -0.46203324218E+01 -0.22459100179E+02 -0.32436882518E+02  0.40000000000E+02  0.47000000000E+01 0. -1.
         -5    1    3    3    0  501  0.46203324218E+01  0.22459100179E+02  0.32436882518E+02  0.40000000000E+02  0.47000000000E+01 0.  1.
</event>
<event>
 5    1  0.4814700E-001  0.8000000E+02  0.7546771E-02  0.1203772E+00
         11   -1    0    0    0    0  0.00000000000E+00  0.00000000000E+00  0.40000000000E+02  0.40000000000E+02  0.00000000000E+00 0. -1.
        -11   -1    0    0    0    0 -0.00000000000E+00 -0.00000000000E+00 -0.40000000000E+02  0.40000000000E+02  0.00000000000E+00 0.  1.
         23    2    1    2    0    0  0.00000000000E+00  0.00000000000E+00  0.00000000000E+00  0.80000000000E+02  0.80000000000E+02 0.  0.
          5    1    3    3  501    0  0.15677348444E+02 -0.62175623536E+01  0.35964880983E+02  0.40000000000E+02  0.47000000000E+01 0. -1.
         -5    1    3    3    0  501 -0.15677348444E+02  0.62175623536E+01 -0.35964880983E+02  0.40000000000E+02  0.47000000000E+01 0.  1.
</event>
<event>
 5    1  0.4814700E-001  0.8000000E+02  0.7546771E-02  0.1203772E+00
         11   -1    0    0    0    0  0.00000000000E+00  0.00000000000E+00  0.40000000000E+02  0.40000000000E+02  0.00000000000E+00 0. -1.
        -11   -1    0    0    0    0 -0.00000000000E+00 -0.00000000000E+00 -0.40000000000E+02  0.40000000000E+02  0.00000000000E+00 0.  1.
         23    2    1    2    0    0  0.00000000000E+00  0.00000000000E+00  0.00000000000E+00  0.80000000000E+02  0.80000000000E+02 0.  0.
          5    1    3    3  501    0 -0.19451246071E+02 -0.14417560849E+02  0.31491156940E+02  0.40000000000E+02  0.47000000000E+01 0. -1.
         -5    1    3    3    0  501  0.19451246071E+02  0.14417560849E+02 -0.31491156940E+02  0.40000000000E+02  0.47000000000E+01 0.  1.
</event>
<event>
 5    1  0.4814700E-001  0.8000000E+02  0.7546771E-02  0.1203772E+00
         11   -1    0    0    0    0  0.00000000000E+00  0.00000000000E+00  0.40000000000E+02  0.40000000000E+02  0.00000000000E+00 0. -1.
        -11   -1    0    0    0    0 -0.00000000000E+00 -0.00000000000E+00 -0.40000000000E+02  0.40000000000E+02  0.00000000000E+00 0.  1.
         23    2    1    2    0    0  0.00000000000E+00  0.00000000000E+00  0.00000000000E+00  0.80000000000E+02  0.80000000000E+02 0.  0.
          5    1    3    3  501    0  0.78140425474E-01  0.24994198340E+02  0.30873839143E+02  0.40000000000E+02  0.47000000000E+01 0. -1.
         -5    1    3    3    0  501 -0.78140425474E-01 -0.24994198340E+02 -0.30873839143E+02  0.40000000000E+02  0.47000000000E+01 0.  1.
</event>
<event>
 5    1  0.4814700E-001  0.8000000E+02  0.7546771E-02  0.1203772E+00
         11   -1    0    0    0    0  0.00000000000E+00  0.00000000000E+00  0.40000000000E+02  0.40000000000E+02  0.00000000000E+00 0. -1.
        -11   -1    0    0    0    0 -0.00000000000E+00 -0.00000000000E+00 -0.40000000000E+02  0.40000000000E+02  0.00000000000E+00 0.  1.
         23    2    1    2    0    0  0.00000000000E+00  0.00000000000E+00  0.00000000000E+00  0.80000000000E+02  0.80000000000E+02 0.  0.
          5    1    3    3  501    0  0.73731633498E+01  0.11785833528E+02  0.37210759066E+02  0.40000000000E+02  0.47000000000E+01 0. -1.
         -5    1    3    3    0  501 -0.73731633498E+01 -0.11785833528E+02 -0.37210759066E+02  0.40000000000E+02  0.47000000000E+01 0.  1.
</event>
<event>
 5    1  0.4814700E-001  0.8000000E+02  0.7546771E-02  0.1203772E+00
         11   -1    0    0    0    0  0.00000000000E+00  0.00000000000E+00  0.40000000000E+02  0.40000000000E+02  0.00000000000E+00 0.  1.
        -11   -1    0    0    0    0 -0.00000000000E+00 -0.00000000000E+00 -0.40000000000E+02  0.40000000000E+02  0.00000000000E+00 0. -1.
         23    2    1    2    0    0  0.00000000000E+00  0.00000000000E+00  0.00000000000E+00  0.80000000000E+02  0.80000000000E+02 0.  0.
          5    1    3    3  501    0  0.14252417795E+02  0.19790824388E+01 -0.37025151177E+02  0.40000000000E+02  0.47000000000E+01 0. -1.
         -5    1    3    3    0  501 -0.14252417795E+02 -0.19790824388E+01  0.37025151177E+02  0.40000000000E+02  0.47000000000E+01 0.  1.
</event>
<event>
 5    1  0.4814700E-001  0.8000000E+02  0.7546771E-02  0.1203772E+00
         11   -1    0    0    0    0  0.00000000000E+00  0.00000000000E+00  0.40000000000E+02  0.40000000000E+02  0.00000000000E+00 0.  1.
        -11   -1    0    0    0    0 -0.00000000000E+00 -0.00000000000E+00 -0.40000000000E+02  0.40000000000E+02  0.00000000000E+00 0. -1.
         23    2    1    2    0    0  0.00000000000E+00  0.00000000000E+00  0.00000000000E+00  0.80000000000E+02  0.80000000000E+02 0.  0.
          5    1    3    3  501    0  0.13689026505E+02  0.26148805547E+02 -0.26584967968E+02  0.40000000000E+02  0.47000000000E+01 0. -1.
         -5    1    3    3    0  501 -0.13689026505E+02 -0.26148805547E+02  0.26584967968E+02  0.40000000000E+02  0.47000000000E+01 0.  1.
</event>
<event>
 5    1  0.4814700E-001  0.8000000E+02  0.7546771E-02  0.1203772E+00
         11   -1    0    0    0    0  0.00000000000E+00  0.00000000000E+00  0.40000000000E+02  0.40000000000E+02  0.00000000000E+00 0.  1.
        -11   -1    0    0    0    0 -0.00000000000E+00 -0.00000000000E+00 -0.40000000000E+02  0.40000000000E+02  0.00000000000E+00 0. -1.
         23    2    1    2    0    0  0.00000000000E+00  0.00000000000E+00  0.00000000000E+00  0.80000000000E+02  0.80000000000E+02 0.  0.
          5    1    3    3  501    0 -0.53988746485E+01 -0.13119312101E+02 -0.37103177795E+02  0.40000000000E+02  0.47000000000E+01 0. -1.
         -5    1    3    3    0  501  0.53988746485E+01  0.13119312101E+02  0.37103177795E+02  0.40000000000E+02  0.47000000000E+01 0.  1.
</event>
<event>
 5    1  0.4814700E-001  0.8000000E+02  0.7546771E-02  0.1203772E+00
         11   -1    0    0    0    0  0.00000000000E+00  0.00000000000E+00  0.40000000000E+02  0.40000000000E+02  0.00000000000E+00 0. -1.
        -11   -1    0    0    0    0 -0.00000000000E+00 -0.00000000000E+00 -0.40000000000E+02  0.40000000000E+02  0.00000000000E+00 0.  1.
         23    2    1    2    0    0  0.00000000000E+00  0.00000000000E+00  0.00000000000E+00  0.80000000000E+02  0.80000000000E+02 0.  0.
          5    1    3    3  501    0  0.24096687680E+02 -0.17542052271E+02 -0.26259018355E+02  0.40000000000E+02  0.47000000000E+01 0. -1.
         -5    1    3    3    0  501 -0.24096687680E+02  0.17542052271E+02  0.26259018355E+02  0.40000000000E+02  0.47000000000E+01 0.  1.
</event>
<event>
 5    1  0.4814700E-001  0.8000000E+02  0.7546771E-02  0.1203772E+00
         11   -1    0    0    0    0  0.00000000000E+00  0.00000000000E+00  0.40000000000E+02  0.40000000000E+02  0.00000000000E+00 0.  1.
        -11   -1    0    0    0    0 -0.00000000000E+00 -0.00000000000E+00 -0.40000000000E+02  0.40000000000E+02  0.00000000000E+00 0. -1.
         23    2    1    2    0    0  0.00000000000E+00  0.00000000000E+00  0.00000000000E+00  0.80000000000E+02  0.80000000000E+02 0.  0.
          5    1    3    3  501    0 -0.16840681675E+02 -0.30041028727E+01 -0.35850757407E+02  0.40000000000E+02  0.47000000000E+01 0. -1.
         -5    1    3    3    0  501  0.16840681675E+02  0.30041028727E+01  0.35850757407E+02  0.40000000000E+02  0.47000000000E+01 0.  1.
</event>
<event>
 5    1  0.4814700E-001  0.8000000E+02  0.7546771E-02  0.1203772E+00
         11   -1    0    0    0    0  0.00000000000E+00  0.00000000000E+00  0.40000000000E+02  0.40000000000E+02  0.00000000000E+00 0.  1.
        -11   -1    0    0    0    0 -0.00000000000E+00 -0.00000000000E+00 -0.40000000000E+02  0.40000000000E+02  0.00000000000E+00 0. -1.
         23    2    1    2    0    0  0.00000000000E+00  0.00000000000E+00  0.00000000000E+00  0.80000000000E+02  0.80000000000E+02 0.  0.
          5    1    3    3  501    0 -0.12271826331E+02  0.28142971585E+01 -0.37674819310E+02  0.40000000000E+02  0.47000000000E+01 0. -1.
         -5    1    3    3    0  501  0.12271826331E+02 -0.28142971585E+01  0.37674819310E+02  0.40000000000E+02  0.47000000000E+01 0.  1.
</event>
<event>
 5    1  0.4814700E-001  0.8000000E+02  0.7546771E-02  0.1203772E+00
         11   -1    0    0    0    0  0.00000000000E+00  0.00000000000E+00  0.40000000000E+02  0.40000000000E+02  0.00000000000E+00 0.  1.
        -11   -1    0    0    0    0 -0.00000000000E+00 -0.00000000000E+00 -0.40000000000E+02  0.40000000000E+02  0.00000000000E+00 0. -1.
         23    2    1    2    0    0  0.00000000000E+00  0.00000000000E+00  0.00000000000E+00  0.80000000000E+02  0.80000000000E+02 0.  0.
          5    1    3    3  501    0  0.15153408081E+02 -0.43699734956E+01 -0.36458024565E+02  0.40000000000E+02  0.47000000000E+01 0. -1.
         -5    1    3    3    0  501 -0.15153408081E+02  0.43699734956E+01  0.36458024565E+02  0.40000000000E+02  0.47000000000E+01 0.  1.
</event>
<event>
 5    1  0.4814700E-001  0.8000000E+02  0.7546771E-02  0.1203772E+00
         11   -1    0    0    0    0  0.00000000000E+00  0.00000000000E+00  0.40000000000E+02  0.40000000000E+02  0.00000000000E+00 0.  1.
        -11   -1    0    0    0    0 -0.00000000000E+00 -0.00000000000E+00 -0.40000000000E+02  0.40000000000E+02  0.00000000000E+00 0. -1.
         23    2    1    2    0    0  0.00000000000E+00  0.00000000000E+00  0.00000000000E+00  0.80000000000E+02  0.80000000000E+02 0.  0.
          5    1    3    3  501    0 -0.38148423208E+02 -0.88593506035E+01  0.66422672070E+01  0.40000000000E+02  0.47000000000E+01 0. -1.
         -5    1    3    3    0  501  0.38148423208E+02  0.88593506035E+01 -0.66422672070E+01  0.40000000000E+02  0.47000000000E+01 0.  1.
</event>
<event>
 5    1  0.4814700E-001  0.8000000E+02  0.7546771E-02  0.1203772E+00
         11   -1    0    0    0    0  0.00000000000E+00  0.00000000000E+00  0.40000000000E+02  0.40000000000E+02  0.00000000000E+00 0.  1.
        -11   -1    0    0    0    0 -0.00000000000E+00 -0.00000000000E+00 -0.40000000000E+02  0.40000000000E+02  0.00000000000E+00 0. -1.
         23    2    1    2    0    0  0.00000000000E+00  0.00000000000E+00  0.00000000000E+00  0.80000000000E+02  0.80000000000E+02 0.  0.
          5    1    3    3  501    0  0.32701213015E+02 -0.10852118205E+01 -0.22524719370E+02  0.40000000000E+02  0.47000000000E+01 0. -1.
         -5    1    3    3    0  501 -0.32701213015E+02  0.10852118205E+01  0.22524719370E+02  0.40000000000E+02  0.47000000000E+01 0.  1.
</event>
<event>
 5    1  0.4814700E-001  0.8000000E+02  0.7546771E-02  0.1203772E+00
         11   -1    0    0    0    0  0.00000000000E+00  0.00000000000E+00  0.40000000000E+02  0.40000000000E+02  0.00000000000E+00 0.  1.
        -11   -1    0    0    0    0 -0.00000000000E+00 -0.00000000000E+00 -0.40000000000E+02  0.40000000000E+02  0.00000000000E+00 0. -1.
         23    2    1    2    0    0  0.00000000000E+00  0.00000000000E+00  0.00000000000E+00  0.80000000000E+02  0.80000000000E+02 0.  0.
          5    1    3    3  501    0 -0.34148539507E+02  0.11899596553E+02  0.16437361450E+02  0.40000000000E+02  0.47000000000E+01 0. -1.
         -5    1    3    3    0  501  0.34148539507E+02 -0.11899596553E+02 -0.16437361450E+02  0.40000000000E+02  0.47000000000E+01 0.  1.
</event>
<event>
 5    1  0.4814700E-001  0.8000000E+02  0.7546771E-02  0.1203772E+00
         11   -1    0    0    0    0  0.00000000000E+00  0.00000000000E+00  0.40000000000E+02  0.40000000000E+02  0.00000000000E+00 0. -1.
        -11   -1    0    0    0    0 -0.00000000000E+00 -0.00000000000E+00 -0.40000000000E+02  0.40000000000E+02  0.00000000000E+00 0.  1.
         23    2    1    2    0    0  0.00000000000E+00  0.00000000000E+00  0.00000000000E+00  0.80000000000E+02  0.80000000000E+02 0.  0.
          5    1    3    3  501    0  0.37943790902E+02  0.29318634499E+01 -0.11383448892E+02  0.40000000000E+02  0.47000000000E+01 0.  1.
         -5    1    3    3    0  501 -0.37943790902E+02 -0.29318634499E+01  0.11383448892E+02  0.40000000000E+02  0.47000000000E+01 0. -1.
</event>
<event>
 5    1  0.4814700E-001  0.8000000E+02  0.7546771E-02  0.1203772E+00
         11   -1    0    0    0    0  0.00000000000E+00  0.00000000000E+00  0.40000000000E+02  0.40000000000E+02  0.00000000000E+00 0.  1.
        -11   -1    0    0    0    0 -0.00000000000E+00 -0.00000000000E+00 -0.40000000000E+02  0.40000000000E+02  0.00000000000E+00 0. -1.
         23    2    1    2    0    0  0.00000000000E+00  0.00000000000E+00  0.00000000000E+00  0.80000000000E+02  0.80000000000E+02 0.  0.
          5    1    3    3  501    0  0.25439795062E+02 -0.22073761480E+02 -0.21058867048E+02  0.40000000000E+02  0.47000000000E+01 0. -1.
         -5    1    3    3    0  501 -0.25439795062E+02  0.22073761480E+02  0.21058867048E+02  0.40000000000E+02  0.47000000000E+01 0.  1.
</event>
<event>
 5    1  0.4814700E-001  0.8000000E+02  0.7546771E-02  0.1203772E+00
         11   -1    0    0    0    0  0.00000000000E+00  0.00000000000E+00  0.40000000000E+02  0.40000000000E+02  0.00000000000E+00 0.  1.
        -11   -1    0    0    0    0 -0.00000000000E+00 -0.00000000000E+00 -0.40000000000E+02  0.40000000000E+02  0.00000000000E+00 0. -1.
         23    2    1    2    0    0  0.00000000000E+00  0.00000000000E+00  0.00000000000E+00  0.80000000000E+02  0.80000000000E+02 0.  0.
          5    1    3    3  501    0  0.18818358987E+02  0.34666807745E+02 -0.46895421730E+01  0.40000000000E+02  0.47000000000E+01 0. -1.
         -5    1    3    3    0  501 -0.18818358987E+02 -0.34666807745E+02  0.46895421730E+01  0.40000000000E+02  0.47000000000E+01 0.  1.
</event>
<event>
 5    1  0.4814700E-001  0.8000000E+02  0.7546771E-02  0.1203772E+00
         11   -1    0    0    0    0  0.00000000000E+00  0.00000000000E+00  0.40000000000E+02  0.40000000000E+02  0.00000000000E+00 0.  1.
        -11   -1    0    0    0    0 -0.00000000000E+00 -0.00000000000E+00 -0.40000000000E+02  0.40000000000E+02  0.00000000000E+00 0. -1.
         23    2    1    2    0    0  0.00000000000E+00  0.00000000000E+00  0.00000000000E+00  0.80000000000E+02  0.80000000000E+02 0.  0.
          5    1    3    3  501    0  0.14715731362E+02  0.63584690849E+01 -0.36344561098E+02  0.40000000000E+02  0.47000000000E+01 0. -1.
         -5    1    3    3    0  501 -0.14715731362E+02 -0.63584690849E+01  0.36344561098E+02  0.40000000000E+02  0.47000000000E+01 0.  1.
</event>
<event>
 5    1  0.4814700E-001  0.8000000E+02  0.7546771E-02  0.1203772E+00
         11   -1    0    0    0    0  0.00000000000E+00  0.00000000000E+00  0.40000000000E+02  0.40000000000E+02  0.00000000000E+00 0. -1.
        -11   -1    0    0    0    0 -0.00000000000E+00 -0.00000000000E+00 -0.40000000000E+02  0.40000000000E+02  0.00000000000E+00 0.  1.
         23    2    1    2    0    0  0.00000000000E+00  0.00000000000E+00  0.00000000000E+00  0.80000000000E+02  0.80000000000E+02 0.  0.
          5    1    3    3  501    0  0.10716293746E+02  0.37741985109E+02  0.62139849036E+01  0.40000000000E+02  0.47000000000E+01 0. -1.
         -5    1    3    3    0  501 -0.10716293746E+02 -0.37741985109E+02 -0.62139849036E+01  0.40000000000E+02  0.47000000000E+01 0.  1.
</event>
<event>
 5    1  0.4814700E-001  0.8000000E+02  0.7546771E-02  0.1203772E+00
         11   -1    0    0    0    0  0.00000000000E+00  0.00000000000E+00  0.40000000000E+02  0.40000000000E+02  0.00000000000E+00 0. -1.
        -11   -1    0    0    0    0 -0.00000000000E+00 -0.00000000000E+00 -0.40000000000E+02  0.40000000000E+02  0.00000000000E+00 0.  1.
         23    2    1    2    0    0  0.00000000000E+00  0.00000000000E+00  0.00000000000E+00  0.80000000000E+02  0.80000000000E+02 0.  0.
          5    1    3    3  501    0 -0.79008689642E+01  0.12871634019E+02  0.36739723833E+02  0.40000000000E+02  0.47000000000E+01 0. -1.
         -5    1    3    3    0  501  0.79008689642E+01 -0.12871634019E+02 -0.36739723833E+02  0.40000000000E+02  0.47000000000E+01 0.  1.
</event>
<event>
 5    1  0.4814700E-001  0.8000000E+02  0.7546771E-02  0.1203772E+00
         11   -1    0    0    0    0  0.00000000000E+00  0.00000000000E+00  0.40000000000E+02  0.40000000000E+02  0.00000000000E+00 0. -1.
        -11   -1    0    0    0    0 -0.00000000000E+00 -0.00000000000E+00 -0.40000000000E+02  0.40000000000E+02  0.00000000000E+00 0.  1.
         23    2    1    2    0    0  0.00000000000E+00  0.00000000000E+00  0.00000000000E+00  0.80000000000E+02  0.80000000000E+02 0.  0.
          5    1    3    3  501    0  0.48568628814E+01  0.88347816635E+01  0.38422226847E+02  0.40000000000E+02  0.47000000000E+01 0. -1.
         -5    1    3    3    0  501 -0.48568628814E+01 -0.88347816635E+01 -0.38422226847E+02  0.40000000000E+02  0.47000000000E+01 0.  1.
</event>
<event>
 5    1  0.4814700E-001  0.8000000E+02  0.7546771E-02  0.1203772E+00
         11   -1    0    0    0    0  0.00000000000E+00  0.00000000000E+00  0.40000000000E+02  0.40000000000E+02  0.00000000000E+00 0.  1.
        -11   -1    0    0    0    0 -0.00000000000E+00 -0.00000000000E+00 -0.40000000000E+02  0.40000000000E+02  0.00000000000E+00 0. -1.
         23    2    1    2    0    0  0.00000000000E+00  0.00000000000E+00  0.00000000000E+00  0.80000000000E+02  0.80000000000E+02 0.  0.
          5    1    3    3  501    0  0.26460518963E+02  0.31941004624E+01 -0.29454178964E+02  0.40000000000E+02  0.47000000000E+01 0. -1.
         -5    1    3    3    0  501 -0.26460518963E+02 -0.31941004624E+01  0.29454178964E+02  0.40000000000E+02  0.47000000000E+01 0.  1.
</event>
<event>
 5    1  0.4814700E-001  0.8000000E+02  0.7546771E-02  0.1203772E+00
         11   -1    0    0    0    0  0.00000000000E+00  0.00000000000E+00  0.40000000000E+02  0.40000000000E+02  0.00000000000E+00 0. -1.
        -11   -1    0    0    0    0 -0.00000000000E+00 -0.00000000000E+00 -0.40000000000E+02  0.40000000000E+02  0.00000000000E+00 0.  1.
         23    2    1    2    0    0  0.00000000000E+00  0.00000000000E+00  0.00000000000E+00  0.80000000000E+02  0.80000000000E+02 0.  0.
          5    1    3    3  501    0  0.18164630575E+01 -0.91443117438E+01  0.38613365881E+02  0.40000000000E+02  0.47000000000E+01 0. -1.
         -5    1    3    3    0  501 -0.18164630575E+01  0.91443117438E+01 -0.38613365881E+02  0.40000000000E+02  0.47000000000E+01 0.  1.
</event>
<event>
 5    1  0.4814700E-001  0.8000000E+02  0.7546771E-02  0.1203772E+00
         11   -1    0    0    0    0  0.00000000000E+00  0.00000000000E+00  0.40000000000E+02  0.40000000000E+02  0.00000000000E+00 0.  1.
        -11   -1    0    0    0    0 -0.00000000000E+00 -0.00000000000E+00 -0.40000000000E+02  0.40000000000E+02  0.00000000000E+00 0. -1.
         23    2    1    2    0    0  0.00000000000E+00  0.00000000000E+00  0.00000000000E+00  0.80000000000E+02  0.80000000000E+02 0.  0.
          5    1    3    3  501    0 -0.44521756807E+01 -0.60524873642E+01 -0.39005839671E+02  0.40000000000E+02  0.47000000000E+01 0. -1.
         -5    1    3    3    0  501  0.44521756807E+01  0.60524873642E+01  0.39005839671E+02  0.40000000000E+02  0.47000000000E+01 0.  1.
</event>
<event>
 5    1  0.4814700E-001  0.8000000E+02  0.7546771E-02  0.1203772E+00
         11   -1    0    0    0    0  0.00000000000E+00  0.00000000000E+00  0.40000000000E+02  0.40000000000E+02  0.00000000000E+00 0. -1.
        -11   -1    0    0    0    0 -0.00000000000E+00 -0.00000000000E+00 -0.40000000000E+02  0.40000000000E+02  0.00000000000E+00 0.  1.
         23    2    1    2    0    0  0.00000000000E+00  0.00000000000E+00  0.00000000000E+00  0.80000000000E+02  0.80000000000E+02 0.  0.
          5    1    3    3  501    0 -0.57177152865E+01 -0.11007137082E+02  0.37736728331E+02  0.40000000000E+02  0.47000000000E+01 0. -1.
         -5    1    3    3    0  501  0.57177152865E+01  0.11007137082E+02 -0.37736728331E+02  0.40000000000E+02  0.47000000000E+01 0.  1.
</event>
<event>
 5    1  0.4814700E-001  0.8000000E+02  0.7546771E-02  0.1203772E+00
         11   -1    0    0    0    0  0.00000000000E+00  0.00000000000E+00  0.40000000000E+02  0.40000000000E+02  0.00000000000E+00 0.  1.
        -11   -1    0    0    0    0 -0.00000000000E+00 -0.00000000000E+00 -0.40000000000E+02  0.40000000000E+02  0.00000000000E+00 0. -1.
         23    2    1    2    0    0  0.00000000000E+00  0.00000000000E+00  0.00000000000E+00  0.80000000000E+02  0.80000000000E+02 0.  0.
          5    1    3    3  501    0 -0.16772568045E+02  0.18720125713E+02 -0.30759516486E+02  0.40000000000E+02  0.47000000000E+01 0. -1.
         -5    1    3    3    0  501  0.16772568045E+02 -0.18720125713E+02  0.30759516486E+02  0.40000000000E+02  0.47000000000E+01 0.  1.
</event>
<event>
 5    1  0.4814700E-001  0.8000000E+02  0.7546771E-02  0.1203772E+00
         11   -1    0    0    0    0  0.00000000000E+00  0.00000000000E+00  0.40000000000E+02  0.40000000000E+02  0.00000000000E+00 0.  1.
        -11   -1    0    0    0    0 -0.00000000000E+00 -0.00000000000E+00 -0.40000000000E+02  0.40000000000E+02  0.00000000000E+00 0. -1.
         23    2    1    2    0    0  0.00000000000E+00  0.00000000000E+00  0.00000000000E+00  0.80000000000E+02  0.80000000000E+02 0.  0.
          5    1    3    3  501    0 -0.39653397386E+02  0.11887986050E+01 -0.20260389058E+01  0.40000000000E+02  0.47000000000E+01 0. -1.
         -5    1    3    3    0  501  0.39653397386E+02 -0.11887986050E+01  0.20260389058E+01  0.40000000000E+02  0.47000000000E+01 0.  1.
</event>
<event>
 5    1  0.4814700E-001  0.8000000E+02  0.7546771E-02  0.1203772E+00
         11   -1    0    0    0    0  0.00000000000E+00  0.00000000000E+00  0.40000000000E+02  0.40000000000E+02  0.00000000000E+00 0. -1.
        -11   -1    0    0    0    0 -0.00000000000E+00 -0.00000000000E+00 -0.40000000000E+02  0.40000000000E+02  0.00000000000E+00 0.  1.
         23    2    1    2    0    0  0.00000000000E+00  0.00000000000E+00  0.00000000000E+00  0.80000000000E+02  0.80000000000E+02 0.  0.
          5    1    3    3  501    0  0.10010818295E+02  0.54063808556E+01  0.38058698915E+02  0.40000000000E+02  0.47000000000E+01 0. -1.
         -5    1    3    3    0  501 -0.10010818295E+02 -0.54063808556E+01 -0.38058698915E+02  0.40000000000E+02  0.47000000000E+01 0.  1.
</event>
<event>
 5    1  0.4814700E-001  0.8000000E+02  0.7546771E-02  0.1203772E+00
         11   -1    0    0    0    0  0.00000000000E+00  0.00000000000E+00  0.40000000000E+02  0.40000000000E+02  0.00000000000E+00 0. -1.
        -11   -1    0    0    0    0 -0.00000000000E+00 -0.00000000000E+00 -0.40000000000E+02  0.40000000000E+02  0.00000000000E+00 0.  1.
         23    2    1    2    0    0  0.00000000000E+00  0.00000000000E+00  0.00000000000E+00  0.80000000000E+02  0.80000000000E+02 0.  0.
          5    1    3    3  501    0 -0.57263347223E+01  0.34616192778E+02 -0.18623594932E+02  0.40000000000E+02  0.47000000000E+01 0.  1.
         -5    1    3    3    0  501  0.57263347223E+01 -0.34616192778E+02  0.18623594932E+02  0.40000000000E+02  0.47000000000E+01 0. -1.
</event>
<event>
 5    1  0.4814700E-001  0.8000000E+02  0.7546771E-02  0.1203772E+00
         11   -1    0    0    0    0  0.00000000000E+00  0.00000000000E+00  0.40000000000E+02  0.40000000000E+02  0.00000000000E+00 0.  1.
        -11   -1    0    0    0    0 -0.00000000000E+00 -0.00000000000E+00 -0.40000000000E+02  0.40000000000E+02  0.00000000000E+00 0. -1.
         23    2    1    2    0    0  0.00000000000E+00  0.00000000000E+00  0.00000000000E+00  0.80000000000E+02  0.80000000000E+02 0.  0.
          5    1    3    3  501    0  0.89492806045E+01 -0.15653199125E+02 -0.35394882876E+02  0.40000000000E+02  0.47000000000E+01 0. -1.
         -5    1    3    3    0  501 -0.89492806045E+01  0.15653199125E+02  0.35394882876E+02  0.40000000000E+02  0.47000000000E+01 0.  1.
</event>
<event>
 5    1  0.4814700E-001  0.8000000E+02  0.7546771E-02  0.1203772E+00
         11   -1    0    0    0    0  0.00000000000E+00  0.00000000000E+00  0.40000000000E+02  0.40000000000E+02  0.00000000000E+00 0.  1.
        -11   -1    0    0    0    0 -0.00000000000E+00 -0.00000000000E+00 -0.40000000000E+02  0.40000000000E+02  0.00000000000E+00 0. -1.
         23    2    1    2    0    0  0.00000000000E+00  0.00000000000E+00  0.00000000000E+00  0.80000000000E+02  0.80000000000E+02 0.  0.
          5    1    3    3  501    0  0.34400227470E+02 -0.18489196283E+02  0.72583724617E+01  0.40000000000E+02  0.47000000000E+01 0. -1.
         -5    1    3    3    0  501 -0.34400227470E+02  0.18489196283E+02 -0.72583724617E+01  0.40000000000E+02  0.47000000000E+01 0.  1.
</event>
<event>
 5    1  0.4814700E-001  0.8000000E+02  0.7546771E-02  0.1203772E+00
         11   -1    0    0    0    0  0.00000000000E+00  0.00000000000E+00  0.40000000000E+02  0.40000000000E+02  0.00000000000E+00 0.  1.
        -11   -1    0    0    0    0 -0.00000000000E+00 -0.00000000000E+00 -0.40000000000E+02  0.40000000000E+02  0.00000000000E+00 0. -1.
         23    2    1    2    0    0  0.00000000000E+00  0.00000000000E+00  0.00000000000E+00  0.80000000000E+02  0.80000000000E+02 0.  0.
          5    1    3    3  501    0  0.10197205589E+02  0.36403783428E+02 -0.12193914478E+02  0.40000000000E+02  0.47000000000E+01 0. -1.
         -5    1    3    3    0  501 -0.10197205589E+02 -0.36403783428E+02  0.12193914478E+02  0.40000000000E+02  0.47000000000E+01 0.  1.
</event>
<event>
 5    1  0.4814700E-001  0.8000000E+02  0.7546771E-02  0.1203772E+00
         11   -1    0    0    0    0  0.00000000000E+00  0.00000000000E+00  0.40000000000E+02  0.40000000000E+02  0.00000000000E+00 0.  1.
        -11   -1    0    0    0    0 -0.00000000000E+00 -0.00000000000E+00 -0.40000000000E+02  0.40000000000E+02  0.00000000000E+00 0. -1.
         23    2    1    2    0    0  0.00000000000E+00  0.00000000000E+00  0.00000000000E+00  0.80000000000E+02  0.80000000000E+02 0.  0.
          5    1    3    3  501    0  0.17908648315E+02 -0.19316201102E+02 -0.29733393526E+02  0.40000000000E+02  0.47000000000E+01 0. -1.
         -5    1    3    3    0  501 -0.17908648315E+02  0.19316201102E+02  0.29733393526E+02  0.40000000000E+02  0.47000000000E+01 0.  1.
</event>
<event>
 5    1  0.4814700E-001  0.8000000E+02  0.7546771E-02  0.1203772E+00
         11   -1    0    0    0    0  0.00000000000E+00  0.00000000000E+00  0.40000000000E+02  0.40000000000E+02  0.00000000000E+00 0.  1.
        -11   -1    0    0    0    0 -0.00000000000E+00 -0.00000000000E+00 -0.40000000000E+02  0.40000000000E+02  0.00000000000E+00 0. -1.
         23    2    1    2    0    0  0.00000000000E+00  0.00000000000E+00  0.00000000000E+00  0.80000000000E+02  0.80000000000E+02 0.  0.
          5    1    3    3  501    0 -0.28352493264E+02 -0.10040142826E+02 -0.25946900734E+02  0.40000000000E+02  0.47000000000E+01 0. -1.
         -5    1    3    3    0  501  0.28352493264E+02  0.10040142826E+02  0.25946900734E+02  0.40000000000E+02  0.47000000000E+01 0.  1.
</event>
<event>
 5    1  0.4814700E-001  0.8000000E+02  0.7546771E-02  0.1203772E+00
         11   -1    0    0    0    0  0.00000000000E+00  0.00000000000E+00  0.40000000000E+02  0.40000000000E+02  0.00000000000E+00 0. -1.
        -11   -1    0    0    0    0 -0.00000000000E+00 -0.00000000000E+00 -0.40000000000E+02  0.40000000000E+02  0.00000000000E+00 0.  1.
         23    2    1    2    0    0  0.00000000000E+00  0.00000000000E+00  0.00000000000E+00  0.80000000000E+02  0.80000000000E+02 0.  0.
          5    1    3    3  501    0  0.63226120659E+01  0.26571909268E+02  0.28842125693E+02  0.40000000000E+02  0.47000000000E+01 0. -1.
         -5    1    3    3    0  501 -0.63226120659E+01 -0.26571909268E+02 -0.28842125693E+02  0.40000000000E+02  0.47000000000E+01 0.  1.
</event>
<event>
 5    1  0.4814700E-001  0.8000000E+02  0.7546771E-02  0.1203772E+00
         11   -1    0    0    0    0  0.00000000000E+00  0.00000000000E+00  0.40000000000E+02  0.40000000000E+02  0.00000000000E+00 0.  1.
        -11   -1    0    0    0    0 -0.00000000000E+00 -0.00000000000E+00 -0.40000000000E+02  0.40000000000E+02  0.00000000000E+00 0. -1.
         23    2    1    2    0    0  0.00000000000E+00  0.00000000000E+00  0.00000000000E+00  0.80000000000E+02  0.80000000000E+02 0.  0.
          5    1    3    3  501    0 -0.67499455548E+01 -0.39091943983E+02  0.20416049081E+01  0.40000000000E+02  0.47000000000E+01 0. -1.
         -5    1    3    3    0  501  0.67499455548E+01  0.39091943983E+02 -0.20416049081E+01  0.40000000000E+02  0.47000000000E+01 0.  1.
</event>
<event>
 5    1  0.4814700E-001  0.8000000E+02  0.7546771E-02  0.1203772E+00
         11   -1    0    0    0    0  0.00000000000E+00  0.00000000000E+00  0.40000000000E+02  0.40000000000E+02  0.00000000000E+00 0.  1.
        -11   -1    0    0    0    0 -0.00000000000E+00 -0.00000000000E+00 -0.40000000000E+02  0.40000000000E+02  0.00000000000E+00 0. -1.
         23    2    1    2    0    0  0.00000000000E+00  0.00000000000E+00  0.00000000000E+00  0.80000000000E+02  0.80000000000E+02 0.  0.
          5    1    3    3  501    0 -0.22470840613E+02 -0.32435611394E+02 -0.45719181530E+01  0.40000000000E+02  0.47000000000E+01 0. -1.
         -5    1    3    3    0  501  0.22470840613E+02  0.32435611394E+02  0.45719181530E+01  0.40000000000E+02  0.47000000000E+01 0.  1.
</event>
<event>
 5    1  0.4814700E-001  0.8000000E+02  0.7546771E-02  0.1203772E+00
         11   -1    0    0    0    0  0.00000000000E+00  0.00000000000E+00  0.40000000000E+02  0.40000000000E+02  0.00000000000E+00 0.  1.
        -11   -1    0    0    0    0 -0.00000000000E+00 -0.00000000000E+00 -0.40000000000E+02  0.40000000000E+02  0.00000000000E+00 0. -1.
         23    2    1    2    0    0  0.00000000000E+00  0.00000000000E+00  0.00000000000E+00  0.80000000000E+02  0.80000000000E+02 0.  0.
          5    1    3    3  501    0  0.21762967155E+02 -0.30891059701E+02 -0.12248497506E+02  0.40000000000E+02  0.47000000000E+01 0. -1.
         -5    1    3    3    0  501 -0.21762967155E+02  0.30891059701E+02  0.12248497506E+02  0.40000000000E+02  0.47000000000E+01 0.  1.
</event>
<event>
 5    1  0.4814700E-001  0.8000000E+02  0.7546771E-02  0.1203772E+00
         11   -1    0    0    0    0  0.00000000000E+00  0.00000000000E+00  0.40000000000E+02  0.40000000000E+02  0.00000000000E+00 0.  1.
        -11   -1    0    0    0    0 -0.00000000000E+00 -0.00000000000E+00 -0.40000000000E+02  0.40000000000E+02  0.00000000000E+00 0. -1.
         23    2    1    2    0    0  0.00000000000E+00  0.00000000000E+00  0.00000000000E+00  0.80000000000E+02  0.80000000000E+02 0.  0.
          5    1    3    3  501    0 -0.10369508778E+02 -0.29578802973E+02 -0.24402411815E+02  0.40000000000E+02  0.47000000000E+01 0. -1.
         -5    1    3    3    0  501  0.10369508778E+02  0.29578802973E+02  0.24402411815E+02  0.40000000000E+02  0.47000000000E+01 0.  1.
</event>
<event>
 5    1  0.4814700E-001  0.8000000E+02  0.7546771E-02  0.1203772E+00
         11   -1    0    0    0    0  0.00000000000E+00  0.00000000000E+00  0.40000000000E+02  0.40000000000E+02  0.00000000000E+00 0.  1.
        -11   -1    0    0    0    0 -0.00000000000E+00 -0.00000000000E+00 -0.40000000000E+02  0.40000000000E+02  0.00000000000E+00 0. -1.
         23    2    1    2    0    0  0.00000000000E+00  0.00000000000E+00  0.00000000000E+00  0.80000000000E+02  0.80000000000E+02 0.  0.
          5    1    3    3  501    0  0.29800380140E+02  0.22456831490E+01 -0.26168764792E+02  0.40000000000E+02  0.47000000000E+01 0. -1.
         -5    1    3    3    0  501 -0.29800380140E+02 -0.22456831490E+01  0.26168764792E+02  0.40000000000E+02  0.47000000000E+01 0.  1.
</event>
<event>
 5    1  0.4814700E-001  0.8000000E+02  0.7546771E-02  0.1203772E+00
         11   -1    0    0    0    0  0.00000000000E+00  0.00000000000E+00  0.40000000000E+02  0.40000000000E+02  0.00000000000E+00 0. -1.
        -11   -1    0    0    0    0 -0.00000000000E+00 -0.00000000000E+00 -0.40000000000E+02  0.40000000000E+02  0.00000000000E+00 0.  1.
         23    2    1    2    0    0  0.00000000000E+00  0.00000000000E+00  0.00000000000E+00  0.80000000000E+02  0.80000000000E+02 0.  0.
          5    1    3    3  501    0  0.28451396773E+02  0.16689559329E+02  0.22133382730E+02  0.40000000000E+02  0.47000000000E+01 0. -1.
         -5    1    3    3    0  501 -0.28451396773E+02 -0.16689559329E+02 -0.22133382730E+02  0.40000000000E+02  0.47000000000E+01 0.  1.
</event>
<event>
 5    1  0.4814700E-001  0.8000000E+02  0.7546771E-02  0.1203772E+00
         11   -1    0    0    0    0  0.00000000000E+00  0.00000000000E+00  0.40000000000E+02  0.40000000000E+02  0.00000000000E+00 0. -1.
        -11   -1    0    0    0    0 -0.00000000000E+00 -0.00000000000E+00 -0.40000000000E+02  0.40000000000E+02  0.00000000000E+00 0.  1.
         23    2    1    2    0    0  0.00000000000E+00  0.00000000000E+00  0.00000000000E+00  0.80000000000E+02  0.80000000000E+02 0.  0.
          5    1    3    3  501    0  0.48326307254E+01  0.35361772076E+02  0.17438484909E+02  0.40000000000E+02  0.47000000000E+01 0. -1.
         -5    1    3    3    0  501 -0.48326307254E+01 -0.35361772076E+02 -0.17438484909E+02  0.40000000000E+02  0.47000000000E+01 0.  1.
</event>
<event>
 5    1  0.4814700E-001  0.8000000E+02  0.7546771E-02  0.1203772E+00
         11   -1    0    0    0    0  0.00000000000E+00  0.00000000000E+00  0.40000000000E+02  0.40000000000E+02  0.00000000000E+00 0.  1.
        -11   -1    0    0    0    0 -0.00000000000E+00 -0.00000000000E+00 -0.40000000000E+02  0.40000000000E+02  0.00000000000E+00 0. -1.
         23    2    1    2    0    0  0.00000000000E+00  0.00000000000E+00  0.00000000000E+00  0.80000000000E+02  0.80000000000E+02 0.  0.
          5    1    3    3  501    0 -0.35591532659E+02  0.13414148040E+02 -0.11454843313E+02  0.40000000000E+02  0.47000000000E+01 0. -1.
         -5    1    3    3    0  501  0.35591532659E+02 -0.13414148040E+02  0.11454843313E+02  0.40000000000E+02  0.47000000000E+01 0.  1.
</event>
<event>
 5    1  0.4814700E-001  0.8000000E+02  0.7546771E-02  0.1203772E+00
         11   -1    0    0    0    0  0.00000000000E+00  0.00000000000E+00  0.40000000000E+02  0.40000000000E+02  0.00000000000E+00 0. -1.
        -11   -1    0    0    0    0 -0.00000000000E+00 -0.00000000000E+00 -0.40000000000E+02  0.40000000000E+02  0.00000000000E+00 0.  1.
         23    2    1    2    0    0  0.00000000000E+00  0.00000000000E+00  0.00000000000E+00  0.80000000000E+02  0.80000000000E+02 0.  0.
          5    1    3    3  501    0 -0.21800619134E+02  0.12248951810E+02  0.30864318961E+02  0.40000000000E+02  0.47000000000E+01 0. -1.
         -5    1    3    3    0  501  0.21800619134E+02 -0.12248951810E+02 -0.30864318961E+02  0.40000000000E+02  0.47000000000E+01 0.  1.
</event>
<event>
 5    1  0.4814700E-001  0.8000000E+02  0.7546771E-02  0.1203772E+00
         11   -1    0    0    0    0  0.00000000000E+00  0.00000000000E+00  0.40000000000E+02  0.40000000000E+02  0.00000000000E+00 0.  1.
        -11   -1    0    0    0    0 -0.00000000000E+00 -0.00000000000E+00 -0.40000000000E+02  0.40000000000E+02  0.00000000000E+00 0. -1.
         23    2    1    2    0    0  0.00000000000E+00  0.00000000000E+00  0.00000000000E+00  0.80000000000E+02  0.80000000000E+02 0.  0.
          5    1    3    3  501    0 -0.34538318880E+02 -0.16811570041E+02  0.10118579034E+02  0.40000000000E+02  0.47000000000E+01 0. -1.
         -5    1    3    3    0  501  0.34538318880E+02  0.16811570041E+02 -0.10118579034E+02  0.40000000000E+02  0.47000000000E+01 0.  1.
</event>
<event>
 5    1  0.4814700E-001  0.8000000E+02  0.7546771E-02  0.1203772E+00
         11   -1    0    0    0    0  0.00000000000E+00  0.00000000000E+00  0.40000000000E+02  0.40000000000E+02  0.00000000000E+00 0.  1.
        -11   -1    0    0    0    0 -0.00000000000E+00 -0.00000000000E+00 -0.40000000000E+02  0.40000000000E+02  0.00000000000E+00 0. -1.
         23    2    1    2    0    0  0.00000000000E+00  0.00000000000E+00  0.00000000000E+00  0.80000000000E+02  0.80000000000E+02 0.  0.
          5    1    3    3  501    0 -0.90858570722E+01 -0.33853154116E+02 -0.18690135304E+02  0.40000000000E+02  0.47000000000E+01 0. -1.
         -5    1    3    3    0  501  0.90858570722E+01  0.33853154116E+02  0.18690135304E+02  0.40000000000E+02  0.47000000000E+01 0.  1.
</event>
<event>
 5    1  0.4814700E-001  0.8000000E+02  0.7546771E-02  0.1203772E+00
         11   -1    0    0    0    0  0.00000000000E+00  0.00000000000E+00  0.40000000000E+02  0.40000000000E+02  0.00000000000E+00 0. -1.
        -11   -1    0    0    0    0 -0.00000000000E+00 -0.00000000000E+00 -0.40000000000E+02  0.40000000000E+02  0.00000000000E+00 0.  1.
         23    2    1    2    0    0  0.00000000000E+00  0.00000000000E+00  0.00000000000E+00  0.80000000000E+02  0.80000000000E+02 0.  0.
          5    1    3    3  501    0 -0.28838348958E+02  0.13845711708E+02  0.23549010525E+02  0.40000000000E+02  0.47000000000E+01 0. -1.
         -5    1    3    3    0  501  0.28838348958E+02 -0.13845711708E+02 -0.23549010525E+02  0.40000000000E+02  0.47000000000E+01 0.  1.
</event>
<event>
 5    1  0.4814700E-001  0.8000000E+02  0.7546771E-02  0.1203772E+00
         11   -1    0    0    0    0  0.00000000000E+00  0.00000000000E+00  0.40000000000E+02  0.40000000000E+02  0.00000000000E+00 0.  1.
        -11   -1    0    0    0    0 -0.00000000000E+00 -0.00000000000E+00 -0.40000000000E+02  0.40000000000E+02  0.00000000000E+00 0. -1.
         23    2    1    2    0    0  0.00000000000E+00  0.00000000000E+00  0.00000000000E+00  0.80000000000E+02  0.80000000000E+02 0.  0.
          5    1    3    3  501    0  0.26447871963E+02 -0.10869212437E+02 -0.27573180622E+02  0.40000000000E+02  0.47000000000E+01 0. -1.
         -5    1    3    3    0  501 -0.26447871963E+02  0.10869212437E+02  0.27573180622E+02  0.40000000000E+02  0.47000000000E+01 0.  1.
</event>
<event>
 5    1  0.4814700E-001  0.8000000E+02  0.7546771E-02  0.1203772E+00
         11   -1    0    0    0    0  0.00000000000E+00  0.00000000000E+00  0.40000000000E+02  0.40000000000E+02  0.00000000000E+00 0.  1.
        -11   -1    0    0    0    0 -0.00000000000E+00 -0.00000000000E+00 -0.40000000000E+02  0.40000000000E+02  0.00000000000E+00 0. -1.
         23    2    1    2    0    0  0.00000000000E+00  0.00000000000E+00  0.00000000000E+00  0.80000000000E+02  0.80000000000E+02 0.  0.
          5    1    3    3  501    0 -0.35898117393E+01  0.39397442830E+02  0.35867464539E+01  0.40000000000E+02  0.47000000000E+01 0. -1.
         -5    1    3    3    0  501  0.35898117393E+01 -0.39397442830E+02 -0.35867464539E+01  0.40000000000E+02  0.47000000000E+01 0.  1.
</event>
<event>
 5    1  0.4814700E-001  0.8000000E+02  0.7546771E-02  0.1203772E+00
         11   -1    0    0    0    0  0.00000000000E+00  0.00000000000E+00  0.40000000000E+02  0.40000000000E+02  0.00000000000E+00 0.  1.
        -11   -1    0    0    0    0 -0.00000000000E+00 -0.00000000000E+00 -0.40000000000E+02  0.40000000000E+02  0.00000000000E+00 0. -1.
         23    2    1    2    0    0  0.00000000000E+00  0.00000000000E+00  0.00000000000E+00  0.80000000000E+02  0.80000000000E+02 0.  0.
          5    1    3    3  501    0  0.32026956498E+02  0.12339226385E+02 -0.19998188660E+02  0.40000000000E+02  0.47000000000E+01 0. -1.
         -5    1    3    3    0  501 -0.32026956498E+02 -0.12339226385E+02  0.19998188660E+02  0.40000000000E+02  0.47000000000E+01 0.  1.
</event>
<event>
 5    1  0.4814700E-001  0.8000000E+02  0.7546771E-02  0.1203772E+00
         11   -1    0    0    0    0  0.00000000000E+00  0.00000000000E+00  0.40000000000E+02  0.40000000000E+02  0.00000000000E+00 0. -1.
        -11   -1    0    0    0    0 -0.00000000000E+00 -0.00000000000E+00 -0.40000000000E+02  0.40000000000E+02  0.00000000000E+00 0.  1.
         23    2    1    2    0    0  0.00000000000E+00  0.00000000000E+00  0.00000000000E+00  0.80000000000E+02  0.80000000000E+02 0.  0.
          5    1    3    3  501    0  0.32711486726E+02  0.11757253858E+02 -0.19225910067E+02  0.40000000000E+02  0.47000000000E+01 0.  1.
         -5    1    3    3    0  501 -0.32711486726E+02 -0.11757253858E+02  0.19225910067E+02  0.40000000000E+02  0.47000000000E+01 0. -1.
</event>
<event>
 5    1  0.4814700E-001  0.8000000E+02  0.7546771E-02  0.1203772E+00
         11   -1    0    0    0    0  0.00000000000E+00  0.00000000000E+00  0.40000000000E+02  0.40000000000E+02  0.00000000000E+00 0. -1.
        -11   -1    0    0    0    0 -0.00000000000E+00 -0.00000000000E+00 -0.40000000000E+02  0.40000000000E+02  0.00000000000E+00 0.  1.
         23    2    1    2    0    0  0.00000000000E+00  0.00000000000E+00  0.00000000000E+00  0.80000000000E+02  0.80000000000E+02 0.  0.
          5    1    3    3  501    0 -0.34065713348E+01  0.38889600337E+02  0.73419518768E+01  0.40000000000E+02  0.47000000000E+01 0. -1.
         -5    1    3    3    0  501  0.34065713348E+01 -0.38889600337E+02 -0.73419518768E+01  0.40000000000E+02  0.47000000000E+01 0.  1.
</event>
<event>
 5    1  0.4814700E-001  0.8000000E+02  0.7546771E-02  0.1203772E+00
         11   -1    0    0    0    0  0.00000000000E+00  0.00000000000E+00  0.40000000000E+02  0.40000000000E+02  0.00000000000E+00 0. -1.
        -11   -1    0    0    0    0 -0.00000000000E+00 -0.00000000000E+00 -0.40000000000E+02  0.40000000000E+02  0.00000000000E+00 0.  1.
         23    2    1    2    0    0  0.00000000000E+00  0.00000000000E+00  0.00000000000E+00  0.80000000000E+02  0.80000000000E+02 0.  0.
          5    1    3    3  501    0  0.13019086049E+02  0.12692547526E+02  0.35317313541E+02  0.40000000000E+02  0.47000000000E+01 0. -1.
         -5    1    3    3    0  501 -0.13019086049E+02 -0.12692547526E+02 -0.35317313541E+02  0.40000000000E+02  0.47000000000E+01 0.  1.
</event>
<event>
 5    1  0.4814700E-001  0.8000000E+02  0.7546771E-02  0.1203772E+00
         11   -1    0    0    0    0  0.00000000000E+00  0.00000000000E+00  0.40000000000E+02  0.40000000000E+02  0.00000000000E+00 0.  1.
        -11   -1    0    0    0    0 -0.00000000000E+00 -0.00000000000E+00 -0.40000000000E+02  0.40000000000E+02  0.00000000000E+00 0. -1.
         23    2    1    2    0    0  0.00000000000E+00  0.00000000000E+00  0.00000000000E+00  0.80000000000E+02  0.80000000000E+02 0.  0.
          5    1    3    3  501    0  0.53878095261E+01 -0.39307007001E+02 -0.19597727213E+01  0.40000000000E+02  0.47000000000E+01 0. -1.
         -5    1    3    3    0  501 -0.53878095261E+01  0.39307007001E+02  0.19597727213E+01  0.40000000000E+02  0.47000000000E+01 0.  1.
</event>
<event>
 5    1  0.4814700E-001  0.8000000E+02  0.7546771E-02  0.1203772E+00
         11   -1    0    0    0    0  0.00000000000E+00  0.00000000000E+00  0.40000000000E+02  0.40000000000E+02  0.00000000000E+00 0. -1.
        -11   -1    0    0    0    0 -0.00000000000E+00 -0.00000000000E+00 -0.40000000000E+02  0.40000000000E+02  0.00000000000E+00 0.  1.
         23    2    1    2    0    0  0.00000000000E+00  0.00000000000E+00  0.00000000000E+00  0.80000000000E+02  0.80000000000E+02 0.  0.
          5    1    3    3  501    0 -0.10659148336E+02  0.17907005145E+02  0.33817624451E+02  0.40000000000E+02  0.47000000000E+01 0. -1.
         -5    1    3    3    0  501  0.10659148336E+02 -0.17907005145E+02 -0.33817624451E+02  0.40000000000E+02  0.47000000000E+01 0.  1.
</event>
<event>
 5    1  0.4814700E-001  0.8000000E+02  0.7546771E-02  0.1203772E+00
         11   -1    0    0    0    0  0.00000000000E+00  0.00000000000E+00  0.40000000000E+02  0.40000000000E+02  0.00000000000E+00 0. -1.
        -11   -1    0    0    0    0 -0.00000000000E+00 -0.00000000000E+00 -0.40000000000E+02  0.40000000000E+02  0.00000000000E+00 0.  1.
         23    2    1    2    0    0  0.00000000000E+00  0.00000000000E+00  0.00000000000E+00  0.80000000000E+02  0.80000000000E+02 0.  0.
          5    1    3    3  501    0  0.13460022495E+02  0.65026286462E+01  0.36802902265E+02  0.40000000000E+02  0.47000000000E+01 0. -1.
         -5    1    3    3    0  501 -0.13460022495E+02 -0.65026286462E+01 -0.36802902265E+02  0.40000000000E+02  0.47000000000E+01 0.  1.
</event>
<event>
 5    1  0.4814700E-001  0.8000000E+02  0.7546771E-02  0.1203772E+00
         11   -1    0    0    0    0  0.00000000000E+00  0.00000000000E+00  0.40000000000E+02  0.40000000000E+02  0.00000000000E+00 0.  1.
        -11   -1    0    0    0    0 -0.00000000000E+00 -0.00000000000E+00 -0.40000000000E+02  0.40000000000E+02  0.00000000000E+00 0. -1.
         23    2    1    2    0    0  0.00000000000E+00  0.00000000000E+00  0.00000000000E+00  0.80000000000E+02  0.80000000000E+02 0.  0.
          5    1    3    3  501    0 -0.96563537958E+01  0.19734552565E+02 -0.33093991395E+02  0.40000000000E+02  0.47000000000E+01 0. -1.
         -5    1    3    3    0  501  0.96563537958E+01 -0.19734552565E+02  0.33093991395E+02  0.40000000000E+02  0.47000000000E+01 0.  1.
</event>
<event>
 5    1  0.4814700E-001  0.8000000E+02  0.7546771E-02  0.1203772E+00
         11   -1    0    0    0    0  0.00000000000E+00  0.00000000000E+00  0.40000000000E+02  0.40000000000E+02  0.00000000000E+00 0.  1.
        -11   -1    0    0    0    0 -0.00000000000E+00 -0.00000000000E+00 -0.40000000000E+02  0.40000000000E+02  0.00000000000E+00 0. -1.
         23    2    1    2    0    0  0.00000000000E+00  0.00000000000E+00  0.00000000000E+00  0.80000000000E+02  0.80000000000E+02 0.  0.
          5    1    3    3  501    0 -0.20733217851E+02  0.18490846520E+02 -0.28392468588E+02  0.40000000000E+02  0.47000000000E+01 0. -1.
         -5    1    3    3    0  501  0.20733217851E+02 -0.18490846520E+02  0.28392468588E+02  0.40000000000E+02  0.47000000000E+01 0.  1.
</event>
<event>
 5    1  0.4814700E-001  0.8000000E+02  0.7546771E-02  0.1203772E+00
         11   -1    0    0    0    0  0.00000000000E+00  0.00000000000E+00  0.40000000000E+02  0.40000000000E+02  0.00000000000E+00 0.  1.
        -11   -1    0    0    0    0 -0.00000000000E+00 -0.00000000000E+00 -0.40000000000E+02  0.40000000000E+02  0.00000000000E+00 0. -1.
         23    2    1    2    0    0  0.00000000000E+00  0.00000000000E+00  0.00000000000E+00  0.80000000000E+02  0.80000000000E+02 0.  0.
          5    1    3    3  501    0  0.92492958536E+01  0.27684438147E+02 -0.26943132904E+02  0.40000000000E+02  0.47000000000E+01 0. -1.
         -5    1    3    3    0  501 -0.92492958536E+01 -0.27684438147E+02  0.26943132904E+02  0.40000000000E+02  0.47000000000E+01 0.  1.
</event>
<event>
 5    1  0.4814700E-001  0.8000000E+02  0.7546771E-02  0.1203772E+00
         11   -1    0    0    0    0  0.00000000000E+00  0.00000000000E+00  0.40000000000E+02  0.40000000000E+02  0.00000000000E+00 0. -1.
        -11   -1    0    0    0    0 -0.00000000000E+00 -0.00000000000E+00 -0.40000000000E+02  0.40000000000E+02  0.00000000000E+00 0.  1.
         23    2    1    2    0    0  0.00000000000E+00  0.00000000000E+00  0.00000000000E+00  0.80000000000E+02  0.80000000000E+02 0.  0.
          5    1    3    3  501    0  0.26728471304E+02  0.24249097916E+02  0.16597592356E+02  0.40000000000E+02  0.47000000000E+01 0. -1.
         -5    1    3    3    0  501 -0.26728471304E+02 -0.24249097916E+02 -0.16597592356E+02  0.40000000000E+02  0.47000000000E+01 0.  1.
</event>
<event>
 5    1  0.4814700E-001  0.8000000E+02  0.7546771E-02  0.1203772E+00
         11   -1    0    0    0    0  0.00000000000E+00  0.00000000000E+00  0.40000000000E+02  0.40000000000E+02  0.00000000000E+00 0.  1.
        -11   -1    0    0    0    0 -0.00000000000E+00 -0.00000000000E+00 -0.40000000000E+02  0.40000000000E+02  0.00000000000E+00 0. -1.
         23    2    1    2    0    0  0.00000000000E+00  0.00000000000E+00  0.00000000000E+00  0.80000000000E+02  0.80000000000E+02 0.  0.
          5    1    3    3  501    0 -0.16260340971E+02  0.26243697801E+02 -0.24995592356E+02  0.40000000000E+02  0.47000000000E+01 0. -1.
         -5    1    3    3    0  501  0.16260340971E+02 -0.26243697801E+02  0.24995592356E+02  0.40000000000E+02  0.47000000000E+01 0.  1.
</event>
<event>
 5    1  0.4814700E-001  0.8000000E+02  0.7546771E-02  0.1203772E+00
         11   -1    0    0    0    0  0.00000000000E+00  0.00000000000E+00  0.40000000000E+02  0.40000000000E+02  0.00000000000E+00 0.  1.
        -11   -1    0    0    0    0 -0.00000000000E+00 -0.00000000000E+00 -0.40000000000E+02  0.40000000000E+02  0.00000000000E+00 0. -1.
         23    2    1    2    0    0  0.00000000000E+00  0.00000000000E+00  0.00000000000E+00  0.80000000000E+02  0.80000000000E+02 0.  0.
          5    1    3    3  501    0  0.37444536533E+02 -0.12745159080E+02  0.36575406776E+01  0.40000000000E+02  0.47000000000E+01 0. -1.
         -5    1    3    3    0  501 -0.37444536533E+02  0.12745159080E+02 -0.36575406776E+01  0.40000000000E+02  0.47000000000E+01 0.  1.
</event>
<event>
 5    1  0.4814700E-001  0.8000000E+02  0.7546771E-02  0.1203772E+00
         11   -1    0    0    0    0  0.00000000000E+00  0.00000000000E+00  0.40000000000E+02  0.40000000000E+02  0.00000000000E+00 0. -1.
        -11   -1    0    0    0    0 -0.00000000000E+00 -0.00000000000E+00 -0.40000000000E+02  0.40000000000E+02  0.00000000000E+00 0.  1.
         23    2    1    2    0    0  0.00000000000E+00  0.00000000000E+00  0.00000000000E+00  0.80000000000E+02  0.80000000000E+02 0.  0.
          5    1    3    3  501    0  0.15919383145E+02  0.36283231218E+02  0.28302601744E+01  0.40000000000E+02  0.47000000000E+01 0.  1.
         -5    1    3    3    0  501 -0.15919383145E+02 -0.36283231218E+02 -0.28302601744E+01  0.40000000000E+02  0.47000000000E+01 0. -1.
</event>
<event>
 5    1  0.4814700E-001  0.8000000E+02  0.7546771E-02  0.1203772E+00
         11   -1    0    0    0    0  0.00000000000E+00  0.00000000000E+00  0.40000000000E+02  0.40000000000E+02  0.00000000000E+00 0.  1.
        -11   -1    0    0    0    0 -0.00000000000E+00 -0.00000000000E+00 -0.40000000000E+02  0.40000000000E+02  0.00000000000E+00 0. -1.
         23    2    1    2    0    0  0.00000000000E+00  0.00000000000E+00  0.00000000000E+00  0.80000000000E+02  0.80000000000E+02 0.  0.
          5    1    3    3  501    0 -0.77345127952E+01  0.31090460066E+02 -0.23483411267E+02  0.40000000000E+02  0.47000000000E+01 0. -1.
         -5    1    3    3    0  501  0.77345127952E+01 -0.31090460066E+02  0.23483411267E+02  0.40000000000E+02  0.47000000000E+01 0.  1.
</event>
<event>
 5    1  0.4814700E-001  0.8000000E+02  0.7546771E-02  0.1203772E+00
         11   -1    0    0    0    0  0.00000000000E+00  0.00000000000E+00  0.40000000000E+02  0.40000000000E+02  0.00000000000E+00 0.  1.
        -11   -1    0    0    0    0 -0.00000000000E+00 -0.00000000000E+00 -0.40000000000E+02  0.40000000000E+02  0.00000000000E+00 0. -1.
         23    2    1    2    0    0  0.00000000000E+00  0.00000000000E+00  0.00000000000E+00  0.80000000000E+02  0.80000000000E+02 0.  0.
          5    1    3    3  501    0  0.34033264684E+02 -0.18063672212E+02  0.96618135571E+01  0.40000000000E+02  0.47000000000E+01 0. -1.
         -5    1    3    3    0  501 -0.34033264684E+02  0.18063672212E+02 -0.96618135571E+01  0.40000000000E+02  0.47000000000E+01 0.  1.
</event>
<event>
 5    1  0.4814700E-001  0.8000000E+02  0.7546771E-02  0.1203772E+00
         11   -1    0    0    0    0  0.00000000000E+00  0.00000000000E+00  0.40000000000E+02  0.40000000000E+02  0.00000000000E+00 0. -1.
        -11   -1    0    0    0    0 -0.00000000000E+00 -0.00000000000E+00 -0.40000000000E+02  0.40000000000E+02  0.00000000000E+00 0.  1.
         23    2    1    2    0    0  0.00000000000E+00  0.00000000000E+00  0.00000000000E+00  0.80000000000E+02  0.80000000000E+02 0.  0.
          5    1    3    3  501    0  0.26423663847E+02  0.29643265238E+02  0.98833949071E+00  0.40000000000E+02  0.47000000000E+01 0. -1.
         -5    1    3    3    0  501 -0.26423663847E+02 -0.29643265238E+02 -0.98833949071E+00  0.40000000000E+02  0.47000000000E+01 0.  1.
</event>
<event>
 5    1  0.4814700E-001  0.8000000E+02  0.7546771E-02  0.1203772E+00
         11   -1    0    0    0    0  0.00000000000E+00  0.00000000000E+00  0.40000000000E+02  0.40000000000E+02  0.00000000000E+00 0. -1.
        -11   -1    0    0    0    0 -0.00000000000E+00 -0.00000000000E+00 -0.40000000000E+02  0.40000000000E+02  0.00000000000E+00 0.  1.
         23    2    1    2    0    0  0.00000000000E+00  0.00000000000E+00  0.00000000000E+00  0.80000000000E+02  0.80000000000E+02 0.  0.
          5    1    3    3  501    0 -0.19728023990E+02  0.45732558284E+01  0.34173094688E+02  0.40000000000E+02  0.47000000000E+01 0. -1.
         -5    1    3    3    0  501  0.19728023990E+02 -0.45732558284E+01 -0.34173094688E+02  0.40000000000E+02  0.47000000000E+01 0.  1.
</event>
<event>
 5    1  0.4814700E-001  0.8000000E+02  0.7546771E-02  0.1203772E+00
         11   -1    0    0    0    0  0.00000000000E+00  0.00000000000E+00  0.40000000000E+02  0.40000000000E+02  0.00000000000E+00 0.  1.
        -11   -1    0    0    0    0 -0.00000000000E+00 -0.00000000000E+00 -0.40000000000E+02  0.40000000000E+02  0.00000000000E+00 0. -1.
         23    2    1    2    0    0  0.00000000000E+00  0.00000000000E+00  0.00000000000E+00  0.80000000000E+02  0.80000000000E+02 0.  0.
          5    1    3    3  501    0 -0.35924641199E+02 -0.54724397220E+01  0.16043146768E+02  0.40000000000E+02  0.47000000000E+01 0. -1.
         -5    1    3    3    0  501  0.35924641199E+02  0.54724397220E+01 -0.16043146768E+02  0.40000000000E+02  0.47000000000E+01 0.  1.
</event>
<event>
 5    1  0.4814700E-001  0.8000000E+02  0.7546771E-02  0.1203772E+00
         11   -1    0    0    0    0  0.00000000000E+00  0.00000000000E+00  0.40000000000E+02  0.40000000000E+02  0.00000000000E+00 0. -1.
        -11   -1    0    0    0    0 -0.00000000000E+00 -0.00000000000E+00 -0.40000000000E+02  0.40000000000E+02  0.00000000000E+00 0.  1.
         23    2    1    2    0    0  0.00000000000E+00  0.00000000000E+00  0.00000000000E+00  0.80000000000E+02  0.80000000000E+02 0.  0.
          5    1    3    3  501    0  0.10479209660E+02 -0.19374645591E+02  0.33056304589E+02  0.40000000000E+02  0.47000000000E+01 0. -1.
         -5    1    3    3    0  501 -0.10479209660E+02  0.19374645591E+02 -0.33056304589E+02  0.40000000000E+02  0.47000000000E+01 0.  1.
</event>
<event>
 5    1  0.4814700E-001  0.8000000E+02  0.7546771E-02  0.1203772E+00
         11   -1    0    0    0    0  0.00000000000E+00  0.00000000000E+00  0.40000000000E+02  0.40000000000E+02  0.00000000000E+00 0.  1.
        -11   -1    0    0    0    0 -0.00000000000E+00 -0.00000000000E+00 -0.40000000000E+02  0.40000000000E+02  0.00000000000E+00 0. -1.
         23    2    1    2    0    0  0.00000000000E+00  0.00000000000E+00  0.00000000000E+00  0.80000000000E+02  0.80000000000E+02 0.  0.
          5    1    3    3  501    0  0.10611065566E+02 -0.93495385020E+00 -0.38268017310E+02  0.40000000000E+02  0.47000000000E+01 0. -1.
         -5    1    3    3    0  501 -0.10611065566E+02  0.93495385020E+00  0.38268017310E+02  0.40000000000E+02  0.47000000000E+01 0.  1.
</event>
<event>
 5    1  0.4814700E-001  0.8000000E+02  0.7546771E-02  0.1203772E+00
         11   -1    0    0    0    0  0.00000000000E+00  0.00000000000E+00  0.40000000000E+02  0.40000000000E+02  0.00000000000E+00 0.  1.
        -11   -1    0    0    0    0 -0.00000000000E+00 -0.00000000000E+00 -0.40000000000E+02  0.40000000000E+02  0.00000000000E+00 0. -1.
         23    2    1    2    0    0  0.00000000000E+00  0.00000000000E+00  0.00000000000E+00  0.80000000000E+02  0.80000000000E+02 0.  0.
          5    1    3    3  501    0 -0.31510822824E+02 -0.18447549550E+02  0.15641801704E+02  0.40000000000E+02  0.47000000000E+01 0. -1.
         -5    1    3    3    0  501  0.31510822824E+02  0.18447549550E+02 -0.15641801704E+02  0.40000000000E+02  0.47000000000E+01 0.  1.
</event>
<event>
 5    1  0.4814700E-001  0.8000000E+02  0.7546771E-02  0.1203772E+00
         11   -1    0    0    0    0  0.00000000000E+00  0.00000000000E+00  0.40000000000E+02  0.40000000000E+02  0.00000000000E+00 0.  1.
        -11   -1    0    0    0    0 -0.00000000000E+00 -0.00000000000E+00 -0.40000000000E+02  0.40000000000E+02  0.00000000000E+00 0. -1.
         23    2    1    2    0    0  0.00000000000E+00  0.00000000000E+00  0.00000000000E+00  0.80000000000E+02  0.80000000000E+02 0.  0.
          5    1    3    3  501    0 -0.22489401893E+02  0.17100242189E+02 -0.27923440325E+02  0.40000000000E+02  0.47000000000E+01 0. -1.
         -5    1    3    3    0  501  0.22489401893E+02 -0.17100242189E+02  0.27923440325E+02  0.40000000000E+02  0.47000000000E+01 0.  1.
</event>
<event>
 5    1  0.4814700E-001  0.8000000E+02  0.7546771E-02  0.1203772E+00
         11   -1    0    0    0    0  0.00000000000E+00  0.00000000000E+00  0.40000000000E+02  0.40000000000E+02  0.00000000000E+00 0. -1.
        -11   -1    0    0    0    0 -0.00000000000E+00 -0.00000000000E+00 -0.40000000000E+02  0.40000000000E+02  0.00000000000E+00 0.  1.
         23    2    1    2    0    0  0.00000000000E+00  0.00000000000E+00  0.00000000000E+00  0.80000000000E+02  0.80000000000E+02 0.  0.
          5    1    3    3  501    0  0.15558741484E+02 -0.25076894926E+02  0.26589187733E+02  0.40000000000E+02  0.47000000000E+01 0. -1.
         -5    1    3    3    0  501 -0.15558741484E+02  0.25076894926E+02 -0.26589187733E+02  0.40000000000E+02  0.47000000000E+01 0.  1.
</event>
<event>
 5    1  0.4814700E-001  0.8000000E+02  0.7546771E-02  0.1203772E+00
         11   -1    0    0    0    0  0.00000000000E+00  0.00000000000E+00  0.40000000000E+02  0.40000000000E+02  0.00000000000E+00 0. -1.
        -11   -1    0    0    0    0 -0.00000000000E+00 -0.00000000000E+00 -0.40000000000E+02  0.40000000000E+02  0.00000000000E+00 0.  1.
         23    2    1    2    0    0  0.00000000000E+00  0.00000000000E+00  0.00000000000E+00  0.80000000000E+02  0.80000000000E+02 0.  0.
          5    1    3    3  501    0 -0.52539512227E+01  0.33953572594E+02  0.19936421561E+02  0.40000000000E+02  0.47000000000E+01 0. -1.
         -5    1    3    3    0  501  0.52539512227E+01 -0.33953572594E+02 -0.19936421561E+02  0.40000000000E+02  0.47000000000E+01 0.  1.
</event>
<event>
 5    1  0.4814700E-001  0.8000000E+02  0.7546771E-02  0.1203772E+00
         11   -1    0    0    0    0  0.00000000000E+00  0.00000000000E+00  0.40000000000E+02  0.40000000000E+02  0.00000000000E+00 0. -1.
        -11   -1    0    0    0    0 -0.00000000000E+00 -0.00000000000E+00 -0.40000000000E+02  0.40000000000E+02  0.00000000000E+00 0.  1.
         23    2    1    2    0    0  0.00000000000E+00  0.00000000000E+00  0.00000000000E+00  0.80000000000E+02  0.80000000000E+02 0.  0.
          5    1    3    3  501    0 -0.33610088266E+01  0.47568618336E+01  0.39293585802E+02  0.40000000000E+02  0.47000000000E+01 0. -1.
         -5    1    3    3    0  501  0.33610088266E+01 -0.47568618336E+01 -0.39293585802E+02  0.40000000000E+02  0.47000000000E+01 0.  1.
</event>
<event>
 5    1  0.4814700E-001  0.8000000E+02  0.7546771E-02  0.1203772E+00
         11   -1    0    0    0    0  0.00000000000E+00  0.00000000000E+00  0.40000000000E+02  0.40000000000E+02  0.00000000000E+00 0.  1.
        -11   -1    0    0    0    0 -0.00000000000E+00 -0.00000000000E+00 -0.40000000000E+02  0.40000000000E+02  0.00000000000E+00 0. -1.
         23    2    1    2    0    0  0.00000000000E+00  0.00000000000E+00  0.00000000000E+00  0.80000000000E+02  0.80000000000E+02 0.  0.
          5    1    3    3  501    0  0.31060492975E+02  0.24761269710E+02 -0.18787891959E+00  0.40000000000E+02  0.47000000000E+01 0. -1.
         -5    1    3    3    0  501 -0.31060492975E+02 -0.24761269710E+02  0.18787891959E+00  0.40000000000E+02  0.47000000000E+01 0.  1.
</event>
<event>
 5    1  0.4814700E-001  0.8000000E+02  0.7546771E-02  0.1203772E+00
         11   -1    0    0    0    0  0.00000000000E+00  0.00000000000E+00  0.40000000000E+02  0.40000000000E+02  0.00000000000E+00 0.  1.
        -11   -1    0    0    0    0 -0.00000000000E+00 -0.00000000000E+00 -0.40000000000E+02  0.40000000000E+02  0.00000000000E+00 0. -1.
         23    2    1    2    0    0  0.00000000000E+00  0.00000000000E+00  0.00000000000E+00  0.80000000000E+02  0.80000000000E+02 0.  0.
          5    1    3    3  501    0  0.91676570294E+01  0.36954535724E+02 -0.11323707609E+02  0.40000000000E+02  0.47000000000E+01 0. -1.
         -5    1    3    3    0  501 -0.91676570294E+01 -0.36954535724E+02  0.11323707609E+02  0.40000000000E+02  0.47000000000E+01 0.  1.
</event>
<event>
 5    1  0.4814700E-001  0.8000000E+02  0.7546771E-02  0.1203772E+00
         11   -1    0    0    0    0  0.00000000000E+00  0.00000000000E+00  0.40000000000E+02  0.40000000000E+02  0.00000000000E+00 0. -1.
        -11   -1    0    0    0    0 -0.00000000000E+00 -0.00000000000E+00 -0.40000000000E+02  0.40000000000E+02  0.00000000000E+00 0.  1.
         23    2    1    2    0    0  0.00000000000E+00  0.00000000000E+00  0.00000000000E+00  0.80000000000E+02  0.80000000000E+02 0.  0.
          5    1    3    3  501    0 -0.35652991243E+02 -0.16964441326E+02 -0.43568275091E+01  0.40000000000E+02  0.47000000000E+01 0. -1.
         -5    1    3    3    0  501  0.35652991243E+02  0.16964441326E+02  0.43568275091E+01  0.40000000000E+02  0.47000000000E+01 0.  1.
</event>
<event>
 5    1  0.4814700E-001  0.8000000E+02  0.7546771E-02  0.1203772E+00
         11   -1    0    0    0    0  0.00000000000E+00  0.00000000000E+00  0.40000000000E+02  0.40000000000E+02  0.00000000000E+00 0. -1.
        -11   -1    0    0    0    0 -0.00000000000E+00 -0.00000000000E+00 -0.40000000000E+02  0.40000000000E+02  0.00000000000E+00 0.  1.
         23    2    1    2    0    0  0.00000000000E+00  0.00000000000E+00  0.00000000000E+00  0.80000000000E+02  0.80000000000E+02 0.  0.
          5    1    3    3  501    0 -0.76815630308E+01 -0.38156320973E+02  0.79371757706E+01  0.40000000000E+02  0.47000000000E+01 0. -1.
         -5    1    3    3    0  501  0.76815630308E+01  0.38156320973E+02 -0.79371757706E+01  0.40000000000E+02  0.47000000000E+01 0.  1.
</event>
<event>
 5    1  0.4814700E-001  0.8000000E+02  0.7546771E-02  0.1203772E+00
         11   -1    0    0    0    0  0.00000000000E+00  0.00000000000E+00  0.40000000000E+02  0.40000000000E+02  0.00000000000E+00 0.  1.
        -11   -1    0    0    0    0 -0.00000000000E+00 -0.00000000000E+00 -0.40000000000E+02  0.40000000000E+02  0.00000000000E+00 0. -1.
         23    2    1    2    0    0  0.00000000000E+00  0.00000000000E+00  0.00000000000E+00  0.80000000000E+02  0.80000000000E+02 0.  0.
          5    1    3    3  501    0  0.17130502306E+02  0.23986707480E+02 -0.26628814375E+02  0.40000000000E+02  0.47000000000E+01 0. -1.
         -5    1    3    3    0  501 -0.17130502306E+02 -0.23986707480E+02  0.26628814375E+02  0.40000000000E+02  0.47000000000E+01 0.  1.
</event>
<event>
 5    1  0.4814700E-001  0.8000000E+02  0.7546771E-02  0.1203772E+00
         11   -1    0    0    0    0  0.00000000000E+00  0.00000000000E+00  0.40000000000E+02  0.40000000000E+02  0.00000000000E+00 0.  1.
        -11   -1    0    0    0    0 -0.00000000000E+00 -0.00000000000E+00 -0.40000000000E+02  0.40000000000E+02  0.00000000000E+00 0. -1.
         23    2    1    2    0    0  0.00000000000E+00  0.00000000000E+00  0.00000000000E+00  0.80000000000E+02  0.80000000000E+02 0.  0.
          5    1    3    3  501    0  0.29578362416E+02  0.25453247000E+02 -0.74271592083E+01  0.40000000000E+02  0.47000000000E+01 0. -1.
         -5    1    3    3    0  501 -0.29578362416E+02 -0.25453247000E+02  0.74271592083E+01  0.40000000000E+02  0.47000000000E+01 0.  1.
</event>
<event>
 5    1  0.4814700E-001  0.8000000E+02  0.7546771E-02  0.1203772E+00
         11   -1    0    0    0    0  0.00000000000E+00  0.00000000000E+00  0.40000000000E+02  0.40000000000E+02  0.00000000000E+00 0.  1.
        -11   -1    0    0    0    0 -0.00000000000E+00 -0.00000000000E+00 -0.40000000000E+02  0.40000000000E+02  0.00000000000E+00 0. -1.
         23    2    1    2    0    0  0.00000000000E+00  0.00000000000E+00  0.00000000000E+00  0.80000000000E+02  0.80000000000E+02 0.  0.
          5    1    3    3  501    0  0.14666249240E+02  0.29485470557E+02 -0.22213017788E+02  0.40000000000E+02  0.47000000000E+01 0. -1.
         -5    1    3    3    0  501 -0.14666249240E+02 -0.29485470557E+02  0.22213017788E+02  0.40000000000E+02  0.47000000000E+01 0.  1.
</event>
<event>
 5    1  0.4814700E-001  0.8000000E+02  0.7546771E-02  0.1203772E+00
         11   -1    0    0    0    0  0.00000000000E+00  0.00000000000E+00  0.40000000000E+02  0.40000000000E+02  0.00000000000E+00 0.  1.
        -11   -1    0    0    0    0 -0.00000000000E+00 -0.00000000000E+00 -0.40000000000E+02  0.40000000000E+02  0.00000000000E+00 0. -1.
         23    2    1    2    0    0  0.00000000000E+00  0.00000000000E+00  0.00000000000E+00  0.80000000000E+02  0.80000000000E+02 0.  0.
          5    1    3    3  501    0  0.25351375774E+02  0.27718556636E+02 -0.12918953689E+02  0.40000000000E+02  0.47000000000E+01 0. -1.
         -5    1    3    3    0  501 -0.25351375774E+02 -0.27718556636E+02  0.12918953689E+02  0.40000000000E+02  0.47000000000E+01 0.  1.
</event>
<event>
 5    1  0.4814700E-001  0.8000000E+02  0.7546771E-02  0.1203772E+00
         11   -1    0    0    0    0  0.00000000000E+00  0.00000000000E+00  0.40000000000E+02  0.40000000000E+02  0.00000000000E+00 0. -1.
        -11   -1    0    0    0    0 -0.00000000000E+00 -0.00000000000E+00 -0.40000000000E+02  0.40000000000E+02  0.00000000000E+00 0.  1.
         23    2    1    2    0    0  0.00000000000E+00  0.00000000000E+00  0.00000000000E+00  0.80000000000E+02  0.80000000000E+02 0.  0.
          5    1    3    3  501    0 -0.39277901792E+01 -0.17256305995E+01  0.39490564232E+02  0.40000000000E+02  0.47000000000E+01 0. -1.
         -5    1    3    3    0  501  0.39277901792E+01  0.17256305995E+01 -0.39490564232E+02  0.40000000000E+02  0.47000000000E+01 0.  1.
</event>
<event>
 5    1  0.4814700E-001  0.8000000E+02  0.7546771E-02  0.1203772E+00
         11   -1    0    0    0    0  0.00000000000E+00  0.00000000000E+00  0.40000000000E+02  0.40000000000E+02  0.00000000000E+00 0. -1.
        -11   -1    0    0    0    0 -0.00000000000E+00 -0.00000000000E+00 -0.40000000000E+02  0.40000000000E+02  0.00000000000E+00 0.  1.
         23    2    1    2    0    0  0.00000000000E+00  0.00000000000E+00  0.00000000000E+00  0.80000000000E+02  0.80000000000E+02 0.  0.
          5    1    3    3  501    0 -0.14476202886E+02 -0.24746586973E+02  0.27494653720E+02  0.40000000000E+02  0.47000000000E+01 0. -1.
         -5    1    3    3    0  501  0.14476202886E+02  0.24746586973E+02 -0.27494653720E+02  0.40000000000E+02  0.47000000000E+01 0.  1.
</event>
<event>
 5    1  0.4814700E-001  0.8000000E+02  0.7546771E-02  0.1203772E+00
         11   -1    0    0    0    0  0.00000000000E+00  0.00000000000E+00  0.40000000000E+02  0.40000000000E+02  0.00000000000E+00 0. -1.
        -11   -1    0    0    0    0 -0.00000000000E+00 -0.00000000000E+00 -0.40000000000E+02  0.40000000000E+02  0.00000000000E+00 0.  1.
         23    2    1    2    0    0  0.00000000000E+00  0.00000000000E+00  0.00000000000E+00  0.80000000000E+02  0.80000000000E+02 0.  0.
          5    1    3    3  501    0 -0.32196823331E+02 -0.21218496658E+02 -0.95420106371E+01  0.40000000000E+02  0.47000000000E+01 0. -1.
         -5    1    3    3    0  501  0.32196823331E+02  0.21218496658E+02  0.95420106371E+01  0.40000000000E+02  0.47000000000E+01 0.  1.
</event>
<event>
 5    1  0.4814700E-001  0.8000000E+02  0.7546771E-02  0.1203772E+00
         11   -1    0    0    0    0  0.00000000000E+00  0.00000000000E+00  0.40000000000E+02  0.40000000000E+02  0.00000000000E+00 0. -1.
        -11   -1    0    0    0    0 -0.00000000000E+00 -0.00000000000E+00 -0.40000000000E+02  0.40000000000E+02  0.00000000000E+00 0.  1.
         23    2    1    2    0    0  0.00000000000E+00  0.00000000000E+00  0.00000000000E+00  0.80000000000E+02  0.80000000000E+02 0.  0.
          5    1    3    3  501    0  0.15888537872E+02 -0.17135294076E+02  0.32122360766E+02  0.40000000000E+02  0.47000000000E+01 0. -1.
         -5    1    3    3    0  501 -0.15888537872E+02  0.17135294076E+02 -0.32122360766E+02  0.40000000000E+02  0.47000000000E+01 0.  1.
</event>
<event>
 5    1  0.4814700E-001  0.8000000E+02  0.7546771E-02  0.1203772E+00
         11   -1    0    0    0    0  0.00000000000E+00  0.00000000000E+00  0.40000000000E+02  0.40000000000E+02  0.00000000000E+00 0.  1.
        -11   -1    0    0    0    0 -0.00000000000E+00 -0.00000000000E+00 -0.40000000000E+02  0.40000000000E+02  0.00000000000E+00 0. -1.
         23    2    1    2    0    0  0.00000000000E+00  0.00000000000E+00  0.00000000000E+00  0.80000000000E+02  0.80000000000E+02 0.  0.
          5    1    3    3  501    0  0.34737991108E+02  0.16616890718E+02  0.97499188034E+01  0.40000000000E+02  0.47000000000E+01 0. -1.
         -5    1    3    3    0  501 -0.34737991108E+02 -0.16616890718E+02 -0.97499188034E+01  0.40000000000E+02  0.47000000000E+01 0.  1.
</event>
<event>
 5    1  0.4814700E-001  0.8000000E+02  0.7546771E-02  0.1203772E+00
         11   -1    0    0    0    0  0.00000000000E+00  0.00000000000E+00  0.40000000000E+02  0.40000000000E+02  0.00000000000E+00 0.  1.
        -11   -1    0    0    0    0 -0.00000000000E+00 -0.00000000000E+00 -0.40000000000E+02  0.40000000000E+02  0.00000000000E+00 0. -1.
         23    2    1    2    0    0  0.00000000000E+00  0.00000000000E+00  0.00000000000E+00  0.80000000000E+02  0.80000000000E+02 0.  0.
          5    1    3    3  501    0 -0.18012139868E+02 -0.85635504395E+01 -0.34353142815E+02  0.40000000000E+02  0.47000000000E+01 0. -1.
         -5    1    3    3    0  501  0.18012139868E+02  0.85635504395E+01  0.34353142815E+02  0.40000000000E+02  0.47000000000E+01 0.  1.
</event>
<event>
 5    1  0.4814700E-001  0.8000000E+02  0.7546771E-02  0.1203772E+00
         11   -1    0    0    0    0  0.00000000000E+00  0.00000000000E+00  0.40000000000E+02  0.40000000000E+02  0.00000000000E+00 0. -1.
        -11   -1    0    0    0    0 -0.00000000000E+00 -0.00000000000E+00 -0.40000000000E+02  0.40000000000E+02  0.00000000000E+00 0.  1.
         23    2    1    2    0    0  0.00000000000E+00  0.00000000000E+00  0.00000000000E+00  0.80000000000E+02  0.80000000000E+02 0.  0.
          5    1    3    3  501    0  0.39570485444E+02 -0.28839563215E+01  0.19415142683E+01  0.40000000000E+02  0.47000000000E+01 0. -1.
         -5    1    3    3    0  501 -0.39570485444E+02  0.28839563215E+01 -0.19415142683E+01  0.40000000000E+02  0.47000000000E+01 0.  1.
</event>
<event>
 5    1  0.4814700E-001  0.8000000E+02  0.7546771E-02  0.1203772E+00
         11   -1    0    0    0    0  0.00000000000E+00  0.00000000000E+00  0.40000000000E+02  0.40000000000E+02  0.00000000000E+00 0.  1.
        -11   -1    0    0    0    0 -0.00000000000E+00 -0.00000000000E+00 -0.40000000000E+02  0.40000000000E+02  0.00000000000E+00 0. -1.
         23    2    1    2    0    0  0.00000000000E+00  0.00000000000E+00  0.00000000000E+00  0.80000000000E+02  0.80000000000E+02 0.  0.
          5    1    3    3  501    0  0.10769973549E+02  0.30727804581E+02 -0.22753454581E+02  0.40000000000E+02  0.47000000000E+01 0. -1.
         -5    1    3    3    0  501 -0.10769973549E+02 -0.30727804581E+02  0.22753454581E+02  0.40000000000E+02  0.47000000000E+01 0.  1.
</event>
<event>
 5    1  0.4814700E-001  0.8000000E+02  0.7546771E-02  0.1203772E+00
         11   -1    0    0    0    0  0.00000000000E+00  0.00000000000E+00  0.40000000000E+02  0.40000000000E+02  0.00000000000E+00 0.  1.
        -11   -1    0    0    0    0 -0.00000000000E+00 -0.00000000000E+00 -0.40000000000E+02  0.40000000000E+02  0.00000000000E+00 0. -1.
         23    2    1    2    0    0  0.00000000000E+00  0.00000000000E+00  0.00000000000E+00  0.80000000000E+02  0.80000000000E+02 0.  0.
          5    1    3    3  501    0  0.36989775101E+02  0.70030100546E+01 -0.12673767716E+02  0.40000000000E+02  0.47000000000E+01 0. -1.
         -5    1    3    3    0  501 -0.36989775101E+02 -0.70030100546E+01  0.12673767716E+02  0.40000000000E+02  0.47000000000E+01 0.  1.
</event>
<event>
 5    1  0.4814700E-001  0.8000000E+02  0.7546771E-02  0.1203772E+00
         11   -1    0    0    0    0  0.00000000000E+00  0.00000000000E+00  0.40000000000E+02  0.40000000000E+02  0.00000000000E+00 0. -1.
        -11   -1    0    0    0    0 -0.00000000000E+00 -0.00000000000E+00 -0.40000000000E+02  0.40000000000E+02  0.00000000000E+00 0.  1.
         23    2    1    2    0    0  0.00000000000E+00  0.00000000000E+00  0.00000000000E+00  0.80000000000E+02  0.80000000000E+02 0.  0.
          5    1    3    3  501    0  0.29941767752E+02 -0.26070238243E+02  0.13203112695E+01  0.40000000000E+02  0.47000000000E+01 0. -1.
         -5    1    3    3    0  501 -0.29941767752E+02  0.26070238243E+02 -0.13203112695E+01  0.40000000000E+02  0.47000000000E+01 0.  1.
</event>
<event>
 5    1  0.4814700E-001  0.8000000E+02  0.7546771E-02  0.1203772E+00
         11   -1    0    0    0    0  0.00000000000E+00  0.00000000000E+00  0.40000000000E+02  0.40000000000E+02  0.00000000000E+00 0.  1.
        -11   -1    0    0    0    0 -0.00000000000E+00 -0.00000000000E+00 -0.40000000000E+02  0.40000000000E+02  0.00000000000E+00 0. -1.
         23    2    1    2    0    0  0.00000000000E+00  0.00000000000E+00  0.00000000000E+00  0.80000000000E+02  0.80000000000E+02 0.  0.
          5    1    3    3  501    0 -0.29317997446E+02  0.24023172171E+02 -0.11884957912E+02  0.40000000000E+02  0.47000000000E+01 0. -1.
         -5    1    3    3    0  501  0.29317997446E+02 -0.24023172171E+02  0.11884957912E+02  0.40000000000E+02  0.47000000000E+01 0.  1.
</event>
<event>
 5    1  0.4814700E-001  0.8000000E+02  0.7546771E-02  0.1203772E+00
         11   -1    0    0    0    0  0.00000000000E+00  0.00000000000E+00  0.40000000000E+02  0.40000000000E+02  0.00000000000E+00 0. -1.
        -11   -1    0    0    0    0 -0.00000000000E+00 -0.00000000000E+00 -0.40000000000E+02  0.40000000000E+02  0.00000000000E+00 0.  1.
         23    2    1    2    0    0  0.00000000000E+00  0.00000000000E+00  0.00000000000E+00  0.80000000000E+02  0.80000000000E+02 0.  0.
          5    1    3    3  501    0 -0.37776379357E+02 -0.79280458960E+01 -0.93808981957E+01  0.40000000000E+02  0.47000000000E+01 0. -1.
         -5    1    3    3    0  501  0.37776379357E+02  0.79280458960E+01  0.93808981957E+01  0.40000000000E+02  0.47000000000E+01 0.  1.
</event>
<event>
 5    1  0.4814700E-001  0.8000000E+02  0.7546771E-02  0.1203772E+00
         11   -1    0    0    0    0  0.00000000000E+00  0.00000000000E+00  0.40000000000E+02  0.40000000000E+02  0.00000000000E+00 0.  1.
        -11   -1    0    0    0    0 -0.00000000000E+00 -0.00000000000E+00 -0.40000000000E+02  0.40000000000E+02  0.00000000000E+00 0. -1.
         23    2    1    2    0    0  0.00000000000E+00  0.00000000000E+00  0.00000000000E+00  0.80000000000E+02  0.80000000000E+02 0.  0.
          5    1    3    3  501    0 -0.91839174945E+01  0.91667260344E+01 -0.37543798333E+02  0.40000000000E+02  0.47000000000E+01 0. -1.
         -5    1    3    3    0  501  0.91839174945E+01 -0.91667260344E+01  0.37543798333E+02  0.40000000000E+02  0.47000000000E+01 0.  1.
</event>
<event>
 5    1  0.4814700E-001  0.8000000E+02  0.7546771E-02  0.1203772E+00
         11   -1    0    0    0    0  0.00000000000E+00  0.00000000000E+00  0.40000000000E+02  0.40000000000E+02  0.00000000000E+00 0. -1.
        -11   -1    0    0    0    0 -0.00000000000E+00 -0.00000000000E+00 -0.40000000000E+02  0.40000000000E+02  0.00000000000E+00 0.  1.
         23    2    1    2    0    0  0.00000000000E+00  0.00000000000E+00  0.00000000000E+00  0.80000000000E+02  0.80000000000E+02 0.  0.
          5    1    3    3  501    0 -0.77942690325E+01 -0.22668338491E+02  0.31675002767E+02  0.40000000000E+02  0.47000000000E+01 0. -1.
         -5    1    3    3    0  501  0.77942690325E+01  0.22668338491E+02 -0.31675002767E+02  0.40000000000E+02  0.47000000000E+01 0.  1.
</event>
<event>
 5    1  0.4814700E-001  0.8000000E+02  0.7546771E-02  0.1203772E+00
         11   -1    0    0    0    0  0.00000000000E+00  0.00000000000E+00  0.40000000000E+02  0.40000000000E+02  0.00000000000E+00 0. -1.
        -11   -1    0    0    0    0 -0.00000000000E+00 -0.00000000000E+00 -0.40000000000E+02  0.40000000000E+02  0.00000000000E+00 0.  1.
         23    2    1    2    0    0  0.00000000000E+00  0.00000000000E+00  0.00000000000E+00  0.80000000000E+02  0.80000000000E+02 0.  0.
          5    1    3    3  501    0 -0.27041921405E+02 -0.72128563929E+01  0.28188990570E+02  0.40000000000E+02  0.47000000000E+01 0. -1.
         -5    1    3    3    0  501  0.27041921405E+02  0.72128563929E+01 -0.28188990570E+02  0.40000000000E+02  0.47000000000E+01 0.  1.
</event>
<event>
 5    1  0.4814700E-001  0.8000000E+02  0.7546771E-02  0.1203772E+00
         11   -1    0    0    0    0  0.00000000000E+00  0.00000000000E+00  0.40000000000E+02  0.40000000000E+02  0.00000000000E+00 0. -1.
        -11   -1    0    0    0    0 -0.00000000000E+00 -0.00000000000E+00 -0.40000000000E+02  0.40000000000E+02  0.00000000000E+00 0.  1.
         23    2    1    2    0    0  0.00000000000E+00  0.00000000000E+00  0.00000000000E+00  0.80000000000E+02  0.80000000000E+02 0.  0.
          5    1    3    3  501    0 -0.38866623485E+02 -0.78184952158E+01  0.24832864166E+01  0.40000000000E+02  0.47000000000E+01 0. -1.
         -5    1    3    3    0  501  0.38866623485E+02  0.78184952158E+01 -0.24832864166E+01  0.40000000000E+02  0.47000000000E+01 0.  1.
</event>
<event>
 5    1  0.4814700E-001  0.8000000E+02  0.7546771E-02  0.1203772E+00
         11   -1    0    0    0    0  0.00000000000E+00  0.00000000000E+00  0.40000000000E+02  0.40000000000E+02  0.00000000000E+00 0. -1.
        -11   -1    0    0    0    0 -0.00000000000E+00 -0.00000000000E+00 -0.40000000000E+02  0.40000000000E+02  0.00000000000E+00 0.  1.
         23    2    1    2    0    0  0.00000000000E+00  0.00000000000E+00  0.00000000000E+00  0.80000000000E+02  0.80000000000E+02 0.  0.
          5    1    3    3  501    0  0.26025016279E+02  0.10912433450E+02  0.27955810199E+02  0.40000000000E+02  0.47000000000E+01 0. -1.
         -5    1    3    3    0  501 -0.26025016279E+02 -0.10912433450E+02 -0.27955810199E+02  0.40000000000E+02  0.47000000000E+01 0.  1.
</event>
<event>
 5    1  0.4814700E-001  0.8000000E+02  0.7546771E-02  0.1203772E+00
         11   -1    0    0    0    0  0.00000000000E+00  0.00000000000E+00  0.40000000000E+02  0.40000000000E+02  0.00000000000E+00 0.  1.
        -11   -1    0    0    0    0 -0.00000000000E+00 -0.00000000000E+00 -0.40000000000E+02  0.40000000000E+02  0.00000000000E+00 0. -1.
         23    2    1    2    0    0  0.00000000000E+00  0.00000000000E+00  0.00000000000E+00  0.80000000000E+02  0.80000000000E+02 0.  0.
          5    1    3    3  501    0 -0.95010330334E+01  0.21057474297E+01 -0.38512416168E+02  0.40000000000E+02  0.47000000000E+01 0. -1.
         -5    1    3    3    0  501  0.95010330334E+01 -0.21057474297E+01  0.38512416168E+02  0.40000000000E+02  0.47000000000E+01 0.  1.
</event>
<event>
 5    1  0.4814700E-001  0.8000000E+02  0.7546771E-02  0.1203772E+00
         11   -1    0    0    0    0  0.00000000000E+00  0.00000000000E+00  0.40000000000E+02  0.40000000000E+02  0.00000000000E+00 0. -1.
        -11   -1    0    0    0    0 -0.00000000000E+00 -0.00000000000E+00 -0.40000000000E+02  0.40000000000E+02  0.00000000000E+00 0.  1.
         23    2    1    2    0    0  0.00000000000E+00  0.00000000000E+00  0.00000000000E+00  0.80000000000E+02  0.80000000000E+02 0.  0.
          5    1    3    3  501    0 -0.30573289293E+02  0.25354538991E+02 -0.57561651449E+00  0.40000000000E+02  0.47000000000E+01 0. -1.
         -5    1    3    3    0  501  0.30573289293E+02 -0.25354538991E+02  0.57561651449E+00  0.40000000000E+02  0.47000000000E+01 0.  1.
</event>
<event>
 5    1  0.4814700E-001  0.8000000E+02  0.7546771E-02  0.1203772E+00
         11   -1    0    0    0    0  0.00000000000E+00  0.00000000000E+00  0.40000000000E+02  0.40000000000E+02  0.00000000000E+00 0.  1.
        -11   -1    0    0    0    0 -0.00000000000E+00 -0.00000000000E+00 -0.40000000000E+02  0.40000000000E+02  0.00000000000E+00 0. -1.
         23    2    1    2    0    0  0.00000000000E+00  0.00000000000E+00  0.00000000000E+00  0.80000000000E+02  0.80000000000E+02 0.  0.
          5    1    3    3  501    0 -0.34917392089E+02  0.13482353961E+02 -0.13300821830E+02  0.40000000000E+02  0.47000000000E+01 0. -1.
         -5    1    3    3    0  501  0.34917392089E+02 -0.13482353961E+02  0.13300821830E+02  0.40000000000E+02  0.47000000000E+01 0.  1.
</event>
<event>
 5    1  0.4814700E-001  0.8000000E+02  0.7546771E-02  0.1203772E+00
         11   -1    0    0    0    0  0.00000000000E+00  0.00000000000E+00  0.40000000000E+02  0.40000000000E+02  0.00000000000E+00 0.  1.
        -11   -1    0    0    0    0 -0.00000000000E+00 -0.00000000000E+00 -0.40000000000E+02  0.40000000000E+02  0.00000000000E+00 0. -1.
         23    2    1    2    0    0  0.00000000000E+00  0.00000000000E+00  0.00000000000E+00  0.80000000000E+02  0.80000000000E+02 0.  0.
          5    1    3    3  501    0  0.49622417838E+01 -0.26056614901E+02 -0.29569223466E+02  0.40000000000E+02  0.47000000000E+01 0. -1.
         -5    1    3    3    0  501 -0.49622417838E+01  0.26056614901E+02  0.29569223466E+02  0.40000000000E+02  0.47000000000E+01 0.  1.
</event>
<event>
 5    1  0.4814700E-001  0.8000000E+02  0.7546771E-02  0.1203772E+00
         11   -1    0    0    0    0  0.00000000000E+00  0.00000000000E+00  0.40000000000E+02  0.40000000000E+02  0.00000000000E+00 0. -1.
        -11   -1    0    0    0    0 -0.00000000000E+00 -0.00000000000E+00 -0.40000000000E+02  0.40000000000E+02  0.00000000000E+00 0.  1.
         23    2    1    2    0    0  0.00000000000E+00  0.00000000000E+00  0.00000000000E+00  0.80000000000E+02  0.80000000000E+02 0.  0.
          5    1    3    3  501    0  0.32582334318E+01  0.11139164829E+02  0.37989642297E+02  0.40000000000E+02  0.47000000000E+01 0. -1.
         -5    1    3    3    0  501 -0.32582334318E+01 -0.11139164829E+02 -0.37989642297E+02  0.40000000000E+02  0.47000000000E+01 0.  1.
</event>
<event>
 5    1  0.4814700E-001  0.8000000E+02  0.7546771E-02  0.1203772E+00
         11   -1    0    0    0    0  0.00000000000E+00  0.00000000000E+00  0.40000000000E+02  0.40000000000E+02  0.00000000000E+00 0.  1.
        -11   -1    0    0    0    0 -0.00000000000E+00 -0.00000000000E+00 -0.40000000000E+02  0.40000000000E+02  0.00000000000E+00 0. -1.
         23    2    1    2    0    0  0.00000000000E+00  0.00000000000E+00  0.00000000000E+00  0.80000000000E+02  0.80000000000E+02 0.  0.
          5    1    3    3  501    0  0.10435789925E+02 -0.30218309455E+02 -0.23576642303E+02  0.40000000000E+02  0.47000000000E+01 0. -1.
         -5    1    3    3    0  501 -0.10435789925E+02  0.30218309455E+02  0.23576642303E+02  0.40000000000E+02  0.47000000000E+01 0.  1.
</event>
<event>
 5    1  0.4814700E-001  0.8000000E+02  0.7546771E-02  0.1203772E+00
         11   -1    0    0    0    0  0.00000000000E+00  0.00000000000E+00  0.40000000000E+02  0.40000000000E+02  0.00000000000E+00 0.  1.
        -11   -1    0    0    0    0 -0.00000000000E+00 -0.00000000000E+00 -0.40000000000E+02  0.40000000000E+02  0.00000000000E+00 0. -1.
         23    2    1    2    0    0  0.00000000000E+00  0.00000000000E+00  0.00000000000E+00  0.80000000000E+02  0.80000000000E+02 0.  0.
          5    1    3    3  501    0 -0.16127126142E+02  0.19004496232E+02 -0.30929838755E+02  0.40000000000E+02  0.47000000000E+01 0. -1.
         -5    1    3    3    0  501  0.16127126142E+02 -0.19004496232E+02  0.30929838755E+02  0.40000000000E+02  0.47000000000E+01 0.  1.
</event>
<event>
 5    1  0.4814700E-001  0.8000000E+02  0.7546771E-02  0.1203772E+00
         11   -1    0    0    0    0  0.00000000000E+00  0.00000000000E+00  0.40000000000E+02  0.40000000000E+02  0.00000000000E+00 0. -1.
        -11   -1    0    0    0    0 -0.00000000000E+00 -0.00000000000E+00 -0.40000000000E+02  0.40000000000E+02  0.00000000000E+00 0.  1.
         23    2    1    2    0    0  0.00000000000E+00  0.00000000000E+00  0.00000000000E+00  0.80000000000E+02  0.80000000000E+02 0.  0.
          5    1    3    3  501    0 -0.92907984586E+01 -0.27531329432E+02  0.27085364382E+02  0.40000000000E+02  0.47000000000E+01 0. -1.
         -5    1    3    3    0  501  0.92907984586E+01  0.27531329432E+02 -0.27085364382E+02  0.40000000000E+02  0.47000000000E+01 0.  1.
</event>
<event>
 5    1  0.4814700E-001  0.8000000E+02  0.7546771E-02  0.1203772E+00
         11   -1    0    0    0    0  0.00000000000E+00  0.00000000000E+00  0.40000000000E+02  0.40000000000E+02  0.00000000000E+00 0.  1.
        -11   -1    0    0    0    0 -0.00000000000E+00 -0.00000000000E+00 -0.40000000000E+02  0.40000000000E+02  0.00000000000E+00 0. -1.
         23    2    1    2    0    0  0.00000000000E+00  0.00000000000E+00  0.00000000000E+00  0.80000000000E+02  0.80000000000E+02 0.  0.
          5    1    3    3  501    0  0.30510588605E+02 -0.88651509391E+01 -0.23841624982E+02  0.40000000000E+02  0.47000000000E+01 0. -1.
         -5    1    3    3    0  501 -0.30510588605E+02  0.88651509391E+01  0.23841624982E+02  0.40000000000E+02  0.47000000000E+01 0.  1.
</event>
<event>
 5    1  0.4814700E-001  0.8000000E+02  0.7546771E-02  0.1203772E+00
         11   -1    0    0    0    0  0.00000000000E+00  0.00000000000E+00  0.40000000000E+02  0.40000000000E+02  0.00000000000E+00 0.  1.
        -11   -1    0    0    0    0 -0.00000000000E+00 -0.00000000000E+00 -0.40000000000E+02  0.40000000000E+02  0.00000000000E+00 0. -1.
         23    2    1    2    0    0  0.00000000000E+00  0.00000000000E+00  0.00000000000E+00  0.80000000000E+02  0.80000000000E+02 0.  0.
          5    1    3    3  501    0 -0.17422038321E+00 -0.11475010010E+02 -0.38028986215E+02  0.40000000000E+02  0.47000000000E+01 0. -1.
         -5    1    3    3    0  501  0.17422038321E+00  0.11475010010E+02  0.38028986215E+02  0.40000000000E+02  0.47000000000E+01 0.  1.
</event>
<event>
 5    1  0.4814700E-001  0.8000000E+02  0.7546771E-02  0.1203772E+00
         11   -1    0    0    0    0  0.00000000000E+00  0.00000000000E+00  0.40000000000E+02  0.40000000000E+02  0.00000000000E+00 0.  1.
        -11   -1    0    0    0    0 -0.00000000000E+00 -0.00000000000E+00 -0.40000000000E+02  0.40000000000E+02  0.00000000000E+00 0. -1.
         23    2    1    2    0    0  0.00000000000E+00  0.00000000000E+00  0.00000000000E+00  0.80000000000E+02  0.80000000000E+02 0.  0.
          5    1    3    3  501    0 -0.29562245657E+02 -0.25353786928E+02  0.78210689862E+01  0.40000000000E+02  0.47000000000E+01 0. -1.
         -5    1    3    3    0  501  0.29562245657E+02  0.25353786928E+02 -0.78210689862E+01  0.40000000000E+02  0.47000000000E+01 0. -1.
</event>
<event>
 5    1  0.4814700E-001  0.8000000E+02  0.7546771E-02  0.1203772E+00
         11   -1    0    0    0    0  0.00000000000E+00  0.00000000000E+00  0.40000000000E+02  0.40000000000E+02  0.00000000000E+00 0. -1.
        -11   -1    0    0    0    0 -0.00000000000E+00 -0.00000000000E+00 -0.40000000000E+02  0.40000000000E+02  0.00000000000E+00 0.  1.
         23    2    1    2    0    0  0.00000000000E+00  0.00000000000E+00  0.00000000000E+00  0.80000000000E+02  0.80000000000E+02 0.  0.
          5    1    3    3  501    0  0.13629301067E+01  0.33831136077E+02  0.20772738223E+02  0.40000000000E+02  0.47000000000E+01 0. -1.
         -5    1    3    3    0  501 -0.13629301067E+01 -0.33831136077E+02 -0.20772738223E+02  0.40000000000E+02  0.47000000000E+01 0.  1.
</event>
<event>
 5    1  0.4814700E-001  0.8000000E+02  0.7546771E-02  0.1203772E+00
         11   -1    0    0    0    0  0.00000000000E+00  0.00000000000E+00  0.40000000000E+02  0.40000000000E+02  0.00000000000E+00 0. -1.
        -11   -1    0    0    0    0 -0.00000000000E+00 -0.00000000000E+00 -0.40000000000E+02  0.40000000000E+02  0.00000000000E+00 0.  1.
         23    2    1    2    0    0  0.00000000000E+00  0.00000000000E+00  0.00000000000E+00  0.80000000000E+02  0.80000000000E+02 0.  0.
          5    1    3    3  501    0  0.13661269897E+02 -0.12218080368E+02  0.35241995076E+02  0.40000000000E+02  0.47000000000E+01 0. -1.
         -5    1    3    3    0  501 -0.13661269897E+02  0.12218080368E+02 -0.35241995076E+02  0.40000000000E+02  0.47000000000E+01 0.  1.
</event>
<event>
 5    1  0.4814700E-001  0.8000000E+02  0.7546771E-02  0.1203772E+00
         11   -1    0    0    0    0  0.00000000000E+00  0.00000000000E+00  0.40000000000E+02  0.40000000000E+02  0.00000000000E+00 0. -1.
        -11   -1    0    0    0    0 -0.00000000000E+00 -0.00000000000E+00 -0.40000000000E+02  0.40000000000E+02  0.00000000000E+00 0.  1.
         23    2    1    2    0    0  0.00000000000E+00  0.00000000000E+00  0.00000000000E+00  0.80000000000E+02  0.80000000000E+02 0.  0.
          5    1    3    3  501    0 -0.18334358398E+02 -0.14178812608E+02  0.32260232100E+02  0.40000000000E+02  0.47000000000E+01 0. -1.
         -5    1    3    3    0  501  0.18334358398E+02  0.14178812608E+02 -0.32260232100E+02  0.40000000000E+02  0.47000000000E+01 0.  1.
</event>
<event>
 5    1  0.4814700E-001  0.8000000E+02  0.7546771E-02  0.1203772E+00
         11   -1    0    0    0    0  0.00000000000E+00  0.00000000000E+00  0.40000000000E+02  0.40000000000E+02  0.00000000000E+00 0. -1.
        -11   -1    0    0    0    0 -0.00000000000E+00 -0.00000000000E+00 -0.40000000000E+02  0.40000000000E+02  0.00000000000E+00 0.  1.
         23    2    1    2    0    0  0.00000000000E+00  0.00000000000E+00  0.00000000000E+00  0.80000000000E+02  0.80000000000E+02 0.  0.
          5    1    3    3  501    0 -0.13296273613E+02  0.29493924939E+02  0.23048373038E+02  0.40000000000E+02  0.47000000000E+01 0. -1.
         -5    1    3    3    0  501  0.13296273613E+02 -0.29493924939E+02 -0.23048373038E+02  0.40000000000E+02  0.47000000000E+01 0.  1.
</event>
<event>
 5    1  0.4814700E-001  0.8000000E+02  0.7546771E-02  0.1203772E+00
         11   -1    0    0    0    0  0.00000000000E+00  0.00000000000E+00  0.40000000000E+02  0.40000000000E+02  0.00000000000E+00 0.  1.
        -11   -1    0    0    0    0 -0.00000000000E+00 -0.00000000000E+00 -0.40000000000E+02  0.40000000000E+02  0.00000000000E+00 0. -1.
         23    2    1    2    0    0  0.00000000000E+00  0.00000000000E+00  0.00000000000E+00  0.80000000000E+02  0.80000000000E+02 0.  0.
          5    1    3    3  501    0  0.21014824887E+02 -0.27071686496E+02 -0.20085092114E+02  0.40000000000E+02  0.47000000000E+01 0. -1.
         -5    1    3    3    0  501 -0.21014824887E+02  0.27071686496E+02  0.20085092114E+02  0.40000000000E+02  0.47000000000E+01 0.  1.
</event>
<event>
 5    1  0.4814700E-001  0.8000000E+02  0.7546771E-02  0.1203772E+00
         11   -1    0    0    0    0  0.00000000000E+00  0.00000000000E+00  0.40000000000E+02  0.40000000000E+02  0.00000000000E+00 0. -1.
        -11   -1    0    0    0    0 -0.00000000000E+00 -0.00000000000E+00 -0.40000000000E+02  0.40000000000E+02  0.00000000000E+00 0.  1.
         23    2    1    2    0    0  0.00000000000E+00  0.00000000000E+00  0.00000000000E+00  0.80000000000E+02  0.80000000000E+02 0.  0.
          5    1    3    3  501    0 -0.30605585574E+02 -0.21919712407E+02  0.12678104735E+02  0.40000000000E+02  0.47000000000E+01 0. -1.
         -5    1    3    3    0  501  0.30605585574E+02  0.21919712407E+02 -0.12678104735E+02  0.40000000000E+02  0.47000000000E+01 0.  1.
</event>
<event>
 5    1  0.4814700E-001  0.8000000E+02  0.7546771E-02  0.1203772E+00
         11   -1    0    0    0    0  0.00000000000E+00  0.00000000000E+00  0.40000000000E+02  0.40000000000E+02  0.00000000000E+00 0. -1.
        -11   -1    0    0    0    0 -0.00000000000E+00 -0.00000000000E+00 -0.40000000000E+02  0.40000000000E+02  0.00000000000E+00 0.  1.
         23    2    1    2    0    0  0.00000000000E+00  0.00000000000E+00  0.00000000000E+00  0.80000000000E+02  0.80000000000E+02 0.  0.
          5    1    3    3  501    0  0.39636866393E+02  0.13288842851E+01  0.22500864682E+01  0.40000000000E+02  0.47000000000E+01 0. -1.
         -5    1    3    3    0  501 -0.39636866393E+02 -0.13288842851E+01 -0.22500864682E+01  0.40000000000E+02  0.47000000000E+01 0.  1.
</event>
<event>
 5    1  0.4814700E-001  0.8000000E+02  0.7546771E-02  0.1203772E+00
         11   -1    0    0    0    0  0.00000000000E+00  0.00000000000E+00  0.40000000000E+02  0.40000000000E+02  0.00000000000E+00 0.  1.
        -11   -1    0    0    0    0 -0.00000000000E+00 -0.00000000000E+00 -0.40000000000E+02  0.40000000000E+02  0.00000000000E+00 0. -1.
         23    2    1    2    0    0  0.00000000000E+00  0.00000000000E+00  0.00000000000E+00  0.80000000000E+02  0.80000000000E+02 0.  0.
          5    1    3    3  501    0  0.73364824437E+01 -0.13674476291E+02 -0.36566305850E+02  0.40000000000E+02  0.47000000000E+01 0. -1.
         -5    1    3    3    0  501 -0.73364824437E+01  0.13674476291E+02  0.36566305850E+02  0.40000000000E+02  0.47000000000E+01 0.  1.
</event>
<event>
 5    1  0.4814700E-001  0.8000000E+02  0.7546771E-02  0.1203772E+00
         11   -1    0    0    0    0  0.00000000000E+00  0.00000000000E+00  0.40000000000E+02  0.40000000000E+02  0.00000000000E+00 0. -1.
        -11   -1    0    0    0    0 -0.00000000000E+00 -0.00000000000E+00 -0.40000000000E+02  0.40000000000E+02  0.00000000000E+00 0.  1.
         23    2    1    2    0    0  0.00000000000E+00  0.00000000000E+00  0.00000000000E+00  0.80000000000E+02  0.80000000000E+02 0.  0.
          5    1    3    3  501    0  0.23841410098E+02  0.11545064140E+02  0.29600821923E+02  0.40000000000E+02  0.47000000000E+01 0. -1.
         -5    1    3    3    0  501 -0.23841410098E+02 -0.11545064140E+02 -0.29600821923E+02  0.40000000000E+02  0.47000000000E+01 0.  1.
</event>
<event>
 5    1  0.4814700E-001  0.8000000E+02  0.7546771E-02  0.1203772E+00
         11   -1    0    0    0    0  0.00000000000E+00  0.00000000000E+00  0.40000000000E+02  0.40000000000E+02  0.00000000000E+00 0.  1.
        -11   -1    0    0    0    0 -0.00000000000E+00 -0.00000000000E+00 -0.40000000000E+02  0.40000000000E+02  0.00000000000E+00 0. -1.
         23    2    1    2    0    0  0.00000000000E+00  0.00000000000E+00  0.00000000000E+00  0.80000000000E+02  0.80000000000E+02 0.  0.
          5    1    3    3  501    0  0.85032650487E+01  0.19481810823E+02 -0.33556870095E+02  0.40000000000E+02  0.47000000000E+01 0. -1.
         -5    1    3    3    0  501 -0.85032650487E+01 -0.19481810823E+02  0.33556870095E+02  0.40000000000E+02  0.47000000000E+01 0.  1.
</event>
<event>
 5    1  0.4814700E-001  0.8000000E+02  0.7546771E-02  0.1203772E+00
         11   -1    0    0    0    0  0.00000000000E+00  0.00000000000E+00  0.40000000000E+02  0.40000000000E+02  0.00000000000E+00 0.  1.
        -11   -1    0    0    0    0 -0.00000000000E+00 -0.00000000000E+00 -0.40000000000E+02  0.40000000000E+02  0.00000000000E+00 0. -1.
         23    2    1    2    0    0  0.00000000000E+00  0.00000000000E+00  0.00000000000E+00  0.80000000000E+02  0.80000000000E+02 0.  0.
          5    1    3    3  501    0  0.22324604493E+02 -0.29524483088E+02 -0.14416203821E+02  0.40000000000E+02  0.47000000000E+01 0. -1.
         -5    1    3    3    0  501 -0.22324604493E+02  0.29524483088E+02  0.14416203821E+02  0.40000000000E+02  0.47000000000E+01 0.  1.
</event>
<event>
 5    1  0.4814700E-001  0.8000000E+02  0.7546771E-02  0.1203772E+00
         11   -1    0    0    0    0  0.00000000000E+00  0.00000000000E+00  0.40000000000E+02  0.40000000000E+02  0.00000000000E+00 0. -1.
        -11   -1    0    0    0    0 -0.00000000000E+00 -0.00000000000E+00 -0.40000000000E+02  0.40000000000E+02  0.00000000000E+00 0.  1.
         23    2    1    2    0    0  0.00000000000E+00  0.00000000000E+00  0.00000000000E+00  0.80000000000E+02  0.80000000000E+02 0.  0.
          5    1    3    3  501    0  0.35665161186E+02  0.10309813341E+02 -0.14128482809E+02  0.40000000000E+02  0.47000000000E+01 0.  1.
         -5    1    3    3    0  501 -0.35665161186E+02 -0.10309813341E+02  0.14128482809E+02  0.40000000000E+02  0.47000000000E+01 0. -1.
</event>
<event>
 5    1  0.4814700E-001  0.8000000E+02  0.7546771E-02  0.1203772E+00
         11   -1    0    0    0    0  0.00000000000E+00  0.00000000000E+00  0.40000000000E+02  0.40000000000E+02  0.00000000000E+00 0.  1.
        -11   -1    0    0    0    0 -0.00000000000E+00 -0.00000000000E+00 -0.40000000000E+02  0.40000000000E+02  0.00000000000E+00 0. -1.
         23    2    1    2    0    0  0.00000000000E+00  0.00000000000E+00  0.00000000000E+00  0.80000000000E+02  0.80000000000E+02 0.  0.
          5    1    3    3  501    0 -0.12447988697E+00 -0.21688898345E+02 -0.33278915147E+02  0.40000000000E+02  0.47000000000E+01 0. -1.
         -5    1    3    3    0  501  0.12447988697E+00  0.21688898345E+02  0.33278915147E+02  0.40000000000E+02  0.47000000000E+01 0.  1.
</event>
<event>
 5    1  0.4814700E-001  0.8000000E+02  0.7546771E-02  0.1203772E+00
         11   -1    0    0    0    0  0.00000000000E+00  0.00000000000E+00  0.40000000000E+02  0.40000000000E+02  0.00000000000E+00 0.  1.
        -11   -1    0    0    0    0 -0.00000000000E+00 -0.00000000000E+00 -0.40000000000E+02  0.40000000000E+02  0.00000000000E+00 0. -1.
         23    2    1    2    0    0  0.00000000000E+00  0.00000000000E+00  0.00000000000E+00  0.80000000000E+02  0.80000000000E+02 0.  0.
          5    1    3    3  501    0  0.20007116445E+02  0.26010747205E+01 -0.34217827252E+02  0.40000000000E+02  0.47000000000E+01 0. -1.
         -5    1    3    3    0  501 -0.20007116445E+02 -0.26010747205E+01  0.34217827252E+02  0.40000000000E+02  0.47000000000E+01 0.  1.
</event>
<event>
 5    1  0.4814700E-001  0.8000000E+02  0.7546771E-02  0.1203772E+00
         11   -1    0    0    0    0  0.00000000000E+00  0.00000000000E+00  0.40000000000E+02  0.40000000000E+02  0.00000000000E+00 0.  1.
        -11   -1    0    0    0    0 -0.00000000000E+00 -0.00000000000E+00 -0.40000000000E+02  0.40000000000E+02  0.00000000000E+00 0. -1.
         23    2    1    2    0    0  0.00000000000E+00  0.00000000000E+00  0.00000000000E+00  0.80000000000E+02  0.80000000000E+02 0.  0.
          5    1    3    3  501    0  0.12945524690E+02  0.36182042179E+02 -0.10058986741E+02  0.40000000000E+02  0.47000000000E+01 0. -1.
         -5    1    3    3    0  501 -0.12945524690E+02 -0.36182042179E+02  0.10058986741E+02  0.40000000000E+02  0.47000000000E+01 0.  1.
</event>
<event>
 5    1  0.4814700E-001  0.8000000E+02  0.7546771E-02  0.1203772E+00
         11   -1    0    0    0    0  0.00000000000E+00  0.00000000000E+00  0.40000000000E+02  0.40000000000E+02  0.00000000000E+00 0. -1.
        -11   -1    0    0    0    0 -0.00000000000E+00 -0.00000000000E+00 -0.40000000000E+02  0.40000000000E+02  0.00000000000E+00 0.  1.
         23    2    1    2    0    0  0.00000000000E+00  0.00000000000E+00  0.00000000000E+00  0.80000000000E+02  0.80000000000E+02 0.  0.
          5    1    3    3  501    0  0.69047217359E+01  0.19552584015E+02  0.33881134516E+02  0.40000000000E+02  0.47000000000E+01 0. -1.
         -5    1    3    3    0  501 -0.69047217359E+01 -0.19552584015E+02 -0.33881134516E+02  0.40000000000E+02  0.47000000000E+01 0.  1.
</event>
<event>
 5    1  0.4814700E-001  0.8000000E+02  0.7546771E-02  0.1203772E+00
         11   -1    0    0    0    0  0.00000000000E+00  0.00000000000E+00  0.40000000000E+02  0.40000000000E+02  0.00000000000E+00 0.  1.
        -11   -1    0    0    0    0 -0.00000000000E+00 -0.00000000000E+00 -0.40000000000E+02  0.40000000000E+02  0.00000000000E+00 0. -1.
         23    2    1    2    0    0  0.00000000000E+00  0.00000000000E+00  0.00000000000E+00  0.80000000000E+02  0.80000000000E+02 0.  0.
          5    1    3    3  501    0 -0.10845821021E+01 -0.21667833637E+01 -0.39648943637E+02  0.40000000000E+02  0.47000000000E+01 0. -1.
         -5    1    3    3    0  501  0.10845821021E+01  0.21667833637E+01  0.39648943637E+02  0.40000000000E+02  0.47000000000E+01 0.  1.
</event>
<event>
 5    1  0.4814700E-001  0.8000000E+02  0.7546771E-02  0.1203772E+00
         11   -1    0    0    0    0  0.00000000000E+00  0.00000000000E+00  0.40000000000E+02  0.40000000000E+02  0.00000000000E+00 0. -1.
        -11   -1    0    0    0    0 -0.00000000000E+00 -0.00000000000E+00 -0.40000000000E+02  0.40000000000E+02  0.00000000000E+00 0.  1.
         23    2    1    2    0    0  0.00000000000E+00  0.00000000000E+00  0.00000000000E+00  0.80000000000E+02  0.80000000000E+02 0.  0.
          5    1    3    3  501    0 -0.12223923536E+02 -0.11327861743E+02  0.36057804172E+02  0.40000000000E+02  0.47000000000E+01 0. -1.
         -5    1    3    3    0  501  0.12223923536E+02  0.11327861743E+02 -0.36057804172E+02  0.40000000000E+02  0.47000000000E+01 0.  1.
</event>
<event>
 5    1  0.4814700E-001  0.8000000E+02  0.7546771E-02  0.1203772E+00
         11   -1    0    0    0    0  0.00000000000E+00  0.00000000000E+00  0.40000000000E+02  0.40000000000E+02  0.00000000000E+00 0.  1.
        -11   -1    0    0    0    0 -0.00000000000E+00 -0.00000000000E+00 -0.40000000000E+02  0.40000000000E+02  0.00000000000E+00 0. -1.
         23    2    1    2    0    0  0.00000000000E+00  0.00000000000E+00  0.00000000000E+00  0.80000000000E+02  0.80000000000E+02 0.  0.
          5    1    3    3  501    0 -0.38021440320E+02 -0.74007029940E+01 -0.88039577015E+01  0.40000000000E+02  0.47000000000E+01 0. -1.
         -5    1    3    3    0  501  0.38021440320E+02  0.74007029940E+01  0.88039577015E+01  0.40000000000E+02  0.47000000000E+01 0.  1.
</event>
<event>
 5    1  0.4814700E-001  0.8000000E+02  0.7546771E-02  0.1203772E+00
         11   -1    0    0    0    0  0.00000000000E+00  0.00000000000E+00  0.40000000000E+02  0.40000000000E+02  0.00000000000E+00 0.  1.
        -11   -1    0    0    0    0 -0.00000000000E+00 -0.00000000000E+00 -0.40000000000E+02  0.40000000000E+02  0.00000000000E+00 0. -1.
         23    2    1    2    0    0  0.00000000000E+00  0.00000000000E+00  0.00000000000E+00  0.80000000000E+02  0.80000000000E+02 0.  0.
          5    1    3    3  501    0  0.18798410741E+02 -0.25723179209E+02 -0.23724413691E+02  0.40000000000E+02  0.47000000000E+01 0. -1.
         -5    1    3    3    0  501 -0.18798410741E+02  0.25723179209E+02  0.23724413691E+02  0.40000000000E+02  0.47000000000E+01 0.  1.
</event>
<event>
 5    1  0.4814700E-001  0.8000000E+02  0.7546771E-02  0.1203772E+00
         11   -1    0    0    0    0  0.00000000000E+00  0.00000000000E+00  0.40000000000E+02  0.40000000000E+02  0.00000000000E+00 0.  1.
        -11   -1    0    0    0    0 -0.00000000000E+00 -0.00000000000E+00 -0.40000000000E+02  0.40000000000E+02  0.00000000000E+00 0. -1.
         23    2    1    2    0    0  0.00000000000E+00  0.00000000000E+00  0.00000000000E+00  0.80000000000E+02  0.80000000000E+02 0.  0.
          5    1    3    3  501    0 -0.26806653654E+02 -0.12310940426E+02 -0.26603647602E+02  0.40000000000E+02  0.47000000000E+01 0. -1.
         -5    1    3    3    0  501  0.26806653654E+02  0.12310940426E+02  0.26603647602E+02  0.40000000000E+02  0.47000000000E+01 0.  1.
</event>
<event>
 5    1  0.4814700E-001  0.8000000E+02  0.7546771E-02  0.1203772E+00
         11   -1    0    0    0    0  0.00000000000E+00  0.00000000000E+00  0.40000000000E+02  0.40000000000E+02  0.00000000000E+00 0.  1.
        -11   -1    0    0    0    0 -0.00000000000E+00 -0.00000000000E+00 -0.40000000000E+02  0.40000000000E+02  0.00000000000E+00 0. -1.
         23    2    1    2    0    0  0.00000000000E+00  0.00000000000E+00  0.00000000000E+00  0.80000000000E+02  0.80000000000E+02 0.  0.
          5    1    3    3  501    0  0.14895034049E+02  0.47294540286E+01 -0.36519586871E+02  0.40000000000E+02  0.47000000000E+01 0. -1.
         -5    1    3    3    0  501 -0.14895034049E+02 -0.47294540286E+01  0.36519586871E+02  0.40000000000E+02  0.47000000000E+01 0.  1.
</event>
<event>
 5    1  0.4814700E-001  0.8000000E+02  0.7546771E-02  0.1203772E+00
         11   -1    0    0    0    0  0.00000000000E+00  0.00000000000E+00  0.40000000000E+02  0.40000000000E+02  0.00000000000E+00 0. -1.
        -11   -1    0    0    0    0 -0.00000000000E+00 -0.00000000000E+00 -0.40000000000E+02  0.40000000000E+02  0.00000000000E+00 0.  1.
         23    2    1    2    0    0  0.00000000000E+00  0.00000000000E+00  0.00000000000E+00  0.80000000000E+02  0.80000000000E+02 0.  0.
          5    1    3    3  501    0 -0.20734878604E+02  0.21233855653E+02 -0.26402616979E+02  0.40000000000E+02  0.47000000000E+01 0. -1.
         -5    1    3    3    0  501  0.20734878604E+02 -0.21233855653E+02  0.26402616979E+02  0.40000000000E+02  0.47000000000E+01 0.  1.
</event>
<event>
 5    1  0.4814700E-001  0.8000000E+02  0.7546771E-02  0.1203772E+00
         11   -1    0    0    0    0  0.00000000000E+00  0.00000000000E+00  0.40000000000E+02  0.40000000000E+02  0.00000000000E+00 0.  1.
        -11   -1    0    0    0    0 -0.00000000000E+00 -0.00000000000E+00 -0.40000000000E+02  0.40000000000E+02  0.00000000000E+00 0. -1.
         23    2    1    2    0    0  0.00000000000E+00  0.00000000000E+00  0.00000000000E+00  0.80000000000E+02  0.80000000000E+02 0.  0.
          5    1    3    3  501    0 -0.53404911629E+01 -0.55333565883E+01 -0.38971414126E+02  0.40000000000E+02  0.47000000000E+01 0. -1.
         -5    1    3    3    0  501  0.53404911629E+01  0.55333565883E+01  0.38971414126E+02  0.40000000000E+02  0.47000000000E+01 0.  1.
</event>
<event>
 5    1  0.4814700E-001  0.8000000E+02  0.7546771E-02  0.1203772E+00
         11   -1    0    0    0    0  0.00000000000E+00  0.00000000000E+00  0.40000000000E+02  0.40000000000E+02  0.00000000000E+00 0. -1.
        -11   -1    0    0    0    0 -0.00000000000E+00 -0.00000000000E+00 -0.40000000000E+02  0.40000000000E+02  0.00000000000E+00 0.  1.
         23    2    1    2    0    0  0.00000000000E+00  0.00000000000E+00  0.00000000000E+00  0.80000000000E+02  0.80000000000E+02 0.  0.
          5    1    3    3  501    0  0.32184492681E+01  0.18566026654E+02  0.34969332830E+02  0.40000000000E+02  0.47000000000E+01 0. -1.
         -5    1    3    3    0  501 -0.32184492681E+01 -0.18566026654E+02 -0.34969332830E+02  0.40000000000E+02  0.47000000000E+01 0.  1.
</event>
<event>
 5    1  0.4814700E-001  0.8000000E+02  0.7546771E-02  0.1203772E+00
         11   -1    0    0    0    0  0.00000000000E+00  0.00000000000E+00  0.40000000000E+02  0.40000000000E+02  0.00000000000E+00 0. -1.
        -11   -1    0    0    0    0 -0.00000000000E+00 -0.00000000000E+00 -0.40000000000E+02  0.40000000000E+02  0.00000000000E+00 0.  1.
         23    2    1    2    0    0  0.00000000000E+00  0.00000000000E+00  0.00000000000E+00  0.80000000000E+02  0.80000000000E+02 0.  0.
          5    1    3    3  501    0  0.31591050989E+02  0.51999078145E+01  0.23513325076E+02  0.40000000000E+02  0.47000000000E+01 0. -1.
         -5    1    3    3    0  501 -0.31591050989E+02 -0.51999078145E+01 -0.23513325076E+02  0.40000000000E+02  0.47000000000E+01 0.  1.
</event>
<event>
 5    1  0.4814700E-001  0.8000000E+02  0.7546771E-02  0.1203772E+00
         11   -1    0    0    0    0  0.00000000000E+00  0.00000000000E+00  0.40000000000E+02  0.40000000000E+02  0.00000000000E+00 0. -1.
        -11   -1    0    0    0    0 -0.00000000000E+00 -0.00000000000E+00 -0.40000000000E+02  0.40000000000E+02  0.00000000000E+00 0.  1.
         23    2    1    2    0    0  0.00000000000E+00  0.00000000000E+00  0.00000000000E+00  0.80000000000E+02  0.80000000000E+02 0.  0.
          5    1    3    3  501    0  0.26486283996E+02 -0.88155653548E+01  0.28260795593E+02  0.40000000000E+02  0.47000000000E+01 0. -1.
         -5    1    3    3    0  501 -0.26486283996E+02  0.88155653548E+01 -0.28260795593E+02  0.40000000000E+02  0.47000000000E+01 0.  1.
</event>
<event>
 5    1  0.4814700E-001  0.8000000E+02  0.7546771E-02  0.1203772E+00
         11   -1    0    0    0    0  0.00000000000E+00  0.00000000000E+00  0.40000000000E+02  0.40000000000E+02  0.00000000000E+00 0. -1.
        -11   -1    0    0    0    0 -0.00000000000E+00 -0.00000000000E+00 -0.40000000000E+02  0.40000000000E+02  0.00000000000E+00 0.  1.
         23    2    1    2    0    0  0.00000000000E+00  0.00000000000E+00  0.00000000000E+00  0.80000000000E+02  0.80000000000E+02 0.  0.
          5    1    3    3  501    0 -0.12961888365E+02 -0.37418473401E+02 -0.31236674582E+01  0.40000000000E+02  0.47000000000E+01 0. -1.
         -5    1    3    3    0  501  0.12961888365E+02  0.37418473401E+02  0.31236674582E+01  0.40000000000E+02  0.47000000000E+01 0.  1.
</event>
<event>
 5    1  0.4814700E-001  0.8000000E+02  0.7546771E-02  0.1203772E+00
         11   -1    0    0    0    0  0.00000000000E+00  0.00000000000E+00  0.40000000000E+02  0.40000000000E+02  0.00000000000E+00 0.  1.
        -11   -1    0    0    0    0 -0.00000000000E+00 -0.00000000000E+00 -0.40000000000E+02  0.40000000000E+02  0.00000000000E+00 0. -1.
         23    2    1    2    0    0  0.00000000000E+00  0.00000000000E+00  0.00000000000E+00  0.80000000000E+02  0.80000000000E+02 0.  0.
          5    1    3    3  501    0  0.22597148248E+01  0.39087919864E+02 -0.67035967675E+01  0.40000000000E+02  0.47000000000E+01 0. -1.
         -5    1    3    3    0  501 -0.22597148248E+01 -0.39087919864E+02  0.67035967675E+01  0.40000000000E+02  0.47000000000E+01 0.  1.
</event>
<event>
 5    1  0.4814700E-001  0.8000000E+02  0.7546771E-02  0.1203772E+00
         11   -1    0    0    0    0  0.00000000000E+00  0.00000000000E+00  0.40000000000E+02  0.40000000000E+02  0.00000000000E+00 0. -1.
        -11   -1    0    0    0    0 -0.00000000000E+00 -0.00000000000E+00 -0.40000000000E+02  0.40000000000E+02  0.00000000000E+00 0.  1.
         23    2    1    2    0    0  0.00000000000E+00  0.00000000000E+00  0.00000000000E+00  0.80000000000E+02  0.80000000000E+02 0.  0.
          5    1    3    3  501    0  0.39631197424E+02 -0.18960698512E+00  0.26911410076E+01  0.40000000000E+02  0.47000000000E+01 0. -1.
         -5    1    3    3    0  501 -0.39631197424E+02  0.18960698512E+00 -0.26911410076E+01  0.40000000000E+02  0.47000000000E+01 0.  1.
</event>
<event>
 5    1  0.4814700E-001  0.8000000E+02  0.7546771E-02  0.1203772E+00
         11   -1    0    0    0    0  0.00000000000E+00  0.00000000000E+00  0.40000000000E+02  0.40000000000E+02  0.00000000000E+00 0.  1.
        -11   -1    0    0    0    0 -0.00000000000E+00 -0.00000000000E+00 -0.40000000000E+02  0.40000000000E+02  0.00000000000E+00 0. -1.
         23    2    1    2    0    0  0.00000000000E+00  0.00000000000E+00  0.00000000000E+00  0.80000000000E+02  0.80000000000E+02 0.  0.
          5    1    3    3  501    0  0.23464072531E+02  0.31614035642E+02  0.52820498607E+01  0.40000000000E+02  0.47000000000E+01 0. -1.
         -5    1    3    3    0  501 -0.23464072531E+02 -0.31614035642E+02 -0.52820498607E+01  0.40000000000E+02  0.47000000000E+01 0.  1.
</event>
<event>
 5    1  0.4814700E-001  0.8000000E+02  0.7546771E-02  0.1203772E+00
         11   -1    0    0    0    0  0.00000000000E+00  0.00000000000E+00  0.40000000000E+02  0.40000000000E+02  0.00000000000E+00 0.  1.
        -11   -1    0    0    0    0 -0.00000000000E+00 -0.00000000000E+00 -0.40000000000E+02  0.40000000000E+02  0.00000000000E+00 0. -1.
         23    2    1    2    0    0  0.00000000000E+00  0.00000000000E+00  0.00000000000E+00  0.80000000000E+02  0.80000000000E+02 0.  0.
          5    1    3    3  501    0 -0.27038413653E+01 -0.39604094749E+02  0.14542767908E+01  0.40000000000E+02  0.47000000000E+01 0. -1.
         -5    1    3    3    0  501  0.27038413653E+01  0.39604094749E+02 -0.14542767908E+01  0.40000000000E+02  0.47000000000E+01 0.  1.
</event>
<event>
 5    1  0.4814700E-001  0.8000000E+02  0.7546771E-02  0.1203772E+00
         11   -1    0    0    0    0  0.00000000000E+00  0.00000000000E+00  0.40000000000E+02  0.40000000000E+02  0.00000000000E+00 0. -1.
        -11   -1    0    0    0    0 -0.00000000000E+00 -0.00000000000E+00 -0.40000000000E+02  0.40000000000E+02  0.00000000000E+00 0.  1.
         23    2    1    2    0    0  0.00000000000E+00  0.00000000000E+00  0.00000000000E+00  0.80000000000E+02  0.80000000000E+02 0.  0.
          5    1    3    3  501    0 -0.25486149994E+02 -0.10943927391E+02  0.28435833235E+02  0.40000000000E+02  0.47000000000E+01 0. -1.
         -5    1    3    3    0  501  0.25486149994E+02  0.10943927391E+02 -0.28435833235E+02  0.40000000000E+02  0.47000000000E+01 0.  1.
</event>
<event>
 5    1  0.4814700E-001  0.8000000E+02  0.7546771E-02  0.1203772E+00
         11   -1    0    0    0    0  0.00000000000E+00  0.00000000000E+00  0.40000000000E+02  0.40000000000E+02  0.00000000000E+00 0. -1.
        -11   -1    0    0    0    0 -0.00000000000E+00 -0.00000000000E+00 -0.40000000000E+02  0.40000000000E+02  0.00000000000E+00 0.  1.
         23    2    1    2    0    0  0.00000000000E+00  0.00000000000E+00  0.00000000000E+00  0.80000000000E+02  0.80000000000E+02 0.  0.
          5    1    3    3  501    0  0.33315165056E+02 -0.19883155865E+02  0.85246636358E+01  0.40000000000E+02  0.47000000000E+01 0. -1.
         -5    1    3    3    0  501 -0.33315165056E+02  0.19883155865E+02 -0.85246636358E+01  0.40000000000E+02  0.47000000000E+01 0.  1.
</event>
<event>
 5    1  0.4814700E-001  0.8000000E+02  0.7546771E-02  0.1203772E+00
         11   -1    0    0    0    0  0.00000000000E+00  0.00000000000E+00  0.40000000000E+02  0.40000000000E+02  0.00000000000E+00 0.  1.
        -11   -1    0    0    0    0 -0.00000000000E+00 -0.00000000000E+00 -0.40000000000E+02  0.40000000000E+02  0.00000000000E+00 0. -1.
         23    2    1    2    0    0  0.00000000000E+00  0.00000000000E+00  0.00000000000E+00  0.80000000000E+02  0.80000000000E+02 0.  0.
          5    1    3    3  501    0  0.12309666290E+02 -0.13951635842E+02 -0.35096067773E+02  0.40000000000E+02  0.47000000000E+01 0. -1.
         -5    1    3    3    0  501 -0.12309666290E+02  0.13951635842E+02  0.35096067773E+02  0.40000000000E+02  0.47000000000E+01 0.  1.
</event>
<event>
 5    1  0.4814700E-001  0.8000000E+02  0.7546771E-02  0.1203772E+00
         11   -1    0    0    0    0  0.00000000000E+00  0.00000000000E+00  0.40000000000E+02  0.40000000000E+02  0.00000000000E+00 0.  1.
        -11   -1    0    0    0    0 -0.00000000000E+00 -0.00000000000E+00 -0.40000000000E+02  0.40000000000E+02  0.00000000000E+00 0. -1.
         23    2    1    2    0    0  0.00000000000E+00  0.00000000000E+00  0.00000000000E+00  0.80000000000E+02  0.80000000000E+02 0.  0.
          5    1    3    3  501    0 -0.23617389627E+02  0.13975321020E+02 -0.28719667644E+02  0.40000000000E+02  0.47000000000E+01 0. -1.
         -5    1    3    3    0  501  0.23617389627E+02 -0.13975321020E+02  0.28719667644E+02  0.40000000000E+02  0.47000000000E+01 0.  1.
</event>
<event>
 5    1  0.4814700E-001  0.8000000E+02  0.7546771E-02  0.1203772E+00
         11   -1    0    0    0    0  0.00000000000E+00  0.00000000000E+00  0.40000000000E+02  0.40000000000E+02  0.00000000000E+00 0.  1.
        -11   -1    0    0    0    0 -0.00000000000E+00 -0.00000000000E+00 -0.40000000000E+02  0.40000000000E+02  0.00000000000E+00 0. -1.
         23    2    1    2    0    0  0.00000000000E+00  0.00000000000E+00  0.00000000000E+00  0.80000000000E+02  0.80000000000E+02 0.  0.
          5    1    3    3  501    0 -0.18296969103E+02 -0.23639183334E+02 -0.26159509418E+02  0.40000000000E+02  0.47000000000E+01 0. -1.
         -5    1    3    3    0  501  0.18296969103E+02  0.23639183334E+02  0.26159509418E+02  0.40000000000E+02  0.47000000000E+01 0.  1.
</event>
<event>
 5    1  0.4814700E-001  0.8000000E+02  0.7546771E-02  0.1203772E+00
         11   -1    0    0    0    0  0.00000000000E+00  0.00000000000E+00  0.40000000000E+02  0.40000000000E+02  0.00000000000E+00 0. -1.
        -11   -1    0    0    0    0 -0.00000000000E+00 -0.00000000000E+00 -0.40000000000E+02  0.40000000000E+02  0.00000000000E+00 0.  1.
         23    2    1    2    0    0  0.00000000000E+00  0.00000000000E+00  0.00000000000E+00  0.80000000000E+02  0.80000000000E+02 0.  0.
          5    1    3    3  501    0 -0.12798484873E+01  0.14522567231E+02  0.36950873181E+02  0.40000000000E+02  0.47000000000E+01 0. -1.
         -5    1    3    3    0  501  0.12798484873E+01 -0.14522567231E+02 -0.36950873181E+02  0.40000000000E+02  0.47000000000E+01 0.  1.
</event>
<event>
 5    1  0.4814700E-001  0.8000000E+02  0.7546771E-02  0.1203772E+00
         11   -1    0    0    0    0  0.00000000000E+00  0.00000000000E+00  0.40000000000E+02  0.40000000000E+02  0.00000000000E+00 0. -1.
        -11   -1    0    0    0    0 -0.00000000000E+00 -0.00000000000E+00 -0.40000000000E+02  0.40000000000E+02  0.00000000000E+00 0.  1.
         23    2    1    2    0    0  0.00000000000E+00  0.00000000000E+00  0.00000000000E+00  0.80000000000E+02  0.80000000000E+02 0.  0.
          5    1    3    3  501    0  0.22221256227E+00  0.35389423381E+02 -0.18040214366E+02  0.40000000000E+02  0.47000000000E+01 0. -1.
         -5    1    3    3    0  501 -0.22221256227E+00 -0.35389423381E+02  0.18040214366E+02  0.40000000000E+02  0.47000000000E+01 0.  1.
</event>
<event>
 5    1  0.4814700E-001  0.8000000E+02  0.7546771E-02  0.1203772E+00
         11   -1    0    0    0    0  0.00000000000E+00  0.00000000000E+00  0.40000000000E+02  0.40000000000E+02  0.00000000000E+00 0. -1.
        -11   -1    0    0    0    0 -0.00000000000E+00 -0.00000000000E+00 -0.40000000000E+02  0.40000000000E+02  0.00000000000E+00 0.  1.
         23    2    1    2    0    0  0.00000000000E+00  0.00000000000E+00  0.00000000000E+00  0.80000000000E+02  0.80000000000E+02 0.  0.
          5    1    3    3  501    0  0.32350658720E+01  0.30774625119E+02  0.24907163580E+02  0.40000000000E+02  0.47000000000E+01 0. -1.
         -5    1    3    3    0  501 -0.32350658720E+01 -0.30774625119E+02 -0.24907163580E+02  0.40000000000E+02  0.47000000000E+01 0.  1.
</event>
<event>
 5    1  0.4814700E-001  0.8000000E+02  0.7546771E-02  0.1203772E+00
         11   -1    0    0    0    0  0.00000000000E+00  0.00000000000E+00  0.40000000000E+02  0.40000000000E+02  0.00000000000E+00 0.  1.
        -11   -1    0    0    0    0 -0.00000000000E+00 -0.00000000000E+00 -0.40000000000E+02  0.40000000000E+02  0.00000000000E+00 0. -1.
         23    2    1    2    0    0  0.00000000000E+00  0.00000000000E+00  0.00000000000E+00  0.80000000000E+02  0.80000000000E+02 0.  0.
          5    1    3    3  501    0 -0.23073319558E+02 -0.89873626311E+01 -0.31060573683E+02  0.40000000000E+02  0.47000000000E+01 0. -1.
         -5    1    3    3    0  501  0.23073319558E+02  0.89873626311E+01  0.31060573683E+02  0.40000000000E+02  0.47000000000E+01 0.  1.
</event>
<event>
 5    1  0.4814700E-001  0.8000000E+02  0.7546771E-02  0.1203772E+00
         11   -1    0    0    0    0  0.00000000000E+00  0.00000000000E+00  0.40000000000E+02  0.40000000000E+02  0.00000000000E+00 0. -1.
        -11   -1    0    0    0    0 -0.00000000000E+00 -0.00000000000E+00 -0.40000000000E+02  0.40000000000E+02  0.00000000000E+00 0.  1.
         23    2    1    2    0    0  0.00000000000E+00  0.00000000000E+00  0.00000000000E+00  0.80000000000E+02  0.80000000000E+02 0.  0.
          5    1    3    3  501    0 -0.10531792708E+02  0.34801789614E+02  0.15994586021E+02  0.40000000000E+02  0.47000000000E+01 0. -1.
         -5    1    3    3    0  501  0.10531792708E+02 -0.34801789614E+02 -0.15994586021E+02  0.40000000000E+02  0.47000000000E+01 0.  1.
</event>
<event>
 5    1  0.4814700E-001  0.8000000E+02  0.7546771E-02  0.1203772E+00
         11   -1    0    0    0    0  0.00000000000E+00  0.00000000000E+00  0.40000000000E+02  0.40000000000E+02  0.00000000000E+00 0. -1.
        -11   -1    0    0    0    0 -0.00000000000E+00 -0.00000000000E+00 -0.40000000000E+02  0.40000000000E+02  0.00000000000E+00 0.  1.
         23    2    1    2    0    0  0.00000000000E+00  0.00000000000E+00  0.00000000000E+00  0.80000000000E+02  0.80000000000E+02 0.  0.
          5    1    3    3  501    0 -0.20946282267E+02  0.28314625933E+02  0.18369682018E+02  0.40000000000E+02  0.47000000000E+01 0. -1.
         -5    1    3    3    0  501  0.20946282267E+02 -0.28314625933E+02 -0.18369682018E+02  0.40000000000E+02  0.47000000000E+01 0.  1.
</event>
<event>
 5    1  0.4814700E-001  0.8000000E+02  0.7546771E-02  0.1203772E+00
         11   -1    0    0    0    0  0.00000000000E+00  0.00000000000E+00  0.40000000000E+02  0.40000000000E+02  0.00000000000E+00 0.  1.
        -11   -1    0    0    0    0 -0.00000000000E+00 -0.00000000000E+00 -0.40000000000E+02  0.40000000000E+02  0.00000000000E+00 0. -1.
         23    2    1    2    0    0  0.00000000000E+00  0.00000000000E+00  0.00000000000E+00  0.80000000000E+02  0.80000000000E+02 0.  0.
          5    1    3    3  501    0 -0.29854588378E+02  0.67024333941E+01 -0.25331619359E+02  0.40000000000E+02  0.47000000000E+01 0. -1.
         -5    1    3    3    0  501  0.29854588378E+02 -0.67024333941E+01  0.25331619359E+02  0.40000000000E+02  0.47000000000E+01 0.  1.
</event>
<event>
 5    1  0.4814700E-001  0.8000000E+02  0.7546771E-02  0.1203772E+00
         11   -1    0    0    0    0  0.00000000000E+00  0.00000000000E+00  0.40000000000E+02  0.40000000000E+02  0.00000000000E+00 0. -1.
        -11   -1    0    0    0    0 -0.00000000000E+00 -0.00000000000E+00 -0.40000000000E+02  0.40000000000E+02  0.00000000000E+00 0.  1.
         23    2    1    2    0    0  0.00000000000E+00  0.00000000000E+00  0.00000000000E+00  0.80000000000E+02  0.80000000000E+02 0.  0.
          5    1    3    3  501    0  0.89407358563E+01  0.22903094175E+01  0.38635834728E+02  0.40000000000E+02  0.47000000000E+01 0. -1.
         -5    1    3    3    0  501 -0.89407358563E+01 -0.22903094175E+01 -0.38635834728E+02  0.40000000000E+02  0.47000000000E+01 0.  1.
</event>
<event>
 5    1  0.4814700E-001  0.8000000E+02  0.7546771E-02  0.1203772E+00
         11   -1    0    0    0    0  0.00000000000E+00  0.00000000000E+00  0.40000000000E+02  0.40000000000E+02  0.00000000000E+00 0.  1.
        -11   -1    0    0    0    0 -0.00000000000E+00 -0.00000000000E+00 -0.40000000000E+02  0.40000000000E+02  0.00000000000E+00 0. -1.
         23    2    1    2    0    0  0.00000000000E+00  0.00000000000E+00  0.00000000000E+00  0.80000000000E+02  0.80000000000E+02 0.  0.
          5    1    3    3  501    0  0.18513508895E+02  0.23379750676E+02 -0.26240183816E+02  0.40000000000E+02  0.47000000000E+01 0. -1.
         -5    1    3    3    0  501 -0.18513508895E+02 -0.23379750676E+02  0.26240183816E+02  0.40000000000E+02  0.47000000000E+01 0.  1.
</event>
<event>
 5    1  0.4814700E-001  0.8000000E+02  0.7546771E-02  0.1203772E+00
         11   -1    0    0    0    0  0.00000000000E+00  0.00000000000E+00  0.40000000000E+02  0.40000000000E+02  0.00000000000E+00 0. -1.
        -11   -1    0    0    0    0 -0.00000000000E+00 -0.00000000000E+00 -0.40000000000E+02  0.40000000000E+02  0.00000000000E+00 0.  1.
         23    2    1    2    0    0  0.00000000000E+00  0.00000000000E+00  0.00000000000E+00  0.80000000000E+02  0.80000000000E+02 0.  0.
          5    1    3    3  501    0 -0.79263490008E+01  0.38529439947E+02  0.55285847123E+01  0.40000000000E+02  0.47000000000E+01 0. -1.
         -5    1    3    3    0  501  0.79263490008E+01 -0.38529439947E+02 -0.55285847123E+01  0.40000000000E+02  0.47000000000E+01 0.  1.
</event>
<event>
 5    1  0.4814700E-001  0.8000000E+02  0.7546771E-02  0.1203772E+00
         11   -1    0    0    0    0  0.00000000000E+00  0.00000000000E+00  0.40000000000E+02  0.40000000000E+02  0.00000000000E+00 0. -1.
        -11   -1    0    0    0    0 -0.00000000000E+00 -0.00000000000E+00 -0.40000000000E+02  0.40000000000E+02  0.00000000000E+00 0.  1.
         23    2    1    2    0    0  0.00000000000E+00  0.00000000000E+00  0.00000000000E+00  0.80000000000E+02  0.80000000000E+02 0.  0.
          5    1    3    3  501    0  0.19381184445E+02 -0.31836791727E+02 -0.13736752967E+02  0.40000000000E+02  0.47000000000E+01 0. -1.
         -5    1    3    3    0  501 -0.19381184445E+02  0.31836791727E+02  0.13736752967E+02  0.40000000000E+02  0.47000000000E+01 0.  1.
</event>
<event>
 5    1  0.4814700E-001  0.8000000E+02  0.7546771E-02  0.1203772E+00
         11   -1    0    0    0    0  0.00000000000E+00  0.00000000000E+00  0.40000000000E+02  0.40000000000E+02  0.00000000000E+00 0. -1.
        -11   -1    0    0    0    0 -0.00000000000E+00 -0.00000000000E+00 -0.40000000000E+02  0.40000000000E+02  0.00000000000E+00 0.  1.
         23    2    1    2    0    0  0.00000000000E+00  0.00000000000E+00  0.00000000000E+00  0.80000000000E+02  0.80000000000E+02 0.  0.
          5    1    3    3  501    0  0.80783111145E+01  0.36440236082E+02  0.13592648154E+02  0.40000000000E+02  0.47000000000E+01 0. -1.
         -5    1    3    3    0  501 -0.80783111145E+01 -0.36440236082E+02 -0.13592648154E+02  0.40000000000E+02  0.47000000000E+01 0.  1.
</event>
<event>
 5    1  0.4814700E-001  0.8000000E+02  0.7546771E-02  0.1203772E+00
         11   -1    0    0    0    0  0.00000000000E+00  0.00000000000E+00  0.40000000000E+02  0.40000000000E+02  0.00000000000E+00 0.  1.
        -11   -1    0    0    0    0 -0.00000000000E+00 -0.00000000000E+00 -0.40000000000E+02  0.40000000000E+02  0.00000000000E+00 0. -1.
         23    2    1    2    0    0  0.00000000000E+00  0.00000000000E+00  0.00000000000E+00  0.80000000000E+02  0.80000000000E+02 0.  0.
          5    1    3    3  501    0 -0.26246251695E+02  0.29080894733E+02 -0.65837552756E+01  0.40000000000E+02  0.47000000000E+01 0. -1.
         -5    1    3    3    0  501  0.26246251695E+02 -0.29080894733E+02  0.65837552756E+01  0.40000000000E+02  0.47000000000E+01 0.  1.
</event>
<event>
 5    1  0.4814700E-001  0.8000000E+02  0.7546771E-02  0.1203772E+00
         11   -1    0    0    0    0  0.00000000000E+00  0.00000000000E+00  0.40000000000E+02  0.40000000000E+02  0.00000000000E+00 0.  1.
        -11   -1    0    0    0    0 -0.00000000000E+00 -0.00000000000E+00 -0.40000000000E+02  0.40000000000E+02  0.00000000000E+00 0. -1.
         23    2    1    2    0    0  0.00000000000E+00  0.00000000000E+00  0.00000000000E+00  0.80000000000E+02  0.80000000000E+02 0.  0.
          5    1    3    3  501    0  0.87512364891E+01  0.85482576643E+01 -0.37792236647E+02  0.40000000000E+02  0.47000000000E+01 0. -1.
         -5    1    3    3    0  501 -0.87512364891E+01 -0.85482576643E+01  0.37792236647E+02  0.40000000000E+02  0.47000000000E+01 0.  1.
</event>
<event>
 5    1  0.4814700E-001  0.8000000E+02  0.7546771E-02  0.1203772E+00
         11   -1    0    0    0    0  0.00000000000E+00  0.00000000000E+00  0.40000000000E+02  0.40000000000E+02  0.00000000000E+00 0. -1.
        -11   -1    0    0    0    0 -0.00000000000E+00 -0.00000000000E+00 -0.40000000000E+02  0.40000000000E+02  0.00000000000E+00 0.  1.
         23    2    1    2    0    0  0.00000000000E+00  0.00000000000E+00  0.00000000000E+00  0.80000000000E+02  0.80000000000E+02 0.  0.
          5    1    3    3  501    0  0.33078368990E+02 -0.10211785164E+02  0.19479500731E+02  0.40000000000E+02  0.47000000000E+01 0. -1.
         -5    1    3    3    0  501 -0.33078368990E+02  0.10211785164E+02 -0.19479500731E+02  0.40000000000E+02  0.47000000000E+01 0.  1.
</event>
<event>
 5    1  0.4814700E-001  0.8000000E+02  0.7546771E-02  0.1203772E+00
         11   -1    0    0    0    0  0.00000000000E+00  0.00000000000E+00  0.40000000000E+02  0.40000000000E+02  0.00000000000E+00 0. -1.
        -11   -1    0    0    0    0 -0.00000000000E+00 -0.00000000000E+00 -0.40000000000E+02  0.40000000000E+02  0.00000000000E+00 0.  1.
         23    2    1    2    0    0  0.00000000000E+00  0.00000000000E+00  0.00000000000E+00  0.80000000000E+02  0.80000000000E+02 0.  0.
          5    1    3    3  501    0  0.59978879185E+01  0.13058739417E+02 -0.37032481221E+02  0.40000000000E+02  0.47000000000E+01 0.  1.
         -5    1    3    3    0  501 -0.59978879185E+01 -0.13058739417E+02  0.37032481221E+02  0.40000000000E+02  0.47000000000E+01 0. -1.
</event>
<event>
 5    1  0.4814700E-001  0.8000000E+02  0.7546771E-02  0.1203772E+00
         11   -1    0    0    0    0  0.00000000000E+00  0.00000000000E+00  0.40000000000E+02  0.40000000000E+02  0.00000000000E+00 0. -1.
        -11   -1    0    0    0    0 -0.00000000000E+00 -0.00000000000E+00 -0.40000000000E+02  0.40000000000E+02  0.00000000000E+00 0.  1.
         23    2    1    2    0    0  0.00000000000E+00  0.00000000000E+00  0.00000000000E+00  0.80000000000E+02  0.80000000000E+02 0.  0.
          5    1    3    3  501    0 -0.20618003561E+02  0.31476247126E+02 -0.12730035192E+02  0.40000000000E+02  0.47000000000E+01 0. -1.
         -5    1    3    3    0  501  0.20618003561E+02 -0.31476247126E+02  0.12730035192E+02  0.40000000000E+02  0.47000000000E+01 0.  1.
</event>
<event>
 5    1  0.4814700E-001  0.8000000E+02  0.7546771E-02  0.1203772E+00
         11   -1    0    0    0    0  0.00000000000E+00  0.00000000000E+00  0.40000000000E+02  0.40000000000E+02  0.00000000000E+00 0. -1.
        -11   -1    0    0    0    0 -0.00000000000E+00 -0.00000000000E+00 -0.40000000000E+02  0.40000000000E+02  0.00000000000E+00 0.  1.
         23    2    1    2    0    0  0.00000000000E+00  0.00000000000E+00  0.00000000000E+00  0.80000000000E+02  0.80000000000E+02 0.  0.
          5    1    3    3  501    0 -0.69232881378E+01  0.35252030258E+02  0.16949113371E+02  0.40000000000E+02  0.47000000000E+01 0. -1.
         -5    1    3    3    0  501  0.69232881378E+01 -0.35252030258E+02 -0.16949113371E+02  0.40000000000E+02  0.47000000000E+01 0.  1.
</event>
<event>
 5    1  0.4814700E-001  0.8000000E+02  0.7546771E-02  0.1203772E+00
         11   -1    0    0    0    0  0.00000000000E+00  0.00000000000E+00  0.40000000000E+02  0.40000000000E+02  0.00000000000E+00 0.  1.
        -11   -1    0    0    0    0 -0.00000000000E+00 -0.00000000000E+00 -0.40000000000E+02  0.40000000000E+02  0.00000000000E+00 0. -1.
         23    2    1    2    0    0  0.00000000000E+00  0.00000000000E+00  0.00000000000E+00  0.80000000000E+02  0.80000000000E+02 0.  0.
          5    1    3    3  501    0 -0.10758444510E+02 -0.16000966609E+02 -0.34729453484E+02  0.40000000000E+02  0.47000000000E+01 0. -1.
         -5    1    3    3    0  501  0.10758444510E+02  0.16000966609E+02  0.34729453484E+02  0.40000000000E+02  0.47000000000E+01 0.  1.
</event>
<event>
 5    1  0.4814700E-001  0.8000000E+02  0.7546771E-02  0.1203772E+00
         11   -1    0    0    0    0  0.00000000000E+00  0.00000000000E+00  0.40000000000E+02  0.40000000000E+02  0.00000000000E+00 0. -1.
        -11   -1    0    0    0    0 -0.00000000000E+00 -0.00000000000E+00 -0.40000000000E+02  0.40000000000E+02  0.00000000000E+00 0.  1.
         23    2    1    2    0    0  0.00000000000E+00  0.00000000000E+00  0.00000000000E+00  0.80000000000E+02  0.80000000000E+02 0.  0.
          5    1    3    3  501    0 -0.27234118159E+02  0.27356319916E+02  0.93725433451E+01  0.40000000000E+02  0.47000000000E+01 0. -1.
         -5    1    3    3    0  501  0.27234118159E+02 -0.27356319916E+02 -0.93725433451E+01  0.40000000000E+02  0.47000000000E+01 0.  1.
</event>
<event>
 5    1  0.4814700E-001  0.8000000E+02  0.7546771E-02  0.1203772E+00
         11   -1    0    0    0    0  0.00000000000E+00  0.00000000000E+00  0.40000000000E+02  0.40000000000E+02  0.00000000000E+00 0.  1.
        -11   -1    0    0    0    0 -0.00000000000E+00 -0.00000000000E+00 -0.40000000000E+02  0.40000000000E+02  0.00000000000E+00 0. -1.
         23    2    1    2    0    0  0.00000000000E+00  0.00000000000E+00  0.00000000000E+00  0.80000000000E+02  0.80000000000E+02 0.  0.
          5    1    3    3  501    0 -0.26094090358E+01  0.23021359742E+02 -0.32266359883E+02  0.40000000000E+02  0.47000000000E+01 0. -1.
         -5    1    3    3    0  501  0.26094090358E+01 -0.23021359742E+02  0.32266359883E+02  0.40000000000E+02  0.47000000000E+01 0.  1.
</event>
<event>
 5    1  0.4814700E-001  0.8000000E+02  0.7546771E-02  0.1203772E+00
         11   -1    0    0    0    0  0.00000000000E+00  0.00000000000E+00  0.40000000000E+02  0.40000000000E+02  0.00000000000E+00 0. -1.
        -11   -1    0    0    0    0 -0.00000000000E+00 -0.00000000000E+00 -0.40000000000E+02  0.40000000000E+02  0.00000000000E+00 0.  1.
         23    2    1    2    0    0  0.00000000000E+00  0.00000000000E+00  0.00000000000E+00  0.80000000000E+02  0.80000000000E+02 0.  0.
          5    1    3    3  501    0 -0.32023169312E+02 -0.88762203467E+01  0.21763256640E+02  0.40000000000E+02  0.47000000000E+01 0. -1.
         -5    1    3    3    0  501  0.32023169312E+02  0.88762203467E+01 -0.21763256640E+02  0.40000000000E+02  0.47000000000E+01 0.  1.
</event>
<event>
 5    1  0.4814700E-001  0.8000000E+02  0.7546771E-02  0.1203772E+00
         11   -1    0    0    0    0  0.00000000000E+00  0.00000000000E+00  0.40000000000E+02  0.40000000000E+02  0.00000000000E+00 0. -1.
        -11   -1    0    0    0    0 -0.00000000000E+00 -0.00000000000E+00 -0.40000000000E+02  0.40000000000E+02  0.00000000000E+00 0.  1.
         23    2    1    2    0    0  0.00000000000E+00  0.00000000000E+00  0.00000000000E+00  0.80000000000E+02  0.80000000000E+02 0.  0.
          5    1    3    3  501    0 -0.20114838018E+02  0.14612900021E+02  0.30980097554E+02  0.40000000000E+02  0.47000000000E+01 0. -1.
         -5    1    3    3    0  501  0.20114838018E+02 -0.14612900021E+02 -0.30980097554E+02  0.40000000000E+02  0.47000000000E+01 0.  1.
</event>
<event>
 5    1  0.4814700E-001  0.8000000E+02  0.7546771E-02  0.1203772E+00
         11   -1    0    0    0    0  0.00000000000E+00  0.00000000000E+00  0.40000000000E+02  0.40000000000E+02  0.00000000000E+00 0. -1.
        -11   -1    0    0    0    0 -0.00000000000E+00 -0.00000000000E+00 -0.40000000000E+02  0.40000000000E+02  0.00000000000E+00 0.  1.
         23    2    1    2    0    0  0.00000000000E+00  0.00000000000E+00  0.00000000000E+00  0.80000000000E+02  0.80000000000E+02 0.  0.
          5    1    3    3  501    0  0.62020365778E+01  0.92569309937E+00  0.39224836960E+02  0.40000000000E+02  0.47000000000E+01 0. -1.
         -5    1    3    3    0  501 -0.62020365778E+01 -0.92569309937E+00 -0.39224836960E+02  0.40000000000E+02  0.47000000000E+01 0.  1.
</event>
<event>
 5    1  0.4814700E-001  0.8000000E+02  0.7546771E-02  0.1203772E+00
         11   -1    0    0    0    0  0.00000000000E+00  0.00000000000E+00  0.40000000000E+02  0.40000000000E+02  0.00000000000E+00 0. -1.
        -11   -1    0    0    0    0 -0.00000000000E+00 -0.00000000000E+00 -0.40000000000E+02  0.40000000000E+02  0.00000000000E+00 0.  1.
         23    2    1    2    0    0  0.00000000000E+00  0.00000000000E+00  0.00000000000E+00  0.80000000000E+02  0.80000000000E+02 0.  0.
          5    1    3    3  501    0  0.17846020965E+02 -0.10958361671E+02  0.33754167820E+02  0.40000000000E+02  0.47000000000E+01 0. -1.
         -5    1    3    3    0  501 -0.17846020965E+02  0.10958361671E+02 -0.33754167820E+02  0.40000000000E+02  0.47000000000E+01 0.  1.
</event>
<event>
 5    1  0.4814700E-001  0.8000000E+02  0.7546771E-02  0.1203772E+00
         11   -1    0    0    0    0  0.00000000000E+00  0.00000000000E+00  0.40000000000E+02  0.40000000000E+02  0.00000000000E+00 0.  1.
        -11   -1    0    0    0    0 -0.00000000000E+00 -0.00000000000E+00 -0.40000000000E+02  0.40000000000E+02  0.00000000000E+00 0. -1.
         23    2    1    2    0    0  0.00000000000E+00  0.00000000000E+00  0.00000000000E+00  0.80000000000E+02  0.80000000000E+02 0.  0.
          5    1    3    3  501    0  0.16495532759E+02 -0.32862327945E+02 -0.15029131746E+02  0.40000000000E+02  0.47000000000E+01 0. -1.
         -5    1    3    3    0  501 -0.16495532759E+02  0.32862327945E+02  0.15029131746E+02  0.40000000000E+02  0.47000000000E+01 0.  1.
</event>
<event>
 5    1  0.4814700E-001  0.8000000E+02  0.7546771E-02  0.1203772E+00
         11   -1    0    0    0    0  0.00000000000E+00  0.00000000000E+00  0.40000000000E+02  0.40000000000E+02  0.00000000000E+00 0. -1.
        -11   -1    0    0    0    0 -0.00000000000E+00 -0.00000000000E+00 -0.40000000000E+02  0.40000000000E+02  0.00000000000E+00 0.  1.
         23    2    1    2    0    0  0.00000000000E+00  0.00000000000E+00  0.00000000000E+00  0.80000000000E+02  0.80000000000E+02 0.  0.
          5    1    3    3  501    0  0.16566300366E+02  0.25449300532E+02  0.25608607822E+02  0.40000000000E+02  0.47000000000E+01 0. -1.
         -5    1    3    3    0  501 -0.16566300366E+02 -0.25449300532E+02 -0.25608607822E+02  0.40000000000E+02  0.47000000000E+01 0.  1.
</event>
<event>
 5    1  0.4814700E-001  0.8000000E+02  0.7546771E-02  0.1203772E+00
         11   -1    0    0    0    0  0.00000000000E+00  0.00000000000E+00  0.40000000000E+02  0.40000000000E+02  0.00000000000E+00 0. -1.
        -11   -1    0    0    0    0 -0.00000000000E+00 -0.00000000000E+00 -0.40000000000E+02  0.40000000000E+02  0.00000000000E+00 0.  1.
         23    2    1    2    0    0  0.00000000000E+00  0.00000000000E+00  0.00000000000E+00  0.80000000000E+02  0.80000000000E+02 0.  0.
          5    1    3    3  501    0 -0.14260908782E+02  0.17931467920E+02 -0.32449945130E+02  0.40000000000E+02  0.47000000000E+01 0.  1.
         -5    1    3    3    0  501  0.14260908782E+02 -0.17931467920E+02  0.32449945130E+02  0.40000000000E+02  0.47000000000E+01 0. -1.
</event>
<event>
 5    1  0.4814700E-001  0.8000000E+02  0.7546771E-02  0.1203772E+00
         11   -1    0    0    0    0  0.00000000000E+00  0.00000000000E+00  0.40000000000E+02  0.40000000000E+02  0.00000000000E+00 0. -1.
        -11   -1    0    0    0    0 -0.00000000000E+00 -0.00000000000E+00 -0.40000000000E+02  0.40000000000E+02  0.00000000000E+00 0.  1.
         23    2    1    2    0    0  0.00000000000E+00  0.00000000000E+00  0.00000000000E+00  0.80000000000E+02  0.80000000000E+02 0.  0.
          5    1    3    3  501    0  0.65949643827E+01 -0.20038118248E+02  0.33658435226E+02  0.40000000000E+02  0.47000000000E+01 0. -1.
         -5    1    3    3    0  501 -0.65949643827E+01  0.20038118248E+02 -0.33658435226E+02  0.40000000000E+02  0.47000000000E+01 0.  1.
</event>
<event>
 5    1  0.4814700E-001  0.8000000E+02  0.7546771E-02  0.1203772E+00
         11   -1    0    0    0    0  0.00000000000E+00  0.00000000000E+00  0.40000000000E+02  0.40000000000E+02  0.00000000000E+00 0. -1.
        -11   -1    0    0    0    0 -0.00000000000E+00 -0.00000000000E+00 -0.40000000000E+02  0.40000000000E+02  0.00000000000E+00 0.  1.
         23    2    1    2    0    0  0.00000000000E+00  0.00000000000E+00  0.00000000000E+00  0.80000000000E+02  0.80000000000E+02 0.  0.
          5    1    3    3  501    0  0.31197207975E+02 -0.19704043736E+02 -0.14710366243E+02  0.40000000000E+02  0.47000000000E+01 0. -1.
         -5    1    3    3    0  501 -0.31197207975E+02  0.19704043736E+02  0.14710366243E+02  0.40000000000E+02  0.47000000000E+01 0.  1.
</event>
<event>
 5    1  0.4814700E-001  0.8000000E+02  0.7546771E-02  0.1203772E+00
         11   -1    0    0    0    0  0.00000000000E+00  0.00000000000E+00  0.40000000000E+02  0.40000000000E+02  0.00000000000E+00 0.  1.
        -11   -1    0    0    0    0 -0.00000000000E+00 -0.00000000000E+00 -0.40000000000E+02  0.40000000000E+02  0.00000000000E+00 0. -1.
         23    2    1    2    0    0  0.00000000000E+00  0.00000000000E+00  0.00000000000E+00  0.80000000000E+02  0.80000000000E+02 0.  0.
          5    1    3    3  501    0 -0.17182693992E+02 -0.24361614190E+02 -0.26252176695E+02  0.40000000000E+02  0.47000000000E+01 0. -1.
         -5    1    3    3    0  501  0.17182693992E+02  0.24361614190E+02  0.26252176695E+02  0.40000000000E+02  0.47000000000E+01 0.  1.
</event>
<event>
 5    1  0.4814700E-001  0.8000000E+02  0.7546771E-02  0.1203772E+00
         11   -1    0    0    0    0  0.00000000000E+00  0.00000000000E+00  0.40000000000E+02  0.40000000000E+02  0.00000000000E+00 0.  1.
        -11   -1    0    0    0    0 -0.00000000000E+00 -0.00000000000E+00 -0.40000000000E+02  0.40000000000E+02  0.00000000000E+00 0. -1.
         23    2    1    2    0    0  0.00000000000E+00  0.00000000000E+00  0.00000000000E+00  0.80000000000E+02  0.80000000000E+02 0.  0.
          5    1    3    3  501    0 -0.11894659786E+02  0.23271590431E+02 -0.29914213133E+02  0.40000000000E+02  0.47000000000E+01 0. -1.
         -5    1    3    3    0  501  0.11894659786E+02 -0.23271590431E+02  0.29914213133E+02  0.40000000000E+02  0.47000000000E+01 0.  1.
</event>
<event>
 5    1  0.4814700E-001  0.8000000E+02  0.7546771E-02  0.1203772E+00
         11   -1    0    0    0    0  0.00000000000E+00  0.00000000000E+00  0.40000000000E+02  0.40000000000E+02  0.00000000000E+00 0.  1.
        -11   -1    0    0    0    0 -0.00000000000E+00 -0.00000000000E+00 -0.40000000000E+02  0.40000000000E+02  0.00000000000E+00 0. -1.
         23    2    1    2    0    0  0.00000000000E+00  0.00000000000E+00  0.00000000000E+00  0.80000000000E+02  0.80000000000E+02 0.  0.
          5    1    3    3  501    0 -0.21597483986E+02  0.29981626176E+02 -0.14579464233E+02  0.40000000000E+02  0.47000000000E+01 0. -1.
         -5    1    3    3    0  501  0.21597483986E+02 -0.29981626176E+02  0.14579464233E+02  0.40000000000E+02  0.47000000000E+01 0.  1.
</event>
<event>
 5    1  0.4814700E-001  0.8000000E+02  0.7546771E-02  0.1203772E+00
         11   -1    0    0    0    0  0.00000000000E+00  0.00000000000E+00  0.40000000000E+02  0.40000000000E+02  0.00000000000E+00 0.  1.
        -11   -1    0    0    0    0 -0.00000000000E+00 -0.00000000000E+00 -0.40000000000E+02  0.40000000000E+02  0.00000000000E+00 0. -1.
         23    2    1    2    0    0  0.00000000000E+00  0.00000000000E+00  0.00000000000E+00  0.80000000000E+02  0.80000000000E+02 0.  0.
          5    1    3    3  501    0 -0.28524363356E+02 -0.10191736319E+02 -0.25698233518E+02  0.40000000000E+02  0.47000000000E+01 0. -1.
         -5    1    3    3    0  501  0.28524363356E+02  0.10191736319E+02  0.25698233518E+02  0.40000000000E+02  0.47000000000E+01 0.  1.
</event>
<event>
 5    1  0.4814700E-001  0.8000000E+02  0.7546771E-02  0.1203772E+00
         11   -1    0    0    0    0  0.00000000000E+00  0.00000000000E+00  0.40000000000E+02  0.40000000000E+02  0.00000000000E+00 0. -1.
        -11   -1    0    0    0    0 -0.00000000000E+00 -0.00000000000E+00 -0.40000000000E+02  0.40000000000E+02  0.00000000000E+00 0.  1.
         23    2    1    2    0    0  0.00000000000E+00  0.00000000000E+00  0.00000000000E+00  0.80000000000E+02  0.80000000000E+02 0.  0.
          5    1    3    3  501    0  0.99384008629E+01 -0.31195317053E+02  0.22494229977E+02  0.40000000000E+02  0.47000000000E+01 0. -1.
         -5    1    3    3    0  501 -0.99384008629E+01  0.31195317053E+02 -0.22494229977E+02  0.40000000000E+02  0.47000000000E+01 0.  1.
</event>
<event>
 5    1  0.4814700E-001  0.8000000E+02  0.7546771E-02  0.1203772E+00
         11   -1    0    0    0    0  0.00000000000E+00  0.00000000000E+00  0.40000000000E+02  0.40000000000E+02  0.00000000000E+00 0. -1.
        -11   -1    0    0    0    0 -0.00000000000E+00 -0.00000000000E+00 -0.40000000000E+02  0.40000000000E+02  0.00000000000E+00 0.  1.
         23    2    1    2    0    0  0.00000000000E+00  0.00000000000E+00  0.00000000000E+00  0.80000000000E+02  0.80000000000E+02 0.  0.
          5    1    3    3  501    0 -0.29052034053E+01 -0.14831501039E+01  0.39588761776E+02  0.40000000000E+02  0.47000000000E+01 0. -1.
         -5    1    3    3    0  501  0.29052034053E+01  0.14831501039E+01 -0.39588761776E+02  0.40000000000E+02  0.47000000000E+01 0.  1.
</event>
<event>
 5    1  0.4814700E-001  0.8000000E+02  0.7546771E-02  0.1203772E+00
         11   -1    0    0    0    0  0.00000000000E+00  0.00000000000E+00  0.40000000000E+02  0.40000000000E+02  0.00000000000E+00 0. -1.
        -11   -1    0    0    0    0 -0.00000000000E+00 -0.00000000000E+00 -0.40000000000E+02  0.40000000000E+02  0.00000000000E+00 0.  1.
         23    2    1    2    0    0  0.00000000000E+00  0.00000000000E+00  0.00000000000E+00  0.80000000000E+02  0.80000000000E+02 0.  0.
          5    1    3    3  501    0  0.69137189853E+01 -0.24323148816E+02  0.30634864476E+02  0.40000000000E+02  0.47000000000E+01 0. -1.
         -5    1    3    3    0  501 -0.69137189853E+01  0.24323148816E+02 -0.30634864476E+02  0.40000000000E+02  0.47000000000E+01 0.  1.
</event>
<event>
 5    1  0.4814700E-001  0.8000000E+02  0.7546771E-02  0.1203772E+00
         11   -1    0    0    0    0  0.00000000000E+00  0.00000000000E+00  0.40000000000E+02  0.40000000000E+02  0.00000000000E+00 0.  1.
        -11   -1    0    0    0    0 -0.00000000000E+00 -0.00000000000E+00 -0.40000000000E+02  0.40000000000E+02  0.00000000000E+00 0. -1.
         23    2    1    2    0    0  0.00000000000E+00  0.00000000000E+00  0.00000000000E+00  0.80000000000E+02  0.80000000000E+02 0.  0.
          5    1    3    3  501    0  0.23731680789E+02  0.71950673801E+01 -0.31031408804E+02  0.40000000000E+02  0.47000000000E+01 0. -1.
         -5    1    3    3    0  501 -0.23731680789E+02 -0.71950673801E+01  0.31031408804E+02  0.40000000000E+02  0.47000000000E+01 0.  1.
</event>
<event>
 5    1  0.4814700E-001  0.8000000E+02  0.7546771E-02  0.1203772E+00
         11   -1    0    0    0    0  0.00000000000E+00  0.00000000000E+00  0.40000000000E+02  0.40000000000E+02  0.00000000000E+00 0.  1.
        -11   -1    0    0    0    0 -0.00000000000E+00 -0.00000000000E+00 -0.40000000000E+02  0.40000000000E+02  0.00000000000E+00 0. -1.
         23    2    1    2    0    0  0.00000000000E+00  0.00000000000E+00  0.00000000000E+00  0.80000000000E+02  0.80000000000E+02 0.  0.
          5    1    3    3  501    0 -0.36732819940E+02  0.94678560075E+01 -0.11788538581E+02  0.40000000000E+02  0.47000000000E+01 0. -1.
         -5    1    3    3    0  501  0.36732819940E+02 -0.94678560075E+01  0.11788538581E+02  0.40000000000E+02  0.47000000000E+01 0.  1.
</event>
<event>
 5    1  0.4814700E-001  0.8000000E+02  0.7546771E-02  0.1203772E+00
         11   -1    0    0    0    0  0.00000000000E+00  0.00000000000E+00  0.40000000000E+02  0.40000000000E+02  0.00000000000E+00 0. -1.
        -11   -1    0    0    0    0 -0.00000000000E+00 -0.00000000000E+00 -0.40000000000E+02  0.40000000000E+02  0.00000000000E+00 0.  1.
         23    2    1    2    0    0  0.00000000000E+00  0.00000000000E+00  0.00000000000E+00  0.80000000000E+02  0.80000000000E+02 0.  0.
          5    1    3    3  501    0 -0.26723425805E+02  0.34642227802E+01  0.29185059085E+02  0.40000000000E+02  0.47000000000E+01 0. -1.
         -5    1    3    3    0  501  0.26723425805E+02 -0.34642227802E+01 -0.29185059085E+02  0.40000000000E+02  0.47000000000E+01 0.  1.
</event>
<event>
 5    1  0.4814700E-001  0.8000000E+02  0.7546771E-02  0.1203772E+00
         11   -1    0    0    0    0  0.00000000000E+00  0.00000000000E+00  0.40000000000E+02  0.40000000000E+02  0.00000000000E+00 0.  1.
        -11   -1    0    0    0    0 -0.00000000000E+00 -0.00000000000E+00 -0.40000000000E+02  0.40000000000E+02  0.00000000000E+00 0. -1.
         23    2    1    2    0    0  0.00000000000E+00  0.00000000000E+00  0.00000000000E+00  0.80000000000E+02  0.80000000000E+02 0.  0.
          5    1    3    3  501    0  0.20573401273E+02  0.26749084043E+01 -0.33874622139E+02  0.40000000000E+02  0.47000000000E+01 0. -1.
         -5    1    3    3    0  501 -0.20573401273E+02 -0.26749084043E+01  0.33874622139E+02  0.40000000000E+02  0.47000000000E+01 0.  1.
</event>
<event>
 5    1  0.4814700E-001  0.8000000E+02  0.7546771E-02  0.1203772E+00
         11   -1    0    0    0    0  0.00000000000E+00  0.00000000000E+00  0.40000000000E+02  0.40000000000E+02  0.00000000000E+00 0. -1.
        -11   -1    0    0    0    0 -0.00000000000E+00 -0.00000000000E+00 -0.40000000000E+02  0.40000000000E+02  0.00000000000E+00 0.  1.
         23    2    1    2    0    0  0.00000000000E+00  0.00000000000E+00  0.00000000000E+00  0.80000000000E+02  0.80000000000E+02 0.  0.
          5    1    3    3  501    0 -0.30745106177E+02 -0.13511107297E+02  0.21215523227E+02  0.40000000000E+02  0.47000000000E+01 0. -1.
         -5    1    3    3    0  501  0.30745106177E+02  0.13511107297E+02 -0.21215523227E+02  0.40000000000E+02  0.47000000000E+01 0.  1.
</event>
<event>
 5    1  0.4814700E-001  0.8000000E+02  0.7546771E-02  0.1203772E+00
         11   -1    0    0    0    0  0.00000000000E+00  0.00000000000E+00  0.40000000000E+02  0.40000000000E+02  0.00000000000E+00 0. -1.
        -11   -1    0    0    0    0 -0.00000000000E+00 -0.00000000000E+00 -0.40000000000E+02  0.40000000000E+02  0.00000000000E+00 0.  1.
         23    2    1    2    0    0  0.00000000000E+00  0.00000000000E+00  0.00000000000E+00  0.80000000000E+02  0.80000000000E+02 0.  0.
          5    1    3    3  501    0  0.37161698204E+02  0.42313907697E+01  0.13379593371E+02  0.40000000000E+02  0.47000000000E+01 0.  1.
         -5    1    3    3    0  501 -0.37161698204E+02 -0.42313907697E+01 -0.13379593371E+02  0.40000000000E+02  0.47000000000E+01 0. -1.
</event>
<event>
 5    1  0.4814700E-001  0.8000000E+02  0.7546771E-02  0.1203772E+00
         11   -1    0    0    0    0  0.00000000000E+00  0.00000000000E+00  0.40000000000E+02  0.40000000000E+02  0.00000000000E+00 0.  1.
        -11   -1    0    0    0    0 -0.00000000000E+00 -0.00000000000E+00 -0.40000000000E+02  0.40000000000E+02  0.00000000000E+00 0. -1.
         23    2    1    2    0    0  0.00000000000E+00  0.00000000000E+00  0.00000000000E+00  0.80000000000E+02  0.80000000000E+02 0.  0.
          5    1    3    3  501    0 -0.19538212143E+02  0.95308129982E+01 -0.33246531696E+02  0.40000000000E+02  0.47000000000E+01 0. -1.
         -5    1    3    3    0  501  0.19538212143E+02 -0.95308129982E+01  0.33246531696E+02  0.40000000000E+02  0.47000000000E+01 0.  1.
</event>
<event>
 5    1  0.4814700E-001  0.8000000E+02  0.7546771E-02  0.1203772E+00
         11   -1    0    0    0    0  0.00000000000E+00  0.00000000000E+00  0.40000000000E+02  0.40000000000E+02  0.00000000000E+00 0.  1.
        -11   -1    0    0    0    0 -0.00000000000E+00 -0.00000000000E+00 -0.40000000000E+02  0.40000000000E+02  0.00000000000E+00 0. -1.
         23    2    1    2    0    0  0.00000000000E+00  0.00000000000E+00  0.00000000000E+00  0.80000000000E+02  0.80000000000E+02 0.  0.
          5    1    3    3  501    0 -0.33021935370E+02 -0.72503743978E+01 -0.20854108839E+02  0.40000000000E+02  0.47000000000E+01 0. -1.
         -5    1    3    3    0  501  0.33021935370E+02  0.72503743978E+01  0.20854108839E+02  0.40000000000E+02  0.47000000000E+01 0.  1.
</event>
<event>
 5    1  0.4814700E-001  0.8000000E+02  0.7546771E-02  0.1203772E+00
         11   -1    0    0    0    0  0.00000000000E+00  0.00000000000E+00  0.40000000000E+02  0.40000000000E+02  0.00000000000E+00 0.  1.
        -11   -1    0    0    0    0 -0.00000000000E+00 -0.00000000000E+00 -0.40000000000E+02  0.40000000000E+02  0.00000000000E+00 0. -1.
         23    2    1    2    0    0  0.00000000000E+00  0.00000000000E+00  0.00000000000E+00  0.80000000000E+02  0.80000000000E+02 0.  0.
          5    1    3    3  501    0 -0.58945799454E+01 -0.39252416901E+02 -0.15529632104E+01  0.40000000000E+02  0.47000000000E+01 0. -1.
         -5    1    3    3    0  501  0.58945799454E+01  0.39252416901E+02  0.15529632104E+01  0.40000000000E+02  0.47000000000E+01 0.  1.
</event>
<event>
 5    1  0.4814700E-001  0.8000000E+02  0.7546771E-02  0.1203772E+00
         11   -1    0    0    0    0  0.00000000000E+00  0.00000000000E+00  0.40000000000E+02  0.40000000000E+02  0.00000000000E+00 0. -1.
        -11   -1    0    0    0    0 -0.00000000000E+00 -0.00000000000E+00 -0.40000000000E+02  0.40000000000E+02  0.00000000000E+00 0.  1.
         23    2    1    2    0    0  0.00000000000E+00  0.00000000000E+00  0.00000000000E+00  0.80000000000E+02  0.80000000000E+02 0.  0.
          5    1    3    3  501    0  0.25224133410E+02  0.10108524202E+02  0.28973623042E+02  0.40000000000E+02  0.47000000000E+01 0.  1.
         -5    1    3    3    0  501 -0.25224133410E+02 -0.10108524202E+02 -0.28973623042E+02  0.40000000000E+02  0.47000000000E+01 0. -1.
</event>
<event>
 5    1  0.4814700E-001  0.8000000E+02  0.7546771E-02  0.1203772E+00
         11   -1    0    0    0    0  0.00000000000E+00  0.00000000000E+00  0.40000000000E+02  0.40000000000E+02  0.00000000000E+00 0. -1.
        -11   -1    0    0    0    0 -0.00000000000E+00 -0.00000000000E+00 -0.40000000000E+02  0.40000000000E+02  0.00000000000E+00 0.  1.
         23    2    1    2    0    0  0.00000000000E+00  0.00000000000E+00  0.00000000000E+00  0.80000000000E+02  0.80000000000E+02 0.  0.
          5    1    3    3  501    0 -0.32231953674E+02 -0.99251064634E+01  0.20988173432E+02  0.40000000000E+02  0.47000000000E+01 0. -1.
         -5    1    3    3    0  501  0.32231953674E+02  0.99251064634E+01 -0.20988173432E+02  0.40000000000E+02  0.47000000000E+01 0.  1.
</event>
<event>
 5    1  0.4814700E-001  0.8000000E+02  0.7546771E-02  0.1203772E+00
         11   -1    0    0    0    0  0.00000000000E+00  0.00000000000E+00  0.40000000000E+02  0.40000000000E+02  0.00000000000E+00 0.  1.
        -11   -1    0    0    0    0 -0.00000000000E+00 -0.00000000000E+00 -0.40000000000E+02  0.40000000000E+02  0.00000000000E+00 0. -1.
         23    2    1    2    0    0  0.00000000000E+00  0.00000000000E+00  0.00000000000E+00  0.80000000000E+02  0.80000000000E+02 0.  0.
          5    1    3    3  501    0  0.28695933115E+02  0.49536864541E+01 -0.27016928271E+02  0.40000000000E+02  0.47000000000E+01 0. -1.
         -5    1    3    3    0  501 -0.28695933115E+02 -0.49536864541E+01  0.27016928271E+02  0.40000000000E+02  0.47000000000E+01 0.  1.
</event>
<event>
 5    1  0.4814700E-001  0.8000000E+02  0.7546771E-02  0.1203772E+00
         11   -1    0    0    0    0  0.00000000000E+00  0.00000000000E+00  0.40000000000E+02  0.40000000000E+02  0.00000000000E+00 0.  1.
        -11   -1    0    0    0    0 -0.00000000000E+00 -0.00000000000E+00 -0.40000000000E+02  0.40000000000E+02  0.00000000000E+00 0. -1.
         23    2    1    2    0    0  0.00000000000E+00  0.00000000000E+00  0.00000000000E+00  0.80000000000E+02  0.80000000000E+02 0.  0.
          5    1    3    3  501    0 -0.34747003397E+02 -0.18227033442E+02 -0.61912039908E+01  0.40000000000E+02  0.47000000000E+01 0. -1.
         -5    1    3    3    0  501  0.34747003397E+02  0.18227033442E+02  0.61912039908E+01  0.40000000000E+02  0.47000000000E+01 0.  1.
</event>
<event>
 5    1  0.4814700E-001  0.8000000E+02  0.7546771E-02  0.1203772E+00
         11   -1    0    0    0    0  0.00000000000E+00  0.00000000000E+00  0.40000000000E+02  0.40000000000E+02  0.00000000000E+00 0.  1.
        -11   -1    0    0    0    0 -0.00000000000E+00 -0.00000000000E+00 -0.40000000000E+02  0.40000000000E+02  0.00000000000E+00 0. -1.
         23    2    1    2    0    0  0.00000000000E+00  0.00000000000E+00  0.00000000000E+00  0.80000000000E+02  0.80000000000E+02 0.  0.
          5    1    3    3  501    0  0.25423456982E+02  0.43107343201E+01 -0.30215482864E+02  0.40000000000E+02  0.47000000000E+01 0. -1.
         -5    1    3    3    0  501 -0.25423456982E+02 -0.43107343201E+01  0.30215482864E+02  0.40000000000E+02  0.47000000000E+01 0.  1.
</event>
<event>
 5    1  0.4814700E-001  0.8000000E+02  0.7546771E-02  0.1203772E+00
         11   -1    0    0    0    0  0.00000000000E+00  0.00000000000E+00  0.40000000000E+02  0.40000000000E+02  0.00000000000E+00 0. -1.
        -11   -1    0    0    0    0 -0.00000000000E+00 -0.00000000000E+00 -0.40000000000E+02  0.40000000000E+02  0.00000000000E+00 0.  1.
         23    2    1    2    0    0  0.00000000000E+00  0.00000000000E+00  0.00000000000E+00  0.80000000000E+02  0.80000000000E+02 0.  0.
          5    1    3    3  501    0 -0.18659115600E+02  0.27229288305E+02  0.22097811281E+02  0.40000000000E+02  0.47000000000E+01 0. -1.
         -5    1    3    3    0  501  0.18659115600E+02 -0.27229288305E+02 -0.22097811281E+02  0.40000000000E+02  0.47000000000E+01 0.  1.
</event>
<event>
 5    1  0.4814700E-001  0.8000000E+02  0.7546771E-02  0.1203772E+00
         11   -1    0    0    0    0  0.00000000000E+00  0.00000000000E+00  0.40000000000E+02  0.40000000000E+02  0.00000000000E+00 0. -1.
        -11   -1    0    0    0    0 -0.00000000000E+00 -0.00000000000E+00 -0.40000000000E+02  0.40000000000E+02  0.00000000000E+00 0.  1.
         23    2    1    2    0    0  0.00000000000E+00  0.00000000000E+00  0.00000000000E+00  0.80000000000E+02  0.80000000000E+02 0.  0.
          5    1    3    3  501    0  0.25404020900E+02  0.17318652606E+02  0.25151739383E+02  0.40000000000E+02  0.47000000000E+01 0. -1.
         -5    1    3    3    0  501 -0.25404020900E+02 -0.17318652606E+02 -0.25151739383E+02  0.40000000000E+02  0.47000000000E+01 0.  1.
</event>
<event>
 5    1  0.4814700E-001  0.8000000E+02  0.7546771E-02  0.1203772E+00
         11   -1    0    0    0    0  0.00000000000E+00  0.00000000000E+00  0.40000000000E+02  0.40000000000E+02  0.00000000000E+00 0. -1.
        -11   -1    0    0    0    0 -0.00000000000E+00 -0.00000000000E+00 -0.40000000000E+02  0.40000000000E+02  0.00000000000E+00 0.  1.
         23    2    1    2    0    0  0.00000000000E+00  0.00000000000E+00  0.00000000000E+00  0.80000000000E+02  0.80000000000E+02 0.  0.
          5    1    3    3  501    0  0.21456115571E+02 -0.30383419792E+02  0.13942485659E+02  0.40000000000E+02  0.47000000000E+01 0. -1.
         -5    1    3    3    0  501 -0.21456115571E+02  0.30383419792E+02 -0.13942485659E+02  0.40000000000E+02  0.47000000000E+01 0.  1.
</event>
<event>
 5    1  0.4814700E-001  0.8000000E+02  0.7546771E-02  0.1203772E+00
         11   -1    0    0    0    0  0.00000000000E+00  0.00000000000E+00  0.40000000000E+02  0.40000000000E+02  0.00000000000E+00 0.  1.
        -11   -1    0    0    0    0 -0.00000000000E+00 -0.00000000000E+00 -0.40000000000E+02  0.40000000000E+02  0.00000000000E+00 0. -1.
         23    2    1    2    0    0  0.00000000000E+00  0.00000000000E+00  0.00000000000E+00  0.80000000000E+02  0.80000000000E+02 0.  0.
          5    1    3    3  501    0 -0.28582103525E+02 -0.19017832206E+02 -0.19982377643E+02  0.40000000000E+02  0.47000000000E+01 0. -1.
         -5    1    3    3    0  501  0.28582103525E+02  0.19017832206E+02  0.19982377643E+02  0.40000000000E+02  0.47000000000E+01 0.  1.
</event>
<event>
 5    1  0.4814700E-001  0.8000000E+02  0.7546771E-02  0.1203772E+00
         11   -1    0    0    0    0  0.00000000000E+00  0.00000000000E+00  0.40000000000E+02  0.40000000000E+02  0.00000000000E+00 0.  1.
        -11   -1    0    0    0    0 -0.00000000000E+00 -0.00000000000E+00 -0.40000000000E+02  0.40000000000E+02  0.00000000000E+00 0. -1.
         23    2    1    2    0    0  0.00000000000E+00  0.00000000000E+00  0.00000000000E+00  0.80000000000E+02  0.80000000000E+02 0.  0.
          5    1    3    3  501    0 -0.20195111459E+02  0.26230584626E+01 -0.34105527960E+02  0.40000000000E+02  0.47000000000E+01 0. -1.
         -5    1    3    3    0  501  0.20195111459E+02 -0.26230584626E+01  0.34105527960E+02  0.40000000000E+02  0.47000000000E+01 0.  1.
</event>
<event>
 5    1  0.4814700E-001  0.8000000E+02  0.7546771E-02  0.1203772E+00
         11   -1    0    0    0    0  0.00000000000E+00  0.00000000000E+00  0.40000000000E+02  0.40000000000E+02  0.00000000000E+00 0.  1.
        -11   -1    0    0    0    0 -0.00000000000E+00 -0.00000000000E+00 -0.40000000000E+02  0.40000000000E+02  0.00000000000E+00 0. -1.
         23    2    1    2    0    0  0.00000000000E+00  0.00000000000E+00  0.00000000000E+00  0.80000000000E+02  0.80000000000E+02 0.  0.
          5    1    3    3  501    0 -0.95782740358E+01  0.12013703106E+02 -0.36631101597E+02  0.40000000000E+02  0.47000000000E+01 0. -1.
         -5    1    3    3    0  501  0.95782740358E+01 -0.12013703106E+02  0.36631101597E+02  0.40000000000E+02  0.47000000000E+01 0.  1.
</event>
<event>
 5    1  0.4814700E-001  0.8000000E+02  0.7546771E-02  0.1203772E+00
         11   -1    0    0    0    0  0.00000000000E+00  0.00000000000E+00  0.40000000000E+02  0.40000000000E+02  0.00000000000E+00 0.  1.
        -11   -1    0    0    0    0 -0.00000000000E+00 -0.00000000000E+00 -0.40000000000E+02  0.40000000000E+02  0.00000000000E+00 0. -1.
         23    2    1    2    0    0  0.00000000000E+00  0.00000000000E+00  0.00000000000E+00  0.80000000000E+02  0.80000000000E+02 0.  0.
          5    1    3    3  501    0  0.37193075011E+02 -0.13005056969E+02 -0.50451624828E+01  0.40000000000E+02  0.47000000000E+01 0. -1.
         -5    1    3    3    0  501 -0.37193075011E+02  0.13005056969E+02  0.50451624828E+01  0.40000000000E+02  0.47000000000E+01 0.  1.
</event>
<event>
 5    1  0.4814700E-001  0.8000000E+02  0.7546771E-02  0.1203772E+00
         11   -1    0    0    0    0  0.00000000000E+00  0.00000000000E+00  0.40000000000E+02  0.40000000000E+02  0.00000000000E+00 0. -1.
        -11   -1    0    0    0    0 -0.00000000000E+00 -0.00000000000E+00 -0.40000000000E+02  0.40000000000E+02  0.00000000000E+00 0.  1.
         23    2    1    2    0    0  0.00000000000E+00  0.00000000000E+00  0.00000000000E+00  0.80000000000E+02  0.80000000000E+02 0.  0.
          5    1    3    3  501    0 -0.13542192361E+02 -0.32344550076E+02  0.18664112795E+02  0.40000000000E+02  0.47000000000E+01 0. -1.
         -5    1    3    3    0  501  0.13542192361E+02  0.32344550076E+02 -0.18664112795E+02  0.40000000000E+02  0.47000000000E+01 0.  1.
</event>
<event>
 5    1  0.4814700E-001  0.8000000E+02  0.7546771E-02  0.1203772E+00
         11   -1    0    0    0    0  0.00000000000E+00  0.00000000000E+00  0.40000000000E+02  0.40000000000E+02  0.00000000000E+00 0.  1.
        -11   -1    0    0    0    0 -0.00000000000E+00 -0.00000000000E+00 -0.40000000000E+02  0.40000000000E+02  0.00000000000E+00 0. -1.
         23    2    1    2    0    0  0.00000000000E+00  0.00000000000E+00  0.00000000000E+00  0.80000000000E+02  0.80000000000E+02 0.  0.
          5    1    3    3  501    0 -0.31125505628E+02  0.18286932612E+02 -0.16574106161E+02  0.40000000000E+02  0.47000000000E+01 0. -1.
         -5    1    3    3    0  501  0.31125505628E+02 -0.18286932612E+02  0.16574106161E+02  0.40000000000E+02  0.47000000000E+01 0.  1.
</event>
<event>
 5    1  0.4814700E-001  0.8000000E+02  0.7546771E-02  0.1203772E+00
         11   -1    0    0    0    0  0.00000000000E+00  0.00000000000E+00  0.40000000000E+02  0.40000000000E+02  0.00000000000E+00 0.  1.
        -11   -1    0    0    0    0 -0.00000000000E+00 -0.00000000000E+00 -0.40000000000E+02  0.40000000000E+02  0.00000000000E+00 0. -1.
         23    2    1    2    0    0  0.00000000000E+00  0.00000000000E+00  0.00000000000E+00  0.80000000000E+02  0.80000000000E+02 0.  0.
          5    1    3    3  501    0 -0.39677353988E+02  0.15101423950E+01 -0.11563089859E+01  0.40000000000E+02  0.47000000000E+01 0. -1.
         -5    1    3    3    0  501  0.39677353988E+02 -0.15101423950E+01  0.11563089859E+01  0.40000000000E+02  0.47000000000E+01 0.  1.
</event>
<event>
 5    1  0.4814700E-001  0.8000000E+02  0.7546771E-02  0.1203772E+00
         11   -1    0    0    0    0  0.00000000000E+00  0.00000000000E+00  0.40000000000E+02  0.40000000000E+02  0.00000000000E+00 0. -1.
        -11   -1    0    0    0    0 -0.00000000000E+00 -0.00000000000E+00 -0.40000000000E+02  0.40000000000E+02  0.00000000000E+00 0.  1.
         23    2    1    2    0    0  0.00000000000E+00  0.00000000000E+00  0.00000000000E+00  0.80000000000E+02  0.80000000000E+02 0.  0.
          5    1    3    3  501    0  0.47874133458E+01  0.39290623496E+02  0.33522498066E+01  0.40000000000E+02  0.47000000000E+01 0. -1.
         -5    1    3    3    0  501 -0.47874133458E+01 -0.39290623496E+02 -0.33522498066E+01  0.40000000000E+02  0.47000000000E+01 0.  1.
</event>
<event>
 5    1  0.4814700E-001  0.8000000E+02  0.7546771E-02  0.1203772E+00
         11   -1    0    0    0    0  0.00000000000E+00  0.00000000000E+00  0.40000000000E+02  0.40000000000E+02  0.00000000000E+00 0. -1.
        -11   -1    0    0    0    0 -0.00000000000E+00 -0.00000000000E+00 -0.40000000000E+02  0.40000000000E+02  0.00000000000E+00 0.  1.
         23    2    1    2    0    0  0.00000000000E+00  0.00000000000E+00  0.00000000000E+00  0.80000000000E+02  0.80000000000E+02 0.  0.
          5    1    3    3  501    0  0.15808585488E+00 -0.23316189990E+02 -0.32159606547E+02  0.40000000000E+02  0.47000000000E+01 0.  1.
         -5    1    3    3    0  501 -0.15808585488E+00  0.23316189990E+02  0.32159606547E+02  0.40000000000E+02  0.47000000000E+01 0. -1.
</event>
<event>
 5    1  0.4814700E-001  0.8000000E+02  0.7546771E-02  0.1203772E+00
         11   -1    0    0    0    0  0.00000000000E+00  0.00000000000E+00  0.40000000000E+02  0.40000000000E+02  0.00000000000E+00 0.  1.
        -11   -1    0    0    0    0 -0.00000000000E+00 -0.00000000000E+00 -0.40000000000E+02  0.40000000000E+02  0.00000000000E+00 0. -1.
         23    2    1    2    0    0  0.00000000000E+00  0.00000000000E+00  0.00000000000E+00  0.80000000000E+02  0.80000000000E+02 0.  0.
          5    1    3    3  501    0  0.14849941914E+02  0.49061013182E+01 -0.36514646308E+02  0.40000000000E+02  0.47000000000E+01 0. -1.
         -5    1    3    3    0  501 -0.14849941914E+02 -0.49061013182E+01  0.36514646308E+02  0.40000000000E+02  0.47000000000E+01 0.  1.
</event>
<event>
 5    1  0.4814700E-001  0.8000000E+02  0.7546771E-02  0.1203772E+00
         11   -1    0    0    0    0  0.00000000000E+00  0.00000000000E+00  0.40000000000E+02  0.40000000000E+02  0.00000000000E+00 0. -1.
        -11   -1    0    0    0    0 -0.00000000000E+00 -0.00000000000E+00 -0.40000000000E+02  0.40000000000E+02  0.00000000000E+00 0.  1.
         23    2    1    2    0    0  0.00000000000E+00  0.00000000000E+00  0.00000000000E+00  0.80000000000E+02  0.80000000000E+02 0.  0.
          5    1    3    3  501    0 -0.20740833346E+02 -0.19975595959E+02  0.27362445033E+02  0.40000000000E+02  0.47000000000E+01 0. -1.
         -5    1    3    3    0  501  0.20740833346E+02  0.19975595959E+02 -0.27362445033E+02  0.40000000000E+02  0.47000000000E+01 0.  1.
</event>
<event>
 5    1  0.4814700E-001  0.8000000E+02  0.7546771E-02  0.1203772E+00
         11   -1    0    0    0    0  0.00000000000E+00  0.00000000000E+00  0.40000000000E+02  0.40000000000E+02  0.00000000000E+00 0.  1.
        -11   -1    0    0    0    0 -0.00000000000E+00 -0.00000000000E+00 -0.40000000000E+02  0.40000000000E+02  0.00000000000E+00 0. -1.
         23    2    1    2    0    0  0.00000000000E+00  0.00000000000E+00  0.00000000000E+00  0.80000000000E+02  0.80000000000E+02 0.  0.
          5    1    3    3  501    0  0.33315944206E+02  0.57787278479E+01 -0.20846202678E+02  0.40000000000E+02  0.47000000000E+01 0. -1.
         -5    1    3    3    0  501 -0.33315944206E+02 -0.57787278479E+01  0.20846202678E+02  0.40000000000E+02  0.47000000000E+01 0.  1.
</event>
<event>
 5    1  0.4814700E-001  0.8000000E+02  0.7546771E-02  0.1203772E+00
         11   -1    0    0    0    0  0.00000000000E+00  0.00000000000E+00  0.40000000000E+02  0.40000000000E+02  0.00000000000E+00 0. -1.
        -11   -1    0    0    0    0 -0.00000000000E+00 -0.00000000000E+00 -0.40000000000E+02  0.40000000000E+02  0.00000000000E+00 0.  1.
         23    2    1    2    0    0  0.00000000000E+00  0.00000000000E+00  0.00000000000E+00  0.80000000000E+02  0.80000000000E+02 0.  0.
          5    1    3    3  501    0  0.28414522662E+02  0.27585820392E+02 -0.30898891874E+01  0.40000000000E+02  0.47000000000E+01 0.  1.
         -5    1    3    3    0  501 -0.28414522662E+02 -0.27585820392E+02  0.30898891874E+01  0.40000000000E+02  0.47000000000E+01 0. -1.
</event>
<event>
 5    1  0.4814700E-001  0.8000000E+02  0.7546771E-02  0.1203772E+00
         11   -1    0    0    0    0  0.00000000000E+00  0.00000000000E+00  0.40000000000E+02  0.40000000000E+02  0.00000000000E+00 0.  1.
        -11   -1    0    0    0    0 -0.00000000000E+00 -0.00000000000E+00 -0.40000000000E+02  0.40000000000E+02  0.00000000000E+00 0. -1.
         23    2    1    2    0    0  0.00000000000E+00  0.00000000000E+00  0.00000000000E+00  0.80000000000E+02  0.80000000000E+02 0.  0.
          5    1    3    3  501    0 -0.34232840254E+01  0.24163941565E+00 -0.39574394965E+02  0.40000000000E+02  0.47000000000E+01 0. -1.
         -5    1    3    3    0  501  0.34232840254E+01 -0.24163941565E+00  0.39574394965E+02  0.40000000000E+02  0.47000000000E+01 0.  1.
</event>
<event>
 5    1  0.4814700E-001  0.8000000E+02  0.7546771E-02  0.1203772E+00
         11   -1    0    0    0    0  0.00000000000E+00  0.00000000000E+00  0.40000000000E+02  0.40000000000E+02  0.00000000000E+00 0. -1.
        -11   -1    0    0    0    0 -0.00000000000E+00 -0.00000000000E+00 -0.40000000000E+02  0.40000000000E+02  0.00000000000E+00 0.  1.
         23    2    1    2    0    0  0.00000000000E+00  0.00000000000E+00  0.00000000000E+00  0.80000000000E+02  0.80000000000E+02 0.  0.
          5    1    3    3  501    0 -0.39519497597E+02 -0.32571832868E+01  0.23473531300E+01  0.40000000000E+02  0.47000000000E+01 0. -1.
         -5    1    3    3    0  501  0.39519497597E+02  0.32571832868E+01 -0.23473531300E+01  0.40000000000E+02  0.47000000000E+01 0.  1.
</event>
<event>
 5    1  0.4814700E-001  0.8000000E+02  0.7546771E-02  0.1203772E+00
         11   -1    0    0    0    0  0.00000000000E+00  0.00000000000E+00  0.40000000000E+02  0.40000000000E+02  0.00000000000E+00 0.  1.
        -11   -1    0    0    0    0 -0.00000000000E+00 -0.00000000000E+00 -0.40000000000E+02  0.40000000000E+02  0.00000000000E+00 0. -1.
         23    2    1    2    0    0  0.00000000000E+00  0.00000000000E+00  0.00000000000E+00  0.80000000000E+02  0.80000000000E+02 0.  0.
          5    1    3    3  501    0 -0.61100208964E+01 -0.34378898927E+02 -0.18938557316E+02  0.40000000000E+02  0.47000000000E+01 0. -1.
         -5    1    3    3    0  501  0.61100208964E+01  0.34378898927E+02  0.18938557316E+02  0.40000000000E+02  0.47000000000E+01 0.  1.
</event>
<event>
 5    1  0.4814700E-001  0.8000000E+02  0.7546771E-02  0.1203772E+00
         11   -1    0    0    0    0  0.00000000000E+00  0.00000000000E+00  0.40000000000E+02  0.40000000000E+02  0.00000000000E+00 0.  1.
        -11   -1    0    0    0    0 -0.00000000000E+00 -0.00000000000E+00 -0.40000000000E+02  0.40000000000E+02  0.00000000000E+00 0. -1.
         23    2    1    2    0    0  0.00000000000E+00  0.00000000000E+00  0.00000000000E+00  0.80000000000E+02  0.80000000000E+02 0.  0.
          5    1    3    3  501    0 -0.11000792304E+02  0.12544179833E+02 -0.36049079336E+02  0.40000000000E+02  0.47000000000E+01 0. -1.
         -5    1    3    3    0  501  0.11000792304E+02 -0.12544179833E+02  0.36049079336E+02  0.40000000000E+02  0.47000000000E+01 0.  1.
</event>
<event>
 5    1  0.4814700E-001  0.8000000E+02  0.7546771E-02  0.1203772E+00
         11   -1    0    0    0    0  0.00000000000E+00  0.00000000000E+00  0.40000000000E+02  0.40000000000E+02  0.00000000000E+00 0.  1.
        -11   -1    0    0    0    0 -0.00000000000E+00 -0.00000000000E+00 -0.40000000000E+02  0.40000000000E+02  0.00000000000E+00 0. -1.
         23    2    1    2    0    0  0.00000000000E+00  0.00000000000E+00  0.00000000000E+00  0.80000000000E+02  0.80000000000E+02 0.  0.
          5    1    3    3  501    0  0.12276120365E+02  0.21126389284E+02 -0.31319044439E+02  0.40000000000E+02  0.47000000000E+01 0. -1.
         -5    1    3    3    0  501 -0.12276120365E+02 -0.21126389284E+02  0.31319044439E+02  0.40000000000E+02  0.47000000000E+01 0.  1.
</event>
<event>
 5    1  0.4814700E-001  0.8000000E+02  0.7546771E-02  0.1203772E+00
         11   -1    0    0    0    0  0.00000000000E+00  0.00000000000E+00  0.40000000000E+02  0.40000000000E+02  0.00000000000E+00 0. -1.
        -11   -1    0    0    0    0 -0.00000000000E+00 -0.00000000000E+00 -0.40000000000E+02  0.40000000000E+02  0.00000000000E+00 0.  1.
         23    2    1    2    0    0  0.00000000000E+00  0.00000000000E+00  0.00000000000E+00  0.80000000000E+02  0.80000000000E+02 0.  0.
          5    1    3    3  501    0 -0.16048369081E+02 -0.12034651501E+02  0.34285959416E+02  0.40000000000E+02  0.47000000000E+01 0. -1.
         -5    1    3    3    0  501  0.16048369081E+02  0.12034651501E+02 -0.34285959416E+02  0.40000000000E+02  0.47000000000E+01 0.  1.
</event>
<event>
 5    1  0.4814700E-001  0.8000000E+02  0.7546771E-02  0.1203772E+00
         11   -1    0    0    0    0  0.00000000000E+00  0.00000000000E+00  0.40000000000E+02  0.40000000000E+02  0.00000000000E+00 0.  1.
        -11   -1    0    0    0    0 -0.00000000000E+00 -0.00000000000E+00 -0.40000000000E+02  0.40000000000E+02  0.00000000000E+00 0. -1.
         23    2    1    2    0    0  0.00000000000E+00  0.00000000000E+00  0.00000000000E+00  0.80000000000E+02  0.80000000000E+02 0.  0.
          5    1    3    3  501    0  0.24237766073E+02 -0.23154551928E+02 -0.21314488519E+02  0.40000000000E+02  0.47000000000E+01 0. -1.
         -5    1    3    3    0  501 -0.24237766073E+02  0.23154551928E+02  0.21314488519E+02  0.40000000000E+02  0.47000000000E+01 0.  1.
</event>
<event>
 5    1  0.4814700E-001  0.8000000E+02  0.7546771E-02  0.1203772E+00
         11   -1    0    0    0    0  0.00000000000E+00  0.00000000000E+00  0.40000000000E+02  0.40000000000E+02  0.00000000000E+00 0.  1.
        -11   -1    0    0    0    0 -0.00000000000E+00 -0.00000000000E+00 -0.40000000000E+02  0.40000000000E+02  0.00000000000E+00 0. -1.
         23    2    1    2    0    0  0.00000000000E+00  0.00000000000E+00  0.00000000000E+00  0.80000000000E+02  0.80000000000E+02 0.  0.
          5    1    3    3  501    0  0.13865024622E+02 -0.17092386229E+00 -0.37224210902E+02  0.40000000000E+02  0.47000000000E+01 0. -1.
         -5    1    3    3    0  501 -0.13865024622E+02  0.17092386229E+00  0.37224210902E+02  0.40000000000E+02  0.47000000000E+01 0.  1.
</event>
<event>
 5    1  0.4814700E-001  0.8000000E+02  0.7546771E-02  0.1203772E+00
         11   -1    0    0    0    0  0.00000000000E+00  0.00000000000E+00  0.40000000000E+02  0.40000000000E+02  0.00000000000E+00 0. -1.
        -11   -1    0    0    0    0 -0.00000000000E+00 -0.00000000000E+00 -0.40000000000E+02  0.40000000000E+02  0.00000000000E+00 0.  1.
         23    2    1    2    0    0  0.00000000000E+00  0.00000000000E+00  0.00000000000E+00  0.80000000000E+02  0.80000000000E+02 0.  0.
          5    1    3    3  501    0  0.14199247298E+02  0.19348572153E+02  0.31653185176E+02  0.40000000000E+02  0.47000000000E+01 0. -1.
         -5    1    3    3    0  501 -0.14199247298E+02 -0.19348572153E+02 -0.31653185176E+02  0.40000000000E+02  0.47000000000E+01 0.  1.
</event>
<event>
 5    1  0.4814700E-001  0.8000000E+02  0.7546771E-02  0.1203772E+00
         11   -1    0    0    0    0  0.00000000000E+00  0.00000000000E+00  0.40000000000E+02  0.40000000000E+02  0.00000000000E+00 0. -1.
        -11   -1    0    0    0    0 -0.00000000000E+00 -0.00000000000E+00 -0.40000000000E+02  0.40000000000E+02  0.00000000000E+00 0.  1.
         23    2    1    2    0    0  0.00000000000E+00  0.00000000000E+00  0.00000000000E+00  0.80000000000E+02  0.80000000000E+02 0.  0.
          5    1    3    3  501    0 -0.80269588782E+01  0.25659572274E+02  0.29241482211E+02  0.40000000000E+02  0.47000000000E+01 0. -1.
         -5    1    3    3    0  501  0.80269588782E+01 -0.25659572274E+02 -0.29241482211E+02  0.40000000000E+02  0.47000000000E+01 0.  1.
</event>
<event>
 5    1  0.4814700E-001  0.8000000E+02  0.7546771E-02  0.1203772E+00
         11   -1    0    0    0    0  0.00000000000E+00  0.00000000000E+00  0.40000000000E+02  0.40000000000E+02  0.00000000000E+00 0.  1.
        -11   -1    0    0    0    0 -0.00000000000E+00 -0.00000000000E+00 -0.40000000000E+02  0.40000000000E+02  0.00000000000E+00 0. -1.
         23    2    1    2    0    0  0.00000000000E+00  0.00000000000E+00  0.00000000000E+00  0.80000000000E+02  0.80000000000E+02 0.  0.
          5    1    3    3  501    0 -0.14352149668E+02  0.27874030073E+02 -0.24391888967E+02  0.40000000000E+02  0.47000000000E+01 0. -1.
         -5    1    3    3    0  501  0.14352149668E+02 -0.27874030073E+02  0.24391888967E+02  0.40000000000E+02  0.47000000000E+01 0.  1.
</event>
<event>
 5    1  0.4814700E-001  0.8000000E+02  0.7546771E-02  0.1203772E+00
         11   -1    0    0    0    0  0.00000000000E+00  0.00000000000E+00  0.40000000000E+02  0.40000000000E+02  0.00000000000E+00 0.  1.
        -11   -1    0    0    0    0 -0.00000000000E+00 -0.00000000000E+00 -0.40000000000E+02  0.40000000000E+02  0.00000000000E+00 0. -1.
         23    2    1    2    0    0  0.00000000000E+00  0.00000000000E+00  0.00000000000E+00  0.80000000000E+02  0.80000000000E+02 0.  0.
          5    1    3    3  501    0  0.32503856838E+02 -0.22812432047E+02  0.10011167563E+01  0.40000000000E+02  0.47000000000E+01 0. -1.
         -5    1    3    3    0  501 -0.32503856838E+02  0.22812432047E+02 -0.10011167563E+01  0.40000000000E+02  0.47000000000E+01 0.  1.
</event>
<event>
 5    1  0.4814700E-001  0.8000000E+02  0.7546771E-02  0.1203772E+00
         11   -1    0    0    0    0  0.00000000000E+00  0.00000000000E+00  0.40000000000E+02  0.40000000000E+02  0.00000000000E+00 0. -1.
        -11   -1    0    0    0    0 -0.00000000000E+00 -0.00000000000E+00 -0.40000000000E+02  0.40000000000E+02  0.00000000000E+00 0.  1.
         23    2    1    2    0    0  0.00000000000E+00  0.00000000000E+00  0.00000000000E+00  0.80000000000E+02  0.80000000000E+02 0.  0.
          5    1    3    3  501    0 -0.38793275249E+02  0.83226263141E+01 -0.19302037899E+01  0.40000000000E+02  0.47000000000E+01 0. -1.
         -5    1    3    3    0  501  0.38793275249E+02 -0.83226263141E+01  0.19302037899E+01  0.40000000000E+02  0.47000000000E+01 0.  1.
</event>
<event>
 5    1  0.4814700E-001  0.8000000E+02  0.7546771E-02  0.1203772E+00
         11   -1    0    0    0    0  0.00000000000E+00  0.00000000000E+00  0.40000000000E+02  0.40000000000E+02  0.00000000000E+00 0. -1.
        -11   -1    0    0    0    0 -0.00000000000E+00 -0.00000000000E+00 -0.40000000000E+02  0.40000000000E+02  0.00000000000E+00 0.  1.
         23    2    1    2    0    0  0.00000000000E+00  0.00000000000E+00  0.00000000000E+00  0.80000000000E+02  0.80000000000E+02 0.  0.
          5    1    3    3  501    0 -0.25047765045E+02  0.17364380597E+02  0.25475434299E+02  0.40000000000E+02  0.47000000000E+01 0. -1.
         -5    1    3    3    0  501  0.25047765045E+02 -0.17364380597E+02 -0.25475434299E+02  0.40000000000E+02  0.47000000000E+01 0.  1.
</event>
<event>
 5    1  0.4814700E-001  0.8000000E+02  0.7546771E-02  0.1203772E+00
         11   -1    0    0    0    0  0.00000000000E+00  0.00000000000E+00  0.40000000000E+02  0.40000000000E+02  0.00000000000E+00 0.  1.
        -11   -1    0    0    0    0 -0.00000000000E+00 -0.00000000000E+00 -0.40000000000E+02  0.40000000000E+02  0.00000000000E+00 0. -1.
         23    2    1    2    0    0  0.00000000000E+00  0.00000000000E+00  0.00000000000E+00  0.80000000000E+02  0.80000000000E+02 0.  0.
          5    1    3    3  501    0  0.23990623292E+02 -0.18448752786E+02  0.25729428962E+02  0.40000000000E+02  0.47000000000E+01 0. -1.
         -5    1    3    3    0  501 -0.23990623292E+02  0.18448752786E+02 -0.25729428962E+02  0.40000000000E+02  0.47000000000E+01 0.  1.
</event>
<event>
 5    1  0.4814700E-001  0.8000000E+02  0.7546771E-02  0.1203772E+00
         11   -1    0    0    0    0  0.00000000000E+00  0.00000000000E+00  0.40000000000E+02  0.40000000000E+02  0.00000000000E+00 0. -1.
        -11   -1    0    0    0    0 -0.00000000000E+00 -0.00000000000E+00 -0.40000000000E+02  0.40000000000E+02  0.00000000000E+00 0.  1.
         23    2    1    2    0    0  0.00000000000E+00  0.00000000000E+00  0.00000000000E+00  0.80000000000E+02  0.80000000000E+02 0.  0.
          5    1    3    3  501    0 -0.29032830736E+02 -0.15490040231E+02  0.22250020069E+02  0.40000000000E+02  0.47000000000E+01 0. -1.
         -5    1    3    3    0  501  0.29032830736E+02  0.15490040231E+02 -0.22250020069E+02  0.40000000000E+02  0.47000000000E+01 0.  1.
</event>
<event>
 5    1  0.4814700E-001  0.8000000E+02  0.7546771E-02  0.1203772E+00
         11   -1    0    0    0    0  0.00000000000E+00  0.00000000000E+00  0.40000000000E+02  0.40000000000E+02  0.00000000000E+00 0. -1.
        -11   -1    0    0    0    0 -0.00000000000E+00 -0.00000000000E+00 -0.40000000000E+02  0.40000000000E+02  0.00000000000E+00 0.  1.
         23    2    1    2    0    0  0.00000000000E+00  0.00000000000E+00  0.00000000000E+00  0.80000000000E+02  0.80000000000E+02 0.  0.
          5    1    3    3  501    0  0.69242658865E+01  0.31592850816E+02  0.23062010304E+02  0.40000000000E+02  0.47000000000E+01 0. -1.
         -5    1    3    3    0  501 -0.69242658865E+01 -0.31592850816E+02 -0.23062010304E+02  0.40000000000E+02  0.47000000000E+01 0.  1.
</event>
<event>
 5    1  0.4814700E-001  0.8000000E+02  0.7546771E-02  0.1203772E+00
         11   -1    0    0    0    0  0.00000000000E+00  0.00000000000E+00  0.40000000000E+02  0.40000000000E+02  0.00000000000E+00 0.  1.
        -11   -1    0    0    0    0 -0.00000000000E+00 -0.00000000000E+00 -0.40000000000E+02  0.40000000000E+02  0.00000000000E+00 0. -1.
         23    2    1    2    0    0  0.00000000000E+00  0.00000000000E+00  0.00000000000E+00  0.80000000000E+02  0.80000000000E+02 0.  0.
          5    1    3    3  501    0  0.15351351633E+02  0.27522996637E+02 -0.24181204667E+02  0.40000000000E+02  0.47000000000E+01 0. -1.
         -5    1    3    3    0  501 -0.15351351633E+02 -0.27522996637E+02  0.24181204667E+02  0.40000000000E+02  0.47000000000E+01 0.  1.
</event>
<event>
 5    1  0.4814700E-001  0.8000000E+02  0.7546771E-02  0.1203772E+00
         11   -1    0    0    0    0  0.00000000000E+00  0.00000000000E+00  0.40000000000E+02  0.40000000000E+02  0.00000000000E+00 0.  1.
        -11   -1    0    0    0    0 -0.00000000000E+00 -0.00000000000E+00 -0.40000000000E+02  0.40000000000E+02  0.00000000000E+00 0. -1.
         23    2    1    2    0    0  0.00000000000E+00  0.00000000000E+00  0.00000000000E+00  0.80000000000E+02  0.80000000000E+02 0.  0.
          5    1    3    3  501    0  0.66204199521E+00 -0.68274948095E+01 -0.39126167906E+02  0.40000000000E+02  0.47000000000E+01 0. -1.
         -5    1    3    3    0  501 -0.66204199521E+00  0.68274948095E+01  0.39126167906E+02  0.40000000000E+02  0.47000000000E+01 0.  1.
</event>
<event>
 5    1  0.4814700E-001  0.8000000E+02  0.7546771E-02  0.1203772E+00
         11   -1    0    0    0    0  0.00000000000E+00  0.00000000000E+00  0.40000000000E+02  0.40000000000E+02  0.00000000000E+00 0. -1.
        -11   -1    0    0    0    0 -0.00000000000E+00 -0.00000000000E+00 -0.40000000000E+02  0.40000000000E+02  0.00000000000E+00 0.  1.
         23    2    1    2    0    0  0.00000000000E+00  0.00000000000E+00  0.00000000000E+00  0.80000000000E+02  0.80000000000E+02 0.  0.
          5    1    3    3  501    0 -0.15485109214E+02 -0.32493177376E+02  0.16802226538E+02  0.40000000000E+02  0.47000000000E+01 0. -1.
         -5    1    3    3    0  501  0.15485109214E+02  0.32493177376E+02 -0.16802226538E+02  0.40000000000E+02  0.47000000000E+01 0.  1.
</event>
<event>
 5    1  0.4814700E-001  0.8000000E+02  0.7546771E-02  0.1203772E+00
         11   -1    0    0    0    0  0.00000000000E+00  0.00000000000E+00  0.40000000000E+02  0.40000000000E+02  0.00000000000E+00 0.  1.
        -11   -1    0    0    0    0 -0.00000000000E+00 -0.00000000000E+00 -0.40000000000E+02  0.40000000000E+02  0.00000000000E+00 0. -1.
         23    2    1    2    0    0  0.00000000000E+00  0.00000000000E+00  0.00000000000E+00  0.80000000000E+02  0.80000000000E+02 0.  0.
          5    1    3    3  501    0 -0.36160106162E+02 -0.16296574780E+02  0.21859489444E+01  0.40000000000E+02  0.47000000000E+01 0. -1.
         -5    1    3    3    0  501  0.36160106162E+02  0.16296574780E+02 -0.21859489444E+01  0.40000000000E+02  0.47000000000E+01 0.  1.
</event>
<event>
 5    1  0.4814700E-001  0.8000000E+02  0.7546771E-02  0.1203772E+00
         11   -1    0    0    0    0  0.00000000000E+00  0.00000000000E+00  0.40000000000E+02  0.40000000000E+02  0.00000000000E+00 0. -1.
        -11   -1    0    0    0    0 -0.00000000000E+00 -0.00000000000E+00 -0.40000000000E+02  0.40000000000E+02  0.00000000000E+00 0.  1.
         23    2    1    2    0    0  0.00000000000E+00  0.00000000000E+00  0.00000000000E+00  0.80000000000E+02  0.80000000000E+02 0.  0.
          5    1    3    3  501    0 -0.19971051287E+02 -0.96145011974E+01 -0.32964048253E+02  0.40000000000E+02  0.47000000000E+01 0.  1.
         -5    1    3    3    0  501  0.19971051287E+02  0.96145011974E+01  0.32964048253E+02  0.40000000000E+02  0.47000000000E+01 0. -1.
</event>
<event>
 5    1  0.4814700E-001  0.8000000E+02  0.7546771E-02  0.1203772E+00
         11   -1    0    0    0    0  0.00000000000E+00  0.00000000000E+00  0.40000000000E+02  0.40000000000E+02  0.00000000000E+00 0. -1.
        -11   -1    0    0    0    0 -0.00000000000E+00 -0.00000000000E+00 -0.40000000000E+02  0.40000000000E+02  0.00000000000E+00 0.  1.
         23    2    1    2    0    0  0.00000000000E+00  0.00000000000E+00  0.00000000000E+00  0.80000000000E+02  0.80000000000E+02 0.  0.
          5    1    3    3  501    0  0.17201981366E+02 -0.19350889251E+02  0.30125486258E+02  0.40000000000E+02  0.47000000000E+01 0. -1.
         -5    1    3    3    0  501 -0.17201981366E+02  0.19350889251E+02 -0.30125486258E+02  0.40000000000E+02  0.47000000000E+01 0.  1.
</event>
<event>
 5    1  0.4814700E-001  0.8000000E+02  0.7546771E-02  0.1203772E+00
         11   -1    0    0    0    0  0.00000000000E+00  0.00000000000E+00  0.40000000000E+02  0.40000000000E+02  0.00000000000E+00 0. -1.
        -11   -1    0    0    0    0 -0.00000000000E+00 -0.00000000000E+00 -0.40000000000E+02  0.40000000000E+02  0.00000000000E+00 0.  1.
         23    2    1    2    0    0  0.00000000000E+00  0.00000000000E+00  0.00000000000E+00  0.80000000000E+02  0.80000000000E+02 0.  0.
          5    1    3    3  501    0  0.15678422287E+02  0.36497099217E+02 -0.24253517363E+00  0.40000000000E+02  0.47000000000E+01 0. -1.
         -5    1    3    3    0  501 -0.15678422287E+02 -0.36497099217E+02  0.24253517363E+00  0.40000000000E+02  0.47000000000E+01 0.  1.
</event>
<event>
 5    1  0.4814700E-001  0.8000000E+02  0.7546771E-02  0.1203772E+00
         11   -1    0    0    0    0  0.00000000000E+00  0.00000000000E+00  0.40000000000E+02  0.40000000000E+02  0.00000000000E+00 0.  1.
        -11   -1    0    0    0    0 -0.00000000000E+00 -0.00000000000E+00 -0.40000000000E+02  0.40000000000E+02  0.00000000000E+00 0. -1.
         23    2    1    2    0    0  0.00000000000E+00  0.00000000000E+00  0.00000000000E+00  0.80000000000E+02  0.80000000000E+02 0.  0.
          5    1    3    3  501    0 -0.88037550862E+01  0.32653658860E+02 -0.20836085511E+02  0.40000000000E+02  0.47000000000E+01 0. -1.
         -5    1    3    3    0  501  0.88037550862E+01 -0.32653658860E+02  0.20836085511E+02  0.40000000000E+02  0.47000000000E+01 0.  1.
</event>
<event>
 5    1  0.4814700E-001  0.8000000E+02  0.7546771E-02  0.1203772E+00
         11   -1    0    0    0    0  0.00000000000E+00  0.00000000000E+00  0.40000000000E+02  0.40000000000E+02  0.00000000000E+00 0.  1.
        -11   -1    0    0    0    0 -0.00000000000E+00 -0.00000000000E+00 -0.40000000000E+02  0.40000000000E+02  0.00000000000E+00 0. -1.
         23    2    1    2    0    0  0.00000000000E+00  0.00000000000E+00  0.00000000000E+00  0.80000000000E+02  0.80000000000E+02 0.  0.
          5    1    3    3  501    0  0.30856697107E+02 -0.16939167482E+01 -0.24958062619E+02  0.40000000000E+02  0.47000000000E+01 0. -1.
         -5    1    3    3    0  501 -0.30856697107E+02  0.16939167482E+01  0.24958062619E+02  0.40000000000E+02  0.47000000000E+01 0.  1.
</event>
<event>
 5    1  0.4814700E-001  0.8000000E+02  0.7546771E-02  0.1203772E+00
         11   -1    0    0    0    0  0.00000000000E+00  0.00000000000E+00  0.40000000000E+02  0.40000000000E+02  0.00000000000E+00 0. -1.
        -11   -1    0    0    0    0 -0.00000000000E+00 -0.00000000000E+00 -0.40000000000E+02  0.40000000000E+02  0.00000000000E+00 0.  1.
         23    2    1    2    0    0  0.00000000000E+00  0.00000000000E+00  0.00000000000E+00  0.80000000000E+02  0.80000000000E+02 0.  0.
          5    1    3    3  501    0 -0.44550921988E+01  0.37806451554E+02  0.11346117150E+02  0.40000000000E+02  0.47000000000E+01 0. -1.
         -5    1    3    3    0  501  0.44550921988E+01 -0.37806451554E+02 -0.11346117150E+02  0.40000000000E+02  0.47000000000E+01 0.  1.
</event>
<event>
 5    1  0.4814700E-001  0.8000000E+02  0.7546771E-02  0.1203772E+00
         11   -1    0    0    0    0  0.00000000000E+00  0.00000000000E+00  0.40000000000E+02  0.40000000000E+02  0.00000000000E+00 0.  1.
        -11   -1    0    0    0    0 -0.00000000000E+00 -0.00000000000E+00 -0.40000000000E+02  0.40000000000E+02  0.00000000000E+00 0. -1.
         23    2    1    2    0    0  0.00000000000E+00  0.00000000000E+00  0.00000000000E+00  0.80000000000E+02  0.80000000000E+02 0.  0.
          5    1    3    3  501    0 -0.16485889815E+02  0.14605286452E+02 -0.33057692670E+02  0.40000000000E+02  0.47000000000E+01 0. -1.
         -5    1    3    3    0  501  0.16485889815E+02 -0.14605286452E+02  0.33057692670E+02  0.40000000000E+02  0.47000000000E+01 0.  1.
</event>
<event>
 5    1  0.4814700E-001  0.8000000E+02  0.7546771E-02  0.1203772E+00
         11   -1    0    0    0    0  0.00000000000E+00  0.00000000000E+00  0.40000000000E+02  0.40000000000E+02  0.00000000000E+00 0.  1.
        -11   -1    0    0    0    0 -0.00000000000E+00 -0.00000000000E+00 -0.40000000000E+02  0.40000000000E+02  0.00000000000E+00 0. -1.
         23    2    1    2    0    0  0.00000000000E+00  0.00000000000E+00  0.00000000000E+00  0.80000000000E+02  0.80000000000E+02 0.  0.
          5    1    3    3  501    0  0.99240617540E+01 -0.16436691301E+02 -0.34774389677E+02  0.40000000000E+02  0.47000000000E+01 0. -1.
         -5    1    3    3    0  501 -0.99240617540E+01  0.16436691301E+02  0.34774389677E+02  0.40000000000E+02  0.47000000000E+01 0.  1.
</event>
<event>
 5    1  0.4814700E-001  0.8000000E+02  0.7546771E-02  0.1203772E+00
         11   -1    0    0    0    0  0.00000000000E+00  0.00000000000E+00  0.40000000000E+02  0.40000000000E+02  0.00000000000E+00 0.  1.
        -11   -1    0    0    0    0 -0.00000000000E+00 -0.00000000000E+00 -0.40000000000E+02  0.40000000000E+02  0.00000000000E+00 0. -1.
         23    2    1    2    0    0  0.00000000000E+00  0.00000000000E+00  0.00000000000E+00  0.80000000000E+02  0.80000000000E+02 0.  0.
          5    1    3    3  501    0 -0.23573120607E+01 -0.27397567203E+02 -0.28665770375E+02  0.40000000000E+02  0.47000000000E+01 0. -1.
         -5    1    3    3    0  501  0.23573120607E+01  0.27397567203E+02  0.28665770375E+02  0.40000000000E+02  0.47000000000E+01 0.  1.
</event>
<event>
 5    1  0.4814700E-001  0.8000000E+02  0.7546771E-02  0.1203772E+00
         11   -1    0    0    0    0  0.00000000000E+00  0.00000000000E+00  0.40000000000E+02  0.40000000000E+02  0.00000000000E+00 0. -1.
        -11   -1    0    0    0    0 -0.00000000000E+00 -0.00000000000E+00 -0.40000000000E+02  0.40000000000E+02  0.00000000000E+00 0.  1.
         23    2    1    2    0    0  0.00000000000E+00  0.00000000000E+00  0.00000000000E+00  0.80000000000E+02  0.80000000000E+02 0.  0.
          5    1    3    3  501    0 -0.21605900527E+02  0.33279561666E+02 -0.18883425846E+01  0.40000000000E+02  0.47000000000E+01 0. -1.
         -5    1    3    3    0  501  0.21605900527E+02 -0.33279561666E+02  0.18883425846E+01  0.40000000000E+02  0.47000000000E+01 0.  1.
</event>
<event>
 5    1  0.4814700E-001  0.8000000E+02  0.7546771E-02  0.1203772E+00
         11   -1    0    0    0    0  0.00000000000E+00  0.00000000000E+00  0.40000000000E+02  0.40000000000E+02  0.00000000000E+00 0. -1.
        -11   -1    0    0    0    0 -0.00000000000E+00 -0.00000000000E+00 -0.40000000000E+02  0.40000000000E+02  0.00000000000E+00 0.  1.
         23    2    1    2    0    0  0.00000000000E+00  0.00000000000E+00  0.00000000000E+00  0.80000000000E+02  0.80000000000E+02 0.  0.
          5    1    3    3  501    0  0.80818104538E+01  0.53894347270E+00  0.38888351466E+02  0.40000000000E+02  0.47000000000E+01 0. -1.
         -5    1    3    3    0  501 -0.80818104538E+01 -0.53894347270E+00 -0.38888351466E+02  0.40000000000E+02  0.47000000000E+01 0.  1.
</event>
<event>
 5    1  0.4814700E-001  0.8000000E+02  0.7546771E-02  0.1203772E+00
         11   -1    0    0    0    0  0.00000000000E+00  0.00000000000E+00  0.40000000000E+02  0.40000000000E+02  0.00000000000E+00 0. -1.
        -11   -1    0    0    0    0 -0.00000000000E+00 -0.00000000000E+00 -0.40000000000E+02  0.40000000000E+02  0.00000000000E+00 0.  1.
         23    2    1    2    0    0  0.00000000000E+00  0.00000000000E+00  0.00000000000E+00  0.80000000000E+02  0.80000000000E+02 0.  0.
          5    1    3    3  501    0 -0.24794854600E+02  0.68465605731E+00  0.31026705134E+02  0.40000000000E+02  0.47000000000E+01 0. -1.
         -5    1    3    3    0  501  0.24794854600E+02 -0.68465605731E+00 -0.31026705134E+02  0.40000000000E+02  0.47000000000E+01 0.  1.
</event>
<event>
 5    1  0.4814700E-001  0.8000000E+02  0.7546771E-02  0.1203772E+00
         11   -1    0    0    0    0  0.00000000000E+00  0.00000000000E+00  0.40000000000E+02  0.40000000000E+02  0.00000000000E+00 0. -1.
        -11   -1    0    0    0    0 -0.00000000000E+00 -0.00000000000E+00 -0.40000000000E+02  0.40000000000E+02  0.00000000000E+00 0.  1.
         23    2    1    2    0    0  0.00000000000E+00  0.00000000000E+00  0.00000000000E+00  0.80000000000E+02  0.80000000000E+02 0.  0.
          5    1    3    3  501    0  0.14744789821E+02 -0.33591008338E+02  0.15236316220E+02  0.40000000000E+02  0.47000000000E+01 0. -1.
         -5    1    3    3    0  501 -0.14744789821E+02  0.33591008338E+02 -0.15236316220E+02  0.40000000000E+02  0.47000000000E+01 0.  1.
</event>
<event>
 5    1  0.4814700E-001  0.8000000E+02  0.7546771E-02  0.1203772E+00
         11   -1    0    0    0    0  0.00000000000E+00  0.00000000000E+00  0.40000000000E+02  0.40000000000E+02  0.00000000000E+00 0.  1.
        -11   -1    0    0    0    0 -0.00000000000E+00 -0.00000000000E+00 -0.40000000000E+02  0.40000000000E+02  0.00000000000E+00 0. -1.
         23    2    1    2    0    0  0.00000000000E+00  0.00000000000E+00  0.00000000000E+00  0.80000000000E+02  0.80000000000E+02 0.  0.
          5    1    3    3  501    0  0.26454982969E+02  0.11035798730E+02 -0.27500091318E+02  0.40000000000E+02  0.47000000000E+01 0. -1.
         -5    1    3    3    0  501 -0.26454982969E+02 -0.11035798730E+02  0.27500091318E+02  0.40000000000E+02  0.47000000000E+01 0.  1.
</event>
<event>
 5    1  0.4814700E-001  0.8000000E+02  0.7546771E-02  0.1203772E+00
         11   -1    0    0    0    0  0.00000000000E+00  0.00000000000E+00  0.40000000000E+02  0.40000000000E+02  0.00000000000E+00 0. -1.
        -11   -1    0    0    0    0 -0.00000000000E+00 -0.00000000000E+00 -0.40000000000E+02  0.40000000000E+02  0.00000000000E+00 0.  1.
         23    2    1    2    0    0  0.00000000000E+00  0.00000000000E+00  0.00000000000E+00  0.80000000000E+02  0.80000000000E+02 0.  0.
          5    1    3    3  501    0 -0.26378958270E+02 -0.22036660092E+02 -0.19910956094E+02  0.40000000000E+02  0.47000000000E+01 0. -1.
         -5    1    3    3    0  501  0.26378958270E+02  0.22036660092E+02  0.19910956094E+02  0.40000000000E+02  0.47000000000E+01 0.  1.
</event>
<event>
 5    1  0.4814700E-001  0.8000000E+02  0.7546771E-02  0.1203772E+00
         11   -1    0    0    0    0  0.00000000000E+00  0.00000000000E+00  0.40000000000E+02  0.40000000000E+02  0.00000000000E+00 0.  1.
        -11   -1    0    0    0    0 -0.00000000000E+00 -0.00000000000E+00 -0.40000000000E+02  0.40000000000E+02  0.00000000000E+00 0. -1.
         23    2    1    2    0    0  0.00000000000E+00  0.00000000000E+00  0.00000000000E+00  0.80000000000E+02  0.80000000000E+02 0.  0.
          5    1    3    3  501    0 -0.37507132277E+02  0.10160354853E+02 -0.82396733911E+01  0.40000000000E+02  0.47000000000E+01 0. -1.
         -5    1    3    3    0  501  0.37507132277E+02 -0.10160354853E+02  0.82396733911E+01  0.40000000000E+02  0.47000000000E+01 0.  1.
</event>
<event>
 5    1  0.4814700E-001  0.8000000E+02  0.7546771E-02  0.1203772E+00
         11   -1    0    0    0    0  0.00000000000E+00  0.00000000000E+00  0.40000000000E+02  0.40000000000E+02  0.00000000000E+00 0.  1.
        -11   -1    0    0    0    0 -0.00000000000E+00 -0.00000000000E+00 -0.40000000000E+02  0.40000000000E+02  0.00000000000E+00 0. -1.
         23    2    1    2    0    0  0.00000000000E+00  0.00000000000E+00  0.00000000000E+00  0.80000000000E+02  0.80000000000E+02 0.  0.
          5    1    3    3  501    0 -0.11442405862E+02  0.76671145739E+01 -0.37258511809E+02  0.40000000000E+02  0.47000000000E+01 0. -1.
         -5    1    3    3    0  501  0.11442405862E+02 -0.76671145739E+01  0.37258511809E+02  0.40000000000E+02  0.47000000000E+01 0.  1.
</event>
<event>
 5    1  0.4814700E-001  0.8000000E+02  0.7546771E-02  0.1203772E+00
         11   -1    0    0    0    0  0.00000000000E+00  0.00000000000E+00  0.40000000000E+02  0.40000000000E+02  0.00000000000E+00 0.  1.
        -11   -1    0    0    0    0 -0.00000000000E+00 -0.00000000000E+00 -0.40000000000E+02  0.40000000000E+02  0.00000000000E+00 0. -1.
         23    2    1    2    0    0  0.00000000000E+00  0.00000000000E+00  0.00000000000E+00  0.80000000000E+02  0.80000000000E+02 0.  0.
          5    1    3    3  501    0 -0.28208134398E+02  0.22911228398E+02 -0.16040161068E+02  0.40000000000E+02  0.47000000000E+01 0. -1.
         -5    1    3    3    0  501  0.28208134398E+02 -0.22911228398E+02  0.16040161068E+02  0.40000000000E+02  0.47000000000E+01 0.  1.
</event>
<event>
 5    1  0.4814700E-001  0.8000000E+02  0.7546771E-02  0.1203772E+00
         11   -1    0    0    0    0  0.00000000000E+00  0.00000000000E+00  0.40000000000E+02  0.40000000000E+02  0.00000000000E+00 0.  1.
        -11   -1    0    0    0    0 -0.00000000000E+00 -0.00000000000E+00 -0.40000000000E+02  0.40000000000E+02  0.00000000000E+00 0. -1.
         23    2    1    2    0    0  0.00000000000E+00  0.00000000000E+00  0.00000000000E+00  0.80000000000E+02  0.80000000000E+02 0.  0.
          5    1    3    3  501    0 -0.27195473405E+02 -0.10921142926E+02 -0.26815011904E+02  0.40000000000E+02  0.47000000000E+01 0. -1.
         -5    1    3    3    0  501  0.27195473405E+02  0.10921142926E+02  0.26815011904E+02  0.40000000000E+02  0.47000000000E+01 0.  1.
</event>
<event>
 5    1  0.4814700E-001  0.8000000E+02  0.7546771E-02  0.1203772E+00
         11   -1    0    0    0    0  0.00000000000E+00  0.00000000000E+00  0.40000000000E+02  0.40000000000E+02  0.00000000000E+00 0. -1.
        -11   -1    0    0    0    0 -0.00000000000E+00 -0.00000000000E+00 -0.40000000000E+02  0.40000000000E+02  0.00000000000E+00 0.  1.
         23    2    1    2    0    0  0.00000000000E+00  0.00000000000E+00  0.00000000000E+00  0.80000000000E+02  0.80000000000E+02 0.  0.
          5    1    3    3  501    0  0.10505009713E+02  0.22638831902E+02  0.30903690088E+02  0.40000000000E+02  0.47000000000E+01 0. -1.
         -5    1    3    3    0  501 -0.10505009713E+02 -0.22638831902E+02 -0.30903690088E+02  0.40000000000E+02  0.47000000000E+01 0.  1.
</event>
<event>
 5    1  0.4814700E-001  0.8000000E+02  0.7546771E-02  0.1203772E+00
         11   -1    0    0    0    0  0.00000000000E+00  0.00000000000E+00  0.40000000000E+02  0.40000000000E+02  0.00000000000E+00 0.  1.
        -11   -1    0    0    0    0 -0.00000000000E+00 -0.00000000000E+00 -0.40000000000E+02  0.40000000000E+02  0.00000000000E+00 0. -1.
         23    2    1    2    0    0  0.00000000000E+00  0.00000000000E+00  0.00000000000E+00  0.80000000000E+02  0.80000000000E+02 0.  0.
          5    1    3    3  501    0 -0.27973722584E+02 -0.12829043804E+02 -0.25115662043E+02  0.40000000000E+02  0.47000000000E+01 0. -1.
         -5    1    3    3    0  501  0.27973722584E+02  0.12829043804E+02  0.25115662043E+02  0.40000000000E+02  0.47000000000E+01 0.  1.
</event>
<event>
 5    1  0.4814700E-001  0.8000000E+02  0.7546771E-02  0.1203772E+00
         11   -1    0    0    0    0  0.00000000000E+00  0.00000000000E+00  0.40000000000E+02  0.40000000000E+02  0.00000000000E+00 0. -1.
        -11   -1    0    0    0    0 -0.00000000000E+00 -0.00000000000E+00 -0.40000000000E+02  0.40000000000E+02  0.00000000000E+00 0.  1.
         23    2    1    2    0    0  0.00000000000E+00  0.00000000000E+00  0.00000000000E+00  0.80000000000E+02  0.80000000000E+02 0.  0.
          5    1    3    3  501    0 -0.16527011131E+01  0.13391996347E+02  0.37360848664E+02  0.40000000000E+02  0.47000000000E+01 0. -1.
         -5    1    3    3    0  501  0.16527011131E+01 -0.13391996347E+02 -0.37360848664E+02  0.40000000000E+02  0.47000000000E+01 0.  1.
</event>
<event>
 5    1  0.4814700E-001  0.8000000E+02  0.7546771E-02  0.1203772E+00
         11   -1    0    0    0    0  0.00000000000E+00  0.00000000000E+00  0.40000000000E+02  0.40000000000E+02  0.00000000000E+00 0.  1.
        -11   -1    0    0    0    0 -0.00000000000E+00 -0.00000000000E+00 -0.40000000000E+02  0.40000000000E+02  0.00000000000E+00 0. -1.
         23    2    1    2    0    0  0.00000000000E+00  0.00000000000E+00  0.00000000000E+00  0.80000000000E+02  0.80000000000E+02 0.  0.
          5    1    3    3  501    0 -0.19041515237E+02 -0.30061298415E+02 -0.17653584200E+02  0.40000000000E+02  0.47000000000E+01 0. -1.
         -5    1    3    3    0  501  0.19041515237E+02  0.30061298415E+02  0.17653584200E+02  0.40000000000E+02  0.47000000000E+01 0.  1.
</event>
<event>
 5    1  0.4814700E-001  0.8000000E+02  0.7546771E-02  0.1203772E+00
         11   -1    0    0    0    0  0.00000000000E+00  0.00000000000E+00  0.40000000000E+02  0.40000000000E+02  0.00000000000E+00 0. -1.
        -11   -1    0    0    0    0 -0.00000000000E+00 -0.00000000000E+00 -0.40000000000E+02  0.40000000000E+02  0.00000000000E+00 0.  1.
         23    2    1    2    0    0  0.00000000000E+00  0.00000000000E+00  0.00000000000E+00  0.80000000000E+02  0.80000000000E+02 0.  0.
          5    1    3    3  501    0 -0.15293043642E+02 -0.34473163466E+02  0.12475328325E+02  0.40000000000E+02  0.47000000000E+01 0. -1.
         -5    1    3    3    0  501  0.15293043642E+02  0.34473163466E+02 -0.12475328325E+02  0.40000000000E+02  0.47000000000E+01 0.  1.
</event>
<event>
 5    1  0.4814700E-001  0.8000000E+02  0.7546771E-02  0.1203772E+00
         11   -1    0    0    0    0  0.00000000000E+00  0.00000000000E+00  0.40000000000E+02  0.40000000000E+02  0.00000000000E+00 0. -1.
        -11   -1    0    0    0    0 -0.00000000000E+00 -0.00000000000E+00 -0.40000000000E+02  0.40000000000E+02  0.00000000000E+00 0.  1.
         23    2    1    2    0    0  0.00000000000E+00  0.00000000000E+00  0.00000000000E+00  0.80000000000E+02  0.80000000000E+02 0.  0.
          5    1    3    3  501    0 -0.18184417593E+02  0.25633835865E+02  0.24292867588E+02  0.40000000000E+02  0.47000000000E+01 0. -1.
         -5    1    3    3    0  501  0.18184417593E+02 -0.25633835865E+02 -0.24292867588E+02  0.40000000000E+02  0.47000000000E+01 0.  1.
</event>
<event>
 5    1  0.4814700E-001  0.8000000E+02  0.7546771E-02  0.1203772E+00
         11   -1    0    0    0    0  0.00000000000E+00  0.00000000000E+00  0.40000000000E+02  0.40000000000E+02  0.00000000000E+00 0.  1.
        -11   -1    0    0    0    0 -0.00000000000E+00 -0.00000000000E+00 -0.40000000000E+02  0.40000000000E+02  0.00000000000E+00 0. -1.
         23    2    1    2    0    0  0.00000000000E+00  0.00000000000E+00  0.00000000000E+00  0.80000000000E+02  0.80000000000E+02 0.  0.
          5    1    3    3  501    0  0.24207998173E+02  0.27076855192E+02 -0.16084984841E+02  0.40000000000E+02  0.47000000000E+01 0. -1.
         -5    1    3    3    0  501 -0.24207998173E+02 -0.27076855192E+02  0.16084984841E+02  0.40000000000E+02  0.47000000000E+01 0.  1.
</event>
<event>
 5    1  0.4814700E-001  0.8000000E+02  0.7546771E-02  0.1203772E+00
         11   -1    0    0    0    0  0.00000000000E+00  0.00000000000E+00  0.40000000000E+02  0.40000000000E+02  0.00000000000E+00 0.  1.
        -11   -1    0    0    0    0 -0.00000000000E+00 -0.00000000000E+00 -0.40000000000E+02  0.40000000000E+02  0.00000000000E+00 0. -1.
         23    2    1    2    0    0  0.00000000000E+00  0.00000000000E+00  0.00000000000E+00  0.80000000000E+02  0.80000000000E+02 0.  0.
          5    1    3    3  501    0  0.18152868851E+02  0.33291174013E+02  0.11835585549E+02  0.40000000000E+02  0.47000000000E+01 0. -1.
         -5    1    3    3    0  501 -0.18152868851E+02 -0.33291174013E+02 -0.11835585549E+02  0.40000000000E+02  0.47000000000E+01 0.  1.
</event>
<event>
 5    1  0.4814700E-001  0.8000000E+02  0.7546771E-02  0.1203772E+00
         11   -1    0    0    0    0  0.00000000000E+00  0.00000000000E+00  0.40000000000E+02  0.40000000000E+02  0.00000000000E+00 0. -1.
        -11   -1    0    0    0    0 -0.00000000000E+00 -0.00000000000E+00 -0.40000000000E+02  0.40000000000E+02  0.00000000000E+00 0.  1.
         23    2    1    2    0    0  0.00000000000E+00  0.00000000000E+00  0.00000000000E+00  0.80000000000E+02  0.80000000000E+02 0.  0.
          5    1    3    3  501    0 -0.33770865656E+02  0.14156278196E+02  0.15396052107E+02  0.40000000000E+02  0.47000000000E+01 0. -1.
         -5    1    3    3    0  501  0.33770865656E+02 -0.14156278196E+02 -0.15396052107E+02  0.40000000000E+02  0.47000000000E+01 0.  1.
</event>
<event>
 5    1  0.4814700E-001  0.8000000E+02  0.7546771E-02  0.1203772E+00
         11   -1    0    0    0    0  0.00000000000E+00  0.00000000000E+00  0.40000000000E+02  0.40000000000E+02  0.00000000000E+00 0.  1.
        -11   -1    0    0    0    0 -0.00000000000E+00 -0.00000000000E+00 -0.40000000000E+02  0.40000000000E+02  0.00000000000E+00 0. -1.
         23    2    1    2    0    0  0.00000000000E+00  0.00000000000E+00  0.00000000000E+00  0.80000000000E+02  0.80000000000E+02 0.  0.
          5    1    3    3  501    0  0.21822857975E+02 -0.24904617717E+02 -0.21941578935E+02  0.40000000000E+02  0.47000000000E+01 0. -1.
         -5    1    3    3    0  501 -0.21822857975E+02  0.24904617717E+02  0.21941578935E+02  0.40000000000E+02  0.47000000000E+01 0.  1.
</event>
<event>
 5    1  0.4814700E-001  0.8000000E+02  0.7546771E-02  0.1203772E+00
         11   -1    0    0    0    0  0.00000000000E+00  0.00000000000E+00  0.40000000000E+02  0.40000000000E+02  0.00000000000E+00 0.  1.
        -11   -1    0    0    0    0 -0.00000000000E+00 -0.00000000000E+00 -0.40000000000E+02  0.40000000000E+02  0.00000000000E+00 0. -1.
         23    2    1    2    0    0  0.00000000000E+00  0.00000000000E+00  0.00000000000E+00  0.80000000000E+02  0.80000000000E+02 0.  0.
          5    1    3    3  501    0  0.23100491892E+02  0.21224365967E+02 -0.24368084940E+02  0.40000000000E+02  0.47000000000E+01 0. -1.
         -5    1    3    3    0  501 -0.23100491892E+02 -0.21224365967E+02  0.24368084940E+02  0.40000000000E+02  0.47000000000E+01 0.  1.
</event>
<event>
 5    1  0.4814700E-001  0.8000000E+02  0.7546771E-02  0.1203772E+00
         11   -1    0    0    0    0  0.00000000000E+00  0.00000000000E+00  0.40000000000E+02  0.40000000000E+02  0.00000000000E+00 0.  1.
        -11   -1    0    0    0    0 -0.00000000000E+00 -0.00000000000E+00 -0.40000000000E+02  0.40000000000E+02  0.00000000000E+00 0. -1.
         23    2    1    2    0    0  0.00000000000E+00  0.00000000000E+00  0.00000000000E+00  0.80000000000E+02  0.80000000000E+02 0.  0.
          5    1    3    3  501    0 -0.82341171699E+01 -0.19472605985E+02 -0.33629257063E+02  0.40000000000E+02  0.47000000000E+01 0. -1.
         -5    1    3    3    0  501  0.82341171699E+01  0.19472605985E+02  0.33629257063E+02  0.40000000000E+02  0.47000000000E+01 0.  1.
</event>
<event>
 5    1  0.4814700E-001  0.8000000E+02  0.7546771E-02  0.1203772E+00
         11   -1    0    0    0    0  0.00000000000E+00  0.00000000000E+00  0.40000000000E+02  0.40000000000E+02  0.00000000000E+00 0.  1.
        -11   -1    0    0    0    0 -0.00000000000E+00 -0.00000000000E+00 -0.40000000000E+02  0.40000000000E+02  0.00000000000E+00 0. -1.
         23    2    1    2    0    0  0.00000000000E+00  0.00000000000E+00  0.00000000000E+00  0.80000000000E+02  0.80000000000E+02 0.  0.
          5    1    3    3  501    0  0.19731064186E+02 -0.85816465328E+01 -0.33390873736E+02  0.40000000000E+02  0.47000000000E+01 0. -1.
         -5    1    3    3    0  501 -0.19731064186E+02  0.85816465328E+01  0.33390873736E+02  0.40000000000E+02  0.47000000000E+01 0.  1.
</event>
<event>
 5    1  0.4814700E-001  0.8000000E+02  0.7546771E-02  0.1203772E+00
         11   -1    0    0    0    0  0.00000000000E+00  0.00000000000E+00  0.40000000000E+02  0.40000000000E+02  0.00000000000E+00 0.  1.
        -11   -1    0    0    0    0 -0.00000000000E+00 -0.00000000000E+00 -0.40000000000E+02  0.40000000000E+02  0.00000000000E+00 0. -1.
         23    2    1    2    0    0  0.00000000000E+00  0.00000000000E+00  0.00000000000E+00  0.80000000000E+02  0.80000000000E+02 0.  0.
          5    1    3    3  501    0  0.25716907387E+02  0.21541652267E+02 -0.21272232889E+02  0.40000000000E+02  0.47000000000E+01 0. -1.
         -5    1    3    3    0  501 -0.25716907387E+02 -0.21541652267E+02  0.21272232889E+02  0.40000000000E+02  0.47000000000E+01 0.  1.
</event>
<event>
 5    1  0.4814700E-001  0.8000000E+02  0.7546771E-02  0.1203772E+00
         11   -1    0    0    0    0  0.00000000000E+00  0.00000000000E+00  0.40000000000E+02  0.40000000000E+02  0.00000000000E+00 0. -1.
        -11   -1    0    0    0    0 -0.00000000000E+00 -0.00000000000E+00 -0.40000000000E+02  0.40000000000E+02  0.00000000000E+00 0.  1.
         23    2    1    2    0    0  0.00000000000E+00  0.00000000000E+00  0.00000000000E+00  0.80000000000E+02  0.80000000000E+02 0.  0.
          5    1    3    3  501    0  0.31542824554E+02 -0.22437966255E+02 -0.89161588963E+01  0.40000000000E+02  0.47000000000E+01 0. -1.
         -5    1    3    3    0  501 -0.31542824554E+02  0.22437966255E+02  0.89161588963E+01  0.40000000000E+02  0.47000000000E+01 0.  1.
</event>
<event>
 5    1  0.4814700E-001  0.8000000E+02  0.7546771E-02  0.1203772E+00
         11   -1    0    0    0    0  0.00000000000E+00  0.00000000000E+00  0.40000000000E+02  0.40000000000E+02  0.00000000000E+00 0.  1.
        -11   -1    0    0    0    0 -0.00000000000E+00 -0.00000000000E+00 -0.40000000000E+02  0.40000000000E+02  0.00000000000E+00 0. -1.
         23    2    1    2    0    0  0.00000000000E+00  0.00000000000E+00  0.00000000000E+00  0.80000000000E+02  0.80000000000E+02 0.  0.
          5    1    3    3  501    0  0.18066412913E+01  0.32129774694E+02 -0.23287842866E+02  0.40000000000E+02  0.47000000000E+01 0. -1.
         -5    1    3    3    0  501 -0.18066412913E+01 -0.32129774694E+02  0.23287842866E+02  0.40000000000E+02  0.47000000000E+01 0.  1.
</event>
<event>
 5    1  0.4814700E-001  0.8000000E+02  0.7546771E-02  0.1203772E+00
         11   -1    0    0    0    0  0.00000000000E+00  0.00000000000E+00  0.40000000000E+02  0.40000000000E+02  0.00000000000E+00 0. -1.
        -11   -1    0    0    0    0 -0.00000000000E+00 -0.00000000000E+00 -0.40000000000E+02  0.40000000000E+02  0.00000000000E+00 0.  1.
         23    2    1    2    0    0  0.00000000000E+00  0.00000000000E+00  0.00000000000E+00  0.80000000000E+02  0.80000000000E+02 0.  0.
          5    1    3    3  501    0  0.26374768361E+02  0.19996111477E+01  0.29635842306E+02  0.40000000000E+02  0.47000000000E+01 0. -1.
         -5    1    3    3    0  501 -0.26374768361E+02 -0.19996111477E+01 -0.29635842306E+02  0.40000000000E+02  0.47000000000E+01 0.  1.
</event>
<event>
 5    1  0.4814700E-001  0.8000000E+02  0.7546771E-02  0.1203772E+00
         11   -1    0    0    0    0  0.00000000000E+00  0.00000000000E+00  0.40000000000E+02  0.40000000000E+02  0.00000000000E+00 0. -1.
        -11   -1    0    0    0    0 -0.00000000000E+00 -0.00000000000E+00 -0.40000000000E+02  0.40000000000E+02  0.00000000000E+00 0.  1.
         23    2    1    2    0    0  0.00000000000E+00  0.00000000000E+00  0.00000000000E+00  0.80000000000E+02  0.80000000000E+02 0.  0.
          5    1    3    3  501    0 -0.30890068458E+02  0.20911152078E+02  0.13654207754E+02  0.40000000000E+02  0.47000000000E+01 0. -1.
         -5    1    3    3    0  501  0.30890068458E+02 -0.20911152078E+02 -0.13654207754E+02  0.40000000000E+02  0.47000000000E+01 0.  1.
</event>
<event>
 5    1  0.4814700E-001  0.8000000E+02  0.7546771E-02  0.1203772E+00
         11   -1    0    0    0    0  0.00000000000E+00  0.00000000000E+00  0.40000000000E+02  0.40000000000E+02  0.00000000000E+00 0.  1.
        -11   -1    0    0    0    0 -0.00000000000E+00 -0.00000000000E+00 -0.40000000000E+02  0.40000000000E+02  0.00000000000E+00 0. -1.
         23    2    1    2    0    0  0.00000000000E+00  0.00000000000E+00  0.00000000000E+00  0.80000000000E+02  0.80000000000E+02 0.  0.
          5    1    3    3  501    0  0.23192335185E+02  0.24564205374E+02 -0.20895583336E+02  0.40000000000E+02  0.47000000000E+01 0. -1.
         -5    1    3    3    0  501 -0.23192335185E+02 -0.24564205374E+02  0.20895583336E+02  0.40000000000E+02  0.47000000000E+01 0.  1.
</event>
<event>
 5    1  0.4814700E-001  0.8000000E+02  0.7546771E-02  0.1203772E+00
         11   -1    0    0    0    0  0.00000000000E+00  0.00000000000E+00  0.40000000000E+02  0.40000000000E+02  0.00000000000E+00 0.  1.
        -11   -1    0    0    0    0 -0.00000000000E+00 -0.00000000000E+00 -0.40000000000E+02  0.40000000000E+02  0.00000000000E+00 0. -1.
         23    2    1    2    0    0  0.00000000000E+00  0.00000000000E+00  0.00000000000E+00  0.80000000000E+02  0.80000000000E+02 0.  0.
          5    1    3    3  501    0 -0.11595348113E+02  0.24090892449E+02 -0.29378339013E+02  0.40000000000E+02  0.47000000000E+01 0. -1.
         -5    1    3    3    0  501  0.11595348113E+02 -0.24090892449E+02  0.29378339013E+02  0.40000000000E+02  0.47000000000E+01 0.  1.
</event>
<event>
 5    1  0.4814700E-001  0.8000000E+02  0.7546771E-02  0.1203772E+00
         11   -1    0    0    0    0  0.00000000000E+00  0.00000000000E+00  0.40000000000E+02  0.40000000000E+02  0.00000000000E+00 0.  1.
        -11   -1    0    0    0    0 -0.00000000000E+00 -0.00000000000E+00 -0.40000000000E+02  0.40000000000E+02  0.00000000000E+00 0. -1.
         23    2    1    2    0    0  0.00000000000E+00  0.00000000000E+00  0.00000000000E+00  0.80000000000E+02  0.80000000000E+02 0.  0.
          5    1    3    3  501    0 -0.25472615019E+02 -0.50561758053E+01 -0.30058126527E+02  0.40000000000E+02  0.47000000000E+01 0. -1.
         -5    1    3    3    0  501  0.25472615019E+02  0.50561758053E+01  0.30058126527E+02  0.40000000000E+02  0.47000000000E+01 0.  1.
</event>
<event>
 5    1  0.4814700E-001  0.8000000E+02  0.7546771E-02  0.1203772E+00
         11   -1    0    0    0    0  0.00000000000E+00  0.00000000000E+00  0.40000000000E+02  0.40000000000E+02  0.00000000000E+00 0.  1.
        -11   -1    0    0    0    0 -0.00000000000E+00 -0.00000000000E+00 -0.40000000000E+02  0.40000000000E+02  0.00000000000E+00 0. -1.
         23    2    1    2    0    0  0.00000000000E+00  0.00000000000E+00  0.00000000000E+00  0.80000000000E+02  0.80000000000E+02 0.  0.
          5    1    3    3  501    0 -0.17402968052E+02  0.14134936139E+01 -0.35679808559E+02  0.40000000000E+02  0.47000000000E+01 0. -1.
         -5    1    3    3    0  501  0.17402968052E+02 -0.14134936139E+01  0.35679808559E+02  0.40000000000E+02  0.47000000000E+01 0.  1.
</event>
<event>
 5    1  0.4814700E-001  0.8000000E+02  0.7546771E-02  0.1203772E+00
         11   -1    0    0    0    0  0.00000000000E+00  0.00000000000E+00  0.40000000000E+02  0.40000000000E+02  0.00000000000E+00 0. -1.
        -11   -1    0    0    0    0 -0.00000000000E+00 -0.00000000000E+00 -0.40000000000E+02  0.40000000000E+02  0.00000000000E+00 0.  1.
         23    2    1    2    0    0  0.00000000000E+00  0.00000000000E+00  0.00000000000E+00  0.80000000000E+02  0.80000000000E+02 0.  0.
          5    1    3    3  501    0 -0.10624579302E+02 -0.38263619015E+02 -0.96113188524E+00  0.40000000000E+02  0.47000000000E+01 0. -1.
         -5    1    3    3    0  501  0.10624579302E+02  0.38263619015E+02  0.96113188524E+00  0.40000000000E+02  0.47000000000E+01 0.  1.
</event>
<event>
 5    1  0.4814700E-001  0.8000000E+02  0.7546771E-02  0.1203772E+00
         11   -1    0    0    0    0  0.00000000000E+00  0.00000000000E+00  0.40000000000E+02  0.40000000000E+02  0.00000000000E+00 0.  1.
        -11   -1    0    0    0    0 -0.00000000000E+00 -0.00000000000E+00 -0.40000000000E+02  0.40000000000E+02  0.00000000000E+00 0. -1.
         23    2    1    2    0    0  0.00000000000E+00  0.00000000000E+00  0.00000000000E+00  0.80000000000E+02  0.80000000000E+02 0.  0.
          5    1    3    3  501    0 -0.32840036686E+02 -0.19516523507E+02 -0.10887942904E+02  0.40000000000E+02  0.47000000000E+01 0. -1.
         -5    1    3    3    0  501  0.32840036686E+02  0.19516523507E+02  0.10887942904E+02  0.40000000000E+02  0.47000000000E+01 0.  1.
</event>
<event>
 5    1  0.4814700E-001  0.8000000E+02  0.7546771E-02  0.1203772E+00
         11   -1    0    0    0    0  0.00000000000E+00  0.00000000000E+00  0.40000000000E+02  0.40000000000E+02  0.00000000000E+00 0.  1.
        -11   -1    0    0    0    0 -0.00000000000E+00 -0.00000000000E+00 -0.40000000000E+02  0.40000000000E+02  0.00000000000E+00 0. -1.
         23    2    1    2    0    0  0.00000000000E+00  0.00000000000E+00  0.00000000000E+00  0.80000000000E+02  0.80000000000E+02 0.  0.
          5    1    3    3  501    0  0.36028545576E+02 -0.15539413958E+02 -0.61952011680E+01  0.40000000000E+02  0.47000000000E+01 0. -1.
         -5    1    3    3    0  501 -0.36028545576E+02  0.15539413958E+02  0.61952011680E+01  0.40000000000E+02  0.47000000000E+01 0.  1.
</event>
<event>
 5    1  0.4814700E-001  0.8000000E+02  0.7546771E-02  0.1203772E+00
         11   -1    0    0    0    0  0.00000000000E+00  0.00000000000E+00  0.40000000000E+02  0.40000000000E+02  0.00000000000E+00 0. -1.
        -11   -1    0    0    0    0 -0.00000000000E+00 -0.00000000000E+00 -0.40000000000E+02  0.40000000000E+02  0.00000000000E+00 0.  1.
         23    2    1    2    0    0  0.00000000000E+00  0.00000000000E+00  0.00000000000E+00  0.80000000000E+02  0.80000000000E+02 0.  0.
          5    1    3    3  501    0 -0.37522916282E+02  0.99402463734E+01 -0.84339940564E+01  0.40000000000E+02  0.47000000000E+01 0. -1.
         -5    1    3    3    0  501  0.37522916282E+02 -0.99402463734E+01  0.84339940564E+01  0.40000000000E+02  0.47000000000E+01 0.  1.
</event>
<event>
 5    1  0.4814700E-001  0.8000000E+02  0.7546771E-02  0.1203772E+00
         11   -1    0    0    0    0  0.00000000000E+00  0.00000000000E+00  0.40000000000E+02  0.40000000000E+02  0.00000000000E+00 0. -1.
        -11   -1    0    0    0    0 -0.00000000000E+00 -0.00000000000E+00 -0.40000000000E+02  0.40000000000E+02  0.00000000000E+00 0.  1.
         23    2    1    2    0    0  0.00000000000E+00  0.00000000000E+00  0.00000000000E+00  0.80000000000E+02  0.80000000000E+02 0.  0.
          5    1    3    3  501    0 -0.52143807889E+01  0.23004899882E+02  0.31960832505E+02  0.40000000000E+02  0.47000000000E+01 0. -1.
         -5    1    3    3    0  501  0.52143807889E+01 -0.23004899882E+02 -0.31960832505E+02  0.40000000000E+02  0.47000000000E+01 0.  1.
</event>
<event>
 5    1  0.4814700E-001  0.8000000E+02  0.7546771E-02  0.1203772E+00
         11   -1    0    0    0    0  0.00000000000E+00  0.00000000000E+00  0.40000000000E+02  0.40000000000E+02  0.00000000000E+00 0.  1.
        -11   -1    0    0    0    0 -0.00000000000E+00 -0.00000000000E+00 -0.40000000000E+02  0.40000000000E+02  0.00000000000E+00 0. -1.
         23    2    1    2    0    0  0.00000000000E+00  0.00000000000E+00  0.00000000000E+00  0.80000000000E+02  0.80000000000E+02 0.  0.
          5    1    3    3  501    0 -0.25609943072E+02  0.29086462427E+02  0.87188599774E+01  0.40000000000E+02  0.47000000000E+01 0. -1.
         -5    1    3    3    0  501  0.25609943072E+02 -0.29086462427E+02 -0.87188599774E+01  0.40000000000E+02  0.47000000000E+01 0.  1.
</event>
<event>
 5    1  0.4814700E-001  0.8000000E+02  0.7546771E-02  0.1203772E+00
         11   -1    0    0    0    0  0.00000000000E+00  0.00000000000E+00  0.40000000000E+02  0.40000000000E+02  0.00000000000E+00 0.  1.
        -11   -1    0    0    0    0 -0.00000000000E+00 -0.00000000000E+00 -0.40000000000E+02  0.40000000000E+02  0.00000000000E+00 0. -1.
         23    2    1    2    0    0  0.00000000000E+00  0.00000000000E+00  0.00000000000E+00  0.80000000000E+02  0.80000000000E+02 0.  0.
          5    1    3    3  501    0  0.34226585351E+02  0.97335411566E+01 -0.17655283395E+02  0.40000000000E+02  0.47000000000E+01 0. -1.
         -5    1    3    3    0  501 -0.34226585351E+02 -0.97335411566E+01  0.17655283395E+02  0.40000000000E+02  0.47000000000E+01 0.  1.
</event>
<event>
 5    1  0.4814700E-001  0.8000000E+02  0.7546771E-02  0.1203772E+00
         11   -1    0    0    0    0  0.00000000000E+00  0.00000000000E+00  0.40000000000E+02  0.40000000000E+02  0.00000000000E+00 0.  1.
        -11   -1    0    0    0    0 -0.00000000000E+00 -0.00000000000E+00 -0.40000000000E+02  0.40000000000E+02  0.00000000000E+00 0. -1.
         23    2    1    2    0    0  0.00000000000E+00  0.00000000000E+00  0.00000000000E+00  0.80000000000E+02  0.80000000000E+02 0.  0.
          5    1    3    3  501    0 -0.82551397986E+01  0.24310871955E+02 -0.30310792990E+02  0.40000000000E+02  0.47000000000E+01 0. -1.
         -5    1    3    3    0  501  0.82551397986E+01 -0.24310871955E+02  0.30310792990E+02  0.40000000000E+02  0.47000000000E+01 0.  1.
</event>
<event>
 5    1  0.4814700E-001  0.8000000E+02  0.7546771E-02  0.1203772E+00
         11   -1    0    0    0    0  0.00000000000E+00  0.00000000000E+00  0.40000000000E+02  0.40000000000E+02  0.00000000000E+00 0. -1.
        -11   -1    0    0    0    0 -0.00000000000E+00 -0.00000000000E+00 -0.40000000000E+02  0.40000000000E+02  0.00000000000E+00 0.  1.
         23    2    1    2    0    0  0.00000000000E+00  0.00000000000E+00  0.00000000000E+00  0.80000000000E+02  0.80000000000E+02 0.  0.
          5    1    3    3  501    0 -0.12078766509E+01  0.29139514298E+02  0.26969236928E+02  0.40000000000E+02  0.47000000000E+01 0. -1.
         -5    1    3    3    0  501  0.12078766509E+01 -0.29139514298E+02 -0.26969236928E+02  0.40000000000E+02  0.47000000000E+01 0.  1.
</event>
<event>
 5    1  0.4814700E-001  0.8000000E+02  0.7546771E-02  0.1203772E+00
         11   -1    0    0    0    0  0.00000000000E+00  0.00000000000E+00  0.40000000000E+02  0.40000000000E+02  0.00000000000E+00 0. -1.
        -11   -1    0    0    0    0 -0.00000000000E+00 -0.00000000000E+00 -0.40000000000E+02  0.40000000000E+02  0.00000000000E+00 0.  1.
         23    2    1    2    0    0  0.00000000000E+00  0.00000000000E+00  0.00000000000E+00  0.80000000000E+02  0.80000000000E+02 0.  0.
          5    1    3    3  501    0 -0.34010605208E+02  0.20094211875E+02  0.41726948744E+01  0.40000000000E+02  0.47000000000E+01 0. -1.
         -5    1    3    3    0  501  0.34010605208E+02 -0.20094211875E+02 -0.41726948744E+01  0.40000000000E+02  0.47000000000E+01 0.  1.
</event>
<event>
 5    1  0.4814700E-001  0.8000000E+02  0.7546771E-02  0.1203772E+00
         11   -1    0    0    0    0  0.00000000000E+00  0.00000000000E+00  0.40000000000E+02  0.40000000000E+02  0.00000000000E+00 0.  1.
        -11   -1    0    0    0    0 -0.00000000000E+00 -0.00000000000E+00 -0.40000000000E+02  0.40000000000E+02  0.00000000000E+00 0. -1.
         23    2    1    2    0    0  0.00000000000E+00  0.00000000000E+00  0.00000000000E+00  0.80000000000E+02  0.80000000000E+02 0.  0.
          5    1    3    3  501    0 -0.79372300276E+00  0.10879706469E+02 -0.38195706446E+02  0.40000000000E+02  0.47000000000E+01 0. -1.
         -5    1    3    3    0  501  0.79372300276E+00 -0.10879706469E+02  0.38195706446E+02  0.40000000000E+02  0.47000000000E+01 0.  1.
</event>
<event>
 5    1  0.4814700E-001  0.8000000E+02  0.7546771E-02  0.1203772E+00
         11   -1    0    0    0    0  0.00000000000E+00  0.00000000000E+00  0.40000000000E+02  0.40000000000E+02  0.00000000000E+00 0. -1.
        -11   -1    0    0    0    0 -0.00000000000E+00 -0.00000000000E+00 -0.40000000000E+02  0.40000000000E+02  0.00000000000E+00 0.  1.
         23    2    1    2    0    0  0.00000000000E+00  0.00000000000E+00  0.00000000000E+00  0.80000000000E+02  0.80000000000E+02 0.  0.
          5    1    3    3  501    0  0.18280181032E+02 -0.33030064799E+02  0.12359603587E+02  0.40000000000E+02  0.47000000000E+01 0. -1.
         -5    1    3    3    0  501 -0.18280181032E+02  0.33030064799E+02 -0.12359603587E+02  0.40000000000E+02  0.47000000000E+01 0.  1.
</event>
<event>
 5    1  0.4814700E-001  0.8000000E+02  0.7546771E-02  0.1203772E+00
         11   -1    0    0    0    0  0.00000000000E+00  0.00000000000E+00  0.40000000000E+02  0.40000000000E+02  0.00000000000E+00 0. -1.
        -11   -1    0    0    0    0 -0.00000000000E+00 -0.00000000000E+00 -0.40000000000E+02  0.40000000000E+02  0.00000000000E+00 0.  1.
         23    2    1    2    0    0  0.00000000000E+00  0.00000000000E+00  0.00000000000E+00  0.80000000000E+02  0.80000000000E+02 0.  0.
          5    1    3    3  501    0  0.20702413875E+02 -0.21401908189E+02  0.26292173467E+02  0.40000000000E+02  0.47000000000E+01 0. -1.
         -5    1    3    3    0  501 -0.20702413875E+02  0.21401908189E+02 -0.26292173467E+02  0.40000000000E+02  0.47000000000E+01 0.  1.
</event>
<event>
 5    1  0.4814700E-001  0.8000000E+02  0.7546771E-02  0.1203772E+00
         11   -1    0    0    0    0  0.00000000000E+00  0.00000000000E+00  0.40000000000E+02  0.40000000000E+02  0.00000000000E+00 0. -1.
        -11   -1    0    0    0    0 -0.00000000000E+00 -0.00000000000E+00 -0.40000000000E+02  0.40000000000E+02  0.00000000000E+00 0.  1.
         23    2    1    2    0    0  0.00000000000E+00  0.00000000000E+00  0.00000000000E+00  0.80000000000E+02  0.80000000000E+02 0.  0.
          5    1    3    3  501    0  0.33276770910E+02  0.18618897287E+02  0.11131180604E+02  0.40000000000E+02  0.47000000000E+01 0. -1.
         -5    1    3    3    0  501 -0.33276770910E+02 -0.18618897287E+02 -0.11131180604E+02  0.40000000000E+02  0.47000000000E+01 0.  1.
</event>
<event>
 5    1  0.4814700E-001  0.8000000E+02  0.7546771E-02  0.1203772E+00
         11   -1    0    0    0    0  0.00000000000E+00  0.00000000000E+00  0.40000000000E+02  0.40000000000E+02  0.00000000000E+00 0. -1.
        -11   -1    0    0    0    0 -0.00000000000E+00 -0.00000000000E+00 -0.40000000000E+02  0.40000000000E+02  0.00000000000E+00 0.  1.
         23    2    1    2    0    0  0.00000000000E+00  0.00000000000E+00  0.00000000000E+00  0.80000000000E+02  0.80000000000E+02 0.  0.
          5    1    3    3  501    0  0.31814535611E+02 -0.17670901144E+02  0.15921198970E+02  0.40000000000E+02  0.47000000000E+01 0. -1.
         -5    1    3    3    0  501 -0.31814535611E+02  0.17670901144E+02 -0.15921198970E+02  0.40000000000E+02  0.47000000000E+01 0.  1.
</event>
<event>
 5    1  0.4814700E-001  0.8000000E+02  0.7546771E-02  0.1203772E+00
         11   -1    0    0    0    0  0.00000000000E+00  0.00000000000E+00  0.40000000000E+02  0.40000000000E+02  0.00000000000E+00 0.  1.
        -11   -1    0    0    0    0 -0.00000000000E+00 -0.00000000000E+00 -0.40000000000E+02  0.40000000000E+02  0.00000000000E+00 0. -1.
         23    2    1    2    0    0  0.00000000000E+00  0.00000000000E+00  0.00000000000E+00  0.80000000000E+02  0.80000000000E+02 0.  0.
          5    1    3    3  501    0 -0.37143992085E+01  0.38562701590E+02  0.87767468137E+01  0.40000000000E+02  0.47000000000E+01 0. -1.
         -5    1    3    3    0  501  0.37143992085E+01 -0.38562701590E+02 -0.87767468137E+01  0.40000000000E+02  0.47000000000E+01 0.  1.
</event>
<event>
 5    1  0.4814700E-001  0.8000000E+02  0.7546771E-02  0.1203772E+00
         11   -1    0    0    0    0  0.00000000000E+00  0.00000000000E+00  0.40000000000E+02  0.40000000000E+02  0.00000000000E+00 0.  1.
        -11   -1    0    0    0    0 -0.00000000000E+00 -0.00000000000E+00 -0.40000000000E+02  0.40000000000E+02  0.00000000000E+00 0. -1.
         23    2    1    2    0    0  0.00000000000E+00  0.00000000000E+00  0.00000000000E+00  0.80000000000E+02  0.80000000000E+02 0.  0.
          5    1    3    3  501    0 -0.19772246189E+02  0.25336291171E+02 -0.23346105250E+02  0.40000000000E+02  0.47000000000E+01 0. -1.
         -5    1    3    3    0  501  0.19772246189E+02 -0.25336291171E+02  0.23346105250E+02  0.40000000000E+02  0.47000000000E+01 0.  1.
</event>
<event>
 5    1  0.4814700E-001  0.8000000E+02  0.7546771E-02  0.1203772E+00
         11   -1    0    0    0    0  0.00000000000E+00  0.00000000000E+00  0.40000000000E+02  0.40000000000E+02  0.00000000000E+00 0. -1.
        -11   -1    0    0    0    0 -0.00000000000E+00 -0.00000000000E+00 -0.40000000000E+02  0.40000000000E+02  0.00000000000E+00 0.  1.
         23    2    1    2    0    0  0.00000000000E+00  0.00000000000E+00  0.00000000000E+00  0.80000000000E+02  0.80000000000E+02 0.  0.
          5    1    3    3  501    0 -0.22869592380E+02  0.29713018810E+02 -0.13115954314E+02  0.40000000000E+02  0.47000000000E+01 0. -1.
         -5    1    3    3    0  501  0.22869592380E+02 -0.29713018810E+02  0.13115954314E+02  0.40000000000E+02  0.47000000000E+01 0.  1.
</event>
<event>
 5    1  0.4814700E-001  0.8000000E+02  0.7546771E-02  0.1203772E+00
         11   -1    0    0    0    0  0.00000000000E+00  0.00000000000E+00  0.40000000000E+02  0.40000000000E+02  0.00000000000E+00 0.  1.
        -11   -1    0    0    0    0 -0.00000000000E+00 -0.00000000000E+00 -0.40000000000E+02  0.40000000000E+02  0.00000000000E+00 0. -1.
         23    2    1    2    0    0  0.00000000000E+00  0.00000000000E+00  0.00000000000E+00  0.80000000000E+02  0.80000000000E+02 0.  0.
          5    1    3    3  501    0 -0.22081892134E+02 -0.12630416018E+02 -0.30508566518E+02  0.40000000000E+02  0.47000000000E+01 0. -1.
         -5    1    3    3    0  501  0.22081892134E+02  0.12630416018E+02  0.30508566518E+02  0.40000000000E+02  0.47000000000E+01 0.  1.
</event>
<event>
 5    1  0.4814700E-001  0.8000000E+02  0.7546771E-02  0.1203772E+00
         11   -1    0    0    0    0  0.00000000000E+00  0.00000000000E+00  0.40000000000E+02  0.40000000000E+02  0.00000000000E+00 0.  1.
        -11   -1    0    0    0    0 -0.00000000000E+00 -0.00000000000E+00 -0.40000000000E+02  0.40000000000E+02  0.00000000000E+00 0. -1.
         23    2    1    2    0    0  0.00000000000E+00  0.00000000000E+00  0.00000000000E+00  0.80000000000E+02  0.80000000000E+02 0.  0.
          5    1    3    3  501    0 -0.80009885009E+01  0.38033750910E+02 -0.82053625608E+01  0.40000000000E+02  0.47000000000E+01 0. -1.
         -5    1    3    3    0  501  0.80009885009E+01 -0.38033750910E+02  0.82053625608E+01  0.40000000000E+02  0.47000000000E+01 0.  1.
</event>
<event>
 5    1  0.4814700E-001  0.8000000E+02  0.7546771E-02  0.1203772E+00
         11   -1    0    0    0    0  0.00000000000E+00  0.00000000000E+00  0.40000000000E+02  0.40000000000E+02  0.00000000000E+00 0.  1.
        -11   -1    0    0    0    0 -0.00000000000E+00 -0.00000000000E+00 -0.40000000000E+02  0.40000000000E+02  0.00000000000E+00 0. -1.
         23    2    1    2    0    0  0.00000000000E+00  0.00000000000E+00  0.00000000000E+00  0.80000000000E+02  0.80000000000E+02 0.  0.
          5    1    3    3  501    0 -0.36436186083E+01  0.18732348549E+02  0.34838673357E+02  0.40000000000E+02  0.47000000000E+01 0. -1.
         -5    1    3    3    0  501  0.36436186083E+01 -0.18732348549E+02 -0.34838673357E+02  0.40000000000E+02  0.47000000000E+01 0.  1.
</event>
<event>
 5    1  0.4814700E-001  0.8000000E+02  0.7546771E-02  0.1203772E+00
         11   -1    0    0    0    0  0.00000000000E+00  0.00000000000E+00  0.40000000000E+02  0.40000000000E+02  0.00000000000E+00 0.  1.
        -11   -1    0    0    0    0 -0.00000000000E+00 -0.00000000000E+00 -0.40000000000E+02  0.40000000000E+02  0.00000000000E+00 0. -1.
         23    2    1    2    0    0  0.00000000000E+00  0.00000000000E+00  0.00000000000E+00  0.80000000000E+02  0.80000000000E+02 0.  0.
          5    1    3    3  501    0 -0.22413089832E+02  0.14422340954E+02 -0.29454362760E+02  0.40000000000E+02  0.47000000000E+01 0. -1.
         -5    1    3    3    0  501  0.22413089832E+02 -0.14422340954E+02  0.29454362760E+02  0.40000000000E+02  0.47000000000E+01 0.  1.
</event>
<event>
 5    1  0.4814700E-001  0.8000000E+02  0.7546771E-02  0.1203772E+00
         11   -1    0    0    0    0  0.00000000000E+00  0.00000000000E+00  0.40000000000E+02  0.40000000000E+02  0.00000000000E+00 0.  1.
        -11   -1    0    0    0    0 -0.00000000000E+00 -0.00000000000E+00 -0.40000000000E+02  0.40000000000E+02  0.00000000000E+00 0. -1.
         23    2    1    2    0    0  0.00000000000E+00  0.00000000000E+00  0.00000000000E+00  0.80000000000E+02  0.80000000000E+02 0.  0.
          5    1    3    3  501    0  0.36989835873E+02  0.72901868319E+01 -0.12510604224E+02  0.40000000000E+02  0.47000000000E+01 0. -1.
         -5    1    3    3    0  501 -0.36989835873E+02 -0.72901868319E+01  0.12510604224E+02  0.40000000000E+02  0.47000000000E+01 0.  1.
</event>
<event>
 5    1  0.4814700E-001  0.8000000E+02  0.7546771E-02  0.1203772E+00
         11   -1    0    0    0    0  0.00000000000E+00  0.00000000000E+00  0.40000000000E+02  0.40000000000E+02  0.00000000000E+00 0. -1.
        -11   -1    0    0    0    0 -0.00000000000E+00 -0.00000000000E+00 -0.40000000000E+02  0.40000000000E+02  0.00000000000E+00 0.  1.
         23    2    1    2    0    0  0.00000000000E+00  0.00000000000E+00  0.00000000000E+00  0.80000000000E+02  0.80000000000E+02 0.  0.
          5    1    3    3  501    0  0.13813483121E+02 -0.25299084640E+02  0.27332288606E+02  0.40000000000E+02  0.47000000000E+01 0. -1.
         -5    1    3    3    0  501 -0.13813483121E+02  0.25299084640E+02 -0.27332288606E+02  0.40000000000E+02  0.47000000000E+01 0.  1.
</event>
<event>
 5    1  0.4814700E-001  0.8000000E+02  0.7546771E-02  0.1203772E+00
         11   -1    0    0    0    0  0.00000000000E+00  0.00000000000E+00  0.40000000000E+02  0.40000000000E+02  0.00000000000E+00 0. -1.
        -11   -1    0    0    0    0 -0.00000000000E+00 -0.00000000000E+00 -0.40000000000E+02  0.40000000000E+02  0.00000000000E+00 0.  1.
         23    2    1    2    0    0  0.00000000000E+00  0.00000000000E+00  0.00000000000E+00  0.80000000000E+02  0.80000000000E+02 0.  0.
          5    1    3    3  501    0  0.16807948570E+02 -0.35826279951E+02  0.34468144327E+01  0.40000000000E+02  0.47000000000E+01 0. -1.
         -5    1    3    3    0  501 -0.16807948570E+02  0.35826279951E+02 -0.34468144327E+01  0.40000000000E+02  0.47000000000E+01 0.  1.
</event>
<event>
 5    1  0.4814700E-001  0.8000000E+02  0.7546771E-02  0.1203772E+00
         11   -1    0    0    0    0  0.00000000000E+00  0.00000000000E+00  0.40000000000E+02  0.40000000000E+02  0.00000000000E+00 0. -1.
        -11   -1    0    0    0    0 -0.00000000000E+00 -0.00000000000E+00 -0.40000000000E+02  0.40000000000E+02  0.00000000000E+00 0.  1.
         23    2    1    2    0    0  0.00000000000E+00  0.00000000000E+00  0.00000000000E+00  0.80000000000E+02  0.80000000000E+02 0.  0.
          5    1    3    3  501    0 -0.21828821884E+02  0.82005273847E+01  0.32158418583E+02  0.40000000000E+02  0.47000000000E+01 0. -1.
         -5    1    3    3    0  501  0.21828821884E+02 -0.82005273847E+01 -0.32158418583E+02  0.40000000000E+02  0.47000000000E+01 0.  1.
</event>
<event>
 5    1  0.4814700E-001  0.8000000E+02  0.7546771E-02  0.1203772E+00
         11   -1    0    0    0    0  0.00000000000E+00  0.00000000000E+00  0.40000000000E+02  0.40000000000E+02  0.00000000000E+00 0.  1.
        -11   -1    0    0    0    0 -0.00000000000E+00 -0.00000000000E+00 -0.40000000000E+02  0.40000000000E+02  0.00000000000E+00 0. -1.
         23    2    1    2    0    0  0.00000000000E+00  0.00000000000E+00  0.00000000000E+00  0.80000000000E+02  0.80000000000E+02 0.  0.
          5    1    3    3  501    0  0.30689023731E+02 -0.24737235360E+02 -0.49155883885E+01  0.40000000000E+02  0.47000000000E+01 0. -1.
         -5    1    3    3    0  501 -0.30689023731E+02  0.24737235360E+02  0.49155883885E+01  0.40000000000E+02  0.47000000000E+01 0.  1.
</event>
<event>
 5    1  0.4814700E-001  0.8000000E+02  0.7546771E-02  0.1203772E+00
         11   -1    0    0    0    0  0.00000000000E+00  0.00000000000E+00  0.40000000000E+02  0.40000000000E+02  0.00000000000E+00 0.  1.
        -11   -1    0    0    0    0 -0.00000000000E+00 -0.00000000000E+00 -0.40000000000E+02  0.40000000000E+02  0.00000000000E+00 0. -1.
         23    2    1    2    0    0  0.00000000000E+00  0.00000000000E+00  0.00000000000E+00  0.80000000000E+02  0.80000000000E+02 0.  0.
          5    1    3    3  501    0  0.62298031398E+01  0.39149687914E+02  0.25301164134E+01  0.40000000000E+02  0.47000000000E+01 0. -1.
         -5    1    3    3    0  501 -0.62298031398E+01 -0.39149687914E+02 -0.25301164134E+01  0.40000000000E+02  0.47000000000E+01 0.  1.
</event>
<event>
 5    1  0.4814700E-001  0.8000000E+02  0.7546771E-02  0.1203772E+00
         11   -1    0    0    0    0  0.00000000000E+00  0.00000000000E+00  0.40000000000E+02  0.40000000000E+02  0.00000000000E+00 0. -1.
        -11   -1    0    0    0    0 -0.00000000000E+00 -0.00000000000E+00 -0.40000000000E+02  0.40000000000E+02  0.00000000000E+00 0.  1.
         23    2    1    2    0    0  0.00000000000E+00  0.00000000000E+00  0.00000000000E+00  0.80000000000E+02  0.80000000000E+02 0.  0.
          5    1    3    3  501    0  0.14476629911E+02 -0.36875206417E+02 -0.29251218933E+01  0.40000000000E+02  0.47000000000E+01 0. -1.
         -5    1    3    3    0  501 -0.14476629911E+02  0.36875206417E+02  0.29251218933E+01  0.40000000000E+02  0.47000000000E+01 0.  1.
</event>
<event>
 5    1  0.4814700E-001  0.8000000E+02  0.7546771E-02  0.1203772E+00
         11   -1    0    0    0    0  0.00000000000E+00  0.00000000000E+00  0.40000000000E+02  0.40000000000E+02  0.00000000000E+00 0. -1.
        -11   -1    0    0    0    0 -0.00000000000E+00 -0.00000000000E+00 -0.40000000000E+02  0.40000000000E+02  0.00000000000E+00 0.  1.
         23    2    1    2    0    0  0.00000000000E+00  0.00000000000E+00  0.00000000000E+00  0.80000000000E+02  0.80000000000E+02 0.  0.
          5    1    3    3  501    0  0.30766897591E+02  0.20778716939E+02 -0.14126320646E+02  0.40000000000E+02  0.47000000000E+01 0. -1.
         -5    1    3    3    0  501 -0.30766897591E+02 -0.20778716939E+02  0.14126320646E+02  0.40000000000E+02  0.47000000000E+01 0.  1.
</event>
<event>
 5    1  0.4814700E-001  0.8000000E+02  0.7546771E-02  0.1203772E+00
         11   -1    0    0    0    0  0.00000000000E+00  0.00000000000E+00  0.40000000000E+02  0.40000000000E+02  0.00000000000E+00 0.  1.
        -11   -1    0    0    0    0 -0.00000000000E+00 -0.00000000000E+00 -0.40000000000E+02  0.40000000000E+02  0.00000000000E+00 0. -1.
         23    2    1    2    0    0  0.00000000000E+00  0.00000000000E+00  0.00000000000E+00  0.80000000000E+02  0.80000000000E+02 0.  0.
          5    1    3    3  501    0 -0.18333076857E+02  0.31631186846E+02 -0.15533071546E+02  0.40000000000E+02  0.47000000000E+01 0. -1.
         -5    1    3    3    0  501  0.18333076857E+02 -0.31631186846E+02  0.15533071546E+02  0.40000000000E+02  0.47000000000E+01 0.  1.
</event>
<event>
 5    1  0.4814700E-001  0.8000000E+02  0.7546771E-02  0.1203772E+00
         11   -1    0    0    0    0  0.00000000000E+00  0.00000000000E+00  0.40000000000E+02  0.40000000000E+02  0.00000000000E+00 0. -1.
        -11   -1    0    0    0    0 -0.00000000000E+00 -0.00000000000E+00 -0.40000000000E+02  0.40000000000E+02  0.00000000000E+00 0.  1.
         23    2    1    2    0    0  0.00000000000E+00  0.00000000000E+00  0.00000000000E+00  0.80000000000E+02  0.80000000000E+02 0.  0.
          5    1    3    3  501    0  0.30529411383E+02 -0.21102016893E+02  0.14162271134E+02  0.40000000000E+02  0.47000000000E+01 0. -1.
         -5    1    3    3    0  501 -0.30529411383E+02  0.21102016893E+02 -0.14162271134E+02  0.40000000000E+02  0.47000000000E+01 0.  1.
</event>
<event>
 5    1  0.4814700E-001  0.8000000E+02  0.7546771E-02  0.1203772E+00
         11   -1    0    0    0    0  0.00000000000E+00  0.00000000000E+00  0.40000000000E+02  0.40000000000E+02  0.00000000000E+00 0.  1.
        -11   -1    0    0    0    0 -0.00000000000E+00 -0.00000000000E+00 -0.40000000000E+02  0.40000000000E+02  0.00000000000E+00 0. -1.
         23    2    1    2    0    0  0.00000000000E+00  0.00000000000E+00  0.00000000000E+00  0.80000000000E+02  0.80000000000E+02 0.  0.
          5    1    3    3  501    0 -0.35668499066E+02  0.82460434660E+01 -0.15416580086E+02  0.40000000000E+02  0.47000000000E+01 0. -1.
         -5    1    3    3    0  501  0.35668499066E+02 -0.82460434660E+01  0.15416580086E+02  0.40000000000E+02  0.47000000000E+01 0.  1.
</event>
<event>
 5    1  0.4814700E-001  0.8000000E+02  0.7546771E-02  0.1203772E+00
         11   -1    0    0    0    0  0.00000000000E+00  0.00000000000E+00  0.40000000000E+02  0.40000000000E+02  0.00000000000E+00 0. -1.
        -11   -1    0    0    0    0 -0.00000000000E+00 -0.00000000000E+00 -0.40000000000E+02  0.40000000000E+02  0.00000000000E+00 0.  1.
         23    2    1    2    0    0  0.00000000000E+00  0.00000000000E+00  0.00000000000E+00  0.80000000000E+02  0.80000000000E+02 0.  0.
          5    1    3    3  501    0  0.81269849979E+01 -0.59562587815E+01  0.38423756924E+02  0.40000000000E+02  0.47000000000E+01 0. -1.
         -5    1    3    3    0  501 -0.81269849979E+01  0.59562587815E+01 -0.38423756924E+02  0.40000000000E+02  0.47000000000E+01 0.  1.
</event>
<event>
 5    1  0.4814700E-001  0.8000000E+02  0.7546771E-02  0.1203772E+00
         11   -1    0    0    0    0  0.00000000000E+00  0.00000000000E+00  0.40000000000E+02  0.40000000000E+02  0.00000000000E+00 0. -1.
        -11   -1    0    0    0    0 -0.00000000000E+00 -0.00000000000E+00 -0.40000000000E+02  0.40000000000E+02  0.00000000000E+00 0.  1.
         23    2    1    2    0    0  0.00000000000E+00  0.00000000000E+00  0.00000000000E+00  0.80000000000E+02  0.80000000000E+02 0.  0.
          5    1    3    3  501    0  0.34551678863E+02  0.14159327610E+02  0.13550089644E+02  0.40000000000E+02  0.47000000000E+01 0.  1.
         -5    1    3    3    0  501 -0.34551678863E+02 -0.14159327610E+02 -0.13550089644E+02  0.40000000000E+02  0.47000000000E+01 0. -1.
</event>
<event>
 5    1  0.4814700E-001  0.8000000E+02  0.7546771E-02  0.1203772E+00
         11   -1    0    0    0    0  0.00000000000E+00  0.00000000000E+00  0.40000000000E+02  0.40000000000E+02  0.00000000000E+00 0. -1.
        -11   -1    0    0    0    0 -0.00000000000E+00 -0.00000000000E+00 -0.40000000000E+02  0.40000000000E+02  0.00000000000E+00 0.  1.
         23    2    1    2    0    0  0.00000000000E+00  0.00000000000E+00  0.00000000000E+00  0.80000000000E+02  0.80000000000E+02 0.  0.
          5    1    3    3  501    0 -0.26537059400E+02 -0.20330488253E+02  0.21456134922E+02  0.40000000000E+02  0.47000000000E+01 0. -1.
         -5    1    3    3    0  501  0.26537059400E+02  0.20330488253E+02 -0.21456134922E+02  0.40000000000E+02  0.47000000000E+01 0.  1.
</event>
<event>
 5    1  0.4814700E-001  0.8000000E+02  0.7546771E-02  0.1203772E+00
         11   -1    0    0    0    0  0.00000000000E+00  0.00000000000E+00  0.40000000000E+02  0.40000000000E+02  0.00000000000E+00 0. -1.
        -11   -1    0    0    0    0 -0.00000000000E+00 -0.00000000000E+00 -0.40000000000E+02  0.40000000000E+02  0.00000000000E+00 0.  1.
         23    2    1    2    0    0  0.00000000000E+00  0.00000000000E+00  0.00000000000E+00  0.80000000000E+02  0.80000000000E+02 0.  0.
          5    1    3    3  501    0  0.23962043084E+02  0.60153811534E+01  0.31105396330E+02  0.40000000000E+02  0.47000000000E+01 0. -1.
         -5    1    3    3    0  501 -0.23962043084E+02 -0.60153811534E+01 -0.31105396330E+02  0.40000000000E+02  0.47000000000E+01 0.  1.
</event>
<event>
 5    1  0.4814700E-001  0.8000000E+02  0.7546771E-02  0.1203772E+00
         11   -1    0    0    0    0  0.00000000000E+00  0.00000000000E+00  0.40000000000E+02  0.40000000000E+02  0.00000000000E+00 0. -1.
        -11   -1    0    0    0    0 -0.00000000000E+00 -0.00000000000E+00 -0.40000000000E+02  0.40000000000E+02  0.00000000000E+00 0.  1.
         23    2    1    2    0    0  0.00000000000E+00  0.00000000000E+00  0.00000000000E+00  0.80000000000E+02  0.80000000000E+02 0.  0.
          5    1    3    3  501    0  0.12901092521E+02  0.27643769894E+02  0.25441969220E+02  0.40000000000E+02  0.47000000000E+01 0. -1.
         -5    1    3    3    0  501 -0.12901092521E+02 -0.27643769894E+02 -0.25441969220E+02  0.40000000000E+02  0.47000000000E+01 0.  1.
</event>
<event>
 5    1  0.4814700E-001  0.8000000E+02  0.7546771E-02  0.1203772E+00
         11   -1    0    0    0    0  0.00000000000E+00  0.00000000000E+00  0.40000000000E+02  0.40000000000E+02  0.00000000000E+00 0.  1.
        -11   -1    0    0    0    0 -0.00000000000E+00 -0.00000000000E+00 -0.40000000000E+02  0.40000000000E+02  0.00000000000E+00 0. -1.
         23    2    1    2    0    0  0.00000000000E+00  0.00000000000E+00  0.00000000000E+00  0.80000000000E+02  0.80000000000E+02 0.  0.
          5    1    3    3  501    0  0.23474885868E+02  0.22154506263E+02 -0.23152053597E+02  0.40000000000E+02  0.47000000000E+01 0. -1.
         -5    1    3    3    0  501 -0.23474885868E+02 -0.22154506263E+02  0.23152053597E+02  0.40000000000E+02  0.47000000000E+01 0.  1.
</event>
<event>
 5    1  0.4814700E-001  0.8000000E+02  0.7546771E-02  0.1203772E+00
         11   -1    0    0    0    0  0.00000000000E+00  0.00000000000E+00  0.40000000000E+02  0.40000000000E+02  0.00000000000E+00 0.  1.
        -11   -1    0    0    0    0 -0.00000000000E+00 -0.00000000000E+00 -0.40000000000E+02  0.40000000000E+02  0.00000000000E+00 0. -1.
         23    2    1    2    0    0  0.00000000000E+00  0.00000000000E+00  0.00000000000E+00  0.80000000000E+02  0.80000000000E+02 0.  0.
          5    1    3    3  501    0 -0.36431686512E+01 -0.35297131288E+02 -0.17853566731E+02  0.40000000000E+02  0.47000000000E+01 0. -1.
         -5    1    3    3    0  501  0.36431686512E+01  0.35297131288E+02  0.17853566731E+02  0.40000000000E+02  0.47000000000E+01 0.  1.
</event>
<event>
 5    1  0.4814700E-001  0.8000000E+02  0.7546771E-02  0.1203772E+00
         11   -1    0    0    0    0  0.00000000000E+00  0.00000000000E+00  0.40000000000E+02  0.40000000000E+02  0.00000000000E+00 0. -1.
        -11   -1    0    0    0    0 -0.00000000000E+00 -0.00000000000E+00 -0.40000000000E+02  0.40000000000E+02  0.00000000000E+00 0.  1.
         23    2    1    2    0    0  0.00000000000E+00  0.00000000000E+00  0.00000000000E+00  0.80000000000E+02  0.80000000000E+02 0.  0.
          5    1    3    3  501    0  0.14288932813E+02  0.28289737183E+02  0.23946339369E+02  0.40000000000E+02  0.47000000000E+01 0. -1.
         -5    1    3    3    0  501 -0.14288932813E+02 -0.28289737183E+02 -0.23946339369E+02  0.40000000000E+02  0.47000000000E+01 0.  1.
</event>
<event>
 5    1  0.4814700E-001  0.8000000E+02  0.7546771E-02  0.1203772E+00
         11   -1    0    0    0    0  0.00000000000E+00  0.00000000000E+00  0.40000000000E+02  0.40000000000E+02  0.00000000000E+00 0.  1.
        -11   -1    0    0    0    0 -0.00000000000E+00 -0.00000000000E+00 -0.40000000000E+02  0.40000000000E+02  0.00000000000E+00 0. -1.
         23    2    1    2    0    0  0.00000000000E+00  0.00000000000E+00  0.00000000000E+00  0.80000000000E+02  0.80000000000E+02 0.  0.
          5    1    3    3  501    0  0.34921370879E+02 -0.86191597971E+01 -0.16855798419E+02  0.40000000000E+02  0.47000000000E+01 0. -1.
         -5    1    3    3    0  501 -0.34921370879E+02  0.86191597971E+01  0.16855798419E+02  0.40000000000E+02  0.47000000000E+01 0.  1.
</event>
<event>
 5    1  0.4814700E-001  0.8000000E+02  0.7546771E-02  0.1203772E+00
         11   -1    0    0    0    0  0.00000000000E+00  0.00000000000E+00  0.40000000000E+02  0.40000000000E+02  0.00000000000E+00 0. -1.
        -11   -1    0    0    0    0 -0.00000000000E+00 -0.00000000000E+00 -0.40000000000E+02  0.40000000000E+02  0.00000000000E+00 0.  1.
         23    2    1    2    0    0  0.00000000000E+00  0.00000000000E+00  0.00000000000E+00  0.80000000000E+02  0.80000000000E+02 0.  0.
          5    1    3    3  501    0  0.35245002272E+02 -0.16504194032E+02  0.79568457436E+01  0.40000000000E+02  0.47000000000E+01 0. -1.
         -5    1    3    3    0  501 -0.35245002272E+02  0.16504194032E+02 -0.79568457436E+01  0.40000000000E+02  0.47000000000E+01 0.  1.
</event>
<event>
 5    1  0.4814700E-001  0.8000000E+02  0.7546771E-02  0.1203772E+00
         11   -1    0    0    0    0  0.00000000000E+00  0.00000000000E+00  0.40000000000E+02  0.40000000000E+02  0.00000000000E+00 0.  1.
        -11   -1    0    0    0    0 -0.00000000000E+00 -0.00000000000E+00 -0.40000000000E+02  0.40000000000E+02  0.00000000000E+00 0. -1.
         23    2    1    2    0    0  0.00000000000E+00  0.00000000000E+00  0.00000000000E+00  0.80000000000E+02  0.80000000000E+02 0.  0.
          5    1    3    3  501    0 -0.66890945093E+00  0.30816816693E+02 -0.25055665409E+02  0.40000000000E+02  0.47000000000E+01 0. -1.
         -5    1    3    3    0  501  0.66890945093E+00 -0.30816816693E+02  0.25055665409E+02  0.40000000000E+02  0.47000000000E+01 0.  1.
</event>
<event>
 5    1  0.4814700E-001  0.8000000E+02  0.7546771E-02  0.1203772E+00
         11   -1    0    0    0    0  0.00000000000E+00  0.00000000000E+00  0.40000000000E+02  0.40000000000E+02  0.00000000000E+00 0. -1.
        -11   -1    0    0    0    0 -0.00000000000E+00 -0.00000000000E+00 -0.40000000000E+02  0.40000000000E+02  0.00000000000E+00 0.  1.
         23    2    1    2    0    0  0.00000000000E+00  0.00000000000E+00  0.00000000000E+00  0.80000000000E+02  0.80000000000E+02 0.  0.
          5    1    3    3  501    0  0.11455405235E+02  0.22966891815E+02  0.30318403178E+02  0.40000000000E+02  0.47000000000E+01 0. -1.
         -5    1    3    3    0  501 -0.11455405235E+02 -0.22966891815E+02 -0.30318403178E+02  0.40000000000E+02  0.47000000000E+01 0.  1.
</event>
<event>
 5    1  0.4814700E-001  0.8000000E+02  0.7546771E-02  0.1203772E+00
         11   -1    0    0    0    0  0.00000000000E+00  0.00000000000E+00  0.40000000000E+02  0.40000000000E+02  0.00000000000E+00 0.  1.
        -11   -1    0    0    0    0 -0.00000000000E+00 -0.00000000000E+00 -0.40000000000E+02  0.40000000000E+02  0.00000000000E+00 0. -1.
         23    2    1    2    0    0  0.00000000000E+00  0.00000000000E+00  0.00000000000E+00  0.80000000000E+02  0.80000000000E+02 0.  0.
          5    1    3    3  501    0 -0.32706645597E+02  0.17651519005E+02  0.14021740640E+02  0.40000000000E+02  0.47000000000E+01 0. -1.
         -5    1    3    3    0  501  0.32706645597E+02 -0.17651519005E+02 -0.14021740640E+02  0.40000000000E+02  0.47000000000E+01 0.  1.
</event>
<event>
 5    1  0.4814700E-001  0.8000000E+02  0.7546771E-02  0.1203772E+00
         11   -1    0    0    0    0  0.00000000000E+00  0.00000000000E+00  0.40000000000E+02  0.40000000000E+02  0.00000000000E+00 0. -1.
        -11   -1    0    0    0    0 -0.00000000000E+00 -0.00000000000E+00 -0.40000000000E+02  0.40000000000E+02  0.00000000000E+00 0.  1.
         23    2    1    2    0    0  0.00000000000E+00  0.00000000000E+00  0.00000000000E+00  0.80000000000E+02  0.80000000000E+02 0.  0.
          5    1    3    3  501    0  0.10328602354E+02  0.38244563244E+02  0.29297364558E+01  0.40000000000E+02  0.47000000000E+01 0. -1.
         -5    1    3    3    0  501 -0.10328602354E+02 -0.38244563244E+02 -0.29297364558E+01  0.40000000000E+02  0.47000000000E+01 0.  1.
</event>
<event>
 5    1  0.4814700E-001  0.8000000E+02  0.7546771E-02  0.1203772E+00
         11   -1    0    0    0    0  0.00000000000E+00  0.00000000000E+00  0.40000000000E+02  0.40000000000E+02  0.00000000000E+00 0. -1.
        -11   -1    0    0    0    0 -0.00000000000E+00 -0.00000000000E+00 -0.40000000000E+02  0.40000000000E+02  0.00000000000E+00 0.  1.
         23    2    1    2    0    0  0.00000000000E+00  0.00000000000E+00  0.00000000000E+00  0.80000000000E+02  0.80000000000E+02 0.  0.
          5    1    3    3  501    0  0.74473508755E+01 -0.14733042652E+02  0.36130104057E+02  0.40000000000E+02  0.47000000000E+01 0. -1.
         -5    1    3    3    0  501 -0.74473508755E+01  0.14733042652E+02 -0.36130104057E+02  0.40000000000E+02  0.47000000000E+01 0.  1.
</event>
<event>
 5    1  0.4814700E-001  0.8000000E+02  0.7546771E-02  0.1203772E+00
         11   -1    0    0    0    0  0.00000000000E+00  0.00000000000E+00  0.40000000000E+02  0.40000000000E+02  0.00000000000E+00 0. -1.
        -11   -1    0    0    0    0 -0.00000000000E+00 -0.00000000000E+00 -0.40000000000E+02  0.40000000000E+02  0.00000000000E+00 0.  1.
         23    2    1    2    0    0  0.00000000000E+00  0.00000000000E+00  0.00000000000E+00  0.80000000000E+02  0.80000000000E+02 0.  0.
          5    1    3    3  501    0 -0.51581768286E+01 -0.37665276137E+02  0.11516517934E+02  0.40000000000E+02  0.47000000000E+01 0. -1.
         -5    1    3    3    0  501  0.51581768286E+01  0.37665276137E+02 -0.11516517934E+02  0.40000000000E+02  0.47000000000E+01 0.  1.
</event>
<event>
 5    1  0.4814700E-001  0.8000000E+02  0.7546771E-02  0.1203772E+00
         11   -1    0    0    0    0  0.00000000000E+00  0.00000000000E+00  0.40000000000E+02  0.40000000000E+02  0.00000000000E+00 0.  1.
        -11   -1    0    0    0    0 -0.00000000000E+00 -0.00000000000E+00 -0.40000000000E+02  0.40000000000E+02  0.00000000000E+00 0. -1.
         23    2    1    2    0    0  0.00000000000E+00  0.00000000000E+00  0.00000000000E+00  0.80000000000E+02  0.80000000000E+02 0.  0.
          5    1    3    3  501    0  0.94812031685E+01  0.37308469780E+02 -0.98027990463E+01  0.40000000000E+02  0.47000000000E+01 0. -1.
         -5    1    3    3    0  501 -0.94812031685E+01 -0.37308469780E+02  0.98027990463E+01  0.40000000000E+02  0.47000000000E+01 0.  1.
</event>
<event>
 5    1  0.4814700E-001  0.8000000E+02  0.7546771E-02  0.1203772E+00
         11   -1    0    0    0    0  0.00000000000E+00  0.00000000000E+00  0.40000000000E+02  0.40000000000E+02  0.00000000000E+00 0.  1.
        -11   -1    0    0    0    0 -0.00000000000E+00 -0.00000000000E+00 -0.40000000000E+02  0.40000000000E+02  0.00000000000E+00 0. -1.
         23    2    1    2    0    0  0.00000000000E+00  0.00000000000E+00  0.00000000000E+00  0.80000000000E+02  0.80000000000E+02 0.  0.
          5    1    3    3  501    0 -0.33851656797E+02  0.18559522288E+02 -0.93551838346E+01  0.40000000000E+02  0.47000000000E+01 0. -1.
         -5    1    3    3    0  501  0.33851656797E+02 -0.18559522288E+02  0.93551838346E+01  0.40000000000E+02  0.47000000000E+01 0.  1.
</event>
<event>
 5    1  0.4814700E-001  0.8000000E+02  0.7546771E-02  0.1203772E+00
         11   -1    0    0    0    0  0.00000000000E+00  0.00000000000E+00  0.40000000000E+02  0.40000000000E+02  0.00000000000E+00 0.  1.
        -11   -1    0    0    0    0 -0.00000000000E+00 -0.00000000000E+00 -0.40000000000E+02  0.40000000000E+02  0.00000000000E+00 0. -1.
         23    2    1    2    0    0  0.00000000000E+00  0.00000000000E+00  0.00000000000E+00  0.80000000000E+02  0.80000000000E+02 0.  0.
          5    1    3    3  501    0 -0.88637202792E+01  0.17454867484E+02 -0.34564028468E+02  0.40000000000E+02  0.47000000000E+01 0. -1.
         -5    1    3    3    0  501  0.88637202792E+01 -0.17454867484E+02  0.34564028468E+02  0.40000000000E+02  0.47000000000E+01 0.  1.
</event>
<event>
 5    1  0.4814700E-001  0.8000000E+02  0.7546771E-02  0.1203772E+00
         11   -1    0    0    0    0  0.00000000000E+00  0.00000000000E+00  0.40000000000E+02  0.40000000000E+02  0.00000000000E+00 0.  1.
        -11   -1    0    0    0    0 -0.00000000000E+00 -0.00000000000E+00 -0.40000000000E+02  0.40000000000E+02  0.00000000000E+00 0. -1.
         23    2    1    2    0    0  0.00000000000E+00  0.00000000000E+00  0.00000000000E+00  0.80000000000E+02  0.80000000000E+02 0.  0.
          5    1    3    3  501    0 -0.42198488798E+00  0.37427849799E+02 -0.13299924367E+02  0.40000000000E+02  0.47000000000E+01 0. -1.
         -5    1    3    3    0  501  0.42198488798E+00 -0.37427849799E+02  0.13299924367E+02  0.40000000000E+02  0.47000000000E+01 0.  1.
</event>
<event>
 5    1  0.4814700E-001  0.8000000E+02  0.7546771E-02  0.1203772E+00
         11   -1    0    0    0    0  0.00000000000E+00  0.00000000000E+00  0.40000000000E+02  0.40000000000E+02  0.00000000000E+00 0.  1.
        -11   -1    0    0    0    0 -0.00000000000E+00 -0.00000000000E+00 -0.40000000000E+02  0.40000000000E+02  0.00000000000E+00 0. -1.
         23    2    1    2    0    0  0.00000000000E+00  0.00000000000E+00  0.00000000000E+00  0.80000000000E+02  0.80000000000E+02 0.  0.
          5    1    3    3  501    0  0.28442599847E+02 -0.15807728542E+02 -0.22782542270E+02  0.40000000000E+02  0.47000000000E+01 0. -1.
         -5    1    3    3    0  501 -0.28442599847E+02  0.15807728542E+02  0.22782542270E+02  0.40000000000E+02  0.47000000000E+01 0.  1.
</event>
<event>
 5    1  0.4814700E-001  0.8000000E+02  0.7546771E-02  0.1203772E+00
         11   -1    0    0    0    0  0.00000000000E+00  0.00000000000E+00  0.40000000000E+02  0.40000000000E+02  0.00000000000E+00 0.  1.
        -11   -1    0    0    0    0 -0.00000000000E+00 -0.00000000000E+00 -0.40000000000E+02  0.40000000000E+02  0.00000000000E+00 0. -1.
         23    2    1    2    0    0  0.00000000000E+00  0.00000000000E+00  0.00000000000E+00  0.80000000000E+02  0.80000000000E+02 0.  0.
          5    1    3    3  501    0 -0.26816984746E+02  0.75717217442E+01 -0.28309510044E+02  0.40000000000E+02  0.47000000000E+01 0. -1.
         -5    1    3    3    0  501  0.26816984746E+02 -0.75717217442E+01  0.28309510044E+02  0.40000000000E+02  0.47000000000E+01 0.  1.
</event>
<event>
 5    1  0.4814700E-001  0.8000000E+02  0.7546771E-02  0.1203772E+00
         11   -1    0    0    0    0  0.00000000000E+00  0.00000000000E+00  0.40000000000E+02  0.40000000000E+02  0.00000000000E+00 0. -1.
        -11   -1    0    0    0    0 -0.00000000000E+00 -0.00000000000E+00 -0.40000000000E+02  0.40000000000E+02  0.00000000000E+00 0.  1.
         23    2    1    2    0    0  0.00000000000E+00  0.00000000000E+00  0.00000000000E+00  0.80000000000E+02  0.80000000000E+02 0.  0.
          5    1    3    3  501    0  0.38310014213E+02  0.61743369668E+01  0.84929602639E+01  0.40000000000E+02  0.47000000000E+01 0. -1.
         -5    1    3    3    0  501 -0.38310014213E+02 -0.61743369668E+01 -0.84929602639E+01  0.40000000000E+02  0.47000000000E+01 0.  1.
</event>
<event>
 5    1  0.4814700E-001  0.8000000E+02  0.7546771E-02  0.1203772E+00
         11   -1    0    0    0    0  0.00000000000E+00  0.00000000000E+00  0.40000000000E+02  0.40000000000E+02  0.00000000000E+00 0. -1.
        -11   -1    0    0    0    0 -0.00000000000E+00 -0.00000000000E+00 -0.40000000000E+02  0.40000000000E+02  0.00000000000E+00 0.  1.
         23    2    1    2    0    0  0.00000000000E+00  0.00000000000E+00  0.00000000000E+00  0.80000000000E+02  0.80000000000E+02 0.  0.
          5    1    3    3  501    0  0.24561727433E+02  0.30184608478E+02  0.79700035486E+01  0.40000000000E+02  0.47000000000E+01 0. -1.
         -5    1    3    3    0  501 -0.24561727433E+02 -0.30184608478E+02 -0.79700035486E+01  0.40000000000E+02  0.47000000000E+01 0.  1.
</event>
<event>
 5    1  0.4814700E-001  0.8000000E+02  0.7546771E-02  0.1203772E+00
         11   -1    0    0    0    0  0.00000000000E+00  0.00000000000E+00  0.40000000000E+02  0.40000000000E+02  0.00000000000E+00 0.  1.
        -11   -1    0    0    0    0 -0.00000000000E+00 -0.00000000000E+00 -0.40000000000E+02  0.40000000000E+02  0.00000000000E+00 0. -1.
         23    2    1    2    0    0  0.00000000000E+00  0.00000000000E+00  0.00000000000E+00  0.80000000000E+02  0.80000000000E+02 0.  0.
          5    1    3    3  501    0  0.25014705012E+02 -0.25657146765E+02 -0.17143084700E+02  0.40000000000E+02  0.47000000000E+01 0. -1.
         -5    1    3    3    0  501 -0.25014705012E+02  0.25657146765E+02  0.17143084700E+02  0.40000000000E+02  0.47000000000E+01 0.  1.
</event>
<event>
 5    1  0.4814700E-001  0.8000000E+02  0.7546771E-02  0.1203772E+00
         11   -1    0    0    0    0  0.00000000000E+00  0.00000000000E+00  0.40000000000E+02  0.40000000000E+02  0.00000000000E+00 0.  1.
        -11   -1    0    0    0    0 -0.00000000000E+00 -0.00000000000E+00 -0.40000000000E+02  0.40000000000E+02  0.00000000000E+00 0. -1.
         23    2    1    2    0    0  0.00000000000E+00  0.00000000000E+00  0.00000000000E+00  0.80000000000E+02  0.80000000000E+02 0.  0.
          5    1    3    3  501    0  0.48378243609E+01  0.28070584085E+01 -0.39327164639E+02  0.40000000000E+02  0.47000000000E+01 0. -1.
         -5    1    3    3    0  501 -0.48378243609E+01 -0.28070584085E+01  0.39327164639E+02  0.40000000000E+02  0.47000000000E+01 0.  1.
</event>
<event>
 5    1  0.4814700E-001  0.8000000E+02  0.7546771E-02  0.1203772E+00
         11   -1    0    0    0    0  0.00000000000E+00  0.00000000000E+00  0.40000000000E+02  0.40000000000E+02  0.00000000000E+00 0. -1.
        -11   -1    0    0    0    0 -0.00000000000E+00 -0.00000000000E+00 -0.40000000000E+02  0.40000000000E+02  0.00000000000E+00 0.  1.
         23    2    1    2    0    0  0.00000000000E+00  0.00000000000E+00  0.00000000000E+00  0.80000000000E+02  0.80000000000E+02 0.  0.
          5    1    3    3  501    0  0.71906832028E+01  0.13125920507E+02  0.36795574271E+02  0.40000000000E+02  0.47000000000E+01 0. -1.
         -5    1    3    3    0  501 -0.71906832028E+01 -0.13125920507E+02 -0.36795574271E+02  0.40000000000E+02  0.47000000000E+01 0.  1.
</event>
<event>
 5    1  0.4814700E-001  0.8000000E+02  0.7546771E-02  0.1203772E+00
         11   -1    0    0    0    0  0.00000000000E+00  0.00000000000E+00  0.40000000000E+02  0.40000000000E+02  0.00000000000E+00 0.  1.
        -11   -1    0    0    0    0 -0.00000000000E+00 -0.00000000000E+00 -0.40000000000E+02  0.40000000000E+02  0.00000000000E+00 0. -1.
         23    2    1    2    0    0  0.00000000000E+00  0.00000000000E+00  0.00000000000E+00  0.80000000000E+02  0.80000000000E+02 0.  0.
          5    1    3    3  501    0  0.11713479678E+02 -0.48924947995E+01 -0.37639977264E+02  0.40000000000E+02  0.47000000000E+01 0. -1.
         -5    1    3    3    0  501 -0.11713479678E+02  0.48924947995E+01  0.37639977264E+02  0.40000000000E+02  0.47000000000E+01 0.  1.
</event>
<event>
 5    1  0.4814700E-001  0.8000000E+02  0.7546771E-02  0.1203772E+00
         11   -1    0    0    0    0  0.00000000000E+00  0.00000000000E+00  0.40000000000E+02  0.40000000000E+02  0.00000000000E+00 0.  1.
        -11   -1    0    0    0    0 -0.00000000000E+00 -0.00000000000E+00 -0.40000000000E+02  0.40000000000E+02  0.00000000000E+00 0. -1.
         23    2    1    2    0    0  0.00000000000E+00  0.00000000000E+00  0.00000000000E+00  0.80000000000E+02  0.80000000000E+02 0.  0.
          5    1    3    3  501    0  0.23993566810E+02  0.11522978003E+02 -0.29486263406E+02  0.40000000000E+02  0.47000000000E+01 0. -1.
         -5    1    3    3    0  501 -0.23993566810E+02 -0.11522978003E+02  0.29486263406E+02  0.40000000000E+02  0.47000000000E+01 0.  1.
</event>
<event>
 5    1  0.4814700E-001  0.8000000E+02  0.7546771E-02  0.1203772E+00
         11   -1    0    0    0    0  0.00000000000E+00  0.00000000000E+00  0.40000000000E+02  0.40000000000E+02  0.00000000000E+00 0. -1.
        -11   -1    0    0    0    0 -0.00000000000E+00 -0.00000000000E+00 -0.40000000000E+02  0.40000000000E+02  0.00000000000E+00 0.  1.
         23    2    1    2    0    0  0.00000000000E+00  0.00000000000E+00  0.00000000000E+00  0.80000000000E+02  0.80000000000E+02 0.  0.
          5    1    3    3  501    0 -0.86130173617E+01  0.49837366063E+01  0.38456316794E+02  0.40000000000E+02  0.47000000000E+01 0. -1.
         -5    1    3    3    0  501  0.86130173617E+01 -0.49837366063E+01 -0.38456316794E+02  0.40000000000E+02  0.47000000000E+01 0.  1.
</event>
<event>
 5    1  0.4814700E-001  0.8000000E+02  0.7546771E-02  0.1203772E+00
         11   -1    0    0    0    0  0.00000000000E+00  0.00000000000E+00  0.40000000000E+02  0.40000000000E+02  0.00000000000E+00 0.  1.
        -11   -1    0    0    0    0 -0.00000000000E+00 -0.00000000000E+00 -0.40000000000E+02  0.40000000000E+02  0.00000000000E+00 0. -1.
         23    2    1    2    0    0  0.00000000000E+00  0.00000000000E+00  0.00000000000E+00  0.80000000000E+02  0.80000000000E+02 0.  0.
          5    1    3    3  501    0  0.37604720474E+02 -0.80844954724E+01 -0.99214883484E+01  0.40000000000E+02  0.47000000000E+01 0. -1.
         -5    1    3    3    0  501 -0.37604720474E+02  0.80844954724E+01  0.99214883484E+01  0.40000000000E+02  0.47000000000E+01 0.  1.
</event>
<event>
 5    1  0.4814700E-001  0.8000000E+02  0.7546771E-02  0.1203772E+00
         11   -1    0    0    0    0  0.00000000000E+00  0.00000000000E+00  0.40000000000E+02  0.40000000000E+02  0.00000000000E+00 0. -1.
        -11   -1    0    0    0    0 -0.00000000000E+00 -0.00000000000E+00 -0.40000000000E+02  0.40000000000E+02  0.00000000000E+00 0.  1.
         23    2    1    2    0    0  0.00000000000E+00  0.00000000000E+00  0.00000000000E+00  0.80000000000E+02  0.80000000000E+02 0.  0.
          5    1    3    3  501    0  0.82762346548E+00  0.15357535409E+02  0.36624734068E+02  0.40000000000E+02  0.47000000000E+01 0. -1.
         -5    1    3    3    0  501 -0.82762346548E+00 -0.15357535409E+02 -0.36624734068E+02  0.40000000000E+02  0.47000000000E+01 0.  1.
</event>
<event>
 5    1  0.4814700E-001  0.8000000E+02  0.7546771E-02  0.1203772E+00
         11   -1    0    0    0    0  0.00000000000E+00  0.00000000000E+00  0.40000000000E+02  0.40000000000E+02  0.00000000000E+00 0. -1.
        -11   -1    0    0    0    0 -0.00000000000E+00 -0.00000000000E+00 -0.40000000000E+02  0.40000000000E+02  0.00000000000E+00 0.  1.
         23    2    1    2    0    0  0.00000000000E+00  0.00000000000E+00  0.00000000000E+00  0.80000000000E+02  0.80000000000E+02 0.  0.
          5    1    3    3  501    0 -0.26665203058E+02  0.29353749955E+02  0.22878613269E+01  0.40000000000E+02  0.47000000000E+01 0. -1.
         -5    1    3    3    0  501  0.26665203058E+02 -0.29353749955E+02 -0.22878613269E+01  0.40000000000E+02  0.47000000000E+01 0.  1.
</event>
<event>
 5    1  0.4814700E-001  0.8000000E+02  0.7546771E-02  0.1203772E+00
         11   -1    0    0    0    0  0.00000000000E+00  0.00000000000E+00  0.40000000000E+02  0.40000000000E+02  0.00000000000E+00 0. -1.
        -11   -1    0    0    0    0 -0.00000000000E+00 -0.00000000000E+00 -0.40000000000E+02  0.40000000000E+02  0.00000000000E+00 0.  1.
         23    2    1    2    0    0  0.00000000000E+00  0.00000000000E+00  0.00000000000E+00  0.80000000000E+02  0.80000000000E+02 0.  0.
          5    1    3    3  501    0  0.11541026325E+02 -0.29982011328E+02  0.23362228234E+02  0.40000000000E+02  0.47000000000E+01 0. -1.
         -5    1    3    3    0  501 -0.11541026325E+02  0.29982011328E+02 -0.23362228234E+02  0.40000000000E+02  0.47000000000E+01 0.  1.
</event>
<event>
 5    1  0.4814700E-001  0.8000000E+02  0.7546771E-02  0.1203772E+00
         11   -1    0    0    0    0  0.00000000000E+00  0.00000000000E+00  0.40000000000E+02  0.40000000000E+02  0.00000000000E+00 0.  1.
        -11   -1    0    0    0    0 -0.00000000000E+00 -0.00000000000E+00 -0.40000000000E+02  0.40000000000E+02  0.00000000000E+00 0. -1.
         23    2    1    2    0    0  0.00000000000E+00  0.00000000000E+00  0.00000000000E+00  0.80000000000E+02  0.80000000000E+02 0.  0.
          5    1    3    3  501    0  0.81843527964E+01  0.21613687267E+02 -0.32307505196E+02  0.40000000000E+02  0.47000000000E+01 0. -1.
         -5    1    3    3    0  501 -0.81843527964E+01 -0.21613687267E+02  0.32307505196E+02  0.40000000000E+02  0.47000000000E+01 0.  1.
</event>
<event>
 5    1  0.4814700E-001  0.8000000E+02  0.7546771E-02  0.1203772E+00
         11   -1    0    0    0    0  0.00000000000E+00  0.00000000000E+00  0.40000000000E+02  0.40000000000E+02  0.00000000000E+00 0. -1.
        -11   -1    0    0    0    0 -0.00000000000E+00 -0.00000000000E+00 -0.40000000000E+02  0.40000000000E+02  0.00000000000E+00 0.  1.
         23    2    1    2    0    0  0.00000000000E+00  0.00000000000E+00  0.00000000000E+00  0.80000000000E+02  0.80000000000E+02 0.  0.
          5    1    3    3  501    0 -0.57043775056E+01  0.43891582997E+01  0.39065398586E+02  0.40000000000E+02  0.47000000000E+01 0. -1.
         -5    1    3    3    0  501  0.57043775056E+01 -0.43891582997E+01 -0.39065398586E+02  0.40000000000E+02  0.47000000000E+01 0.  1.
</event>
<event>
 5    1  0.4814700E-001  0.8000000E+02  0.7546771E-02  0.1203772E+00
         11   -1    0    0    0    0  0.00000000000E+00  0.00000000000E+00  0.40000000000E+02  0.40000000000E+02  0.00000000000E+00 0.  1.
        -11   -1    0    0    0    0 -0.00000000000E+00 -0.00000000000E+00 -0.40000000000E+02  0.40000000000E+02  0.00000000000E+00 0. -1.
         23    2    1    2    0    0  0.00000000000E+00  0.00000000000E+00  0.00000000000E+00  0.80000000000E+02  0.80000000000E+02 0.  0.
          5    1    3    3  501    0  0.38761668046E+02  0.71736094041E+01 -0.48971847394E+01  0.40000000000E+02  0.47000000000E+01 0. -1.
         -5    1    3    3    0  501 -0.38761668046E+02 -0.71736094041E+01  0.48971847394E+01  0.40000000000E+02  0.47000000000E+01 0.  1.
</event>
<event>
 5    1  0.4814700E-001  0.8000000E+02  0.7546771E-02  0.1203772E+00
         11   -1    0    0    0    0  0.00000000000E+00  0.00000000000E+00  0.40000000000E+02  0.40000000000E+02  0.00000000000E+00 0. -1.
        -11   -1    0    0    0    0 -0.00000000000E+00 -0.00000000000E+00 -0.40000000000E+02  0.40000000000E+02  0.00000000000E+00 0.  1.
         23    2    1    2    0    0  0.00000000000E+00  0.00000000000E+00  0.00000000000E+00  0.80000000000E+02  0.80000000000E+02 0.  0.
          5    1    3    3  501    0 -0.98999064540E+01  0.10084189304E+02  0.37124264010E+02  0.40000000000E+02  0.47000000000E+01 0. -1.
         -5    1    3    3    0  501  0.98999064540E+01 -0.10084189304E+02 -0.37124264010E+02  0.40000000000E+02  0.47000000000E+01 0.  1.
</event>
<event>
 5    1  0.4814700E-001  0.8000000E+02  0.7546771E-02  0.1203772E+00
         11   -1    0    0    0    0  0.00000000000E+00  0.00000000000E+00  0.40000000000E+02  0.40000000000E+02  0.00000000000E+00 0. -1.
        -11   -1    0    0    0    0 -0.00000000000E+00 -0.00000000000E+00 -0.40000000000E+02  0.40000000000E+02  0.00000000000E+00 0.  1.
         23    2    1    2    0    0  0.00000000000E+00  0.00000000000E+00  0.00000000000E+00  0.80000000000E+02  0.80000000000E+02 0.  0.
          5    1    3    3  501    0 -0.67251468559E+01 -0.19389235632E+02  0.34010879750E+02  0.40000000000E+02  0.47000000000E+01 0. -1.
         -5    1    3    3    0  501  0.67251468559E+01  0.19389235632E+02 -0.34010879750E+02  0.40000000000E+02  0.47000000000E+01 0.  1.
</event>
<event>
 5    1  0.4814700E-001  0.8000000E+02  0.7546771E-02  0.1203772E+00
         11   -1    0    0    0    0  0.00000000000E+00  0.00000000000E+00  0.40000000000E+02  0.40000000000E+02  0.00000000000E+00 0.  1.
        -11   -1    0    0    0    0 -0.00000000000E+00 -0.00000000000E+00 -0.40000000000E+02  0.40000000000E+02  0.00000000000E+00 0. -1.
         23    2    1    2    0    0  0.00000000000E+00  0.00000000000E+00  0.00000000000E+00  0.80000000000E+02  0.80000000000E+02 0.  0.
          5    1    3    3  501    0 -0.21356452709E+02 -0.27377220155E+02 -0.19295070467E+02  0.40000000000E+02  0.47000000000E+01 0. -1.
         -5    1    3    3    0  501  0.21356452709E+02  0.27377220155E+02  0.19295070467E+02  0.40000000000E+02  0.47000000000E+01 0.  1.
</event>
<event>
 5    1  0.4814700E-001  0.8000000E+02  0.7546771E-02  0.1203772E+00
         11   -1    0    0    0    0  0.00000000000E+00  0.00000000000E+00  0.40000000000E+02  0.40000000000E+02  0.00000000000E+00 0.  1.
        -11   -1    0    0    0    0 -0.00000000000E+00 -0.00000000000E+00 -0.40000000000E+02  0.40000000000E+02  0.00000000000E+00 0. -1.
         23    2    1    2    0    0  0.00000000000E+00  0.00000000000E+00  0.00000000000E+00  0.80000000000E+02  0.80000000000E+02 0.  0.
          5    1    3    3  501    0 -0.16028102178E+02 -0.36236082348E+02 -0.28206872622E+01  0.40000000000E+02  0.47000000000E+01 0. -1.
         -5    1    3    3    0  501  0.16028102178E+02  0.36236082348E+02  0.28206872622E+01  0.40000000000E+02  0.47000000000E+01 0.  1.
</event>
<event>
 5    1  0.4814700E-001  0.8000000E+02  0.7546771E-02  0.1203772E+00
         11   -1    0    0    0    0  0.00000000000E+00  0.00000000000E+00  0.40000000000E+02  0.40000000000E+02  0.00000000000E+00 0.  1.
        -11   -1    0    0    0    0 -0.00000000000E+00 -0.00000000000E+00 -0.40000000000E+02  0.40000000000E+02  0.00000000000E+00 0. -1.
         23    2    1    2    0    0  0.00000000000E+00  0.00000000000E+00  0.00000000000E+00  0.80000000000E+02  0.80000000000E+02 0.  0.
          5    1    3    3  501    0 -0.34901166055E+01 -0.88231046065E+01 -0.38573072359E+02  0.40000000000E+02  0.47000000000E+01 0. -1.
         -5    1    3    3    0  501  0.34901166055E+01  0.88231046065E+01  0.38573072359E+02  0.40000000000E+02  0.47000000000E+01 0.  1.
</event>
<event>
 5    1  0.4814700E-001  0.8000000E+02  0.7546771E-02  0.1203772E+00
         11   -1    0    0    0    0  0.00000000000E+00  0.00000000000E+00  0.40000000000E+02  0.40000000000E+02  0.00000000000E+00 0.  1.
        -11   -1    0    0    0    0 -0.00000000000E+00 -0.00000000000E+00 -0.40000000000E+02  0.40000000000E+02  0.00000000000E+00 0. -1.
         23    2    1    2    0    0  0.00000000000E+00  0.00000000000E+00  0.00000000000E+00  0.80000000000E+02  0.80000000000E+02 0.  0.
          5    1    3    3  501    0 -0.29262729385E+02  0.26855284829E+02 -0.62955990679E+00  0.40000000000E+02  0.47000000000E+01 0. -1.
         -5    1    3    3    0  501  0.29262729385E+02 -0.26855284829E+02  0.62955990679E+00  0.40000000000E+02  0.47000000000E+01 0.  1.
</event>
<event>
 5    1  0.4814700E-001  0.8000000E+02  0.7546771E-02  0.1203772E+00
         11   -1    0    0    0    0  0.00000000000E+00  0.00000000000E+00  0.40000000000E+02  0.40000000000E+02  0.00000000000E+00 0.  1.
        -11   -1    0    0    0    0 -0.00000000000E+00 -0.00000000000E+00 -0.40000000000E+02  0.40000000000E+02  0.00000000000E+00 0. -1.
         23    2    1    2    0    0  0.00000000000E+00  0.00000000000E+00  0.00000000000E+00  0.80000000000E+02  0.80000000000E+02 0.  0.
          5    1    3    3  501    0  0.37143552328E+02  0.95878231912E+01  0.10312136875E+02  0.40000000000E+02  0.47000000000E+01 0. -1.
         -5    1    3    3    0  501 -0.37143552328E+02 -0.95878231912E+01 -0.10312136875E+02  0.40000000000E+02  0.47000000000E+01 0.  1.
</event>
<event>
 5    1  0.4814700E-001  0.8000000E+02  0.7546771E-02  0.1203772E+00
         11   -1    0    0    0    0  0.00000000000E+00  0.00000000000E+00  0.40000000000E+02  0.40000000000E+02  0.00000000000E+00 0. -1.
        -11   -1    0    0    0    0 -0.00000000000E+00 -0.00000000000E+00 -0.40000000000E+02  0.40000000000E+02  0.00000000000E+00 0.  1.
         23    2    1    2    0    0  0.00000000000E+00  0.00000000000E+00  0.00000000000E+00  0.80000000000E+02  0.80000000000E+02 0.  0.
          5    1    3    3  501    0 -0.38354653962E+02  0.46781281739E+01  0.92165956967E+01  0.40000000000E+02  0.47000000000E+01 0. -1.
         -5    1    3    3    0  501  0.38354653962E+02 -0.46781281739E+01 -0.92165956967E+01  0.40000000000E+02  0.47000000000E+01 0.  1.
</event>
<event>
 5    1  0.4814700E-001  0.8000000E+02  0.7546771E-02  0.1203772E+00
         11   -1    0    0    0    0  0.00000000000E+00  0.00000000000E+00  0.40000000000E+02  0.40000000000E+02  0.00000000000E+00 0.  1.
        -11   -1    0    0    0    0 -0.00000000000E+00 -0.00000000000E+00 -0.40000000000E+02  0.40000000000E+02  0.00000000000E+00 0. -1.
         23    2    1    2    0    0  0.00000000000E+00  0.00000000000E+00  0.00000000000E+00  0.80000000000E+02  0.80000000000E+02 0.  0.
          5    1    3    3  501    0 -0.17334031877E+02 -0.21479268625E+02 -0.28567155235E+02  0.40000000000E+02  0.47000000000E+01 0. -1.
         -5    1    3    3    0  501  0.17334031877E+02  0.21479268625E+02  0.28567155235E+02  0.40000000000E+02  0.47000000000E+01 0.  1.
</event>
<event>
 5    1  0.4814700E-001  0.8000000E+02  0.7546771E-02  0.1203772E+00
         11   -1    0    0    0    0  0.00000000000E+00  0.00000000000E+00  0.40000000000E+02  0.40000000000E+02  0.00000000000E+00 0. -1.
        -11   -1    0    0    0    0 -0.00000000000E+00 -0.00000000000E+00 -0.40000000000E+02  0.40000000000E+02  0.00000000000E+00 0.  1.
         23    2    1    2    0    0  0.00000000000E+00  0.00000000000E+00  0.00000000000E+00  0.80000000000E+02  0.80000000000E+02 0.  0.
          5    1    3    3  501    0  0.35368639990E+02 -0.72290089579E+01  0.16574399981E+02  0.40000000000E+02  0.47000000000E+01 0. -1.
         -5    1    3    3    0  501 -0.35368639990E+02  0.72290089579E+01 -0.16574399981E+02  0.40000000000E+02  0.47000000000E+01 0.  1.
</event>
<event>
 5    1  0.4814700E-001  0.8000000E+02  0.7546771E-02  0.1203772E+00
         11   -1    0    0    0    0  0.00000000000E+00  0.00000000000E+00  0.40000000000E+02  0.40000000000E+02  0.00000000000E+00 0.  1.
        -11   -1    0    0    0    0 -0.00000000000E+00 -0.00000000000E+00 -0.40000000000E+02  0.40000000000E+02  0.00000000000E+00 0. -1.
         23    2    1    2    0    0  0.00000000000E+00  0.00000000000E+00  0.00000000000E+00  0.80000000000E+02  0.80000000000E+02 0.  0.
          5    1    3    3  501    0  0.24503631576E+02 -0.23859177125E+02  0.20204497186E+02  0.40000000000E+02  0.47000000000E+01 0.  1.
         -5    1    3    3    0  501 -0.24503631576E+02  0.23859177125E+02 -0.20204497186E+02  0.40000000000E+02  0.47000000000E+01 0.  1.
</event>
<event>
 5    1  0.4814700E-001  0.8000000E+02  0.7546771E-02  0.1203772E+00
         11   -1    0    0    0    0  0.00000000000E+00  0.00000000000E+00  0.40000000000E+02  0.40000000000E+02  0.00000000000E+00 0.  1.
        -11   -1    0    0    0    0 -0.00000000000E+00 -0.00000000000E+00 -0.40000000000E+02  0.40000000000E+02  0.00000000000E+00 0. -1.
         23    2    1    2    0    0  0.00000000000E+00  0.00000000000E+00  0.00000000000E+00  0.80000000000E+02  0.80000000000E+02 0.  0.
          5    1    3    3  501    0  0.66006663308E+01 -0.17934489654E+02 -0.34823774707E+02  0.40000000000E+02  0.47000000000E+01 0. -1.
         -5    1    3    3    0  501 -0.66006663308E+01  0.17934489654E+02  0.34823774707E+02  0.40000000000E+02  0.47000000000E+01 0.  1.
</event>
<event>
 5    1  0.4814700E-001  0.8000000E+02  0.7546771E-02  0.1203772E+00
         11   -1    0    0    0    0  0.00000000000E+00  0.00000000000E+00  0.40000000000E+02  0.40000000000E+02  0.00000000000E+00 0. -1.
        -11   -1    0    0    0    0 -0.00000000000E+00 -0.00000000000E+00 -0.40000000000E+02  0.40000000000E+02  0.00000000000E+00 0.  1.
         23    2    1    2    0    0  0.00000000000E+00  0.00000000000E+00  0.00000000000E+00  0.80000000000E+02  0.80000000000E+02 0.  0.
          5    1    3    3  501    0 -0.15426682081E+02 -0.21262985934E+02  0.29796189507E+02  0.40000000000E+02  0.47000000000E+01 0. -1.
         -5    1    3    3    0  501  0.15426682081E+02  0.21262985934E+02 -0.29796189507E+02  0.40000000000E+02  0.47000000000E+01 0.  1.
</event>
<event>
 5    1  0.4814700E-001  0.8000000E+02  0.7546771E-02  0.1203772E+00
         11   -1    0    0    0    0  0.00000000000E+00  0.00000000000E+00  0.40000000000E+02  0.40000000000E+02  0.00000000000E+00 0.  1.
        -11   -1    0    0    0    0 -0.00000000000E+00 -0.00000000000E+00 -0.40000000000E+02  0.40000000000E+02  0.00000000000E+00 0. -1.
         23    2    1    2    0    0  0.00000000000E+00  0.00000000000E+00  0.00000000000E+00  0.80000000000E+02  0.80000000000E+02 0.  0.
          5    1    3    3  501    0 -0.11454564710E+02  0.11947117774E+02 -0.36110515424E+02  0.40000000000E+02  0.47000000000E+01 0. -1.
         -5    1    3    3    0  501  0.11454564710E+02 -0.11947117774E+02  0.36110515424E+02  0.40000000000E+02  0.47000000000E+01 0.  1.
</event>
<event>
 5    1  0.4814700E-001  0.8000000E+02  0.7546771E-02  0.1203772E+00
         11   -1    0    0    0    0  0.00000000000E+00  0.00000000000E+00  0.40000000000E+02  0.40000000000E+02  0.00000000000E+00 0.  1.
        -11   -1    0    0    0    0 -0.00000000000E+00 -0.00000000000E+00 -0.40000000000E+02  0.40000000000E+02  0.00000000000E+00 0. -1.
         23    2    1    2    0    0  0.00000000000E+00  0.00000000000E+00  0.00000000000E+00  0.80000000000E+02  0.80000000000E+02 0.  0.
          5    1    3    3  501    0  0.13792781966E+02  0.12125952266E+02 -0.35222584336E+02  0.40000000000E+02  0.47000000000E+01 0. -1.
         -5    1    3    3    0  501 -0.13792781966E+02 -0.12125952266E+02  0.35222584336E+02  0.40000000000E+02  0.47000000000E+01 0.  1.
</event>
<event>
 5    1  0.4814700E-001  0.8000000E+02  0.7546771E-02  0.1203772E+00
         11   -1    0    0    0    0  0.00000000000E+00  0.00000000000E+00  0.40000000000E+02  0.40000000000E+02  0.00000000000E+00 0.  1.
        -11   -1    0    0    0    0 -0.00000000000E+00 -0.00000000000E+00 -0.40000000000E+02  0.40000000000E+02  0.00000000000E+00 0. -1.
         23    2    1    2    0    0  0.00000000000E+00  0.00000000000E+00  0.00000000000E+00  0.80000000000E+02  0.80000000000E+02 0.  0.
          5    1    3    3  501    0 -0.14534645825E+02  0.21058025427E+02 -0.30384430814E+02  0.40000000000E+02  0.47000000000E+01 0. -1.
         -5    1    3    3    0  501  0.14534645825E+02 -0.21058025427E+02  0.30384430814E+02  0.40000000000E+02  0.47000000000E+01 0.  1.
</event>
<event>
 5    1  0.4814700E-001  0.8000000E+02  0.7546771E-02  0.1203772E+00
         11   -1    0    0    0    0  0.00000000000E+00  0.00000000000E+00  0.40000000000E+02  0.40000000000E+02  0.00000000000E+00 0.  1.
        -11   -1    0    0    0    0 -0.00000000000E+00 -0.00000000000E+00 -0.40000000000E+02  0.40000000000E+02  0.00000000000E+00 0. -1.
         23    2    1    2    0    0  0.00000000000E+00  0.00000000000E+00  0.00000000000E+00  0.80000000000E+02  0.80000000000E+02 0.  0.
          5    1    3    3  501    0  0.26826907516E+02 -0.25915546706E+02 -0.13660580955E+02  0.40000000000E+02  0.47000000000E+01 0. -1.
         -5    1    3    3    0  501 -0.26826907516E+02  0.25915546706E+02  0.13660580955E+02  0.40000000000E+02  0.47000000000E+01 0.  1.
</event>
<event>
 5    1  0.4814700E-001  0.8000000E+02  0.7546771E-02  0.1203772E+00
         11   -1    0    0    0    0  0.00000000000E+00  0.00000000000E+00  0.40000000000E+02  0.40000000000E+02  0.00000000000E+00 0.  1.
        -11   -1    0    0    0    0 -0.00000000000E+00 -0.00000000000E+00 -0.40000000000E+02  0.40000000000E+02  0.00000000000E+00 0. -1.
         23    2    1    2    0    0  0.00000000000E+00  0.00000000000E+00  0.00000000000E+00  0.80000000000E+02  0.80000000000E+02 0.  0.
          5    1    3    3  501    0 -0.21872830838E+02  0.16544523894E+02 -0.28736179292E+02  0.40000000000E+02  0.47000000000E+01 0. -1.
         -5    1    3    3    0  501  0.21872830838E+02 -0.16544523894E+02  0.28736179292E+02  0.40000000000E+02  0.47000000000E+01 0.  1.
</event>
<event>
 5    1  0.4814700E-001  0.8000000E+02  0.7546771E-02  0.1203772E+00
         11   -1    0    0    0    0  0.00000000000E+00  0.00000000000E+00  0.40000000000E+02  0.40000000000E+02  0.00000000000E+00 0. -1.
        -11   -1    0    0    0    0 -0.00000000000E+00 -0.00000000000E+00 -0.40000000000E+02  0.40000000000E+02  0.00000000000E+00 0.  1.
         23    2    1    2    0    0  0.00000000000E+00  0.00000000000E+00  0.00000000000E+00  0.80000000000E+02  0.80000000000E+02 0.  0.
          5    1    3    3  501    0  0.12268376423E+02 -0.14308155240E+02  0.34966750401E+02  0.40000000000E+02  0.47000000000E+01 0. -1.
         -5    1    3    3    0  501 -0.12268376423E+02  0.14308155240E+02 -0.34966750401E+02  0.40000000000E+02  0.47000000000E+01 0.  1.
</event>
<event>
 5    1  0.4814700E-001  0.8000000E+02  0.7546771E-02  0.1203772E+00
         11   -1    0    0    0    0  0.00000000000E+00  0.00000000000E+00  0.40000000000E+02  0.40000000000E+02  0.00000000000E+00 0.  1.
        -11   -1    0    0    0    0 -0.00000000000E+00 -0.00000000000E+00 -0.40000000000E+02  0.40000000000E+02  0.00000000000E+00 0. -1.
         23    2    1    2    0    0  0.00000000000E+00  0.00000000000E+00  0.00000000000E+00  0.80000000000E+02  0.80000000000E+02 0.  0.
          5    1    3    3  501    0  0.37809712614E+02  0.12178611533E+02 -0.13058783559E+00  0.40000000000E+02  0.47000000000E+01 0. -1.
         -5    1    3    3    0  501 -0.37809712614E+02 -0.12178611533E+02  0.13058783559E+00  0.40000000000E+02  0.47000000000E+01 0.  1.
</event>
<event>
 5    1  0.4814700E-001  0.8000000E+02  0.7546771E-02  0.1203772E+00
         11   -1    0    0    0    0  0.00000000000E+00  0.00000000000E+00  0.40000000000E+02  0.40000000000E+02  0.00000000000E+00 0.  1.
        -11   -1    0    0    0    0 -0.00000000000E+00 -0.00000000000E+00 -0.40000000000E+02  0.40000000000E+02  0.00000000000E+00 0. -1.
         23    2    1    2    0    0  0.00000000000E+00  0.00000000000E+00  0.00000000000E+00  0.80000000000E+02  0.80000000000E+02 0.  0.
          5    1    3    3  501    0 -0.37635829836E+02 -0.69228979181E+01 -0.10654942371E+02  0.40000000000E+02  0.47000000000E+01 0. -1.
         -5    1    3    3    0  501  0.37635829836E+02  0.69228979181E+01  0.10654942371E+02  0.40000000000E+02  0.47000000000E+01 0.  1.
</event>
<event>
 5    1  0.4814700E-001  0.8000000E+02  0.7546771E-02  0.1203772E+00
         11   -1    0    0    0    0  0.00000000000E+00  0.00000000000E+00  0.40000000000E+02  0.40000000000E+02  0.00000000000E+00 0.  1.
        -11   -1    0    0    0    0 -0.00000000000E+00 -0.00000000000E+00 -0.40000000000E+02  0.40000000000E+02  0.00000000000E+00 0. -1.
         23    2    1    2    0    0  0.00000000000E+00  0.00000000000E+00  0.00000000000E+00  0.80000000000E+02  0.80000000000E+02 0.  0.
          5    1    3    3  501    0 -0.29500426835E+02  0.32204804621E+01 -0.26405744113E+02  0.40000000000E+02  0.47000000000E+01 0. -1.
         -5    1    3    3    0  501  0.29500426835E+02 -0.32204804621E+01  0.26405744113E+02  0.40000000000E+02  0.47000000000E+01 0.  1.
</event>
<event>
 5    1  0.4814700E-001  0.8000000E+02  0.7546771E-02  0.1203772E+00
         11   -1    0    0    0    0  0.00000000000E+00  0.00000000000E+00  0.40000000000E+02  0.40000000000E+02  0.00000000000E+00 0.  1.
        -11   -1    0    0    0    0 -0.00000000000E+00 -0.00000000000E+00 -0.40000000000E+02  0.40000000000E+02  0.00000000000E+00 0. -1.
         23    2    1    2    0    0  0.00000000000E+00  0.00000000000E+00  0.00000000000E+00  0.80000000000E+02  0.80000000000E+02 0.  0.
          5    1    3    3  501    0 -0.26917504628E+02  0.28548328395E+02  0.61928095762E+01  0.40000000000E+02  0.47000000000E+01 0. -1.
         -5    1    3    3    0  501  0.26917504628E+02 -0.28548328395E+02 -0.61928095762E+01  0.40000000000E+02  0.47000000000E+01 0.  1.
</event>
<event>
 5    1  0.4814700E-001  0.8000000E+02  0.7546771E-02  0.1203772E+00
         11   -1    0    0    0    0  0.00000000000E+00  0.00000000000E+00  0.40000000000E+02  0.40000000000E+02  0.00000000000E+00 0. -1.
        -11   -1    0    0    0    0 -0.00000000000E+00 -0.00000000000E+00 -0.40000000000E+02  0.40000000000E+02  0.00000000000E+00 0.  1.
         23    2    1    2    0    0  0.00000000000E+00  0.00000000000E+00  0.00000000000E+00  0.80000000000E+02  0.80000000000E+02 0.  0.
          5    1    3    3  501    0 -0.19622218972E+02 -0.10052439944E+02  0.33042805174E+02  0.40000000000E+02  0.47000000000E+01 0. -1.
         -5    1    3    3    0  501  0.19622218972E+02  0.10052439944E+02 -0.33042805174E+02  0.40000000000E+02  0.47000000000E+01 0.  1.
</event>
<event>
 5    1  0.4814700E-001  0.8000000E+02  0.7546771E-02  0.1203772E+00
         11   -1    0    0    0    0  0.00000000000E+00  0.00000000000E+00  0.40000000000E+02  0.40000000000E+02  0.00000000000E+00 0.  1.
        -11   -1    0    0    0    0 -0.00000000000E+00 -0.00000000000E+00 -0.40000000000E+02  0.40000000000E+02  0.00000000000E+00 0. -1.
         23    2    1    2    0    0  0.00000000000E+00  0.00000000000E+00  0.00000000000E+00  0.80000000000E+02  0.80000000000E+02 0.  0.
          5    1    3    3  501    0 -0.33452923329E+02 -0.20175869109E+02  0.71934849998E+01  0.40000000000E+02  0.47000000000E+01 0. -1.
         -5    1    3    3    0  501  0.33452923329E+02  0.20175869109E+02 -0.71934849998E+01  0.40000000000E+02  0.47000000000E+01 0.  1.
</event>
<event>
 5    1  0.4814700E-001  0.8000000E+02  0.7546771E-02  0.1203772E+00
         11   -1    0    0    0    0  0.00000000000E+00  0.00000000000E+00  0.40000000000E+02  0.40000000000E+02  0.00000000000E+00 0.  1.
        -11   -1    0    0    0    0 -0.00000000000E+00 -0.00000000000E+00 -0.40000000000E+02  0.40000000000E+02  0.00000000000E+00 0. -1.
         23    2    1    2    0    0  0.00000000000E+00  0.00000000000E+00  0.00000000000E+00  0.80000000000E+02  0.80000000000E+02 0.  0.
          5    1    3    3  501    0  0.14587499969E+01 -0.31265111675E+02  0.24459657405E+02  0.40000000000E+02  0.47000000000E+01 0. -1.
         -5    1    3    3    0  501 -0.14587499969E+01  0.31265111675E+02 -0.24459657405E+02  0.40000000000E+02  0.47000000000E+01 0.  1.
</event>
<event>
 5    1  0.4814700E-001  0.8000000E+02  0.7546771E-02  0.1203772E+00
         11   -1    0    0    0    0  0.00000000000E+00  0.00000000000E+00  0.40000000000E+02  0.40000000000E+02  0.00000000000E+00 0. -1.
        -11   -1    0    0    0    0 -0.00000000000E+00 -0.00000000000E+00 -0.40000000000E+02  0.40000000000E+02  0.00000000000E+00 0.  1.
         23    2    1    2    0    0  0.00000000000E+00  0.00000000000E+00  0.00000000000E+00  0.80000000000E+02  0.80000000000E+02 0.  0.
          5    1    3    3  501    0 -0.53205178945E+01  0.12045340398E+02  0.37476817688E+02  0.40000000000E+02  0.47000000000E+01 0. -1.
         -5    1    3    3    0  501  0.53205178945E+01 -0.12045340398E+02 -0.37476817688E+02  0.40000000000E+02  0.47000000000E+01 0.  1.
</event>
<event>
 5    1  0.4814700E-001  0.8000000E+02  0.7546771E-02  0.1203772E+00
         11   -1    0    0    0    0  0.00000000000E+00  0.00000000000E+00  0.40000000000E+02  0.40000000000E+02  0.00000000000E+00 0. -1.
        -11   -1    0    0    0    0 -0.00000000000E+00 -0.00000000000E+00 -0.40000000000E+02  0.40000000000E+02  0.00000000000E+00 0.  1.
         23    2    1    2    0    0  0.00000000000E+00  0.00000000000E+00  0.00000000000E+00  0.80000000000E+02  0.80000000000E+02 0.  0.
          5    1    3    3  501    0  0.14105187575E+01  0.34018064054E+02 -0.20461958725E+02  0.40000000000E+02  0.47000000000E+01 0.  1.
         -5    1    3    3    0  501 -0.14105187575E+01 -0.34018064054E+02  0.20461958725E+02  0.40000000000E+02  0.47000000000E+01 0. -1.
</event>
<event>
 5    1  0.4814700E-001  0.8000000E+02  0.7546771E-02  0.1203772E+00
         11   -1    0    0    0    0  0.00000000000E+00  0.00000000000E+00  0.40000000000E+02  0.40000000000E+02  0.00000000000E+00 0.  1.
        -11   -1    0    0    0    0 -0.00000000000E+00 -0.00000000000E+00 -0.40000000000E+02  0.40000000000E+02  0.00000000000E+00 0. -1.
         23    2    1    2    0    0  0.00000000000E+00  0.00000000000E+00  0.00000000000E+00  0.80000000000E+02  0.80000000000E+02 0.  0.
          5    1    3    3  501    0  0.37247639120E+02 -0.13290738864E+02 -0.37255389493E+01  0.40000000000E+02  0.47000000000E+01 0. -1.
         -5    1    3    3    0  501 -0.37247639120E+02  0.13290738864E+02  0.37255389493E+01  0.40000000000E+02  0.47000000000E+01 0.  1.
</event>
<event>
 5    1  0.4814700E-001  0.8000000E+02  0.7546771E-02  0.1203772E+00
         11   -1    0    0    0    0  0.00000000000E+00  0.00000000000E+00  0.40000000000E+02  0.40000000000E+02  0.00000000000E+00 0. -1.
        -11   -1    0    0    0    0 -0.00000000000E+00 -0.00000000000E+00 -0.40000000000E+02  0.40000000000E+02  0.00000000000E+00 0.  1.
         23    2    1    2    0    0  0.00000000000E+00  0.00000000000E+00  0.00000000000E+00  0.80000000000E+02  0.80000000000E+02 0.  0.
          5    1    3    3  501    0  0.18687682055E+02  0.71563847970E+01  0.34314234598E+02  0.40000000000E+02  0.47000000000E+01 0. -1.
         -5    1    3    3    0  501 -0.18687682055E+02 -0.71563847970E+01 -0.34314234598E+02  0.40000000000E+02  0.47000000000E+01 0.  1.
</event>
<event>
 5    1  0.4814700E-001  0.8000000E+02  0.7546771E-02  0.1203772E+00
         11   -1    0    0    0    0  0.00000000000E+00  0.00000000000E+00  0.40000000000E+02  0.40000000000E+02  0.00000000000E+00 0.  1.
        -11   -1    0    0    0    0 -0.00000000000E+00 -0.00000000000E+00 -0.40000000000E+02  0.40000000000E+02  0.00000000000E+00 0. -1.
         23    2    1    2    0    0  0.00000000000E+00  0.00000000000E+00  0.00000000000E+00  0.80000000000E+02  0.80000000000E+02 0.  0.
          5    1    3    3  501    0  0.34066918248E+02  0.68171407455E+01 -0.19258288427E+02  0.40000000000E+02  0.47000000000E+01 0. -1.
         -5    1    3    3    0  501 -0.34066918248E+02 -0.68171407455E+01  0.19258288427E+02  0.40000000000E+02  0.47000000000E+01 0.  1.
</event>
<event>
 5    1  0.4814700E-001  0.8000000E+02  0.7546771E-02  0.1203772E+00
         11   -1    0    0    0    0  0.00000000000E+00  0.00000000000E+00  0.40000000000E+02  0.40000000000E+02  0.00000000000E+00 0.  1.
        -11   -1    0    0    0    0 -0.00000000000E+00 -0.00000000000E+00 -0.40000000000E+02  0.40000000000E+02  0.00000000000E+00 0. -1.
         23    2    1    2    0    0  0.00000000000E+00  0.00000000000E+00  0.00000000000E+00  0.80000000000E+02  0.80000000000E+02 0.  0.
          5    1    3    3  501    0 -0.14686888321E+02  0.27579721667E+02 -0.24526807053E+02  0.40000000000E+02  0.47000000000E+01 0. -1.
         -5    1    3    3    0  501  0.14686888321E+02 -0.27579721667E+02  0.24526807053E+02  0.40000000000E+02  0.47000000000E+01 0.  1.
</event>
<event>
 5    1  0.4814700E-001  0.8000000E+02  0.7546771E-02  0.1203772E+00
         11   -1    0    0    0    0  0.00000000000E+00  0.00000000000E+00  0.40000000000E+02  0.40000000000E+02  0.00000000000E+00 0. -1.
        -11   -1    0    0    0    0 -0.00000000000E+00 -0.00000000000E+00 -0.40000000000E+02  0.40000000000E+02  0.00000000000E+00 0.  1.
         23    2    1    2    0    0  0.00000000000E+00  0.00000000000E+00  0.00000000000E+00  0.80000000000E+02  0.80000000000E+02 0.  0.
          5    1    3    3  501    0 -0.12467386368E+02 -0.53268921973E+01  0.37337628428E+02  0.40000000000E+02  0.47000000000E+01 0. -1.
         -5    1    3    3    0  501  0.12467386368E+02  0.53268921973E+01 -0.37337628428E+02  0.40000000000E+02  0.47000000000E+01 0.  1.
</event>
<event>
 5    1  0.4814700E-001  0.8000000E+02  0.7546771E-02  0.1203772E+00
         11   -1    0    0    0    0  0.00000000000E+00  0.00000000000E+00  0.40000000000E+02  0.40000000000E+02  0.00000000000E+00 0.  1.
        -11   -1    0    0    0    0 -0.00000000000E+00 -0.00000000000E+00 -0.40000000000E+02  0.40000000000E+02  0.00000000000E+00 0. -1.
         23    2    1    2    0    0  0.00000000000E+00  0.00000000000E+00  0.00000000000E+00  0.80000000000E+02  0.80000000000E+02 0.  0.
          5    1    3    3  501    0 -0.87810467940E+01  0.17966577384E+02 -0.34322082022E+02  0.40000000000E+02  0.47000000000E+01 0. -1.
         -5    1    3    3    0  501  0.87810467940E+01 -0.17966577384E+02  0.34322082022E+02  0.40000000000E+02  0.47000000000E+01 0.  1.
</event>
<event>
 5    1  0.4814700E-001  0.8000000E+02  0.7546771E-02  0.1203772E+00
         11   -1    0    0    0    0  0.00000000000E+00  0.00000000000E+00  0.40000000000E+02  0.40000000000E+02  0.00000000000E+00 0.  1.
        -11   -1    0    0    0    0 -0.00000000000E+00 -0.00000000000E+00 -0.40000000000E+02  0.40000000000E+02  0.00000000000E+00 0. -1.
         23    2    1    2    0    0  0.00000000000E+00  0.00000000000E+00  0.00000000000E+00  0.80000000000E+02  0.80000000000E+02 0.  0.
          5    1    3    3  501    0 -0.34310707100E+01  0.54221402889E+01 -0.39201251874E+02  0.40000000000E+02  0.47000000000E+01 0. -1.
         -5    1    3    3    0  501  0.34310707100E+01 -0.54221402889E+01  0.39201251874E+02  0.40000000000E+02  0.47000000000E+01 0.  1.
</event>
<event>
 5    1  0.4814700E-001  0.8000000E+02  0.7546771E-02  0.1203772E+00
         11   -1    0    0    0    0  0.00000000000E+00  0.00000000000E+00  0.40000000000E+02  0.40000000000E+02  0.00000000000E+00 0.  1.
        -11   -1    0    0    0    0 -0.00000000000E+00 -0.00000000000E+00 -0.40000000000E+02  0.40000000000E+02  0.00000000000E+00 0. -1.
         23    2    1    2    0    0  0.00000000000E+00  0.00000000000E+00  0.00000000000E+00  0.80000000000E+02  0.80000000000E+02 0.  0.
          5    1    3    3  501    0 -0.81762994207E+01  0.15934596708E+02 -0.35456265392E+02  0.40000000000E+02  0.47000000000E+01 0. -1.
         -5    1    3    3    0  501  0.81762994207E+01 -0.15934596708E+02  0.35456265392E+02  0.40000000000E+02  0.47000000000E+01 0.  1.
</event>
<event>
 5    1  0.4814700E-001  0.8000000E+02  0.7546771E-02  0.1203772E+00
         11   -1    0    0    0    0  0.00000000000E+00  0.00000000000E+00  0.40000000000E+02  0.40000000000E+02  0.00000000000E+00 0. -1.
        -11   -1    0    0    0    0 -0.00000000000E+00 -0.00000000000E+00 -0.40000000000E+02  0.40000000000E+02  0.00000000000E+00 0.  1.
         23    2    1    2    0    0  0.00000000000E+00  0.00000000000E+00  0.00000000000E+00  0.80000000000E+02  0.80000000000E+02 0.  0.
          5    1    3    3  501    0  0.37079468675E+02 -0.94223086374E+01  0.10688456516E+02  0.40000000000E+02  0.47000000000E+01 0. -1.
         -5    1    3    3    0  501 -0.37079468675E+02  0.94223086374E+01 -0.10688456516E+02  0.40000000000E+02  0.47000000000E+01 0.  1.
</event>
<event>
 5    1  0.4814700E-001  0.8000000E+02  0.7546771E-02  0.1203772E+00
         11   -1    0    0    0    0  0.00000000000E+00  0.00000000000E+00  0.40000000000E+02  0.40000000000E+02  0.00000000000E+00 0. -1.
        -11   -1    0    0    0    0 -0.00000000000E+00 -0.00000000000E+00 -0.40000000000E+02  0.40000000000E+02  0.00000000000E+00 0.  1.
         23    2    1    2    0    0  0.00000000000E+00  0.00000000000E+00  0.00000000000E+00  0.80000000000E+02  0.80000000000E+02 0.  0.
          5    1    3    3  501    0  0.40848201610E+01 -0.48008591808E+01  0.39219586884E+02  0.40000000000E+02  0.47000000000E+01 0. -1.
         -5    1    3    3    0  501 -0.40848201610E+01  0.48008591808E+01 -0.39219586884E+02  0.40000000000E+02  0.47000000000E+01 0.  1.
</event>
<event>
 5    1  0.4814700E-001  0.8000000E+02  0.7546771E-02  0.1203772E+00
         11   -1    0    0    0    0  0.00000000000E+00  0.00000000000E+00  0.40000000000E+02  0.40000000000E+02  0.00000000000E+00 0.  1.
        -11   -1    0    0    0    0 -0.00000000000E+00 -0.00000000000E+00 -0.40000000000E+02  0.40000000000E+02  0.00000000000E+00 0. -1.
         23    2    1    2    0    0  0.00000000000E+00  0.00000000000E+00  0.00000000000E+00  0.80000000000E+02  0.80000000000E+02 0.  0.
          5    1    3    3  501    0  0.33176599341E+02  0.20744403365E+02  0.68478452928E+01  0.40000000000E+02  0.47000000000E+01 0. -1.
         -5    1    3    3    0  501 -0.33176599341E+02 -0.20744403365E+02 -0.68478452928E+01  0.40000000000E+02  0.47000000000E+01 0.  1.
</event>
<event>
 5    1  0.4814700E-001  0.8000000E+02  0.7546771E-02  0.1203772E+00
         11   -1    0    0    0    0  0.00000000000E+00  0.00000000000E+00  0.40000000000E+02  0.40000000000E+02  0.00000000000E+00 0. -1.
        -11   -1    0    0    0    0 -0.00000000000E+00 -0.00000000000E+00 -0.40000000000E+02  0.40000000000E+02  0.00000000000E+00 0.  1.
         23    2    1    2    0    0  0.00000000000E+00  0.00000000000E+00  0.00000000000E+00  0.80000000000E+02  0.80000000000E+02 0.  0.
          5    1    3    3  501    0  0.28152342895E+02  0.65868467297E+01 -0.27239108643E+02  0.40000000000E+02  0.47000000000E+01 0.  1.
         -5    1    3    3    0  501 -0.28152342895E+02 -0.65868467297E+01  0.27239108643E+02  0.40000000000E+02  0.47000000000E+01 0. -1.
</event>
<event>
 5    1  0.4814700E-001  0.8000000E+02  0.7546771E-02  0.1203772E+00
         11   -1    0    0    0    0  0.00000000000E+00  0.00000000000E+00  0.40000000000E+02  0.40000000000E+02  0.00000000000E+00 0. -1.
        -11   -1    0    0    0    0 -0.00000000000E+00 -0.00000000000E+00 -0.40000000000E+02  0.40000000000E+02  0.00000000000E+00 0.  1.
         23    2    1    2    0    0  0.00000000000E+00  0.00000000000E+00  0.00000000000E+00  0.80000000000E+02  0.80000000000E+02 0.  0.
          5    1    3    3  501    0 -0.16027653274E+02  0.18140542227E+02  0.31495159283E+02  0.40000000000E+02  0.47000000000E+01 0. -1.
         -5    1    3    3    0  501  0.16027653274E+02 -0.18140542227E+02 -0.31495159283E+02  0.40000000000E+02  0.47000000000E+01 0.  1.
</event>
<event>
 5    1  0.4814700E-001  0.8000000E+02  0.7546771E-02  0.1203772E+00
         11   -1    0    0    0    0  0.00000000000E+00  0.00000000000E+00  0.40000000000E+02  0.40000000000E+02  0.00000000000E+00 0.  1.
        -11   -1    0    0    0    0 -0.00000000000E+00 -0.00000000000E+00 -0.40000000000E+02  0.40000000000E+02  0.00000000000E+00 0. -1.
         23    2    1    2    0    0  0.00000000000E+00  0.00000000000E+00  0.00000000000E+00  0.80000000000E+02  0.80000000000E+02 0.  0.
          5    1    3    3  501    0 -0.99896231482E+00 -0.88938867284E+01 -0.38701561379E+02  0.40000000000E+02  0.47000000000E+01 0. -1.
         -5    1    3    3    0  501  0.99896231482E+00  0.88938867284E+01  0.38701561379E+02  0.40000000000E+02  0.47000000000E+01 0.  1.
</event>
<event>
 5    1  0.4814700E-001  0.8000000E+02  0.7546771E-02  0.1203772E+00
         11   -1    0    0    0    0  0.00000000000E+00  0.00000000000E+00  0.40000000000E+02  0.40000000000E+02  0.00000000000E+00 0.  1.
        -11   -1    0    0    0    0 -0.00000000000E+00 -0.00000000000E+00 -0.40000000000E+02  0.40000000000E+02  0.00000000000E+00 0. -1.
         23    2    1    2    0    0  0.00000000000E+00  0.00000000000E+00  0.00000000000E+00  0.80000000000E+02  0.80000000000E+02 0.  0.
          5    1    3    3  501    0 -0.12488641558E+02 -0.37613495808E+02  0.26774549716E+01  0.40000000000E+02  0.47000000000E+01 0. -1.
         -5    1    3    3    0  501  0.12488641558E+02  0.37613495808E+02 -0.26774549716E+01  0.40000000000E+02  0.47000000000E+01 0.  1.
</event>
<event>
 5    1  0.4814700E-001  0.8000000E+02  0.7546771E-02  0.1203772E+00
         11   -1    0    0    0    0  0.00000000000E+00  0.00000000000E+00  0.40000000000E+02  0.40000000000E+02  0.00000000000E+00 0.  1.
        -11   -1    0    0    0    0 -0.00000000000E+00 -0.00000000000E+00 -0.40000000000E+02  0.40000000000E+02  0.00000000000E+00 0. -1.
         23    2    1    2    0    0  0.00000000000E+00  0.00000000000E+00  0.00000000000E+00  0.80000000000E+02  0.80000000000E+02 0.  0.
          5    1    3    3  501    0 -0.27672944583E+02  0.51600463008E+01 -0.28026631269E+02  0.40000000000E+02  0.47000000000E+01 0. -1.
         -5    1    3    3    0  501  0.27672944583E+02 -0.51600463008E+01  0.28026631269E+02  0.40000000000E+02  0.47000000000E+01 0.  1.
</event>
<event>
 5    1  0.4814700E-001  0.8000000E+02  0.7546771E-02  0.1203772E+00
         11   -1    0    0    0    0  0.00000000000E+00  0.00000000000E+00  0.40000000000E+02  0.40000000000E+02  0.00000000000E+00 0.  1.
        -11   -1    0    0    0    0 -0.00000000000E+00 -0.00000000000E+00 -0.40000000000E+02  0.40000000000E+02  0.00000000000E+00 0. -1.
         23    2    1    2    0    0  0.00000000000E+00  0.00000000000E+00  0.00000000000E+00  0.80000000000E+02  0.80000000000E+02 0.  0.
          5    1    3    3  501    0 -0.17491849799E+02 -0.34335654954E+02 -0.96440649903E+01  0.40000000000E+02  0.47000000000E+01 0. -1.
         -5    1    3    3    0  501  0.17491849799E+02  0.34335654954E+02  0.96440649903E+01  0.40000000000E+02  0.47000000000E+01 0.  1.
</event>
<event>
 5    1  0.4814700E-001  0.8000000E+02  0.7546771E-02  0.1203772E+00
         11   -1    0    0    0    0  0.00000000000E+00  0.00000000000E+00  0.40000000000E+02  0.40000000000E+02  0.00000000000E+00 0. -1.
        -11   -1    0    0    0    0 -0.00000000000E+00 -0.00000000000E+00 -0.40000000000E+02  0.40000000000E+02  0.00000000000E+00 0.  1.
         23    2    1    2    0    0  0.00000000000E+00  0.00000000000E+00  0.00000000000E+00  0.80000000000E+02  0.80000000000E+02 0.  0.
          5    1    3    3  501    0 -0.54396127915E+01  0.38214061174E+02  0.93811588436E+01  0.40000000000E+02  0.47000000000E+01 0. -1.
         -5    1    3    3    0  501  0.54396127915E+01 -0.38214061174E+02 -0.93811588436E+01  0.40000000000E+02  0.47000000000E+01 0.  1.
</event>
<event>
 5    1  0.4814700E-001  0.8000000E+02  0.7546771E-02  0.1203772E+00
         11   -1    0    0    0    0  0.00000000000E+00  0.00000000000E+00  0.40000000000E+02  0.40000000000E+02  0.00000000000E+00 0. -1.
        -11   -1    0    0    0    0 -0.00000000000E+00 -0.00000000000E+00 -0.40000000000E+02  0.40000000000E+02  0.00000000000E+00 0.  1.
         23    2    1    2    0    0  0.00000000000E+00  0.00000000000E+00  0.00000000000E+00  0.80000000000E+02  0.80000000000E+02 0.  0.
          5    1    3    3  501    0  0.13094609722E+02  0.27444073434E+02  0.25559030294E+02  0.40000000000E+02  0.47000000000E+01 0. -1.
         -5    1    3    3    0  501 -0.13094609722E+02 -0.27444073434E+02 -0.25559030294E+02  0.40000000000E+02  0.47000000000E+01 0.  1.
</event>
<event>
 5    1  0.4814700E-001  0.8000000E+02  0.7546771E-02  0.1203772E+00
         11   -1    0    0    0    0  0.00000000000E+00  0.00000000000E+00  0.40000000000E+02  0.40000000000E+02  0.00000000000E+00 0.  1.
        -11   -1    0    0    0    0 -0.00000000000E+00 -0.00000000000E+00 -0.40000000000E+02  0.40000000000E+02  0.00000000000E+00 0. -1.
         23    2    1    2    0    0  0.00000000000E+00  0.00000000000E+00  0.00000000000E+00  0.80000000000E+02  0.80000000000E+02 0.  0.
          5    1    3    3  501    0 -0.11899391200E+02 -0.17199288482E+02 -0.33771274255E+02  0.40000000000E+02  0.47000000000E+01 0. -1.
         -5    1    3    3    0  501  0.11899391200E+02  0.17199288482E+02  0.33771274255E+02  0.40000000000E+02  0.47000000000E+01 0.  1.
</event>
<event>
 5    1  0.4814700E-001  0.8000000E+02  0.7546771E-02  0.1203772E+00
         11   -1    0    0    0    0  0.00000000000E+00  0.00000000000E+00  0.40000000000E+02  0.40000000000E+02  0.00000000000E+00 0.  1.
        -11   -1    0    0    0    0 -0.00000000000E+00 -0.00000000000E+00 -0.40000000000E+02  0.40000000000E+02  0.00000000000E+00 0. -1.
         23    2    1    2    0    0  0.00000000000E+00  0.00000000000E+00  0.00000000000E+00  0.80000000000E+02  0.80000000000E+02 0.  0.
          5    1    3    3  501    0 -0.29348634882E+02 -0.19162427438E+02 -0.18691415282E+02  0.40000000000E+02  0.47000000000E+01 0. -1.
         -5    1    3    3    0  501  0.29348634882E+02  0.19162427438E+02  0.18691415282E+02  0.40000000000E+02  0.47000000000E+01 0.  1.
</event>
<event>
 5    1  0.4814700E-001  0.8000000E+02  0.7546771E-02  0.1203772E+00
         11   -1    0    0    0    0  0.00000000000E+00  0.00000000000E+00  0.40000000000E+02  0.40000000000E+02  0.00000000000E+00 0. -1.
        -11   -1    0    0    0    0 -0.00000000000E+00 -0.00000000000E+00 -0.40000000000E+02  0.40000000000E+02  0.00000000000E+00 0.  1.
         23    2    1    2    0    0  0.00000000000E+00  0.00000000000E+00  0.00000000000E+00  0.80000000000E+02  0.80000000000E+02 0.  0.
          5    1    3    3  501    0 -0.19194292523E+02  0.21765128307E+02  0.27125049757E+02  0.40000000000E+02  0.47000000000E+01 0. -1.
         -5    1    3    3    0  501  0.19194292523E+02 -0.21765128307E+02 -0.27125049757E+02  0.40000000000E+02  0.47000000000E+01 0.  1.
</event>
<event>
 5    1  0.4814700E-001  0.8000000E+02  0.7546771E-02  0.1203772E+00
         11   -1    0    0    0    0  0.00000000000E+00  0.00000000000E+00  0.40000000000E+02  0.40000000000E+02  0.00000000000E+00 0. -1.
        -11   -1    0    0    0    0 -0.00000000000E+00 -0.00000000000E+00 -0.40000000000E+02  0.40000000000E+02  0.00000000000E+00 0.  1.
         23    2    1    2    0    0  0.00000000000E+00  0.00000000000E+00  0.00000000000E+00  0.80000000000E+02  0.80000000000E+02 0.  0.
          5    1    3    3  501    0  0.23585044877E+02 -0.31234691693E+02 -0.67859924073E+01  0.40000000000E+02  0.47000000000E+01 0. -1.
         -5    1    3    3    0  501 -0.23585044877E+02  0.31234691693E+02  0.67859924073E+01  0.40000000000E+02  0.47000000000E+01 0.  1.
</event>
<event>
 5    1  0.4814700E-001  0.8000000E+02  0.7546771E-02  0.1203772E+00
         11   -1    0    0    0    0  0.00000000000E+00  0.00000000000E+00  0.40000000000E+02  0.40000000000E+02  0.00000000000E+00 0. -1.
        -11   -1    0    0    0    0 -0.00000000000E+00 -0.00000000000E+00 -0.40000000000E+02  0.40000000000E+02  0.00000000000E+00 0.  1.
         23    2    1    2    0    0  0.00000000000E+00  0.00000000000E+00  0.00000000000E+00  0.80000000000E+02  0.80000000000E+02 0.  0.
          5    1    3    3  501    0 -0.38734269703E+02 -0.87677903780E+01 -0.83198705186E+00  0.40000000000E+02  0.47000000000E+01 0. -1.
         -5    1    3    3    0  501  0.38734269703E+02  0.87677903780E+01  0.83198705186E+00  0.40000000000E+02  0.47000000000E+01 0.  1.
</event>
<event>
 5    1  0.4814700E-001  0.8000000E+02  0.7546771E-02  0.1203772E+00
         11   -1    0    0    0    0  0.00000000000E+00  0.00000000000E+00  0.40000000000E+02  0.40000000000E+02  0.00000000000E+00 0. -1.
        -11   -1    0    0    0    0 -0.00000000000E+00 -0.00000000000E+00 -0.40000000000E+02  0.40000000000E+02  0.00000000000E+00 0.  1.
         23    2    1    2    0    0  0.00000000000E+00  0.00000000000E+00  0.00000000000E+00  0.80000000000E+02  0.80000000000E+02 0.  0.
          5    1    3    3  501    0  0.20803916344E+02 -0.41393498668E+01  0.33585307017E+02  0.40000000000E+02  0.47000000000E+01 0. -1.
         -5    1    3    3    0  501 -0.20803916344E+02  0.41393498668E+01 -0.33585307017E+02  0.40000000000E+02  0.47000000000E+01 0.  1.
</event>
<event>
 5    1  0.4814700E-001  0.8000000E+02  0.7546771E-02  0.1203772E+00
         11   -1    0    0    0    0  0.00000000000E+00  0.00000000000E+00  0.40000000000E+02  0.40000000000E+02  0.00000000000E+00 0. -1.
        -11   -1    0    0    0    0 -0.00000000000E+00 -0.00000000000E+00 -0.40000000000E+02  0.40000000000E+02  0.00000000000E+00 0.  1.
         23    2    1    2    0    0  0.00000000000E+00  0.00000000000E+00  0.00000000000E+00  0.80000000000E+02  0.80000000000E+02 0.  0.
          5    1    3    3  501    0  0.12341486796E+02  0.31878379954E+02  0.20232809868E+02  0.40000000000E+02  0.47000000000E+01 0. -1.
         -5    1    3    3    0  501 -0.12341486796E+02 -0.31878379954E+02 -0.20232809868E+02  0.40000000000E+02  0.47000000000E+01 0.  1.
</event>
<event>
 5    1  0.4814700E-001  0.8000000E+02  0.7546771E-02  0.1203772E+00
         11   -1    0    0    0    0  0.00000000000E+00  0.00000000000E+00  0.40000000000E+02  0.40000000000E+02  0.00000000000E+00 0. -1.
        -11   -1    0    0    0    0 -0.00000000000E+00 -0.00000000000E+00 -0.40000000000E+02  0.40000000000E+02  0.00000000000E+00 0.  1.
         23    2    1    2    0    0  0.00000000000E+00  0.00000000000E+00  0.00000000000E+00  0.80000000000E+02  0.80000000000E+02 0.  0.
          5    1    3    3  501    0  0.88845395194E+01 -0.36807011567E+02  0.12009115581E+02  0.40000000000E+02  0.47000000000E+01 0. -1.
         -5    1    3    3    0  501 -0.88845395194E+01  0.36807011567E+02 -0.12009115581E+02  0.40000000000E+02  0.47000000000E+01 0.  1.
</event>
<event>
 5    1  0.4814700E-001  0.8000000E+02  0.7546771E-02  0.1203772E+00
         11   -1    0    0    0    0  0.00000000000E+00  0.00000000000E+00  0.40000000000E+02  0.40000000000E+02  0.00000000000E+00 0. -1.
        -11   -1    0    0    0    0 -0.00000000000E+00 -0.00000000000E+00 -0.40000000000E+02  0.40000000000E+02  0.00000000000E+00 0.  1.
         23    2    1    2    0    0  0.00000000000E+00  0.00000000000E+00  0.00000000000E+00  0.80000000000E+02  0.80000000000E+02 0.  0.
          5    1    3    3  501    0 -0.35559290643E+02 -0.13099807026E+02  0.11909739915E+02  0.40000000000E+02  0.47000000000E+01 0. -1.
         -5    1    3    3    0  501  0.35559290643E+02  0.13099807026E+02 -0.11909739915E+02  0.40000000000E+02  0.47000000000E+01 0.  1.
</event>
<event>
 5    1  0.4814700E-001  0.8000000E+02  0.7546771E-02  0.1203772E+00
         11   -1    0    0    0    0  0.00000000000E+00  0.00000000000E+00  0.40000000000E+02  0.40000000000E+02  0.00000000000E+00 0.  1.
        -11   -1    0    0    0    0 -0.00000000000E+00 -0.00000000000E+00 -0.40000000000E+02  0.40000000000E+02  0.00000000000E+00 0. -1.
         23    2    1    2    0    0  0.00000000000E+00  0.00000000000E+00  0.00000000000E+00  0.80000000000E+02  0.80000000000E+02 0.  0.
          5    1    3    3  501    0  0.15670332816E+02 -0.28210458878E+02 -0.23162916037E+02  0.40000000000E+02  0.47000000000E+01 0. -1.
         -5    1    3    3    0  501 -0.15670332816E+02  0.28210458878E+02  0.23162916037E+02  0.40000000000E+02  0.47000000000E+01 0.  1.
</event>
<event>
 5    1  0.4814700E-001  0.8000000E+02  0.7546771E-02  0.1203772E+00
         11   -1    0    0    0    0  0.00000000000E+00  0.00000000000E+00  0.40000000000E+02  0.40000000000E+02  0.00000000000E+00 0. -1.
        -11   -1    0    0    0    0 -0.00000000000E+00 -0.00000000000E+00 -0.40000000000E+02  0.40000000000E+02  0.00000000000E+00 0.  1.
         23    2    1    2    0    0  0.00000000000E+00  0.00000000000E+00  0.00000000000E+00  0.80000000000E+02  0.80000000000E+02 0.  0.
          5    1    3    3  501    0  0.14319117125E+02 -0.27493202209E+02  0.24839418613E+02  0.40000000000E+02  0.47000000000E+01 0. -1.
         -5    1    3    3    0  501 -0.14319117125E+02  0.27493202209E+02 -0.24839418613E+02  0.40000000000E+02  0.47000000000E+01 0.  1.
</event>
<event>
 5    1  0.4814700E-001  0.8000000E+02  0.7546771E-02  0.1203772E+00
         11   -1    0    0    0    0  0.00000000000E+00  0.00000000000E+00  0.40000000000E+02  0.40000000000E+02  0.00000000000E+00 0.  1.
        -11   -1    0    0    0    0 -0.00000000000E+00 -0.00000000000E+00 -0.40000000000E+02  0.40000000000E+02  0.00000000000E+00 0. -1.
         23    2    1    2    0    0  0.00000000000E+00  0.00000000000E+00  0.00000000000E+00  0.80000000000E+02  0.80000000000E+02 0.  0.
          5    1    3    3  501    0  0.34777455620E+00  0.38988639986E+02 -0.75944061601E+01  0.40000000000E+02  0.47000000000E+01 0. -1.
         -5    1    3    3    0  501 -0.34777455620E+00 -0.38988639986E+02  0.75944061601E+01  0.40000000000E+02  0.47000000000E+01 0.  1.
</event>
<event>
 5    1  0.4814700E-001  0.8000000E+02  0.7546771E-02  0.1203772E+00
         11   -1    0    0    0    0  0.00000000000E+00  0.00000000000E+00  0.40000000000E+02  0.40000000000E+02  0.00000000000E+00 0.  1.
        -11   -1    0    0    0    0 -0.00000000000E+00 -0.00000000000E+00 -0.40000000000E+02  0.40000000000E+02  0.00000000000E+00 0. -1.
         23    2    1    2    0    0  0.00000000000E+00  0.00000000000E+00  0.00000000000E+00  0.80000000000E+02  0.80000000000E+02 0.  0.
          5    1    3    3  501    0 -0.81307835396E+01 -0.89065847901E+01 -0.37848026453E+02  0.40000000000E+02  0.47000000000E+01 0. -1.
         -5    1    3    3    0  501  0.81307835396E+01  0.89065847901E+01  0.37848026453E+02  0.40000000000E+02  0.47000000000E+01 0.  1.
</event>
<event>
 5    1  0.4814700E-001  0.8000000E+02  0.7546771E-02  0.1203772E+00
         11   -1    0    0    0    0  0.00000000000E+00  0.00000000000E+00  0.40000000000E+02  0.40000000000E+02  0.00000000000E+00 0. -1.
        -11   -1    0    0    0    0 -0.00000000000E+00 -0.00000000000E+00 -0.40000000000E+02  0.40000000000E+02  0.00000000000E+00 0.  1.
         23    2    1    2    0    0  0.00000000000E+00  0.00000000000E+00  0.00000000000E+00  0.80000000000E+02  0.80000000000E+02 0.  0.
          5    1    3    3  501    0  0.23602711594E+02 -0.10106798069E+02  0.30309645960E+02  0.40000000000E+02  0.47000000000E+01 0. -1.
         -5    1    3    3    0  501 -0.23602711594E+02  0.10106798069E+02 -0.30309645960E+02  0.40000000000E+02  0.47000000000E+01 0.  1.
</event>
<event>
 5    1  0.4814700E-001  0.8000000E+02  0.7546771E-02  0.1203772E+00
         11   -1    0    0    0    0  0.00000000000E+00  0.00000000000E+00  0.40000000000E+02  0.40000000000E+02  0.00000000000E+00 0. -1.
        -11   -1    0    0    0    0 -0.00000000000E+00 -0.00000000000E+00 -0.40000000000E+02  0.40000000000E+02  0.00000000000E+00 0.  1.
         23    2    1    2    0    0  0.00000000000E+00  0.00000000000E+00  0.00000000000E+00  0.80000000000E+02  0.80000000000E+02 0.  0.
          5    1    3    3  501    0 -0.37766503114E+01 -0.38883029128E+02 -0.71942309022E+01  0.40000000000E+02  0.47000000000E+01 0. -1.
         -5    1    3    3    0  501  0.37766503114E+01  0.38883029128E+02  0.71942309022E+01  0.40000000000E+02  0.47000000000E+01 0.  1.
</event>
<event>
 5    1  0.4814700E-001  0.8000000E+02  0.7546771E-02  0.1203772E+00
         11   -1    0    0    0    0  0.00000000000E+00  0.00000000000E+00  0.40000000000E+02  0.40000000000E+02  0.00000000000E+00 0. -1.
        -11   -1    0    0    0    0 -0.00000000000E+00 -0.00000000000E+00 -0.40000000000E+02  0.40000000000E+02  0.00000000000E+00 0.  1.
         23    2    1    2    0    0  0.00000000000E+00  0.00000000000E+00  0.00000000000E+00  0.80000000000E+02  0.80000000000E+02 0.  0.
          5    1    3    3  501    0 -0.22590721348E+00 -0.33457048724E+02  0.21412259493E+02  0.40000000000E+02  0.47000000000E+01 0. -1.
         -5    1    3    3    0  501  0.22590721348E+00  0.33457048724E+02 -0.21412259493E+02  0.40000000000E+02  0.47000000000E+01 0.  1.
</event>
<event>
 5    1  0.4814700E-001  0.8000000E+02  0.7546771E-02  0.1203772E+00
         11   -1    0    0    0    0  0.00000000000E+00  0.00000000000E+00  0.40000000000E+02  0.40000000000E+02  0.00000000000E+00 0.  1.
        -11   -1    0    0    0    0 -0.00000000000E+00 -0.00000000000E+00 -0.40000000000E+02  0.40000000000E+02  0.00000000000E+00 0. -1.
         23    2    1    2    0    0  0.00000000000E+00  0.00000000000E+00  0.00000000000E+00  0.80000000000E+02  0.80000000000E+02 0.  0.
          5    1    3    3  501    0  0.16896864787E+02 -0.30599538652E+02 -0.18869928315E+02  0.40000000000E+02  0.47000000000E+01 0. -1.
         -5    1    3    3    0  501 -0.16896864787E+02  0.30599538652E+02  0.18869928315E+02  0.40000000000E+02  0.47000000000E+01 0.  1.
</event>
<event>
 5    1  0.4814700E-001  0.8000000E+02  0.7546771E-02  0.1203772E+00
         11   -1    0    0    0    0  0.00000000000E+00  0.00000000000E+00  0.40000000000E+02  0.40000000000E+02  0.00000000000E+00 0. -1.
        -11   -1    0    0    0    0 -0.00000000000E+00 -0.00000000000E+00 -0.40000000000E+02  0.40000000000E+02  0.00000000000E+00 0.  1.
         23    2    1    2    0    0  0.00000000000E+00  0.00000000000E+00  0.00000000000E+00  0.80000000000E+02  0.80000000000E+02 0.  0.
          5    1    3    3  501    0  0.10041422908E+02  0.30047665753E+02  0.23962838079E+02  0.40000000000E+02  0.47000000000E+01 0. -1.
         -5    1    3    3    0  501 -0.10041422908E+02 -0.30047665753E+02 -0.23962838079E+02  0.40000000000E+02  0.47000000000E+01 0.  1.
</event>
<event>
 5    1  0.4814700E-001  0.8000000E+02  0.7546771E-02  0.1203772E+00
         11   -1    0    0    0    0  0.00000000000E+00  0.00000000000E+00  0.40000000000E+02  0.40000000000E+02  0.00000000000E+00 0.  1.
        -11   -1    0    0    0    0 -0.00000000000E+00 -0.00000000000E+00 -0.40000000000E+02  0.40000000000E+02  0.00000000000E+00 0. -1.
         23    2    1    2    0    0  0.00000000000E+00  0.00000000000E+00  0.00000000000E+00  0.80000000000E+02  0.80000000000E+02 0.  0.
          5    1    3    3  501    0 -0.21854089385E+02 -0.13621372636E+02 -0.30245115055E+02  0.40000000000E+02  0.47000000000E+01 0. -1.
         -5    1    3    3    0  501  0.21854089385E+02  0.13621372636E+02  0.30245115055E+02  0.40000000000E+02  0.47000000000E+01 0.  1.
</event>
<event>
 5    1  0.4814700E-001  0.8000000E+02  0.7546771E-02  0.1203772E+00
         11   -1    0    0    0    0  0.00000000000E+00  0.00000000000E+00  0.40000000000E+02  0.40000000000E+02  0.00000000000E+00 0. -1.
        -11   -1    0    0    0    0 -0.00000000000E+00 -0.00000000000E+00 -0.40000000000E+02  0.40000000000E+02  0.00000000000E+00 0.  1.
         23    2    1    2    0    0  0.00000000000E+00  0.00000000000E+00  0.00000000000E+00  0.80000000000E+02  0.80000000000E+02 0.  0.
          5    1    3    3  501    0 -0.24798865730E+02 -0.10245484986E+02  0.29290891006E+02  0.40000000000E+02  0.47000000000E+01 0. -1.
         -5    1    3    3    0  501  0.24798865730E+02  0.10245484986E+02 -0.29290891006E+02  0.40000000000E+02  0.47000000000E+01 0.  1.
</event>
<event>
 5    1  0.4814700E-001  0.8000000E+02  0.7546771E-02  0.1203772E+00
         11   -1    0    0    0    0  0.00000000000E+00  0.00000000000E+00  0.40000000000E+02  0.40000000000E+02  0.00000000000E+00 0.  1.
        -11   -1    0    0    0    0 -0.00000000000E+00 -0.00000000000E+00 -0.40000000000E+02  0.40000000000E+02  0.00000000000E+00 0. -1.
         23    2    1    2    0    0  0.00000000000E+00  0.00000000000E+00  0.00000000000E+00  0.80000000000E+02  0.80000000000E+02 0.  0.
          5    1    3    3  501    0 -0.21150393043E+01  0.37032948808E+00 -0.39664839150E+02  0.40000000000E+02  0.47000000000E+01 0. -1.
         -5    1    3    3    0  501  0.21150393043E+01 -0.37032948808E+00  0.39664839150E+02  0.40000000000E+02  0.47000000000E+01 0.  1.
</event>
<event>
 5    1  0.4814700E-001  0.8000000E+02  0.7546771E-02  0.1203772E+00
         11   -1    0    0    0    0  0.00000000000E+00  0.00000000000E+00  0.40000000000E+02  0.40000000000E+02  0.00000000000E+00 0.  1.
        -11   -1    0    0    0    0 -0.00000000000E+00 -0.00000000000E+00 -0.40000000000E+02  0.40000000000E+02  0.00000000000E+00 0. -1.
         23    2    1    2    0    0  0.00000000000E+00  0.00000000000E+00  0.00000000000E+00  0.80000000000E+02  0.80000000000E+02 0.  0.
          5    1    3    3  501    0  0.29338871943E+02 -0.81264693293E+01 -0.25516682569E+02  0.40000000000E+02  0.47000000000E+01 0. -1.
         -5    1    3    3    0  501 -0.29338871943E+02  0.81264693293E+01  0.25516682569E+02  0.40000000000E+02  0.47000000000E+01 0.  1.
</event>
<event>
 5    1  0.4814700E-001  0.8000000E+02  0.7546771E-02  0.1203772E+00
         11   -1    0    0    0    0  0.00000000000E+00  0.00000000000E+00  0.40000000000E+02  0.40000000000E+02  0.00000000000E+00 0. -1.
        -11   -1    0    0    0    0 -0.00000000000E+00 -0.00000000000E+00 -0.40000000000E+02  0.40000000000E+02  0.00000000000E+00 0.  1.
         23    2    1    2    0    0  0.00000000000E+00  0.00000000000E+00  0.00000000000E+00  0.80000000000E+02  0.80000000000E+02 0.  0.
          5    1    3    3  501    0  0.76828208973E+01  0.19184724076E+02  0.33923894605E+02  0.40000000000E+02  0.47000000000E+01 0. -1.
         -5    1    3    3    0  501 -0.76828208973E+01 -0.19184724076E+02 -0.33923894605E+02  0.40000000000E+02  0.47000000000E+01 0.  1.
</event>
<event>
 5    1  0.4814700E-001  0.8000000E+02  0.7546771E-02  0.1203772E+00
         11   -1    0    0    0    0  0.00000000000E+00  0.00000000000E+00  0.40000000000E+02  0.40000000000E+02  0.00000000000E+00 0. -1.
        -11   -1    0    0    0    0 -0.00000000000E+00 -0.00000000000E+00 -0.40000000000E+02  0.40000000000E+02  0.00000000000E+00 0.  1.
         23    2    1    2    0    0  0.00000000000E+00  0.00000000000E+00  0.00000000000E+00  0.80000000000E+02  0.80000000000E+02 0.  0.
          5    1    3    3  501    0  0.19625932264E+02 -0.16240229026E+02 -0.30479300254E+02  0.40000000000E+02  0.47000000000E+01 0.  1.
         -5    1    3    3    0  501 -0.19625932264E+02  0.16240229026E+02  0.30479300254E+02  0.40000000000E+02  0.47000000000E+01 0. -1.
</event>
<event>
 5    1  0.4814700E-001  0.8000000E+02  0.7546771E-02  0.1203772E+00
         11   -1    0    0    0    0  0.00000000000E+00  0.00000000000E+00  0.40000000000E+02  0.40000000000E+02  0.00000000000E+00 0. -1.
        -11   -1    0    0    0    0 -0.00000000000E+00 -0.00000000000E+00 -0.40000000000E+02  0.40000000000E+02  0.00000000000E+00 0.  1.
         23    2    1    2    0    0  0.00000000000E+00  0.00000000000E+00  0.00000000000E+00  0.80000000000E+02  0.80000000000E+02 0.  0.
          5    1    3    3  501    0  0.30562357433E+02 -0.24017538437E+02 -0.81859730971E+01  0.40000000000E+02  0.47000000000E+01 0. -1.
         -5    1    3    3    0  501 -0.30562357433E+02  0.24017538437E+02  0.81859730971E+01  0.40000000000E+02  0.47000000000E+01 0.  1.
</event>
<event>
 5    1  0.4814700E-001  0.8000000E+02  0.7546771E-02  0.1203772E+00
         11   -1    0    0    0    0  0.00000000000E+00  0.00000000000E+00  0.40000000000E+02  0.40000000000E+02  0.00000000000E+00 0. -1.
        -11   -1    0    0    0    0 -0.00000000000E+00 -0.00000000000E+00 -0.40000000000E+02  0.40000000000E+02  0.00000000000E+00 0.  1.
         23    2    1    2    0    0  0.00000000000E+00  0.00000000000E+00  0.00000000000E+00  0.80000000000E+02  0.80000000000E+02 0.  0.
          5    1    3    3  501    0 -0.14604328528E+02  0.89735436525E+01  0.35834328549E+02  0.40000000000E+02  0.47000000000E+01 0. -1.
         -5    1    3    3    0  501  0.14604328528E+02 -0.89735436525E+01 -0.35834328549E+02  0.40000000000E+02  0.47000000000E+01 0.  1.
</event>
<event>
 5    1  0.4814700E-001  0.8000000E+02  0.7546771E-02  0.1203772E+00
         11   -1    0    0    0    0  0.00000000000E+00  0.00000000000E+00  0.40000000000E+02  0.40000000000E+02  0.00000000000E+00 0. -1.
        -11   -1    0    0    0    0 -0.00000000000E+00 -0.00000000000E+00 -0.40000000000E+02  0.40000000000E+02  0.00000000000E+00 0.  1.
         23    2    1    2    0    0  0.00000000000E+00  0.00000000000E+00  0.00000000000E+00  0.80000000000E+02  0.80000000000E+02 0.  0.
          5    1    3    3  501    0 -0.22495122391E+02 -0.17759165116E+02  0.27504390977E+02  0.40000000000E+02  0.47000000000E+01 0. -1.
         -5    1    3    3    0  501  0.22495122391E+02  0.17759165116E+02 -0.27504390977E+02  0.40000000000E+02  0.47000000000E+01 0.  1.
</event>
<event>
 5    1  0.4814700E-001  0.8000000E+02  0.7546771E-02  0.1203772E+00
         11   -1    0    0    0    0  0.00000000000E+00  0.00000000000E+00  0.40000000000E+02  0.40000000000E+02  0.00000000000E+00 0. -1.
        -11   -1    0    0    0    0 -0.00000000000E+00 -0.00000000000E+00 -0.40000000000E+02  0.40000000000E+02  0.00000000000E+00 0.  1.
         23    2    1    2    0    0  0.00000000000E+00  0.00000000000E+00  0.00000000000E+00  0.80000000000E+02  0.80000000000E+02 0.  0.
          5    1    3    3  501    0  0.31018589315E+02  0.23790978422E+02  0.70531172269E+01  0.40000000000E+02  0.47000000000E+01 0. -1.
         -5    1    3    3    0  501 -0.31018589315E+02 -0.23790978422E+02 -0.70531172269E+01  0.40000000000E+02  0.47000000000E+01 0.  1.
</event>
<event>
 5    1  0.4814700E-001  0.8000000E+02  0.7546771E-02  0.1203772E+00
         11   -1    0    0    0    0  0.00000000000E+00  0.00000000000E+00  0.40000000000E+02  0.40000000000E+02  0.00000000000E+00 0.  1.
        -11   -1    0    0    0    0 -0.00000000000E+00 -0.00000000000E+00 -0.40000000000E+02  0.40000000000E+02  0.00000000000E+00 0. -1.
         23    2    1    2    0    0  0.00000000000E+00  0.00000000000E+00  0.00000000000E+00  0.80000000000E+02  0.80000000000E+02 0.  0.
          5    1    3    3  501    0 -0.13180908664E+01  0.36080278108E+02 -0.16564605884E+02  0.40000000000E+02  0.47000000000E+01 0. -1.
         -5    1    3    3    0  501  0.13180908664E+01 -0.36080278108E+02  0.16564605884E+02  0.40000000000E+02  0.47000000000E+01 0.  1.
</event>
<event>
 5    1  0.4814700E-001  0.8000000E+02  0.7546771E-02  0.1203772E+00
         11   -1    0    0    0    0  0.00000000000E+00  0.00000000000E+00  0.40000000000E+02  0.40000000000E+02  0.00000000000E+00 0.  1.
        -11   -1    0    0    0    0 -0.00000000000E+00 -0.00000000000E+00 -0.40000000000E+02  0.40000000000E+02  0.00000000000E+00 0. -1.
         23    2    1    2    0    0  0.00000000000E+00  0.00000000000E+00  0.00000000000E+00  0.80000000000E+02  0.80000000000E+02 0.  0.
          5    1    3    3  501    0  0.22608303741E+02  0.25751251612E+02 -0.20090984106E+02  0.40000000000E+02  0.47000000000E+01 0. -1.
         -5    1    3    3    0  501 -0.22608303741E+02 -0.25751251612E+02  0.20090984106E+02  0.40000000000E+02  0.47000000000E+01 0.  1.
</event>
<event>
 5    1  0.4814700E-001  0.8000000E+02  0.7546771E-02  0.1203772E+00
         11   -1    0    0    0    0  0.00000000000E+00  0.00000000000E+00  0.40000000000E+02  0.40000000000E+02  0.00000000000E+00 0.  1.
        -11   -1    0    0    0    0 -0.00000000000E+00 -0.00000000000E+00 -0.40000000000E+02  0.40000000000E+02  0.00000000000E+00 0. -1.
         23    2    1    2    0    0  0.00000000000E+00  0.00000000000E+00  0.00000000000E+00  0.80000000000E+02  0.80000000000E+02 0.  0.
          5    1    3    3  501    0 -0.16660066355E+02 -0.89889259539E+00 -0.36049191130E+02  0.40000000000E+02  0.47000000000E+01 0. -1.
         -5    1    3    3    0  501  0.16660066355E+02  0.89889259539E+00  0.36049191130E+02  0.40000000000E+02  0.47000000000E+01 0.  1.
</event>
<event>
 5    1  0.4814700E-001  0.8000000E+02  0.7546771E-02  0.1203772E+00
         11   -1    0    0    0    0  0.00000000000E+00  0.00000000000E+00  0.40000000000E+02  0.40000000000E+02  0.00000000000E+00 0.  1.
        -11   -1    0    0    0    0 -0.00000000000E+00 -0.00000000000E+00 -0.40000000000E+02  0.40000000000E+02  0.00000000000E+00 0. -1.
         23    2    1    2    0    0  0.00000000000E+00  0.00000000000E+00  0.00000000000E+00  0.80000000000E+02  0.80000000000E+02 0.  0.
          5    1    3    3  501    0 -0.20541780711E+01 -0.29562206628E+02 -0.26453096071E+02  0.40000000000E+02  0.47000000000E+01 0. -1.
         -5    1    3    3    0  501  0.20541780711E+01  0.29562206628E+02  0.26453096071E+02  0.40000000000E+02  0.47000000000E+01 0.  1.
</event>
<event>
 5    1  0.4814700E-001  0.8000000E+02  0.7546771E-02  0.1203772E+00
         11   -1    0    0    0    0  0.00000000000E+00  0.00000000000E+00  0.40000000000E+02  0.40000000000E+02  0.00000000000E+00 0. -1.
        -11   -1    0    0    0    0 -0.00000000000E+00 -0.00000000000E+00 -0.40000000000E+02  0.40000000000E+02  0.00000000000E+00 0.  1.
         23    2    1    2    0    0  0.00000000000E+00  0.00000000000E+00  0.00000000000E+00  0.80000000000E+02  0.80000000000E+02 0.  0.
          5    1    3    3  501    0 -0.14781090285E+02 -0.33088131787E+02  0.16266680819E+02  0.40000000000E+02  0.47000000000E+01 0. -1.
         -5    1    3    3    0  501  0.14781090285E+02  0.33088131787E+02 -0.16266680819E+02  0.40000000000E+02  0.47000000000E+01 0.  1.
</event>
<event>
 5    1  0.4814700E-001  0.8000000E+02  0.7546771E-02  0.1203772E+00
         11   -1    0    0    0    0  0.00000000000E+00  0.00000000000E+00  0.40000000000E+02  0.40000000000E+02  0.00000000000E+00 0. -1.
        -11   -1    0    0    0    0 -0.00000000000E+00 -0.00000000000E+00 -0.40000000000E+02  0.40000000000E+02  0.00000000000E+00 0.  1.
         23    2    1    2    0    0  0.00000000000E+00  0.00000000000E+00  0.00000000000E+00  0.80000000000E+02  0.80000000000E+02 0.  0.
          5    1    3    3  501    0 -0.21570709797E+02  0.12032180129E+02 -0.31110144972E+02  0.40000000000E+02  0.47000000000E+01 0.  1.
         -5    1    3    3    0  501  0.21570709797E+02 -0.12032180129E+02  0.31110144972E+02  0.40000000000E+02  0.47000000000E+01 0. -1.
</event>
<event>
 5    1  0.4814700E-001  0.8000000E+02  0.7546771E-02  0.1203772E+00
         11   -1    0    0    0    0  0.00000000000E+00  0.00000000000E+00  0.40000000000E+02  0.40000000000E+02  0.00000000000E+00 0.  1.
        -11   -1    0    0    0    0 -0.00000000000E+00 -0.00000000000E+00 -0.40000000000E+02  0.40000000000E+02  0.00000000000E+00 0. -1.
         23    2    1    2    0    0  0.00000000000E+00  0.00000000000E+00  0.00000000000E+00  0.80000000000E+02  0.80000000000E+02 0.  0.
          5    1    3    3  501    0 -0.19566613327E+02 -0.34392224946E+02 -0.34974999875E+01  0.40000000000E+02  0.47000000000E+01 0. -1.
         -5    1    3    3    0  501  0.19566613327E+02  0.34392224946E+02  0.34974999875E+01  0.40000000000E+02  0.47000000000E+01 0.  1.
</event>
<event>
 5    1  0.4814700E-001  0.8000000E+02  0.7546771E-02  0.1203772E+00
         11   -1    0    0    0    0  0.00000000000E+00  0.00000000000E+00  0.40000000000E+02  0.40000000000E+02  0.00000000000E+00 0.  1.
        -11   -1    0    0    0    0 -0.00000000000E+00 -0.00000000000E+00 -0.40000000000E+02  0.40000000000E+02  0.00000000000E+00 0. -1.
         23    2    1    2    0    0  0.00000000000E+00  0.00000000000E+00  0.00000000000E+00  0.80000000000E+02  0.80000000000E+02 0.  0.
          5    1    3    3  501    0 -0.13126885370E+02 -0.19999801393E+02 -0.31711241299E+02  0.40000000000E+02  0.47000000000E+01 0. -1.
         -5    1    3    3    0  501  0.13126885370E+02  0.19999801393E+02  0.31711241299E+02  0.40000000000E+02  0.47000000000E+01 0.  1.
</event>
<event>
 5    1  0.4814700E-001  0.8000000E+02  0.7546771E-02  0.1203772E+00
         11   -1    0    0    0    0  0.00000000000E+00  0.00000000000E+00  0.40000000000E+02  0.40000000000E+02  0.00000000000E+00 0. -1.
        -11   -1    0    0    0    0 -0.00000000000E+00 -0.00000000000E+00 -0.40000000000E+02  0.40000000000E+02  0.00000000000E+00 0.  1.
         23    2    1    2    0    0  0.00000000000E+00  0.00000000000E+00  0.00000000000E+00  0.80000000000E+02  0.80000000000E+02 0.  0.
          5    1    3    3  501    0 -0.18963999808E+02 -0.61862805110E+01 -0.34351224792E+02  0.40000000000E+02  0.47000000000E+01 0.  1.
         -5    1    3    3    0  501  0.18963999808E+02  0.61862805110E+01  0.34351224792E+02  0.40000000000E+02  0.47000000000E+01 0. -1.
</event>
<event>
 5    1  0.4814700E-001  0.8000000E+02  0.7546771E-02  0.1203772E+00
         11   -1    0    0    0    0  0.00000000000E+00  0.00000000000E+00  0.40000000000E+02  0.40000000000E+02  0.00000000000E+00 0. -1.
        -11   -1    0    0    0    0 -0.00000000000E+00 -0.00000000000E+00 -0.40000000000E+02  0.40000000000E+02  0.00000000000E+00 0.  1.
         23    2    1    2    0    0  0.00000000000E+00  0.00000000000E+00  0.00000000000E+00  0.80000000000E+02  0.80000000000E+02 0.  0.
          5    1    3    3  501    0  0.67829073962E+01 -0.25046111674E+02  0.30076476810E+02  0.40000000000E+02  0.47000000000E+01 0. -1.
         -5    1    3    3    0  501 -0.67829073962E+01  0.25046111674E+02 -0.30076476810E+02  0.40000000000E+02  0.47000000000E+01 0.  1.
</event>
<event>
 5    1  0.4814700E-001  0.8000000E+02  0.7546771E-02  0.1203772E+00
         11   -1    0    0    0    0  0.00000000000E+00  0.00000000000E+00  0.40000000000E+02  0.40000000000E+02  0.00000000000E+00 0.  1.
        -11   -1    0    0    0    0 -0.00000000000E+00 -0.00000000000E+00 -0.40000000000E+02  0.40000000000E+02  0.00000000000E+00 0. -1.
         23    2    1    2    0    0  0.00000000000E+00  0.00000000000E+00  0.00000000000E+00  0.80000000000E+02  0.80000000000E+02 0.  0.
          5    1    3    3  501    0  0.20037120708E+02  0.24962511364E+02 -0.23522262225E+02  0.40000000000E+02  0.47000000000E+01 0. -1.
         -5    1    3    3    0  501 -0.20037120708E+02 -0.24962511364E+02  0.23522262225E+02  0.40000000000E+02  0.47000000000E+01 0.  1.
</event>
<event>
 5    1  0.4814700E-001  0.8000000E+02  0.7546771E-02  0.1203772E+00
         11   -1    0    0    0    0  0.00000000000E+00  0.00000000000E+00  0.40000000000E+02  0.40000000000E+02  0.00000000000E+00 0.  1.
        -11   -1    0    0    0    0 -0.00000000000E+00 -0.00000000000E+00 -0.40000000000E+02  0.40000000000E+02  0.00000000000E+00 0. -1.
         23    2    1    2    0    0  0.00000000000E+00  0.00000000000E+00  0.00000000000E+00  0.80000000000E+02  0.80000000000E+02 0.  0.
          5    1    3    3  501    0  0.29753779626E+02 -0.89620220168E+01 -0.24744792571E+02  0.40000000000E+02  0.47000000000E+01 0. -1.
         -5    1    3    3    0  501 -0.29753779626E+02  0.89620220168E+01  0.24744792571E+02  0.40000000000E+02  0.47000000000E+01 0.  1.
</event>
<event>
 5    1  0.4814700E-001  0.8000000E+02  0.7546771E-02  0.1203772E+00
         11   -1    0    0    0    0  0.00000000000E+00  0.00000000000E+00  0.40000000000E+02  0.40000000000E+02  0.00000000000E+00 0. -1.
        -11   -1    0    0    0    0 -0.00000000000E+00 -0.00000000000E+00 -0.40000000000E+02  0.40000000000E+02  0.00000000000E+00 0.  1.
         23    2    1    2    0    0  0.00000000000E+00  0.00000000000E+00  0.00000000000E+00  0.80000000000E+02  0.80000000000E+02 0.  0.
          5    1    3    3  501    0 -0.14616261440E+01  0.37790958654E+02  0.12149777488E+02  0.40000000000E+02  0.47000000000E+01 0. -1.
         -5    1    3    3    0  501  0.14616261440E+01 -0.37790958654E+02 -0.12149777488E+02  0.40000000000E+02  0.47000000000E+01 0.  1.
</event>
<event>
 5    1  0.4814700E-001  0.8000000E+02  0.7546771E-02  0.1203772E+00
         11   -1    0    0    0    0  0.00000000000E+00  0.00000000000E+00  0.40000000000E+02  0.40000000000E+02  0.00000000000E+00 0.  1.
        -11   -1    0    0    0    0 -0.00000000000E+00 -0.00000000000E+00 -0.40000000000E+02  0.40000000000E+02  0.00000000000E+00 0. -1.
         23    2    1    2    0    0  0.00000000000E+00  0.00000000000E+00  0.00000000000E+00  0.80000000000E+02  0.80000000000E+02 0.  0.
          5    1    3    3  501    0  0.36505417862E+02 -0.15492440265E+02  0.22910175376E+01  0.40000000000E+02  0.47000000000E+01 0. -1.
         -5    1    3    3    0  501 -0.36505417862E+02  0.15492440265E+02 -0.22910175376E+01  0.40000000000E+02  0.47000000000E+01 0.  1.
</event>
<event>
 5    1  0.4814700E-001  0.8000000E+02  0.7546771E-02  0.1203772E+00
         11   -1    0    0    0    0  0.00000000000E+00  0.00000000000E+00  0.40000000000E+02  0.40000000000E+02  0.00000000000E+00 0. -1.
        -11   -1    0    0    0    0 -0.00000000000E+00 -0.00000000000E+00 -0.40000000000E+02  0.40000000000E+02  0.00000000000E+00 0.  1.
         23    2    1    2    0    0  0.00000000000E+00  0.00000000000E+00  0.00000000000E+00  0.80000000000E+02  0.80000000000E+02 0.  0.
          5    1    3    3  501    0 -0.18751154222E+02 -0.24627413840E+02  0.24895676390E+02  0.40000000000E+02  0.47000000000E+01 0. -1.
         -5    1    3    3    0  501  0.18751154222E+02  0.24627413840E+02 -0.24895676390E+02  0.40000000000E+02  0.47000000000E+01 0.  1.
</event>
<event>
 5    1  0.4814700E-001  0.8000000E+02  0.7546771E-02  0.1203772E+00
         11   -1    0    0    0    0  0.00000000000E+00  0.00000000000E+00  0.40000000000E+02  0.40000000000E+02  0.00000000000E+00 0. -1.
        -11   -1    0    0    0    0 -0.00000000000E+00 -0.00000000000E+00 -0.40000000000E+02  0.40000000000E+02  0.00000000000E+00 0.  1.
         23    2    1    2    0    0  0.00000000000E+00  0.00000000000E+00  0.00000000000E+00  0.80000000000E+02  0.80000000000E+02 0.  0.
          5    1    3    3  501    0 -0.10129089517E+02 -0.16402693636E+02  0.34731299818E+02  0.40000000000E+02  0.47000000000E+01 0. -1.
         -5    1    3    3    0  501  0.10129089517E+02  0.16402693636E+02 -0.34731299818E+02  0.40000000000E+02  0.47000000000E+01 0.  1.
</event>
<event>
 5    1  0.4814700E-001  0.8000000E+02  0.7546771E-02  0.1203772E+00
         11   -1    0    0    0    0  0.00000000000E+00  0.00000000000E+00  0.40000000000E+02  0.40000000000E+02  0.00000000000E+00 0.  1.
        -11   -1    0    0    0    0 -0.00000000000E+00 -0.00000000000E+00 -0.40000000000E+02  0.40000000000E+02  0.00000000000E+00 0. -1.
         23    2    1    2    0    0  0.00000000000E+00  0.00000000000E+00  0.00000000000E+00  0.80000000000E+02  0.80000000000E+02 0.  0.
          5    1    3    3  501    0  0.28058778231E+02  0.16813921003E+02 -0.22536792689E+02  0.40000000000E+02  0.47000000000E+01 0. -1.
         -5    1    3    3    0  501 -0.28058778231E+02 -0.16813921003E+02  0.22536792689E+02  0.40000000000E+02  0.47000000000E+01 0.  1.
</event>
<event>
 5    1  0.4814700E-001  0.8000000E+02  0.7546771E-02  0.1203772E+00
         11   -1    0    0    0    0  0.00000000000E+00  0.00000000000E+00  0.40000000000E+02  0.40000000000E+02  0.00000000000E+00 0.  1.
        -11   -1    0    0    0    0 -0.00000000000E+00 -0.00000000000E+00 -0.40000000000E+02  0.40000000000E+02  0.00000000000E+00 0. -1.
         23    2    1    2    0    0  0.00000000000E+00  0.00000000000E+00  0.00000000000E+00  0.80000000000E+02  0.80000000000E+02 0.  0.
          5    1    3    3  501    0  0.30659211781E+02 -0.11572711165E+02 -0.22449834949E+02  0.40000000000E+02  0.47000000000E+01 0. -1.
         -5    1    3    3    0  501 -0.30659211781E+02  0.11572711165E+02  0.22449834949E+02  0.40000000000E+02  0.47000000000E+01 0.  1.
</event>
<event>
 5    1  0.4814700E-001  0.8000000E+02  0.7546771E-02  0.1203772E+00
         11   -1    0    0    0    0  0.00000000000E+00  0.00000000000E+00  0.40000000000E+02  0.40000000000E+02  0.00000000000E+00 0. -1.
        -11   -1    0    0    0    0 -0.00000000000E+00 -0.00000000000E+00 -0.40000000000E+02  0.40000000000E+02  0.00000000000E+00 0.  1.
         23    2    1    2    0    0  0.00000000000E+00  0.00000000000E+00  0.00000000000E+00  0.80000000000E+02  0.80000000000E+02 0.  0.
          5    1    3    3  501    0 -0.38695169425E+02  0.84245613145E+01 -0.31017140209E+01  0.40000000000E+02  0.47000000000E+01 0. -1.
         -5    1    3    3    0  501  0.38695169425E+02 -0.84245613145E+01  0.31017140209E+01  0.40000000000E+02  0.47000000000E+01 0.  1.
</event>
<event>
 5    1  0.4814700E-001  0.8000000E+02  0.7546771E-02  0.1203772E+00
         11   -1    0    0    0    0  0.00000000000E+00  0.00000000000E+00  0.40000000000E+02  0.40000000000E+02  0.00000000000E+00 0.  1.
        -11   -1    0    0    0    0 -0.00000000000E+00 -0.00000000000E+00 -0.40000000000E+02  0.40000000000E+02  0.00000000000E+00 0. -1.
         23    2    1    2    0    0  0.00000000000E+00  0.00000000000E+00  0.00000000000E+00  0.80000000000E+02  0.80000000000E+02 0.  0.
          5    1    3    3  501    0  0.67827726857E+01  0.23177456953E+02 -0.31539015265E+02  0.40000000000E+02  0.47000000000E+01 0. -1.
         -5    1    3    3    0  501 -0.67827726857E+01 -0.23177456953E+02  0.31539015265E+02  0.40000000000E+02  0.47000000000E+01 0.  1.
</event>
<event>
 5    1  0.4814700E-001  0.8000000E+02  0.7546771E-02  0.1203772E+00
         11   -1    0    0    0    0  0.00000000000E+00  0.00000000000E+00  0.40000000000E+02  0.40000000000E+02  0.00000000000E+00 0. -1.
        -11   -1    0    0    0    0 -0.00000000000E+00 -0.00000000000E+00 -0.40000000000E+02  0.40000000000E+02  0.00000000000E+00 0.  1.
         23    2    1    2    0    0  0.00000000000E+00  0.00000000000E+00  0.00000000000E+00  0.80000000000E+02  0.80000000000E+02 0.  0.
          5    1    3    3  501    0  0.18237217755E+02 -0.79176797520E+01  0.34389304091E+02  0.40000000000E+02  0.47000000000E+01 0. -1.
         -5    1    3    3    0  501 -0.18237217755E+02  0.79176797520E+01 -0.34389304091E+02  0.40000000000E+02  0.47000000000E+01 0.  1.
</event>
<event>
 5    1  0.4814700E-001  0.8000000E+02  0.7546771E-02  0.1203772E+00
         11   -1    0    0    0    0  0.00000000000E+00  0.00000000000E+00  0.40000000000E+02  0.40000000000E+02  0.00000000000E+00 0.  1.
        -11   -1    0    0    0    0 -0.00000000000E+00 -0.00000000000E+00 -0.40000000000E+02  0.40000000000E+02  0.00000000000E+00 0. -1.
         23    2    1    2    0    0  0.00000000000E+00  0.00000000000E+00  0.00000000000E+00  0.80000000000E+02  0.80000000000E+02 0.  0.
          5    1    3    3  501    0  0.26546091213E+02  0.12326995347E+02 -0.26856288407E+02  0.40000000000E+02  0.47000000000E+01 0. -1.
         -5    1    3    3    0  501 -0.26546091213E+02 -0.12326995347E+02  0.26856288407E+02  0.40000000000E+02  0.47000000000E+01 0.  1.
</event>
<event>
 5    1  0.4814700E-001  0.8000000E+02  0.7546771E-02  0.1203772E+00
         11   -1    0    0    0    0  0.00000000000E+00  0.00000000000E+00  0.40000000000E+02  0.40000000000E+02  0.00000000000E+00 0. -1.
        -11   -1    0    0    0    0 -0.00000000000E+00 -0.00000000000E+00 -0.40000000000E+02  0.40000000000E+02  0.00000000000E+00 0.  1.
         23    2    1    2    0    0  0.00000000000E+00  0.00000000000E+00  0.00000000000E+00  0.80000000000E+02  0.80000000000E+02 0.  0.
          5    1    3    3  501    0  0.21451731630E+02  0.28381789576E+02  0.17669386819E+02  0.40000000000E+02  0.47000000000E+01 0. -1.
         -5    1    3    3    0  501 -0.21451731630E+02 -0.28381789576E+02 -0.17669386819E+02  0.40000000000E+02  0.47000000000E+01 0.  1.
</event>
<event>
 5    1  0.4814700E-001  0.8000000E+02  0.7546771E-02  0.1203772E+00
         11   -1    0    0    0    0  0.00000000000E+00  0.00000000000E+00  0.40000000000E+02  0.40000000000E+02  0.00000000000E+00 0. -1.
        -11   -1    0    0    0    0 -0.00000000000E+00 -0.00000000000E+00 -0.40000000000E+02  0.40000000000E+02  0.00000000000E+00 0.  1.
         23    2    1    2    0    0  0.00000000000E+00  0.00000000000E+00  0.00000000000E+00  0.80000000000E+02  0.80000000000E+02 0.  0.
          5    1    3    3  501    0 -0.63035267010E+01  0.18175282124E+02  0.34753915907E+02  0.40000000000E+02  0.47000000000E+01 0. -1.
         -5    1    3    3    0  501  0.63035267010E+01 -0.18175282124E+02 -0.34753915907E+02  0.40000000000E+02  0.47000000000E+01 0.  1.
</event>
<event>
 5    1  0.4814700E-001  0.8000000E+02  0.7546771E-02  0.1203772E+00
         11   -1    0    0    0    0  0.00000000000E+00  0.00000000000E+00  0.40000000000E+02  0.40000000000E+02  0.00000000000E+00 0.  1.
        -11   -1    0    0    0    0 -0.00000000000E+00 -0.00000000000E+00 -0.40000000000E+02  0.40000000000E+02  0.00000000000E+00 0. -1.
         23    2    1    2    0    0  0.00000000000E+00  0.00000000000E+00  0.00000000000E+00  0.80000000000E+02  0.80000000000E+02 0.  0.
          5    1    3    3  501    0 -0.81184360698E+01 -0.17047046810E+02 -0.34948522012E+02  0.40000000000E+02  0.47000000000E+01 0. -1.
         -5    1    3    3    0  501  0.81184360698E+01  0.17047046810E+02  0.34948522012E+02  0.40000000000E+02  0.47000000000E+01 0.  1.
</event>
<event>
 5    1  0.4814700E-001  0.8000000E+02  0.7546771E-02  0.1203772E+00
         11   -1    0    0    0    0  0.00000000000E+00  0.00000000000E+00  0.40000000000E+02  0.40000000000E+02  0.00000000000E+00 0. -1.
        -11   -1    0    0    0    0 -0.00000000000E+00 -0.00000000000E+00 -0.40000000000E+02  0.40000000000E+02  0.00000000000E+00 0.  1.
         23    2    1    2    0    0  0.00000000000E+00  0.00000000000E+00  0.00000000000E+00  0.80000000000E+02  0.80000000000E+02 0.  0.
          5    1    3    3  501    0  0.38380029477E+02 -0.76382764083E+01  0.68220283546E+01  0.40000000000E+02  0.47000000000E+01 0. -1.
         -5    1    3    3    0  501 -0.38380029477E+02  0.76382764083E+01 -0.68220283546E+01  0.40000000000E+02  0.47000000000E+01 0.  1.
</event>
<event>
 5    1  0.4814700E-001  0.8000000E+02  0.7546771E-02  0.1203772E+00
         11   -1    0    0    0    0  0.00000000000E+00  0.00000000000E+00  0.40000000000E+02  0.40000000000E+02  0.00000000000E+00 0. -1.
        -11   -1    0    0    0    0 -0.00000000000E+00 -0.00000000000E+00 -0.40000000000E+02  0.40000000000E+02  0.00000000000E+00 0.  1.
         23    2    1    2    0    0  0.00000000000E+00  0.00000000000E+00  0.00000000000E+00  0.80000000000E+02  0.80000000000E+02 0.  0.
          5    1    3    3  501    0  0.33743577351E+02  0.20455917740E+02  0.45646924320E+01  0.40000000000E+02  0.47000000000E+01 0. -1.
         -5    1    3    3    0  501 -0.33743577351E+02 -0.20455917740E+02 -0.45646924320E+01  0.40000000000E+02  0.47000000000E+01 0.  1.
</event>
<event>
 5    1  0.4814700E-001  0.8000000E+02  0.7546771E-02  0.1203772E+00
         11   -1    0    0    0    0  0.00000000000E+00  0.00000000000E+00  0.40000000000E+02  0.40000000000E+02  0.00000000000E+00 0. -1.
        -11   -1    0    0    0    0 -0.00000000000E+00 -0.00000000000E+00 -0.40000000000E+02  0.40000000000E+02  0.00000000000E+00 0.  1.
         23    2    1    2    0    0  0.00000000000E+00  0.00000000000E+00  0.00000000000E+00  0.80000000000E+02  0.80000000000E+02 0.  0.
          5    1    3    3  501    0  0.23362857874E+02 -0.22646507074E+02  0.22786456270E+02  0.40000000000E+02  0.47000000000E+01 0. -1.
         -5    1    3    3    0  501 -0.23362857874E+02  0.22646507074E+02 -0.22786456270E+02  0.40000000000E+02  0.47000000000E+01 0.  1.
</event>
<event>
 5    1  0.4814700E-001  0.8000000E+02  0.7546771E-02  0.1203772E+00
         11   -1    0    0    0    0  0.00000000000E+00  0.00000000000E+00  0.40000000000E+02  0.40000000000E+02  0.00000000000E+00 0.  1.
        -11   -1    0    0    0    0 -0.00000000000E+00 -0.00000000000E+00 -0.40000000000E+02  0.40000000000E+02  0.00000000000E+00 0. -1.
         23    2    1    2    0    0  0.00000000000E+00  0.00000000000E+00  0.00000000000E+00  0.80000000000E+02  0.80000000000E+02 0.  0.
          5    1    3    3  501    0 -0.16509474279E+02 -0.22451852271E+02 -0.28306564409E+02  0.40000000000E+02  0.47000000000E+01 0. -1.
         -5    1    3    3    0  501  0.16509474279E+02  0.22451852271E+02  0.28306564409E+02  0.40000000000E+02  0.47000000000E+01 0.  1.
</event>
<event>
 5    1  0.4814700E-001  0.8000000E+02  0.7546771E-02  0.1203772E+00
         11   -1    0    0    0    0  0.00000000000E+00  0.00000000000E+00  0.40000000000E+02  0.40000000000E+02  0.00000000000E+00 0. -1.
        -11   -1    0    0    0    0 -0.00000000000E+00 -0.00000000000E+00 -0.40000000000E+02  0.40000000000E+02  0.00000000000E+00 0.  1.
         23    2    1    2    0    0  0.00000000000E+00  0.00000000000E+00  0.00000000000E+00  0.80000000000E+02  0.80000000000E+02 0.  0.
          5    1    3    3  501    0  0.33737844365E+02 -0.18842908232E+02  0.91985143902E+01  0.40000000000E+02  0.47000000000E+01 0. -1.
         -5    1    3    3    0  501 -0.33737844365E+02  0.18842908232E+02 -0.91985143902E+01  0.40000000000E+02  0.47000000000E+01 0.  1.
</event>
<event>
 5    1  0.4814700E-001  0.8000000E+02  0.7546771E-02  0.1203772E+00
         11   -1    0    0    0    0  0.00000000000E+00  0.00000000000E+00  0.40000000000E+02  0.40000000000E+02  0.00000000000E+00 0. -1.
        -11   -1    0    0    0    0 -0.00000000000E+00 -0.00000000000E+00 -0.40000000000E+02  0.40000000000E+02  0.00000000000E+00 0.  1.
         23    2    1    2    0    0  0.00000000000E+00  0.00000000000E+00  0.00000000000E+00  0.80000000000E+02  0.80000000000E+02 0.  0.
          5    1    3    3  501    0  0.38647485823E+02  0.90521600199E+01  0.15297838132E+01  0.40000000000E+02  0.47000000000E+01 0. -1.
         -5    1    3    3    0  501 -0.38647485823E+02 -0.90521600199E+01 -0.15297838132E+01  0.40000000000E+02  0.47000000000E+01 0.  1.
</event>
<event>
 5    1  0.4814700E-001  0.8000000E+02  0.7546771E-02  0.1203772E+00
         11   -1    0    0    0    0  0.00000000000E+00  0.00000000000E+00  0.40000000000E+02  0.40000000000E+02  0.00000000000E+00 0. -1.
        -11   -1    0    0    0    0 -0.00000000000E+00 -0.00000000000E+00 -0.40000000000E+02  0.40000000000E+02  0.00000000000E+00 0.  1.
         23    2    1    2    0    0  0.00000000000E+00  0.00000000000E+00  0.00000000000E+00  0.80000000000E+02  0.80000000000E+02 0.  0.
          5    1    3    3  501    0 -0.25357678723E+02 -0.30417245613E+02 -0.31127638996E+01  0.40000000000E+02  0.47000000000E+01 0. -1.
         -5    1    3    3    0  501  0.25357678723E+02  0.30417245613E+02  0.31127638996E+01  0.40000000000E+02  0.47000000000E+01 0.  1.
</event>
<event>
 5    1  0.4814700E-001  0.8000000E+02  0.7546771E-02  0.1203772E+00
         11   -1    0    0    0    0  0.00000000000E+00  0.00000000000E+00  0.40000000000E+02  0.40000000000E+02  0.00000000000E+00 0.  1.
        -11   -1    0    0    0    0 -0.00000000000E+00 -0.00000000000E+00 -0.40000000000E+02  0.40000000000E+02  0.00000000000E+00 0. -1.
         23    2    1    2    0    0  0.00000000000E+00  0.00000000000E+00  0.00000000000E+00  0.80000000000E+02  0.80000000000E+02 0.  0.
          5    1    3    3  501    0  0.41678948478E+01  0.35737113239E+02 -0.16834410885E+02  0.40000000000E+02  0.47000000000E+01 0. -1.
         -5    1    3    3    0  501 -0.41678948478E+01 -0.35737113239E+02  0.16834410885E+02  0.40000000000E+02  0.47000000000E+01 0.  1.
</event>
<event>
 5    1  0.4814700E-001  0.8000000E+02  0.7546771E-02  0.1203772E+00
         11   -1    0    0    0    0  0.00000000000E+00  0.00000000000E+00  0.40000000000E+02  0.40000000000E+02  0.00000000000E+00 0. -1.
        -11   -1    0    0    0    0 -0.00000000000E+00 -0.00000000000E+00 -0.40000000000E+02  0.40000000000E+02  0.00000000000E+00 0.  1.
         23    2    1    2    0    0  0.00000000000E+00  0.00000000000E+00  0.00000000000E+00  0.80000000000E+02  0.80000000000E+02 0.  0.
          5    1    3    3  501    0  0.76384807522E+01  0.45171127320E+01  0.38718978607E+02  0.40000000000E+02  0.47000000000E+01 0. -1.
         -5    1    3    3    0  501 -0.76384807522E+01 -0.45171127320E+01 -0.38718978607E+02  0.40000000000E+02  0.47000000000E+01 0.  1.
</event>
<event>
 5    1  0.4814700E-001  0.8000000E+02  0.7546771E-02  0.1203772E+00
         11   -1    0    0    0    0  0.00000000000E+00  0.00000000000E+00  0.40000000000E+02  0.40000000000E+02  0.00000000000E+00 0. -1.
        -11   -1    0    0    0    0 -0.00000000000E+00 -0.00000000000E+00 -0.40000000000E+02  0.40000000000E+02  0.00000000000E+00 0.  1.
         23    2    1    2    0    0  0.00000000000E+00  0.00000000000E+00  0.00000000000E+00  0.80000000000E+02  0.80000000000E+02 0.  0.
          5    1    3    3  501    0 -0.19408126908E+02  0.19043383177E+02  0.28958317753E+02  0.40000000000E+02  0.47000000000E+01 0. -1.
         -5    1    3    3    0  501  0.19408126908E+02 -0.19043383177E+02 -0.28958317753E+02  0.40000000000E+02  0.47000000000E+01 0.  1.
</event>
<event>
 5    1  0.4814700E-001  0.8000000E+02  0.7546771E-02  0.1203772E+00
         11   -1    0    0    0    0  0.00000000000E+00  0.00000000000E+00  0.40000000000E+02  0.40000000000E+02  0.00000000000E+00 0. -1.
        -11   -1    0    0    0    0 -0.00000000000E+00 -0.00000000000E+00 -0.40000000000E+02  0.40000000000E+02  0.00000000000E+00 0.  1.
         23    2    1    2    0    0  0.00000000000E+00  0.00000000000E+00  0.00000000000E+00  0.80000000000E+02  0.80000000000E+02 0.  0.
          5    1    3    3  501    0 -0.20524504777E+01  0.39379507797E+02 -0.47908050175E+01  0.40000000000E+02  0.47000000000E+01 0.  1.
         -5    1    3    3    0  501  0.20524504777E+01 -0.39379507797E+02  0.47908050175E+01  0.40000000000E+02  0.47000000000E+01 0. -1.
</event>
<event>
 5    1  0.4814700E-001  0.8000000E+02  0.7546771E-02  0.1203772E+00
         11   -1    0    0    0    0  0.00000000000E+00  0.00000000000E+00  0.40000000000E+02  0.40000000000E+02  0.00000000000E+00 0.  1.
        -11   -1    0    0    0    0 -0.00000000000E+00 -0.00000000000E+00 -0.40000000000E+02  0.40000000000E+02  0.00000000000E+00 0. -1.
         23    2    1    2    0    0  0.00000000000E+00  0.00000000000E+00  0.00000000000E+00  0.80000000000E+02  0.80000000000E+02 0.  0.
          5    1    3    3  501    0 -0.10724559456E+02  0.14893540380E+02 -0.35228912550E+02  0.40000000000E+02  0.47000000000E+01 0. -1.
         -5    1    3    3    0  501  0.10724559456E+02 -0.14893540380E+02  0.35228912550E+02  0.40000000000E+02  0.47000000000E+01 0.  1.
</event>
<event>
 5    1  0.4814700E-001  0.8000000E+02  0.7546771E-02  0.1203772E+00
         11   -1    0    0    0    0  0.00000000000E+00  0.00000000000E+00  0.40000000000E+02  0.40000000000E+02  0.00000000000E+00 0. -1.
        -11   -1    0    0    0    0 -0.00000000000E+00 -0.00000000000E+00 -0.40000000000E+02  0.40000000000E+02  0.00000000000E+00 0.  1.
         23    2    1    2    0    0  0.00000000000E+00  0.00000000000E+00  0.00000000000E+00  0.80000000000E+02  0.80000000000E+02 0.  0.
          5    1    3    3  501    0 -0.11093894041E+02  0.32308021962E+02  0.20273806548E+02  0.40000000000E+02  0.47000000000E+01 0. -1.
         -5    1    3    3    0  501  0.11093894041E+02 -0.32308021962E+02 -0.20273806548E+02  0.40000000000E+02  0.47000000000E+01 0.  1.
</event>
<event>
 5    1  0.4814700E-001  0.8000000E+02  0.7546771E-02  0.1203772E+00
         11   -1    0    0    0    0  0.00000000000E+00  0.00000000000E+00  0.40000000000E+02  0.40000000000E+02  0.00000000000E+00 0.  1.
        -11   -1    0    0    0    0 -0.00000000000E+00 -0.00000000000E+00 -0.40000000000E+02  0.40000000000E+02  0.00000000000E+00 0. -1.
         23    2    1    2    0    0  0.00000000000E+00  0.00000000000E+00  0.00000000000E+00  0.80000000000E+02  0.80000000000E+02 0.  0.
          5    1    3    3  501    0 -0.21032213273E+01  0.34730006835E+02 -0.19165413778E+02  0.40000000000E+02  0.47000000000E+01 0. -1.
         -5    1    3    3    0  501  0.21032213273E+01 -0.34730006835E+02  0.19165413778E+02  0.40000000000E+02  0.47000000000E+01 0.  1.
</event>
<event>
 5    1  0.4814700E-001  0.8000000E+02  0.7546771E-02  0.1203772E+00
         11   -1    0    0    0    0  0.00000000000E+00  0.00000000000E+00  0.40000000000E+02  0.40000000000E+02  0.00000000000E+00 0. -1.
        -11   -1    0    0    0    0 -0.00000000000E+00 -0.00000000000E+00 -0.40000000000E+02  0.40000000000E+02  0.00000000000E+00 0.  1.
         23    2    1    2    0    0  0.00000000000E+00  0.00000000000E+00  0.00000000000E+00  0.80000000000E+02  0.80000000000E+02 0.  0.
          5    1    3    3  501    0 -0.12310023537E+02  0.18285154353E+01  0.37723067900E+02  0.40000000000E+02  0.47000000000E+01 0. -1.
         -5    1    3    3    0  501  0.12310023537E+02 -0.18285154353E+01 -0.37723067900E+02  0.40000000000E+02  0.47000000000E+01 0.  1.
</event>
<event>
 5    1  0.4814700E-001  0.8000000E+02  0.7546771E-02  0.1203772E+00
         11   -1    0    0    0    0  0.00000000000E+00  0.00000000000E+00  0.40000000000E+02  0.40000000000E+02  0.00000000000E+00 0.  1.
        -11   -1    0    0    0    0 -0.00000000000E+00 -0.00000000000E+00 -0.40000000000E+02  0.40000000000E+02  0.00000000000E+00 0. -1.
         23    2    1    2    0    0  0.00000000000E+00  0.00000000000E+00  0.00000000000E+00  0.80000000000E+02  0.80000000000E+02 0.  0.
          5    1    3    3  501    0 -0.37955826866E+02 -0.73108098643E+01  0.91551770081E+01  0.40000000000E+02  0.47000000000E+01 0. -1.
         -5    1    3    3    0  501  0.37955826866E+02  0.73108098643E+01 -0.91551770081E+01  0.40000000000E+02  0.47000000000E+01 0.  1.
</event>
<event>
 5    1  0.4814700E-001  0.8000000E+02  0.7546771E-02  0.1203772E+00
         11   -1    0    0    0    0  0.00000000000E+00  0.00000000000E+00  0.40000000000E+02  0.40000000000E+02  0.00000000000E+00 0. -1.
        -11   -1    0    0    0    0 -0.00000000000E+00 -0.00000000000E+00 -0.40000000000E+02  0.40000000000E+02  0.00000000000E+00 0.  1.
         23    2    1    2    0    0  0.00000000000E+00  0.00000000000E+00  0.00000000000E+00  0.80000000000E+02  0.80000000000E+02 0.  0.
          5    1    3    3  501    0 -0.68598446928E+01 -0.33628712311E+02  0.19999055956E+02  0.40000000000E+02  0.47000000000E+01 0. -1.
         -5    1    3    3    0  501  0.68598446928E+01  0.33628712311E+02 -0.19999055956E+02  0.40000000000E+02  0.47000000000E+01 0.  1.
</event>
<event>
 5    1  0.4814700E-001  0.8000000E+02  0.7546771E-02  0.1203772E+00
         11   -1    0    0    0    0  0.00000000000E+00  0.00000000000E+00  0.40000000000E+02  0.40000000000E+02  0.00000000000E+00 0.  1.
        -11   -1    0    0    0    0 -0.00000000000E+00 -0.00000000000E+00 -0.40000000000E+02  0.40000000000E+02  0.00000000000E+00 0. -1.
         23    2    1    2    0    0  0.00000000000E+00  0.00000000000E+00  0.00000000000E+00  0.80000000000E+02  0.80000000000E+02 0.  0.
          5    1    3    3  501    0 -0.30888934664E+02  0.21552675759E+02 -0.12620058754E+02  0.40000000000E+02  0.47000000000E+01 0. -1.
         -5    1    3    3    0  501  0.30888934664E+02 -0.21552675759E+02  0.12620058754E+02  0.40000000000E+02  0.47000000000E+01 0.  1.
</event>
<event>
 5    1  0.4814700E-001  0.8000000E+02  0.7546771E-02  0.1203772E+00
         11   -1    0    0    0    0  0.00000000000E+00  0.00000000000E+00  0.40000000000E+02  0.40000000000E+02  0.00000000000E+00 0.  1.
        -11   -1    0    0    0    0 -0.00000000000E+00 -0.00000000000E+00 -0.40000000000E+02  0.40000000000E+02  0.00000000000E+00 0. -1.
         23    2    1    2    0    0  0.00000000000E+00  0.00000000000E+00  0.00000000000E+00  0.80000000000E+02  0.80000000000E+02 0.  0.
          5    1    3    3  501    0  0.11820867533E+02 -0.14714785443E+02 -0.34952141281E+02  0.40000000000E+02  0.47000000000E+01 0. -1.
         -5    1    3    3    0  501 -0.11820867533E+02  0.14714785443E+02  0.34952141281E+02  0.40000000000E+02  0.47000000000E+01 0.  1.
</event>
<event>
 5    1  0.4814700E-001  0.8000000E+02  0.7546771E-02  0.1203772E+00
         11   -1    0    0    0    0  0.00000000000E+00  0.00000000000E+00  0.40000000000E+02  0.40000000000E+02  0.00000000000E+00 0.  1.
        -11   -1    0    0    0    0 -0.00000000000E+00 -0.00000000000E+00 -0.40000000000E+02  0.40000000000E+02  0.00000000000E+00 0. -1.
         23    2    1    2    0    0  0.00000000000E+00  0.00000000000E+00  0.00000000000E+00  0.80000000000E+02  0.80000000000E+02 0.  0.
          5    1    3    3  501    0 -0.28747318624E+02  0.17088444250E+02 -0.21435641932E+02  0.40000000000E+02  0.47000000000E+01 0. -1.
         -5    1    3    3    0  501  0.28747318624E+02 -0.17088444250E+02  0.21435641932E+02  0.40000000000E+02  0.47000000000E+01 0.  1.
</event>
<event>
 5    1  0.4814700E-001  0.8000000E+02  0.7546771E-02  0.1203772E+00
         11   -1    0    0    0    0  0.00000000000E+00  0.00000000000E+00  0.40000000000E+02  0.40000000000E+02  0.00000000000E+00 0. -1.
        -11   -1    0    0    0    0 -0.00000000000E+00 -0.00000000000E+00 -0.40000000000E+02  0.40000000000E+02  0.00000000000E+00 0.  1.
         23    2    1    2    0    0  0.00000000000E+00  0.00000000000E+00  0.00000000000E+00  0.80000000000E+02  0.80000000000E+02 0.  0.
          5    1    3    3  501    0 -0.31824630139E+02 -0.19933923868E+01  0.23688168002E+02  0.40000000000E+02  0.47000000000E+01 0. -1.
         -5    1    3    3    0  501  0.31824630139E+02  0.19933923868E+01 -0.23688168002E+02  0.40000000000E+02  0.47000000000E+01 0.  1.
</event>
<event>
 5    1  0.4814700E-001  0.8000000E+02  0.7546771E-02  0.1203772E+00
         11   -1    0    0    0    0  0.00000000000E+00  0.00000000000E+00  0.40000000000E+02  0.40000000000E+02  0.00000000000E+00 0.  1.
        -11   -1    0    0    0    0 -0.00000000000E+00 -0.00000000000E+00 -0.40000000000E+02  0.40000000000E+02  0.00000000000E+00 0. -1.
         23    2    1    2    0    0  0.00000000000E+00  0.00000000000E+00  0.00000000000E+00  0.80000000000E+02  0.80000000000E+02 0.  0.
          5    1    3    3  501    0  0.24553358677E+02  0.16528198946E+02 -0.26492663462E+02  0.40000000000E+02  0.47000000000E+01 0. -1.
         -5    1    3    3    0  501 -0.24553358677E+02 -0.16528198946E+02  0.26492663462E+02  0.40000000000E+02  0.47000000000E+01 0.  1.
</event>
<event>
 5    1  0.4814700E-001  0.8000000E+02  0.7546771E-02  0.1203772E+00
         11   -1    0    0    0    0  0.00000000000E+00  0.00000000000E+00  0.40000000000E+02  0.40000000000E+02  0.00000000000E+00 0. -1.
        -11   -1    0    0    0    0 -0.00000000000E+00 -0.00000000000E+00 -0.40000000000E+02  0.40000000000E+02  0.00000000000E+00 0.  1.
         23    2    1    2    0    0  0.00000000000E+00  0.00000000000E+00  0.00000000000E+00  0.80000000000E+02  0.80000000000E+02 0.  0.
          5    1    3    3  501    0  0.41298112572E+01 -0.34996659559E+02 -0.18332716075E+02  0.40000000000E+02  0.47000000000E+01 0.  1.
         -5    1    3    3    0  501 -0.41298112572E+01  0.34996659559E+02  0.18332716075E+02  0.40000000000E+02  0.47000000000E+01 0. -1.
</event>
<event>
 5    1  0.4814700E-001  0.8000000E+02  0.7546771E-02  0.1203772E+00
         11   -1    0    0    0    0  0.00000000000E+00  0.00000000000E+00  0.40000000000E+02  0.40000000000E+02  0.00000000000E+00 0. -1.
        -11   -1    0    0    0    0 -0.00000000000E+00 -0.00000000000E+00 -0.40000000000E+02  0.40000000000E+02  0.00000000000E+00 0.  1.
         23    2    1    2    0    0  0.00000000000E+00  0.00000000000E+00  0.00000000000E+00  0.80000000000E+02  0.80000000000E+02 0.  0.
          5    1    3    3  501    0 -0.15131905270E+02  0.36277151176E+02  0.57361786465E+01  0.40000000000E+02  0.47000000000E+01 0. -1.
         -5    1    3    3    0  501  0.15131905270E+02 -0.36277151176E+02 -0.57361786465E+01  0.40000000000E+02  0.47000000000E+01 0.  1.
</event>
<event>
 5    1  0.4814700E-001  0.8000000E+02  0.7546771E-02  0.1203772E+00
         11   -1    0    0    0    0  0.00000000000E+00  0.00000000000E+00  0.40000000000E+02  0.40000000000E+02  0.00000000000E+00 0. -1.
        -11   -1    0    0    0    0 -0.00000000000E+00 -0.00000000000E+00 -0.40000000000E+02  0.40000000000E+02  0.00000000000E+00 0.  1.
         23    2    1    2    0    0  0.00000000000E+00  0.00000000000E+00  0.00000000000E+00  0.80000000000E+02  0.80000000000E+02 0.  0.
          5    1    3    3  501    0  0.26903185702E+02  0.17694831052E+02  0.23259870016E+02  0.40000000000E+02  0.47000000000E+01 0. -1.
         -5    1    3    3    0  501 -0.26903185702E+02 -0.17694831052E+02 -0.23259870016E+02  0.40000000000E+02  0.47000000000E+01 0.  1.
</event>
<event>
 5    1  0.4814700E-001  0.8000000E+02  0.7546771E-02  0.1203772E+00
         11   -1    0    0    0    0  0.00000000000E+00  0.00000000000E+00  0.40000000000E+02  0.40000000000E+02  0.00000000000E+00 0.  1.
        -11   -1    0    0    0    0 -0.00000000000E+00 -0.00000000000E+00 -0.40000000000E+02  0.40000000000E+02  0.00000000000E+00 0. -1.
         23    2    1    2    0    0  0.00000000000E+00  0.00000000000E+00  0.00000000000E+00  0.80000000000E+02  0.80000000000E+02 0.  0.
          5    1    3    3  501    0  0.80418314644E+01  0.35934035316E+02 -0.14899129256E+02  0.40000000000E+02  0.47000000000E+01 0. -1.
         -5    1    3    3    0  501 -0.80418314644E+01 -0.35934035316E+02  0.14899129256E+02  0.40000000000E+02  0.47000000000E+01 0.  1.
</event>
<event>
 5    1  0.4814700E-001  0.8000000E+02  0.7546771E-02  0.1203772E+00
         11   -1    0    0    0    0  0.00000000000E+00  0.00000000000E+00  0.40000000000E+02  0.40000000000E+02  0.00000000000E+00 0.  1.
        -11   -1    0    0    0    0 -0.00000000000E+00 -0.00000000000E+00 -0.40000000000E+02  0.40000000000E+02  0.00000000000E+00 0. -1.
         23    2    1    2    0    0  0.00000000000E+00  0.00000000000E+00  0.00000000000E+00  0.80000000000E+02  0.80000000000E+02 0.  0.
          5    1    3    3  501    0 -0.17298676669E+02 -0.30817886111E+02 -0.18136253228E+02  0.40000000000E+02  0.47000000000E+01 0. -1.
         -5    1    3    3    0  501  0.17298676669E+02  0.30817886111E+02  0.18136253228E+02  0.40000000000E+02  0.47000000000E+01 0.  1.
</event>
<event>
 5    1  0.4814700E-001  0.8000000E+02  0.7546771E-02  0.1203772E+00
         11   -1    0    0    0    0  0.00000000000E+00  0.00000000000E+00  0.40000000000E+02  0.40000000000E+02  0.00000000000E+00 0. -1.
        -11   -1    0    0    0    0 -0.00000000000E+00 -0.00000000000E+00 -0.40000000000E+02  0.40000000000E+02  0.00000000000E+00 0.  1.
         23    2    1    2    0    0  0.00000000000E+00  0.00000000000E+00  0.00000000000E+00  0.80000000000E+02  0.80000000000E+02 0.  0.
          5    1    3    3  501    0  0.78909346350E+01  0.29237819730E+02  0.25705895199E+02  0.40000000000E+02  0.47000000000E+01 0. -1.
         -5    1    3    3    0  501 -0.78909346350E+01 -0.29237819730E+02 -0.25705895199E+02  0.40000000000E+02  0.47000000000E+01 0.  1.
</event>
<event>
 5    1  0.4814700E-001  0.8000000E+02  0.7546771E-02  0.1203772E+00
         11   -1    0    0    0    0  0.00000000000E+00  0.00000000000E+00  0.40000000000E+02  0.40000000000E+02  0.00000000000E+00 0. -1.
        -11   -1    0    0    0    0 -0.00000000000E+00 -0.00000000000E+00 -0.40000000000E+02  0.40000000000E+02  0.00000000000E+00 0.  1.
         23    2    1    2    0    0  0.00000000000E+00  0.00000000000E+00  0.00000000000E+00  0.80000000000E+02  0.80000000000E+02 0.  0.
          5    1    3    3  501    0 -0.55366434851E+01  0.38333640096E+02  0.88197287893E+01  0.40000000000E+02  0.47000000000E+01 0. -1.
         -5    1    3    3    0  501  0.55366434851E+01 -0.38333640096E+02 -0.88197287893E+01  0.40000000000E+02  0.47000000000E+01 0.  1.
</event>
<event>
 5    1  0.4814700E-001  0.8000000E+02  0.7546771E-02  0.1203772E+00
         11   -1    0    0    0    0  0.00000000000E+00  0.00000000000E+00  0.40000000000E+02  0.40000000000E+02  0.00000000000E+00 0. -1.
        -11   -1    0    0    0    0 -0.00000000000E+00 -0.00000000000E+00 -0.40000000000E+02  0.40000000000E+02  0.00000000000E+00 0.  1.
         23    2    1    2    0    0  0.00000000000E+00  0.00000000000E+00  0.00000000000E+00  0.80000000000E+02  0.80000000000E+02 0.  0.
          5    1    3    3  501    0  0.25227576907E+02  0.27706888234E+02  0.13183615127E+02  0.40000000000E+02  0.47000000000E+01 0. -1.
         -5    1    3    3    0  501 -0.25227576907E+02 -0.27706888234E+02 -0.13183615127E+02  0.40000000000E+02  0.47000000000E+01 0.  1.
</event>
<event>
 5    1  0.4814700E-001  0.8000000E+02  0.7546771E-02  0.1203772E+00
         11   -1    0    0    0    0  0.00000000000E+00  0.00000000000E+00  0.40000000000E+02  0.40000000000E+02  0.00000000000E+00 0.  1.
        -11   -1    0    0    0    0 -0.00000000000E+00 -0.00000000000E+00 -0.40000000000E+02  0.40000000000E+02  0.00000000000E+00 0. -1.
         23    2    1    2    0    0  0.00000000000E+00  0.00000000000E+00  0.00000000000E+00  0.80000000000E+02  0.80000000000E+02 0.  0.
          5    1    3    3  501    0  0.10078027486E+02  0.36774945406E+02  0.11133137579E+02  0.40000000000E+02  0.47000000000E+01 0. -1.
         -5    1    3    3    0  501 -0.10078027486E+02 -0.36774945406E+02 -0.11133137579E+02  0.40000000000E+02  0.47000000000E+01 0.  1.
</event>
<event>
 5    1  0.4814700E-001  0.8000000E+02  0.7546771E-02  0.1203772E+00
         11   -1    0    0    0    0  0.00000000000E+00  0.00000000000E+00  0.40000000000E+02  0.40000000000E+02  0.00000000000E+00 0. -1.
        -11   -1    0    0    0    0 -0.00000000000E+00 -0.00000000000E+00 -0.40000000000E+02  0.40000000000E+02  0.00000000000E+00 0.  1.
         23    2    1    2    0    0  0.00000000000E+00  0.00000000000E+00  0.00000000000E+00  0.80000000000E+02  0.80000000000E+02 0.  0.
          5    1    3    3  501    0  0.14874836674E+02 -0.20330277272E+02  0.30713662432E+02  0.40000000000E+02  0.47000000000E+01 0. -1.
         -5    1    3    3    0  501 -0.14874836674E+02  0.20330277272E+02 -0.30713662432E+02  0.40000000000E+02  0.47000000000E+01 0.  1.
</event>
<event>
 5    1  0.4814700E-001  0.8000000E+02  0.7546771E-02  0.1203772E+00
         11   -1    0    0    0    0  0.00000000000E+00  0.00000000000E+00  0.40000000000E+02  0.40000000000E+02  0.00000000000E+00 0.  1.
        -11   -1    0    0    0    0 -0.00000000000E+00 -0.00000000000E+00 -0.40000000000E+02  0.40000000000E+02  0.00000000000E+00 0. -1.
         23    2    1    2    0    0  0.00000000000E+00  0.00000000000E+00  0.00000000000E+00  0.80000000000E+02  0.80000000000E+02 0.  0.
          5    1    3    3  501    0  0.21465516568E+02 -0.18737166157E+02 -0.27677792594E+02  0.40000000000E+02  0.47000000000E+01 0. -1.
         -5    1    3    3    0  501 -0.21465516568E+02  0.18737166157E+02  0.27677792594E+02  0.40000000000E+02  0.47000000000E+01 0.  1.
</event>
<event>
 5    1  0.4814700E-001  0.8000000E+02  0.7546771E-02  0.1203772E+00
         11   -1    0    0    0    0  0.00000000000E+00  0.00000000000E+00  0.40000000000E+02  0.40000000000E+02  0.00000000000E+00 0.  1.
        -11   -1    0    0    0    0 -0.00000000000E+00 -0.00000000000E+00 -0.40000000000E+02  0.40000000000E+02  0.00000000000E+00 0. -1.
         23    2    1    2    0    0  0.00000000000E+00  0.00000000000E+00  0.00000000000E+00  0.80000000000E+02  0.80000000000E+02 0.  0.
          5    1    3    3  501    0  0.25414087932E+01  0.31909157962E+02 -0.23521413213E+02  0.40000000000E+02  0.47000000000E+01 0. -1.
         -5    1    3    3    0  501 -0.25414087932E+01 -0.31909157962E+02  0.23521413213E+02  0.40000000000E+02  0.47000000000E+01 0.  1.
</event>
<event>
 5    1  0.4814700E-001  0.8000000E+02  0.7546771E-02  0.1203772E+00
         11   -1    0    0    0    0  0.00000000000E+00  0.00000000000E+00  0.40000000000E+02  0.40000000000E+02  0.00000000000E+00 0.  1.
        -11   -1    0    0    0    0 -0.00000000000E+00 -0.00000000000E+00 -0.40000000000E+02  0.40000000000E+02  0.00000000000E+00 0. -1.
         23    2    1    2    0    0  0.00000000000E+00  0.00000000000E+00  0.00000000000E+00  0.80000000000E+02  0.80000000000E+02 0.  0.
          5    1    3    3  501    0  0.21162126361E+02  0.30838606660E+02  0.13381134000E+02  0.40000000000E+02  0.47000000000E+01 0. -1.
         -5    1    3    3    0  501 -0.21162126361E+02 -0.30838606660E+02 -0.13381134000E+02  0.40000000000E+02  0.47000000000E+01 0.  1.
</event>
<event>
 5    1  0.4814700E-001  0.8000000E+02  0.7546771E-02  0.1203772E+00
         11   -1    0    0    0    0  0.00000000000E+00  0.00000000000E+00  0.40000000000E+02  0.40000000000E+02  0.00000000000E+00 0.  1.
        -11   -1    0    0    0    0 -0.00000000000E+00 -0.00000000000E+00 -0.40000000000E+02  0.40000000000E+02  0.00000000000E+00 0. -1.
         23    2    1    2    0    0  0.00000000000E+00  0.00000000000E+00  0.00000000000E+00  0.80000000000E+02  0.80000000000E+02 0.  0.
          5    1    3    3  501    0  0.58289818745E+00 -0.25987478295E+02 -0.30036997213E+02  0.40000000000E+02  0.47000000000E+01 0. -1.
         -5    1    3    3    0  501 -0.58289818745E+00  0.25987478295E+02  0.30036997213E+02  0.40000000000E+02  0.47000000000E+01 0.  1.
</event>
<event>
 5    1  0.4814700E-001  0.8000000E+02  0.7546771E-02  0.1203772E+00
         11   -1    0    0    0    0  0.00000000000E+00  0.00000000000E+00  0.40000000000E+02  0.40000000000E+02  0.00000000000E+00 0.  1.
        -11   -1    0    0    0    0 -0.00000000000E+00 -0.00000000000E+00 -0.40000000000E+02  0.40000000000E+02  0.00000000000E+00 0. -1.
         23    2    1    2    0    0  0.00000000000E+00  0.00000000000E+00  0.00000000000E+00  0.80000000000E+02  0.80000000000E+02 0.  0.
          5    1    3    3  501    0 -0.24292300520E+02  0.11552707925E+01 -0.31407952574E+02  0.40000000000E+02  0.47000000000E+01 0. -1.
         -5    1    3    3    0  501  0.24292300520E+02 -0.11552707925E+01  0.31407952574E+02  0.40000000000E+02  0.47000000000E+01 0.  1.
</event>
<event>
 5    1  0.4814700E-001  0.8000000E+02  0.7546771E-02  0.1203772E+00
         11   -1    0    0    0    0  0.00000000000E+00  0.00000000000E+00  0.40000000000E+02  0.40000000000E+02  0.00000000000E+00 0. -1.
        -11   -1    0    0    0    0 -0.00000000000E+00 -0.00000000000E+00 -0.40000000000E+02  0.40000000000E+02  0.00000000000E+00 0.  1.
         23    2    1    2    0    0  0.00000000000E+00  0.00000000000E+00  0.00000000000E+00  0.80000000000E+02  0.80000000000E+02 0.  0.
          5    1    3    3  501    0 -0.85502006821E+01  0.35471951550E+02 -0.15701742626E+02  0.40000000000E+02  0.47000000000E+01 0.  1.
         -5    1    3    3    0  501  0.85502006821E+01 -0.35471951550E+02  0.15701742626E+02  0.40000000000E+02  0.47000000000E+01 0. -1.
</event>
<event>
 5    1  0.4814700E-001  0.8000000E+02  0.7546771E-02  0.1203772E+00
         11   -1    0    0    0    0  0.00000000000E+00  0.00000000000E+00  0.40000000000E+02  0.40000000000E+02  0.00000000000E+00 0.  1.
        -11   -1    0    0    0    0 -0.00000000000E+00 -0.00000000000E+00 -0.40000000000E+02  0.40000000000E+02  0.00000000000E+00 0. -1.
         23    2    1    2    0    0  0.00000000000E+00  0.00000000000E+00  0.00000000000E+00  0.80000000000E+02  0.80000000000E+02 0.  0.
          5    1    3    3  501    0 -0.13371524178E+02  0.34268562658E+02 -0.14992596655E+02  0.40000000000E+02  0.47000000000E+01 0. -1.
         -5    1    3    3    0  501  0.13371524178E+02 -0.34268562658E+02  0.14992596655E+02  0.40000000000E+02  0.47000000000E+01 0.  1.
</event>
<event>
 5    1  0.4814700E-001  0.8000000E+02  0.7546771E-02  0.1203772E+00
         11   -1    0    0    0    0  0.00000000000E+00  0.00000000000E+00  0.40000000000E+02  0.40000000000E+02  0.00000000000E+00 0.  1.
        -11   -1    0    0    0    0 -0.00000000000E+00 -0.00000000000E+00 -0.40000000000E+02  0.40000000000E+02  0.00000000000E+00 0. -1.
         23    2    1    2    0    0  0.00000000000E+00  0.00000000000E+00  0.00000000000E+00  0.80000000000E+02  0.80000000000E+02 0.  0.
          5    1    3    3  501    0  0.30561984248E+02 -0.22181229723E+02 -0.12323480302E+02  0.40000000000E+02  0.47000000000E+01 0. -1.
         -5    1    3    3    0  501 -0.30561984248E+02  0.22181229723E+02  0.12323480302E+02  0.40000000000E+02  0.47000000000E+01 0.  1.
</event>
<event>
 5    1  0.4814700E-001  0.8000000E+02  0.7546771E-02  0.1203772E+00
         11   -1    0    0    0    0  0.00000000000E+00  0.00000000000E+00  0.40000000000E+02  0.40000000000E+02  0.00000000000E+00 0.  1.
        -11   -1    0    0    0    0 -0.00000000000E+00 -0.00000000000E+00 -0.40000000000E+02  0.40000000000E+02  0.00000000000E+00 0. -1.
         23    2    1    2    0    0  0.00000000000E+00  0.00000000000E+00  0.00000000000E+00  0.80000000000E+02  0.80000000000E+02 0.  0.
          5    1    3    3  501    0 -0.13669275078E+02  0.39183260191E+01 -0.37090533025E+02  0.40000000000E+02  0.47000000000E+01 0. -1.
         -5    1    3    3    0  501  0.13669275078E+02 -0.39183260191E+01  0.37090533025E+02  0.40000000000E+02  0.47000000000E+01 0.  1.
</event>
<event>
 5    1  0.4814700E-001  0.8000000E+02  0.7546771E-02  0.1203772E+00
         11   -1    0    0    0    0  0.00000000000E+00  0.00000000000E+00  0.40000000000E+02  0.40000000000E+02  0.00000000000E+00 0.  1.
        -11   -1    0    0    0    0 -0.00000000000E+00 -0.00000000000E+00 -0.40000000000E+02  0.40000000000E+02  0.00000000000E+00 0. -1.
         23    2    1    2    0    0  0.00000000000E+00  0.00000000000E+00  0.00000000000E+00  0.80000000000E+02  0.80000000000E+02 0.  0.
          5    1    3    3  501    0  0.12552117039E+02  0.16161879183E+02 -0.34046262925E+02  0.40000000000E+02  0.47000000000E+01 0. -1.
         -5    1    3    3    0  501 -0.12552117039E+02 -0.16161879183E+02  0.34046262925E+02  0.40000000000E+02  0.47000000000E+01 0.  1.
</event>
<event>
 5    1  0.4814700E-001  0.8000000E+02  0.7546771E-02  0.1203772E+00
         11   -1    0    0    0    0  0.00000000000E+00  0.00000000000E+00  0.40000000000E+02  0.40000000000E+02  0.00000000000E+00 0.  1.
        -11   -1    0    0    0    0 -0.00000000000E+00 -0.00000000000E+00 -0.40000000000E+02  0.40000000000E+02  0.00000000000E+00 0. -1.
         23    2    1    2    0    0  0.00000000000E+00  0.00000000000E+00  0.00000000000E+00  0.80000000000E+02  0.80000000000E+02 0.  0.
          5    1    3    3  501    0 -0.93519410774E+01 -0.36418551887E+02 -0.12811724183E+02  0.40000000000E+02  0.47000000000E+01 0. -1.
         -5    1    3    3    0  501  0.93519410774E+01  0.36418551887E+02  0.12811724183E+02  0.40000000000E+02  0.47000000000E+01 0.  1.
</event>
<event>
 5    1  0.4814700E-001  0.8000000E+02  0.7546771E-02  0.1203772E+00
         11   -1    0    0    0    0  0.00000000000E+00  0.00000000000E+00  0.40000000000E+02  0.40000000000E+02  0.00000000000E+00 0.  1.
        -11   -1    0    0    0    0 -0.00000000000E+00 -0.00000000000E+00 -0.40000000000E+02  0.40000000000E+02  0.00000000000E+00 0. -1.
         23    2    1    2    0    0  0.00000000000E+00  0.00000000000E+00  0.00000000000E+00  0.80000000000E+02  0.80000000000E+02 0.  0.
          5    1    3    3  501    0  0.22124807077E+02  0.24095780448E+02 -0.22534335499E+02  0.40000000000E+02  0.47000000000E+01 0. -1.
         -5    1    3    3    0  501 -0.22124807077E+02 -0.24095780448E+02  0.22534335499E+02  0.40000000000E+02  0.47000000000E+01 0.  1.
</event>
<event>
 5    1  0.4814700E-001  0.8000000E+02  0.7546771E-02  0.1203772E+00
         11   -1    0    0    0    0  0.00000000000E+00  0.00000000000E+00  0.40000000000E+02  0.40000000000E+02  0.00000000000E+00 0.  1.
        -11   -1    0    0    0    0 -0.00000000000E+00 -0.00000000000E+00 -0.40000000000E+02  0.40000000000E+02  0.00000000000E+00 0. -1.
         23    2    1    2    0    0  0.00000000000E+00  0.00000000000E+00  0.00000000000E+00  0.80000000000E+02  0.80000000000E+02 0.  0.
          5    1    3    3  501    0  0.13325570095E+02  0.32293285132E+02 -0.18907218649E+02  0.40000000000E+02  0.47000000000E+01 0. -1.
         -5    1    3    3    0  501 -0.13325570095E+02 -0.32293285132E+02  0.18907218649E+02  0.40000000000E+02  0.47000000000E+01 0.  1.
</event>
<event>
 5    1  0.4814700E-001  0.8000000E+02  0.7546771E-02  0.1203772E+00
         11   -1    0    0    0    0  0.00000000000E+00  0.00000000000E+00  0.40000000000E+02  0.40000000000E+02  0.00000000000E+00 0. -1.
        -11   -1    0    0    0    0 -0.00000000000E+00 -0.00000000000E+00 -0.40000000000E+02  0.40000000000E+02  0.00000000000E+00 0.  1.
         23    2    1    2    0    0  0.00000000000E+00  0.00000000000E+00  0.00000000000E+00  0.80000000000E+02  0.80000000000E+02 0.  0.
          5    1    3    3  501    0 -0.30260299881E+02  0.23861021849E+02  0.96372136770E+01  0.40000000000E+02  0.47000000000E+01 0. -1.
         -5    1    3    3    0  501  0.30260299881E+02 -0.23861021849E+02 -0.96372136770E+01  0.40000000000E+02  0.47000000000E+01 0.  1.
</event>
<event>
 5    1  0.4814700E-001  0.8000000E+02  0.7546771E-02  0.1203772E+00
         11   -1    0    0    0    0  0.00000000000E+00  0.00000000000E+00  0.40000000000E+02  0.40000000000E+02  0.00000000000E+00 0. -1.
        -11   -1    0    0    0    0 -0.00000000000E+00 -0.00000000000E+00 -0.40000000000E+02  0.40000000000E+02  0.00000000000E+00 0.  1.
         23    2    1    2    0    0  0.00000000000E+00  0.00000000000E+00  0.00000000000E+00  0.80000000000E+02  0.80000000000E+02 0.  0.
          5    1    3    3  501    0  0.12343151302E+02  0.26716996026E+02 -0.26678806931E+02  0.40000000000E+02  0.47000000000E+01 0. -1.
         -5    1    3    3    0  501 -0.12343151302E+02 -0.26716996026E+02  0.26678806931E+02  0.40000000000E+02  0.47000000000E+01 0.  1.
</event>
<event>
 5    1  0.4814700E-001  0.8000000E+02  0.7546771E-02  0.1203772E+00
         11   -1    0    0    0    0  0.00000000000E+00  0.00000000000E+00  0.40000000000E+02  0.40000000000E+02  0.00000000000E+00 0. -1.
        -11   -1    0    0    0    0 -0.00000000000E+00 -0.00000000000E+00 -0.40000000000E+02  0.40000000000E+02  0.00000000000E+00 0.  1.
         23    2    1    2    0    0  0.00000000000E+00  0.00000000000E+00  0.00000000000E+00  0.80000000000E+02  0.80000000000E+02 0.  0.
          5    1    3    3  501    0 -0.26058596854E+02 -0.42626121391E+00  0.29977955757E+02  0.40000000000E+02  0.47000000000E+01 0. -1.
         -5    1    3    3    0  501  0.26058596854E+02  0.42626121391E+00 -0.29977955757E+02  0.40000000000E+02  0.47000000000E+01 0.  1.
</event>
<event>
 5    1  0.4814700E-001  0.8000000E+02  0.7546771E-02  0.1203772E+00
         11   -1    0    0    0    0  0.00000000000E+00  0.00000000000E+00  0.40000000000E+02  0.40000000000E+02  0.00000000000E+00 0. -1.
        -11   -1    0    0    0    0 -0.00000000000E+00 -0.00000000000E+00 -0.40000000000E+02  0.40000000000E+02  0.00000000000E+00 0.  1.
         23    2    1    2    0    0  0.00000000000E+00  0.00000000000E+00  0.00000000000E+00  0.80000000000E+02  0.80000000000E+02 0.  0.
          5    1    3    3  501    0  0.17383688577E+02 -0.26441167147E+02  0.24012123009E+02  0.40000000000E+02  0.47000000000E+01 0. -1.
         -5    1    3    3    0  501 -0.17383688577E+02  0.26441167147E+02 -0.24012123009E+02  0.40000000000E+02  0.47000000000E+01 0.  1.
</event>
<event>
 5    1  0.4814700E-001  0.8000000E+02  0.7546771E-02  0.1203772E+00
         11   -1    0    0    0    0  0.00000000000E+00  0.00000000000E+00  0.40000000000E+02  0.40000000000E+02  0.00000000000E+00 0. -1.
        -11   -1    0    0    0    0 -0.00000000000E+00 -0.00000000000E+00 -0.40000000000E+02  0.40000000000E+02  0.00000000000E+00 0.  1.
         23    2    1    2    0    0  0.00000000000E+00  0.00000000000E+00  0.00000000000E+00  0.80000000000E+02  0.80000000000E+02 0.  0.
          5    1    3    3  501    0  0.14785032902E+02  0.27700010228E+02  0.24331507053E+02  0.40000000000E+02  0.47000000000E+01 0. -1.
         -5    1    3    3    0  501 -0.14785032902E+02 -0.27700010228E+02 -0.24331507053E+02  0.40000000000E+02  0.47000000000E+01 0.  1.
</event>
<event>
 5    1  0.4814700E-001  0.8000000E+02  0.7546771E-02  0.1203772E+00
         11   -1    0    0    0    0  0.00000000000E+00  0.00000000000E+00  0.40000000000E+02  0.40000000000E+02  0.00000000000E+00 0. -1.
        -11   -1    0    0    0    0 -0.00000000000E+00 -0.00000000000E+00 -0.40000000000E+02  0.40000000000E+02  0.00000000000E+00 0.  1.
         23    2    1    2    0    0  0.00000000000E+00  0.00000000000E+00  0.00000000000E+00  0.80000000000E+02  0.80000000000E+02 0.  0.
          5    1    3    3  501    0 -0.12531318778E+02  0.16745701234E+02  0.33770660933E+02  0.40000000000E+02  0.47000000000E+01 0. -1.
         -5    1    3    3    0  501  0.12531318778E+02 -0.16745701234E+02 -0.33770660933E+02  0.40000000000E+02  0.47000000000E+01 0.  1.
</event>
<event>
 5    1  0.4814700E-001  0.8000000E+02  0.7546771E-02  0.1203772E+00
         11   -1    0    0    0    0  0.00000000000E+00  0.00000000000E+00  0.40000000000E+02  0.40000000000E+02  0.00000000000E+00 0. -1.
        -11   -1    0    0    0    0 -0.00000000000E+00 -0.00000000000E+00 -0.40000000000E+02  0.40000000000E+02  0.00000000000E+00 0.  1.
         23    2    1    2    0    0  0.00000000000E+00  0.00000000000E+00  0.00000000000E+00  0.80000000000E+02  0.80000000000E+02 0.  0.
          5    1    3    3  501    0 -0.43632083329E+01  0.31474684396E+01  0.39356903530E+02  0.40000000000E+02  0.47000000000E+01 0. -1.
         -5    1    3    3    0  501  0.43632083329E+01 -0.31474684396E+01 -0.39356903530E+02  0.40000000000E+02  0.47000000000E+01 0.  1.
</event>
<event>
 5    1  0.4814700E-001  0.8000000E+02  0.7546771E-02  0.1203772E+00
         11   -1    0    0    0    0  0.00000000000E+00  0.00000000000E+00  0.40000000000E+02  0.40000000000E+02  0.00000000000E+00 0. -1.
        -11   -1    0    0    0    0 -0.00000000000E+00 -0.00000000000E+00 -0.40000000000E+02  0.40000000000E+02  0.00000000000E+00 0.  1.
         23    2    1    2    0    0  0.00000000000E+00  0.00000000000E+00  0.00000000000E+00  0.80000000000E+02  0.80000000000E+02 0.  0.
          5    1    3    3  501    0  0.50577622188E+01  0.35372544231E+02  0.17352583552E+02  0.40000000000E+02  0.47000000000E+01 0. -1.
         -5    1    3    3    0  501 -0.50577622188E+01 -0.35372544231E+02 -0.17352583552E+02  0.40000000000E+02  0.47000000000E+01 0.  1.
</event>
<event>
 5    1  0.4814700E-001  0.8000000E+02  0.7546771E-02  0.1203772E+00
         11   -1    0    0    0    0  0.00000000000E+00  0.00000000000E+00  0.40000000000E+02  0.40000000000E+02  0.00000000000E+00 0.  1.
        -11   -1    0    0    0    0 -0.00000000000E+00 -0.00000000000E+00 -0.40000000000E+02  0.40000000000E+02  0.00000000000E+00 0. -1.
         23    2    1    2    0    0  0.00000000000E+00  0.00000000000E+00  0.00000000000E+00  0.80000000000E+02  0.80000000000E+02 0.  0.
          5    1    3    3  501    0  0.21085552273E+02 -0.14643601778E+02 -0.30312941334E+02  0.40000000000E+02  0.47000000000E+01 0. -1.
         -5    1    3    3    0  501 -0.21085552273E+02  0.14643601778E+02  0.30312941334E+02  0.40000000000E+02  0.47000000000E+01 0.  1.
</event>
<event>
 5    1  0.4814700E-001  0.8000000E+02  0.7546771E-02  0.1203772E+00
         11   -1    0    0    0    0  0.00000000000E+00  0.00000000000E+00  0.40000000000E+02  0.40000000000E+02  0.00000000000E+00 0. -1.
        -11   -1    0    0    0    0 -0.00000000000E+00 -0.00000000000E+00 -0.40000000000E+02  0.40000000000E+02  0.00000000000E+00 0.  1.
         23    2    1    2    0    0  0.00000000000E+00  0.00000000000E+00  0.00000000000E+00  0.80000000000E+02  0.80000000000E+02 0.  0.
          5    1    3    3  501    0  0.32582939177E+01 -0.22127382432E+02  0.32827922070E+02  0.40000000000E+02  0.47000000000E+01 0. -1.
         -5    1    3    3    0  501 -0.32582939177E+01  0.22127382432E+02 -0.32827922070E+02  0.40000000000E+02  0.47000000000E+01 0.  1.
</event>
<event>
 5    1  0.4814700E-001  0.8000000E+02  0.7546771E-02  0.1203772E+00
         11   -1    0    0    0    0  0.00000000000E+00  0.00000000000E+00  0.40000000000E+02  0.40000000000E+02  0.00000000000E+00 0. -1.
        -11   -1    0    0    0    0 -0.00000000000E+00 -0.00000000000E+00 -0.40000000000E+02  0.40000000000E+02  0.00000000000E+00 0.  1.
         23    2    1    2    0    0  0.00000000000E+00  0.00000000000E+00  0.00000000000E+00  0.80000000000E+02  0.80000000000E+02 0.  0.
          5    1    3    3  501    0 -0.64330079395E+01 -0.17159895985E+02  0.35242933741E+02  0.40000000000E+02  0.47000000000E+01 0. -1.
         -5    1    3    3    0  501  0.64330079395E+01  0.17159895985E+02 -0.35242933741E+02  0.40000000000E+02  0.47000000000E+01 0.  1.
</event>
<event>
 5    1  0.4814700E-001  0.8000000E+02  0.7546771E-02  0.1203772E+00
         11   -1    0    0    0    0  0.00000000000E+00  0.00000000000E+00  0.40000000000E+02  0.40000000000E+02  0.00000000000E+00 0.  1.
        -11   -1    0    0    0    0 -0.00000000000E+00 -0.00000000000E+00 -0.40000000000E+02  0.40000000000E+02  0.00000000000E+00 0. -1.
         23    2    1    2    0    0  0.00000000000E+00  0.00000000000E+00  0.00000000000E+00  0.80000000000E+02  0.80000000000E+02 0.  0.
          5    1    3    3  501    0  0.54789258897E+01 -0.21193653662E+02 -0.33146951829E+02  0.40000000000E+02  0.47000000000E+01 0. -1.
         -5    1    3    3    0  501 -0.54789258897E+01  0.21193653662E+02  0.33146951829E+02  0.40000000000E+02  0.47000000000E+01 0.  1.
</event>
<event>
 5    1  0.4814700E-001  0.8000000E+02  0.7546771E-02  0.1203772E+00
         11   -1    0    0    0    0  0.00000000000E+00  0.00000000000E+00  0.40000000000E+02  0.40000000000E+02  0.00000000000E+00 0.  1.
        -11   -1    0    0    0    0 -0.00000000000E+00 -0.00000000000E+00 -0.40000000000E+02  0.40000000000E+02  0.00000000000E+00 0. -1.
         23    2    1    2    0    0  0.00000000000E+00  0.00000000000E+00  0.00000000000E+00  0.80000000000E+02  0.80000000000E+02 0.  0.
          5    1    3    3  501    0  0.21995581885E+01  0.38109351747E+02 -0.10988596506E+02  0.40000000000E+02  0.47000000000E+01 0. -1.
         -5    1    3    3    0  501 -0.21995581885E+01 -0.38109351747E+02  0.10988596506E+02  0.40000000000E+02  0.47000000000E+01 0.  1.
</event>
<event>
 5    1  0.4814700E-001  0.8000000E+02  0.7546771E-02  0.1203772E+00
         11   -1    0    0    0    0  0.00000000000E+00  0.00000000000E+00  0.40000000000E+02  0.40000000000E+02  0.00000000000E+00 0.  1.
        -11   -1    0    0    0    0 -0.00000000000E+00 -0.00000000000E+00 -0.40000000000E+02  0.40000000000E+02  0.00000000000E+00 0. -1.
         23    2    1    2    0    0  0.00000000000E+00  0.00000000000E+00  0.00000000000E+00  0.80000000000E+02  0.80000000000E+02 0.  0.
          5    1    3    3  501    0 -0.21617868829E+02 -0.23105414484E+02 -0.24014944697E+02  0.40000000000E+02  0.47000000000E+01 0. -1.
         -5    1    3    3    0  501  0.21617868829E+02  0.23105414484E+02  0.24014944697E+02  0.40000000000E+02  0.47000000000E+01 0.  1.
</event>
<event>
 5    1  0.4814700E-001  0.8000000E+02  0.7546771E-02  0.1203772E+00
         11   -1    0    0    0    0  0.00000000000E+00  0.00000000000E+00  0.40000000000E+02  0.40000000000E+02  0.00000000000E+00 0.  1.
        -11   -1    0    0    0    0 -0.00000000000E+00 -0.00000000000E+00 -0.40000000000E+02  0.40000000000E+02  0.00000000000E+00 0. -1.
         23    2    1    2    0    0  0.00000000000E+00  0.00000000000E+00  0.00000000000E+00  0.80000000000E+02  0.80000000000E+02 0.  0.
          5    1    3    3  501    0 -0.20922402193E+02 -0.21277179714E+02 -0.26219166842E+02  0.40000000000E+02  0.47000000000E+01 0. -1.
         -5    1    3    3    0  501  0.20922402193E+02  0.21277179714E+02  0.26219166842E+02  0.40000000000E+02  0.47000000000E+01 0.  1.
</event>
<event>
 5    1  0.4814700E-001  0.8000000E+02  0.7546771E-02  0.1203772E+00
         11   -1    0    0    0    0  0.00000000000E+00  0.00000000000E+00  0.40000000000E+02  0.40000000000E+02  0.00000000000E+00 0.  1.
        -11   -1    0    0    0    0 -0.00000000000E+00 -0.00000000000E+00 -0.40000000000E+02  0.40000000000E+02  0.00000000000E+00 0. -1.
         23    2    1    2    0    0  0.00000000000E+00  0.00000000000E+00  0.00000000000E+00  0.80000000000E+02  0.80000000000E+02 0.  0.
          5    1    3    3  501    0  0.36992376199E+02 -0.27269527478E+01 -0.14214001261E+02  0.40000000000E+02  0.47000000000E+01 0. -1.
         -5    1    3    3    0  501 -0.36992376199E+02  0.27269527478E+01  0.14214001261E+02  0.40000000000E+02  0.47000000000E+01 0.  1.
</event>
<event>
 5    1  0.4814700E-001  0.8000000E+02  0.7546771E-02  0.1203772E+00
         11   -1    0    0    0    0  0.00000000000E+00  0.00000000000E+00  0.40000000000E+02  0.40000000000E+02  0.00000000000E+00 0. -1.
        -11   -1    0    0    0    0 -0.00000000000E+00 -0.00000000000E+00 -0.40000000000E+02  0.40000000000E+02  0.00000000000E+00 0.  1.
         23    2    1    2    0    0  0.00000000000E+00  0.00000000000E+00  0.00000000000E+00  0.80000000000E+02  0.80000000000E+02 0.  0.
          5    1    3    3  501    0  0.23508704592E+02  0.31229362293E+02  0.70694935598E+01  0.40000000000E+02  0.47000000000E+01 0. -1.
         -5    1    3    3    0  501 -0.23508704592E+02 -0.31229362293E+02 -0.70694935598E+01  0.40000000000E+02  0.47000000000E+01 0.  1.
</event>
<event>
 5    1  0.4814700E-001  0.8000000E+02  0.7546771E-02  0.1203772E+00
         11   -1    0    0    0    0  0.00000000000E+00  0.00000000000E+00  0.40000000000E+02  0.40000000000E+02  0.00000000000E+00 0.  1.
        -11   -1    0    0    0    0 -0.00000000000E+00 -0.00000000000E+00 -0.40000000000E+02  0.40000000000E+02  0.00000000000E+00 0. -1.
         23    2    1    2    0    0  0.00000000000E+00  0.00000000000E+00  0.00000000000E+00  0.80000000000E+02  0.80000000000E+02 0.  0.
          5    1    3    3  501    0  0.26643116044E+02 -0.27888078658E+02  0.95031277087E+01  0.40000000000E+02  0.47000000000E+01 0. -1.
         -5    1    3    3    0  501 -0.26643116044E+02  0.27888078658E+02 -0.95031277087E+01  0.40000000000E+02  0.47000000000E+01 0.  1.
</event>
<event>
 5    1  0.4814700E-001  0.8000000E+02  0.7546771E-02  0.1203772E+00
         11   -1    0    0    0    0  0.00000000000E+00  0.00000000000E+00  0.40000000000E+02  0.40000000000E+02  0.00000000000E+00 0. -1.
        -11   -1    0    0    0    0 -0.00000000000E+00 -0.00000000000E+00 -0.40000000000E+02  0.40000000000E+02  0.00000000000E+00 0.  1.
         23    2    1    2    0    0  0.00000000000E+00  0.00000000000E+00  0.00000000000E+00  0.80000000000E+02  0.80000000000E+02 0.  0.
          5    1    3    3  501    0 -0.29616888114E+02  0.19378351860E+02  0.18034118156E+02  0.40000000000E+02  0.47000000000E+01 0. -1.
         -5    1    3    3    0  501  0.29616888114E+02 -0.19378351860E+02 -0.18034118156E+02  0.40000000000E+02  0.47000000000E+01 0.  1.
</event>
<event>
 5    1  0.4814700E-001  0.8000000E+02  0.7546771E-02  0.1203772E+00
         11   -1    0    0    0    0  0.00000000000E+00  0.00000000000E+00  0.40000000000E+02  0.40000000000E+02  0.00000000000E+00 0. -1.
        -11   -1    0    0    0    0 -0.00000000000E+00 -0.00000000000E+00 -0.40000000000E+02  0.40000000000E+02  0.00000000000E+00 0.  1.
         23    2    1    2    0    0  0.00000000000E+00  0.00000000000E+00  0.00000000000E+00  0.80000000000E+02  0.80000000000E+02 0.  0.
          5    1    3    3  501    0 -0.31277735572E+02 -0.24424831175E+02 -0.17438117809E+01  0.40000000000E+02  0.47000000000E+01 0. -1.
         -5    1    3    3    0  501  0.31277735572E+02  0.24424831175E+02  0.17438117809E+01  0.40000000000E+02  0.47000000000E+01 0.  1.
</event>
<event>
 5    1  0.4814700E-001  0.8000000E+02  0.7546771E-02  0.1203772E+00
         11   -1    0    0    0    0  0.00000000000E+00  0.00000000000E+00  0.40000000000E+02  0.40000000000E+02  0.00000000000E+00 0.  1.
        -11   -1    0    0    0    0 -0.00000000000E+00 -0.00000000000E+00 -0.40000000000E+02  0.40000000000E+02  0.00000000000E+00 0. -1.
         23    2    1    2    0    0  0.00000000000E+00  0.00000000000E+00  0.00000000000E+00  0.80000000000E+02  0.80000000000E+02 0.  0.
          5    1    3    3  501    0 -0.66715672415E+01 -0.39119366381E+02 -0.17536717190E+01  0.40000000000E+02  0.47000000000E+01 0. -1.
         -5    1    3    3    0  501  0.66715672415E+01  0.39119366381E+02  0.17536717190E+01  0.40000000000E+02  0.47000000000E+01 0.  1.
</event>
<event>
 5    1  0.4814700E-001  0.8000000E+02  0.7546771E-02  0.1203772E+00
         11   -1    0    0    0    0  0.00000000000E+00  0.00000000000E+00  0.40000000000E+02  0.40000000000E+02  0.00000000000E+00 0. -1.
        -11   -1    0    0    0    0 -0.00000000000E+00 -0.00000000000E+00 -0.40000000000E+02  0.40000000000E+02  0.00000000000E+00 0.  1.
         23    2    1    2    0    0  0.00000000000E+00  0.00000000000E+00  0.00000000000E+00  0.80000000000E+02  0.80000000000E+02 0.  0.
          5    1    3    3  501    0 -0.63513014615E+01  0.27244530419E+02  0.28201179620E+02  0.40000000000E+02  0.47000000000E+01 0. -1.
         -5    1    3    3    0  501  0.63513014615E+01 -0.27244530419E+02 -0.28201179620E+02  0.40000000000E+02  0.47000000000E+01 0.  1.
</event>
<event>
 5    1  0.4814700E-001  0.8000000E+02  0.7546771E-02  0.1203772E+00
         11   -1    0    0    0    0  0.00000000000E+00  0.00000000000E+00  0.40000000000E+02  0.40000000000E+02  0.00000000000E+00 0.  1.
        -11   -1    0    0    0    0 -0.00000000000E+00 -0.00000000000E+00 -0.40000000000E+02  0.40000000000E+02  0.00000000000E+00 0. -1.
         23    2    1    2    0    0  0.00000000000E+00  0.00000000000E+00  0.00000000000E+00  0.80000000000E+02  0.80000000000E+02 0.  0.
          5    1    3    3  501    0 -0.39133885230E+02 -0.79887942794E+00 -0.67683689687E+01  0.40000000000E+02  0.47000000000E+01 0. -1.
         -5    1    3    3    0  501  0.39133885230E+02  0.79887942794E+00  0.67683689687E+01  0.40000000000E+02  0.47000000000E+01 0.  1.
</event>
<event>
 5    1  0.4814700E-001  0.8000000E+02  0.7546771E-02  0.1203772E+00
         11   -1    0    0    0    0  0.00000000000E+00  0.00000000000E+00  0.40000000000E+02  0.40000000000E+02  0.00000000000E+00 0. -1.
        -11   -1    0    0    0    0 -0.00000000000E+00 -0.00000000000E+00 -0.40000000000E+02  0.40000000000E+02  0.00000000000E+00 0.  1.
         23    2    1    2    0    0  0.00000000000E+00  0.00000000000E+00  0.00000000000E+00  0.80000000000E+02  0.80000000000E+02 0.  0.
          5    1    3    3  501    0  0.78198076282E+01 -0.27598415588E+02  0.27478865801E+02  0.40000000000E+02  0.47000000000E+01 0. -1.
         -5    1    3    3    0  501 -0.78198076282E+01  0.27598415588E+02 -0.27478865801E+02  0.40000000000E+02  0.47000000000E+01 0.  1.
</event>
<event>
 5    1  0.4814700E-001  0.8000000E+02  0.7546771E-02  0.1203772E+00
         11   -1    0    0    0    0  0.00000000000E+00  0.00000000000E+00  0.40000000000E+02  0.40000000000E+02  0.00000000000E+00 0. -1.
        -11   -1    0    0    0    0 -0.00000000000E+00 -0.00000000000E+00 -0.40000000000E+02  0.40000000000E+02  0.00000000000E+00 0.  1.
         23    2    1    2    0    0  0.00000000000E+00  0.00000000000E+00  0.00000000000E+00  0.80000000000E+02  0.80000000000E+02 0.  0.
          5    1    3    3  501    0 -0.18183964871E+02  0.74473317937E+01  0.34522321340E+02  0.40000000000E+02  0.47000000000E+01 0. -1.
         -5    1    3    3    0  501  0.18183964871E+02 -0.74473317937E+01 -0.34522321340E+02  0.40000000000E+02  0.47000000000E+01 0.  1.
</event>
<event>
 5    1  0.4814700E-001  0.8000000E+02  0.7546771E-02  0.1203772E+00
         11   -1    0    0    0    0  0.00000000000E+00  0.00000000000E+00  0.40000000000E+02  0.40000000000E+02  0.00000000000E+00 0.  1.
        -11   -1    0    0    0    0 -0.00000000000E+00 -0.00000000000E+00 -0.40000000000E+02  0.40000000000E+02  0.00000000000E+00 0. -1.
         23    2    1    2    0    0  0.00000000000E+00  0.00000000000E+00  0.00000000000E+00  0.80000000000E+02  0.80000000000E+02 0.  0.
          5    1    3    3  501    0 -0.24524900008E+02  0.29836852869E+02 -0.92844757767E+01  0.40000000000E+02  0.47000000000E+01 0. -1.
         -5    1    3    3    0  501  0.24524900008E+02 -0.29836852869E+02  0.92844757767E+01  0.40000000000E+02  0.47000000000E+01 0.  1.
</event>
<event>
 5    1  0.4814700E-001  0.8000000E+02  0.7546771E-02  0.1203772E+00
         11   -1    0    0    0    0  0.00000000000E+00  0.00000000000E+00  0.40000000000E+02  0.40000000000E+02  0.00000000000E+00 0. -1.
        -11   -1    0    0    0    0 -0.00000000000E+00 -0.00000000000E+00 -0.40000000000E+02  0.40000000000E+02  0.00000000000E+00 0.  1.
         23    2    1    2    0    0  0.00000000000E+00  0.00000000000E+00  0.00000000000E+00  0.80000000000E+02  0.80000000000E+02 0.  0.
          5    1    3    3  501    0  0.33409851624E+02  0.51743194330E+01 -0.20854693306E+02  0.40000000000E+02  0.47000000000E+01 0. -1.
         -5    1    3    3    0  501 -0.33409851624E+02 -0.51743194330E+01  0.20854693306E+02  0.40000000000E+02  0.47000000000E+01 0.  1.
</event>
<event>
 5    1  0.4814700E-001  0.8000000E+02  0.7546771E-02  0.1203772E+00
         11   -1    0    0    0    0  0.00000000000E+00  0.00000000000E+00  0.40000000000E+02  0.40000000000E+02  0.00000000000E+00 0. -1.
        -11   -1    0    0    0    0 -0.00000000000E+00 -0.00000000000E+00 -0.40000000000E+02  0.40000000000E+02  0.00000000000E+00 0.  1.
         23    2    1    2    0    0  0.00000000000E+00  0.00000000000E+00  0.00000000000E+00  0.80000000000E+02  0.80000000000E+02 0.  0.
          5    1    3    3  501    0  0.28774568688E+00  0.33007611485E+02  0.22098072009E+02  0.40000000000E+02  0.47000000000E+01 0. -1.
         -5    1    3    3    0  501 -0.28774568688E+00 -0.33007611485E+02 -0.22098072009E+02  0.40000000000E+02  0.47000000000E+01 0.  1.
</event>
<event>
 5    1  0.4814700E-001  0.8000000E+02  0.7546771E-02  0.1203772E+00
         11   -1    0    0    0    0  0.00000000000E+00  0.00000000000E+00  0.40000000000E+02  0.40000000000E+02  0.00000000000E+00 0. -1.
        -11   -1    0    0    0    0 -0.00000000000E+00 -0.00000000000E+00 -0.40000000000E+02  0.40000000000E+02  0.00000000000E+00 0.  1.
         23    2    1    2    0    0  0.00000000000E+00  0.00000000000E+00  0.00000000000E+00  0.80000000000E+02  0.80000000000E+02 0.  0.
          5    1    3    3  501    0  0.28642980695E+02 -0.24014815700E+02  0.13445381506E+02  0.40000000000E+02  0.47000000000E+01 0. -1.
         -5    1    3    3    0  501 -0.28642980695E+02  0.24014815700E+02 -0.13445381506E+02  0.40000000000E+02  0.47000000000E+01 0.  1.
</event>
<event>
 5    1  0.4814700E-001  0.8000000E+02  0.7546771E-02  0.1203772E+00
         11   -1    0    0    0    0  0.00000000000E+00  0.00000000000E+00  0.40000000000E+02  0.40000000000E+02  0.00000000000E+00 0.  1.
        -11   -1    0    0    0    0 -0.00000000000E+00 -0.00000000000E+00 -0.40000000000E+02  0.40000000000E+02  0.00000000000E+00 0. -1.
         23    2    1    2    0    0  0.00000000000E+00  0.00000000000E+00  0.00000000000E+00  0.80000000000E+02  0.80000000000E+02 0.  0.
          5    1    3    3  501    0  0.28768477529E+01  0.38501849966E+02  0.93403049304E+01  0.40000000000E+02  0.47000000000E+01 0. -1.
         -5    1    3    3    0  501 -0.28768477529E+01 -0.38501849966E+02 -0.93403049304E+01  0.40000000000E+02  0.47000000000E+01 0.  1.
</event>
<event>
 5    1  0.4814700E-001  0.8000000E+02  0.7546771E-02  0.1203772E+00
         11   -1    0    0    0    0  0.00000000000E+00  0.00000000000E+00  0.40000000000E+02  0.40000000000E+02  0.00000000000E+00 0. -1.
        -11   -1    0    0    0    0 -0.00000000000E+00 -0.00000000000E+00 -0.40000000000E+02  0.40000000000E+02  0.00000000000E+00 0.  1.
         23    2    1    2    0    0  0.00000000000E+00  0.00000000000E+00  0.00000000000E+00  0.80000000000E+02  0.80000000000E+02 0.  0.
          5    1    3    3  501    0 -0.19029751653E+01  0.89478660210E+00  0.39667216218E+02  0.40000000000E+02  0.47000000000E+01 0. -1.
         -5    1    3    3    0  501  0.19029751653E+01 -0.89478660210E+00 -0.39667216218E+02  0.40000000000E+02  0.47000000000E+01 0.  1.
</event>
<event>
 5    1  0.4814700E-001  0.8000000E+02  0.7546771E-02  0.1203772E+00
         11   -1    0    0    0    0  0.00000000000E+00  0.00000000000E+00  0.40000000000E+02  0.40000000000E+02  0.00000000000E+00 0.  1.
        -11   -1    0    0    0    0 -0.00000000000E+00 -0.00000000000E+00 -0.40000000000E+02  0.40000000000E+02  0.00000000000E+00 0. -1.
         23    2    1    2    0    0  0.00000000000E+00  0.00000000000E+00  0.00000000000E+00  0.80000000000E+02  0.80000000000E+02 0.  0.
          5    1    3    3  501    0  0.65565597136E+01 -0.49105231645E+01 -0.38869117394E+02  0.40000000000E+02  0.47000000000E+01 0. -1.
         -5    1    3    3    0  501 -0.65565597136E+01  0.49105231645E+01  0.38869117394E+02  0.40000000000E+02  0.47000000000E+01 0.  1.
</event>
<event>
 5    1  0.4814700E-001  0.8000000E+02  0.7546771E-02  0.1203772E+00
         11   -1    0    0    0    0  0.00000000000E+00  0.00000000000E+00  0.40000000000E+02  0.40000000000E+02  0.00000000000E+00 0.  1.
        -11   -1    0    0    0    0 -0.00000000000E+00 -0.00000000000E+00 -0.40000000000E+02  0.40000000000E+02  0.00000000000E+00 0. -1.
         23    2    1    2    0    0  0.00000000000E+00  0.00000000000E+00  0.00000000000E+00  0.80000000000E+02  0.80000000000E+02 0.  0.
          5    1    3    3  501    0  0.30330855539E+02 -0.15527041562E+02 -0.20417154126E+02  0.40000000000E+02  0.47000000000E+01 0. -1.
         -5    1    3    3    0  501 -0.30330855539E+02  0.15527041562E+02  0.20417154126E+02  0.40000000000E+02  0.47000000000E+01 0.  1.
</event>
<event>
 5    1  0.4814700E-001  0.8000000E+02  0.7546771E-02  0.1203772E+00
         11   -1    0    0    0    0  0.00000000000E+00  0.00000000000E+00  0.40000000000E+02  0.40000000000E+02  0.00000000000E+00 0. -1.
        -11   -1    0    0    0    0 -0.00000000000E+00 -0.00000000000E+00 -0.40000000000E+02  0.40000000000E+02  0.00000000000E+00 0.  1.
         23    2    1    2    0    0  0.00000000000E+00  0.00000000000E+00  0.00000000000E+00  0.80000000000E+02  0.80000000000E+02 0.  0.
          5    1    3    3  501    0  0.16764020163E+01  0.45224526172E+01 -0.39429013412E+02  0.40000000000E+02  0.47000000000E+01 0.  1.
         -5    1    3    3    0  501 -0.16764020163E+01 -0.45224526172E+01  0.39429013412E+02  0.40000000000E+02  0.47000000000E+01 0. -1.
</event>
<event>
 5    1  0.4814700E-001  0.8000000E+02  0.7546771E-02  0.1203772E+00
         11   -1    0    0    0    0  0.00000000000E+00  0.00000000000E+00  0.40000000000E+02  0.40000000000E+02  0.00000000000E+00 0. -1.
        -11   -1    0    0    0    0 -0.00000000000E+00 -0.00000000000E+00 -0.40000000000E+02  0.40000000000E+02  0.00000000000E+00 0.  1.
         23    2    1    2    0    0  0.00000000000E+00  0.00000000000E+00  0.00000000000E+00  0.80000000000E+02  0.80000000000E+02 0.  0.
          5    1    3    3  501    0  0.19715470547E+02 -0.16040006532E+00  0.34484554411E+02  0.40000000000E+02  0.47000000000E+01 0. -1.
         -5    1    3    3    0  501 -0.19715470547E+02  0.16040006532E+00 -0.34484554411E+02  0.40000000000E+02  0.47000000000E+01 0.  1.
</event>
<event>
 5    1  0.4814700E-001  0.8000000E+02  0.7546771E-02  0.1203772E+00
         11   -1    0    0    0    0  0.00000000000E+00  0.00000000000E+00  0.40000000000E+02  0.40000000000E+02  0.00000000000E+00 0. -1.
        -11   -1    0    0    0    0 -0.00000000000E+00 -0.00000000000E+00 -0.40000000000E+02  0.40000000000E+02  0.00000000000E+00 0.  1.
         23    2    1    2    0    0  0.00000000000E+00  0.00000000000E+00  0.00000000000E+00  0.80000000000E+02  0.80000000000E+02 0.  0.
          5    1    3    3  501    0  0.12370532293E+02 -0.28640621907E+02  0.24588507632E+02  0.40000000000E+02  0.47000000000E+01 0. -1.
         -5    1    3    3    0  501 -0.12370532293E+02  0.28640621907E+02 -0.24588507632E+02  0.40000000000E+02  0.47000000000E+01 0.  1.
</event>
<event>
 5    1  0.4814700E-001  0.8000000E+02  0.7546771E-02  0.1203772E+00
         11   -1    0    0    0    0  0.00000000000E+00  0.00000000000E+00  0.40000000000E+02  0.40000000000E+02  0.00000000000E+00 0.  1.
        -11   -1    0    0    0    0 -0.00000000000E+00 -0.00000000000E+00 -0.40000000000E+02  0.40000000000E+02  0.00000000000E+00 0. -1.
         23    2    1    2    0    0  0.00000000000E+00  0.00000000000E+00  0.00000000000E+00  0.80000000000E+02  0.80000000000E+02 0.  0.
          5    1    3    3  501    0 -0.14427243375E+02  0.17136264708E+02 -0.32804162548E+02  0.40000000000E+02  0.47000000000E+01 0. -1.
         -5    1    3    3    0  501  0.14427243375E+02 -0.17136264708E+02  0.32804162548E+02  0.40000000000E+02  0.47000000000E+01 0.  1.
</event>
<event>
 5    1  0.4814700E-001  0.8000000E+02  0.7546771E-02  0.1203772E+00
         11   -1    0    0    0    0  0.00000000000E+00  0.00000000000E+00  0.40000000000E+02  0.40000000000E+02  0.00000000000E+00 0.  1.
        -11   -1    0    0    0    0 -0.00000000000E+00 -0.00000000000E+00 -0.40000000000E+02  0.40000000000E+02  0.00000000000E+00 0. -1.
         23    2    1    2    0    0  0.00000000000E+00  0.00000000000E+00  0.00000000000E+00  0.80000000000E+02  0.80000000000E+02 0.  0.
          5    1    3    3  501    0  0.38995155652E+02 -0.16783102116E+01  0.73804546284E+01  0.40000000000E+02  0.47000000000E+01 0. -1.
         -5    1    3    3    0  501 -0.38995155652E+02  0.16783102116E+01 -0.73804546284E+01  0.40000000000E+02  0.47000000000E+01 0.  1.
</event>
<event>
 5    1  0.4814700E-001  0.8000000E+02  0.7546771E-02  0.1203772E+00
         11   -1    0    0    0    0  0.00000000000E+00  0.00000000000E+00  0.40000000000E+02  0.40000000000E+02  0.00000000000E+00 0.  1.
        -11   -1    0    0    0    0 -0.00000000000E+00 -0.00000000000E+00 -0.40000000000E+02  0.40000000000E+02  0.00000000000E+00 0. -1.
         23    2    1    2    0    0  0.00000000000E+00  0.00000000000E+00  0.00000000000E+00  0.80000000000E+02  0.80000000000E+02 0.  0.
          5    1    3    3  501    0  0.33497278928E+02 -0.37818168403E+01 -0.21012857154E+02  0.40000000000E+02  0.47000000000E+01 0. -1.
         -5    1    3    3    0  501 -0.33497278928E+02  0.37818168403E+01  0.21012857154E+02  0.40000000000E+02  0.47000000000E+01 0.  1.
</event>
<event>
 5    1  0.4814700E-001  0.8000000E+02  0.7546771E-02  0.1203772E+00
         11   -1    0    0    0    0  0.00000000000E+00  0.00000000000E+00  0.40000000000E+02  0.40000000000E+02  0.00000000000E+00 0. -1.
        -11   -1    0    0    0    0 -0.00000000000E+00 -0.00000000000E+00 -0.40000000000E+02  0.40000000000E+02  0.00000000000E+00 0.  1.
         23    2    1    2    0    0  0.00000000000E+00  0.00000000000E+00  0.00000000000E+00  0.80000000000E+02  0.80000000000E+02 0.  0.
          5    1    3    3  501    0  0.34577790418E+02 -0.81293148545E+01  0.17782031655E+02  0.40000000000E+02  0.47000000000E+01 0. -1.
         -5    1    3    3    0  501 -0.34577790418E+02  0.81293148545E+01 -0.17782031655E+02  0.40000000000E+02  0.47000000000E+01 0.  1.
</event>
<event>
 5    1  0.4814700E-001  0.8000000E+02  0.7546771E-02  0.1203772E+00
         11   -1    0    0    0    0  0.00000000000E+00  0.00000000000E+00  0.40000000000E+02  0.40000000000E+02  0.00000000000E+00 0. -1.
        -11   -1    0    0    0    0 -0.00000000000E+00 -0.00000000000E+00 -0.40000000000E+02  0.40000000000E+02  0.00000000000E+00 0.  1.
         23    2    1    2    0    0  0.00000000000E+00  0.00000000000E+00  0.00000000000E+00  0.80000000000E+02  0.80000000000E+02 0.  0.
          5    1    3    3  501    0  0.75301949396E+01  0.40825664570E+01  0.38788385057E+02  0.40000000000E+02  0.47000000000E+01 0. -1.
         -5    1    3    3    0  501 -0.75301949396E+01 -0.40825664570E+01 -0.38788385057E+02  0.40000000000E+02  0.47000000000E+01 0.  1.
</event>
<event>
 5    1  0.4814700E-001  0.8000000E+02  0.7546771E-02  0.1203772E+00
         11   -1    0    0    0    0  0.00000000000E+00  0.00000000000E+00  0.40000000000E+02  0.40000000000E+02  0.00000000000E+00 0.  1.
        -11   -1    0    0    0    0 -0.00000000000E+00 -0.00000000000E+00 -0.40000000000E+02  0.40000000000E+02  0.00000000000E+00 0. -1.
         23    2    1    2    0    0  0.00000000000E+00  0.00000000000E+00  0.00000000000E+00  0.80000000000E+02  0.80000000000E+02 0.  0.
          5    1    3    3  501    0  0.30319489008E+02  0.16823023890E+02 -0.19381033344E+02  0.40000000000E+02  0.47000000000E+01 0. -1.
         -5    1    3    3    0  501 -0.30319489008E+02 -0.16823023890E+02  0.19381033344E+02  0.40000000000E+02  0.47000000000E+01 0.  1.
</event>
<event>
 5    1  0.4814700E-001  0.8000000E+02  0.7546771E-02  0.1203772E+00
         11   -1    0    0    0    0  0.00000000000E+00  0.00000000000E+00  0.40000000000E+02  0.40000000000E+02  0.00000000000E+00 0. -1.
        -11   -1    0    0    0    0 -0.00000000000E+00 -0.00000000000E+00 -0.40000000000E+02  0.40000000000E+02  0.00000000000E+00 0.  1.
         23    2    1    2    0    0  0.00000000000E+00  0.00000000000E+00  0.00000000000E+00  0.80000000000E+02  0.80000000000E+02 0.  0.
          5    1    3    3  501    0  0.14665222155E+02  0.10995088066E+02 -0.35241301020E+02  0.40000000000E+02  0.47000000000E+01 0.  1.
         -5    1    3    3    0  501 -0.14665222155E+02 -0.10995088066E+02  0.35241301020E+02  0.40000000000E+02  0.47000000000E+01 0. -1.
</event>
<event>
 5    1  0.4814700E-001  0.8000000E+02  0.7546771E-02  0.1203772E+00
         11   -1    0    0    0    0  0.00000000000E+00  0.00000000000E+00  0.40000000000E+02  0.40000000000E+02  0.00000000000E+00 0.  1.
        -11   -1    0    0    0    0 -0.00000000000E+00 -0.00000000000E+00 -0.40000000000E+02  0.40000000000E+02  0.00000000000E+00 0. -1.
         23    2    1    2    0    0  0.00000000000E+00  0.00000000000E+00  0.00000000000E+00  0.80000000000E+02  0.80000000000E+02 0.  0.
          5    1    3    3  501    0 -0.18494282969E+02  0.10053593431E+01 -0.35140585511E+02  0.40000000000E+02  0.47000000000E+01 0. -1.
         -5    1    3    3    0  501  0.18494282969E+02 -0.10053593431E+01  0.35140585511E+02  0.40000000000E+02  0.47000000000E+01 0.  1.
</event>
<event>
 5    1  0.4814700E-001  0.8000000E+02  0.7546771E-02  0.1203772E+00
         11   -1    0    0    0    0  0.00000000000E+00  0.00000000000E+00  0.40000000000E+02  0.40000000000E+02  0.00000000000E+00 0. -1.
        -11   -1    0    0    0    0 -0.00000000000E+00 -0.00000000000E+00 -0.40000000000E+02  0.40000000000E+02  0.00000000000E+00 0.  1.
         23    2    1    2    0    0  0.00000000000E+00  0.00000000000E+00  0.00000000000E+00  0.80000000000E+02  0.80000000000E+02 0.  0.
          5    1    3    3  501    0  0.32692892073E+02  0.21054175733E+02  0.81121200769E+01  0.40000000000E+02  0.47000000000E+01 0. -1.
         -5    1    3    3    0  501 -0.32692892073E+02 -0.21054175733E+02 -0.81121200769E+01  0.40000000000E+02  0.47000000000E+01 0.  1.
</event>
<event>
 5    1  0.4814700E-001  0.8000000E+02  0.7546771E-02  0.1203772E+00
         11   -1    0    0    0    0  0.00000000000E+00  0.00000000000E+00  0.40000000000E+02  0.40000000000E+02  0.00000000000E+00 0. -1.
        -11   -1    0    0    0    0 -0.00000000000E+00 -0.00000000000E+00 -0.40000000000E+02  0.40000000000E+02  0.00000000000E+00 0.  1.
         23    2    1    2    0    0  0.00000000000E+00  0.00000000000E+00  0.00000000000E+00  0.80000000000E+02  0.80000000000E+02 0.  0.
          5    1    3    3  501    0 -0.35440609046E+02 -0.45542113726E+01 -0.17353166546E+02  0.40000000000E+02  0.47000000000E+01 0. -1.
         -5    1    3    3    0  501  0.35440609046E+02  0.45542113726E+01  0.17353166546E+02  0.40000000000E+02  0.47000000000E+01 0.  1.
</event>
<event>
 5    1  0.4814700E-001  0.8000000E+02  0.7546771E-02  0.1203772E+00
         11   -1    0    0    0    0  0.00000000000E+00  0.00000000000E+00  0.40000000000E+02  0.40000000000E+02  0.00000000000E+00 0.  1.
        -11   -1    0    0    0    0 -0.00000000000E+00 -0.00000000000E+00 -0.40000000000E+02  0.40000000000E+02  0.00000000000E+00 0. -1.
         23    2    1    2    0    0  0.00000000000E+00  0.00000000000E+00  0.00000000000E+00  0.80000000000E+02  0.80000000000E+02 0.  0.
          5    1    3    3  501    0 -0.10621865585E+02  0.12640460969E+02 -0.36129001065E+02  0.40000000000E+02  0.47000000000E+01 0. -1.
         -5    1    3    3    0  501  0.10621865585E+02 -0.12640460969E+02  0.36129001065E+02  0.40000000000E+02  0.47000000000E+01 0.  1.
</event>
<event>
 5    1  0.4814700E-001  0.8000000E+02  0.7546771E-02  0.1203772E+00
         11   -1    0    0    0    0  0.00000000000E+00  0.00000000000E+00  0.40000000000E+02  0.40000000000E+02  0.00000000000E+00 0. -1.
        -11   -1    0    0    0    0 -0.00000000000E+00 -0.00000000000E+00 -0.40000000000E+02  0.40000000000E+02  0.00000000000E+00 0.  1.
         23    2    1    2    0    0  0.00000000000E+00  0.00000000000E+00  0.00000000000E+00  0.80000000000E+02  0.80000000000E+02 0.  0.
          5    1    3    3  501    0  0.25512721173E+02 -0.45487897885E+01  0.30105141916E+02  0.40000000000E+02  0.47000000000E+01 0. -1.
         -5    1    3    3    0  501 -0.25512721173E+02  0.45487897885E+01 -0.30105141916E+02  0.40000000000E+02  0.47000000000E+01 0.  1.
</event>
<event>
 5    1  0.4814700E-001  0.8000000E+02  0.7546771E-02  0.1203772E+00
         11   -1    0    0    0    0  0.00000000000E+00  0.00000000000E+00  0.40000000000E+02  0.40000000000E+02  0.00000000000E+00 0. -1.
        -11   -1    0    0    0    0 -0.00000000000E+00 -0.00000000000E+00 -0.40000000000E+02  0.40000000000E+02  0.00000000000E+00 0.  1.
         23    2    1    2    0    0  0.00000000000E+00  0.00000000000E+00  0.00000000000E+00  0.80000000000E+02  0.80000000000E+02 0.  0.
          5    1    3    3  501    0  0.20771948464E+02 -0.17878805761E+01  0.33811826926E+02  0.40000000000E+02  0.47000000000E+01 0. -1.
         -5    1    3    3    0  501 -0.20771948464E+02  0.17878805761E+01 -0.33811826926E+02  0.40000000000E+02  0.47000000000E+01 0.  1.
</event>
<event>
 5    1  0.4814700E-001  0.8000000E+02  0.7546771E-02  0.1203772E+00
         11   -1    0    0    0    0  0.00000000000E+00  0.00000000000E+00  0.40000000000E+02  0.40000000000E+02  0.00000000000E+00 0.  1.
        -11   -1    0    0    0    0 -0.00000000000E+00 -0.00000000000E+00 -0.40000000000E+02  0.40000000000E+02  0.00000000000E+00 0. -1.
         23    2    1    2    0    0  0.00000000000E+00  0.00000000000E+00  0.00000000000E+00  0.80000000000E+02  0.80000000000E+02 0.  0.
          5    1    3    3  501    0  0.33323058108E+02 -0.87963759257E+01 -0.19751140952E+02  0.40000000000E+02  0.47000000000E+01 0. -1.
         -5    1    3    3    0  501 -0.33323058108E+02  0.87963759257E+01  0.19751140952E+02  0.40000000000E+02  0.47000000000E+01 0.  1.
</event>
<event>
 5    1  0.4814700E-001  0.8000000E+02  0.7546771E-02  0.1203772E+00
         11   -1    0    0    0    0  0.00000000000E+00  0.00000000000E+00  0.40000000000E+02  0.40000000000E+02  0.00000000000E+00 0.  1.
        -11   -1    0    0    0    0 -0.00000000000E+00 -0.00000000000E+00 -0.40000000000E+02  0.40000000000E+02  0.00000000000E+00 0. -1.
         23    2    1    2    0    0  0.00000000000E+00  0.00000000000E+00  0.00000000000E+00  0.80000000000E+02  0.80000000000E+02 0.  0.
          5    1    3    3  501    0  0.35557573819E+01  0.37327355552E+01 -0.39386968336E+02  0.40000000000E+02  0.47000000000E+01 0. -1.
         -5    1    3    3    0  501 -0.35557573819E+01 -0.37327355552E+01  0.39386968336E+02  0.40000000000E+02  0.47000000000E+01 0.  1.
</event>
<event>
 5    1  0.4814700E-001  0.8000000E+02  0.7546771E-02  0.1203772E+00
         11   -1    0    0    0    0  0.00000000000E+00  0.00000000000E+00  0.40000000000E+02  0.40000000000E+02  0.00000000000E+00 0.  1.
        -11   -1    0    0    0    0 -0.00000000000E+00 -0.00000000000E+00 -0.40000000000E+02  0.40000000000E+02  0.00000000000E+00 0. -1.
         23    2    1    2    0    0  0.00000000000E+00  0.00000000000E+00  0.00000000000E+00  0.80000000000E+02  0.80000000000E+02 0.  0.
          5    1    3    3  501    0  0.12834412964E+01  0.65889559202E+01 -0.39151608375E+02  0.40000000000E+02  0.47000000000E+01 0. -1.
         -5    1    3    3    0  501 -0.12834412964E+01 -0.65889559202E+01  0.39151608375E+02  0.40000000000E+02  0.47000000000E+01 0.  1.
</event>
<event>
 5    1  0.4814700E-001  0.8000000E+02  0.7546771E-02  0.1203772E+00
         11   -1    0    0    0    0  0.00000000000E+00  0.00000000000E+00  0.40000000000E+02  0.40000000000E+02  0.00000000000E+00 0. -1.
        -11   -1    0    0    0    0 -0.00000000000E+00 -0.00000000000E+00 -0.40000000000E+02  0.40000000000E+02  0.00000000000E+00 0.  1.
         23    2    1    2    0    0  0.00000000000E+00  0.00000000000E+00  0.00000000000E+00  0.80000000000E+02  0.80000000000E+02 0.  0.
          5    1    3    3  501    0  0.36046126200E+01 -0.20470141609E+02  0.33850998071E+02  0.40000000000E+02  0.47000000000E+01 0. -1.
         -5    1    3    3    0  501 -0.36046126200E+01  0.20470141609E+02 -0.33850998071E+02  0.40000000000E+02  0.47000000000E+01 0.  1.
</event>
<event>
 5    1  0.4814700E-001  0.8000000E+02  0.7546771E-02  0.1203772E+00
         11   -1    0    0    0    0  0.00000000000E+00  0.00000000000E+00  0.40000000000E+02  0.40000000000E+02  0.00000000000E+00 0.  1.
        -11   -1    0    0    0    0 -0.00000000000E+00 -0.00000000000E+00 -0.40000000000E+02  0.40000000000E+02  0.00000000000E+00 0. -1.
         23    2    1    2    0    0  0.00000000000E+00  0.00000000000E+00  0.00000000000E+00  0.80000000000E+02  0.80000000000E+02 0.  0.
          5    1    3    3  501    0 -0.29676240993E+02  0.22713814902E+02 -0.13465263945E+02  0.40000000000E+02  0.47000000000E+01 0. -1.
         -5    1    3    3    0  501  0.29676240993E+02 -0.22713814902E+02  0.13465263945E+02  0.40000000000E+02  0.47000000000E+01 0.  1.
</event>
<event>
 5    1  0.4814700E-001  0.8000000E+02  0.7546771E-02  0.1203772E+00
         11   -1    0    0    0    0  0.00000000000E+00  0.00000000000E+00  0.40000000000E+02  0.40000000000E+02  0.00000000000E+00 0. -1.
        -11   -1    0    0    0    0 -0.00000000000E+00 -0.00000000000E+00 -0.40000000000E+02  0.40000000000E+02  0.00000000000E+00 0.  1.
         23    2    1    2    0    0  0.00000000000E+00  0.00000000000E+00  0.00000000000E+00  0.80000000000E+02  0.80000000000E+02 0.  0.
          5    1    3    3  501    0  0.29943040113E+02 -0.17555671812E+02  0.19316385169E+02  0.40000000000E+02  0.47000000000E+01 0. -1.
         -5    1    3    3    0  501 -0.29943040113E+02  0.17555671812E+02 -0.19316385169E+02  0.40000000000E+02  0.47000000000E+01 0.  1.
</event>
<event>
 5    1  0.4814700E-001  0.8000000E+02  0.7546771E-02  0.1203772E+00
         11   -1    0    0    0    0  0.00000000000E+00  0.00000000000E+00  0.40000000000E+02  0.40000000000E+02  0.00000000000E+00 0. -1.
        -11   -1    0    0    0    0 -0.00000000000E+00 -0.00000000000E+00 -0.40000000000E+02  0.40000000000E+02  0.00000000000E+00 0.  1.
         23    2    1    2    0    0  0.00000000000E+00  0.00000000000E+00  0.00000000000E+00  0.80000000000E+02  0.80000000000E+02 0.  0.
          5    1    3    3  501    0  0.47413364626E+01  0.23754253895E+02  0.31482775456E+02  0.40000000000E+02  0.47000000000E+01 0. -1.
         -5    1    3    3    0  501 -0.47413364626E+01 -0.23754253895E+02 -0.31482775456E+02  0.40000000000E+02  0.47000000000E+01 0.  1.
</event>
<event>
 5    1  0.4814700E-001  0.8000000E+02  0.7546771E-02  0.1203772E+00
         11   -1    0    0    0    0  0.00000000000E+00  0.00000000000E+00  0.40000000000E+02  0.40000000000E+02  0.00000000000E+00 0. -1.
        -11   -1    0    0    0    0 -0.00000000000E+00 -0.00000000000E+00 -0.40000000000E+02  0.40000000000E+02  0.00000000000E+00 0.  1.
         23    2    1    2    0    0  0.00000000000E+00  0.00000000000E+00  0.00000000000E+00  0.80000000000E+02  0.80000000000E+02 0.  0.
          5    1    3    3  501    0  0.24634380724E+01 -0.28312128888E+02  0.27753645359E+02  0.40000000000E+02  0.47000000000E+01 0. -1.
         -5    1    3    3    0  501 -0.24634380724E+01  0.28312128888E+02 -0.27753645359E+02  0.40000000000E+02  0.47000000000E+01 0.  1.
</event>
<event>
 5    1  0.4814700E-001  0.8000000E+02  0.7546771E-02  0.1203772E+00
         11   -1    0    0    0    0  0.00000000000E+00  0.00000000000E+00  0.40000000000E+02  0.40000000000E+02  0.00000000000E+00 0. -1.
        -11   -1    0    0    0    0 -0.00000000000E+00 -0.00000000000E+00 -0.40000000000E+02  0.40000000000E+02  0.00000000000E+00 0.  1.
         23    2    1    2    0    0  0.00000000000E+00  0.00000000000E+00  0.00000000000E+00  0.80000000000E+02  0.80000000000E+02 0.  0.
          5    1    3    3  501    0 -0.20360269295E+02 -0.14856859345E+02  0.30702494437E+02  0.40000000000E+02  0.47000000000E+01 0. -1.
         -5    1    3    3    0  501  0.20360269295E+02  0.14856859345E+02 -0.30702494437E+02  0.40000000000E+02  0.47000000000E+01 0.  1.
</event>
<event>
 5    1  0.4814700E-001  0.8000000E+02  0.7546771E-02  0.1203772E+00
         11   -1    0    0    0    0  0.00000000000E+00  0.00000000000E+00  0.40000000000E+02  0.40000000000E+02  0.00000000000E+00 0.  1.
        -11   -1    0    0    0    0 -0.00000000000E+00 -0.00000000000E+00 -0.40000000000E+02  0.40000000000E+02  0.00000000000E+00 0. -1.
         23    2    1    2    0    0  0.00000000000E+00  0.00000000000E+00  0.00000000000E+00  0.80000000000E+02  0.80000000000E+02 0.  0.
          5    1    3    3  501    0 -0.25335018172E+02 -0.41226386189E+01 -0.30315849073E+02  0.40000000000E+02  0.47000000000E+01 0. -1.
         -5    1    3    3    0  501  0.25335018172E+02  0.41226386189E+01  0.30315849073E+02  0.40000000000E+02  0.47000000000E+01 0.  1.
</event>
<event>
 5    1  0.4814700E-001  0.8000000E+02  0.7546771E-02  0.1203772E+00
         11   -1    0    0    0    0  0.00000000000E+00  0.00000000000E+00  0.40000000000E+02  0.40000000000E+02  0.00000000000E+00 0.  1.
        -11   -1    0    0    0    0 -0.00000000000E+00 -0.00000000000E+00 -0.40000000000E+02  0.40000000000E+02  0.00000000000E+00 0. -1.
         23    2    1    2    0    0  0.00000000000E+00  0.00000000000E+00  0.00000000000E+00  0.80000000000E+02  0.80000000000E+02 0.  0.
          5    1    3    3  501    0  0.14361674183E+02 -0.65185232618E+00 -0.37030087810E+02  0.40000000000E+02  0.47000000000E+01 0. -1.
         -5    1    3    3    0  501 -0.14361674183E+02  0.65185232618E+00  0.37030087810E+02  0.40000000000E+02  0.47000000000E+01 0.  1.
</event>
<event>
 5    1  0.4814700E-001  0.8000000E+02  0.7546771E-02  0.1203772E+00
         11   -1    0    0    0    0  0.00000000000E+00  0.00000000000E+00  0.40000000000E+02  0.40000000000E+02  0.00000000000E+00 0. -1.
        -11   -1    0    0    0    0 -0.00000000000E+00 -0.00000000000E+00 -0.40000000000E+02  0.40000000000E+02  0.00000000000E+00 0.  1.
         23    2    1    2    0    0  0.00000000000E+00  0.00000000000E+00  0.00000000000E+00  0.80000000000E+02  0.80000000000E+02 0.  0.
          5    1    3    3  501    0  0.25007562889E+02  0.16527996924E+02  0.26064479969E+02  0.40000000000E+02  0.47000000000E+01 0. -1.
         -5    1    3    3    0  501 -0.25007562889E+02 -0.16527996924E+02 -0.26064479969E+02  0.40000000000E+02  0.47000000000E+01 0.  1.
</event>
<event>
 5    1  0.4814700E-001  0.8000000E+02  0.7546771E-02  0.1203772E+00
         11   -1    0    0    0    0  0.00000000000E+00  0.00000000000E+00  0.40000000000E+02  0.40000000000E+02  0.00000000000E+00 0.  1.
        -11   -1    0    0    0    0 -0.00000000000E+00 -0.00000000000E+00 -0.40000000000E+02  0.40000000000E+02  0.00000000000E+00 0. -1.
         23    2    1    2    0    0  0.00000000000E+00  0.00000000000E+00  0.00000000000E+00  0.80000000000E+02  0.80000000000E+02 0.  0.
          5    1    3    3  501    0  0.22618157231E+02  0.20677676981E+02 -0.25273753939E+02  0.40000000000E+02  0.47000000000E+01 0. -1.
         -5    1    3    3    0  501 -0.22618157231E+02 -0.20677676981E+02  0.25273753939E+02  0.40000000000E+02  0.47000000000E+01 0.  1.
</event>
<event>
 5    1  0.4814700E-001  0.8000000E+02  0.7546771E-02  0.1203772E+00
         11   -1    0    0    0    0  0.00000000000E+00  0.00000000000E+00  0.40000000000E+02  0.40000000000E+02  0.00000000000E+00 0.  1.
        -11   -1    0    0    0    0 -0.00000000000E+00 -0.00000000000E+00 -0.40000000000E+02  0.40000000000E+02  0.00000000000E+00 0. -1.
         23    2    1    2    0    0  0.00000000000E+00  0.00000000000E+00  0.00000000000E+00  0.80000000000E+02  0.80000000000E+02 0.  0.
          5    1    3    3  501    0  0.14813534557E+02 -0.92064414594E-01 -0.36857302100E+02  0.40000000000E+02  0.47000000000E+01 0. -1.
         -5    1    3    3    0  501 -0.14813534557E+02  0.92064414594E-01  0.36857302100E+02  0.40000000000E+02  0.47000000000E+01 0.  1.
</event>
<event>
 5    1  0.4814700E-001  0.8000000E+02  0.7546771E-02  0.1203772E+00
         11   -1    0    0    0    0  0.00000000000E+00  0.00000000000E+00  0.40000000000E+02  0.40000000000E+02  0.00000000000E+00 0. -1.
        -11   -1    0    0    0    0 -0.00000000000E+00 -0.00000000000E+00 -0.40000000000E+02  0.40000000000E+02  0.00000000000E+00 0.  1.
         23    2    1    2    0    0  0.00000000000E+00  0.00000000000E+00  0.00000000000E+00  0.80000000000E+02  0.80000000000E+02 0.  0.
          5    1    3    3  501    0 -0.14274189003E+02  0.31311473264E+02  0.19843113928E+02  0.40000000000E+02  0.47000000000E+01 0. -1.
         -5    1    3    3    0  501  0.14274189003E+02 -0.31311473264E+02 -0.19843113928E+02  0.40000000000E+02  0.47000000000E+01 0.  1.
</event>
<event>
 5    1  0.4814700E-001  0.8000000E+02  0.7546771E-02  0.1203772E+00
         11   -1    0    0    0    0  0.00000000000E+00  0.00000000000E+00  0.40000000000E+02  0.40000000000E+02  0.00000000000E+00 0. -1.
        -11   -1    0    0    0    0 -0.00000000000E+00 -0.00000000000E+00 -0.40000000000E+02  0.40000000000E+02  0.00000000000E+00 0.  1.
         23    2    1    2    0    0  0.00000000000E+00  0.00000000000E+00  0.00000000000E+00  0.80000000000E+02  0.80000000000E+02 0.  0.
          5    1    3    3  501    0  0.24596497484E+02 -0.91461686557E+00 -0.31178290324E+02  0.40000000000E+02  0.47000000000E+01 0.  1.
         -5    1    3    3    0  501 -0.24596497484E+02  0.91461686557E+00  0.31178290324E+02  0.40000000000E+02  0.47000000000E+01 0. -1.
</event>
<event>
 5    1  0.4814700E-001  0.8000000E+02  0.7546771E-02  0.1203772E+00
         11   -1    0    0    0    0  0.00000000000E+00  0.00000000000E+00  0.40000000000E+02  0.40000000000E+02  0.00000000000E+00 0.  1.
        -11   -1    0    0    0    0 -0.00000000000E+00 -0.00000000000E+00 -0.40000000000E+02  0.40000000000E+02  0.00000000000E+00 0. -1.
         23    2    1    2    0    0  0.00000000000E+00  0.00000000000E+00  0.00000000000E+00  0.80000000000E+02  0.80000000000E+02 0.  0.
          5    1    3    3  501    0 -0.59117163415E+01  0.39192869480E+02  0.26230882202E+01  0.40000000000E+02  0.47000000000E+01 0. -1.
         -5    1    3    3    0  501  0.59117163415E+01 -0.39192869480E+02 -0.26230882202E+01  0.40000000000E+02  0.47000000000E+01 0.  1.
</event>
<event>
 5    1  0.4814700E-001  0.8000000E+02  0.7546771E-02  0.1203772E+00
         11   -1    0    0    0    0  0.00000000000E+00  0.00000000000E+00  0.40000000000E+02  0.40000000000E+02  0.00000000000E+00 0. -1.
        -11   -1    0    0    0    0 -0.00000000000E+00 -0.00000000000E+00 -0.40000000000E+02  0.40000000000E+02  0.00000000000E+00 0.  1.
         23    2    1    2    0    0  0.00000000000E+00  0.00000000000E+00  0.00000000000E+00  0.80000000000E+02  0.80000000000E+02 0.  0.
          5    1    3    3  501    0 -0.28065750220E+02 -0.24262731820E+02  0.14196602029E+02  0.40000000000E+02  0.47000000000E+01 0.  1.
         -5    1    3    3    0  501  0.28065750220E+02  0.24262731820E+02 -0.14196602029E+02  0.40000000000E+02  0.47000000000E+01 0. -1.
</event>
<event>
 5    1  0.4814700E-001  0.8000000E+02  0.7546771E-02  0.1203772E+00
         11   -1    0    0    0    0  0.00000000000E+00  0.00000000000E+00  0.40000000000E+02  0.40000000000E+02  0.00000000000E+00 0. -1.
        -11   -1    0    0    0    0 -0.00000000000E+00 -0.00000000000E+00 -0.40000000000E+02  0.40000000000E+02  0.00000000000E+00 0.  1.
         23    2    1    2    0    0  0.00000000000E+00  0.00000000000E+00  0.00000000000E+00  0.80000000000E+02  0.80000000000E+02 0.  0.
          5    1    3    3  501    0  0.14038890959E+02  0.36346912350E+02  0.77279688962E+01  0.40000000000E+02  0.47000000000E+01 0. -1.
         -5    1    3    3    0  501 -0.14038890959E+02 -0.36346912350E+02 -0.77279688962E+01  0.40000000000E+02  0.47000000000E+01 0.  1.
</event>
<event>
 5    1  0.4814700E-001  0.8000000E+02  0.7546771E-02  0.1203772E+00
         11   -1    0    0    0    0  0.00000000000E+00  0.00000000000E+00  0.40000000000E+02  0.40000000000E+02  0.00000000000E+00 0.  1.
        -11   -1    0    0    0    0 -0.00000000000E+00 -0.00000000000E+00 -0.40000000000E+02  0.40000000000E+02  0.00000000000E+00 0. -1.
         23    2    1    2    0    0  0.00000000000E+00  0.00000000000E+00  0.00000000000E+00  0.80000000000E+02  0.80000000000E+02 0.  0.
          5    1    3    3  501    0 -0.38723892777E+02  0.82574841568E+01 -0.31912510960E+01  0.40000000000E+02  0.47000000000E+01 0. -1.
         -5    1    3    3    0  501  0.38723892777E+02 -0.82574841568E+01  0.31912510960E+01  0.40000000000E+02  0.47000000000E+01 0.  1.
</event>
<event>
 5    1  0.4814700E-001  0.8000000E+02  0.7546771E-02  0.1203772E+00
         11   -1    0    0    0    0  0.00000000000E+00  0.00000000000E+00  0.40000000000E+02  0.40000000000E+02  0.00000000000E+00 0.  1.
        -11   -1    0    0    0    0 -0.00000000000E+00 -0.00000000000E+00 -0.40000000000E+02  0.40000000000E+02  0.00000000000E+00 0. -1.
         23    2    1    2    0    0  0.00000000000E+00  0.00000000000E+00  0.00000000000E+00  0.80000000000E+02  0.80000000000E+02 0.  0.
          5    1    3    3  501    0 -0.17866300901E+02  0.35233517527E+02 -0.41598719711E+01  0.40000000000E+02  0.47000000000E+01 0. -1.
         -5    1    3    3    0  501  0.17866300901E+02 -0.35233517527E+02  0.41598719711E+01  0.40000000000E+02  0.47000000000E+01 0.  1.
</event>
<event>
 5    1  0.4814700E-001  0.8000000E+02  0.7546771E-02  0.1203772E+00
         11   -1    0    0    0    0  0.00000000000E+00  0.00000000000E+00  0.40000000000E+02  0.40000000000E+02  0.00000000000E+00 0.  1.
        -11   -1    0    0    0    0 -0.00000000000E+00 -0.00000000000E+00 -0.40000000000E+02  0.40000000000E+02  0.00000000000E+00 0. -1.
         23    2    1    2    0    0  0.00000000000E+00  0.00000000000E+00  0.00000000000E+00  0.80000000000E+02  0.80000000000E+02 0.  0.
          5    1    3    3  501    0 -0.30647101774E+02  0.22649397279E+02  0.11210261181E+02  0.40000000000E+02  0.47000000000E+01 0. -1.
         -5    1    3    3    0  501  0.30647101774E+02 -0.22649397279E+02 -0.11210261181E+02  0.40000000000E+02  0.47000000000E+01 0.  1.
</event>
<event>
 5    1  0.4814700E-001  0.8000000E+02  0.7546771E-02  0.1203772E+00
         11   -1    0    0    0    0  0.00000000000E+00  0.00000000000E+00  0.40000000000E+02  0.40000000000E+02  0.00000000000E+00 0. -1.
        -11   -1    0    0    0    0 -0.00000000000E+00 -0.00000000000E+00 -0.40000000000E+02  0.40000000000E+02  0.00000000000E+00 0.  1.
         23    2    1    2    0    0  0.00000000000E+00  0.00000000000E+00  0.00000000000E+00  0.80000000000E+02  0.80000000000E+02 0.  0.
          5    1    3    3  501    0 -0.15277927244E+02 -0.14150459401E+02  0.33826904054E+02  0.40000000000E+02  0.47000000000E+01 0. -1.
         -5    1    3    3    0  501  0.15277927244E+02  0.14150459401E+02 -0.33826904054E+02  0.40000000000E+02  0.47000000000E+01 0.  1.
</event>
<event>
 5    1  0.4814700E-001  0.8000000E+02  0.7546771E-02  0.1203772E+00
         11   -1    0    0    0    0  0.00000000000E+00  0.00000000000E+00  0.40000000000E+02  0.40000000000E+02  0.00000000000E+00 0.  1.
        -11   -1    0    0    0    0 -0.00000000000E+00 -0.00000000000E+00 -0.40000000000E+02  0.40000000000E+02  0.00000000000E+00 0. -1.
         23    2    1    2    0    0  0.00000000000E+00  0.00000000000E+00  0.00000000000E+00  0.80000000000E+02  0.80000000000E+02 0.  0.
          5    1    3    3  501    0 -0.21733151122E+02 -0.23514834754E+02 -0.23508140904E+02  0.40000000000E+02  0.47000000000E+01 0. -1.
         -5    1    3    3    0  501  0.21733151122E+02  0.23514834754E+02  0.23508140904E+02  0.40000000000E+02  0.47000000000E+01 0.  1.
</event>
<event>
 5    1  0.4814700E-001  0.8000000E+02  0.7546771E-02  0.1203772E+00
         11   -1    0    0    0    0  0.00000000000E+00  0.00000000000E+00  0.40000000000E+02  0.40000000000E+02  0.00000000000E+00 0. -1.
        -11   -1    0    0    0    0 -0.00000000000E+00 -0.00000000000E+00 -0.40000000000E+02  0.40000000000E+02  0.00000000000E+00 0.  1.
         23    2    1    2    0    0  0.00000000000E+00  0.00000000000E+00  0.00000000000E+00  0.80000000000E+02  0.80000000000E+02 0.  0.
          5    1    3    3  501    0  0.31609924297E+02  0.23279362752E+02  0.60658021562E+01  0.40000000000E+02  0.47000000000E+01 0. -1.
         -5    1    3    3    0  501 -0.31609924297E+02 -0.23279362752E+02 -0.60658021562E+01  0.40000000000E+02  0.47000000000E+01 0.  1.
</event>
<event>
 5    1  0.4814700E-001  0.8000000E+02  0.7546771E-02  0.1203772E+00
         11   -1    0    0    0    0  0.00000000000E+00  0.00000000000E+00  0.40000000000E+02  0.40000000000E+02  0.00000000000E+00 0.  1.
        -11   -1    0    0    0    0 -0.00000000000E+00 -0.00000000000E+00 -0.40000000000E+02  0.40000000000E+02  0.00000000000E+00 0. -1.
         23    2    1    2    0    0  0.00000000000E+00  0.00000000000E+00  0.00000000000E+00  0.80000000000E+02  0.80000000000E+02 0.  0.
          5    1    3    3  501    0  0.25705618123E+02 -0.26531292885E+02 -0.14602112682E+02  0.40000000000E+02  0.47000000000E+01 0. -1.
         -5    1    3    3    0  501 -0.25705618123E+02  0.26531292885E+02  0.14602112682E+02  0.40000000000E+02  0.47000000000E+01 0.  1.
</event>
<event>
 5    1  0.4814700E-001  0.8000000E+02  0.7546771E-02  0.1203772E+00
         11   -1    0    0    0    0  0.00000000000E+00  0.00000000000E+00  0.40000000000E+02  0.40000000000E+02  0.00000000000E+00 0.  1.
        -11   -1    0    0    0    0 -0.00000000000E+00 -0.00000000000E+00 -0.40000000000E+02  0.40000000000E+02  0.00000000000E+00 0. -1.
         23    2    1    2    0    0  0.00000000000E+00  0.00000000000E+00  0.00000000000E+00  0.80000000000E+02  0.80000000000E+02 0.  0.
          5    1    3    3  501    0 -0.15293687633E+02 -0.12200390284E+02 -0.34571138186E+02  0.40000000000E+02  0.47000000000E+01 0. -1.
         -5    1    3    3    0  501  0.15293687633E+02  0.12200390284E+02  0.34571138186E+02  0.40000000000E+02  0.47000000000E+01 0.  1.
</event>
<event>
 5    1  0.4814700E-001  0.8000000E+02  0.7546771E-02  0.1203772E+00
         11   -1    0    0    0    0  0.00000000000E+00  0.00000000000E+00  0.40000000000E+02  0.40000000000E+02  0.00000000000E+00 0.  1.
        -11   -1    0    0    0    0 -0.00000000000E+00 -0.00000000000E+00 -0.40000000000E+02  0.40000000000E+02  0.00000000000E+00 0. -1.
         23    2    1    2    0    0  0.00000000000E+00  0.00000000000E+00  0.00000000000E+00  0.80000000000E+02  0.80000000000E+02 0.  0.
          5    1    3    3  501    0  0.17534299192E+02 -0.26595946104E+02 -0.23730023234E+02  0.40000000000E+02  0.47000000000E+01 0. -1.
         -5    1    3    3    0  501 -0.17534299192E+02  0.26595946104E+02  0.23730023234E+02  0.40000000000E+02  0.47000000000E+01 0.  1.
</event>
<event>
 5    1  0.4814700E-001  0.8000000E+02  0.7546771E-02  0.1203772E+00
         11   -1    0    0    0    0  0.00000000000E+00  0.00000000000E+00  0.40000000000E+02  0.40000000000E+02  0.00000000000E+00 0. -1.
        -11   -1    0    0    0    0 -0.00000000000E+00 -0.00000000000E+00 -0.40000000000E+02  0.40000000000E+02  0.00000000000E+00 0.  1.
         23    2    1    2    0    0  0.00000000000E+00  0.00000000000E+00  0.00000000000E+00  0.80000000000E+02  0.80000000000E+02 0.  0.
          5    1    3    3  501    0  0.22942220266E+02 -0.26600101981E+02  0.18547212833E+02  0.40000000000E+02  0.47000000000E+01 0. -1.
         -5    1    3    3    0  501 -0.22942220266E+02  0.26600101981E+02 -0.18547212833E+02  0.40000000000E+02  0.47000000000E+01 0.  1.
</event>
<event>
 5    1  0.4814700E-001  0.8000000E+02  0.7546771E-02  0.1203772E+00
         11   -1    0    0    0    0  0.00000000000E+00  0.00000000000E+00  0.40000000000E+02  0.40000000000E+02  0.00000000000E+00 0. -1.
        -11   -1    0    0    0    0 -0.00000000000E+00 -0.00000000000E+00 -0.40000000000E+02  0.40000000000E+02  0.00000000000E+00 0.  1.
         23    2    1    2    0    0  0.00000000000E+00  0.00000000000E+00  0.00000000000E+00  0.80000000000E+02  0.80000000000E+02 0.  0.
          5    1    3    3  501    0  0.25369791239E+02  0.23926758014E+02  0.19020881773E+02  0.40000000000E+02  0.47000000000E+01 0. -1.
         -5    1    3    3    0  501 -0.25369791239E+02 -0.23926758014E+02 -0.19020881773E+02  0.40000000000E+02  0.47000000000E+01 0.  1.
</event>
<event>
 5    1  0.4814700E-001  0.8000000E+02  0.7546771E-02  0.1203772E+00
         11   -1    0    0    0    0  0.00000000000E+00  0.00000000000E+00  0.40000000000E+02  0.40000000000E+02  0.00000000000E+00 0. -1.
        -11   -1    0    0    0    0 -0.00000000000E+00 -0.00000000000E+00 -0.40000000000E+02  0.40000000000E+02  0.00000000000E+00 0.  1.
         23    2    1    2    0    0  0.00000000000E+00  0.00000000000E+00  0.00000000000E+00  0.80000000000E+02  0.80000000000E+02 0.  0.
          5    1    3    3  501    0  0.11978862643E+02  0.26565054351E+02  0.26994716837E+02  0.40000000000E+02  0.47000000000E+01 0. -1.
         -5    1    3    3    0  501 -0.11978862643E+02 -0.26565054351E+02 -0.26994716837E+02  0.40000000000E+02  0.47000000000E+01 0.  1.
</event>
<event>
 5    1  0.4814700E-001  0.8000000E+02  0.7546771E-02  0.1203772E+00
         11   -1    0    0    0    0  0.00000000000E+00  0.00000000000E+00  0.40000000000E+02  0.40000000000E+02  0.00000000000E+00 0. -1.
        -11   -1    0    0    0    0 -0.00000000000E+00 -0.00000000000E+00 -0.40000000000E+02  0.40000000000E+02  0.00000000000E+00 0.  1.
         23    2    1    2    0    0  0.00000000000E+00  0.00000000000E+00  0.00000000000E+00  0.80000000000E+02  0.80000000000E+02 0.  0.
          5    1    3    3  501    0 -0.12497969083E+02 -0.25804185913E+02  0.27492812846E+02  0.40000000000E+02  0.47000000000E+01 0. -1.
         -5    1    3    3    0  501  0.12497969083E+02  0.25804185913E+02 -0.27492812846E+02  0.40000000000E+02  0.47000000000E+01 0.  1.
</event>
<event>
 5    1  0.4814700E-001  0.8000000E+02  0.7546771E-02  0.1203772E+00
         11   -1    0    0    0    0  0.00000000000E+00  0.00000000000E+00  0.40000000000E+02  0.40000000000E+02  0.00000000000E+00 0.  1.
        -11   -1    0    0    0    0 -0.00000000000E+00 -0.00000000000E+00 -0.40000000000E+02  0.40000000000E+02  0.00000000000E+00 0. -1.
         23    2    1    2    0    0  0.00000000000E+00  0.00000000000E+00  0.00000000000E+00  0.80000000000E+02  0.80000000000E+02 0.  0.
          5    1    3    3  501    0 -0.38591281654E+02 -0.92804556859E+01  0.15799121913E+01  0.40000000000E+02  0.47000000000E+01 0. -1.
         -5    1    3    3    0  501  0.38591281654E+02  0.92804556859E+01 -0.15799121913E+01  0.40000000000E+02  0.47000000000E+01 0.  1.
</event>
<event>
 5    1  0.4814700E-001  0.8000000E+02  0.7546771E-02  0.1203772E+00
         11   -1    0    0    0    0  0.00000000000E+00  0.00000000000E+00  0.40000000000E+02  0.40000000000E+02  0.00000000000E+00 0. -1.
        -11   -1    0    0    0    0 -0.00000000000E+00 -0.00000000000E+00 -0.40000000000E+02  0.40000000000E+02  0.00000000000E+00 0.  1.
         23    2    1    2    0    0  0.00000000000E+00  0.00000000000E+00  0.00000000000E+00  0.80000000000E+02  0.80000000000E+02 0.  0.
          5    1    3    3  501    0  0.32798569588E+02 -0.51563908151E+01  0.21807692834E+02  0.40000000000E+02  0.47000000000E+01 0.  1.
         -5    1    3    3    0  501 -0.32798569588E+02  0.51563908151E+01 -0.21807692834E+02  0.40000000000E+02  0.47000000000E+01 0. -1.
</event>
<event>
 5    1  0.4814700E-001  0.8000000E+02  0.7546771E-02  0.1203772E+00
         11   -1    0    0    0    0  0.00000000000E+00  0.00000000000E+00  0.40000000000E+02  0.40000000000E+02  0.00000000000E+00 0. -1.
        -11   -1    0    0    0    0 -0.00000000000E+00 -0.00000000000E+00 -0.40000000000E+02  0.40000000000E+02  0.00000000000E+00 0.  1.
         23    2    1    2    0    0  0.00000000000E+00  0.00000000000E+00  0.00000000000E+00  0.80000000000E+02  0.80000000000E+02 0.  0.
          5    1    3    3  501    0 -0.16117267642E+02 -0.13971109320E+02  0.33510472813E+02  0.40000000000E+02  0.47000000000E+01 0. -1.
         -5    1    3    3    0  501  0.16117267642E+02  0.13971109320E+02 -0.33510472813E+02  0.40000000000E+02  0.47000000000E+01 0.  1.
</event>
<event>
 5    1  0.4814700E-001  0.8000000E+02  0.7546771E-02  0.1203772E+00
         11   -1    0    0    0    0  0.00000000000E+00  0.00000000000E+00  0.40000000000E+02  0.40000000000E+02  0.00000000000E+00 0.  1.
        -11   -1    0    0    0    0 -0.00000000000E+00 -0.00000000000E+00 -0.40000000000E+02  0.40000000000E+02  0.00000000000E+00 0. -1.
         23    2    1    2    0    0  0.00000000000E+00  0.00000000000E+00  0.00000000000E+00  0.80000000000E+02  0.80000000000E+02 0.  0.
          5    1    3    3  501    0 -0.36933799417E+02  0.10403641225E+02 -0.10274663492E+02  0.40000000000E+02  0.47000000000E+01 0. -1.
         -5    1    3    3    0  501  0.36933799417E+02 -0.10403641225E+02  0.10274663492E+02  0.40000000000E+02  0.47000000000E+01 0.  1.
</event>
<event>
 5    1  0.4814700E-001  0.8000000E+02  0.7546771E-02  0.1203772E+00
         11   -1    0    0    0    0  0.00000000000E+00  0.00000000000E+00  0.40000000000E+02  0.40000000000E+02  0.00000000000E+00 0.  1.
        -11   -1    0    0    0    0 -0.00000000000E+00 -0.00000000000E+00 -0.40000000000E+02  0.40000000000E+02  0.00000000000E+00 0. -1.
         23    2    1    2    0    0  0.00000000000E+00  0.00000000000E+00  0.00000000000E+00  0.80000000000E+02  0.80000000000E+02 0.  0.
          5    1    3    3  501    0 -0.35526494675E+02  0.10897751289E+02 -0.14036281308E+02  0.40000000000E+02  0.47000000000E+01 0. -1.
         -5    1    3    3    0  501  0.35526494675E+02 -0.10897751289E+02  0.14036281308E+02  0.40000000000E+02  0.47000000000E+01 0.  1.
</event>
<event>
 5    1  0.4814700E-001  0.8000000E+02  0.7546771E-02  0.1203772E+00
         11   -1    0    0    0    0  0.00000000000E+00  0.00000000000E+00  0.40000000000E+02  0.40000000000E+02  0.00000000000E+00 0.  1.
        -11   -1    0    0    0    0 -0.00000000000E+00 -0.00000000000E+00 -0.40000000000E+02  0.40000000000E+02  0.00000000000E+00 0. -1.
         23    2    1    2    0    0  0.00000000000E+00  0.00000000000E+00  0.00000000000E+00  0.80000000000E+02  0.80000000000E+02 0.  0.
          5    1    3    3  501    0  0.13217556522E+02 -0.19494274410E+02 -0.31987176569E+02  0.40000000000E+02  0.47000000000E+01 0. -1.
         -5    1    3    3    0  501 -0.13217556522E+02  0.19494274410E+02  0.31987176569E+02  0.40000000000E+02  0.47000000000E+01 0.  1.
</event>
<event>
 5    1  0.4814700E-001  0.8000000E+02  0.7546771E-02  0.1203772E+00
         11   -1    0    0    0    0  0.00000000000E+00  0.00000000000E+00  0.40000000000E+02  0.40000000000E+02  0.00000000000E+00 0. -1.
        -11   -1    0    0    0    0 -0.00000000000E+00 -0.00000000000E+00 -0.40000000000E+02  0.40000000000E+02  0.00000000000E+00 0.  1.
         23    2    1    2    0    0  0.00000000000E+00  0.00000000000E+00  0.00000000000E+00  0.80000000000E+02  0.80000000000E+02 0.  0.
          5    1    3    3  501    0 -0.10806444707E+02  0.14651877200E+02 -0.35305144771E+02  0.40000000000E+02  0.47000000000E+01 0.  1.
         -5    1    3    3    0  501  0.10806444707E+02 -0.14651877200E+02  0.35305144771E+02  0.40000000000E+02  0.47000000000E+01 0. -1.
</event>
<event>
 5    1  0.4814700E-001  0.8000000E+02  0.7546771E-02  0.1203772E+00
         11   -1    0    0    0    0  0.00000000000E+00  0.00000000000E+00  0.40000000000E+02  0.40000000000E+02  0.00000000000E+00 0. -1.
        -11   -1    0    0    0    0 -0.00000000000E+00 -0.00000000000E+00 -0.40000000000E+02  0.40000000000E+02  0.00000000000E+00 0.  1.
         23    2    1    2    0    0  0.00000000000E+00  0.00000000000E+00  0.00000000000E+00  0.80000000000E+02  0.80000000000E+02 0.  0.
          5    1    3    3  501    0  0.28992647077E+02  0.74391226709E+01  0.26115050629E+02  0.40000000000E+02  0.47000000000E+01 0. -1.
         -5    1    3    3    0  501 -0.28992647077E+02 -0.74391226709E+01 -0.26115050629E+02  0.40000000000E+02  0.47000000000E+01 0.  1.
</event>
<event>
 5    1  0.4814700E-001  0.8000000E+02  0.7546771E-02  0.1203772E+00
         11   -1    0    0    0    0  0.00000000000E+00  0.00000000000E+00  0.40000000000E+02  0.40000000000E+02  0.00000000000E+00 0.  1.
        -11   -1    0    0    0    0 -0.00000000000E+00 -0.00000000000E+00 -0.40000000000E+02  0.40000000000E+02  0.00000000000E+00 0. -1.
         23    2    1    2    0    0  0.00000000000E+00  0.00000000000E+00  0.00000000000E+00  0.80000000000E+02  0.80000000000E+02 0.  0.
          5    1    3    3  501    0 -0.80172106005E+01  0.26944956961E+02 -0.28064276733E+02  0.40000000000E+02  0.47000000000E+01 0. -1.
         -5    1    3    3    0  501  0.80172106005E+01 -0.26944956961E+02  0.28064276733E+02  0.40000000000E+02  0.47000000000E+01 0.  1.
</event>
<event>
 5    1  0.4814700E-001  0.8000000E+02  0.7546771E-02  0.1203772E+00
         11   -1    0    0    0    0  0.00000000000E+00  0.00000000000E+00  0.40000000000E+02  0.40000000000E+02  0.00000000000E+00 0.  1.
        -11   -1    0    0    0    0 -0.00000000000E+00 -0.00000000000E+00 -0.40000000000E+02  0.40000000000E+02  0.00000000000E+00 0. -1.
         23    2    1    2    0    0  0.00000000000E+00  0.00000000000E+00  0.00000000000E+00  0.80000000000E+02  0.80000000000E+02 0.  0.
          5    1    3    3  501    0 -0.11926307396E+02 -0.32498073813E+02 -0.19482001702E+02  0.40000000000E+02  0.47000000000E+01 0. -1.
         -5    1    3    3    0  501  0.11926307396E+02  0.32498073813E+02  0.19482001702E+02  0.40000000000E+02  0.47000000000E+01 0.  1.
</event>
<event>
 5    1  0.4814700E-001  0.8000000E+02  0.7546771E-02  0.1203772E+00
         11   -1    0    0    0    0  0.00000000000E+00  0.00000000000E+00  0.40000000000E+02  0.40000000000E+02  0.00000000000E+00 0.  1.
        -11   -1    0    0    0    0 -0.00000000000E+00 -0.00000000000E+00 -0.40000000000E+02  0.40000000000E+02  0.00000000000E+00 0. -1.
         23    2    1    2    0    0  0.00000000000E+00  0.00000000000E+00  0.00000000000E+00  0.80000000000E+02  0.80000000000E+02 0.  0.
          5    1    3    3  501    0  0.29918134279E+02  0.79765139205E+01 -0.24883538071E+02  0.40000000000E+02  0.47000000000E+01 0. -1.
         -5    1    3    3    0  501 -0.29918134279E+02 -0.79765139205E+01  0.24883538071E+02  0.40000000000E+02  0.47000000000E+01 0.  1.
</event>
<event>
 5    1  0.4814700E-001  0.8000000E+02  0.7546771E-02  0.1203772E+00
         11   -1    0    0    0    0  0.00000000000E+00  0.00000000000E+00  0.40000000000E+02  0.40000000000E+02  0.00000000000E+00 0. -1.
        -11   -1    0    0    0    0 -0.00000000000E+00 -0.00000000000E+00 -0.40000000000E+02  0.40000000000E+02  0.00000000000E+00 0.  1.
         23    2    1    2    0    0  0.00000000000E+00  0.00000000000E+00  0.00000000000E+00  0.80000000000E+02  0.80000000000E+02 0.  0.
          5    1    3    3  501    0  0.37034758032E+02 -0.30769650559E+01  0.14031000804E+02  0.40000000000E+02  0.47000000000E+01 0. -1.
         -5    1    3    3    0  501 -0.37034758032E+02  0.30769650559E+01 -0.14031000804E+02  0.40000000000E+02  0.47000000000E+01 0.  1.
</event>
<event>
 5    1  0.4814700E-001  0.8000000E+02  0.7546771E-02  0.1203772E+00
         11   -1    0    0    0    0  0.00000000000E+00  0.00000000000E+00  0.40000000000E+02  0.40000000000E+02  0.00000000000E+00 0. -1.
        -11   -1    0    0    0    0 -0.00000000000E+00 -0.00000000000E+00 -0.40000000000E+02  0.40000000000E+02  0.00000000000E+00 0.  1.
         23    2    1    2    0    0  0.00000000000E+00  0.00000000000E+00  0.00000000000E+00  0.80000000000E+02  0.80000000000E+02 0.  0.
          5    1    3    3  501    0  0.38568696100E+02 -0.68875224064E+01  0.65519246225E+01  0.40000000000E+02  0.47000000000E+01 0. -1.
         -5    1    3    3    0  501 -0.38568696100E+02  0.68875224064E+01 -0.65519246225E+01  0.40000000000E+02  0.47000000000E+01 0.  1.
</event>
<event>
 5    1  0.4814700E-001  0.8000000E+02  0.7546771E-02  0.1203772E+00
         11   -1    0    0    0    0  0.00000000000E+00  0.00000000000E+00  0.40000000000E+02  0.40000000000E+02  0.00000000000E+00 0. -1.
        -11   -1    0    0    0    0 -0.00000000000E+00 -0.00000000000E+00 -0.40000000000E+02  0.40000000000E+02  0.00000000000E+00 0.  1.
         23    2    1    2    0    0  0.00000000000E+00  0.00000000000E+00  0.00000000000E+00  0.80000000000E+02  0.80000000000E+02 0.  0.
          5    1    3    3  501    0 -0.16430112660E+02  0.18287734391E+02 -0.31201284730E+02  0.40000000000E+02  0.47000000000E+01 0.  1.
         -5    1    3    3    0  501  0.16430112660E+02 -0.18287734391E+02  0.31201284730E+02  0.40000000000E+02  0.47000000000E+01 0. -1.
</event>
<event>
 5    1  0.4814700E-001  0.8000000E+02  0.7546771E-02  0.1203772E+00
         11   -1    0    0    0    0  0.00000000000E+00  0.00000000000E+00  0.40000000000E+02  0.40000000000E+02  0.00000000000E+00 0. -1.
        -11   -1    0    0    0    0 -0.00000000000E+00 -0.00000000000E+00 -0.40000000000E+02  0.40000000000E+02  0.00000000000E+00 0.  1.
         23    2    1    2    0    0  0.00000000000E+00  0.00000000000E+00  0.00000000000E+00  0.80000000000E+02  0.80000000000E+02 0.  0.
          5    1    3    3  501    0 -0.32270561992E+02  0.11549735619E+02  0.20077958957E+02  0.40000000000E+02  0.47000000000E+01 0. -1.
         -5    1    3    3    0  501  0.32270561992E+02 -0.11549735619E+02 -0.20077958957E+02  0.40000000000E+02  0.47000000000E+01 0.  1.
</event>
<event>
 5    1  0.4814700E-001  0.8000000E+02  0.7546771E-02  0.1203772E+00
         11   -1    0    0    0    0  0.00000000000E+00  0.00000000000E+00  0.40000000000E+02  0.40000000000E+02  0.00000000000E+00 0. -1.
        -11   -1    0    0    0    0 -0.00000000000E+00 -0.00000000000E+00 -0.40000000000E+02  0.40000000000E+02  0.00000000000E+00 0.  1.
         23    2    1    2    0    0  0.00000000000E+00  0.00000000000E+00  0.00000000000E+00  0.80000000000E+02  0.80000000000E+02 0.  0.
          5    1    3    3  501    0  0.31202102870E+02  0.66577774256E+01  0.23664589078E+02  0.40000000000E+02  0.47000000000E+01 0. -1.
         -5    1    3    3    0  501 -0.31202102870E+02 -0.66577774256E+01 -0.23664589078E+02  0.40000000000E+02  0.47000000000E+01 0.  1.
</event>
<event>
 5    1  0.4814700E-001  0.8000000E+02  0.7546771E-02  0.1203772E+00
         11   -1    0    0    0    0  0.00000000000E+00  0.00000000000E+00  0.40000000000E+02  0.40000000000E+02  0.00000000000E+00 0. -1.
        -11   -1    0    0    0    0 -0.00000000000E+00 -0.00000000000E+00 -0.40000000000E+02  0.40000000000E+02  0.00000000000E+00 0.  1.
         23    2    1    2    0    0  0.00000000000E+00  0.00000000000E+00  0.00000000000E+00  0.80000000000E+02  0.80000000000E+02 0.  0.
          5    1    3    3  501    0 -0.98070690713E+01  0.19652036255E+02  0.33098774407E+02  0.40000000000E+02  0.47000000000E+01 0. -1.
         -5    1    3    3    0  501  0.98070690713E+01 -0.19652036255E+02 -0.33098774407E+02  0.40000000000E+02  0.47000000000E+01 0.  1.
</event>
<event>
 5    1  0.4814700E-001  0.8000000E+02  0.7546771E-02  0.1203772E+00
         11   -1    0    0    0    0  0.00000000000E+00  0.00000000000E+00  0.40000000000E+02  0.40000000000E+02  0.00000000000E+00 0. -1.
        -11   -1    0    0    0    0 -0.00000000000E+00 -0.00000000000E+00 -0.40000000000E+02  0.40000000000E+02  0.00000000000E+00 0.  1.
         23    2    1    2    0    0  0.00000000000E+00  0.00000000000E+00  0.00000000000E+00  0.80000000000E+02  0.80000000000E+02 0.  0.
          5    1    3    3  501    0 -0.18084216001E+02 -0.35354236150E+02 -0.97422679955E+00  0.40000000000E+02  0.47000000000E+01 0. -1.
         -5    1    3    3    0  501  0.18084216001E+02  0.35354236150E+02  0.97422679955E+00  0.40000000000E+02  0.47000000000E+01 0.  1.
</event>
<event>
 5    1  0.4814700E-001  0.8000000E+02  0.7546771E-02  0.1203772E+00
         11   -1    0    0    0    0  0.00000000000E+00  0.00000000000E+00  0.40000000000E+02  0.40000000000E+02  0.00000000000E+00 0. -1.
        -11   -1    0    0    0    0 -0.00000000000E+00 -0.00000000000E+00 -0.40000000000E+02  0.40000000000E+02  0.00000000000E+00 0.  1.
         23    2    1    2    0    0  0.00000000000E+00  0.00000000000E+00  0.00000000000E+00  0.80000000000E+02  0.80000000000E+02 0.  0.
          5    1    3    3  501    0 -0.11705705246E+02  0.13124605088E+02  0.35617849542E+02  0.40000000000E+02  0.47000000000E+01 0. -1.
         -5    1    3    3    0  501  0.11705705246E+02 -0.13124605088E+02 -0.35617849542E+02  0.40000000000E+02  0.47000000000E+01 0.  1.
</event>
<event>
 5    1  0.4814700E-001  0.8000000E+02  0.7546771E-02  0.1203772E+00
         11   -1    0    0    0    0  0.00000000000E+00  0.00000000000E+00  0.40000000000E+02  0.40000000000E+02  0.00000000000E+00 0. -1.
        -11   -1    0    0    0    0 -0.00000000000E+00 -0.00000000000E+00 -0.40000000000E+02  0.40000000000E+02  0.00000000000E+00 0.  1.
         23    2    1    2    0    0  0.00000000000E+00  0.00000000000E+00  0.00000000000E+00  0.80000000000E+02  0.80000000000E+02 0.  0.
          5    1    3    3  501    0  0.90238734583E+01  0.38616099476E+02 -0.22970783748E+01  0.40000000000E+02  0.47000000000E+01 0. -1.
         -5    1    3    3    0  501 -0.90238734583E+01 -0.38616099476E+02  0.22970783748E+01  0.40000000000E+02  0.47000000000E+01 0.  1.
</event>
<event>
 5    1  0.4814700E-001  0.8000000E+02  0.7546771E-02  0.1203772E+00
         11   -1    0    0    0    0  0.00000000000E+00  0.00000000000E+00  0.40000000000E+02  0.40000000000E+02  0.00000000000E+00 0. -1.
        -11   -1    0    0    0    0 -0.00000000000E+00 -0.00000000000E+00 -0.40000000000E+02  0.40000000000E+02  0.00000000000E+00 0.  1.
         23    2    1    2    0    0  0.00000000000E+00  0.00000000000E+00  0.00000000000E+00  0.80000000000E+02  0.80000000000E+02 0.  0.
          5    1    3    3  501    0  0.36279795293E+02  0.52403999887E+00  0.16168235388E+02  0.40000000000E+02  0.47000000000E+01 0.  1.
         -5    1    3    3    0  501 -0.36279795293E+02 -0.52403999887E+00 -0.16168235388E+02  0.40000000000E+02  0.47000000000E+01 0. -1.
</event>
<event>
 5    1  0.4814700E-001  0.8000000E+02  0.7546771E-02  0.1203772E+00
         11   -1    0    0    0    0  0.00000000000E+00  0.00000000000E+00  0.40000000000E+02  0.40000000000E+02  0.00000000000E+00 0. -1.
        -11   -1    0    0    0    0 -0.00000000000E+00 -0.00000000000E+00 -0.40000000000E+02  0.40000000000E+02  0.00000000000E+00 0.  1.
         23    2    1    2    0    0  0.00000000000E+00  0.00000000000E+00  0.00000000000E+00  0.80000000000E+02  0.80000000000E+02 0.  0.
          5    1    3    3  501    0 -0.69673668174E+01 -0.19232589907E+02  0.34051039413E+02  0.40000000000E+02  0.47000000000E+01 0. -1.
         -5    1    3    3    0  501  0.69673668174E+01  0.19232589907E+02 -0.34051039413E+02  0.40000000000E+02  0.47000000000E+01 0.  1.
</event>
<event>
 5    1  0.4814700E-001  0.8000000E+02  0.7546771E-02  0.1203772E+00
         11   -1    0    0    0    0  0.00000000000E+00  0.00000000000E+00  0.40000000000E+02  0.40000000000E+02  0.00000000000E+00 0. -1.
        -11   -1    0    0    0    0 -0.00000000000E+00 -0.00000000000E+00 -0.40000000000E+02  0.40000000000E+02  0.00000000000E+00 0.  1.
         23    2    1    2    0    0  0.00000000000E+00  0.00000000000E+00  0.00000000000E+00  0.80000000000E+02  0.80000000000E+02 0.  0.
          5    1    3    3  501    0  0.16582540237E+02  0.36175879158E+01  0.35914376188E+02  0.40000000000E+02  0.47000000000E+01 0. -1.
         -5    1    3    3    0  501 -0.16582540237E+02 -0.36175879158E+01 -0.35914376188E+02  0.40000000000E+02  0.47000000000E+01 0.  1.
</event>
<event>
 5    1  0.4814700E-001  0.8000000E+02  0.7546771E-02  0.1203772E+00
         11   -1    0    0    0    0  0.00000000000E+00  0.00000000000E+00  0.40000000000E+02  0.40000000000E+02  0.00000000000E+00 0. -1.
        -11   -1    0    0    0    0 -0.00000000000E+00 -0.00000000000E+00 -0.40000000000E+02  0.40000000000E+02  0.00000000000E+00 0.  1.
         23    2    1    2    0    0  0.00000000000E+00  0.00000000000E+00  0.00000000000E+00  0.80000000000E+02  0.80000000000E+02 0.  0.
          5    1    3    3  501    0  0.28482168985E+02  0.25407078602E+02 -0.11007107107E+02  0.40000000000E+02  0.47000000000E+01 0. -1.
         -5    1    3    3    0  501 -0.28482168985E+02 -0.25407078602E+02  0.11007107107E+02  0.40000000000E+02  0.47000000000E+01 0.  1.
</event>
<event>
 5    1  0.4814700E-001  0.8000000E+02  0.7546771E-02  0.1203772E+00
         11   -1    0    0    0    0  0.00000000000E+00  0.00000000000E+00  0.40000000000E+02  0.40000000000E+02  0.00000000000E+00 0. -1.
        -11   -1    0    0    0    0 -0.00000000000E+00 -0.00000000000E+00 -0.40000000000E+02  0.40000000000E+02  0.00000000000E+00 0.  1.
         23    2    1    2    0    0  0.00000000000E+00  0.00000000000E+00  0.00000000000E+00  0.80000000000E+02  0.80000000000E+02 0.  0.
          5    1    3    3  501    0  0.25980415922E+02  0.28190177117E+02 -0.10403936881E+02  0.40000000000E+02  0.47000000000E+01 0. -1.
         -5    1    3    3    0  501 -0.25980415922E+02 -0.28190177117E+02  0.10403936881E+02  0.40000000000E+02  0.47000000000E+01 0.  1.
</event>
<event>
 5    1  0.4814700E-001  0.8000000E+02  0.7546771E-02  0.1203772E+00
         11   -1    0    0    0    0  0.00000000000E+00  0.00000000000E+00  0.40000000000E+02  0.40000000000E+02  0.00000000000E+00 0. -1.
        -11   -1    0    0    0    0 -0.00000000000E+00 -0.00000000000E+00 -0.40000000000E+02  0.40000000000E+02  0.00000000000E+00 0.  1.
         23    2    1    2    0    0  0.00000000000E+00  0.00000000000E+00  0.00000000000E+00  0.80000000000E+02  0.80000000000E+02 0.  0.
          5    1    3    3  501    0  0.37720624772E+02  0.60152358960E+01 -0.10903274917E+02  0.40000000000E+02  0.47000000000E+01 0. -1.
         -5    1    3    3    0  501 -0.37720624772E+02 -0.60152358960E+01  0.10903274917E+02  0.40000000000E+02  0.47000000000E+01 0.  1.
</event>
<event>
 5    1  0.4814700E-001  0.8000000E+02  0.7546771E-02  0.1203772E+00
         11   -1    0    0    0    0  0.00000000000E+00  0.00000000000E+00  0.40000000000E+02  0.40000000000E+02  0.00000000000E+00 0. -1.
        -11   -1    0    0    0    0 -0.00000000000E+00 -0.00000000000E+00 -0.40000000000E+02  0.40000000000E+02  0.00000000000E+00 0.  1.
         23    2    1    2    0    0  0.00000000000E+00  0.00000000000E+00  0.00000000000E+00  0.80000000000E+02  0.80000000000E+02 0.  0.
          5    1    3    3  501    0 -0.60975728467E+01 -0.16019057438E+02  0.35834611819E+02  0.40000000000E+02  0.47000000000E+01 0. -1.
         -5    1    3    3    0  501  0.60975728467E+01  0.16019057438E+02 -0.35834611819E+02  0.40000000000E+02  0.47000000000E+01 0.  1.
</event>
<event>
 5    1  0.4814700E-001  0.8000000E+02  0.7546771E-02  0.1203772E+00
         11   -1    0    0    0    0  0.00000000000E+00  0.00000000000E+00  0.40000000000E+02  0.40000000000E+02  0.00000000000E+00 0. -1.
        -11   -1    0    0    0    0 -0.00000000000E+00 -0.00000000000E+00 -0.40000000000E+02  0.40000000000E+02  0.00000000000E+00 0.  1.
         23    2    1    2    0    0  0.00000000000E+00  0.00000000000E+00  0.00000000000E+00  0.80000000000E+02  0.80000000000E+02 0.  0.
          5    1    3    3  501    0 -0.36200628045E+01  0.27503478249E+02  0.28431739825E+02  0.40000000000E+02  0.47000000000E+01 0. -1.
         -5    1    3    3    0  501  0.36200628045E+01 -0.27503478249E+02 -0.28431739825E+02  0.40000000000E+02  0.47000000000E+01 0.  1.
</event>
<event>
 5    1  0.4814700E-001  0.8000000E+02  0.7546771E-02  0.1203772E+00
         11   -1    0    0    0    0  0.00000000000E+00  0.00000000000E+00  0.40000000000E+02  0.40000000000E+02  0.00000000000E+00 0.  1.
        -11   -1    0    0    0    0 -0.00000000000E+00 -0.00000000000E+00 -0.40000000000E+02  0.40000000000E+02  0.00000000000E+00 0. -1.
         23    2    1    2    0    0  0.00000000000E+00  0.00000000000E+00  0.00000000000E+00  0.80000000000E+02  0.80000000000E+02 0.  0.
          5    1    3    3  501    0 -0.12180710923E+02  0.62122811222E+01 -0.37295413185E+02  0.40000000000E+02  0.47000000000E+01 0. -1.
         -5    1    3    3    0  501  0.12180710923E+02 -0.62122811222E+01  0.37295413185E+02  0.40000000000E+02  0.47000000000E+01 0.  1.
</event>
<event>
 5    1  0.4814700E-001  0.8000000E+02  0.7546771E-02  0.1203772E+00
         11   -1    0    0    0    0  0.00000000000E+00  0.00000000000E+00  0.40000000000E+02  0.40000000000E+02  0.00000000000E+00 0. -1.
        -11   -1    0    0    0    0 -0.00000000000E+00 -0.00000000000E+00 -0.40000000000E+02  0.40000000000E+02  0.00000000000E+00 0.  1.
         23    2    1    2    0    0  0.00000000000E+00  0.00000000000E+00  0.00000000000E+00  0.80000000000E+02  0.80000000000E+02 0.  0.
          5    1    3    3  501    0  0.20995273464E+02  0.34418226152E+01  0.33544930306E+02  0.40000000000E+02  0.47000000000E+01 0. -1.
         -5    1    3    3    0  501 -0.20995273464E+02 -0.34418226152E+01 -0.33544930306E+02  0.40000000000E+02  0.47000000000E+01 0.  1.
</event>
<event>
 5    1  0.4814700E-001  0.8000000E+02  0.7546771E-02  0.1203772E+00
         11   -1    0    0    0    0  0.00000000000E+00  0.00000000000E+00  0.40000000000E+02  0.40000000000E+02  0.00000000000E+00 0. -1.
        -11   -1    0    0    0    0 -0.00000000000E+00 -0.00000000000E+00 -0.40000000000E+02  0.40000000000E+02  0.00000000000E+00 0.  1.
         23    2    1    2    0    0  0.00000000000E+00  0.00000000000E+00  0.00000000000E+00  0.80000000000E+02  0.80000000000E+02 0.  0.
          5    1    3    3  501    0 -0.29104607711E+01 -0.22035577326E+02  0.32922219701E+02  0.40000000000E+02  0.47000000000E+01 0. -1.
         -5    1    3    3    0  501  0.29104607711E+01  0.22035577326E+02 -0.32922219701E+02  0.40000000000E+02  0.47000000000E+01 0.  1.
</event>
<event>
 5    1  0.4814700E-001  0.8000000E+02  0.7546771E-02  0.1203772E+00
         11   -1    0    0    0    0  0.00000000000E+00  0.00000000000E+00  0.40000000000E+02  0.40000000000E+02  0.00000000000E+00 0. -1.
        -11   -1    0    0    0    0 -0.00000000000E+00 -0.00000000000E+00 -0.40000000000E+02  0.40000000000E+02  0.00000000000E+00 0.  1.
         23    2    1    2    0    0  0.00000000000E+00  0.00000000000E+00  0.00000000000E+00  0.80000000000E+02  0.80000000000E+02 0.  0.
          5    1    3    3  501    0  0.16260851659E+02  0.11540817662E+01  0.36223787745E+02  0.40000000000E+02  0.47000000000E+01 0. -1.
         -5    1    3    3    0  501 -0.16260851659E+02 -0.11540817662E+01 -0.36223787745E+02  0.40000000000E+02  0.47000000000E+01 0.  1.
</event>
<event>
 5    1  0.4814700E-001  0.8000000E+02  0.7546771E-02  0.1203772E+00
         11   -1    0    0    0    0  0.00000000000E+00  0.00000000000E+00  0.40000000000E+02  0.40000000000E+02  0.00000000000E+00 0. -1.
        -11   -1    0    0    0    0 -0.00000000000E+00 -0.00000000000E+00 -0.40000000000E+02  0.40000000000E+02  0.00000000000E+00 0.  1.
         23    2    1    2    0    0  0.00000000000E+00  0.00000000000E+00  0.00000000000E+00  0.80000000000E+02  0.80000000000E+02 0.  0.
          5    1    3    3  501    0  0.90298384618E+01 -0.36767570250E+02  0.12021555444E+02  0.40000000000E+02  0.47000000000E+01 0. -1.
         -5    1    3    3    0  501 -0.90298384618E+01  0.36767570250E+02 -0.12021555444E+02  0.40000000000E+02  0.47000000000E+01 0.  1.
</event>
<event>
 5    1  0.4814700E-001  0.8000000E+02  0.7546771E-02  0.1203772E+00
         11   -1    0    0    0    0  0.00000000000E+00  0.00000000000E+00  0.40000000000E+02  0.40000000000E+02  0.00000000000E+00 0.  1.
        -11   -1    0    0    0    0 -0.00000000000E+00 -0.00000000000E+00 -0.40000000000E+02  0.40000000000E+02  0.00000000000E+00 0. -1.
         23    2    1    2    0    0  0.00000000000E+00  0.00000000000E+00  0.00000000000E+00  0.80000000000E+02  0.80000000000E+02 0.  0.
          5    1    3    3  501    0  0.23745747807E+02 -0.20902568759E+02 -0.24023573430E+02  0.40000000000E+02  0.47000000000E+01 0. -1.
         -5    1    3    3    0  501 -0.23745747807E+02  0.20902568759E+02  0.24023573430E+02  0.40000000000E+02  0.47000000000E+01 0.  1.
</event>
<event>
 5    1  0.4814700E-001  0.8000000E+02  0.7546771E-02  0.1203772E+00
         11   -1    0    0    0    0  0.00000000000E+00  0.00000000000E+00  0.40000000000E+02  0.40000000000E+02  0.00000000000E+00 0. -1.
        -11   -1    0    0    0    0 -0.00000000000E+00 -0.00000000000E+00 -0.40000000000E+02  0.40000000000E+02  0.00000000000E+00 0.  1.
         23    2    1    2    0    0  0.00000000000E+00  0.00000000000E+00  0.00000000000E+00  0.80000000000E+02  0.80000000000E+02 0.  0.
          5    1    3    3  501    0  0.25315619947E+02  0.13879194606E+02 -0.27283646087E+02  0.40000000000E+02  0.47000000000E+01 0.  1.
         -5    1    3    3    0  501 -0.25315619947E+02 -0.13879194606E+02  0.27283646087E+02  0.40000000000E+02  0.47000000000E+01 0. -1.
</event>
<event>
 5    1  0.4814700E-001  0.8000000E+02  0.7546771E-02  0.1203772E+00
         11   -1    0    0    0    0  0.00000000000E+00  0.00000000000E+00  0.40000000000E+02  0.40000000000E+02  0.00000000000E+00 0.  1.
        -11   -1    0    0    0    0 -0.00000000000E+00 -0.00000000000E+00 -0.40000000000E+02  0.40000000000E+02  0.00000000000E+00 0. -1.
         23    2    1    2    0    0  0.00000000000E+00  0.00000000000E+00  0.00000000000E+00  0.80000000000E+02  0.80000000000E+02 0.  0.
          5    1    3    3  501    0 -0.24837306282E+02  0.16204575423E+02 -0.26427825337E+02  0.40000000000E+02  0.47000000000E+01 0. -1.
         -5    1    3    3    0  501  0.24837306282E+02 -0.16204575423E+02  0.26427825337E+02  0.40000000000E+02  0.47000000000E+01 0.  1.
</event>
<event>
 5    1  0.4814700E-001  0.8000000E+02  0.7546771E-02  0.1203772E+00
         11   -1    0    0    0    0  0.00000000000E+00  0.00000000000E+00  0.40000000000E+02  0.40000000000E+02  0.00000000000E+00 0.  1.
        -11   -1    0    0    0    0 -0.00000000000E+00 -0.00000000000E+00 -0.40000000000E+02  0.40000000000E+02  0.00000000000E+00 0. -1.
         23    2    1    2    0    0  0.00000000000E+00  0.00000000000E+00  0.00000000000E+00  0.80000000000E+02  0.80000000000E+02 0.  0.
          5    1    3    3  501    0 -0.23465450577E+02 -0.14520431423E+02 -0.28573408976E+02  0.40000000000E+02  0.47000000000E+01 0. -1.
         -5    1    3    3    0  501  0.23465450577E+02  0.14520431423E+02  0.28573408976E+02  0.40000000000E+02  0.47000000000E+01 0.  1.
</event>
<event>
 5    1  0.4814700E-001  0.8000000E+02  0.7546771E-02  0.1203772E+00
         11   -1    0    0    0    0  0.00000000000E+00  0.00000000000E+00  0.40000000000E+02  0.40000000000E+02  0.00000000000E+00 0.  1.
        -11   -1    0    0    0    0 -0.00000000000E+00 -0.00000000000E+00 -0.40000000000E+02  0.40000000000E+02  0.00000000000E+00 0. -1.
         23    2    1    2    0    0  0.00000000000E+00  0.00000000000E+00  0.00000000000E+00  0.80000000000E+02  0.80000000000E+02 0.  0.
          5    1    3    3  501    0  0.20351261688E+02  0.31042788858E+02 -0.14145013526E+02  0.40000000000E+02  0.47000000000E+01 0. -1.
         -5    1    3    3    0  501 -0.20351261688E+02 -0.31042788858E+02  0.14145013526E+02  0.40000000000E+02  0.47000000000E+01 0.  1.
</event>
<event>
 5    1  0.4814700E-001  0.8000000E+02  0.7546771E-02  0.1203772E+00
         11   -1    0    0    0    0  0.00000000000E+00  0.00000000000E+00  0.40000000000E+02  0.40000000000E+02  0.00000000000E+00 0.  1.
        -11   -1    0    0    0    0 -0.00000000000E+00 -0.00000000000E+00 -0.40000000000E+02  0.40000000000E+02  0.00000000000E+00 0. -1.
         23    2    1    2    0    0  0.00000000000E+00  0.00000000000E+00  0.00000000000E+00  0.80000000000E+02  0.80000000000E+02 0.  0.
          5    1    3    3  501    0  0.14236448506E+02  0.26442381010E+02 -0.26000654231E+02  0.40000000000E+02  0.47000000000E+01 0. -1.
         -5    1    3    3    0  501 -0.14236448506E+02 -0.26442381010E+02  0.26000654231E+02  0.40000000000E+02  0.47000000000E+01 0.  1.
</event>
<event>
 5    1  0.4814700E-001  0.8000000E+02  0.7546771E-02  0.1203772E+00
         11   -1    0    0    0    0  0.00000000000E+00  0.00000000000E+00  0.40000000000E+02  0.40000000000E+02  0.00000000000E+00 0.  1.
        -11   -1    0    0    0    0 -0.00000000000E+00 -0.00000000000E+00 -0.40000000000E+02  0.40000000000E+02  0.00000000000E+00 0. -1.
         23    2    1    2    0    0  0.00000000000E+00  0.00000000000E+00  0.00000000000E+00  0.80000000000E+02  0.80000000000E+02 0.  0.
          5    1    3    3  501    0  0.96298651894E+01  0.22286276229E+02 -0.31440381491E+02  0.40000000000E+02  0.47000000000E+01 0. -1.
         -5    1    3    3    0  501 -0.96298651894E+01 -0.22286276229E+02  0.31440381491E+02  0.40000000000E+02  0.47000000000E+01 0.  1.
</event>
<event>
 5    1  0.4814700E-001  0.8000000E+02  0.7546771E-02  0.1203772E+00
         11   -1    0    0    0    0  0.00000000000E+00  0.00000000000E+00  0.40000000000E+02  0.40000000000E+02  0.00000000000E+00 0.  1.
        -11   -1    0    0    0    0 -0.00000000000E+00 -0.00000000000E+00 -0.40000000000E+02  0.40000000000E+02  0.00000000000E+00 0. -1.
         23    2    1    2    0    0  0.00000000000E+00  0.00000000000E+00  0.00000000000E+00  0.80000000000E+02  0.80000000000E+02 0.  0.
          5    1    3    3  501    0  0.27210377210E+02  0.39485836237E+00 -0.28936991187E+02  0.40000000000E+02  0.47000000000E+01 0. -1.
         -5    1    3    3    0  501 -0.27210377210E+02 -0.39485836237E+00  0.28936991187E+02  0.40000000000E+02  0.47000000000E+01 0.  1.
</event>
<event>
 5    1  0.4814700E-001  0.8000000E+02  0.7546771E-02  0.1203772E+00
         11   -1    0    0    0    0  0.00000000000E+00  0.00000000000E+00  0.40000000000E+02  0.40000000000E+02  0.00000000000E+00 0. -1.
        -11   -1    0    0    0    0 -0.00000000000E+00 -0.00000000000E+00 -0.40000000000E+02  0.40000000000E+02  0.00000000000E+00 0.  1.
         23    2    1    2    0    0  0.00000000000E+00  0.00000000000E+00  0.00000000000E+00  0.80000000000E+02  0.80000000000E+02 0.  0.
          5    1    3    3  501    0 -0.90196012305E+01 -0.36572745934E+02  0.12609165259E+02  0.40000000000E+02  0.47000000000E+01 0. -1.
         -5    1    3    3    0  501  0.90196012305E+01  0.36572745934E+02 -0.12609165259E+02  0.40000000000E+02  0.47000000000E+01 0.  1.
</event>
<event>
 5    1  0.4814700E-001  0.8000000E+02  0.7546771E-02  0.1203772E+00
         11   -1    0    0    0    0  0.00000000000E+00  0.00000000000E+00  0.40000000000E+02  0.40000000000E+02  0.00000000000E+00 0.  1.
        -11   -1    0    0    0    0 -0.00000000000E+00 -0.00000000000E+00 -0.40000000000E+02  0.40000000000E+02  0.00000000000E+00 0. -1.
         23    2    1    2    0    0  0.00000000000E+00  0.00000000000E+00  0.00000000000E+00  0.80000000000E+02  0.80000000000E+02 0.  0.
          5    1    3    3  501    0 -0.15569653452E+01  0.22650998294E+02 -0.32594756253E+02  0.40000000000E+02  0.47000000000E+01 0. -1.
         -5    1    3    3    0  501  0.15569653452E+01 -0.22650998294E+02  0.32594756253E+02  0.40000000000E+02  0.47000000000E+01 0.  1.
</event>
<event>
 5    1  0.4814700E-001  0.8000000E+02  0.7546771E-02  0.1203772E+00
         11   -1    0    0    0    0  0.00000000000E+00  0.00000000000E+00  0.40000000000E+02  0.40000000000E+02  0.00000000000E+00 0.  1.
        -11   -1    0    0    0    0 -0.00000000000E+00 -0.00000000000E+00 -0.40000000000E+02  0.40000000000E+02  0.00000000000E+00 0. -1.
         23    2    1    2    0    0  0.00000000000E+00  0.00000000000E+00  0.00000000000E+00  0.80000000000E+02  0.80000000000E+02 0.  0.
          5    1    3    3  501    0 -0.57890320269E+01  0.36140603748E+02 -0.15435474368E+02  0.40000000000E+02  0.47000000000E+01 0. -1.
         -5    1    3    3    0  501  0.57890320269E+01 -0.36140603748E+02  0.15435474368E+02  0.40000000000E+02  0.47000000000E+01 0.  1.
</event>
<event>
 5    1  0.4814700E-001  0.8000000E+02  0.7546771E-02  0.1203772E+00
         11   -1    0    0    0    0  0.00000000000E+00  0.00000000000E+00  0.40000000000E+02  0.40000000000E+02  0.00000000000E+00 0.  1.
        -11   -1    0    0    0    0 -0.00000000000E+00 -0.00000000000E+00 -0.40000000000E+02  0.40000000000E+02  0.00000000000E+00 0. -1.
         23    2    1    2    0    0  0.00000000000E+00  0.00000000000E+00  0.00000000000E+00  0.80000000000E+02  0.80000000000E+02 0.  0.
          5    1    3    3  501    0  0.11329378793E+02  0.29981038686E+02 -0.23466838208E+02  0.40000000000E+02  0.47000000000E+01 0. -1.
         -5    1    3    3    0  501 -0.11329378793E+02 -0.29981038686E+02  0.23466838208E+02  0.40000000000E+02  0.47000000000E+01 0.  1.
</event>
<event>
 5    1  0.4814700E-001  0.8000000E+02  0.7546771E-02  0.1203772E+00
         11   -1    0    0    0    0  0.00000000000E+00  0.00000000000E+00  0.40000000000E+02  0.40000000000E+02  0.00000000000E+00 0.  1.
        -11   -1    0    0    0    0 -0.00000000000E+00 -0.00000000000E+00 -0.40000000000E+02  0.40000000000E+02  0.00000000000E+00 0. -1.
         23    2    1    2    0    0  0.00000000000E+00  0.00000000000E+00  0.00000000000E+00  0.80000000000E+02  0.80000000000E+02 0.  0.
          5    1    3    3  501    0 -0.20843123376E+02 -0.33069982845E+02 -0.70604845827E+01  0.40000000000E+02  0.47000000000E+01 0. -1.
         -5    1    3    3    0  501  0.20843123376E+02  0.33069982845E+02  0.70604845827E+01  0.40000000000E+02  0.47000000000E+01 0.  1.
</event>
<event>
 5    1  0.4814700E-001  0.8000000E+02  0.7546771E-02  0.1203772E+00
         11   -1    0    0    0    0  0.00000000000E+00  0.00000000000E+00  0.40000000000E+02  0.40000000000E+02  0.00000000000E+00 0.  1.
        -11   -1    0    0    0    0 -0.00000000000E+00 -0.00000000000E+00 -0.40000000000E+02  0.40000000000E+02  0.00000000000E+00 0. -1.
         23    2    1    2    0    0  0.00000000000E+00  0.00000000000E+00  0.00000000000E+00  0.80000000000E+02  0.80000000000E+02 0.  0.
          5    1    3    3  501    0  0.13197270753E+02  0.36520314619E+02 -0.83671180711E+01  0.40000000000E+02  0.47000000000E+01 0. -1.
         -5    1    3    3    0  501 -0.13197270753E+02 -0.36520314619E+02  0.83671180711E+01  0.40000000000E+02  0.47000000000E+01 0.  1.
</event>
<event>
 5    1  0.4814700E-001  0.8000000E+02  0.7546771E-02  0.1203772E+00
         11   -1    0    0    0    0  0.00000000000E+00  0.00000000000E+00  0.40000000000E+02  0.40000000000E+02  0.00000000000E+00 0. -1.
        -11   -1    0    0    0    0 -0.00000000000E+00 -0.00000000000E+00 -0.40000000000E+02  0.40000000000E+02  0.00000000000E+00 0.  1.
         23    2    1    2    0    0  0.00000000000E+00  0.00000000000E+00  0.00000000000E+00  0.80000000000E+02  0.80000000000E+02 0.  0.
          5    1    3    3  501    0  0.18296875441E+02  0.16159671539E+02 -0.31336869098E+02  0.40000000000E+02  0.47000000000E+01 0.  1.
         -5    1    3    3    0  501 -0.18296875441E+02 -0.16159671539E+02  0.31336869098E+02  0.40000000000E+02  0.47000000000E+01 0. -1.
</event>
<event>
 5    1  0.4814700E-001  0.8000000E+02  0.7546771E-02  0.1203772E+00
         11   -1    0    0    0    0  0.00000000000E+00  0.00000000000E+00  0.40000000000E+02  0.40000000000E+02  0.00000000000E+00 0. -1.
        -11   -1    0    0    0    0 -0.00000000000E+00 -0.00000000000E+00 -0.40000000000E+02  0.40000000000E+02  0.00000000000E+00 0.  1.
         23    2    1    2    0    0  0.00000000000E+00  0.00000000000E+00  0.00000000000E+00  0.80000000000E+02  0.80000000000E+02 0.  0.
          5    1    3    3  501    0  0.18178827222E+02 -0.19619748833E+02  0.29368447296E+02  0.40000000000E+02  0.47000000000E+01 0. -1.
         -5    1    3    3    0  501 -0.18178827222E+02  0.19619748833E+02 -0.29368447296E+02  0.40000000000E+02  0.47000000000E+01 0.  1.
</event>
<event>
 5    1  0.4814700E-001  0.8000000E+02  0.7546771E-02  0.1203772E+00
         11   -1    0    0    0    0  0.00000000000E+00  0.00000000000E+00  0.40000000000E+02  0.40000000000E+02  0.00000000000E+00 0. -1.
        -11   -1    0    0    0    0 -0.00000000000E+00 -0.00000000000E+00 -0.40000000000E+02  0.40000000000E+02  0.00000000000E+00 0.  1.
         23    2    1    2    0    0  0.00000000000E+00  0.00000000000E+00  0.00000000000E+00  0.80000000000E+02  0.80000000000E+02 0.  0.
          5    1    3    3  501    0 -0.34638408634E+02  0.11755995818E+02  0.15488292663E+02  0.40000000000E+02  0.47000000000E+01 0. -1.
         -5    1    3    3    0  501  0.34638408634E+02 -0.11755995818E+02 -0.15488292663E+02  0.40000000000E+02  0.47000000000E+01 0.  1.
</event>
<event>
 5    1  0.4814700E-001  0.8000000E+02  0.7546771E-02  0.1203772E+00
         11   -1    0    0    0    0  0.00000000000E+00  0.00000000000E+00  0.40000000000E+02  0.40000000000E+02  0.00000000000E+00 0.  1.
        -11   -1    0    0    0    0 -0.00000000000E+00 -0.00000000000E+00 -0.40000000000E+02  0.40000000000E+02  0.00000000000E+00 0. -1.
         23    2    1    2    0    0  0.00000000000E+00  0.00000000000E+00  0.00000000000E+00  0.80000000000E+02  0.80000000000E+02 0.  0.
          5    1    3    3  501    0 -0.13358363878E+02 -0.37064532193E+02  0.50679944549E+01  0.40000000000E+02  0.47000000000E+01 0. -1.
         -5    1    3    3    0  501  0.13358363878E+02  0.37064532193E+02 -0.50679944549E+01  0.40000000000E+02  0.47000000000E+01 0.  1.
</event>
<event>
 5    1  0.4814700E-001  0.8000000E+02  0.7546771E-02  0.1203772E+00
         11   -1    0    0    0    0  0.00000000000E+00  0.00000000000E+00  0.40000000000E+02  0.40000000000E+02  0.00000000000E+00 0. -1.
        -11   -1    0    0    0    0 -0.00000000000E+00 -0.00000000000E+00 -0.40000000000E+02  0.40000000000E+02  0.00000000000E+00 0.  1.
         23    2    1    2    0    0  0.00000000000E+00  0.00000000000E+00  0.00000000000E+00  0.80000000000E+02  0.80000000000E+02 0.  0.
          5    1    3    3  501    0 -0.34259429043E+02  0.10459400677E+02  0.17169812437E+02  0.40000000000E+02  0.47000000000E+01 0. -1.
         -5    1    3    3    0  501  0.34259429043E+02 -0.10459400677E+02 -0.17169812437E+02  0.40000000000E+02  0.47000000000E+01 0.  1.
</event>
<event>
 5    1  0.4814700E-001  0.8000000E+02  0.7546771E-02  0.1203772E+00
         11   -1    0    0    0    0  0.00000000000E+00  0.00000000000E+00  0.40000000000E+02  0.40000000000E+02  0.00000000000E+00 0.  1.
        -11   -1    0    0    0    0 -0.00000000000E+00 -0.00000000000E+00 -0.40000000000E+02  0.40000000000E+02  0.00000000000E+00 0. -1.
         23    2    1    2    0    0  0.00000000000E+00  0.00000000000E+00  0.00000000000E+00  0.80000000000E+02  0.80000000000E+02 0.  0.
          5    1    3    3  501    0 -0.34792774135E+02  0.68979041233E+01 -0.17882723135E+02  0.40000000000E+02  0.47000000000E+01 0. -1.
         -5    1    3    3    0  501  0.34792774135E+02 -0.68979041233E+01  0.17882723135E+02  0.40000000000E+02  0.47000000000E+01 0.  1.
</event>
<event>
 5    1  0.4814700E-001  0.8000000E+02  0.7546771E-02  0.1203772E+00
         11   -1    0    0    0    0  0.00000000000E+00  0.00000000000E+00  0.40000000000E+02  0.40000000000E+02  0.00000000000E+00 0.  1.
        -11   -1    0    0    0    0 -0.00000000000E+00 -0.00000000000E+00 -0.40000000000E+02  0.40000000000E+02  0.00000000000E+00 0. -1.
         23    2    1    2    0    0  0.00000000000E+00  0.00000000000E+00  0.00000000000E+00  0.80000000000E+02  0.80000000000E+02 0.  0.
          5    1    3    3  501    0 -0.22171459333E+02  0.28826283819E+02 -0.15980668079E+02  0.40000000000E+02  0.47000000000E+01 0. -1.
         -5    1    3    3    0  501  0.22171459333E+02 -0.28826283819E+02  0.15980668079E+02  0.40000000000E+02  0.47000000000E+01 0.  1.
</event>
<event>
 5    1  0.4814700E-001  0.8000000E+02  0.7546771E-02  0.1203772E+00
         11   -1    0    0    0    0  0.00000000000E+00  0.00000000000E+00  0.40000000000E+02  0.40000000000E+02  0.00000000000E+00 0.  1.
        -11   -1    0    0    0    0 -0.00000000000E+00 -0.00000000000E+00 -0.40000000000E+02  0.40000000000E+02  0.00000000000E+00 0. -1.
         23    2    1    2    0    0  0.00000000000E+00  0.00000000000E+00  0.00000000000E+00  0.80000000000E+02  0.80000000000E+02 0.  0.
          5    1    3    3  501    0 -0.36314104332E+02 -0.66157311489E+01 -0.14677463267E+02  0.40000000000E+02  0.47000000000E+01 0. -1.
         -5    1    3    3    0  501  0.36314104332E+02  0.66157311489E+01  0.14677463267E+02  0.40000000000E+02  0.47000000000E+01 0.  1.
</event>
<event>
 5    1  0.4814700E-001  0.8000000E+02  0.7546771E-02  0.1203772E+00
         11   -1    0    0    0    0  0.00000000000E+00  0.00000000000E+00  0.40000000000E+02  0.40000000000E+02  0.00000000000E+00 0.  1.
        -11   -1    0    0    0    0 -0.00000000000E+00 -0.00000000000E+00 -0.40000000000E+02  0.40000000000E+02  0.00000000000E+00 0. -1.
         23    2    1    2    0    0  0.00000000000E+00  0.00000000000E+00  0.00000000000E+00  0.80000000000E+02  0.80000000000E+02 0.  0.
          5    1    3    3  501    0  0.92034690559E+01 -0.22573483426E+02 -0.31363099390E+02  0.40000000000E+02  0.47000000000E+01 0. -1.
         -5    1    3    3    0  501 -0.92034690559E+01  0.22573483426E+02  0.31363099390E+02  0.40000000000E+02  0.47000000000E+01 0.  1.
</event>
<event>
 5    1  0.4814700E-001  0.8000000E+02  0.7546771E-02  0.1203772E+00
         11   -1    0    0    0    0  0.00000000000E+00  0.00000000000E+00  0.40000000000E+02  0.40000000000E+02  0.00000000000E+00 0. -1.
        -11   -1    0    0    0    0 -0.00000000000E+00 -0.00000000000E+00 -0.40000000000E+02  0.40000000000E+02  0.00000000000E+00 0.  1.
         23    2    1    2    0    0  0.00000000000E+00  0.00000000000E+00  0.00000000000E+00  0.80000000000E+02  0.80000000000E+02 0.  0.
          5    1    3    3  501    0  0.26273377329E+02  0.15993583347E+01  0.29749986499E+02  0.40000000000E+02  0.47000000000E+01 0. -1.
         -5    1    3    3    0  501 -0.26273377329E+02 -0.15993583347E+01 -0.29749986499E+02  0.40000000000E+02  0.47000000000E+01 0.  1.
</event>
<event>
 5    1  0.4814700E-001  0.8000000E+02  0.7546771E-02  0.1203772E+00
         11   -1    0    0    0    0  0.00000000000E+00  0.00000000000E+00  0.40000000000E+02  0.40000000000E+02  0.00000000000E+00 0.  1.
        -11   -1    0    0    0    0 -0.00000000000E+00 -0.00000000000E+00 -0.40000000000E+02  0.40000000000E+02  0.00000000000E+00 0. -1.
         23    2    1    2    0    0  0.00000000000E+00  0.00000000000E+00  0.00000000000E+00  0.80000000000E+02  0.80000000000E+02 0.  0.
          5    1    3    3  501    0  0.65889991146E+01  0.20564267044E+02 -0.33340756014E+02  0.40000000000E+02  0.47000000000E+01 0. -1.
         -5    1    3    3    0  501 -0.65889991146E+01 -0.20564267044E+02  0.33340756014E+02  0.40000000000E+02  0.47000000000E+01 0.  1.
</event>
<event>
 5    1  0.4814700E-001  0.8000000E+02  0.7546771E-02  0.1203772E+00
         11   -1    0    0    0    0  0.00000000000E+00  0.00000000000E+00  0.40000000000E+02  0.40000000000E+02  0.00000000000E+00 0.  1.
        -11   -1    0    0    0    0 -0.00000000000E+00 -0.00000000000E+00 -0.40000000000E+02  0.40000000000E+02  0.00000000000E+00 0. -1.
         23    2    1    2    0    0  0.00000000000E+00  0.00000000000E+00  0.00000000000E+00  0.80000000000E+02  0.80000000000E+02 0.  0.
          5    1    3    3  501    0 -0.27409128207E+02 -0.20654673772E+02 -0.20000853540E+02  0.40000000000E+02  0.47000000000E+01 0. -1.
         -5    1    3    3    0  501  0.27409128207E+02  0.20654673772E+02  0.20000853540E+02  0.40000000000E+02  0.47000000000E+01 0.  1.
</event>
<event>
 5    1  0.4814700E-001  0.8000000E+02  0.7546771E-02  0.1203772E+00
         11   -1    0    0    0    0  0.00000000000E+00  0.00000000000E+00  0.40000000000E+02  0.40000000000E+02  0.00000000000E+00 0. -1.
        -11   -1    0    0    0    0 -0.00000000000E+00 -0.00000000000E+00 -0.40000000000E+02  0.40000000000E+02  0.00000000000E+00 0.  1.
         23    2    1    2    0    0  0.00000000000E+00  0.00000000000E+00  0.00000000000E+00  0.80000000000E+02  0.80000000000E+02 0.  0.
          5    1    3    3  501    0 -0.33783466867E+02  0.40494130891E+00  0.20890748885E+02  0.40000000000E+02  0.47000000000E+01 0. -1.
         -5    1    3    3    0  501  0.33783466867E+02 -0.40494130891E+00 -0.20890748885E+02  0.40000000000E+02  0.47000000000E+01 0.  1.
</event>
<event>
 5    1  0.4814700E-001  0.8000000E+02  0.7546771E-02  0.1203772E+00
         11   -1    0    0    0    0  0.00000000000E+00  0.00000000000E+00  0.40000000000E+02  0.40000000000E+02  0.00000000000E+00 0.  1.
        -11   -1    0    0    0    0 -0.00000000000E+00 -0.00000000000E+00 -0.40000000000E+02  0.40000000000E+02  0.00000000000E+00 0. -1.
         23    2    1    2    0    0  0.00000000000E+00  0.00000000000E+00  0.00000000000E+00  0.80000000000E+02  0.80000000000E+02 0.  0.
          5    1    3    3  501    0  0.57609386520E+01 -0.68328845171E+01 -0.38704434824E+02  0.40000000000E+02  0.47000000000E+01 0. -1.
         -5    1    3    3    0  501 -0.57609386520E+01  0.68328845171E+01  0.38704434824E+02  0.40000000000E+02  0.47000000000E+01 0.  1.
</event>
<event>
 5    1  0.4814700E-001  0.8000000E+02  0.7546771E-02  0.1203772E+00
         11   -1    0    0    0    0  0.00000000000E+00  0.00000000000E+00  0.40000000000E+02  0.40000000000E+02  0.00000000000E+00 0.  1.
        -11   -1    0    0    0    0 -0.00000000000E+00 -0.00000000000E+00 -0.40000000000E+02  0.40000000000E+02  0.00000000000E+00 0. -1.
         23    2    1    2    0    0  0.00000000000E+00  0.00000000000E+00  0.00000000000E+00  0.80000000000E+02  0.80000000000E+02 0.  0.
          5    1    3    3  501    0  0.26569568213E+02 -0.16993208306E+02 -0.24149511722E+02  0.40000000000E+02  0.47000000000E+01 0. -1.
         -5    1    3    3    0  501 -0.26569568213E+02  0.16993208306E+02  0.24149511722E+02  0.40000000000E+02  0.47000000000E+01 0.  1.
</event>
<event>
 5    1  0.4814700E-001  0.8000000E+02  0.7546771E-02  0.1203772E+00
         11   -1    0    0    0    0  0.00000000000E+00  0.00000000000E+00  0.40000000000E+02  0.40000000000E+02  0.00000000000E+00 0.  1.
        -11   -1    0    0    0    0 -0.00000000000E+00 -0.00000000000E+00 -0.40000000000E+02  0.40000000000E+02  0.00000000000E+00 0. -1.
         23    2    1    2    0    0  0.00000000000E+00  0.00000000000E+00  0.00000000000E+00  0.80000000000E+02  0.80000000000E+02 0.  0.
          5    1    3    3  501    0  0.11104257565E+02 -0.34188148324E+01 -0.37985749553E+02  0.40000000000E+02  0.47000000000E+01 0. -1.
         -5    1    3    3    0  501 -0.11104257565E+02  0.34188148324E+01  0.37985749553E+02  0.40000000000E+02  0.47000000000E+01 0.  1.
</event>
<event>
 5    1  0.4814700E-001  0.8000000E+02  0.7546771E-02  0.1203772E+00
         11   -1    0    0    0    0  0.00000000000E+00  0.00000000000E+00  0.40000000000E+02  0.40000000000E+02  0.00000000000E+00 0.  1.
        -11   -1    0    0    0    0 -0.00000000000E+00 -0.00000000000E+00 -0.40000000000E+02  0.40000000000E+02  0.00000000000E+00 0. -1.
         23    2    1    2    0    0  0.00000000000E+00  0.00000000000E+00  0.00000000000E+00  0.80000000000E+02  0.80000000000E+02 0.  0.
          5    1    3    3  501    0 -0.14763156599E+02 -0.17649214056E+02 -0.32380000779E+02  0.40000000000E+02  0.47000000000E+01 0. -1.
         -5    1    3    3    0  501  0.14763156599E+02  0.17649214056E+02  0.32380000779E+02  0.40000000000E+02  0.47000000000E+01 0.  1.
</event>
<event>
 5    1  0.4814700E-001  0.8000000E+02  0.7546771E-02  0.1203772E+00
         11   -1    0    0    0    0  0.00000000000E+00  0.00000000000E+00  0.40000000000E+02  0.40000000000E+02  0.00000000000E+00 0. -1.
        -11   -1    0    0    0    0 -0.00000000000E+00 -0.00000000000E+00 -0.40000000000E+02  0.40000000000E+02  0.00000000000E+00 0.  1.
         23    2    1    2    0    0  0.00000000000E+00  0.00000000000E+00  0.00000000000E+00  0.80000000000E+02  0.80000000000E+02 0.  0.
          5    1    3    3  501    0 -0.54335187354E+01 -0.36092950800E+02 -0.15674366868E+02  0.40000000000E+02  0.47000000000E+01 0.  1.
         -5    1    3    3    0  501  0.54335187354E+01  0.36092950800E+02  0.15674366868E+02  0.40000000000E+02  0.47000000000E+01 0. -1.
</event>
<event>
 5    1  0.4814700E-001  0.8000000E+02  0.7546771E-02  0.1203772E+00
         11   -1    0    0    0    0  0.00000000000E+00  0.00000000000E+00  0.40000000000E+02  0.40000000000E+02  0.00000000000E+00 0.  1.
        -11   -1    0    0    0    0 -0.00000000000E+00 -0.00000000000E+00 -0.40000000000E+02  0.40000000000E+02  0.00000000000E+00 0. -1.
         23    2    1    2    0    0  0.00000000000E+00  0.00000000000E+00  0.00000000000E+00  0.80000000000E+02  0.80000000000E+02 0.  0.
          5    1    3    3  501    0  0.75515205542E+00  0.16779689128E+02 -0.35996969013E+02  0.40000000000E+02  0.47000000000E+01 0. -1.
         -5    1    3    3    0  501 -0.75515205542E+00 -0.16779689128E+02  0.35996969013E+02  0.40000000000E+02  0.47000000000E+01 0.  1.
</event>
<event>
 5    1  0.4814700E-001  0.8000000E+02  0.7546771E-02  0.1203772E+00
         11   -1    0    0    0    0  0.00000000000E+00  0.00000000000E+00  0.40000000000E+02  0.40000000000E+02  0.00000000000E+00 0.  1.
        -11   -1    0    0    0    0 -0.00000000000E+00 -0.00000000000E+00 -0.40000000000E+02  0.40000000000E+02  0.00000000000E+00 0. -1.
         23    2    1    2    0    0  0.00000000000E+00  0.00000000000E+00  0.00000000000E+00  0.80000000000E+02  0.80000000000E+02 0.  0.
          5    1    3    3  501    0  0.71503657312E+01  0.38304292725E+02 -0.77177346926E+01  0.40000000000E+02  0.47000000000E+01 0. -1.
         -5    1    3    3    0  501 -0.71503657312E+01 -0.38304292725E+02  0.77177346926E+01  0.40000000000E+02  0.47000000000E+01 0.  1.
</event>
<event>
 5    1  0.4814700E-001  0.8000000E+02  0.7546771E-02  0.1203772E+00
         11   -1    0    0    0    0  0.00000000000E+00  0.00000000000E+00  0.40000000000E+02  0.40000000000E+02  0.00000000000E+00 0. -1.
        -11   -1    0    0    0    0 -0.00000000000E+00 -0.00000000000E+00 -0.40000000000E+02  0.40000000000E+02  0.00000000000E+00 0.  1.
         23    2    1    2    0    0  0.00000000000E+00  0.00000000000E+00  0.00000000000E+00  0.80000000000E+02  0.80000000000E+02 0.  0.
          5    1    3    3  501    0  0.15127744761E+02  0.17990325557E+02 -0.32022016251E+02  0.40000000000E+02  0.47000000000E+01 0.  1.
         -5    1    3    3    0  501 -0.15127744761E+02 -0.17990325557E+02  0.32022016251E+02  0.40000000000E+02  0.47000000000E+01 0. -1.
</event>
<event>
 5    1  0.4814700E-001  0.8000000E+02  0.7546771E-02  0.1203772E+00
         11   -1    0    0    0    0  0.00000000000E+00  0.00000000000E+00  0.40000000000E+02  0.40000000000E+02  0.00000000000E+00 0.  1.
        -11   -1    0    0    0    0 -0.00000000000E+00 -0.00000000000E+00 -0.40000000000E+02  0.40000000000E+02  0.00000000000E+00 0. -1.
         23    2    1    2    0    0  0.00000000000E+00  0.00000000000E+00  0.00000000000E+00  0.80000000000E+02  0.80000000000E+02 0.  0.
          5    1    3    3  501    0 -0.35553782092E+02 -0.12745166338E+02 -0.12304442856E+02  0.40000000000E+02  0.47000000000E+01 0. -1.
         -5    1    3    3    0  501  0.35553782092E+02  0.12745166338E+02  0.12304442856E+02  0.40000000000E+02  0.47000000000E+01 0.  1.
</event>
<event>
 5    1  0.4814700E-001  0.8000000E+02  0.7546771E-02  0.1203772E+00
         11   -1    0    0    0    0  0.00000000000E+00  0.00000000000E+00  0.40000000000E+02  0.40000000000E+02  0.00000000000E+00 0.  1.
        -11   -1    0    0    0    0 -0.00000000000E+00 -0.00000000000E+00 -0.40000000000E+02  0.40000000000E+02  0.00000000000E+00 0. -1.
         23    2    1    2    0    0  0.00000000000E+00  0.00000000000E+00  0.00000000000E+00  0.80000000000E+02  0.80000000000E+02 0.  0.
          5    1    3    3  501    0 -0.15441623144E+00 -0.36928039857E+02 -0.14635779034E+02  0.40000000000E+02  0.47000000000E+01 0. -1.
         -5    1    3    3    0  501  0.15441623144E+00  0.36928039857E+02  0.14635779034E+02  0.40000000000E+02  0.47000000000E+01 0.  1.
</event>
<event>
 5    1  0.4814700E-001  0.8000000E+02  0.7546771E-02  0.1203772E+00
         11   -1    0    0    0    0  0.00000000000E+00  0.00000000000E+00  0.40000000000E+02  0.40000000000E+02  0.00000000000E+00 0. -1.
        -11   -1    0    0    0    0 -0.00000000000E+00 -0.00000000000E+00 -0.40000000000E+02  0.40000000000E+02  0.00000000000E+00 0.  1.
         23    2    1    2    0    0  0.00000000000E+00  0.00000000000E+00  0.00000000000E+00  0.80000000000E+02  0.80000000000E+02 0.  0.
          5    1    3    3  501    0 -0.39212182607E+02 -0.25641768469E+01  0.58085912505E+01  0.40000000000E+02  0.47000000000E+01 0. -1.
         -5    1    3    3    0  501  0.39212182607E+02  0.25641768469E+01 -0.58085912505E+01  0.40000000000E+02  0.47000000000E+01 0.  1.
</event>
<event>
 5    1  0.4814700E-001  0.8000000E+02  0.7546771E-02  0.1203772E+00
         11   -1    0    0    0    0  0.00000000000E+00  0.00000000000E+00  0.40000000000E+02  0.40000000000E+02  0.00000000000E+00 0.  1.
        -11   -1    0    0    0    0 -0.00000000000E+00 -0.00000000000E+00 -0.40000000000E+02  0.40000000000E+02  0.00000000000E+00 0. -1.
         23    2    1    2    0    0  0.00000000000E+00  0.00000000000E+00  0.00000000000E+00  0.80000000000E+02  0.80000000000E+02 0.  0.
          5    1    3    3  501    0  0.24218156285E+02  0.21271298931E+02 -0.23214709732E+02  0.40000000000E+02  0.47000000000E+01 0. -1.
         -5    1    3    3    0  501 -0.24218156285E+02 -0.21271298931E+02  0.23214709732E+02  0.40000000000E+02  0.47000000000E+01 0.  1.
</event>
<event>
 5    1  0.4814700E-001  0.8000000E+02  0.7546771E-02  0.1203772E+00
         11   -1    0    0    0    0  0.00000000000E+00  0.00000000000E+00  0.40000000000E+02  0.40000000000E+02  0.00000000000E+00 0. -1.
        -11   -1    0    0    0    0 -0.00000000000E+00 -0.00000000000E+00 -0.40000000000E+02  0.40000000000E+02  0.00000000000E+00 0.  1.
         23    2    1    2    0    0  0.00000000000E+00  0.00000000000E+00  0.00000000000E+00  0.80000000000E+02  0.80000000000E+02 0.  0.
          5    1    3    3  501    0 -0.37983976640E+01  0.39526532380E+02 -0.10655576758E+01  0.40000000000E+02  0.47000000000E+01 0. -1.
         -5    1    3    3    0  501  0.37983976640E+01 -0.39526532380E+02  0.10655576758E+01  0.40000000000E+02  0.47000000000E+01 0.  1.
</event>
<event>
 5    1  0.4814700E-001  0.8000000E+02  0.7546771E-02  0.1203772E+00
         11   -1    0    0    0    0  0.00000000000E+00  0.00000000000E+00  0.40000000000E+02  0.40000000000E+02  0.00000000000E+00 0.  1.
        -11   -1    0    0    0    0 -0.00000000000E+00 -0.00000000000E+00 -0.40000000000E+02  0.40000000000E+02  0.00000000000E+00 0. -1.
         23    2    1    2    0    0  0.00000000000E+00  0.00000000000E+00  0.00000000000E+00  0.80000000000E+02  0.80000000000E+02 0.  0.
          5    1    3    3  501    0  0.38436181974E+01 -0.31238803470E+01 -0.39412916293E+02  0.40000000000E+02  0.47000000000E+01 0. -1.
         -5    1    3    3    0  501 -0.38436181974E+01  0.31238803470E+01  0.39412916293E+02  0.40000000000E+02  0.47000000000E+01 0.  1.
</event>
<event>
 5    1  0.4814700E-001  0.8000000E+02  0.7546771E-02  0.1203772E+00
         11   -1    0    0    0    0  0.00000000000E+00  0.00000000000E+00  0.40000000000E+02  0.40000000000E+02  0.00000000000E+00 0. -1.
        -11   -1    0    0    0    0 -0.00000000000E+00 -0.00000000000E+00 -0.40000000000E+02  0.40000000000E+02  0.00000000000E+00 0.  1.
         23    2    1    2    0    0  0.00000000000E+00  0.00000000000E+00  0.00000000000E+00  0.80000000000E+02  0.80000000000E+02 0.  0.
          5    1    3    3  501    0  0.24324196142E+02 -0.23793713913E+02  0.20496406033E+02  0.40000000000E+02  0.47000000000E+01 0. -1.
         -5    1    3    3    0  501 -0.24324196142E+02  0.23793713913E+02 -0.20496406033E+02  0.40000000000E+02  0.47000000000E+01 0.  1.
</event>
<event>
 5    1  0.4814700E-001  0.8000000E+02  0.7546771E-02  0.1203772E+00
         11   -1    0    0    0    0  0.00000000000E+00  0.00000000000E+00  0.40000000000E+02  0.40000000000E+02  0.00000000000E+00 0.  1.
        -11   -1    0    0    0    0 -0.00000000000E+00 -0.00000000000E+00 -0.40000000000E+02  0.40000000000E+02  0.00000000000E+00 0. -1.
         23    2    1    2    0    0  0.00000000000E+00  0.00000000000E+00  0.00000000000E+00  0.80000000000E+02  0.80000000000E+02 0.  0.
          5    1    3    3  501    0  0.20232457745E+02 -0.11346258613E+02 -0.32246241162E+02  0.40000000000E+02  0.47000000000E+01 0. -1.
         -5    1    3    3    0  501 -0.20232457745E+02  0.11346258613E+02  0.32246241162E+02  0.40000000000E+02  0.47000000000E+01 0.  1.
</event>
<event>
 5    1  0.4814700E-001  0.8000000E+02  0.7546771E-02  0.1203772E+00
         11   -1    0    0    0    0  0.00000000000E+00  0.00000000000E+00  0.40000000000E+02  0.40000000000E+02  0.00000000000E+00 0.  1.
        -11   -1    0    0    0    0 -0.00000000000E+00 -0.00000000000E+00 -0.40000000000E+02  0.40000000000E+02  0.00000000000E+00 0. -1.
         23    2    1    2    0    0  0.00000000000E+00  0.00000000000E+00  0.00000000000E+00  0.80000000000E+02  0.80000000000E+02 0.  0.
          5    1    3    3  501    0  0.16158332862E-01 -0.14881196421E+02 -0.36830147053E+02  0.40000000000E+02  0.47000000000E+01 0. -1.
         -5    1    3    3    0  501 -0.16158332862E-01  0.14881196421E+02  0.36830147053E+02  0.40000000000E+02  0.47000000000E+01 0.  1.
</event>
<event>
 5    1  0.4814700E-001  0.8000000E+02  0.7546771E-02  0.1203772E+00
         11   -1    0    0    0    0  0.00000000000E+00  0.00000000000E+00  0.40000000000E+02  0.40000000000E+02  0.00000000000E+00 0. -1.
        -11   -1    0    0    0    0 -0.00000000000E+00 -0.00000000000E+00 -0.40000000000E+02  0.40000000000E+02  0.00000000000E+00 0.  1.
         23    2    1    2    0    0  0.00000000000E+00  0.00000000000E+00  0.00000000000E+00  0.80000000000E+02  0.80000000000E+02 0.  0.
          5    1    3    3  501    0  0.37266514866E+02 -0.81290623220E+01  0.11092124030E+02  0.40000000000E+02  0.47000000000E+01 0. -1.
         -5    1    3    3    0  501 -0.37266514866E+02  0.81290623220E+01 -0.11092124030E+02  0.40000000000E+02  0.47000000000E+01 0.  1.
</event>
<event>
 5    1  0.4814700E-001  0.8000000E+02  0.7546771E-02  0.1203772E+00
         11   -1    0    0    0    0  0.00000000000E+00  0.00000000000E+00  0.40000000000E+02  0.40000000000E+02  0.00000000000E+00 0. -1.
        -11   -1    0    0    0    0 -0.00000000000E+00 -0.00000000000E+00 -0.40000000000E+02  0.40000000000E+02  0.00000000000E+00 0.  1.
         23    2    1    2    0    0  0.00000000000E+00  0.00000000000E+00  0.00000000000E+00  0.80000000000E+02  0.80000000000E+02 0.  0.
          5    1    3    3  501    0 -0.78438195702E+01  0.26731423268E+02  0.28316346950E+02  0.40000000000E+02  0.47000000000E+01 0. -1.
         -5    1    3    3    0  501  0.78438195702E+01 -0.26731423268E+02 -0.28316346950E+02  0.40000000000E+02  0.47000000000E+01 0.  1.
</event>
<event>
 5    1  0.4814700E-001  0.8000000E+02  0.7546771E-02  0.1203772E+00
         11   -1    0    0    0    0  0.00000000000E+00  0.00000000000E+00  0.40000000000E+02  0.40000000000E+02  0.00000000000E+00 0. -1.
        -11   -1    0    0    0    0 -0.00000000000E+00 -0.00000000000E+00 -0.40000000000E+02  0.40000000000E+02  0.00000000000E+00 0.  1.
         23    2    1    2    0    0  0.00000000000E+00  0.00000000000E+00  0.00000000000E+00  0.80000000000E+02  0.80000000000E+02 0.  0.
          5    1    3    3  501    0  0.18504411006E+02 -0.33966122653E+02  0.90442957283E+01  0.40000000000E+02  0.47000000000E+01 0. -1.
         -5    1    3    3    0  501 -0.18504411006E+02  0.33966122653E+02 -0.90442957283E+01  0.40000000000E+02  0.47000000000E+01 0.  1.
</event>
<event>
 5    1  0.4814700E-001  0.8000000E+02  0.7546771E-02  0.1203772E+00
         11   -1    0    0    0    0  0.00000000000E+00  0.00000000000E+00  0.40000000000E+02  0.40000000000E+02  0.00000000000E+00 0.  1.
        -11   -1    0    0    0    0 -0.00000000000E+00 -0.00000000000E+00 -0.40000000000E+02  0.40000000000E+02  0.00000000000E+00 0. -1.
         23    2    1    2    0    0  0.00000000000E+00  0.00000000000E+00  0.00000000000E+00  0.80000000000E+02  0.80000000000E+02 0.  0.
          5    1    3    3  501    0  0.18539336107E+02 -0.34363764530E+02 -0.73030612792E+01  0.40000000000E+02  0.47000000000E+01 0. -1.
         -5    1    3    3    0  501 -0.18539336107E+02  0.34363764530E+02  0.73030612792E+01  0.40000000000E+02  0.47000000000E+01 0.  1.
</event>
<event>
 5    1  0.4814700E-001  0.8000000E+02  0.7546771E-02  0.1203772E+00
         11   -1    0    0    0    0  0.00000000000E+00  0.00000000000E+00  0.40000000000E+02  0.40000000000E+02  0.00000000000E+00 0. -1.
        -11   -1    0    0    0    0 -0.00000000000E+00 -0.00000000000E+00 -0.40000000000E+02  0.40000000000E+02  0.00000000000E+00 0.  1.
         23    2    1    2    0    0  0.00000000000E+00  0.00000000000E+00  0.00000000000E+00  0.80000000000E+02  0.80000000000E+02 0.  0.
          5    1    3    3  501    0  0.97384056188E+01  0.16498963674E+00  0.38510339318E+02  0.40000000000E+02  0.47000000000E+01 0. -1.
         -5    1    3    3    0  501 -0.97384056188E+01 -0.16498963674E+00 -0.38510339318E+02  0.40000000000E+02  0.47000000000E+01 0.  1.
</event>
<event>
 5    1  0.4814700E-001  0.8000000E+02  0.7546771E-02  0.1203772E+00
         11   -1    0    0    0    0  0.00000000000E+00  0.00000000000E+00  0.40000000000E+02  0.40000000000E+02  0.00000000000E+00 0. -1.
        -11   -1    0    0    0    0 -0.00000000000E+00 -0.00000000000E+00 -0.40000000000E+02  0.40000000000E+02  0.00000000000E+00 0.  1.
         23    2    1    2    0    0  0.00000000000E+00  0.00000000000E+00  0.00000000000E+00  0.80000000000E+02  0.80000000000E+02 0.  0.
          5    1    3    3  501    0  0.32814353765E+02 -0.18631797497E+02  0.12409041423E+02  0.40000000000E+02  0.47000000000E+01 0. -1.
         -5    1    3    3    0  501 -0.32814353765E+02  0.18631797497E+02 -0.12409041423E+02  0.40000000000E+02  0.47000000000E+01 0.  1.
</event>
<event>
 5    1  0.4814700E-001  0.8000000E+02  0.7546771E-02  0.1203772E+00
         11   -1    0    0    0    0  0.00000000000E+00  0.00000000000E+00  0.40000000000E+02  0.40000000000E+02  0.00000000000E+00 0.  1.
        -11   -1    0    0    0    0 -0.00000000000E+00 -0.00000000000E+00 -0.40000000000E+02  0.40000000000E+02  0.00000000000E+00 0. -1.
         23    2    1    2    0    0  0.00000000000E+00  0.00000000000E+00  0.00000000000E+00  0.80000000000E+02  0.80000000000E+02 0.  0.
          5    1    3    3  501    0 -0.72690846250E+01  0.17447695474E+02 -0.34937777997E+02  0.40000000000E+02  0.47000000000E+01 0. -1.
         -5    1    3    3    0  501  0.72690846250E+01 -0.17447695474E+02  0.34937777997E+02  0.40000000000E+02  0.47000000000E+01 0.  1.
</event>
<event>
 5    1  0.4814700E-001  0.8000000E+02  0.7546771E-02  0.1203772E+00
         11   -1    0    0    0    0  0.00000000000E+00  0.00000000000E+00  0.40000000000E+02  0.40000000000E+02  0.00000000000E+00 0. -1.
        -11   -1    0    0    0    0 -0.00000000000E+00 -0.00000000000E+00 -0.40000000000E+02  0.40000000000E+02  0.00000000000E+00 0.  1.
         23    2    1    2    0    0  0.00000000000E+00  0.00000000000E+00  0.00000000000E+00  0.80000000000E+02  0.80000000000E+02 0.  0.
          5    1    3    3  501    0 -0.20146354960E+02  0.27551516707E+02  0.20321129619E+02  0.40000000000E+02  0.47000000000E+01 0. -1.
         -5    1    3    3    0  501  0.20146354960E+02 -0.27551516707E+02 -0.20321129619E+02  0.40000000000E+02  0.47000000000E+01 0.  1.
</event>
<event>
 5    1  0.4814700E-001  0.8000000E+02  0.7546771E-02  0.1203772E+00
         11   -1    0    0    0    0  0.00000000000E+00  0.00000000000E+00  0.40000000000E+02  0.40000000000E+02  0.00000000000E+00 0. -1.
        -11   -1    0    0    0    0 -0.00000000000E+00 -0.00000000000E+00 -0.40000000000E+02  0.40000000000E+02  0.00000000000E+00 0.  1.
         23    2    1    2    0    0  0.00000000000E+00  0.00000000000E+00  0.00000000000E+00  0.80000000000E+02  0.80000000000E+02 0.  0.
          5    1    3    3  501    0  0.12302700764E+02  0.16353913905E+02  0.34045602563E+02  0.40000000000E+02  0.47000000000E+01 0. -1.
         -5    1    3    3    0  501 -0.12302700764E+02 -0.16353913905E+02 -0.34045602563E+02  0.40000000000E+02  0.47000000000E+01 0.  1.
</event>
<event>
 5    1  0.4814700E-001  0.8000000E+02  0.7546771E-02  0.1203772E+00
         11   -1    0    0    0    0  0.00000000000E+00  0.00000000000E+00  0.40000000000E+02  0.40000000000E+02  0.00000000000E+00 0. -1.
        -11   -1    0    0    0    0 -0.00000000000E+00 -0.00000000000E+00 -0.40000000000E+02  0.40000000000E+02  0.00000000000E+00 0.  1.
         23    2    1    2    0    0  0.00000000000E+00  0.00000000000E+00  0.00000000000E+00  0.80000000000E+02  0.80000000000E+02 0.  0.
          5    1    3    3  501    0  0.29807442898E+01  0.22218689631E+02  0.32792605791E+02  0.40000000000E+02  0.47000000000E+01 0. -1.
         -5    1    3    3    0  501 -0.29807442898E+01 -0.22218689631E+02 -0.32792605791E+02  0.40000000000E+02  0.47000000000E+01 0.  1.
</event>
<event>
 5    1  0.4814700E-001  0.8000000E+02  0.7546771E-02  0.1203772E+00
         11   -1    0    0    0    0  0.00000000000E+00  0.00000000000E+00  0.40000000000E+02  0.40000000000E+02  0.00000000000E+00 0.  1.
        -11   -1    0    0    0    0 -0.00000000000E+00 -0.00000000000E+00 -0.40000000000E+02  0.40000000000E+02  0.00000000000E+00 0. -1.
         23    2    1    2    0    0  0.00000000000E+00  0.00000000000E+00  0.00000000000E+00  0.80000000000E+02  0.80000000000E+02 0.  0.
          5    1    3    3  501    0 -0.25706159389E+01  0.16402956456E+02 -0.36086631225E+02  0.40000000000E+02  0.47000000000E+01 0. -1.
         -5    1    3    3    0  501  0.25706159389E+01 -0.16402956456E+02  0.36086631225E+02  0.40000000000E+02  0.47000000000E+01 0.  1.
</event>
<event>
 5    1  0.4814700E-001  0.8000000E+02  0.7546771E-02  0.1203772E+00
         11   -1    0    0    0    0  0.00000000000E+00  0.00000000000E+00  0.40000000000E+02  0.40000000000E+02  0.00000000000E+00 0. -1.
        -11   -1    0    0    0    0 -0.00000000000E+00 -0.00000000000E+00 -0.40000000000E+02  0.40000000000E+02  0.00000000000E+00 0.  1.
         23    2    1    2    0    0  0.00000000000E+00  0.00000000000E+00  0.00000000000E+00  0.80000000000E+02  0.80000000000E+02 0.  0.
          5    1    3    3  501    0  0.24452912889E+02  0.25153449221E+02  0.18635156118E+02  0.40000000000E+02  0.47000000000E+01 0. -1.
         -5    1    3    3    0  501 -0.24452912889E+02 -0.25153449221E+02 -0.18635156118E+02  0.40000000000E+02  0.47000000000E+01 0.  1.
</event>
<event>
 5    1  0.4814700E-001  0.8000000E+02  0.7546771E-02  0.1203772E+00
         11   -1    0    0    0    0  0.00000000000E+00  0.00000000000E+00  0.40000000000E+02  0.40000000000E+02  0.00000000000E+00 0. -1.
        -11   -1    0    0    0    0 -0.00000000000E+00 -0.00000000000E+00 -0.40000000000E+02  0.40000000000E+02  0.00000000000E+00 0.  1.
         23    2    1    2    0    0  0.00000000000E+00  0.00000000000E+00  0.00000000000E+00  0.80000000000E+02  0.80000000000E+02 0.  0.
          5    1    3    3  501    0 -0.32464029699E+02 -0.66560327511E+01  0.21901917809E+02  0.40000000000E+02  0.47000000000E+01 0. -1.
         -5    1    3    3    0  501  0.32464029699E+02  0.66560327511E+01 -0.21901917809E+02  0.40000000000E+02  0.47000000000E+01 0.  1.
</event>
<event>
 5    1  0.4814700E-001  0.8000000E+02  0.7546771E-02  0.1203772E+00
         11   -1    0    0    0    0  0.00000000000E+00  0.00000000000E+00  0.40000000000E+02  0.40000000000E+02  0.00000000000E+00 0. -1.
        -11   -1    0    0    0    0 -0.00000000000E+00 -0.00000000000E+00 -0.40000000000E+02  0.40000000000E+02  0.00000000000E+00 0.  1.
         23    2    1    2    0    0  0.00000000000E+00  0.00000000000E+00  0.00000000000E+00  0.80000000000E+02  0.80000000000E+02 0.  0.
          5    1    3    3  501    0  0.69012122277E+01 -0.66993335983E+01  0.38540915909E+02  0.40000000000E+02  0.47000000000E+01 0. -1.
         -5    1    3    3    0  501 -0.69012122277E+01  0.66993335983E+01 -0.38540915909E+02  0.40000000000E+02  0.47000000000E+01 0.  1.
</event>
<event>
 5    1  0.4814700E-001  0.8000000E+02  0.7546771E-02  0.1203772E+00
         11   -1    0    0    0    0  0.00000000000E+00  0.00000000000E+00  0.40000000000E+02  0.40000000000E+02  0.00000000000E+00 0. -1.
        -11   -1    0    0    0    0 -0.00000000000E+00 -0.00000000000E+00 -0.40000000000E+02  0.40000000000E+02  0.00000000000E+00 0.  1.
         23    2    1    2    0    0  0.00000000000E+00  0.00000000000E+00  0.00000000000E+00  0.80000000000E+02  0.80000000000E+02 0.  0.
          5    1    3    3  501    0 -0.31580203581E+02 -0.69259283393E+01  0.23078827059E+02  0.40000000000E+02  0.47000000000E+01 0. -1.
         -5    1    3    3    0  501  0.31580203581E+02  0.69259283393E+01 -0.23078827059E+02  0.40000000000E+02  0.47000000000E+01 0.  1.
</event>
<event>
 5    1  0.4814700E-001  0.8000000E+02  0.7546771E-02  0.1203772E+00
         11   -1    0    0    0    0  0.00000000000E+00  0.00000000000E+00  0.40000000000E+02  0.40000000000E+02  0.00000000000E+00 0. -1.
        -11   -1    0    0    0    0 -0.00000000000E+00 -0.00000000000E+00 -0.40000000000E+02  0.40000000000E+02  0.00000000000E+00 0.  1.
         23    2    1    2    0    0  0.00000000000E+00  0.00000000000E+00  0.00000000000E+00  0.80000000000E+02  0.80000000000E+02 0.  0.
          5    1    3    3  501    0  0.14774067573E+02  0.11149902696E+02  0.35147070962E+02  0.40000000000E+02  0.47000000000E+01 0. -1.
         -5    1    3    3    0  501 -0.14774067573E+02 -0.11149902696E+02 -0.35147070962E+02  0.40000000000E+02  0.47000000000E+01 0.  1.
</event>
<event>
 5    1  0.4814700E-001  0.8000000E+02  0.7546771E-02  0.1203772E+00
         11   -1    0    0    0    0  0.00000000000E+00  0.00000000000E+00  0.40000000000E+02  0.40000000000E+02  0.00000000000E+00 0. -1.
        -11   -1    0    0    0    0 -0.00000000000E+00 -0.00000000000E+00 -0.40000000000E+02  0.40000000000E+02  0.00000000000E+00 0.  1.
         23    2    1    2    0    0  0.00000000000E+00  0.00000000000E+00  0.00000000000E+00  0.80000000000E+02  0.80000000000E+02 0.  0.
          5    1    3    3  501    0  0.25702492248E+02 -0.72470369549E+01  0.29407011878E+02  0.40000000000E+02  0.47000000000E+01 0. -1.
         -5    1    3    3    0  501 -0.25702492248E+02  0.72470369549E+01 -0.29407011878E+02  0.40000000000E+02  0.47000000000E+01 0.  1.
</event>
<event>
 5    1  0.4814700E-001  0.8000000E+02  0.7546771E-02  0.1203772E+00
         11   -1    0    0    0    0  0.00000000000E+00  0.00000000000E+00  0.40000000000E+02  0.40000000000E+02  0.00000000000E+00 0.  1.
        -11   -1    0    0    0    0 -0.00000000000E+00 -0.00000000000E+00 -0.40000000000E+02  0.40000000000E+02  0.00000000000E+00 0. -1.
         23    2    1    2    0    0  0.00000000000E+00  0.00000000000E+00  0.00000000000E+00  0.80000000000E+02  0.80000000000E+02 0.  0.
          5    1    3    3  501    0  0.29312512253E+02 -0.68057161659E+01 -0.25930076222E+02  0.40000000000E+02  0.47000000000E+01 0. -1.
         -5    1    3    3    0  501 -0.29312512253E+02  0.68057161659E+01  0.25930076222E+02  0.40000000000E+02  0.47000000000E+01 0.  1.
</event>
<event>
 5    1  0.4814700E-001  0.8000000E+02  0.7546771E-02  0.1203772E+00
         11   -1    0    0    0    0  0.00000000000E+00  0.00000000000E+00  0.40000000000E+02  0.40000000000E+02  0.00000000000E+00 0. -1.
        -11   -1    0    0    0    0 -0.00000000000E+00 -0.00000000000E+00 -0.40000000000E+02  0.40000000000E+02  0.00000000000E+00 0.  1.
         23    2    1    2    0    0  0.00000000000E+00  0.00000000000E+00  0.00000000000E+00  0.80000000000E+02  0.80000000000E+02 0.  0.
          5    1    3    3  501    0 -0.17109082797E+02 -0.24998627092E+02  0.25695484610E+02  0.40000000000E+02  0.47000000000E+01 0. -1.
         -5    1    3    3    0  501  0.17109082797E+02  0.24998627092E+02 -0.25695484610E+02  0.40000000000E+02  0.47000000000E+01 0.  1.
</event>
<event>
 5    1  0.4814700E-001  0.8000000E+02  0.7546771E-02  0.1203772E+00
         11   -1    0    0    0    0  0.00000000000E+00  0.00000000000E+00  0.40000000000E+02  0.40000000000E+02  0.00000000000E+00 0.  1.
        -11   -1    0    0    0    0 -0.00000000000E+00 -0.00000000000E+00 -0.40000000000E+02  0.40000000000E+02  0.00000000000E+00 0. -1.
         23    2    1    2    0    0  0.00000000000E+00  0.00000000000E+00  0.00000000000E+00  0.80000000000E+02  0.80000000000E+02 0.  0.
          5    1    3    3  501    0 -0.21190410587E+02  0.71702493797E+01 -0.32824747112E+02  0.40000000000E+02  0.47000000000E+01 0. -1.
         -5    1    3    3    0  501  0.21190410587E+02 -0.71702493797E+01  0.32824747112E+02  0.40000000000E+02  0.47000000000E+01 0.  1.
</event>
<event>
 5    1  0.4814700E-001  0.8000000E+02  0.7546771E-02  0.1203772E+00
         11   -1    0    0    0    0  0.00000000000E+00  0.00000000000E+00  0.40000000000E+02  0.40000000000E+02  0.00000000000E+00 0.  1.
        -11   -1    0    0    0    0 -0.00000000000E+00 -0.00000000000E+00 -0.40000000000E+02  0.40000000000E+02  0.00000000000E+00 0. -1.
         23    2    1    2    0    0  0.00000000000E+00  0.00000000000E+00  0.00000000000E+00  0.80000000000E+02  0.80000000000E+02 0.  0.
          5    1    3    3  501    0 -0.33816158231E+02 -0.13954878851E+02  0.15480271275E+02  0.40000000000E+02  0.47000000000E+01 0. -1.
         -5    1    3    3    0  501  0.33816158231E+02  0.13954878851E+02 -0.15480271275E+02  0.40000000000E+02  0.47000000000E+01 0.  1.
</event>
<event>
 5    1  0.4814700E-001  0.8000000E+02  0.7546771E-02  0.1203772E+00
         11   -1    0    0    0    0  0.00000000000E+00  0.00000000000E+00  0.40000000000E+02  0.40000000000E+02  0.00000000000E+00 0. -1.
        -11   -1    0    0    0    0 -0.00000000000E+00 -0.00000000000E+00 -0.40000000000E+02  0.40000000000E+02  0.00000000000E+00 0.  1.
         23    2    1    2    0    0  0.00000000000E+00  0.00000000000E+00  0.00000000000E+00  0.80000000000E+02  0.80000000000E+02 0.  0.
          5    1    3    3  501    0  0.15588963514E+02  0.41730020610E+01  0.36297111047E+02  0.40000000000E+02  0.47000000000E+01 0. -1.
         -5    1    3    3    0  501 -0.15588963514E+02 -0.41730020610E+01 -0.36297111047E+02  0.40000000000E+02  0.47000000000E+01 0.  1.
</event>
<event>
 5    1  0.4814700E-001  0.8000000E+02  0.7546771E-02  0.1203772E+00
         11   -1    0    0    0    0  0.00000000000E+00  0.00000000000E+00  0.40000000000E+02  0.40000000000E+02  0.00000000000E+00 0. -1.
        -11   -1    0    0    0    0 -0.00000000000E+00 -0.00000000000E+00 -0.40000000000E+02  0.40000000000E+02  0.00000000000E+00 0.  1.
         23    2    1    2    0    0  0.00000000000E+00  0.00000000000E+00  0.00000000000E+00  0.80000000000E+02  0.80000000000E+02 0.  0.
          5    1    3    3  501    0  0.12961338284E+02 -0.28114784609E+02  0.24889206421E+02  0.40000000000E+02  0.47000000000E+01 0. -1.
         -5    1    3    3    0  501 -0.12961338284E+02  0.28114784609E+02 -0.24889206421E+02  0.40000000000E+02  0.47000000000E+01 0.  1.
</event>
<event>
 5    1  0.4814700E-001  0.8000000E+02  0.7546771E-02  0.1203772E+00
         11   -1    0    0    0    0  0.00000000000E+00  0.00000000000E+00  0.40000000000E+02  0.40000000000E+02  0.00000000000E+00 0.  1.
        -11   -1    0    0    0    0 -0.00000000000E+00 -0.00000000000E+00 -0.40000000000E+02  0.40000000000E+02  0.00000000000E+00 0. -1.
         23    2    1    2    0    0  0.00000000000E+00  0.00000000000E+00  0.00000000000E+00  0.80000000000E+02  0.80000000000E+02 0.  0.
          5    1    3    3  501    0  0.19816208640E+01  0.53162897337E+01 -0.39315648821E+02  0.40000000000E+02  0.47000000000E+01 0. -1.
         -5    1    3    3    0  501 -0.19816208640E+01 -0.53162897337E+01  0.39315648821E+02  0.40000000000E+02  0.47000000000E+01 0.  1.
</event>
<event>
 5    1  0.4814700E-001  0.8000000E+02  0.7546771E-02  0.1203772E+00
         11   -1    0    0    0    0  0.00000000000E+00  0.00000000000E+00  0.40000000000E+02  0.40000000000E+02  0.00000000000E+00 0.  1.
        -11   -1    0    0    0    0 -0.00000000000E+00 -0.00000000000E+00 -0.40000000000E+02  0.40000000000E+02  0.00000000000E+00 0. -1.
         23    2    1    2    0    0  0.00000000000E+00  0.00000000000E+00  0.00000000000E+00  0.80000000000E+02  0.80000000000E+02 0.  0.
          5    1    3    3  501    0  0.33800807860E+02 -0.14672895028E+02 -0.14836493504E+02  0.40000000000E+02  0.47000000000E+01 0. -1.
         -5    1    3    3    0  501 -0.33800807860E+02  0.14672895028E+02  0.14836493504E+02  0.40000000000E+02  0.47000000000E+01 0.  1.
</event>
<event>
 5    1  0.4814700E-001  0.8000000E+02  0.7546771E-02  0.1203772E+00
         11   -1    0    0    0    0  0.00000000000E+00  0.00000000000E+00  0.40000000000E+02  0.40000000000E+02  0.00000000000E+00 0.  1.
        -11   -1    0    0    0    0 -0.00000000000E+00 -0.00000000000E+00 -0.40000000000E+02  0.40000000000E+02  0.00000000000E+00 0. -1.
         23    2    1    2    0    0  0.00000000000E+00  0.00000000000E+00  0.00000000000E+00  0.80000000000E+02  0.80000000000E+02 0.  0.
          5    1    3    3  501    0  0.49147634669E+01  0.22535458291E+00 -0.39417056148E+02  0.40000000000E+02  0.47000000000E+01 0. -1.
         -5    1    3    3    0  501 -0.49147634669E+01 -0.22535458291E+00  0.39417056148E+02  0.40000000000E+02  0.47000000000E+01 0.  1.
</event>
<event>
 5    1  0.4814700E-001  0.8000000E+02  0.7546771E-02  0.1203772E+00
         11   -1    0    0    0    0  0.00000000000E+00  0.00000000000E+00  0.40000000000E+02  0.40000000000E+02  0.00000000000E+00 0. -1.
        -11   -1    0    0    0    0 -0.00000000000E+00 -0.00000000000E+00 -0.40000000000E+02  0.40000000000E+02  0.00000000000E+00 0.  1.
         23    2    1    2    0    0  0.00000000000E+00  0.00000000000E+00  0.00000000000E+00  0.80000000000E+02  0.80000000000E+02 0.  0.
          5    1    3    3  501    0 -0.48863685279E+01 -0.10613522839E+01  0.39406940175E+02  0.40000000000E+02  0.47000000000E+01 0. -1.
         -5    1    3    3    0  501  0.48863685279E+01  0.10613522839E+01 -0.39406940175E+02  0.40000000000E+02  0.47000000000E+01 0.  1.
</event>
<event>
 5    1  0.4814700E-001  0.8000000E+02  0.7546771E-02  0.1203772E+00
         11   -1    0    0    0    0  0.00000000000E+00  0.00000000000E+00  0.40000000000E+02  0.40000000000E+02  0.00000000000E+00 0.  1.
        -11   -1    0    0    0    0 -0.00000000000E+00 -0.00000000000E+00 -0.40000000000E+02  0.40000000000E+02  0.00000000000E+00 0. -1.
         23    2    1    2    0    0  0.00000000000E+00  0.00000000000E+00  0.00000000000E+00  0.80000000000E+02  0.80000000000E+02 0.  0.
          5    1    3    3  501    0 -0.68603479135E+01 -0.11412973253E+02 -0.37424452809E+02  0.40000000000E+02  0.47000000000E+01 0. -1.
         -5    1    3    3    0  501  0.68603479135E+01  0.11412973253E+02  0.37424452809E+02  0.40000000000E+02  0.47000000000E+01 0.  1.
</event>
<event>
 5    1  0.4814700E-001  0.8000000E+02  0.7546771E-02  0.1203772E+00
         11   -1    0    0    0    0  0.00000000000E+00  0.00000000000E+00  0.40000000000E+02  0.40000000000E+02  0.00000000000E+00 0.  1.
        -11   -1    0    0    0    0 -0.00000000000E+00 -0.00000000000E+00 -0.40000000000E+02  0.40000000000E+02  0.00000000000E+00 0. -1.
         23    2    1    2    0    0  0.00000000000E+00  0.00000000000E+00  0.00000000000E+00  0.80000000000E+02  0.80000000000E+02 0.  0.
          5    1    3    3  501    0  0.11652663988E+02  0.34290678999E+02 -0.16317927435E+02  0.40000000000E+02  0.47000000000E+01 0. -1.
         -5    1    3    3    0  501 -0.11652663988E+02 -0.34290678999E+02  0.16317927435E+02  0.40000000000E+02  0.47000000000E+01 0.  1.
</event>
<event>
 5    1  0.4814700E-001  0.8000000E+02  0.7546771E-02  0.1203772E+00
         11   -1    0    0    0    0  0.00000000000E+00  0.00000000000E+00  0.40000000000E+02  0.40000000000E+02  0.00000000000E+00 0.  1.
        -11   -1    0    0    0    0 -0.00000000000E+00 -0.00000000000E+00 -0.40000000000E+02  0.40000000000E+02  0.00000000000E+00 0. -1.
         23    2    1    2    0    0  0.00000000000E+00  0.00000000000E+00  0.00000000000E+00  0.80000000000E+02  0.80000000000E+02 0.  0.
          5    1    3    3  501    0  0.27163734737E+02  0.11972232894E+02 -0.26395210829E+02  0.40000000000E+02  0.47000000000E+01 0. -1.
         -5    1    3    3    0  501 -0.27163734737E+02 -0.11972232894E+02  0.26395210829E+02  0.40000000000E+02  0.47000000000E+01 0.  1.
</event>
<event>
 5    1  0.4814700E-001  0.8000000E+02  0.7546771E-02  0.1203772E+00
         11   -1    0    0    0    0  0.00000000000E+00  0.00000000000E+00  0.40000000000E+02  0.40000000000E+02  0.00000000000E+00 0.  1.
        -11   -1    0    0    0    0 -0.00000000000E+00 -0.00000000000E+00 -0.40000000000E+02  0.40000000000E+02  0.00000000000E+00 0. -1.
         23    2    1    2    0    0  0.00000000000E+00  0.00000000000E+00  0.00000000000E+00  0.80000000000E+02  0.80000000000E+02 0.  0.
          5    1    3    3  501    0 -0.11927015570E+02  0.31683755373E+02 -0.20779700311E+02  0.40000000000E+02  0.47000000000E+01 0. -1.
         -5    1    3    3    0  501  0.11927015570E+02 -0.31683755373E+02  0.20779700311E+02  0.40000000000E+02  0.47000000000E+01 0.  1.
</event>
<event>
 5    1  0.4814700E-001  0.8000000E+02  0.7546771E-02  0.1203772E+00
         11   -1    0    0    0    0  0.00000000000E+00  0.00000000000E+00  0.40000000000E+02  0.40000000000E+02  0.00000000000E+00 0. -1.
        -11   -1    0    0    0    0 -0.00000000000E+00 -0.00000000000E+00 -0.40000000000E+02  0.40000000000E+02  0.00000000000E+00 0.  1.
         23    2    1    2    0    0  0.00000000000E+00  0.00000000000E+00  0.00000000000E+00  0.80000000000E+02  0.80000000000E+02 0.  0.
          5    1    3    3  501    0 -0.24749962914E+02  0.53164876320E+01 -0.30611832598E+02  0.40000000000E+02  0.47000000000E+01 0. -1.
         -5    1    3    3    0  501  0.24749962914E+02 -0.53164876320E+01  0.30611832598E+02  0.40000000000E+02  0.47000000000E+01 0.  1.
</event>
<event>
 5    1  0.4814700E-001  0.8000000E+02  0.7546771E-02  0.1203772E+00
         11   -1    0    0    0    0  0.00000000000E+00  0.00000000000E+00  0.40000000000E+02  0.40000000000E+02  0.00000000000E+00 0.  1.
        -11   -1    0    0    0    0 -0.00000000000E+00 -0.00000000000E+00 -0.40000000000E+02  0.40000000000E+02  0.00000000000E+00 0. -1.
         23    2    1    2    0    0  0.00000000000E+00  0.00000000000E+00  0.00000000000E+00  0.80000000000E+02  0.80000000000E+02 0.  0.
          5    1    3    3  501    0 -0.31343595945E+02  0.23749824614E+02  0.56066767362E+01  0.40000000000E+02  0.47000000000E+01 0. -1.
         -5    1    3    3    0  501  0.31343595945E+02 -0.23749824614E+02 -0.56066767362E+01  0.40000000000E+02  0.47000000000E+01 0.  1.
</event>
<event>
 5    1  0.4814700E-001  0.8000000E+02  0.7546771E-02  0.1203772E+00
         11   -1    0    0    0    0  0.00000000000E+00  0.00000000000E+00  0.40000000000E+02  0.40000000000E+02  0.00000000000E+00 0.  1.
        -11   -1    0    0    0    0 -0.00000000000E+00 -0.00000000000E+00 -0.40000000000E+02  0.40000000000E+02  0.00000000000E+00 0. -1.
         23    2    1    2    0    0  0.00000000000E+00  0.00000000000E+00  0.00000000000E+00  0.80000000000E+02  0.80000000000E+02 0.  0.
          5    1    3    3  501    0  0.38630209306E+01  0.88625797837E+01 -0.38528453757E+02  0.40000000000E+02  0.47000000000E+01 0. -1.
         -5    1    3    3    0  501 -0.38630209306E+01 -0.88625797837E+01  0.38528453757E+02  0.40000000000E+02  0.47000000000E+01 0.  1.
</event>
<event>
 5    1  0.4814700E-001  0.8000000E+02  0.7546771E-02  0.1203772E+00
         11   -1    0    0    0    0  0.00000000000E+00  0.00000000000E+00  0.40000000000E+02  0.40000000000E+02  0.00000000000E+00 0. -1.
        -11   -1    0    0    0    0 -0.00000000000E+00 -0.00000000000E+00 -0.40000000000E+02  0.40000000000E+02  0.00000000000E+00 0.  1.
         23    2    1    2    0    0  0.00000000000E+00  0.00000000000E+00  0.00000000000E+00  0.80000000000E+02  0.80000000000E+02 0.  0.
          5    1    3    3  501    0  0.44091900234E+01 -0.21974295227E+02 -0.32796331999E+02  0.40000000000E+02  0.47000000000E+01 0.  1.
         -5    1    3    3    0  501 -0.44091900234E+01  0.21974295227E+02  0.32796331999E+02  0.40000000000E+02  0.47000000000E+01 0. -1.
</event>
<event>
 5    1  0.4814700E-001  0.8000000E+02  0.7546771E-02  0.1203772E+00
         11   -1    0    0    0    0  0.00000000000E+00  0.00000000000E+00  0.40000000000E+02  0.40000000000E+02  0.00000000000E+00 0. -1.
        -11   -1    0    0    0    0 -0.00000000000E+00 -0.00000000000E+00 -0.40000000000E+02  0.40000000000E+02  0.00000000000E+00 0.  1.
         23    2    1    2    0    0  0.00000000000E+00  0.00000000000E+00  0.00000000000E+00  0.80000000000E+02  0.80000000000E+02 0.  0.
          5    1    3    3  501    0  0.16762408250E+02 -0.25852574791E+02  0.25071418914E+02  0.40000000000E+02  0.47000000000E+01 0. -1.
         -5    1    3    3    0  501 -0.16762408250E+02  0.25852574791E+02 -0.25071418914E+02  0.40000000000E+02  0.47000000000E+01 0.  1.
</event>
<event>
 5    1  0.4814700E-001  0.8000000E+02  0.7546771E-02  0.1203772E+00
         11   -1    0    0    0    0  0.00000000000E+00  0.00000000000E+00  0.40000000000E+02  0.40000000000E+02  0.00000000000E+00 0. -1.
        -11   -1    0    0    0    0 -0.00000000000E+00 -0.00000000000E+00 -0.40000000000E+02  0.40000000000E+02  0.00000000000E+00 0.  1.
         23    2    1    2    0    0  0.00000000000E+00  0.00000000000E+00  0.00000000000E+00  0.80000000000E+02  0.80000000000E+02 0.  0.
          5    1    3    3  501    0 -0.49822999110E+01 -0.55365553210E+01  0.39018370581E+02  0.40000000000E+02  0.47000000000E+01 0. -1.
         -5    1    3    3    0  501  0.49822999110E+01  0.55365553210E+01 -0.39018370581E+02  0.40000000000E+02  0.47000000000E+01 0.  1.
</event>
<event>
 5    1  0.4814700E-001  0.8000000E+02  0.7546771E-02  0.1203772E+00
         11   -1    0    0    0    0  0.00000000000E+00  0.00000000000E+00  0.40000000000E+02  0.40000000000E+02  0.00000000000E+00 0. -1.
        -11   -1    0    0    0    0 -0.00000000000E+00 -0.00000000000E+00 -0.40000000000E+02  0.40000000000E+02  0.00000000000E+00 0.  1.
         23    2    1    2    0    0  0.00000000000E+00  0.00000000000E+00  0.00000000000E+00  0.80000000000E+02  0.80000000000E+02 0.  0.
          5    1    3    3  501    0 -0.22862650619E+02 -0.61863134386E+01 -0.31889476833E+02  0.40000000000E+02  0.47000000000E+01 0.  1.
         -5    1    3    3    0  501  0.22862650619E+02  0.61863134386E+01  0.31889476833E+02  0.40000000000E+02  0.47000000000E+01 0. -1.
</event>
<event>
 5    1  0.4814700E-001  0.8000000E+02  0.7546771E-02  0.1203772E+00
         11   -1    0    0    0    0  0.00000000000E+00  0.00000000000E+00  0.40000000000E+02  0.40000000000E+02  0.00000000000E+00 0.  1.
        -11   -1    0    0    0    0 -0.00000000000E+00 -0.00000000000E+00 -0.40000000000E+02  0.40000000000E+02  0.00000000000E+00 0. -1.
         23    2    1    2    0    0  0.00000000000E+00  0.00000000000E+00  0.00000000000E+00  0.80000000000E+02  0.80000000000E+02 0.  0.
          5    1    3    3  501    0  0.42548663194E+01  0.26361554897E+02 -0.29408749311E+02  0.40000000000E+02  0.47000000000E+01 0. -1.
         -5    1    3    3    0  501 -0.42548663194E+01 -0.26361554897E+02  0.29408749311E+02  0.40000000000E+02  0.47000000000E+01 0.  1.
</event>
<event>
 5    1  0.4814700E-001  0.8000000E+02  0.7546771E-02  0.1203772E+00
         11   -1    0    0    0    0  0.00000000000E+00  0.00000000000E+00  0.40000000000E+02  0.40000000000E+02  0.00000000000E+00 0.  1.
        -11   -1    0    0    0    0 -0.00000000000E+00 -0.00000000000E+00 -0.40000000000E+02  0.40000000000E+02  0.00000000000E+00 0. -1.
         23    2    1    2    0    0  0.00000000000E+00  0.00000000000E+00  0.00000000000E+00  0.80000000000E+02  0.80000000000E+02 0.  0.
          5    1    3    3  501    0  0.26366229615E+02 -0.12924799932E+02 -0.26752223882E+02  0.40000000000E+02  0.47000000000E+01 0. -1.
         -5    1    3    3    0  501 -0.26366229615E+02  0.12924799932E+02  0.26752223882E+02  0.40000000000E+02  0.47000000000E+01 0.  1.
</event>
<event>
 5    1  0.4814700E-001  0.8000000E+02  0.7546771E-02  0.1203772E+00
         11   -1    0    0    0    0  0.00000000000E+00  0.00000000000E+00  0.40000000000E+02  0.40000000000E+02  0.00000000000E+00 0. -1.
        -11   -1    0    0    0    0 -0.00000000000E+00 -0.00000000000E+00 -0.40000000000E+02  0.40000000000E+02  0.00000000000E+00 0.  1.
         23    2    1    2    0    0  0.00000000000E+00  0.00000000000E+00  0.00000000000E+00  0.80000000000E+02  0.80000000000E+02 0.  0.
          5    1    3    3  501    0  0.37550208870E+02  0.22626603556E+01  0.12758220172E+02  0.40000000000E+02  0.47000000000E+01 0. -1.
         -5    1    3    3    0  501 -0.37550208870E+02 -0.22626603556E+01 -0.12758220172E+02  0.40000000000E+02  0.47000000000E+01 0.  1.
</event>
<event>
 5    1  0.4814700E-001  0.8000000E+02  0.7546771E-02  0.1203772E+00
         11   -1    0    0    0    0  0.00000000000E+00  0.00000000000E+00  0.40000000000E+02  0.40000000000E+02  0.00000000000E+00 0.  1.
        -11   -1    0    0    0    0 -0.00000000000E+00 -0.00000000000E+00 -0.40000000000E+02  0.40000000000E+02  0.00000000000E+00 0. -1.
         23    2    1    2    0    0  0.00000000000E+00  0.00000000000E+00  0.00000000000E+00  0.80000000000E+02  0.80000000000E+02 0.  0.
          5    1    3    3  501    0  0.36443983845E+02 -0.46394413230E+01 -0.15107005849E+02  0.40000000000E+02  0.47000000000E+01 0. -1.
         -5    1    3    3    0  501 -0.36443983845E+02  0.46394413230E+01  0.15107005849E+02  0.40000000000E+02  0.47000000000E+01 0.  1.
</event>
<event>
 5    1  0.4814700E-001  0.8000000E+02  0.7546771E-02  0.1203772E+00
         11   -1    0    0    0    0  0.00000000000E+00  0.00000000000E+00  0.40000000000E+02  0.40000000000E+02  0.00000000000E+00 0.  1.
        -11   -1    0    0    0    0 -0.00000000000E+00 -0.00000000000E+00 -0.40000000000E+02  0.40000000000E+02  0.00000000000E+00 0. -1.
         23    2    1    2    0    0  0.00000000000E+00  0.00000000000E+00  0.00000000000E+00  0.80000000000E+02  0.80000000000E+02 0.  0.
          5    1    3    3  501    0 -0.32009167651E+01 -0.12939001221E+01 -0.39572590948E+02  0.40000000000E+02  0.47000000000E+01 0. -1.
         -5    1    3    3    0  501  0.32009167651E+01  0.12939001221E+01  0.39572590948E+02  0.40000000000E+02  0.47000000000E+01 0.  1.
</event>
<event>
 5    1  0.4814700E-001  0.8000000E+02  0.7546771E-02  0.1203772E+00
         11   -1    0    0    0    0  0.00000000000E+00  0.00000000000E+00  0.40000000000E+02  0.40000000000E+02  0.00000000000E+00 0. -1.
        -11   -1    0    0    0    0 -0.00000000000E+00 -0.00000000000E+00 -0.40000000000E+02  0.40000000000E+02  0.00000000000E+00 0.  1.
         23    2    1    2    0    0  0.00000000000E+00  0.00000000000E+00  0.00000000000E+00  0.80000000000E+02  0.80000000000E+02 0.  0.
          5    1    3    3  501    0 -0.17766441182E+02 -0.28134960493E+02  0.21695335116E+02  0.40000000000E+02  0.47000000000E+01 0. -1.
         -5    1    3    3    0  501  0.17766441182E+02  0.28134960493E+02 -0.21695335116E+02  0.40000000000E+02  0.47000000000E+01 0.  1.
</event>
<event>
 5    1  0.4814700E-001  0.8000000E+02  0.7546771E-02  0.1203772E+00
         11   -1    0    0    0    0  0.00000000000E+00  0.00000000000E+00  0.40000000000E+02  0.40000000000E+02  0.00000000000E+00 0.  1.
        -11   -1    0    0    0    0 -0.00000000000E+00 -0.00000000000E+00 -0.40000000000E+02  0.40000000000E+02  0.00000000000E+00 0. -1.
         23    2    1    2    0    0  0.00000000000E+00  0.00000000000E+00  0.00000000000E+00  0.80000000000E+02  0.80000000000E+02 0.  0.
          5    1    3    3  501    0 -0.22033194613E+02  0.32035314832E+02 -0.81355355532E+01  0.40000000000E+02  0.47000000000E+01 0. -1.
         -5    1    3    3    0  501  0.22033194613E+02 -0.32035314832E+02  0.81355355532E+01  0.40000000000E+02  0.47000000000E+01 0.  1.
</event>
<event>
 5    1  0.4814700E-001  0.8000000E+02  0.7546771E-02  0.1203772E+00
         11   -1    0    0    0    0  0.00000000000E+00  0.00000000000E+00  0.40000000000E+02  0.40000000000E+02  0.00000000000E+00 0. -1.
        -11   -1    0    0    0    0 -0.00000000000E+00 -0.00000000000E+00 -0.40000000000E+02  0.40000000000E+02  0.00000000000E+00 0.  1.
         23    2    1    2    0    0  0.00000000000E+00  0.00000000000E+00  0.00000000000E+00  0.80000000000E+02  0.80000000000E+02 0.  0.
          5    1    3    3  501    0  0.35580213178E+02  0.86564709745E+01  0.15395581850E+02  0.40000000000E+02  0.47000000000E+01 0. -1.
         -5    1    3    3    0  501 -0.35580213178E+02 -0.86564709745E+01 -0.15395581850E+02  0.40000000000E+02  0.47000000000E+01 0.  1.
</event>
<event>
 5    1  0.4814700E-001  0.8000000E+02  0.7546771E-02  0.1203772E+00
         11   -1    0    0    0    0  0.00000000000E+00  0.00000000000E+00  0.40000000000E+02  0.40000000000E+02  0.00000000000E+00 0. -1.
        -11   -1    0    0    0    0 -0.00000000000E+00 -0.00000000000E+00 -0.40000000000E+02  0.40000000000E+02  0.00000000000E+00 0.  1.
         23    2    1    2    0    0  0.00000000000E+00  0.00000000000E+00  0.00000000000E+00  0.80000000000E+02  0.80000000000E+02 0.  0.
          5    1    3    3  501    0  0.73882063659E+01 -0.10108662221E+02  0.37698002000E+02  0.40000000000E+02  0.47000000000E+01 0. -1.
         -5    1    3    3    0  501 -0.73882063659E+01  0.10108662221E+02 -0.37698002000E+02  0.40000000000E+02  0.47000000000E+01 0.  1.
</event>
<event>
 5    1  0.4814700E-001  0.8000000E+02  0.7546771E-02  0.1203772E+00
         11   -1    0    0    0    0  0.00000000000E+00  0.00000000000E+00  0.40000000000E+02  0.40000000000E+02  0.00000000000E+00 0. -1.
        -11   -1    0    0    0    0 -0.00000000000E+00 -0.00000000000E+00 -0.40000000000E+02  0.40000000000E+02  0.00000000000E+00 0.  1.
         23    2    1    2    0    0  0.00000000000E+00  0.00000000000E+00  0.00000000000E+00  0.80000000000E+02  0.80000000000E+02 0.  0.
          5    1    3    3  501    0 -0.37619937158E+02 -0.67945754131E+01  0.10792778752E+02  0.40000000000E+02  0.47000000000E+01 0. -1.
         -5    1    3    3    0  501  0.37619937158E+02  0.67945754131E+01 -0.10792778752E+02  0.40000000000E+02  0.47000000000E+01 0.  1.
</event>
<event>
 5    1  0.4814700E-001  0.8000000E+02  0.7546771E-02  0.1203772E+00
         11   -1    0    0    0    0  0.00000000000E+00  0.00000000000E+00  0.40000000000E+02  0.40000000000E+02  0.00000000000E+00 0.  1.
        -11   -1    0    0    0    0 -0.00000000000E+00 -0.00000000000E+00 -0.40000000000E+02  0.40000000000E+02  0.00000000000E+00 0. -1.
         23    2    1    2    0    0  0.00000000000E+00  0.00000000000E+00  0.00000000000E+00  0.80000000000E+02  0.80000000000E+02 0.  0.
          5    1    3    3  501    0 -0.28817559507E+02 -0.25095372620E+02  0.10848066054E+02  0.40000000000E+02  0.47000000000E+01 0. -1.
         -5    1    3    3    0  501  0.28817559507E+02  0.25095372620E+02 -0.10848066054E+02  0.40000000000E+02  0.47000000000E+01 0.  1.
</event>
<event>
 5    1  0.4814700E-001  0.8000000E+02  0.7546771E-02  0.1203772E+00
         11   -1    0    0    0    0  0.00000000000E+00  0.00000000000E+00  0.40000000000E+02  0.40000000000E+02  0.00000000000E+00 0. -1.
        -11   -1    0    0    0    0 -0.00000000000E+00 -0.00000000000E+00 -0.40000000000E+02  0.40000000000E+02  0.00000000000E+00 0.  1.
         23    2    1    2    0    0  0.00000000000E+00  0.00000000000E+00  0.00000000000E+00  0.80000000000E+02  0.80000000000E+02 0.  0.
          5    1    3    3  501    0  0.13544140651E+02  0.24877930933E+02  0.27848784650E+02  0.40000000000E+02  0.47000000000E+01 0. -1.
         -5    1    3    3    0  501 -0.13544140651E+02 -0.24877930933E+02 -0.27848784650E+02  0.40000000000E+02  0.47000000000E+01 0.  1.
</event>
<event>
 5    1  0.4814700E-001  0.8000000E+02  0.7546771E-02  0.1203772E+00
         11   -1    0    0    0    0  0.00000000000E+00  0.00000000000E+00  0.40000000000E+02  0.40000000000E+02  0.00000000000E+00 0.  1.
        -11   -1    0    0    0    0 -0.00000000000E+00 -0.00000000000E+00 -0.40000000000E+02  0.40000000000E+02  0.00000000000E+00 0. -1.
         23    2    1    2    0    0  0.00000000000E+00  0.00000000000E+00  0.00000000000E+00  0.80000000000E+02  0.80000000000E+02 0.  0.
          5    1    3    3  501    0  0.20505036755E+02  0.32051939688E+02 -0.11407305989E+02  0.40000000000E+02  0.47000000000E+01 0. -1.
         -5    1    3    3    0  501 -0.20505036755E+02 -0.32051939688E+02  0.11407305989E+02  0.40000000000E+02  0.47000000000E+01 0.  1.
</event>
<event>
 5    1  0.4814700E-001  0.8000000E+02  0.7546771E-02  0.1203772E+00
         11   -1    0    0    0    0  0.00000000000E+00  0.00000000000E+00  0.40000000000E+02  0.40000000000E+02  0.00000000000E+00 0. -1.
        -11   -1    0    0    0    0 -0.00000000000E+00 -0.00000000000E+00 -0.40000000000E+02  0.40000000000E+02  0.00000000000E+00 0.  1.
         23    2    1    2    0    0  0.00000000000E+00  0.00000000000E+00  0.00000000000E+00  0.80000000000E+02  0.80000000000E+02 0.  0.
          5    1    3    3  501    0  0.19319092060E+01  0.30671132748E+02  0.25168618214E+02  0.40000000000E+02  0.47000000000E+01 0. -1.
         -5    1    3    3    0  501 -0.19319092060E+01 -0.30671132748E+02 -0.25168618214E+02  0.40000000000E+02  0.47000000000E+01 0.  1.
</event>
<event>
 5    1  0.4814700E-001  0.8000000E+02  0.7546771E-02  0.1203772E+00
         11   -1    0    0    0    0  0.00000000000E+00  0.00000000000E+00  0.40000000000E+02  0.40000000000E+02  0.00000000000E+00 0. -1.
        -11   -1    0    0    0    0 -0.00000000000E+00 -0.00000000000E+00 -0.40000000000E+02  0.40000000000E+02  0.00000000000E+00 0.  1.
         23    2    1    2    0    0  0.00000000000E+00  0.00000000000E+00  0.00000000000E+00  0.80000000000E+02  0.80000000000E+02 0.  0.
          5    1    3    3  501    0  0.24792101131E+02 -0.24922777084E+02 -0.18496402459E+02  0.40000000000E+02  0.47000000000E+01 0. -1.
         -5    1    3    3    0  501 -0.24792101131E+02  0.24922777084E+02  0.18496402459E+02  0.40000000000E+02  0.47000000000E+01 0.  1.
</event>
<event>
 5    1  0.4814700E-001  0.8000000E+02  0.7546771E-02  0.1203772E+00
         11   -1    0    0    0    0  0.00000000000E+00  0.00000000000E+00  0.40000000000E+02  0.40000000000E+02  0.00000000000E+00 0. -1.
        -11   -1    0    0    0    0 -0.00000000000E+00 -0.00000000000E+00 -0.40000000000E+02  0.40000000000E+02  0.00000000000E+00 0.  1.
         23    2    1    2    0    0  0.00000000000E+00  0.00000000000E+00  0.00000000000E+00  0.80000000000E+02  0.80000000000E+02 0.  0.
          5    1    3    3  501    0 -0.12749959761E+02  0.16377046392E+02  0.33869468221E+02  0.40000000000E+02  0.47000000000E+01 0. -1.
         -5    1    3    3    0  501  0.12749959761E+02 -0.16377046392E+02 -0.33869468221E+02  0.40000000000E+02  0.47000000000E+01 0.  1.
</event>
<event>
 5    1  0.4814700E-001  0.8000000E+02  0.7546771E-02  0.1203772E+00
         11   -1    0    0    0    0  0.00000000000E+00  0.00000000000E+00  0.40000000000E+02  0.40000000000E+02  0.00000000000E+00 0.  1.
        -11   -1    0    0    0    0 -0.00000000000E+00 -0.00000000000E+00 -0.40000000000E+02  0.40000000000E+02  0.00000000000E+00 0. -1.
         23    2    1    2    0    0  0.00000000000E+00  0.00000000000E+00  0.00000000000E+00  0.80000000000E+02  0.80000000000E+02 0.  0.
          5    1    3    3  501    0 -0.28219032469E+02  0.39516091480E+00 -0.27954249308E+02  0.40000000000E+02  0.47000000000E+01 0. -1.
         -5    1    3    3    0  501  0.28219032469E+02 -0.39516091480E+00  0.27954249308E+02  0.40000000000E+02  0.47000000000E+01 0.  1.
</event>
<event>
 5    1  0.4814700E-001  0.8000000E+02  0.7546771E-02  0.1203772E+00
         11   -1    0    0    0    0  0.00000000000E+00  0.00000000000E+00  0.40000000000E+02  0.40000000000E+02  0.00000000000E+00 0.  1.
        -11   -1    0    0    0    0 -0.00000000000E+00 -0.00000000000E+00 -0.40000000000E+02  0.40000000000E+02  0.00000000000E+00 0. -1.
         23    2    1    2    0    0  0.00000000000E+00  0.00000000000E+00  0.00000000000E+00  0.80000000000E+02  0.80000000000E+02 0.  0.
          5    1    3    3  501    0 -0.35166849409E+02 -0.84936487137E+01 -0.16403067828E+02  0.40000000000E+02  0.47000000000E+01 0. -1.
         -5    1    3    3    0  501  0.35166849409E+02  0.84936487137E+01  0.16403067828E+02  0.40000000000E+02  0.47000000000E+01 0.  1.
</event>
<event>
 5    1  0.4814700E-001  0.8000000E+02  0.7546771E-02  0.1203772E+00
         11   -1    0    0    0    0  0.00000000000E+00  0.00000000000E+00  0.40000000000E+02  0.40000000000E+02  0.00000000000E+00 0.  1.
        -11   -1    0    0    0    0 -0.00000000000E+00 -0.00000000000E+00 -0.40000000000E+02  0.40000000000E+02  0.00000000000E+00 0. -1.
         23    2    1    2    0    0  0.00000000000E+00  0.00000000000E+00  0.00000000000E+00  0.80000000000E+02  0.80000000000E+02 0.  0.
          5    1    3    3  501    0  0.17838701155E+02  0.35469763181E+02 -0.12596193850E+01  0.40000000000E+02  0.47000000000E+01 0. -1.
         -5    1    3    3    0  501 -0.17838701155E+02 -0.35469763181E+02  0.12596193850E+01  0.40000000000E+02  0.47000000000E+01 0.  1.
</event>
<event>
 5    1  0.4814700E-001  0.8000000E+02  0.7546771E-02  0.1203772E+00
         11   -1    0    0    0    0  0.00000000000E+00  0.00000000000E+00  0.40000000000E+02  0.40000000000E+02  0.00000000000E+00 0. -1.
        -11   -1    0    0    0    0 -0.00000000000E+00 -0.00000000000E+00 -0.40000000000E+02  0.40000000000E+02  0.00000000000E+00 0.  1.
         23    2    1    2    0    0  0.00000000000E+00  0.00000000000E+00  0.00000000000E+00  0.80000000000E+02  0.80000000000E+02 0.  0.
          5    1    3    3  501    0  0.27593651661E+02  0.18422166364E+02  0.21843172261E+02  0.40000000000E+02  0.47000000000E+01 0. -1.
         -5    1    3    3    0  501 -0.27593651661E+02 -0.18422166364E+02 -0.21843172261E+02  0.40000000000E+02  0.47000000000E+01 0.  1.
</event>
<event>
 5    1  0.4814700E-001  0.8000000E+02  0.7546771E-02  0.1203772E+00
         11   -1    0    0    0    0  0.00000000000E+00  0.00000000000E+00  0.40000000000E+02  0.40000000000E+02  0.00000000000E+00 0. -1.
        -11   -1    0    0    0    0 -0.00000000000E+00 -0.00000000000E+00 -0.40000000000E+02  0.40000000000E+02  0.00000000000E+00 0.  1.
         23    2    1    2    0    0  0.00000000000E+00  0.00000000000E+00  0.00000000000E+00  0.80000000000E+02  0.80000000000E+02 0.  0.
          5    1    3    3  501    0  0.11893203434E+00  0.25184048561E+02  0.30719042193E+02  0.40000000000E+02  0.47000000000E+01 0. -1.
         -5    1    3    3    0  501 -0.11893203434E+00 -0.25184048561E+02 -0.30719042193E+02  0.40000000000E+02  0.47000000000E+01 0.  1.
</event>
<event>
 5    1  0.4814700E-001  0.8000000E+02  0.7546771E-02  0.1203772E+00
         11   -1    0    0    0    0  0.00000000000E+00  0.00000000000E+00  0.40000000000E+02  0.40000000000E+02  0.00000000000E+00 0.  1.
        -11   -1    0    0    0    0 -0.00000000000E+00 -0.00000000000E+00 -0.40000000000E+02  0.40000000000E+02  0.00000000000E+00 0. -1.
         23    2    1    2    0    0  0.00000000000E+00  0.00000000000E+00  0.00000000000E+00  0.80000000000E+02  0.80000000000E+02 0.  0.
          5    1    3    3  501    0 -0.30806373151E+02  0.16719660909E+02 -0.18690380210E+02  0.40000000000E+02  0.47000000000E+01 0. -1.
         -5    1    3    3    0  501  0.30806373151E+02 -0.16719660909E+02  0.18690380210E+02  0.40000000000E+02  0.47000000000E+01 0.  1.
</event>
<event>
 5    1  0.4814700E-001  0.8000000E+02  0.7546771E-02  0.1203772E+00
         11   -1    0    0    0    0  0.00000000000E+00  0.00000000000E+00  0.40000000000E+02  0.40000000000E+02  0.00000000000E+00 0.  1.
        -11   -1    0    0    0    0 -0.00000000000E+00 -0.00000000000E+00 -0.40000000000E+02  0.40000000000E+02  0.00000000000E+00 0. -1.
         23    2    1    2    0    0  0.00000000000E+00  0.00000000000E+00  0.00000000000E+00  0.80000000000E+02  0.80000000000E+02 0.  0.
          5    1    3    3  501    0 -0.43181037494E+01  0.16473397259E+02 -0.35887200542E+02  0.40000000000E+02  0.47000000000E+01 0. -1.
         -5    1    3    3    0  501  0.43181037494E+01 -0.16473397259E+02  0.35887200542E+02  0.40000000000E+02  0.47000000000E+01 0.  1.
</event>
<event>
 5    1  0.4814700E-001  0.8000000E+02  0.7546771E-02  0.1203772E+00
         11   -1    0    0    0    0  0.00000000000E+00  0.00000000000E+00  0.40000000000E+02  0.40000000000E+02  0.00000000000E+00 0.  1.
        -11   -1    0    0    0    0 -0.00000000000E+00 -0.00000000000E+00 -0.40000000000E+02  0.40000000000E+02  0.00000000000E+00 0. -1.
         23    2    1    2    0    0  0.00000000000E+00  0.00000000000E+00  0.00000000000E+00  0.80000000000E+02  0.80000000000E+02 0.  0.
          5    1    3    3  501    0 -0.27967870372E+02 -0.53567890030E+01 -0.27695000242E+02  0.40000000000E+02  0.47000000000E+01 0. -1.
         -5    1    3    3    0  501  0.27967870372E+02  0.53567890030E+01  0.27695000242E+02  0.40000000000E+02  0.47000000000E+01 0.  1.
</event>
<event>
 5    1  0.4814700E-001  0.8000000E+02  0.7546771E-02  0.1203772E+00
         11   -1    0    0    0    0  0.00000000000E+00  0.00000000000E+00  0.40000000000E+02  0.40000000000E+02  0.00000000000E+00 0. -1.
        -11   -1    0    0    0    0 -0.00000000000E+00 -0.00000000000E+00 -0.40000000000E+02  0.40000000000E+02  0.00000000000E+00 0.  1.
         23    2    1    2    0    0  0.00000000000E+00  0.00000000000E+00  0.00000000000E+00  0.80000000000E+02  0.80000000000E+02 0.  0.
          5    1    3    3  501    0  0.26492333236E+02  0.12489508558E+02  0.26834277626E+02  0.40000000000E+02  0.47000000000E+01 0. -1.
         -5    1    3    3    0  501 -0.26492333236E+02 -0.12489508558E+02 -0.26834277626E+02  0.40000000000E+02  0.47000000000E+01 0.  1.
</event>
<event>
 5    1  0.4814700E-001  0.8000000E+02  0.7546771E-02  0.1203772E+00
         11   -1    0    0    0    0  0.00000000000E+00  0.00000000000E+00  0.40000000000E+02  0.40000000000E+02  0.00000000000E+00 0.  1.
        -11   -1    0    0    0    0 -0.00000000000E+00 -0.00000000000E+00 -0.40000000000E+02  0.40000000000E+02  0.00000000000E+00 0. -1.
         23    2    1    2    0    0  0.00000000000E+00  0.00000000000E+00  0.00000000000E+00  0.80000000000E+02  0.80000000000E+02 0.  0.
          5    1    3    3  501    0  0.17298998669E+02  0.20085921521E+02 -0.29583955140E+02  0.40000000000E+02  0.47000000000E+01 0. -1.
         -5    1    3    3    0  501 -0.17298998669E+02 -0.20085921521E+02  0.29583955140E+02  0.40000000000E+02  0.47000000000E+01 0.  1.
</event>
<event>
 5    1  0.4814700E-001  0.8000000E+02  0.7546771E-02  0.1203772E+00
         11   -1    0    0    0    0  0.00000000000E+00  0.00000000000E+00  0.40000000000E+02  0.40000000000E+02  0.00000000000E+00 0. -1.
        -11   -1    0    0    0    0 -0.00000000000E+00 -0.00000000000E+00 -0.40000000000E+02  0.40000000000E+02  0.00000000000E+00 0.  1.
         23    2    1    2    0    0  0.00000000000E+00  0.00000000000E+00  0.00000000000E+00  0.80000000000E+02  0.80000000000E+02 0.  0.
          5    1    3    3  501    0  0.26224935090E+02  0.42428117613E+01  0.29532377620E+02  0.40000000000E+02  0.47000000000E+01 0. -1.
         -5    1    3    3    0  501 -0.26224935090E+02 -0.42428117613E+01 -0.29532377620E+02  0.40000000000E+02  0.47000000000E+01 0.  1.
</event>
<event>
 5    1  0.4814700E-001  0.8000000E+02  0.7546771E-02  0.1203772E+00
         11   -1    0    0    0    0  0.00000000000E+00  0.00000000000E+00  0.40000000000E+02  0.40000000000E+02  0.00000000000E+00 0.  1.
        -11   -1    0    0    0    0 -0.00000000000E+00 -0.00000000000E+00 -0.40000000000E+02  0.40000000000E+02  0.00000000000E+00 0. -1.
         23    2    1    2    0    0  0.00000000000E+00  0.00000000000E+00  0.00000000000E+00  0.80000000000E+02  0.80000000000E+02 0.  0.
          5    1    3    3  501    0 -0.18890601399E+02  0.28041705301E+02 -0.20849890710E+02  0.40000000000E+02  0.47000000000E+01 0. -1.
         -5    1    3    3    0  501  0.18890601399E+02 -0.28041705301E+02  0.20849890710E+02  0.40000000000E+02  0.47000000000E+01 0.  1.
</event>
<event>
 5    1  0.4814700E-001  0.8000000E+02  0.7546771E-02  0.1203772E+00
         11   -1    0    0    0    0  0.00000000000E+00  0.00000000000E+00  0.40000000000E+02  0.40000000000E+02  0.00000000000E+00 0. -1.
        -11   -1    0    0    0    0 -0.00000000000E+00 -0.00000000000E+00 -0.40000000000E+02  0.40000000000E+02  0.00000000000E+00 0.  1.
         23    2    1    2    0    0  0.00000000000E+00  0.00000000000E+00  0.00000000000E+00  0.80000000000E+02  0.80000000000E+02 0.  0.
          5    1    3    3  501    0  0.98022609509E+01  0.32845680074E+02  0.20074535630E+02  0.40000000000E+02  0.47000000000E+01 0. -1.
         -5    1    3    3    0  501 -0.98022609509E+01 -0.32845680074E+02 -0.20074535630E+02  0.40000000000E+02  0.47000000000E+01 0.  1.
</event>
<event>
 5    1  0.4814700E-001  0.8000000E+02  0.7546771E-02  0.1203772E+00
         11   -1    0    0    0    0  0.00000000000E+00  0.00000000000E+00  0.40000000000E+02  0.40000000000E+02  0.00000000000E+00 0. -1.
        -11   -1    0    0    0    0 -0.00000000000E+00 -0.00000000000E+00 -0.40000000000E+02  0.40000000000E+02  0.00000000000E+00 0.  1.
         23    2    1    2    0    0  0.00000000000E+00  0.00000000000E+00  0.00000000000E+00  0.80000000000E+02  0.80000000000E+02 0.  0.
          5    1    3    3  501    0  0.86353887535E+01 -0.57919422628E+01  0.38337885517E+02  0.40000000000E+02  0.47000000000E+01 0. -1.
         -5    1    3    3    0  501 -0.86353887535E+01  0.57919422628E+01 -0.38337885517E+02  0.40000000000E+02  0.47000000000E+01 0.  1.
</event>
<event>
 5    1  0.4814700E-001  0.8000000E+02  0.7546771E-02  0.1203772E+00
         11   -1    0    0    0    0  0.00000000000E+00  0.00000000000E+00  0.40000000000E+02  0.40000000000E+02  0.00000000000E+00 0.  1.
        -11   -1    0    0    0    0 -0.00000000000E+00 -0.00000000000E+00 -0.40000000000E+02  0.40000000000E+02  0.00000000000E+00 0. -1.
         23    2    1    2    0    0  0.00000000000E+00  0.00000000000E+00  0.00000000000E+00  0.80000000000E+02  0.80000000000E+02 0.  0.
          5    1    3    3  501    0 -0.14466673536E+02  0.17822539842E+02 -0.32418859177E+02  0.40000000000E+02  0.47000000000E+01 0. -1.
         -5    1    3    3    0  501  0.14466673536E+02 -0.17822539842E+02  0.32418859177E+02  0.40000000000E+02  0.47000000000E+01 0.  1.
</event>
<event>
 5    1  0.4814700E-001  0.8000000E+02  0.7546771E-02  0.1203772E+00
         11   -1    0    0    0    0  0.00000000000E+00  0.00000000000E+00  0.40000000000E+02  0.40000000000E+02  0.00000000000E+00 0.  1.
        -11   -1    0    0    0    0 -0.00000000000E+00 -0.00000000000E+00 -0.40000000000E+02  0.40000000000E+02  0.00000000000E+00 0. -1.
         23    2    1    2    0    0  0.00000000000E+00  0.00000000000E+00  0.00000000000E+00  0.80000000000E+02  0.80000000000E+02 0.  0.
          5    1    3    3  501    0 -0.48828951919E+01  0.38879106293E+02 -0.65178545837E+01  0.40000000000E+02  0.47000000000E+01 0. -1.
         -5    1    3    3    0  501  0.48828951919E+01 -0.38879106293E+02  0.65178545837E+01  0.40000000000E+02  0.47000000000E+01 0.  1.
</event>
<event>
 5    1  0.4814700E-001  0.8000000E+02  0.7546771E-02  0.1203772E+00
         11   -1    0    0    0    0  0.00000000000E+00  0.00000000000E+00  0.40000000000E+02  0.40000000000E+02  0.00000000000E+00 0. -1.
        -11   -1    0    0    0    0 -0.00000000000E+00 -0.00000000000E+00 -0.40000000000E+02  0.40000000000E+02  0.00000000000E+00 0.  1.
         23    2    1    2    0    0  0.00000000000E+00  0.00000000000E+00  0.00000000000E+00  0.80000000000E+02  0.80000000000E+02 0.  0.
          5    1    3    3  501    0 -0.17430148821E+02  0.19300409119E+02  0.30026556911E+02  0.40000000000E+02  0.47000000000E+01 0. -1.
         -5    1    3    3    0  501  0.17430148821E+02 -0.19300409119E+02 -0.30026556911E+02  0.40000000000E+02  0.47000000000E+01 0.  1.
</event>
<event>
 5    1  0.4814700E-001  0.8000000E+02  0.7546771E-02  0.1203772E+00
         11   -1    0    0    0    0  0.00000000000E+00  0.00000000000E+00  0.40000000000E+02  0.40000000000E+02  0.00000000000E+00 0. -1.
        -11   -1    0    0    0    0 -0.00000000000E+00 -0.00000000000E+00 -0.40000000000E+02  0.40000000000E+02  0.00000000000E+00 0.  1.
         23    2    1    2    0    0  0.00000000000E+00  0.00000000000E+00  0.00000000000E+00  0.80000000000E+02  0.80000000000E+02 0.  0.
          5    1    3    3  501    0  0.56610846622E+01 -0.34875830647E+02  0.18153196885E+02  0.40000000000E+02  0.47000000000E+01 0. -1.
         -5    1    3    3    0  501 -0.56610846622E+01  0.34875830647E+02 -0.18153196885E+02  0.40000000000E+02  0.47000000000E+01 0.  1.
</event>
<event>
 5    1  0.4814700E-001  0.8000000E+02  0.7546771E-02  0.1203772E+00
         11   -1    0    0    0    0  0.00000000000E+00  0.00000000000E+00  0.40000000000E+02  0.40000000000E+02  0.00000000000E+00 0. -1.
        -11   -1    0    0    0    0 -0.00000000000E+00 -0.00000000000E+00 -0.40000000000E+02  0.40000000000E+02  0.00000000000E+00 0.  1.
         23    2    1    2    0    0  0.00000000000E+00  0.00000000000E+00  0.00000000000E+00  0.80000000000E+02  0.80000000000E+02 0.  0.
          5    1    3    3  501    0 -0.35404454302E+02  0.17600427292E+02  0.38287824076E+01  0.40000000000E+02  0.47000000000E+01 0. -1.
         -5    1    3    3    0  501  0.35404454302E+02 -0.17600427292E+02 -0.38287824076E+01  0.40000000000E+02  0.47000000000E+01 0.  1.
</event>
<event>
 5    1  0.4814700E-001  0.8000000E+02  0.7546771E-02  0.1203772E+00
         11   -1    0    0    0    0  0.00000000000E+00  0.00000000000E+00  0.40000000000E+02  0.40000000000E+02  0.00000000000E+00 0.  1.
        -11   -1    0    0    0    0 -0.00000000000E+00 -0.00000000000E+00 -0.40000000000E+02  0.40000000000E+02  0.00000000000E+00 0. -1.
         23    2    1    2    0    0  0.00000000000E+00  0.00000000000E+00  0.00000000000E+00  0.80000000000E+02  0.80000000000E+02 0.  0.
          5    1    3    3  501    0 -0.32603519164E+02  0.14291005114E+02 -0.17626335722E+02  0.40000000000E+02  0.47000000000E+01 0. -1.
         -5    1    3    3    0  501  0.32603519164E+02 -0.14291005114E+02  0.17626335722E+02  0.40000000000E+02  0.47000000000E+01 0.  1.
</event>
<event>
 5    1  0.4814700E-001  0.8000000E+02  0.7546771E-02  0.1203772E+00
         11   -1    0    0    0    0  0.00000000000E+00  0.00000000000E+00  0.40000000000E+02  0.40000000000E+02  0.00000000000E+00 0.  1.
        -11   -1    0    0    0    0 -0.00000000000E+00 -0.00000000000E+00 -0.40000000000E+02  0.40000000000E+02  0.00000000000E+00 0. -1.
         23    2    1    2    0    0  0.00000000000E+00  0.00000000000E+00  0.00000000000E+00  0.80000000000E+02  0.80000000000E+02 0.  0.
          5    1    3    3  501    0 -0.33760990903E+02  0.39686155005E+01 -0.20551291548E+02  0.40000000000E+02  0.47000000000E+01 0. -1.
         -5    1    3    3    0  501  0.33760990903E+02 -0.39686155005E+01  0.20551291548E+02  0.40000000000E+02  0.47000000000E+01 0.  1.
</event>
<event>
 5    1  0.4814700E-001  0.8000000E+02  0.7546771E-02  0.1203772E+00
         11   -1    0    0    0    0  0.00000000000E+00  0.00000000000E+00  0.40000000000E+02  0.40000000000E+02  0.00000000000E+00 0. -1.
        -11   -1    0    0    0    0 -0.00000000000E+00 -0.00000000000E+00 -0.40000000000E+02  0.40000000000E+02  0.00000000000E+00 0.  1.
         23    2    1    2    0    0  0.00000000000E+00  0.00000000000E+00  0.00000000000E+00  0.80000000000E+02  0.80000000000E+02 0.  0.
          5    1    3    3  501    0  0.15624210204E+02  0.29387310928E+02  0.21683634657E+02  0.40000000000E+02  0.47000000000E+01 0. -1.
         -5    1    3    3    0  501 -0.15624210204E+02 -0.29387310928E+02 -0.21683634657E+02  0.40000000000E+02  0.47000000000E+01 0.  1.
</event>
<event>
 5    1  0.4814700E-001  0.8000000E+02  0.7546771E-02  0.1203772E+00
         11   -1    0    0    0    0  0.00000000000E+00  0.00000000000E+00  0.40000000000E+02  0.40000000000E+02  0.00000000000E+00 0. -1.
        -11   -1    0    0    0    0 -0.00000000000E+00 -0.00000000000E+00 -0.40000000000E+02  0.40000000000E+02  0.00000000000E+00 0.  1.
         23    2    1    2    0    0  0.00000000000E+00  0.00000000000E+00  0.00000000000E+00  0.80000000000E+02  0.80000000000E+02 0.  0.
          5    1    3    3  501    0 -0.25073651621E+02  0.28688701821E+02 -0.11233004150E+02  0.40000000000E+02  0.47000000000E+01 0. -1.
         -5    1    3    3    0  501  0.25073651621E+02 -0.28688701821E+02  0.11233004150E+02  0.40000000000E+02  0.47000000000E+01 0.  1.
</event>
<event>
 5    1  0.4814700E-001  0.8000000E+02  0.7546771E-02  0.1203772E+00
         11   -1    0    0    0    0  0.00000000000E+00  0.00000000000E+00  0.40000000000E+02  0.40000000000E+02  0.00000000000E+00 0.  1.
        -11   -1    0    0    0    0 -0.00000000000E+00 -0.00000000000E+00 -0.40000000000E+02  0.40000000000E+02  0.00000000000E+00 0. -1.
         23    2    1    2    0    0  0.00000000000E+00  0.00000000000E+00  0.00000000000E+00  0.80000000000E+02  0.80000000000E+02 0.  0.
          5    1    3    3  501    0 -0.26992955634E+02  0.24999509852E+02 -0.14977144364E+02  0.40000000000E+02  0.47000000000E+01 0. -1.
         -5    1    3    3    0  501  0.26992955634E+02 -0.24999509852E+02  0.14977144364E+02  0.40000000000E+02  0.47000000000E+01 0.  1.
</event>
<event>
 5    1  0.4814700E-001  0.8000000E+02  0.7546771E-02  0.1203772E+00
         11   -1    0    0    0    0  0.00000000000E+00  0.00000000000E+00  0.40000000000E+02  0.40000000000E+02  0.00000000000E+00 0. -1.
        -11   -1    0    0    0    0 -0.00000000000E+00 -0.00000000000E+00 -0.40000000000E+02  0.40000000000E+02  0.00000000000E+00 0.  1.
         23    2    1    2    0    0  0.00000000000E+00  0.00000000000E+00  0.00000000000E+00  0.80000000000E+02  0.80000000000E+02 0.  0.
          5    1    3    3  501    0 -0.10475906057E+02 -0.16591582674E+02  0.34538164060E+02  0.40000000000E+02  0.47000000000E+01 0. -1.
         -5    1    3    3    0  501  0.10475906057E+02  0.16591582674E+02 -0.34538164060E+02  0.40000000000E+02  0.47000000000E+01 0.  1.
</event>
<event>
 5    1  0.4814700E-001  0.8000000E+02  0.7546771E-02  0.1203772E+00
         11   -1    0    0    0    0  0.00000000000E+00  0.00000000000E+00  0.40000000000E+02  0.40000000000E+02  0.00000000000E+00 0.  1.
        -11   -1    0    0    0    0 -0.00000000000E+00 -0.00000000000E+00 -0.40000000000E+02  0.40000000000E+02  0.00000000000E+00 0. -1.
         23    2    1    2    0    0  0.00000000000E+00  0.00000000000E+00  0.00000000000E+00  0.80000000000E+02  0.80000000000E+02 0.  0.
          5    1    3    3  501    0  0.38775138065E+02 -0.72239935092E+00  0.85951618502E+01  0.40000000000E+02  0.47000000000E+01 0. -1.
         -5    1    3    3    0  501 -0.38775138065E+02  0.72239935092E+00 -0.85951618502E+01  0.40000000000E+02  0.47000000000E+01 0.  1.
</event>
<event>
 5    1  0.4814700E-001  0.8000000E+02  0.7546771E-02  0.1203772E+00
         11   -1    0    0    0    0  0.00000000000E+00  0.00000000000E+00  0.40000000000E+02  0.40000000000E+02  0.00000000000E+00 0. -1.
        -11   -1    0    0    0    0 -0.00000000000E+00 -0.00000000000E+00 -0.40000000000E+02  0.40000000000E+02  0.00000000000E+00 0.  1.
         23    2    1    2    0    0  0.00000000000E+00  0.00000000000E+00  0.00000000000E+00  0.80000000000E+02  0.80000000000E+02 0.  0.
          5    1    3    3  501    0 -0.10647032429E+02  0.22479824774E+02 -0.30971086171E+02  0.40000000000E+02  0.47000000000E+01 0.  1.
         -5    1    3    3    0  501  0.10647032429E+02 -0.22479824774E+02  0.30971086171E+02  0.40000000000E+02  0.47000000000E+01 0. -1.
</event>
<event>
 5    1  0.4814700E-001  0.8000000E+02  0.7546771E-02  0.1203772E+00
         11   -1    0    0    0    0  0.00000000000E+00  0.00000000000E+00  0.40000000000E+02  0.40000000000E+02  0.00000000000E+00 0.  1.
        -11   -1    0    0    0    0 -0.00000000000E+00 -0.00000000000E+00 -0.40000000000E+02  0.40000000000E+02  0.00000000000E+00 0. -1.
         23    2    1    2    0    0  0.00000000000E+00  0.00000000000E+00  0.00000000000E+00  0.80000000000E+02  0.80000000000E+02 0.  0.
          5    1    3    3  501    0 -0.22153044109E+02 -0.43207135294E+01 -0.32687674608E+02  0.40000000000E+02  0.47000000000E+01 0. -1.
         -5    1    3    3    0  501  0.22153044109E+02  0.43207135294E+01  0.32687674608E+02  0.40000000000E+02  0.47000000000E+01 0.  1.
</event>
<event>
 5    1  0.4814700E-001  0.8000000E+02  0.7546771E-02  0.1203772E+00
         11   -1    0    0    0    0  0.00000000000E+00  0.00000000000E+00  0.40000000000E+02  0.40000000000E+02  0.00000000000E+00 0.  1.
        -11   -1    0    0    0    0 -0.00000000000E+00 -0.00000000000E+00 -0.40000000000E+02  0.40000000000E+02  0.00000000000E+00 0. -1.
         23    2    1    2    0    0  0.00000000000E+00  0.00000000000E+00  0.00000000000E+00  0.80000000000E+02  0.80000000000E+02 0.  0.
          5    1    3    3  501    0  0.15964801296E+02 -0.33250844429E+02 -0.14745048809E+02  0.40000000000E+02  0.47000000000E+01 0. -1.
         -5    1    3    3    0  501 -0.15964801296E+02  0.33250844429E+02  0.14745048809E+02  0.40000000000E+02  0.47000000000E+01 0.  1.
</event>
<event>
 5    1  0.4814700E-001  0.8000000E+02  0.7546771E-02  0.1203772E+00
         11   -1    0    0    0    0  0.00000000000E+00  0.00000000000E+00  0.40000000000E+02  0.40000000000E+02  0.00000000000E+00 0.  1.
        -11   -1    0    0    0    0 -0.00000000000E+00 -0.00000000000E+00 -0.40000000000E+02  0.40000000000E+02  0.00000000000E+00 0. -1.
         23    2    1    2    0    0  0.00000000000E+00  0.00000000000E+00  0.00000000000E+00  0.80000000000E+02  0.80000000000E+02 0.  0.
          5    1    3    3  501    0 -0.26641961635E+02 -0.30592085842E+00 -0.29462218054E+02  0.40000000000E+02  0.47000000000E+01 0. -1.
         -5    1    3    3    0  501  0.26641961635E+02  0.30592085842E+00  0.29462218054E+02  0.40000000000E+02  0.47000000000E+01 0.  1.
</event>
<event>
 5    1  0.4814700E-001  0.8000000E+02  0.7546771E-02  0.1203772E+00
         11   -1    0    0    0    0  0.00000000000E+00  0.00000000000E+00  0.40000000000E+02  0.40000000000E+02  0.00000000000E+00 0.  1.
        -11   -1    0    0    0    0 -0.00000000000E+00 -0.00000000000E+00 -0.40000000000E+02  0.40000000000E+02  0.00000000000E+00 0. -1.
         23    2    1    2    0    0  0.00000000000E+00  0.00000000000E+00  0.00000000000E+00  0.80000000000E+02  0.80000000000E+02 0.  0.
          5    1    3    3  501    0  0.38505452110E+02 -0.37653857179E+01 -0.90034453519E+01  0.40000000000E+02  0.47000000000E+01 0. -1.
         -5    1    3    3    0  501 -0.38505452110E+02  0.37653857179E+01  0.90034453519E+01  0.40000000000E+02  0.47000000000E+01 0.  1.
</event>
<event>
 5    1  0.4814700E-001  0.8000000E+02  0.7546771E-02  0.1203772E+00
         11   -1    0    0    0    0  0.00000000000E+00  0.00000000000E+00  0.40000000000E+02  0.40000000000E+02  0.00000000000E+00 0. -1.
        -11   -1    0    0    0    0 -0.00000000000E+00 -0.00000000000E+00 -0.40000000000E+02  0.40000000000E+02  0.00000000000E+00 0.  1.
         23    2    1    2    0    0  0.00000000000E+00  0.00000000000E+00  0.00000000000E+00  0.80000000000E+02  0.80000000000E+02 0.  0.
          5    1    3    3  501    0  0.26014049880E+02  0.86908712422E+01  0.28734090657E+02  0.40000000000E+02  0.47000000000E+01 0. -1.
         -5    1    3    3    0  501 -0.26014049880E+02 -0.86908712422E+01 -0.28734090657E+02  0.40000000000E+02  0.47000000000E+01 0.  1.
</event>
<event>
 5    1  0.4814700E-001  0.8000000E+02  0.7546771E-02  0.1203772E+00
         11   -1    0    0    0    0  0.00000000000E+00  0.00000000000E+00  0.40000000000E+02  0.40000000000E+02  0.00000000000E+00 0. -1.
        -11   -1    0    0    0    0 -0.00000000000E+00 -0.00000000000E+00 -0.40000000000E+02  0.40000000000E+02  0.00000000000E+00 0.  1.
         23    2    1    2    0    0  0.00000000000E+00  0.00000000000E+00  0.00000000000E+00  0.80000000000E+02  0.80000000000E+02 0.  0.
          5    1    3    3  501    0 -0.16529287969E+02 -0.31805076179E+02 -0.17121032927E+02  0.40000000000E+02  0.47000000000E+01 0. -1.
         -5    1    3    3    0  501  0.16529287969E+02  0.31805076179E+02  0.17121032927E+02  0.40000000000E+02  0.47000000000E+01 0.  1.
</event>
<event>
 5    1  0.4814700E-001  0.8000000E+02  0.7546771E-02  0.1203772E+00
         11   -1    0    0    0    0  0.00000000000E+00  0.00000000000E+00  0.40000000000E+02  0.40000000000E+02  0.00000000000E+00 0.  1.
        -11   -1    0    0    0    0 -0.00000000000E+00 -0.00000000000E+00 -0.40000000000E+02  0.40000000000E+02  0.00000000000E+00 0. -1.
         23    2    1    2    0    0  0.00000000000E+00  0.00000000000E+00  0.00000000000E+00  0.80000000000E+02  0.80000000000E+02 0.  0.
          5    1    3    3  501    0  0.16538044211E+02  0.30366766343E+02  0.19551536911E+02  0.40000000000E+02  0.47000000000E+01 0. -1.
         -5    1    3    3    0  501 -0.16538044211E+02 -0.30366766343E+02 -0.19551536911E+02  0.40000000000E+02  0.47000000000E+01 0.  1.
</event>
<event>
 5    1  0.4814700E-001  0.8000000E+02  0.7546771E-02  0.1203772E+00
         11   -1    0    0    0    0  0.00000000000E+00  0.00000000000E+00  0.40000000000E+02  0.40000000000E+02  0.00000000000E+00 0. -1.
        -11   -1    0    0    0    0 -0.00000000000E+00 -0.00000000000E+00 -0.40000000000E+02  0.40000000000E+02  0.00000000000E+00 0.  1.
         23    2    1    2    0    0  0.00000000000E+00  0.00000000000E+00  0.00000000000E+00  0.80000000000E+02  0.80000000000E+02 0.  0.
          5    1    3    3  501    0 -0.28190061950E+02 -0.18512418009E+02  0.20988587059E+02  0.40000000000E+02  0.47000000000E+01 0. -1.
         -5    1    3    3    0  501  0.28190061950E+02  0.18512418009E+02 -0.20988587059E+02  0.40000000000E+02  0.47000000000E+01 0.  1.
</event>
<event>
 5    1  0.4814700E-001  0.8000000E+02  0.7546771E-02  0.1203772E+00
         11   -1    0    0    0    0  0.00000000000E+00  0.00000000000E+00  0.40000000000E+02  0.40000000000E+02  0.00000000000E+00 0.  1.
        -11   -1    0    0    0    0 -0.00000000000E+00 -0.00000000000E+00 -0.40000000000E+02  0.40000000000E+02  0.00000000000E+00 0. -1.
         23    2    1    2    0    0  0.00000000000E+00  0.00000000000E+00  0.00000000000E+00  0.80000000000E+02  0.80000000000E+02 0.  0.
          5    1    3    3  501    0  0.26135215594E+02  0.86737624869E+01 -0.28629117174E+02  0.40000000000E+02  0.47000000000E+01 0. -1.
         -5    1    3    3    0  501 -0.26135215594E+02 -0.86737624869E+01  0.28629117174E+02  0.40000000000E+02  0.47000000000E+01 0.  1.
</event>
<event>
 5    1  0.4814700E-001  0.8000000E+02  0.7546771E-02  0.1203772E+00
         11   -1    0    0    0    0  0.00000000000E+00  0.00000000000E+00  0.40000000000E+02  0.40000000000E+02  0.00000000000E+00 0.  1.
        -11   -1    0    0    0    0 -0.00000000000E+00 -0.00000000000E+00 -0.40000000000E+02  0.40000000000E+02  0.00000000000E+00 0. -1.
         23    2    1    2    0    0  0.00000000000E+00  0.00000000000E+00  0.00000000000E+00  0.80000000000E+02  0.80000000000E+02 0.  0.
          5    1    3    3  501    0  0.16564476138E+02  0.53767815142E+01  0.35701797585E+02  0.40000000000E+02  0.47000000000E+01 0.  1.
         -5    1    3    3    0  501 -0.16564476138E+02 -0.53767815142E+01 -0.35701797585E+02  0.40000000000E+02  0.47000000000E+01 0. -1.
</event>
<event>
 5    1  0.4814700E-001  0.8000000E+02  0.7546771E-02  0.1203772E+00
         11   -1    0    0    0    0  0.00000000000E+00  0.00000000000E+00  0.40000000000E+02  0.40000000000E+02  0.00000000000E+00 0. -1.
        -11   -1    0    0    0    0 -0.00000000000E+00 -0.00000000000E+00 -0.40000000000E+02  0.40000000000E+02  0.00000000000E+00 0.  1.
         23    2    1    2    0    0  0.00000000000E+00  0.00000000000E+00  0.00000000000E+00  0.80000000000E+02  0.80000000000E+02 0.  0.
          5    1    3    3  501    0 -0.24996109873E+02  0.25965125505E+02  0.16700800842E+02  0.40000000000E+02  0.47000000000E+01 0. -1.
         -5    1    3    3    0  501  0.24996109873E+02 -0.25965125505E+02 -0.16700800842E+02  0.40000000000E+02  0.47000000000E+01 0.  1.
</event>
<event>
 5    1  0.4814700E-001  0.8000000E+02  0.7546771E-02  0.1203772E+00
         11   -1    0    0    0    0  0.00000000000E+00  0.00000000000E+00  0.40000000000E+02  0.40000000000E+02  0.00000000000E+00 0.  1.
        -11   -1    0    0    0    0 -0.00000000000E+00 -0.00000000000E+00 -0.40000000000E+02  0.40000000000E+02  0.00000000000E+00 0. -1.
         23    2    1    2    0    0  0.00000000000E+00  0.00000000000E+00  0.00000000000E+00  0.80000000000E+02  0.80000000000E+02 0.  0.
          5    1    3    3  501    0  0.90180514560E+01 -0.37447847962E+02 -0.97079055892E+01  0.40000000000E+02  0.47000000000E+01 0. -1.
         -5    1    3    3    0  501 -0.90180514560E+01  0.37447847962E+02  0.97079055892E+01  0.40000000000E+02  0.47000000000E+01 0.  1.
</event>
<event>
 5    1  0.4814700E-001  0.8000000E+02  0.7546771E-02  0.1203772E+00
         11   -1    0    0    0    0  0.00000000000E+00  0.00000000000E+00  0.40000000000E+02  0.40000000000E+02  0.00000000000E+00 0. -1.
        -11   -1    0    0    0    0 -0.00000000000E+00 -0.00000000000E+00 -0.40000000000E+02  0.40000000000E+02  0.00000000000E+00 0.  1.
         23    2    1    2    0    0  0.00000000000E+00  0.00000000000E+00  0.00000000000E+00  0.80000000000E+02  0.80000000000E+02 0.  0.
          5    1    3    3  501    0  0.15876545215E+02 -0.27964739502E+01 -0.36304614658E+02  0.40000000000E+02  0.47000000000E+01 0.  1.
         -5    1    3    3    0  501 -0.15876545215E+02  0.27964739502E+01  0.36304614658E+02  0.40000000000E+02  0.47000000000E+01 0. -1.
</event>
<event>
 5    1  0.4814700E-001  0.8000000E+02  0.7546771E-02  0.1203772E+00
         11   -1    0    0    0    0  0.00000000000E+00  0.00000000000E+00  0.40000000000E+02  0.40000000000E+02  0.00000000000E+00 0. -1.
        -11   -1    0    0    0    0 -0.00000000000E+00 -0.00000000000E+00 -0.40000000000E+02  0.40000000000E+02  0.00000000000E+00 0.  1.
         23    2    1    2    0    0  0.00000000000E+00  0.00000000000E+00  0.00000000000E+00  0.80000000000E+02  0.80000000000E+02 0.  0.
          5    1    3    3  501    0 -0.37234430587E+02 -0.13823989615E+02 -0.63599527804E+00  0.40000000000E+02  0.47000000000E+01 0. -1.
         -5    1    3    3    0  501  0.37234430587E+02  0.13823989615E+02  0.63599527804E+00  0.40000000000E+02  0.47000000000E+01 0.  1.
</event>
<event>
 5    1  0.4814700E-001  0.8000000E+02  0.7546771E-02  0.1203772E+00
         11   -1    0    0    0    0  0.00000000000E+00  0.00000000000E+00  0.40000000000E+02  0.40000000000E+02  0.00000000000E+00 0.  1.
        -11   -1    0    0    0    0 -0.00000000000E+00 -0.00000000000E+00 -0.40000000000E+02  0.40000000000E+02  0.00000000000E+00 0. -1.
         23    2    1    2    0    0  0.00000000000E+00  0.00000000000E+00  0.00000000000E+00  0.80000000000E+02  0.80000000000E+02 0.  0.
          5    1    3    3  501    0 -0.73822709764E+01  0.11691903701E+02 -0.37238574933E+02  0.40000000000E+02  0.47000000000E+01 0. -1.
         -5    1    3    3    0  501  0.73822709764E+01 -0.11691903701E+02  0.37238574933E+02  0.40000000000E+02  0.47000000000E+01 0.  1.
</event>
<event>
 5    1  0.4814700E-001  0.8000000E+02  0.7546771E-02  0.1203772E+00
         11   -1    0    0    0    0  0.00000000000E+00  0.00000000000E+00  0.40000000000E+02  0.40000000000E+02  0.00000000000E+00 0.  1.
        -11   -1    0    0    0    0 -0.00000000000E+00 -0.00000000000E+00 -0.40000000000E+02  0.40000000000E+02  0.00000000000E+00 0. -1.
         23    2    1    2    0    0  0.00000000000E+00  0.00000000000E+00  0.00000000000E+00  0.80000000000E+02  0.80000000000E+02 0.  0.
          5    1    3    3  501    0 -0.35909267521E+02 -0.15824760192E+02 -0.61653443537E+01  0.40000000000E+02  0.47000000000E+01 0. -1.
         -5    1    3    3    0  501  0.35909267521E+02  0.15824760192E+02  0.61653443537E+01  0.40000000000E+02  0.47000000000E+01 0.  1.
</event>
<event>
 5    1  0.4814700E-001  0.8000000E+02  0.7546771E-02  0.1203772E+00
         11   -1    0    0    0    0  0.00000000000E+00  0.00000000000E+00  0.40000000000E+02  0.40000000000E+02  0.00000000000E+00 0. -1.
        -11   -1    0    0    0    0 -0.00000000000E+00 -0.00000000000E+00 -0.40000000000E+02  0.40000000000E+02  0.00000000000E+00 0.  1.
         23    2    1    2    0    0  0.00000000000E+00  0.00000000000E+00  0.00000000000E+00  0.80000000000E+02  0.80000000000E+02 0.  0.
          5    1    3    3  501    0 -0.28448331984E+02  0.64433571614E+00 -0.27716190915E+02  0.40000000000E+02  0.47000000000E+01 0.  1.
         -5    1    3    3    0  501  0.28448331984E+02 -0.64433571614E+00  0.27716190915E+02  0.40000000000E+02  0.47000000000E+01 0. -1.
</event>
<event>
 5    1  0.4814700E-001  0.8000000E+02  0.7546771E-02  0.1203772E+00
         11   -1    0    0    0    0  0.00000000000E+00  0.00000000000E+00  0.40000000000E+02  0.40000000000E+02  0.00000000000E+00 0. -1.
        -11   -1    0    0    0    0 -0.00000000000E+00 -0.00000000000E+00 -0.40000000000E+02  0.40000000000E+02  0.00000000000E+00 0.  1.
         23    2    1    2    0    0  0.00000000000E+00  0.00000000000E+00  0.00000000000E+00  0.80000000000E+02  0.80000000000E+02 0.  0.
          5    1    3    3  501    0  0.12060299465E+02 -0.98456007312E+01  0.36544812533E+02  0.40000000000E+02  0.47000000000E+01 0. -1.
         -5    1    3    3    0  501 -0.12060299465E+02  0.98456007312E+01 -0.36544812533E+02  0.40000000000E+02  0.47000000000E+01 0.  1.
</event>
<event>
 5    1  0.4814700E-001  0.8000000E+02  0.7546771E-02  0.1203772E+00
         11   -1    0    0    0    0  0.00000000000E+00  0.00000000000E+00  0.40000000000E+02  0.40000000000E+02  0.00000000000E+00 0.  1.
        -11   -1    0    0    0    0 -0.00000000000E+00 -0.00000000000E+00 -0.40000000000E+02  0.40000000000E+02  0.00000000000E+00 0. -1.
         23    2    1    2    0    0  0.00000000000E+00  0.00000000000E+00  0.00000000000E+00  0.80000000000E+02  0.80000000000E+02 0.  0.
          5    1    3    3  501    0  0.30582304363E+02  0.25016028384E+02 -0.41025582002E+01  0.40000000000E+02  0.47000000000E+01 0. -1.
         -5    1    3    3    0  501 -0.30582304363E+02 -0.25016028384E+02  0.41025582002E+01  0.40000000000E+02  0.47000000000E+01 0.  1.
</event>
<event>
 5    1  0.4814700E-001  0.8000000E+02  0.7546771E-02  0.1203772E+00
         11   -1    0    0    0    0  0.00000000000E+00  0.00000000000E+00  0.40000000000E+02  0.40000000000E+02  0.00000000000E+00 0. -1.
        -11   -1    0    0    0    0 -0.00000000000E+00 -0.00000000000E+00 -0.40000000000E+02  0.40000000000E+02  0.00000000000E+00 0.  1.
         23    2    1    2    0    0  0.00000000000E+00  0.00000000000E+00  0.00000000000E+00  0.80000000000E+02  0.80000000000E+02 0.  0.
          5    1    3    3  501    0 -0.31434088798E+02  0.20118379270E+02  0.13603634696E+02  0.40000000000E+02  0.47000000000E+01 0. -1.
         -5    1    3    3    0  501  0.31434088798E+02 -0.20118379270E+02 -0.13603634696E+02  0.40000000000E+02  0.47000000000E+01 0.  1.
</event>
<event>
 5    1  0.4814700E-001  0.8000000E+02  0.7546771E-02  0.1203772E+00
         11   -1    0    0    0    0  0.00000000000E+00  0.00000000000E+00  0.40000000000E+02  0.40000000000E+02  0.00000000000E+00 0. -1.
        -11   -1    0    0    0    0 -0.00000000000E+00 -0.00000000000E+00 -0.40000000000E+02  0.40000000000E+02  0.00000000000E+00 0.  1.
         23    2    1    2    0    0  0.00000000000E+00  0.00000000000E+00  0.00000000000E+00  0.80000000000E+02  0.80000000000E+02 0.  0.
          5    1    3    3  501    0 -0.12176205053E+02 -0.22705118993E+02  0.30234543192E+02  0.40000000000E+02  0.47000000000E+01 0. -1.
         -5    1    3    3    0  501  0.12176205053E+02  0.22705118993E+02 -0.30234543192E+02  0.40000000000E+02  0.47000000000E+01 0.  1.
</event>
<event>
 5    1  0.4814700E-001  0.8000000E+02  0.7546771E-02  0.1203772E+00
         11   -1    0    0    0    0  0.00000000000E+00  0.00000000000E+00  0.40000000000E+02  0.40000000000E+02  0.00000000000E+00 0.  1.
        -11   -1    0    0    0    0 -0.00000000000E+00 -0.00000000000E+00 -0.40000000000E+02  0.40000000000E+02  0.00000000000E+00 0. -1.
         23    2    1    2    0    0  0.00000000000E+00  0.00000000000E+00  0.00000000000E+00  0.80000000000E+02  0.80000000000E+02 0.  0.
          5    1    3    3  501    0 -0.18155402021E+02 -0.22492160130E+02 -0.27246910102E+02  0.40000000000E+02  0.47000000000E+01 0. -1.
         -5    1    3    3    0  501  0.18155402021E+02  0.22492160130E+02  0.27246910102E+02  0.40000000000E+02  0.47000000000E+01 0.  1.
</event>
<event>
 5    1  0.4814700E-001  0.8000000E+02  0.7546771E-02  0.1203772E+00
         11   -1    0    0    0    0  0.00000000000E+00  0.00000000000E+00  0.40000000000E+02  0.40000000000E+02  0.00000000000E+00 0. -1.
        -11   -1    0    0    0    0 -0.00000000000E+00 -0.00000000000E+00 -0.40000000000E+02  0.40000000000E+02  0.00000000000E+00 0.  1.
         23    2    1    2    0    0  0.00000000000E+00  0.00000000000E+00  0.00000000000E+00  0.80000000000E+02  0.80000000000E+02 0.  0.
          5    1    3    3  501    0 -0.17218821772E+01 -0.65977406478E+01 -0.39133297077E+02  0.40000000000E+02  0.47000000000E+01 0.  1.
         -5    1    3    3    0  501  0.17218821772E+01  0.65977406478E+01  0.39133297077E+02  0.40000000000E+02  0.47000000000E+01 0. -1.
</event>
<event>
 5    1  0.4814700E-001  0.8000000E+02  0.7546771E-02  0.1203772E+00
         11   -1    0    0    0    0  0.00000000000E+00  0.00000000000E+00  0.40000000000E+02  0.40000000000E+02  0.00000000000E+00 0.  1.
        -11   -1    0    0    0    0 -0.00000000000E+00 -0.00000000000E+00 -0.40000000000E+02  0.40000000000E+02  0.00000000000E+00 0. -1.
         23    2    1    2    0    0  0.00000000000E+00  0.00000000000E+00  0.00000000000E+00  0.80000000000E+02  0.80000000000E+02 0.  0.
          5    1    3    3  501    0  0.18276615945E+02 -0.11667206826E+02 -0.33282902435E+02  0.40000000000E+02  0.47000000000E+01 0. -1.
         -5    1    3    3    0  501 -0.18276615945E+02  0.11667206826E+02  0.33282902435E+02  0.40000000000E+02  0.47000000000E+01 0.  1.
</event>
<event>
 5    1  0.4814700E-001  0.8000000E+02  0.7546771E-02  0.1203772E+00
         11   -1    0    0    0    0  0.00000000000E+00  0.00000000000E+00  0.40000000000E+02  0.40000000000E+02  0.00000000000E+00 0. -1.
        -11   -1    0    0    0    0 -0.00000000000E+00 -0.00000000000E+00 -0.40000000000E+02  0.40000000000E+02  0.00000000000E+00 0.  1.
         23    2    1    2    0    0  0.00000000000E+00  0.00000000000E+00  0.00000000000E+00  0.80000000000E+02  0.80000000000E+02 0.  0.
          5    1    3    3  501    0  0.34106817423E+02 -0.17116102654E+02  0.11030595416E+02  0.40000000000E+02  0.47000000000E+01 0. -1.
         -5    1    3    3    0  501 -0.34106817423E+02  0.17116102654E+02 -0.11030595416E+02  0.40000000000E+02  0.47000000000E+01 0.  1.
</event>
<event>
 5    1  0.4814700E-001  0.8000000E+02  0.7546771E-02  0.1203772E+00
         11   -1    0    0    0    0  0.00000000000E+00  0.00000000000E+00  0.40000000000E+02  0.40000000000E+02  0.00000000000E+00 0. -1.
        -11   -1    0    0    0    0 -0.00000000000E+00 -0.00000000000E+00 -0.40000000000E+02  0.40000000000E+02  0.00000000000E+00 0.  1.
         23    2    1    2    0    0  0.00000000000E+00  0.00000000000E+00  0.00000000000E+00  0.80000000000E+02  0.80000000000E+02 0.  0.
          5    1    3    3  501    0  0.89234355660E+01  0.34811524119E+02  0.16924540945E+02  0.40000000000E+02  0.47000000000E+01 0. -1.
         -5    1    3    3    0  501 -0.89234355660E+01 -0.34811524119E+02 -0.16924540945E+02  0.40000000000E+02  0.47000000000E+01 0.  1.
</event>
<event>
 5    1  0.4814700E-001  0.8000000E+02  0.7546771E-02  0.1203772E+00
         11   -1    0    0    0    0  0.00000000000E+00  0.00000000000E+00  0.40000000000E+02  0.40000000000E+02  0.00000000000E+00 0. -1.
        -11   -1    0    0    0    0 -0.00000000000E+00 -0.00000000000E+00 -0.40000000000E+02  0.40000000000E+02  0.00000000000E+00 0.  1.
         23    2    1    2    0    0  0.00000000000E+00  0.00000000000E+00  0.00000000000E+00  0.80000000000E+02  0.80000000000E+02 0.  0.
          5    1    3    3  501    0 -0.30596507429E+02 -0.38197161608E+01  0.25043432305E+02  0.40000000000E+02  0.47000000000E+01 0. -1.
         -5    1    3    3    0  501  0.30596507429E+02  0.38197161608E+01 -0.25043432305E+02  0.40000000000E+02  0.47000000000E+01 0.  1.
</event>
<event>
 5    1  0.4814700E-001  0.8000000E+02  0.7546771E-02  0.1203772E+00
         11   -1    0    0    0    0  0.00000000000E+00  0.00000000000E+00  0.40000000000E+02  0.40000000000E+02  0.00000000000E+00 0.  1.
        -11   -1    0    0    0    0 -0.00000000000E+00 -0.00000000000E+00 -0.40000000000E+02  0.40000000000E+02  0.00000000000E+00 0. -1.
         23    2    1    2    0    0  0.00000000000E+00  0.00000000000E+00  0.00000000000E+00  0.80000000000E+02  0.80000000000E+02 0.  0.
          5    1    3    3  501    0 -0.24302050074E+02  0.19793804963E+02 -0.24403394176E+02  0.40000000000E+02  0.47000000000E+01 0. -1.
         -5    1    3    3    0  501  0.24302050074E+02 -0.19793804963E+02  0.24403394176E+02  0.40000000000E+02  0.47000000000E+01 0.  1.
</event>
<event>
 5    1  0.4814700E-001  0.8000000E+02  0.7546771E-02  0.1203772E+00
         11   -1    0    0    0    0  0.00000000000E+00  0.00000000000E+00  0.40000000000E+02  0.40000000000E+02  0.00000000000E+00 0.  1.
        -11   -1    0    0    0    0 -0.00000000000E+00 -0.00000000000E+00 -0.40000000000E+02  0.40000000000E+02  0.00000000000E+00 0. -1.
         23    2    1    2    0    0  0.00000000000E+00  0.00000000000E+00  0.00000000000E+00  0.80000000000E+02  0.80000000000E+02 0.  0.
          5    1    3    3  501    0  0.35530978337E+02  0.32124881450E+01  0.17468242565E+02  0.40000000000E+02  0.47000000000E+01 0. -1.
         -5    1    3    3    0  501 -0.35530978337E+02 -0.32124881450E+01 -0.17468242565E+02  0.40000000000E+02  0.47000000000E+01 0.  1.
</event>
<event>
 5    1  0.4814700E-001  0.8000000E+02  0.7546771E-02  0.1203772E+00
         11   -1    0    0    0    0  0.00000000000E+00  0.00000000000E+00  0.40000000000E+02  0.40000000000E+02  0.00000000000E+00 0.  1.
        -11   -1    0    0    0    0 -0.00000000000E+00 -0.00000000000E+00 -0.40000000000E+02  0.40000000000E+02  0.00000000000E+00 0. -1.
         23    2    1    2    0    0  0.00000000000E+00  0.00000000000E+00  0.00000000000E+00  0.80000000000E+02  0.80000000000E+02 0.  0.
          5    1    3    3  501    0  0.26821785959E+02 -0.16276377132E+02 -0.24363524897E+02  0.40000000000E+02  0.47000000000E+01 0. -1.
         -5    1    3    3    0  501 -0.26821785959E+02  0.16276377132E+02  0.24363524897E+02  0.40000000000E+02  0.47000000000E+01 0.  1.
</event>
<event>
 5    1  0.4814700E-001  0.8000000E+02  0.7546771E-02  0.1203772E+00
         11   -1    0    0    0    0  0.00000000000E+00  0.00000000000E+00  0.40000000000E+02  0.40000000000E+02  0.00000000000E+00 0.  1.
        -11   -1    0    0    0    0 -0.00000000000E+00 -0.00000000000E+00 -0.40000000000E+02  0.40000000000E+02  0.00000000000E+00 0. -1.
         23    2    1    2    0    0  0.00000000000E+00  0.00000000000E+00  0.00000000000E+00  0.80000000000E+02  0.80000000000E+02 0.  0.
          5    1    3    3  501    0  0.18513246882E+02 -0.28682170227E+02 -0.20310164965E+02  0.40000000000E+02  0.47000000000E+01 0. -1.
         -5    1    3    3    0  501 -0.18513246882E+02  0.28682170227E+02  0.20310164965E+02  0.40000000000E+02  0.47000000000E+01 0.  1.
</event>
<event>
 5    1  0.4814700E-001  0.8000000E+02  0.7546771E-02  0.1203772E+00
         11   -1    0    0    0    0  0.00000000000E+00  0.00000000000E+00  0.40000000000E+02  0.40000000000E+02  0.00000000000E+00 0. -1.
        -11   -1    0    0    0    0 -0.00000000000E+00 -0.00000000000E+00 -0.40000000000E+02  0.40000000000E+02  0.00000000000E+00 0.  1.
         23    2    1    2    0    0  0.00000000000E+00  0.00000000000E+00  0.00000000000E+00  0.80000000000E+02  0.80000000000E+02 0.  0.
          5    1    3    3  501    0  0.53556940300E+01 -0.17794230839E+01  0.39319971960E+02  0.40000000000E+02  0.47000000000E+01 0. -1.
         -5    1    3    3    0  501 -0.53556940300E+01  0.17794230839E+01 -0.39319971960E+02  0.40000000000E+02  0.47000000000E+01 0.  1.
</event>
<event>
 5    1  0.4814700E-001  0.8000000E+02  0.7546771E-02  0.1203772E+00
         11   -1    0    0    0    0  0.00000000000E+00  0.00000000000E+00  0.40000000000E+02  0.40000000000E+02  0.00000000000E+00 0.  1.
        -11   -1    0    0    0    0 -0.00000000000E+00 -0.00000000000E+00 -0.40000000000E+02  0.40000000000E+02  0.00000000000E+00 0. -1.
         23    2    1    2    0    0  0.00000000000E+00  0.00000000000E+00  0.00000000000E+00  0.80000000000E+02  0.80000000000E+02 0.  0.
          5    1    3    3  501    0 -0.16836816508E+02 -0.10562235365E+02 -0.34392888712E+02  0.40000000000E+02  0.47000000000E+01 0. -1.
         -5    1    3    3    0  501  0.16836816508E+02  0.10562235365E+02  0.34392888712E+02  0.40000000000E+02  0.47000000000E+01 0.  1.
</event>
<event>
 5    1  0.4814700E-001  0.8000000E+02  0.7546771E-02  0.1203772E+00
         11   -1    0    0    0    0  0.00000000000E+00  0.00000000000E+00  0.40000000000E+02  0.40000000000E+02  0.00000000000E+00 0.  1.
        -11   -1    0    0    0    0 -0.00000000000E+00 -0.00000000000E+00 -0.40000000000E+02  0.40000000000E+02  0.00000000000E+00 0. -1.
         23    2    1    2    0    0  0.00000000000E+00  0.00000000000E+00  0.00000000000E+00  0.80000000000E+02  0.80000000000E+02 0.  0.
          5    1    3    3  501    0  0.28891464475E+02  0.99475859109E+01 -0.25381859960E+02  0.40000000000E+02  0.47000000000E+01 0. -1.
         -5    1    3    3    0  501 -0.28891464475E+02 -0.99475859109E+01  0.25381859960E+02  0.40000000000E+02  0.47000000000E+01 0.  1.
</event>
<event>
 5    1  0.4814700E-001  0.8000000E+02  0.7546771E-02  0.1203772E+00
         11   -1    0    0    0    0  0.00000000000E+00  0.00000000000E+00  0.40000000000E+02  0.40000000000E+02  0.00000000000E+00 0. -1.
        -11   -1    0    0    0    0 -0.00000000000E+00 -0.00000000000E+00 -0.40000000000E+02  0.40000000000E+02  0.00000000000E+00 0.  1.
         23    2    1    2    0    0  0.00000000000E+00  0.00000000000E+00  0.00000000000E+00  0.80000000000E+02  0.80000000000E+02 0.  0.
          5    1    3    3  501    0 -0.33131418548E+02  0.19177657806E+02  0.10603610050E+02  0.40000000000E+02  0.47000000000E+01 0. -1.
         -5    1    3    3    0  501  0.33131418548E+02 -0.19177657806E+02 -0.10603610050E+02  0.40000000000E+02  0.47000000000E+01 0.  1.
</event>
<event>
 5    1  0.4814700E-001  0.8000000E+02  0.7546771E-02  0.1203772E+00
         11   -1    0    0    0    0  0.00000000000E+00  0.00000000000E+00  0.40000000000E+02  0.40000000000E+02  0.00000000000E+00 0.  1.
        -11   -1    0    0    0    0 -0.00000000000E+00 -0.00000000000E+00 -0.40000000000E+02  0.40000000000E+02  0.00000000000E+00 0. -1.
         23    2    1    2    0    0  0.00000000000E+00  0.00000000000E+00  0.00000000000E+00  0.80000000000E+02  0.80000000000E+02 0.  0.
          5    1    3    3  501    0 -0.17763856569E+01  0.28742070008E+02 -0.27361430256E+02  0.40000000000E+02  0.47000000000E+01 0. -1.
         -5    1    3    3    0  501  0.17763856569E+01 -0.28742070008E+02  0.27361430256E+02  0.40000000000E+02  0.47000000000E+01 0.  1.
</event>
<event>
 5    1  0.4814700E-001  0.8000000E+02  0.7546771E-02  0.1203772E+00
         11   -1    0    0    0    0  0.00000000000E+00  0.00000000000E+00  0.40000000000E+02  0.40000000000E+02  0.00000000000E+00 0. -1.
        -11   -1    0    0    0    0 -0.00000000000E+00 -0.00000000000E+00 -0.40000000000E+02  0.40000000000E+02  0.00000000000E+00 0.  1.
         23    2    1    2    0    0  0.00000000000E+00  0.00000000000E+00  0.00000000000E+00  0.80000000000E+02  0.80000000000E+02 0.  0.
          5    1    3    3  501    0  0.26700068825E+02 -0.28700095504E+02 -0.64281290277E+01  0.40000000000E+02  0.47000000000E+01 0.  1.
         -5    1    3    3    0  501 -0.26700068825E+02  0.28700095504E+02  0.64281290277E+01  0.40000000000E+02  0.47000000000E+01 0. -1.
</event>
<event>
 5    1  0.4814700E-001  0.8000000E+02  0.7546771E-02  0.1203772E+00
         11   -1    0    0    0    0  0.00000000000E+00  0.00000000000E+00  0.40000000000E+02  0.40000000000E+02  0.00000000000E+00 0. -1.
        -11   -1    0    0    0    0 -0.00000000000E+00 -0.00000000000E+00 -0.40000000000E+02  0.40000000000E+02  0.00000000000E+00 0.  1.
         23    2    1    2    0    0  0.00000000000E+00  0.00000000000E+00  0.00000000000E+00  0.80000000000E+02  0.80000000000E+02 0.  0.
          5    1    3    3  501    0 -0.14658511344E+02  0.24387248449E+02  0.27718227906E+02  0.40000000000E+02  0.47000000000E+01 0. -1.
         -5    1    3    3    0  501  0.14658511344E+02 -0.24387248449E+02 -0.27718227906E+02  0.40000000000E+02  0.47000000000E+01 0.  1.
</event>
<event>
 5    1  0.4814700E-001  0.8000000E+02  0.7546771E-02  0.1203772E+00
         11   -1    0    0    0    0  0.00000000000E+00  0.00000000000E+00  0.40000000000E+02  0.40000000000E+02  0.00000000000E+00 0. -1.
        -11   -1    0    0    0    0 -0.00000000000E+00 -0.00000000000E+00 -0.40000000000E+02  0.40000000000E+02  0.00000000000E+00 0.  1.
         23    2    1    2    0    0  0.00000000000E+00  0.00000000000E+00  0.00000000000E+00  0.80000000000E+02  0.80000000000E+02 0.  0.
          5    1    3    3  501    0 -0.98838849045E+01 -0.37829033639E+02 -0.70130616074E+01  0.40000000000E+02  0.47000000000E+01 0. -1.
         -5    1    3    3    0  501  0.98838849045E+01  0.37829033639E+02  0.70130616074E+01  0.40000000000E+02  0.47000000000E+01 0.  1.
</event>
<event>
 5    1  0.4814700E-001  0.8000000E+02  0.7546771E-02  0.1203772E+00
         11   -1    0    0    0    0  0.00000000000E+00  0.00000000000E+00  0.40000000000E+02  0.40000000000E+02  0.00000000000E+00 0. -1.
        -11   -1    0    0    0    0 -0.00000000000E+00 -0.00000000000E+00 -0.40000000000E+02  0.40000000000E+02  0.00000000000E+00 0.  1.
         23    2    1    2    0    0  0.00000000000E+00  0.00000000000E+00  0.00000000000E+00  0.80000000000E+02  0.80000000000E+02 0.  0.
          5    1    3    3  501    0  0.12825088212E+02  0.60514333864E+01  0.37105353607E+02  0.40000000000E+02  0.47000000000E+01 0. -1.
         -5    1    3    3    0  501 -0.12825088212E+02 -0.60514333864E+01 -0.37105353607E+02  0.40000000000E+02  0.47000000000E+01 0.  1.
</event>
<event>
 5    1  0.4814700E-001  0.8000000E+02  0.7546771E-02  0.1203772E+00
         11   -1    0    0    0    0  0.00000000000E+00  0.00000000000E+00  0.40000000000E+02  0.40000000000E+02  0.00000000000E+00 0.  1.
        -11   -1    0    0    0    0 -0.00000000000E+00 -0.00000000000E+00 -0.40000000000E+02  0.40000000000E+02  0.00000000000E+00 0. -1.
         23    2    1    2    0    0  0.00000000000E+00  0.00000000000E+00  0.00000000000E+00  0.80000000000E+02  0.80000000000E+02 0.  0.
          5    1    3    3  501    0 -0.20868157758E+02  0.29676893443E+02 -0.16177514869E+02  0.40000000000E+02  0.47000000000E+01 0. -1.
         -5    1    3    3    0  501  0.20868157758E+02 -0.29676893443E+02  0.16177514869E+02  0.40000000000E+02  0.47000000000E+01 0.  1.
</event>
<event>
 5    1  0.4814700E-001  0.8000000E+02  0.7546771E-02  0.1203772E+00
         11   -1    0    0    0    0  0.00000000000E+00  0.00000000000E+00  0.40000000000E+02  0.40000000000E+02  0.00000000000E+00 0. -1.
        -11   -1    0    0    0    0 -0.00000000000E+00 -0.00000000000E+00 -0.40000000000E+02  0.40000000000E+02  0.00000000000E+00 0.  1.
         23    2    1    2    0    0  0.00000000000E+00  0.00000000000E+00  0.00000000000E+00  0.80000000000E+02  0.80000000000E+02 0.  0.
          5    1    3    3  501    0 -0.27493171633E+02 -0.43367970063E+01  0.28341272118E+02  0.40000000000E+02  0.47000000000E+01 0. -1.
         -5    1    3    3    0  501  0.27493171633E+02  0.43367970063E+01 -0.28341272118E+02  0.40000000000E+02  0.47000000000E+01 0.  1.
</event>
<event>
 5    1  0.4814700E-001  0.8000000E+02  0.7546771E-02  0.1203772E+00
         11   -1    0    0    0    0  0.00000000000E+00  0.00000000000E+00  0.40000000000E+02  0.40000000000E+02  0.00000000000E+00 0.  1.
        -11   -1    0    0    0    0 -0.00000000000E+00 -0.00000000000E+00 -0.40000000000E+02  0.40000000000E+02  0.00000000000E+00 0. -1.
         23    2    1    2    0    0  0.00000000000E+00  0.00000000000E+00  0.00000000000E+00  0.80000000000E+02  0.80000000000E+02 0.  0.
          5    1    3    3  501    0  0.34049170191E+02 -0.60634132804E+01 -0.19539678316E+02  0.40000000000E+02  0.47000000000E+01 0. -1.
         -5    1    3    3    0  501 -0.34049170191E+02  0.60634132804E+01  0.19539678316E+02  0.40000000000E+02  0.47000000000E+01 0.  1.
</event>
<event>
 5    1  0.4814700E-001  0.8000000E+02  0.7546771E-02  0.1203772E+00
         11   -1    0    0    0    0  0.00000000000E+00  0.00000000000E+00  0.40000000000E+02  0.40000000000E+02  0.00000000000E+00 0.  1.
        -11   -1    0    0    0    0 -0.00000000000E+00 -0.00000000000E+00 -0.40000000000E+02  0.40000000000E+02  0.00000000000E+00 0. -1.
         23    2    1    2    0    0  0.00000000000E+00  0.00000000000E+00  0.00000000000E+00  0.80000000000E+02  0.80000000000E+02 0.  0.
          5    1    3    3  501    0  0.34632625177E+02  0.12631461975E+01 -0.19413802694E+02  0.40000000000E+02  0.47000000000E+01 0. -1.
         -5    1    3    3    0  501 -0.34632625177E+02 -0.12631461975E+01  0.19413802694E+02  0.40000000000E+02  0.47000000000E+01 0.  1.
</event>
<event>
 5    1  0.4814700E-001  0.8000000E+02  0.7546771E-02  0.1203772E+00
         11   -1    0    0    0    0  0.00000000000E+00  0.00000000000E+00  0.40000000000E+02  0.40000000000E+02  0.00000000000E+00 0.  1.
        -11   -1    0    0    0    0 -0.00000000000E+00 -0.00000000000E+00 -0.40000000000E+02  0.40000000000E+02  0.00000000000E+00 0. -1.
         23    2    1    2    0    0  0.00000000000E+00  0.00000000000E+00  0.00000000000E+00  0.80000000000E+02  0.80000000000E+02 0.  0.
          5    1    3    3  501    0 -0.28145830858E+02 -0.27558008935E+02 -0.51262411973E+01  0.40000000000E+02  0.47000000000E+01 0. -1.
         -5    1    3    3    0  501  0.28145830858E+02  0.27558008935E+02  0.51262411973E+01  0.40000000000E+02  0.47000000000E+01 0.  1.
</event>
<event>
 5    1  0.4814700E-001  0.8000000E+02  0.7546771E-02  0.1203772E+00
         11   -1    0    0    0    0  0.00000000000E+00  0.00000000000E+00  0.40000000000E+02  0.40000000000E+02  0.00000000000E+00 0. -1.
        -11   -1    0    0    0    0 -0.00000000000E+00 -0.00000000000E+00 -0.40000000000E+02  0.40000000000E+02  0.00000000000E+00 0.  1.
         23    2    1    2    0    0  0.00000000000E+00  0.00000000000E+00  0.00000000000E+00  0.80000000000E+02  0.80000000000E+02 0.  0.
          5    1    3    3  501    0 -0.73130882753E+01  0.22748295951E+02  0.31732377333E+02  0.40000000000E+02  0.47000000000E+01 0. -1.
         -5    1    3    3    0  501  0.73130882753E+01 -0.22748295951E+02 -0.31732377333E+02  0.40000000000E+02  0.47000000000E+01 0.  1.
</event>
<event>
 5    1  0.4814700E-001  0.8000000E+02  0.7546771E-02  0.1203772E+00
         11   -1    0    0    0    0  0.00000000000E+00  0.00000000000E+00  0.40000000000E+02  0.40000000000E+02  0.00000000000E+00 0. -1.
        -11   -1    0    0    0    0 -0.00000000000E+00 -0.00000000000E+00 -0.40000000000E+02  0.40000000000E+02  0.00000000000E+00 0.  1.
         23    2    1    2    0    0  0.00000000000E+00  0.00000000000E+00  0.00000000000E+00  0.80000000000E+02  0.80000000000E+02 0.  0.
          5    1    3    3  501    0  0.31437354711E+02 -0.19186182204E+01  0.24205818163E+02  0.40000000000E+02  0.47000000000E+01 0. -1.
         -5    1    3    3    0  501 -0.31437354711E+02  0.19186182204E+01 -0.24205818163E+02  0.40000000000E+02  0.47000000000E+01 0.  1.
</event>
<event>
 5    1  0.4814700E-001  0.8000000E+02  0.7546771E-02  0.1203772E+00
         11   -1    0    0    0    0  0.00000000000E+00  0.00000000000E+00  0.40000000000E+02  0.40000000000E+02  0.00000000000E+00 0. -1.
        -11   -1    0    0    0    0 -0.00000000000E+00 -0.00000000000E+00 -0.40000000000E+02  0.40000000000E+02  0.00000000000E+00 0.  1.
         23    2    1    2    0    0  0.00000000000E+00  0.00000000000E+00  0.00000000000E+00  0.80000000000E+02  0.80000000000E+02 0.  0.
          5    1    3    3  501    0  0.20201137734E+02 -0.23779868066E+01  0.34119923989E+02  0.40000000000E+02  0.47000000000E+01 0. -1.
         -5    1    3    3    0  501 -0.20201137734E+02  0.23779868066E+01 -0.34119923989E+02  0.40000000000E+02  0.47000000000E+01 0.  1.
</event>
<event>
 5    1  0.4814700E-001  0.8000000E+02  0.7546771E-02  0.1203772E+00
         11   -1    0    0    0    0  0.00000000000E+00  0.00000000000E+00  0.40000000000E+02  0.40000000000E+02  0.00000000000E+00 0. -1.
        -11   -1    0    0    0    0 -0.00000000000E+00 -0.00000000000E+00 -0.40000000000E+02  0.40000000000E+02  0.00000000000E+00 0.  1.
         23    2    1    2    0    0  0.00000000000E+00  0.00000000000E+00  0.00000000000E+00  0.80000000000E+02  0.80000000000E+02 0.  0.
          5    1    3    3  501    0 -0.10484550235E+02  0.61097287460E+01  0.37824005883E+02  0.40000000000E+02  0.47000000000E+01 0. -1.
         -5    1    3    3    0  501  0.10484550235E+02 -0.61097287460E+01 -0.37824005883E+02  0.40000000000E+02  0.47000000000E+01 0.  1.
</event>
<event>
 5    1  0.4814700E-001  0.8000000E+02  0.7546771E-02  0.1203772E+00
         11   -1    0    0    0    0  0.00000000000E+00  0.00000000000E+00  0.40000000000E+02  0.40000000000E+02  0.00000000000E+00 0. -1.
        -11   -1    0    0    0    0 -0.00000000000E+00 -0.00000000000E+00 -0.40000000000E+02  0.40000000000E+02  0.00000000000E+00 0.  1.
         23    2    1    2    0    0  0.00000000000E+00  0.00000000000E+00  0.00000000000E+00  0.80000000000E+02  0.80000000000E+02 0.  0.
          5    1    3    3  501    0  0.46142532946E+01 -0.35284943469E+02  0.17651952610E+02  0.40000000000E+02  0.47000000000E+01 0. -1.
         -5    1    3    3    0  501 -0.46142532946E+01  0.35284943469E+02 -0.17651952610E+02  0.40000000000E+02  0.47000000000E+01 0.  1.
</event>
<event>
 5    1  0.4814700E-001  0.8000000E+02  0.7546771E-02  0.1203772E+00
         11   -1    0    0    0    0  0.00000000000E+00  0.00000000000E+00  0.40000000000E+02  0.40000000000E+02  0.00000000000E+00 0. -1.
        -11   -1    0    0    0    0 -0.00000000000E+00 -0.00000000000E+00 -0.40000000000E+02  0.40000000000E+02  0.00000000000E+00 0.  1.
         23    2    1    2    0    0  0.00000000000E+00  0.00000000000E+00  0.00000000000E+00  0.80000000000E+02  0.80000000000E+02 0.  0.
          5    1    3    3  501    0 -0.35310401834E+02 -0.18210673786E+01  0.18104398248E+02  0.40000000000E+02  0.47000000000E+01 0. -1.
         -5    1    3    3    0  501  0.35310401834E+02  0.18210673786E+01 -0.18104398248E+02  0.40000000000E+02  0.47000000000E+01 0.  1.
</event>
<event>
 5    1  0.4814700E-001  0.8000000E+02  0.7546771E-02  0.1203772E+00
         11   -1    0    0    0    0  0.00000000000E+00  0.00000000000E+00  0.40000000000E+02  0.40000000000E+02  0.00000000000E+00 0. -1.
        -11   -1    0    0    0    0 -0.00000000000E+00 -0.00000000000E+00 -0.40000000000E+02  0.40000000000E+02  0.00000000000E+00 0.  1.
         23    2    1    2    0    0  0.00000000000E+00  0.00000000000E+00  0.00000000000E+00  0.80000000000E+02  0.80000000000E+02 0.  0.
          5    1    3    3  501    0  0.19243076709E+02 -0.20475507326E+02 -0.28077884510E+02  0.40000000000E+02  0.47000000000E+01 0.  1.
         -5    1    3    3    0  501 -0.19243076709E+02  0.20475507326E+02  0.28077884510E+02  0.40000000000E+02  0.47000000000E+01 0. -1.
</event>
<event>
 5    1  0.4814700E-001  0.8000000E+02  0.7546771E-02  0.1203772E+00
         11   -1    0    0    0    0  0.00000000000E+00  0.00000000000E+00  0.40000000000E+02  0.40000000000E+02  0.00000000000E+00 0. -1.
        -11   -1    0    0    0    0 -0.00000000000E+00 -0.00000000000E+00 -0.40000000000E+02  0.40000000000E+02  0.00000000000E+00 0.  1.
         23    2    1    2    0    0  0.00000000000E+00  0.00000000000E+00  0.00000000000E+00  0.80000000000E+02  0.80000000000E+02 0.  0.
          5    1    3    3  501    0  0.23286187053E+02 -0.43716922728E+01  0.31883409466E+02  0.40000000000E+02  0.47000000000E+01 0. -1.
         -5    1    3    3    0  501 -0.23286187053E+02  0.43716922728E+01 -0.31883409466E+02  0.40000000000E+02  0.47000000000E+01 0.  1.
</event>
<event>
 5    1  0.4814700E-001  0.8000000E+02  0.7546771E-02  0.1203772E+00
         11   -1    0    0    0    0  0.00000000000E+00  0.00000000000E+00  0.40000000000E+02  0.40000000000E+02  0.00000000000E+00 0. -1.
        -11   -1    0    0    0    0 -0.00000000000E+00 -0.00000000000E+00 -0.40000000000E+02  0.40000000000E+02  0.00000000000E+00 0.  1.
         23    2    1    2    0    0  0.00000000000E+00  0.00000000000E+00  0.00000000000E+00  0.80000000000E+02  0.80000000000E+02 0.  0.
          5    1    3    3  501    0 -0.31273909004E+02  0.24265485322E+02  0.33224746309E+01  0.40000000000E+02  0.47000000000E+01 0. -1.
         -5    1    3    3    0  501  0.31273909004E+02 -0.24265485322E+02 -0.33224746309E+01  0.40000000000E+02  0.47000000000E+01 0.  1.
</event>
<event>
 5    1  0.4814700E-001  0.8000000E+02  0.7546771E-02  0.1203772E+00
         11   -1    0    0    0    0  0.00000000000E+00  0.00000000000E+00  0.40000000000E+02  0.40000000000E+02  0.00000000000E+00 0.  1.
        -11   -1    0    0    0    0 -0.00000000000E+00 -0.00000000000E+00 -0.40000000000E+02  0.40000000000E+02  0.00000000000E+00 0. -1.
         23    2    1    2    0    0  0.00000000000E+00  0.00000000000E+00  0.00000000000E+00  0.80000000000E+02  0.80000000000E+02 0.  0.
          5    1    3    3  501    0  0.90534386683E+01  0.25038105928E+02 -0.29479458947E+02  0.40000000000E+02  0.47000000000E+01 0. -1.
         -5    1    3    3    0  501 -0.90534386683E+01 -0.25038105928E+02  0.29479458947E+02  0.40000000000E+02  0.47000000000E+01 0.  1.
</event>
<event>
 5    1  0.4814700E-001  0.8000000E+02  0.7546771E-02  0.1203772E+00
         11   -1    0    0    0    0  0.00000000000E+00  0.00000000000E+00  0.40000000000E+02  0.40000000000E+02  0.00000000000E+00 0. -1.
        -11   -1    0    0    0    0 -0.00000000000E+00 -0.00000000000E+00 -0.40000000000E+02  0.40000000000E+02  0.00000000000E+00 0.  1.
         23    2    1    2    0    0  0.00000000000E+00  0.00000000000E+00  0.00000000000E+00  0.80000000000E+02  0.80000000000E+02 0.  0.
          5    1    3    3  501    0  0.38171035091E+02  0.10590312211E+01  0.10943515565E+02  0.40000000000E+02  0.47000000000E+01 0. -1.
         -5    1    3    3    0  501 -0.38171035091E+02 -0.10590312211E+01 -0.10943515565E+02  0.40000000000E+02  0.47000000000E+01 0.  1.
</event>
<event>
 5    1  0.4814700E-001  0.8000000E+02  0.7546771E-02  0.1203772E+00
         11   -1    0    0    0    0  0.00000000000E+00  0.00000000000E+00  0.40000000000E+02  0.40000000000E+02  0.00000000000E+00 0.  1.
        -11   -1    0    0    0    0 -0.00000000000E+00 -0.00000000000E+00 -0.40000000000E+02  0.40000000000E+02  0.00000000000E+00 0. -1.
         23    2    1    2    0    0  0.00000000000E+00  0.00000000000E+00  0.00000000000E+00  0.80000000000E+02  0.80000000000E+02 0.  0.
          5    1    3    3  501    0  0.16936354658E+02 -0.28271464568E+02 -0.22176433033E+02  0.40000000000E+02  0.47000000000E+01 0. -1.
         -5    1    3    3    0  501 -0.16936354658E+02  0.28271464568E+02  0.22176433033E+02  0.40000000000E+02  0.47000000000E+01 0.  1.
</event>
<event>
 5    1  0.4814700E-001  0.8000000E+02  0.7546771E-02  0.1203772E+00
         11   -1    0    0    0    0  0.00000000000E+00  0.00000000000E+00  0.40000000000E+02  0.40000000000E+02  0.00000000000E+00 0. -1.
        -11   -1    0    0    0    0 -0.00000000000E+00 -0.00000000000E+00 -0.40000000000E+02  0.40000000000E+02  0.00000000000E+00 0.  1.
         23    2    1    2    0    0  0.00000000000E+00  0.00000000000E+00  0.00000000000E+00  0.80000000000E+02  0.80000000000E+02 0.  0.
          5    1    3    3  501    0  0.67373087725E+01  0.63667602601E+01 -0.38626196218E+02  0.40000000000E+02  0.47000000000E+01 0.  1.
         -5    1    3    3    0  501 -0.67373087725E+01 -0.63667602601E+01  0.38626196218E+02  0.40000000000E+02  0.47000000000E+01 0. -1.
</event>
<event>
 5    1  0.4814700E-001  0.8000000E+02  0.7546771E-02  0.1203772E+00
         11   -1    0    0    0    0  0.00000000000E+00  0.00000000000E+00  0.40000000000E+02  0.40000000000E+02  0.00000000000E+00 0. -1.
        -11   -1    0    0    0    0 -0.00000000000E+00 -0.00000000000E+00 -0.40000000000E+02  0.40000000000E+02  0.00000000000E+00 0.  1.
         23    2    1    2    0    0  0.00000000000E+00  0.00000000000E+00  0.00000000000E+00  0.80000000000E+02  0.80000000000E+02 0.  0.
          5    1    3    3  501    0 -0.71532884236E+01  0.30363056607E+02  0.24593195364E+02  0.40000000000E+02  0.47000000000E+01 0. -1.
         -5    1    3    3    0  501  0.71532884236E+01 -0.30363056607E+02 -0.24593195364E+02  0.40000000000E+02  0.47000000000E+01 0.  1.
</event>
<event>
 5    1  0.4814700E-001  0.8000000E+02  0.7546771E-02  0.1203772E+00
         11   -1    0    0    0    0  0.00000000000E+00  0.00000000000E+00  0.40000000000E+02  0.40000000000E+02  0.00000000000E+00 0. -1.
        -11   -1    0    0    0    0 -0.00000000000E+00 -0.00000000000E+00 -0.40000000000E+02  0.40000000000E+02  0.00000000000E+00 0.  1.
         23    2    1    2    0    0  0.00000000000E+00  0.00000000000E+00  0.00000000000E+00  0.80000000000E+02  0.80000000000E+02 0.  0.
          5    1    3    3  501    0 -0.36882577109E+02 -0.14692481692E+02  0.13101479115E+01  0.40000000000E+02  0.47000000000E+01 0. -1.
         -5    1    3    3    0  501  0.36882577109E+02  0.14692481692E+02 -0.13101479115E+01  0.40000000000E+02  0.47000000000E+01 0.  1.
</event>
<event>
 5    1  0.4814700E-001  0.8000000E+02  0.7546771E-02  0.1203772E+00
         11   -1    0    0    0    0  0.00000000000E+00  0.00000000000E+00  0.40000000000E+02  0.40000000000E+02  0.00000000000E+00 0.  1.
        -11   -1    0    0    0    0 -0.00000000000E+00 -0.00000000000E+00 -0.40000000000E+02  0.40000000000E+02  0.00000000000E+00 0. -1.
         23    2    1    2    0    0  0.00000000000E+00  0.00000000000E+00  0.00000000000E+00  0.80000000000E+02  0.80000000000E+02 0.  0.
          5    1    3    3  501    0  0.16392965116E+02  0.31199447073E+02 -0.18324169750E+02  0.40000000000E+02  0.47000000000E+01 0. -1.
         -5    1    3    3    0  501 -0.16392965116E+02 -0.31199447073E+02  0.18324169750E+02  0.40000000000E+02  0.47000000000E+01 0.  1.
</event>
<event>
 5    1  0.4814700E-001  0.8000000E+02  0.7546771E-02  0.1203772E+00
         11   -1    0    0    0    0  0.00000000000E+00  0.00000000000E+00  0.40000000000E+02  0.40000000000E+02  0.00000000000E+00 0.  1.
        -11   -1    0    0    0    0 -0.00000000000E+00 -0.00000000000E+00 -0.40000000000E+02  0.40000000000E+02  0.00000000000E+00 0. -1.
         23    2    1    2    0    0  0.00000000000E+00  0.00000000000E+00  0.00000000000E+00  0.80000000000E+02  0.80000000000E+02 0.  0.
          5    1    3    3  501    0 -0.86264915750E+01  0.28676656600E+02 -0.26098716622E+02  0.40000000000E+02  0.47000000000E+01 0. -1.
         -5    1    3    3    0  501  0.86264915750E+01 -0.28676656600E+02  0.26098716622E+02  0.40000000000E+02  0.47000000000E+01 0.  1.
</event>
<event>
 5    1  0.4814700E-001  0.8000000E+02  0.7546771E-02  0.1203772E+00
         11   -1    0    0    0    0  0.00000000000E+00  0.00000000000E+00  0.40000000000E+02  0.40000000000E+02  0.00000000000E+00 0.  1.
        -11   -1    0    0    0    0 -0.00000000000E+00 -0.00000000000E+00 -0.40000000000E+02  0.40000000000E+02  0.00000000000E+00 0. -1.
         23    2    1    2    0    0  0.00000000000E+00  0.00000000000E+00  0.00000000000E+00  0.80000000000E+02  0.80000000000E+02 0.  0.
          5    1    3    3  501    0 -0.28958847494E+02 -0.22919926795E+02 -0.14627785463E+02  0.40000000000E+02  0.47000000000E+01 0. -1.
         -5    1    3    3    0  501  0.28958847494E+02  0.22919926795E+02  0.14627785463E+02  0.40000000000E+02  0.47000000000E+01 0.  1.
</event>
<event>
 5    1  0.4814700E-001  0.8000000E+02  0.7546771E-02  0.1203772E+00
         11   -1    0    0    0    0  0.00000000000E+00  0.00000000000E+00  0.40000000000E+02  0.40000000000E+02  0.00000000000E+00 0.  1.
        -11   -1    0    0    0    0 -0.00000000000E+00 -0.00000000000E+00 -0.40000000000E+02  0.40000000000E+02  0.00000000000E+00 0. -1.
         23    2    1    2    0    0  0.00000000000E+00  0.00000000000E+00  0.00000000000E+00  0.80000000000E+02  0.80000000000E+02 0.  0.
          5    1    3    3  501    0  0.28196222032E+02  0.97544696925E+01 -0.26224671288E+02  0.40000000000E+02  0.47000000000E+01 0. -1.
         -5    1    3    3    0  501 -0.28196222032E+02 -0.97544696925E+01  0.26224671288E+02  0.40000000000E+02  0.47000000000E+01 0.  1.
</event>
<event>
 5    1  0.4814700E-001  0.8000000E+02  0.7546771E-02  0.1203772E+00
         11   -1    0    0    0    0  0.00000000000E+00  0.00000000000E+00  0.40000000000E+02  0.40000000000E+02  0.00000000000E+00 0. -1.
        -11   -1    0    0    0    0 -0.00000000000E+00 -0.00000000000E+00 -0.40000000000E+02  0.40000000000E+02  0.00000000000E+00 0.  1.
         23    2    1    2    0    0  0.00000000000E+00  0.00000000000E+00  0.00000000000E+00  0.80000000000E+02  0.80000000000E+02 0.  0.
          5    1    3    3  501    0  0.35179229157E+01 -0.34922477180E+02  0.18599860376E+02  0.40000000000E+02  0.47000000000E+01 0. -1.
         -5    1    3    3    0  501 -0.35179229157E+01  0.34922477180E+02 -0.18599860376E+02  0.40000000000E+02  0.47000000000E+01 0.  1.
</event>
<event>
 5    1  0.4814700E-001  0.8000000E+02  0.7546771E-02  0.1203772E+00
         11   -1    0    0    0    0  0.00000000000E+00  0.00000000000E+00  0.40000000000E+02  0.40000000000E+02  0.00000000000E+00 0.  1.
        -11   -1    0    0    0    0 -0.00000000000E+00 -0.00000000000E+00 -0.40000000000E+02  0.40000000000E+02  0.00000000000E+00 0. -1.
         23    2    1    2    0    0  0.00000000000E+00  0.00000000000E+00  0.00000000000E+00  0.80000000000E+02  0.80000000000E+02 0.  0.
          5    1    3    3  501    0 -0.52076072550E+01  0.37201333917E+02 -0.12917104221E+02  0.40000000000E+02  0.47000000000E+01 0. -1.
         -5    1    3    3    0  501  0.52076072550E+01 -0.37201333917E+02  0.12917104221E+02  0.40000000000E+02  0.47000000000E+01 0.  1.
</event>
<event>
 5    1  0.4814700E-001  0.8000000E+02  0.7546771E-02  0.1203772E+00
         11   -1    0    0    0    0  0.00000000000E+00  0.00000000000E+00  0.40000000000E+02  0.40000000000E+02  0.00000000000E+00 0.  1.
        -11   -1    0    0    0    0 -0.00000000000E+00 -0.00000000000E+00 -0.40000000000E+02  0.40000000000E+02  0.00000000000E+00 0. -1.
         23    2    1    2    0    0  0.00000000000E+00  0.00000000000E+00  0.00000000000E+00  0.80000000000E+02  0.80000000000E+02 0.  0.
          5    1    3    3  501    0 -0.22445349014E+02  0.26470262568E+02 -0.19324634724E+02  0.40000000000E+02  0.47000000000E+01 0. -1.
         -5    1    3    3    0  501  0.22445349014E+02 -0.26470262568E+02  0.19324634724E+02  0.40000000000E+02  0.47000000000E+01 0.  1.
</event>
<event>
 5    1  0.4814700E-001  0.8000000E+02  0.7546771E-02  0.1203772E+00
         11   -1    0    0    0    0  0.00000000000E+00  0.00000000000E+00  0.40000000000E+02  0.40000000000E+02  0.00000000000E+00 0.  1.
        -11   -1    0    0    0    0 -0.00000000000E+00 -0.00000000000E+00 -0.40000000000E+02  0.40000000000E+02  0.00000000000E+00 0. -1.
         23    2    1    2    0    0  0.00000000000E+00  0.00000000000E+00  0.00000000000E+00  0.80000000000E+02  0.80000000000E+02 0.  0.
          5    1    3    3  501    0  0.21615561750E+02 -0.17809028228E+02  0.28169416107E+02  0.40000000000E+02  0.47000000000E+01 0. -1.
         -5    1    3    3    0  501 -0.21615561750E+02  0.17809028228E+02 -0.28169416107E+02  0.40000000000E+02  0.47000000000E+01 0.  1.
</event>
<event>
 5    1  0.4814700E-001  0.8000000E+02  0.7546771E-02  0.1203772E+00
         11   -1    0    0    0    0  0.00000000000E+00  0.00000000000E+00  0.40000000000E+02  0.40000000000E+02  0.00000000000E+00 0. -1.
        -11   -1    0    0    0    0 -0.00000000000E+00 -0.00000000000E+00 -0.40000000000E+02  0.40000000000E+02  0.00000000000E+00 0.  1.
         23    2    1    2    0    0  0.00000000000E+00  0.00000000000E+00  0.00000000000E+00  0.80000000000E+02  0.80000000000E+02 0.  0.
          5    1    3    3  501    0 -0.12387630607E+01  0.28117071696E+02  0.28032226906E+02  0.40000000000E+02  0.47000000000E+01 0. -1.
         -5    1    3    3    0  501  0.12387630607E+01 -0.28117071696E+02 -0.28032226906E+02  0.40000000000E+02  0.47000000000E+01 0.  1.
</event>
<event>
 5    1  0.4814700E-001  0.8000000E+02  0.7546771E-02  0.1203772E+00
         11   -1    0    0    0    0  0.00000000000E+00  0.00000000000E+00  0.40000000000E+02  0.40000000000E+02  0.00000000000E+00 0. -1.
        -11   -1    0    0    0    0 -0.00000000000E+00 -0.00000000000E+00 -0.40000000000E+02  0.40000000000E+02  0.00000000000E+00 0.  1.
         23    2    1    2    0    0  0.00000000000E+00  0.00000000000E+00  0.00000000000E+00  0.80000000000E+02  0.80000000000E+02 0.  0.
          5    1    3    3  501    0  0.30668442801E+02  0.24564536454E+02  0.58258188242E+01  0.40000000000E+02  0.47000000000E+01 0. -1.
         -5    1    3    3    0  501 -0.30668442801E+02 -0.24564536454E+02 -0.58258188242E+01  0.40000000000E+02  0.47000000000E+01 0.  1.
</event>
<event>
 5    1  0.4814700E-001  0.8000000E+02  0.7546771E-02  0.1203772E+00
         11   -1    0    0    0    0  0.00000000000E+00  0.00000000000E+00  0.40000000000E+02  0.40000000000E+02  0.00000000000E+00 0.  1.
        -11   -1    0    0    0    0 -0.00000000000E+00 -0.00000000000E+00 -0.40000000000E+02  0.40000000000E+02  0.00000000000E+00 0. -1.
         23    2    1    2    0    0  0.00000000000E+00  0.00000000000E+00  0.00000000000E+00  0.80000000000E+02  0.80000000000E+02 0.  0.
          5    1    3    3  501    0 -0.28638100775E+02 -0.21614159093E+02 -0.17046914990E+02  0.40000000000E+02  0.47000000000E+01 0. -1.
         -5    1    3    3    0  501  0.28638100775E+02  0.21614159093E+02  0.17046914990E+02  0.40000000000E+02  0.47000000000E+01 0.  1.
</event>
<event>
 5    1  0.4814700E-001  0.8000000E+02  0.7546771E-02  0.1203772E+00
         11   -1    0    0    0    0  0.00000000000E+00  0.00000000000E+00  0.40000000000E+02  0.40000000000E+02  0.00000000000E+00 0.  1.
        -11   -1    0    0    0    0 -0.00000000000E+00 -0.00000000000E+00 -0.40000000000E+02  0.40000000000E+02  0.00000000000E+00 0. -1.
         23    2    1    2    0    0  0.00000000000E+00  0.00000000000E+00  0.00000000000E+00  0.80000000000E+02  0.80000000000E+02 0.  0.
          5    1    3    3  501    0 -0.33393394809E+02 -0.20643106371E+02 -0.60542003997E+01  0.40000000000E+02  0.47000000000E+01 0. -1.
         -5    1    3    3    0  501  0.33393394809E+02  0.20643106371E+02  0.60542003997E+01  0.40000000000E+02  0.47000000000E+01 0.  1.
</event>
<event>
 5    1  0.4814700E-001  0.8000000E+02  0.7546771E-02  0.1203772E+00
         11   -1    0    0    0    0  0.00000000000E+00  0.00000000000E+00  0.40000000000E+02  0.40000000000E+02  0.00000000000E+00 0.  1.
        -11   -1    0    0    0    0 -0.00000000000E+00 -0.00000000000E+00 -0.40000000000E+02  0.40000000000E+02  0.00000000000E+00 0. -1.
         23    2    1    2    0    0  0.00000000000E+00  0.00000000000E+00  0.00000000000E+00  0.80000000000E+02  0.80000000000E+02 0.  0.
          5    1    3    3  501    0 -0.19807872520E+02 -0.30780151869E+02 -0.15431799543E+02  0.40000000000E+02  0.47000000000E+01 0. -1.
         -5    1    3    3    0  501  0.19807872520E+02  0.30780151869E+02  0.15431799543E+02  0.40000000000E+02  0.47000000000E+01 0.  1.
</event>
<event>
 5    1  0.4814700E-001  0.8000000E+02  0.7546771E-02  0.1203772E+00
         11   -1    0    0    0    0  0.00000000000E+00  0.00000000000E+00  0.40000000000E+02  0.40000000000E+02  0.00000000000E+00 0. -1.
        -11   -1    0    0    0    0 -0.00000000000E+00 -0.00000000000E+00 -0.40000000000E+02  0.40000000000E+02  0.00000000000E+00 0.  1.
         23    2    1    2    0    0  0.00000000000E+00  0.00000000000E+00  0.00000000000E+00  0.80000000000E+02  0.80000000000E+02 0.  0.
          5    1    3    3  501    0  0.10033891358E+02 -0.31126100146E+02  0.22547658723E+02  0.40000000000E+02  0.47000000000E+01 0. -1.
         -5    1    3    3    0  501 -0.10033891358E+02  0.31126100146E+02 -0.22547658723E+02  0.40000000000E+02  0.47000000000E+01 0.  1.
</event>
<event>
 5    1  0.4814700E-001  0.8000000E+02  0.7546771E-02  0.1203772E+00
         11   -1    0    0    0    0  0.00000000000E+00  0.00000000000E+00  0.40000000000E+02  0.40000000000E+02  0.00000000000E+00 0.  1.
        -11   -1    0    0    0    0 -0.00000000000E+00 -0.00000000000E+00 -0.40000000000E+02  0.40000000000E+02  0.00000000000E+00 0. -1.
         23    2    1    2    0    0  0.00000000000E+00  0.00000000000E+00  0.00000000000E+00  0.80000000000E+02  0.80000000000E+02 0.  0.
          5    1    3    3  501    0  0.18384778108E+02  0.23015789849E+02 -0.26649265497E+02  0.40000000000E+02  0.47000000000E+01 0. -1.
         -5    1    3    3    0  501 -0.18384778108E+02 -0.23015789849E+02  0.26649265497E+02  0.40000000000E+02  0.47000000000E+01 0.  1.
</event>
<event>
 5    1  0.4814700E-001  0.8000000E+02  0.7546771E-02  0.1203772E+00
         11   -1    0    0    0    0  0.00000000000E+00  0.00000000000E+00  0.40000000000E+02  0.40000000000E+02  0.00000000000E+00 0. -1.
        -11   -1    0    0    0    0 -0.00000000000E+00 -0.00000000000E+00 -0.40000000000E+02  0.40000000000E+02  0.00000000000E+00 0.  1.
         23    2    1    2    0    0  0.00000000000E+00  0.00000000000E+00  0.00000000000E+00  0.80000000000E+02  0.80000000000E+02 0.  0.
          5    1    3    3  501    0  0.15975620339E+02 -0.15588792760E+02  0.32858470675E+02  0.40000000000E+02  0.47000000000E+01 0. -1.
         -5    1    3    3    0  501 -0.15975620339E+02  0.15588792760E+02 -0.32858470675E+02  0.40000000000E+02  0.47000000000E+01 0.  1.
</event>
<event>
 5    1  0.4814700E-001  0.8000000E+02  0.7546771E-02  0.1203772E+00
         11   -1    0    0    0    0  0.00000000000E+00  0.00000000000E+00  0.40000000000E+02  0.40000000000E+02  0.00000000000E+00 0.  1.
        -11   -1    0    0    0    0 -0.00000000000E+00 -0.00000000000E+00 -0.40000000000E+02  0.40000000000E+02  0.00000000000E+00 0. -1.
         23    2    1    2    0    0  0.00000000000E+00  0.00000000000E+00  0.00000000000E+00  0.80000000000E+02  0.80000000000E+02 0.  0.
          5    1    3    3  501    0  0.30982206965E+02  0.21092881053E+02  0.13156869708E+02  0.40000000000E+02  0.47000000000E+01 0. -1.
         -5    1    3    3    0  501 -0.30982206965E+02 -0.21092881053E+02 -0.13156869708E+02  0.40000000000E+02  0.47000000000E+01 0.  1.
</event>
<event>
 5    1  0.4814700E-001  0.8000000E+02  0.7546771E-02  0.1203772E+00
         11   -1    0    0    0    0  0.00000000000E+00  0.00000000000E+00  0.40000000000E+02  0.40000000000E+02  0.00000000000E+00 0. -1.
        -11   -1    0    0    0    0 -0.00000000000E+00 -0.00000000000E+00 -0.40000000000E+02  0.40000000000E+02  0.00000000000E+00 0.  1.
         23    2    1    2    0    0  0.00000000000E+00  0.00000000000E+00  0.00000000000E+00  0.80000000000E+02  0.80000000000E+02 0.  0.
          5    1    3    3  501    0 -0.68321645963E+01  0.32381584990E+01  0.38996741613E+02  0.40000000000E+02  0.47000000000E+01 0. -1.
         -5    1    3    3    0  501  0.68321645963E+01 -0.32381584990E+01 -0.38996741613E+02  0.40000000000E+02  0.47000000000E+01 0.  1.
</event>
<event>
 5    1  0.4814700E-001  0.8000000E+02  0.7546771E-02  0.1203772E+00
         11   -1    0    0    0    0  0.00000000000E+00  0.00000000000E+00  0.40000000000E+02  0.40000000000E+02  0.00000000000E+00 0. -1.
        -11   -1    0    0    0    0 -0.00000000000E+00 -0.00000000000E+00 -0.40000000000E+02  0.40000000000E+02  0.00000000000E+00 0.  1.
         23    2    1    2    0    0  0.00000000000E+00  0.00000000000E+00  0.00000000000E+00  0.80000000000E+02  0.80000000000E+02 0.  0.
          5    1    3    3  501    0  0.16702990519E+02 -0.37971128261E+01  0.35839950362E+02  0.40000000000E+02  0.47000000000E+01 0. -1.
         -5    1    3    3    0  501 -0.16702990519E+02  0.37971128261E+01 -0.35839950362E+02  0.40000000000E+02  0.47000000000E+01 0.  1.
</event>
<event>
 5    1  0.4814700E-001  0.8000000E+02  0.7546771E-02  0.1203772E+00
         11   -1    0    0    0    0  0.00000000000E+00  0.00000000000E+00  0.40000000000E+02  0.40000000000E+02  0.00000000000E+00 0. -1.
        -11   -1    0    0    0    0 -0.00000000000E+00 -0.00000000000E+00 -0.40000000000E+02  0.40000000000E+02  0.00000000000E+00 0.  1.
         23    2    1    2    0    0  0.00000000000E+00  0.00000000000E+00  0.00000000000E+00  0.80000000000E+02  0.80000000000E+02 0.  0.
          5    1    3    3  501    0  0.58490363810E+01  0.15220674435E+02  0.36221952503E+02  0.40000000000E+02  0.47000000000E+01 0. -1.
         -5    1    3    3    0  501 -0.58490363810E+01 -0.15220674435E+02 -0.36221952503E+02  0.40000000000E+02  0.47000000000E+01 0.  1.
</event>
<event>
 5    1  0.4814700E-001  0.8000000E+02  0.7546771E-02  0.1203772E+00
         11   -1    0    0    0    0  0.00000000000E+00  0.00000000000E+00  0.40000000000E+02  0.40000000000E+02  0.00000000000E+00 0.  1.
        -11   -1    0    0    0    0 -0.00000000000E+00 -0.00000000000E+00 -0.40000000000E+02  0.40000000000E+02  0.00000000000E+00 0. -1.
         23    2    1    2    0    0  0.00000000000E+00  0.00000000000E+00  0.00000000000E+00  0.80000000000E+02  0.80000000000E+02 0.  0.
          5    1    3    3  501    0  0.28572167617E+02 -0.17261534106E+02  0.21530923760E+02  0.40000000000E+02  0.47000000000E+01 0. -1.
         -5    1    3    3    0  501 -0.28572167617E+02  0.17261534106E+02 -0.21530923760E+02  0.40000000000E+02  0.47000000000E+01 0.  1.
</event>
<event>
 5    1  0.4814700E-001  0.8000000E+02  0.7546771E-02  0.1203772E+00
         11   -1    0    0    0    0  0.00000000000E+00  0.00000000000E+00  0.40000000000E+02  0.40000000000E+02  0.00000000000E+00 0. -1.
        -11   -1    0    0    0    0 -0.00000000000E+00 -0.00000000000E+00 -0.40000000000E+02  0.40000000000E+02  0.00000000000E+00 0.  1.
         23    2    1    2    0    0  0.00000000000E+00  0.00000000000E+00  0.00000000000E+00  0.80000000000E+02  0.80000000000E+02 0.  0.
          5    1    3    3  501    0  0.38317827757E+02  0.44476944335E+00 -0.10462134398E+02  0.40000000000E+02  0.47000000000E+01 0.  1.
         -5    1    3    3    0  501 -0.38317827757E+02 -0.44476944335E+00  0.10462134398E+02  0.40000000000E+02  0.47000000000E+01 0. -1.
</event>
<event>
 5    1  0.4814700E-001  0.8000000E+02  0.7546771E-02  0.1203772E+00
         11   -1    0    0    0    0  0.00000000000E+00  0.00000000000E+00  0.40000000000E+02  0.40000000000E+02  0.00000000000E+00 0.  1.
        -11   -1    0    0    0    0 -0.00000000000E+00 -0.00000000000E+00 -0.40000000000E+02  0.40000000000E+02  0.00000000000E+00 0. -1.
         23    2    1    2    0    0  0.00000000000E+00  0.00000000000E+00  0.00000000000E+00  0.80000000000E+02  0.80000000000E+02 0.  0.
          5    1    3    3  501    0  0.22313779264E+02  0.32213648212E+02 -0.65027781591E+01  0.40000000000E+02  0.47000000000E+01 0. -1.
         -5    1    3    3    0  501 -0.22313779264E+02 -0.32213648212E+02  0.65027781591E+01  0.40000000000E+02  0.47000000000E+01 0.  1.
</event>
<event>
 5    1  0.4814700E-001  0.8000000E+02  0.7546771E-02  0.1203772E+00
         11   -1    0    0    0    0  0.00000000000E+00  0.00000000000E+00  0.40000000000E+02  0.40000000000E+02  0.00000000000E+00 0.  1.
        -11   -1    0    0    0    0 -0.00000000000E+00 -0.00000000000E+00 -0.40000000000E+02  0.40000000000E+02  0.00000000000E+00 0. -1.
         23    2    1    2    0    0  0.00000000000E+00  0.00000000000E+00  0.00000000000E+00  0.80000000000E+02  0.80000000000E+02 0.  0.
          5    1    3    3  501    0 -0.39297599881E+02  0.54037315470E+01 -0.20996020976E+01  0.40000000000E+02  0.47000000000E+01 0. -1.
         -5    1    3    3    0  501  0.39297599881E+02 -0.54037315470E+01  0.20996020976E+01  0.40000000000E+02  0.47000000000E+01 0.  1.
</event>
<event>
 5    1  0.4814700E-001  0.8000000E+02  0.7546771E-02  0.1203772E+00
         11   -1    0    0    0    0  0.00000000000E+00  0.00000000000E+00  0.40000000000E+02  0.40000000000E+02  0.00000000000E+00 0. -1.
        -11   -1    0    0    0    0 -0.00000000000E+00 -0.00000000000E+00 -0.40000000000E+02  0.40000000000E+02  0.00000000000E+00 0.  1.
         23    2    1    2    0    0  0.00000000000E+00  0.00000000000E+00  0.00000000000E+00  0.80000000000E+02  0.80000000000E+02 0.  0.
          5    1    3    3  501    0 -0.20869021927E+02 -0.23042286970E+01  0.33720682880E+02  0.40000000000E+02  0.47000000000E+01 0. -1.
         -5    1    3    3    0  501  0.20869021927E+02  0.23042286970E+01 -0.33720682880E+02  0.40000000000E+02  0.47000000000E+01 0.  1.
</event>
<event>
 5    1  0.4814700E-001  0.8000000E+02  0.7546771E-02  0.1203772E+00
         11   -1    0    0    0    0  0.00000000000E+00  0.00000000000E+00  0.40000000000E+02  0.40000000000E+02  0.00000000000E+00 0.  1.
        -11   -1    0    0    0    0 -0.00000000000E+00 -0.00000000000E+00 -0.40000000000E+02  0.40000000000E+02  0.00000000000E+00 0. -1.
         23    2    1    2    0    0  0.00000000000E+00  0.00000000000E+00  0.00000000000E+00  0.80000000000E+02  0.80000000000E+02 0.  0.
          5    1    3    3  501    0 -0.29982326076E+02  0.25399455882E+02 -0.58170236362E+01  0.40000000000E+02  0.47000000000E+01 0. -1.
         -5    1    3    3    0  501  0.29982326076E+02 -0.25399455882E+02  0.58170236362E+01  0.40000000000E+02  0.47000000000E+01 0.  1.
</event>
<event>
 5    1  0.4814700E-001  0.8000000E+02  0.7546771E-02  0.1203772E+00
         11   -1    0    0    0    0  0.00000000000E+00  0.00000000000E+00  0.40000000000E+02  0.40000000000E+02  0.00000000000E+00 0. -1.
        -11   -1    0    0    0    0 -0.00000000000E+00 -0.00000000000E+00 -0.40000000000E+02  0.40000000000E+02  0.00000000000E+00 0.  1.
         23    2    1    2    0    0  0.00000000000E+00  0.00000000000E+00  0.00000000000E+00  0.80000000000E+02  0.80000000000E+02 0.  0.
          5    1    3    3  501    0  0.10669590168E+02 -0.24695572487E+02  0.29226675234E+02  0.40000000000E+02  0.47000000000E+01 0. -1.
         -5    1    3    3    0  501 -0.10669590168E+02  0.24695572487E+02 -0.29226675234E+02  0.40000000000E+02  0.47000000000E+01 0.  1.
</event>
<event>
 5    1  0.4814700E-001  0.8000000E+02  0.7546771E-02  0.1203772E+00
         11   -1    0    0    0    0  0.00000000000E+00  0.00000000000E+00  0.40000000000E+02  0.40000000000E+02  0.00000000000E+00 0. -1.
        -11   -1    0    0    0    0 -0.00000000000E+00 -0.00000000000E+00 -0.40000000000E+02  0.40000000000E+02  0.00000000000E+00 0.  1.
         23    2    1    2    0    0  0.00000000000E+00  0.00000000000E+00  0.00000000000E+00  0.80000000000E+02  0.80000000000E+02 0.  0.
          5    1    3    3  501    0  0.77372880138E+01 -0.25348044747E+02  0.29589204141E+02  0.40000000000E+02  0.47000000000E+01 0. -1.
         -5    1    3    3    0  501 -0.77372880138E+01  0.25348044747E+02 -0.29589204141E+02  0.40000000000E+02  0.47000000000E+01 0.  1.
</event>
<event>
 5    1  0.4814700E-001  0.8000000E+02  0.7546771E-02  0.1203772E+00
         11   -1    0    0    0    0  0.00000000000E+00  0.00000000000E+00  0.40000000000E+02  0.40000000000E+02  0.00000000000E+00 0.  1.
        -11   -1    0    0    0    0 -0.00000000000E+00 -0.00000000000E+00 -0.40000000000E+02  0.40000000000E+02  0.00000000000E+00 0. -1.
         23    2    1    2    0    0  0.00000000000E+00  0.00000000000E+00  0.00000000000E+00  0.80000000000E+02  0.80000000000E+02 0.  0.
          5    1    3    3  501    0 -0.21830304255E+02 -0.72823384477E+01 -0.32377698542E+02  0.40000000000E+02  0.47000000000E+01 0. -1.
         -5    1    3    3    0  501  0.21830304255E+02  0.72823384477E+01  0.32377698542E+02  0.40000000000E+02  0.47000000000E+01 0.  1.
</event>
<event>
 5    1  0.4814700E-001  0.8000000E+02  0.7546771E-02  0.1203772E+00
         11   -1    0    0    0    0  0.00000000000E+00  0.00000000000E+00  0.40000000000E+02  0.40000000000E+02  0.00000000000E+00 0.  1.
        -11   -1    0    0    0    0 -0.00000000000E+00 -0.00000000000E+00 -0.40000000000E+02  0.40000000000E+02  0.00000000000E+00 0. -1.
         23    2    1    2    0    0  0.00000000000E+00  0.00000000000E+00  0.00000000000E+00  0.80000000000E+02  0.80000000000E+02 0.  0.
          5    1    3    3  501    0 -0.52129567738E+01 -0.38951094643E+02 -0.57920037817E+01  0.40000000000E+02  0.47000000000E+01 0. -1.
         -5    1    3    3    0  501  0.52129567738E+01  0.38951094643E+02  0.57920037817E+01  0.40000000000E+02  0.47000000000E+01 0.  1.
</event>
<event>
 5    1  0.4814700E-001  0.8000000E+02  0.7546771E-02  0.1203772E+00
         11   -1    0    0    0    0  0.00000000000E+00  0.00000000000E+00  0.40000000000E+02  0.40000000000E+02  0.00000000000E+00 0.  1.
        -11   -1    0    0    0    0 -0.00000000000E+00 -0.00000000000E+00 -0.40000000000E+02  0.40000000000E+02  0.00000000000E+00 0. -1.
         23    2    1    2    0    0  0.00000000000E+00  0.00000000000E+00  0.00000000000E+00  0.80000000000E+02  0.80000000000E+02 0.  0.
          5    1    3    3  501    0 -0.37608126023E+02 -0.11013334191E+02 -0.64996405331E+01  0.40000000000E+02  0.47000000000E+01 0. -1.
         -5    1    3    3    0  501  0.37608126023E+02  0.11013334191E+02  0.64996405331E+01  0.40000000000E+02  0.47000000000E+01 0.  1.
</event>
<event>
 5    1  0.4814700E-001  0.8000000E+02  0.7546771E-02  0.1203772E+00
         11   -1    0    0    0    0  0.00000000000E+00  0.00000000000E+00  0.40000000000E+02  0.40000000000E+02  0.00000000000E+00 0. -1.
        -11   -1    0    0    0    0 -0.00000000000E+00 -0.00000000000E+00 -0.40000000000E+02  0.40000000000E+02  0.00000000000E+00 0.  1.
         23    2    1    2    0    0  0.00000000000E+00  0.00000000000E+00  0.00000000000E+00  0.80000000000E+02  0.80000000000E+02 0.  0.
          5    1    3    3  501    0  0.22144164563E+02  0.18891654236E+02 -0.27030563739E+02  0.40000000000E+02  0.47000000000E+01 0.  1.
         -5    1    3    3    0  501 -0.22144164563E+02 -0.18891654236E+02  0.27030563739E+02  0.40000000000E+02  0.47000000000E+01 0. -1.
</event>
<event>
 5    1  0.4814700E-001  0.8000000E+02  0.7546771E-02  0.1203772E+00
         11   -1    0    0    0    0  0.00000000000E+00  0.00000000000E+00  0.40000000000E+02  0.40000000000E+02  0.00000000000E+00 0. -1.
        -11   -1    0    0    0    0 -0.00000000000E+00 -0.00000000000E+00 -0.40000000000E+02  0.40000000000E+02  0.00000000000E+00 0.  1.
         23    2    1    2    0    0  0.00000000000E+00  0.00000000000E+00  0.00000000000E+00  0.80000000000E+02  0.80000000000E+02 0.  0.
          5    1    3    3  501    0 -0.62788174274E+01  0.38243297887E+02  0.87141619476E+01  0.40000000000E+02  0.47000000000E+01 0.  1.
         -5    1    3    3    0  501  0.62788174274E+01 -0.38243297887E+02 -0.87141619476E+01  0.40000000000E+02  0.47000000000E+01 0. -1.
</event>
<event>
 5    1  0.4814700E-001  0.8000000E+02  0.7546771E-02  0.1203772E+00
         11   -1    0    0    0    0  0.00000000000E+00  0.00000000000E+00  0.40000000000E+02  0.40000000000E+02  0.00000000000E+00 0.  1.
        -11   -1    0    0    0    0 -0.00000000000E+00 -0.00000000000E+00 -0.40000000000E+02  0.40000000000E+02  0.00000000000E+00 0. -1.
         23    2    1    2    0    0  0.00000000000E+00  0.00000000000E+00  0.00000000000E+00  0.80000000000E+02  0.80000000000E+02 0.  0.
          5    1    3    3  501    0  0.20968687078E+02 -0.77722438753E+01 -0.32830114032E+02  0.40000000000E+02  0.47000000000E+01 0. -1.
         -5    1    3    3    0  501 -0.20968687078E+02  0.77722438753E+01  0.32830114032E+02  0.40000000000E+02  0.47000000000E+01 0.  1.
</event>
<event>
 5    1  0.4814700E-001  0.8000000E+02  0.7546771E-02  0.1203772E+00
         11   -1    0    0    0    0  0.00000000000E+00  0.00000000000E+00  0.40000000000E+02  0.40000000000E+02  0.00000000000E+00 0.  1.
        -11   -1    0    0    0    0 -0.00000000000E+00 -0.00000000000E+00 -0.40000000000E+02  0.40000000000E+02  0.00000000000E+00 0. -1.
         23    2    1    2    0    0  0.00000000000E+00  0.00000000000E+00  0.00000000000E+00  0.80000000000E+02  0.80000000000E+02 0.  0.
          5    1    3    3  501    0  0.10751497846E+02 -0.38170489675E+02  0.23084652918E+01  0.40000000000E+02  0.47000000000E+01 0. -1.
         -5    1    3    3    0  501 -0.10751497846E+02  0.38170489675E+02 -0.23084652918E+01  0.40000000000E+02  0.47000000000E+01 0.  1.
</event>
<event>
 5    1  0.4814700E-001  0.8000000E+02  0.7546771E-02  0.1203772E+00
         11   -1    0    0    0    0  0.00000000000E+00  0.00000000000E+00  0.40000000000E+02  0.40000000000E+02  0.00000000000E+00 0. -1.
        -11   -1    0    0    0    0 -0.00000000000E+00 -0.00000000000E+00 -0.40000000000E+02  0.40000000000E+02  0.00000000000E+00 0.  1.
         23    2    1    2    0    0  0.00000000000E+00  0.00000000000E+00  0.00000000000E+00  0.80000000000E+02  0.80000000000E+02 0.  0.
          5    1    3    3  501    0 -0.36408081733E+02  0.53094352552E+01  0.14972357257E+02  0.40000000000E+02  0.47000000000E+01 0.  1.
         -5    1    3    3    0  501  0.36408081733E+02 -0.53094352552E+01 -0.14972357257E+02  0.40000000000E+02  0.47000000000E+01 0. -1.
</event>
<event>
 5    1  0.4814700E-001  0.8000000E+02  0.7546771E-02  0.1203772E+00
         11   -1    0    0    0    0  0.00000000000E+00  0.00000000000E+00  0.40000000000E+02  0.40000000000E+02  0.00000000000E+00 0.  1.
        -11   -1    0    0    0    0 -0.00000000000E+00 -0.00000000000E+00 -0.40000000000E+02  0.40000000000E+02  0.00000000000E+00 0. -1.
         23    2    1    2    0    0  0.00000000000E+00  0.00000000000E+00  0.00000000000E+00  0.80000000000E+02  0.80000000000E+02 0.  0.
          5    1    3    3  501    0  0.30452011194E+01  0.15995268009E+01 -0.39573706728E+02  0.40000000000E+02  0.47000000000E+01 0. -1.
         -5    1    3    3    0  501 -0.30452011194E+01 -0.15995268009E+01  0.39573706728E+02  0.40000000000E+02  0.47000000000E+01 0.  1.
</event>
<event>
 5    1  0.4814700E-001  0.8000000E+02  0.7546771E-02  0.1203772E+00
         11   -1    0    0    0    0  0.00000000000E+00  0.00000000000E+00  0.40000000000E+02  0.40000000000E+02  0.00000000000E+00 0.  1.
        -11   -1    0    0    0    0 -0.00000000000E+00 -0.00000000000E+00 -0.40000000000E+02  0.40000000000E+02  0.00000000000E+00 0. -1.
         23    2    1    2    0    0  0.00000000000E+00  0.00000000000E+00  0.00000000000E+00  0.80000000000E+02  0.80000000000E+02 0.  0.
          5    1    3    3  501    0 -0.60929577641E+01 -0.16335942312E+02 -0.35692055901E+02  0.40000000000E+02  0.47000000000E+01 0. -1.
         -5    1    3    3    0  501  0.60929577641E+01  0.16335942312E+02  0.35692055901E+02  0.40000000000E+02  0.47000000000E+01 0.  1.
</event>
<event>
 5    1  0.4814700E-001  0.8000000E+02  0.7546771E-02  0.1203772E+00
         11   -1    0    0    0    0  0.00000000000E+00  0.00000000000E+00  0.40000000000E+02  0.40000000000E+02  0.00000000000E+00 0.  1.
        -11   -1    0    0    0    0 -0.00000000000E+00 -0.00000000000E+00 -0.40000000000E+02  0.40000000000E+02  0.00000000000E+00 0. -1.
         23    2    1    2    0    0  0.00000000000E+00  0.00000000000E+00  0.00000000000E+00  0.80000000000E+02  0.80000000000E+02 0.  0.
          5    1    3    3  501    0 -0.18830116941E+02  0.19931031616E+02 -0.28741793171E+02  0.40000000000E+02  0.47000000000E+01 0. -1.
         -5    1    3    3    0  501  0.18830116941E+02 -0.19931031616E+02  0.28741793171E+02  0.40000000000E+02  0.47000000000E+01 0.  1.
</event>
<event>
 5    1  0.4814700E-001  0.8000000E+02  0.7546771E-02  0.1203772E+00
         11   -1    0    0    0    0  0.00000000000E+00  0.00000000000E+00  0.40000000000E+02  0.40000000000E+02  0.00000000000E+00 0. -1.
        -11   -1    0    0    0    0 -0.00000000000E+00 -0.00000000000E+00 -0.40000000000E+02  0.40000000000E+02  0.00000000000E+00 0.  1.
         23    2    1    2    0    0  0.00000000000E+00  0.00000000000E+00  0.00000000000E+00  0.80000000000E+02  0.80000000000E+02 0.  0.
          5    1    3    3  501    0  0.37728264929E+01 -0.14852710067E+02  0.36647957432E+02  0.40000000000E+02  0.47000000000E+01 0. -1.
         -5    1    3    3    0  501 -0.37728264929E+01  0.14852710067E+02 -0.36647957432E+02  0.40000000000E+02  0.47000000000E+01 0.  1.
</event>
<event>
 5    1  0.4814700E-001  0.8000000E+02  0.7546771E-02  0.1203772E+00
         11   -1    0    0    0    0  0.00000000000E+00  0.00000000000E+00  0.40000000000E+02  0.40000000000E+02  0.00000000000E+00 0. -1.
        -11   -1    0    0    0    0 -0.00000000000E+00 -0.00000000000E+00 -0.40000000000E+02  0.40000000000E+02  0.00000000000E+00 0.  1.
         23    2    1    2    0    0  0.00000000000E+00  0.00000000000E+00  0.00000000000E+00  0.80000000000E+02  0.80000000000E+02 0.  0.
          5    1    3    3  501    0  0.21955905907E+02  0.10745267807E+02  0.31311138841E+02  0.40000000000E+02  0.47000000000E+01 0. -1.
         -5    1    3    3    0  501 -0.21955905907E+02 -0.10745267807E+02 -0.31311138841E+02  0.40000000000E+02  0.47000000000E+01 0.  1.
</event>
<event>
 5    1  0.4814700E-001  0.8000000E+02  0.7546771E-02  0.1203772E+00
         11   -1    0    0    0    0  0.00000000000E+00  0.00000000000E+00  0.40000000000E+02  0.40000000000E+02  0.00000000000E+00 0.  1.
        -11   -1    0    0    0    0 -0.00000000000E+00 -0.00000000000E+00 -0.40000000000E+02  0.40000000000E+02  0.00000000000E+00 0. -1.
         23    2    1    2    0    0  0.00000000000E+00  0.00000000000E+00  0.00000000000E+00  0.80000000000E+02  0.80000000000E+02 0.  0.
          5    1    3    3  501    0  0.20486026486E+02 -0.73821286635E+01 -0.33222535954E+02  0.40000000000E+02  0.47000000000E+01 0. -1.
         -5    1    3    3    0  501 -0.20486026486E+02  0.73821286635E+01  0.33222535954E+02  0.40000000000E+02  0.47000000000E+01 0.  1.
</event>
<event>
 5    1  0.4814700E-001  0.8000000E+02  0.7546771E-02  0.1203772E+00
         11   -1    0    0    0    0  0.00000000000E+00  0.00000000000E+00  0.40000000000E+02  0.40000000000E+02  0.00000000000E+00 0. -1.
        -11   -1    0    0    0    0 -0.00000000000E+00 -0.00000000000E+00 -0.40000000000E+02  0.40000000000E+02  0.00000000000E+00 0.  1.
         23    2    1    2    0    0  0.00000000000E+00  0.00000000000E+00  0.00000000000E+00  0.80000000000E+02  0.80000000000E+02 0.  0.
          5    1    3    3  501    0 -0.52499864171E+01  0.20268905764E+02  0.33756763793E+02  0.40000000000E+02  0.47000000000E+01 0. -1.
         -5    1    3    3    0  501  0.52499864171E+01 -0.20268905764E+02 -0.33756763793E+02  0.40000000000E+02  0.47000000000E+01 0.  1.
</event>
<event>
 5    1  0.4814700E-001  0.8000000E+02  0.7546771E-02  0.1203772E+00
         11   -1    0    0    0    0  0.00000000000E+00  0.00000000000E+00  0.40000000000E+02  0.40000000000E+02  0.00000000000E+00 0.  1.
        -11   -1    0    0    0    0 -0.00000000000E+00 -0.00000000000E+00 -0.40000000000E+02  0.40000000000E+02  0.00000000000E+00 0. -1.
         23    2    1    2    0    0  0.00000000000E+00  0.00000000000E+00  0.00000000000E+00  0.80000000000E+02  0.80000000000E+02 0.  0.
          5    1    3    3  501    0  0.15637331107E+02 -0.17751185221E+02 -0.31910488857E+02  0.40000000000E+02  0.47000000000E+01 0. -1.
         -5    1    3    3    0  501 -0.15637331107E+02  0.17751185221E+02  0.31910488857E+02  0.40000000000E+02  0.47000000000E+01 0.  1.
</event>
<event>
 5    1  0.4814700E-001  0.8000000E+02  0.7546771E-02  0.1203772E+00
         11   -1    0    0    0    0  0.00000000000E+00  0.00000000000E+00  0.40000000000E+02  0.40000000000E+02  0.00000000000E+00 0.  1.
        -11   -1    0    0    0    0 -0.00000000000E+00 -0.00000000000E+00 -0.40000000000E+02  0.40000000000E+02  0.00000000000E+00 0. -1.
         23    2    1    2    0    0  0.00000000000E+00  0.00000000000E+00  0.00000000000E+00  0.80000000000E+02  0.80000000000E+02 0.  0.
          5    1    3    3  501    0  0.29526690678E+02 -0.26279624565E+02 -0.39326670751E+01  0.40000000000E+02  0.47000000000E+01 0. -1.
         -5    1    3    3    0  501 -0.29526690678E+02  0.26279624565E+02  0.39326670751E+01  0.40000000000E+02  0.47000000000E+01 0.  1.
</event>
<event>
 5    1  0.4814700E-001  0.8000000E+02  0.7546771E-02  0.1203772E+00
         11   -1    0    0    0    0  0.00000000000E+00  0.00000000000E+00  0.40000000000E+02  0.40000000000E+02  0.00000000000E+00 0. -1.
        -11   -1    0    0    0    0 -0.00000000000E+00 -0.00000000000E+00 -0.40000000000E+02  0.40000000000E+02  0.00000000000E+00 0.  1.
         23    2    1    2    0    0  0.00000000000E+00  0.00000000000E+00  0.00000000000E+00  0.80000000000E+02  0.80000000000E+02 0.  0.
          5    1    3    3  501    0  0.17611504867E+02 -0.55654088084E+01  0.35167756839E+02  0.40000000000E+02  0.47000000000E+01 0. -1.
         -5    1    3    3    0  501 -0.17611504867E+02  0.55654088084E+01 -0.35167756839E+02  0.40000000000E+02  0.47000000000E+01 0.  1.
</event>
<event>
 5    1  0.4814700E-001  0.8000000E+02  0.7546771E-02  0.1203772E+00
         11   -1    0    0    0    0  0.00000000000E+00  0.00000000000E+00  0.40000000000E+02  0.40000000000E+02  0.00000000000E+00 0.  1.
        -11   -1    0    0    0    0 -0.00000000000E+00 -0.00000000000E+00 -0.40000000000E+02  0.40000000000E+02  0.00000000000E+00 0. -1.
         23    2    1    2    0    0  0.00000000000E+00  0.00000000000E+00  0.00000000000E+00  0.80000000000E+02  0.80000000000E+02 0.  0.
          5    1    3    3  501    0  0.73834949704E+01  0.59642110469E+01 -0.38572298202E+02  0.40000000000E+02  0.47000000000E+01 0. -1.
         -5    1    3    3    0  501 -0.73834949704E+01 -0.59642110469E+01  0.38572298202E+02  0.40000000000E+02  0.47000000000E+01 0.  1.
</event>
<event>
 5    1  0.4814700E-001  0.8000000E+02  0.7546771E-02  0.1203772E+00
         11   -1    0    0    0    0  0.00000000000E+00  0.00000000000E+00  0.40000000000E+02  0.40000000000E+02  0.00000000000E+00 0.  1.
        -11   -1    0    0    0    0 -0.00000000000E+00 -0.00000000000E+00 -0.40000000000E+02  0.40000000000E+02  0.00000000000E+00 0. -1.
         23    2    1    2    0    0  0.00000000000E+00  0.00000000000E+00  0.00000000000E+00  0.80000000000E+02  0.80000000000E+02 0.  0.
          5    1    3    3  501    0  0.25741823670E+02  0.30253400934E+02 -0.15687292289E-01  0.40000000000E+02  0.47000000000E+01 0. -1.
         -5    1    3    3    0  501 -0.25741823670E+02 -0.30253400934E+02  0.15687292289E-01  0.40000000000E+02  0.47000000000E+01 0.  1.
</event>
<event>
 5    1  0.4814700E-001  0.8000000E+02  0.7546771E-02  0.1203772E+00
         11   -1    0    0    0    0  0.00000000000E+00  0.00000000000E+00  0.40000000000E+02  0.40000000000E+02  0.00000000000E+00 0.  1.
        -11   -1    0    0    0    0 -0.00000000000E+00 -0.00000000000E+00 -0.40000000000E+02  0.40000000000E+02  0.00000000000E+00 0. -1.
         23    2    1    2    0    0  0.00000000000E+00  0.00000000000E+00  0.00000000000E+00  0.80000000000E+02  0.80000000000E+02 0.  0.
          5    1    3    3  501    0  0.28180580354E+02  0.17957337273E+02 -0.21477870681E+02  0.40000000000E+02  0.47000000000E+01 0. -1.
         -5    1    3    3    0  501 -0.28180580354E+02 -0.17957337273E+02  0.21477870681E+02  0.40000000000E+02  0.47000000000E+01 0.  1.
</event>
<event>
 5    1  0.4814700E-001  0.8000000E+02  0.7546771E-02  0.1203772E+00
         11   -1    0    0    0    0  0.00000000000E+00  0.00000000000E+00  0.40000000000E+02  0.40000000000E+02  0.00000000000E+00 0.  1.
        -11   -1    0    0    0    0 -0.00000000000E+00 -0.00000000000E+00 -0.40000000000E+02  0.40000000000E+02  0.00000000000E+00 0. -1.
         23    2    1    2    0    0  0.00000000000E+00  0.00000000000E+00  0.00000000000E+00  0.80000000000E+02  0.80000000000E+02 0.  0.
          5    1    3    3  501    0 -0.70642652995E+01 -0.35890280699E+02  0.15488508873E+02  0.40000000000E+02  0.47000000000E+01 0. -1.
         -5    1    3    3    0  501  0.70642652995E+01  0.35890280699E+02 -0.15488508873E+02  0.40000000000E+02  0.47000000000E+01 0.  1.
</event>
<event>
 5    1  0.4814700E-001  0.8000000E+02  0.7546771E-02  0.1203772E+00
         11   -1    0    0    0    0  0.00000000000E+00  0.00000000000E+00  0.40000000000E+02  0.40000000000E+02  0.00000000000E+00 0.  1.
        -11   -1    0    0    0    0 -0.00000000000E+00 -0.00000000000E+00 -0.40000000000E+02  0.40000000000E+02  0.00000000000E+00 0. -1.
         23    2    1    2    0    0  0.00000000000E+00  0.00000000000E+00  0.00000000000E+00  0.80000000000E+02  0.80000000000E+02 0.  0.
          5    1    3    3  501    0 -0.22217972995E+01  0.29251573151E+02 -0.26782813238E+02  0.40000000000E+02  0.47000000000E+01 0. -1.
         -5    1    3    3    0  501  0.22217972995E+01 -0.29251573151E+02  0.26782813238E+02  0.40000000000E+02  0.47000000000E+01 0.  1.
</event>
<event>
 5    1  0.4814700E-001  0.8000000E+02  0.7546771E-02  0.1203772E+00
         11   -1    0    0    0    0  0.00000000000E+00  0.00000000000E+00  0.40000000000E+02  0.40000000000E+02  0.00000000000E+00 0.  1.
        -11   -1    0    0    0    0 -0.00000000000E+00 -0.00000000000E+00 -0.40000000000E+02  0.40000000000E+02  0.00000000000E+00 0. -1.
         23    2    1    2    0    0  0.00000000000E+00  0.00000000000E+00  0.00000000000E+00  0.80000000000E+02  0.80000000000E+02 0.  0.
          5    1    3    3  501    0  0.68133453981E+01  0.30106260110E+02 -0.25002028452E+02  0.40000000000E+02  0.47000000000E+01 0. -1.
         -5    1    3    3    0  501 -0.68133453981E+01 -0.30106260110E+02  0.25002028452E+02  0.40000000000E+02  0.47000000000E+01 0.  1.
</event>
<event>
 5    1  0.4814700E-001  0.8000000E+02  0.7546771E-02  0.1203772E+00
         11   -1    0    0    0    0  0.00000000000E+00  0.00000000000E+00  0.40000000000E+02  0.40000000000E+02  0.00000000000E+00 0. -1.
        -11   -1    0    0    0    0 -0.00000000000E+00 -0.00000000000E+00 -0.40000000000E+02  0.40000000000E+02  0.00000000000E+00 0.  1.
         23    2    1    2    0    0  0.00000000000E+00  0.00000000000E+00  0.00000000000E+00  0.80000000000E+02  0.80000000000E+02 0.  0.
          5    1    3    3  501    0  0.31242072895E+02  0.16398375729E+02  0.18246538156E+02  0.40000000000E+02  0.47000000000E+01 0. -1.
         -5    1    3    3    0  501 -0.31242072895E+02 -0.16398375729E+02 -0.18246538156E+02  0.40000000000E+02  0.47000000000E+01 0.  1.
</event>
<event>
 5    1  0.4814700E-001  0.8000000E+02  0.7546771E-02  0.1203772E+00
         11   -1    0    0    0    0  0.00000000000E+00  0.00000000000E+00  0.40000000000E+02  0.40000000000E+02  0.00000000000E+00 0. -1.
        -11   -1    0    0    0    0 -0.00000000000E+00 -0.00000000000E+00 -0.40000000000E+02  0.40000000000E+02  0.00000000000E+00 0.  1.
         23    2    1    2    0    0  0.00000000000E+00  0.00000000000E+00  0.00000000000E+00  0.80000000000E+02  0.80000000000E+02 0.  0.
          5    1    3    3  501    0  0.13131902558E+02  0.67453194843E+01  0.36877687024E+02  0.40000000000E+02  0.47000000000E+01 0. -1.
         -5    1    3    3    0  501 -0.13131902558E+02 -0.67453194843E+01 -0.36877687024E+02  0.40000000000E+02  0.47000000000E+01 0.  1.
</event>
<event>
 5    1  0.4814700E-001  0.8000000E+02  0.7546771E-02  0.1203772E+00
         11   -1    0    0    0    0  0.00000000000E+00  0.00000000000E+00  0.40000000000E+02  0.40000000000E+02  0.00000000000E+00 0.  1.
        -11   -1    0    0    0    0 -0.00000000000E+00 -0.00000000000E+00 -0.40000000000E+02  0.40000000000E+02  0.00000000000E+00 0. -1.
         23    2    1    2    0    0  0.00000000000E+00  0.00000000000E+00  0.00000000000E+00  0.80000000000E+02  0.80000000000E+02 0.  0.
          5    1    3    3  501    0 -0.28723570999E+02  0.21002018164E+02 -0.17657341309E+02  0.40000000000E+02  0.47000000000E+01 0. -1.
         -5    1    3    3    0  501  0.28723570999E+02 -0.21002018164E+02  0.17657341309E+02  0.40000000000E+02  0.47000000000E+01 0.  1.
</event>
<event>
 5    1  0.4814700E-001  0.8000000E+02  0.7546771E-02  0.1203772E+00
         11   -1    0    0    0    0  0.00000000000E+00  0.00000000000E+00  0.40000000000E+02  0.40000000000E+02  0.00000000000E+00 0. -1.
        -11   -1    0    0    0    0 -0.00000000000E+00 -0.00000000000E+00 -0.40000000000E+02  0.40000000000E+02  0.00000000000E+00 0.  1.
         23    2    1    2    0    0  0.00000000000E+00  0.00000000000E+00  0.00000000000E+00  0.80000000000E+02  0.80000000000E+02 0.  0.
          5    1    3    3  501    0  0.12906362031E+02  0.24016144481E+02  0.28888762926E+02  0.40000000000E+02  0.47000000000E+01 0. -1.
         -5    1    3    3    0  501 -0.12906362031E+02 -0.24016144481E+02 -0.28888762926E+02  0.40000000000E+02  0.47000000000E+01 0.  1.
</event>
<event>
 5    1  0.4814700E-001  0.8000000E+02  0.7546771E-02  0.1203772E+00
         11   -1    0    0    0    0  0.00000000000E+00  0.00000000000E+00  0.40000000000E+02  0.40000000000E+02  0.00000000000E+00 0.  1.
        -11   -1    0    0    0    0 -0.00000000000E+00 -0.00000000000E+00 -0.40000000000E+02  0.40000000000E+02  0.00000000000E+00 0. -1.
         23    2    1    2    0    0  0.00000000000E+00  0.00000000000E+00  0.00000000000E+00  0.80000000000E+02  0.80000000000E+02 0.  0.
          5    1    3    3  501    0 -0.18767162698E+01 -0.36441523174E+02 -0.15697239401E+02  0.40000000000E+02  0.47000000000E+01 0. -1.
         -5    1    3    3    0  501  0.18767162698E+01  0.36441523174E+02  0.15697239401E+02  0.40000000000E+02  0.47000000000E+01 0.  1.
</event>
<event>
 5    1  0.4814700E-001  0.8000000E+02  0.7546771E-02  0.1203772E+00
         11   -1    0    0    0    0  0.00000000000E+00  0.00000000000E+00  0.40000000000E+02  0.40000000000E+02  0.00000000000E+00 0. -1.
        -11   -1    0    0    0    0 -0.00000000000E+00 -0.00000000000E+00 -0.40000000000E+02  0.40000000000E+02  0.00000000000E+00 0.  1.
         23    2    1    2    0    0  0.00000000000E+00  0.00000000000E+00  0.00000000000E+00  0.80000000000E+02  0.80000000000E+02 0.  0.
          5    1    3    3  501    0 -0.31261211754E+02 -0.23019807225E+02 -0.84104170504E+01  0.40000000000E+02  0.47000000000E+01 0. -1.
         -5    1    3    3    0  501  0.31261211754E+02  0.23019807225E+02  0.84104170504E+01  0.40000000000E+02  0.47000000000E+01 0.  1.
</event>
<event>
 5    1  0.4814700E-001  0.8000000E+02  0.7546771E-02  0.1203772E+00
         11   -1    0    0    0    0  0.00000000000E+00  0.00000000000E+00  0.40000000000E+02  0.40000000000E+02  0.00000000000E+00 0. -1.
        -11   -1    0    0    0    0 -0.00000000000E+00 -0.00000000000E+00 -0.40000000000E+02  0.40000000000E+02  0.00000000000E+00 0.  1.
         23    2    1    2    0    0  0.00000000000E+00  0.00000000000E+00  0.00000000000E+00  0.80000000000E+02  0.80000000000E+02 0.  0.
          5    1    3    3  501    0  0.18647368405E+02  0.34821463004E+02  0.42013528565E+01  0.40000000000E+02  0.47000000000E+01 0. -1.
         -5    1    3    3    0  501 -0.18647368405E+02 -0.34821463004E+02 -0.42013528565E+01  0.40000000000E+02  0.47000000000E+01 0.  1.
</event>
<event>
 5    1  0.4814700E-001  0.8000000E+02  0.7546771E-02  0.1203772E+00
         11   -1    0    0    0    0  0.00000000000E+00  0.00000000000E+00  0.40000000000E+02  0.40000000000E+02  0.00000000000E+00 0. -1.
        -11   -1    0    0    0    0 -0.00000000000E+00 -0.00000000000E+00 -0.40000000000E+02  0.40000000000E+02  0.00000000000E+00 0.  1.
         23    2    1    2    0    0  0.00000000000E+00  0.00000000000E+00  0.00000000000E+00  0.80000000000E+02  0.80000000000E+02 0.  0.
          5    1    3    3  501    0  0.21364536989E+02 -0.13348279347E+02  0.30713026515E+02  0.40000000000E+02  0.47000000000E+01 0. -1.
         -5    1    3    3    0  501 -0.21364536989E+02  0.13348279347E+02 -0.30713026515E+02  0.40000000000E+02  0.47000000000E+01 0.  1.
</event>
<event>
 5    1  0.4814700E-001  0.8000000E+02  0.7546771E-02  0.1203772E+00
         11   -1    0    0    0    0  0.00000000000E+00  0.00000000000E+00  0.40000000000E+02  0.40000000000E+02  0.00000000000E+00 0.  1.
        -11   -1    0    0    0    0 -0.00000000000E+00 -0.00000000000E+00 -0.40000000000E+02  0.40000000000E+02  0.00000000000E+00 0. -1.
         23    2    1    2    0    0  0.00000000000E+00  0.00000000000E+00  0.00000000000E+00  0.80000000000E+02  0.80000000000E+02 0.  0.
          5    1    3    3  501    0 -0.16313485802E+02 -0.27622221572E+02 -0.23426332543E+02  0.40000000000E+02  0.47000000000E+01 0. -1.
         -5    1    3    3    0  501  0.16313485802E+02  0.27622221572E+02  0.23426332543E+02  0.40000000000E+02  0.47000000000E+01 0.  1.
</event>
<event>
 5    1  0.4814700E-001  0.8000000E+02  0.7546771E-02  0.1203772E+00
         11   -1    0    0    0    0  0.00000000000E+00  0.00000000000E+00  0.40000000000E+02  0.40000000000E+02  0.00000000000E+00 0.  1.
        -11   -1    0    0    0    0 -0.00000000000E+00 -0.00000000000E+00 -0.40000000000E+02  0.40000000000E+02  0.00000000000E+00 0. -1.
         23    2    1    2    0    0  0.00000000000E+00  0.00000000000E+00  0.00000000000E+00  0.80000000000E+02  0.80000000000E+02 0.  0.
          5    1    3    3  501    0 -0.15760741221E+02 -0.23935056227E+01 -0.36383789893E+02  0.40000000000E+02  0.47000000000E+01 0. -1.
         -5    1    3    3    0  501  0.15760741221E+02  0.23935056227E+01  0.36383789893E+02  0.40000000000E+02  0.47000000000E+01 0.  1.
</event>
<event>
 5    1  0.4814700E-001  0.8000000E+02  0.7546771E-02  0.1203772E+00
         11   -1    0    0    0    0  0.00000000000E+00  0.00000000000E+00  0.40000000000E+02  0.40000000000E+02  0.00000000000E+00 0. -1.
        -11   -1    0    0    0    0 -0.00000000000E+00 -0.00000000000E+00 -0.40000000000E+02  0.40000000000E+02  0.00000000000E+00 0.  1.
         23    2    1    2    0    0  0.00000000000E+00  0.00000000000E+00  0.00000000000E+00  0.80000000000E+02  0.80000000000E+02 0.  0.
          5    1    3    3  501    0  0.23663508242E+02 -0.10951690879E+02  0.29966795701E+02  0.40000000000E+02  0.47000000000E+01 0. -1.
         -5    1    3    3    0  501 -0.23663508242E+02  0.10951690879E+02 -0.29966795701E+02  0.40000000000E+02  0.47000000000E+01 0.  1.
</event>
<event>
 5    1  0.4814700E-001  0.8000000E+02  0.7546771E-02  0.1203772E+00
         11   -1    0    0    0    0  0.00000000000E+00  0.00000000000E+00  0.40000000000E+02  0.40000000000E+02  0.00000000000E+00 0.  1.
        -11   -1    0    0    0    0 -0.00000000000E+00 -0.00000000000E+00 -0.40000000000E+02  0.40000000000E+02  0.00000000000E+00 0. -1.
         23    2    1    2    0    0  0.00000000000E+00  0.00000000000E+00  0.00000000000E+00  0.80000000000E+02  0.80000000000E+02 0.  0.
          5    1    3    3  501    0  0.20766662438E+02 -0.23655285954E+02 -0.24229799372E+02  0.40000000000E+02  0.47000000000E+01 0. -1.
         -5    1    3    3    0  501 -0.20766662438E+02  0.23655285954E+02  0.24229799372E+02  0.40000000000E+02  0.47000000000E+01 0.  1.
</event>
<event>
 5    1  0.4814700E-001  0.8000000E+02  0.7546771E-02  0.1203772E+00
         11   -1    0    0    0    0  0.00000000000E+00  0.00000000000E+00  0.40000000000E+02  0.40000000000E+02  0.00000000000E+00 0.  1.
        -11   -1    0    0    0    0 -0.00000000000E+00 -0.00000000000E+00 -0.40000000000E+02  0.40000000000E+02  0.00000000000E+00 0. -1.
         23    2    1    2    0    0  0.00000000000E+00  0.00000000000E+00  0.00000000000E+00  0.80000000000E+02  0.80000000000E+02 0.  0.
          5    1    3    3  501    0 -0.10320075989E+02  0.36573055184E+02 -0.11567958597E+02  0.40000000000E+02  0.47000000000E+01 0. -1.
         -5    1    3    3    0  501  0.10320075989E+02 -0.36573055184E+02  0.11567958597E+02  0.40000000000E+02  0.47000000000E+01 0.  1.
</event>
<event>
 5    1  0.4814700E-001  0.8000000E+02  0.7546771E-02  0.1203772E+00
         11   -1    0    0    0    0  0.00000000000E+00  0.00000000000E+00  0.40000000000E+02  0.40000000000E+02  0.00000000000E+00 0.  1.
        -11   -1    0    0    0    0 -0.00000000000E+00 -0.00000000000E+00 -0.40000000000E+02  0.40000000000E+02  0.00000000000E+00 0. -1.
         23    2    1    2    0    0  0.00000000000E+00  0.00000000000E+00  0.00000000000E+00  0.80000000000E+02  0.80000000000E+02 0.  0.
          5    1    3    3  501    0  0.31950528918E+02  0.79087262614E+01 -0.22237934949E+02  0.40000000000E+02  0.47000000000E+01 0. -1.
         -5    1    3    3    0  501 -0.31950528918E+02 -0.79087262614E+01  0.22237934949E+02  0.40000000000E+02  0.47000000000E+01 0.  1.
</event>
<event>
 5    1  0.4814700E-001  0.8000000E+02  0.7546771E-02  0.1203772E+00
         11   -1    0    0    0    0  0.00000000000E+00  0.00000000000E+00  0.40000000000E+02  0.40000000000E+02  0.00000000000E+00 0. -1.
        -11   -1    0    0    0    0 -0.00000000000E+00 -0.00000000000E+00 -0.40000000000E+02  0.40000000000E+02  0.00000000000E+00 0.  1.
         23    2    1    2    0    0  0.00000000000E+00  0.00000000000E+00  0.00000000000E+00  0.80000000000E+02  0.80000000000E+02 0.  0.
          5    1    3    3  501    0  0.93839315916E+01 -0.97035699788E+01 -0.37358968904E+02  0.40000000000E+02  0.47000000000E+01 0.  1.
         -5    1    3    3    0  501 -0.93839315916E+01  0.97035699788E+01  0.37358968904E+02  0.40000000000E+02  0.47000000000E+01 0. -1.
</event>
<event>
 5    1  0.4814700E-001  0.8000000E+02  0.7546771E-02  0.1203772E+00
         11   -1    0    0    0    0  0.00000000000E+00  0.00000000000E+00  0.40000000000E+02  0.40000000000E+02  0.00000000000E+00 0. -1.
        -11   -1    0    0    0    0 -0.00000000000E+00 -0.00000000000E+00 -0.40000000000E+02  0.40000000000E+02  0.00000000000E+00 0.  1.
         23    2    1    2    0    0  0.00000000000E+00  0.00000000000E+00  0.00000000000E+00  0.80000000000E+02  0.80000000000E+02 0.  0.
          5    1    3    3  501    0  0.44276843634E+01  0.25123260105E+02 -0.30448767018E+02  0.40000000000E+02  0.47000000000E+01 0.  1.
         -5    1    3    3    0  501 -0.44276843634E+01 -0.25123260105E+02  0.30448767018E+02  0.40000000000E+02  0.47000000000E+01 0. -1.
</event>
<event>
 5    1  0.4814700E-001  0.8000000E+02  0.7546771E-02  0.1203772E+00
         11   -1    0    0    0    0  0.00000000000E+00  0.00000000000E+00  0.40000000000E+02  0.40000000000E+02  0.00000000000E+00 0.  1.
        -11   -1    0    0    0    0 -0.00000000000E+00 -0.00000000000E+00 -0.40000000000E+02  0.40000000000E+02  0.00000000000E+00 0. -1.
         23    2    1    2    0    0  0.00000000000E+00  0.00000000000E+00  0.00000000000E+00  0.80000000000E+02  0.80000000000E+02 0.  0.
          5    1    3    3  501    0  0.36621999692E+02  0.15269014385E+02 -0.18964013972E+01  0.40000000000E+02  0.47000000000E+01 0. -1.
         -5    1    3    3    0  501 -0.36621999692E+02 -0.15269014385E+02  0.18964013972E+01  0.40000000000E+02  0.47000000000E+01 0.  1.
</event>
<event>
 5    1  0.4814700E-001  0.8000000E+02  0.7546771E-02  0.1203772E+00
         11   -1    0    0    0    0  0.00000000000E+00  0.00000000000E+00  0.40000000000E+02  0.40000000000E+02  0.00000000000E+00 0. -1.
        -11   -1    0    0    0    0 -0.00000000000E+00 -0.00000000000E+00 -0.40000000000E+02  0.40000000000E+02  0.00000000000E+00 0.  1.
         23    2    1    2    0    0  0.00000000000E+00  0.00000000000E+00  0.00000000000E+00  0.80000000000E+02  0.80000000000E+02 0.  0.
          5    1    3    3  501    0  0.14764985798E+01  0.31822944926E+02 -0.23728255903E+02  0.40000000000E+02  0.47000000000E+01 0.  1.
         -5    1    3    3    0  501 -0.14764985798E+01 -0.31822944926E+02  0.23728255903E+02  0.40000000000E+02  0.47000000000E+01 0. -1.
</event>
<event>
 5    1  0.4814700E-001  0.8000000E+02  0.7546771E-02  0.1203772E+00
         11   -1    0    0    0    0  0.00000000000E+00  0.00000000000E+00  0.40000000000E+02  0.40000000000E+02  0.00000000000E+00 0.  1.
        -11   -1    0    0    0    0 -0.00000000000E+00 -0.00000000000E+00 -0.40000000000E+02  0.40000000000E+02  0.00000000000E+00 0. -1.
         23    2    1    2    0    0  0.00000000000E+00  0.00000000000E+00  0.00000000000E+00  0.80000000000E+02  0.80000000000E+02 0.  0.
          5    1    3    3  501    0 -0.24898708235E+02  0.28072926245E+02 -0.13033615778E+02  0.40000000000E+02  0.47000000000E+01 0. -1.
         -5    1    3    3    0  501  0.24898708235E+02 -0.28072926245E+02  0.13033615778E+02  0.40000000000E+02  0.47000000000E+01 0.  1.
</event>
<event>
 5    1  0.4814700E-001  0.8000000E+02  0.7546771E-02  0.1203772E+00
         11   -1    0    0    0    0  0.00000000000E+00  0.00000000000E+00  0.40000000000E+02  0.40000000000E+02  0.00000000000E+00 0.  1.
        -11   -1    0    0    0    0 -0.00000000000E+00 -0.00000000000E+00 -0.40000000000E+02  0.40000000000E+02  0.00000000000E+00 0. -1.
         23    2    1    2    0    0  0.00000000000E+00  0.00000000000E+00  0.00000000000E+00  0.80000000000E+02  0.80000000000E+02 0.  0.
          5    1    3    3  501    0 -0.21895602996E+02 -0.19630773290E+02 -0.26704406181E+02  0.40000000000E+02  0.47000000000E+01 0. -1.
         -5    1    3    3    0  501  0.21895602996E+02  0.19630773290E+02  0.26704406181E+02  0.40000000000E+02  0.47000000000E+01 0.  1.
</event>
<event>
 5    1  0.4814700E-001  0.8000000E+02  0.7546771E-02  0.1203772E+00
         11   -1    0    0    0    0  0.00000000000E+00  0.00000000000E+00  0.40000000000E+02  0.40000000000E+02  0.00000000000E+00 0.  1.
        -11   -1    0    0    0    0 -0.00000000000E+00 -0.00000000000E+00 -0.40000000000E+02  0.40000000000E+02  0.00000000000E+00 0. -1.
         23    2    1    2    0    0  0.00000000000E+00  0.00000000000E+00  0.00000000000E+00  0.80000000000E+02  0.80000000000E+02 0.  0.
          5    1    3    3  501    0  0.51854433951E+01 -0.18176902284E+02 -0.34937392578E+02  0.40000000000E+02  0.47000000000E+01 0. -1.
         -5    1    3    3    0  501 -0.51854433951E+01  0.18176902284E+02  0.34937392578E+02  0.40000000000E+02  0.47000000000E+01 0.  1.
</event>
<event>
 5    1  0.4814700E-001  0.8000000E+02  0.7546771E-02  0.1203772E+00
         11   -1    0    0    0    0  0.00000000000E+00  0.00000000000E+00  0.40000000000E+02  0.40000000000E+02  0.00000000000E+00 0.  1.
        -11   -1    0    0    0    0 -0.00000000000E+00 -0.00000000000E+00 -0.40000000000E+02  0.40000000000E+02  0.00000000000E+00 0. -1.
         23    2    1    2    0    0  0.00000000000E+00  0.00000000000E+00  0.00000000000E+00  0.80000000000E+02  0.80000000000E+02 0.  0.
          5    1    3    3  501    0  0.76753558346E+01  0.27754663116E+02 -0.27361973396E+02  0.40000000000E+02  0.47000000000E+01 0. -1.
         -5    1    3    3    0  501 -0.76753558346E+01 -0.27754663116E+02  0.27361973396E+02  0.40000000000E+02  0.47000000000E+01 0.  1.
</event>
<event>
 5    1  0.4814700E-001  0.8000000E+02  0.7546771E-02  0.1203772E+00
         11   -1    0    0    0    0  0.00000000000E+00  0.00000000000E+00  0.40000000000E+02  0.40000000000E+02  0.00000000000E+00 0.  1.
        -11   -1    0    0    0    0 -0.00000000000E+00 -0.00000000000E+00 -0.40000000000E+02  0.40000000000E+02  0.00000000000E+00 0. -1.
         23    2    1    2    0    0  0.00000000000E+00  0.00000000000E+00  0.00000000000E+00  0.80000000000E+02  0.80000000000E+02 0.  0.
          5    1    3    3  501    0  0.33837048226E+02 -0.32922786796E+01 -0.20545682478E+02  0.40000000000E+02  0.47000000000E+01 0. -1.
         -5    1    3    3    0  501 -0.33837048226E+02  0.32922786796E+01  0.20545682478E+02  0.40000000000E+02  0.47000000000E+01 0.  1.
</event>
<event>
 5    1  0.4814700E-001  0.8000000E+02  0.7546771E-02  0.1203772E+00
         11   -1    0    0    0    0  0.00000000000E+00  0.00000000000E+00  0.40000000000E+02  0.40000000000E+02  0.00000000000E+00 0.  1.
        -11   -1    0    0    0    0 -0.00000000000E+00 -0.00000000000E+00 -0.40000000000E+02  0.40000000000E+02  0.00000000000E+00 0. -1.
         23    2    1    2    0    0  0.00000000000E+00  0.00000000000E+00  0.00000000000E+00  0.80000000000E+02  0.80000000000E+02 0.  0.
          5    1    3    3  501    0 -0.15690796089E+02 -0.21367745520E+02 -0.29582568676E+02  0.40000000000E+02  0.47000000000E+01 0. -1.
         -5    1    3    3    0  501  0.15690796089E+02  0.21367745520E+02  0.29582568676E+02  0.40000000000E+02  0.47000000000E+01 0.  1.
</event>
<event>
 5    1  0.4814700E-001  0.8000000E+02  0.7546771E-02  0.1203772E+00
         11   -1    0    0    0    0  0.00000000000E+00  0.00000000000E+00  0.40000000000E+02  0.40000000000E+02  0.00000000000E+00 0.  1.
        -11   -1    0    0    0    0 -0.00000000000E+00 -0.00000000000E+00 -0.40000000000E+02  0.40000000000E+02  0.00000000000E+00 0. -1.
         23    2    1    2    0    0  0.00000000000E+00  0.00000000000E+00  0.00000000000E+00  0.80000000000E+02  0.80000000000E+02 0.  0.
          5    1    3    3  501    0  0.53391804349E+01  0.10152161490E+02 -0.38030734536E+02  0.40000000000E+02  0.47000000000E+01 0. -1.
         -5    1    3    3    0  501 -0.53391804349E+01 -0.10152161490E+02  0.38030734536E+02  0.40000000000E+02  0.47000000000E+01 0.  1.
</event>
<event>
 5    1  0.4814700E-001  0.8000000E+02  0.7546771E-02  0.1203772E+00
         11   -1    0    0    0    0  0.00000000000E+00  0.00000000000E+00  0.40000000000E+02  0.40000000000E+02  0.00000000000E+00 0.  1.
        -11   -1    0    0    0    0 -0.00000000000E+00 -0.00000000000E+00 -0.40000000000E+02  0.40000000000E+02  0.00000000000E+00 0. -1.
         23    2    1    2    0    0  0.00000000000E+00  0.00000000000E+00  0.00000000000E+00  0.80000000000E+02  0.80000000000E+02 0.  0.
          5    1    3    3  501    0  0.26727179020E+02 -0.91744796555E+01 -0.27917679428E+02  0.40000000000E+02  0.47000000000E+01 0. -1.
         -5    1    3    3    0  501 -0.26727179020E+02  0.91744796555E+01  0.27917679428E+02  0.40000000000E+02  0.47000000000E+01 0.  1.
</event>
<event>
 5    1  0.4814700E-001  0.8000000E+02  0.7546771E-02  0.1203772E+00
         11   -1    0    0    0    0  0.00000000000E+00  0.00000000000E+00  0.40000000000E+02  0.40000000000E+02  0.00000000000E+00 0.  1.
        -11   -1    0    0    0    0 -0.00000000000E+00 -0.00000000000E+00 -0.40000000000E+02  0.40000000000E+02  0.00000000000E+00 0. -1.
         23    2    1    2    0    0  0.00000000000E+00  0.00000000000E+00  0.00000000000E+00  0.80000000000E+02  0.80000000000E+02 0.  0.
          5    1    3    3  501    0  0.53399851709E+01  0.38007255814E+02  0.10239290203E+02  0.40000000000E+02  0.47000000000E+01 0. -1.
         -5    1    3    3    0  501 -0.53399851709E+01 -0.38007255814E+02 -0.10239290203E+02  0.40000000000E+02  0.47000000000E+01 0.  1.
</event>
<event>
 5    1  0.4814700E-001  0.8000000E+02  0.7546771E-02  0.1203772E+00
         11   -1    0    0    0    0  0.00000000000E+00  0.00000000000E+00  0.40000000000E+02  0.40000000000E+02  0.00000000000E+00 0. -1.
        -11   -1    0    0    0    0 -0.00000000000E+00 -0.00000000000E+00 -0.40000000000E+02  0.40000000000E+02  0.00000000000E+00 0.  1.
         23    2    1    2    0    0  0.00000000000E+00  0.00000000000E+00  0.00000000000E+00  0.80000000000E+02  0.80000000000E+02 0.  0.
          5    1    3    3  501    0 -0.34444640289E+02  0.89666841471E+00  0.19765443105E+02  0.40000000000E+02  0.47000000000E+01 0. -1.
         -5    1    3    3    0  501  0.34444640289E+02 -0.89666841471E+00 -0.19765443105E+02  0.40000000000E+02  0.47000000000E+01 0.  1.
</event>
<event>
 5    1  0.4814700E-001  0.8000000E+02  0.7546771E-02  0.1203772E+00
         11   -1    0    0    0    0  0.00000000000E+00  0.00000000000E+00  0.40000000000E+02  0.40000000000E+02  0.00000000000E+00 0.  1.
        -11   -1    0    0    0    0 -0.00000000000E+00 -0.00000000000E+00 -0.40000000000E+02  0.40000000000E+02  0.00000000000E+00 0. -1.
         23    2    1    2    0    0  0.00000000000E+00  0.00000000000E+00  0.00000000000E+00  0.80000000000E+02  0.80000000000E+02 0.  0.
          5    1    3    3  501    0  0.36907747251E+02  0.13076555658E+02  0.66881899625E+01  0.40000000000E+02  0.47000000000E+01 0. -1.
         -5    1    3    3    0  501 -0.36907747251E+02 -0.13076555658E+02 -0.66881899625E+01  0.40000000000E+02  0.47000000000E+01 0.  1.
</event>
<event>
 5    1  0.4814700E-001  0.8000000E+02  0.7546771E-02  0.1203772E+00
         11   -1    0    0    0    0  0.00000000000E+00  0.00000000000E+00  0.40000000000E+02  0.40000000000E+02  0.00000000000E+00 0.  1.
        -11   -1    0    0    0    0 -0.00000000000E+00 -0.00000000000E+00 -0.40000000000E+02  0.40000000000E+02  0.00000000000E+00 0. -1.
         23    2    1    2    0    0  0.00000000000E+00  0.00000000000E+00  0.00000000000E+00  0.80000000000E+02  0.80000000000E+02 0.  0.
          5    1    3    3  501    0  0.12738288949E+02 -0.20880327294E+02 -0.31299487643E+02  0.40000000000E+02  0.47000000000E+01 0. -1.
         -5    1    3    3    0  501 -0.12738288949E+02  0.20880327294E+02  0.31299487643E+02  0.40000000000E+02  0.47000000000E+01 0.  1.
</event>
<event>
 5    1  0.4814700E-001  0.8000000E+02  0.7546771E-02  0.1203772E+00
         11   -1    0    0    0    0  0.00000000000E+00  0.00000000000E+00  0.40000000000E+02  0.40000000000E+02  0.00000000000E+00 0.  1.
        -11   -1    0    0    0    0 -0.00000000000E+00 -0.00000000000E+00 -0.40000000000E+02  0.40000000000E+02  0.00000000000E+00 0. -1.
         23    2    1    2    0    0  0.00000000000E+00  0.00000000000E+00  0.00000000000E+00  0.80000000000E+02  0.80000000000E+02 0.  0.
          5    1    3    3  501    0 -0.56410529393E+01 -0.37913794814E+02  0.10422700444E+02  0.40000000000E+02  0.47000000000E+01 0. -1.
         -5    1    3    3    0  501  0.56410529393E+01  0.37913794814E+02 -0.10422700444E+02  0.40000000000E+02  0.47000000000E+01 0.  1.
</event>
<event>
 5    1  0.4814700E-001  0.8000000E+02  0.7546771E-02  0.1203772E+00
         11   -1    0    0    0    0  0.00000000000E+00  0.00000000000E+00  0.40000000000E+02  0.40000000000E+02  0.00000000000E+00 0. -1.
        -11   -1    0    0    0    0 -0.00000000000E+00 -0.00000000000E+00 -0.40000000000E+02  0.40000000000E+02  0.00000000000E+00 0.  1.
         23    2    1    2    0    0  0.00000000000E+00  0.00000000000E+00  0.00000000000E+00  0.80000000000E+02  0.80000000000E+02 0.  0.
          5    1    3    3  501    0  0.66655618608E+01  0.33707781901E+02  0.19931525892E+02  0.40000000000E+02  0.47000000000E+01 0. -1.
         -5    1    3    3    0  501 -0.66655618608E+01 -0.33707781901E+02 -0.19931525892E+02  0.40000000000E+02  0.47000000000E+01 0.  1.
</event>
<event>
 5    1  0.4814700E-001  0.8000000E+02  0.7546771E-02  0.1203772E+00
         11   -1    0    0    0    0  0.00000000000E+00  0.00000000000E+00  0.40000000000E+02  0.40000000000E+02  0.00000000000E+00 0. -1.
        -11   -1    0    0    0    0 -0.00000000000E+00 -0.00000000000E+00 -0.40000000000E+02  0.40000000000E+02  0.00000000000E+00 0.  1.
         23    2    1    2    0    0  0.00000000000E+00  0.00000000000E+00  0.00000000000E+00  0.80000000000E+02  0.80000000000E+02 0.  0.
          5    1    3    3  501    0  0.27970558478E+02  0.10469809698E+02  0.26190474286E+02  0.40000000000E+02  0.47000000000E+01 0. -1.
         -5    1    3    3    0  501 -0.27970558478E+02 -0.10469809698E+02 -0.26190474286E+02  0.40000000000E+02  0.47000000000E+01 0.  1.
</event>
<event>
 5    1  0.4814700E-001  0.8000000E+02  0.7546771E-02  0.1203772E+00
         11   -1    0    0    0    0  0.00000000000E+00  0.00000000000E+00  0.40000000000E+02  0.40000000000E+02  0.00000000000E+00 0.  1.
        -11   -1    0    0    0    0 -0.00000000000E+00 -0.00000000000E+00 -0.40000000000E+02  0.40000000000E+02  0.00000000000E+00 0. -1.
         23    2    1    2    0    0  0.00000000000E+00  0.00000000000E+00  0.00000000000E+00  0.80000000000E+02  0.80000000000E+02 0.  0.
          5    1    3    3  501    0 -0.58994271671E+01 -0.12916285750E+02 -0.37098198360E+02  0.40000000000E+02  0.47000000000E+01 0. -1.
         -5    1    3    3    0  501  0.58994271671E+01  0.12916285750E+02  0.37098198360E+02  0.40000000000E+02  0.47000000000E+01 0.  1.
</event>
<event>
 5    1  0.4814700E-001  0.8000000E+02  0.7546771E-02  0.1203772E+00
         11   -1    0    0    0    0  0.00000000000E+00  0.00000000000E+00  0.40000000000E+02  0.40000000000E+02  0.00000000000E+00 0. -1.
        -11   -1    0    0    0    0 -0.00000000000E+00 -0.00000000000E+00 -0.40000000000E+02  0.40000000000E+02  0.00000000000E+00 0.  1.
         23    2    1    2    0    0  0.00000000000E+00  0.00000000000E+00  0.00000000000E+00  0.80000000000E+02  0.80000000000E+02 0.  0.
          5    1    3    3  501    0  0.20052601591E+02 -0.34170439769E+02  0.28608067852E+01  0.40000000000E+02  0.47000000000E+01 0. -1.
         -5    1    3    3    0  501 -0.20052601591E+02  0.34170439769E+02 -0.28608067852E+01  0.40000000000E+02  0.47000000000E+01 0.  1.
</event>
<event>
 5    1  0.4814700E-001  0.8000000E+02  0.7546771E-02  0.1203772E+00
         11   -1    0    0    0    0  0.00000000000E+00  0.00000000000E+00  0.40000000000E+02  0.40000000000E+02  0.00000000000E+00 0.  1.
        -11   -1    0    0    0    0 -0.00000000000E+00 -0.00000000000E+00 -0.40000000000E+02  0.40000000000E+02  0.00000000000E+00 0. -1.
         23    2    1    2    0    0  0.00000000000E+00  0.00000000000E+00  0.00000000000E+00  0.80000000000E+02  0.80000000000E+02 0.  0.
          5    1    3    3  501    0  0.16272515742E+02  0.17568928174E+02 -0.31693027533E+02  0.40000000000E+02  0.47000000000E+01 0. -1.
         -5    1    3    3    0  501 -0.16272515742E+02 -0.17568928174E+02  0.31693027533E+02  0.40000000000E+02  0.47000000000E+01 0.  1.
</event>
<event>
 5    1  0.4814700E-001  0.8000000E+02  0.7546771E-02  0.1203772E+00
         11   -1    0    0    0    0  0.00000000000E+00  0.00000000000E+00  0.40000000000E+02  0.40000000000E+02  0.00000000000E+00 0.  1.
        -11   -1    0    0    0    0 -0.00000000000E+00 -0.00000000000E+00 -0.40000000000E+02  0.40000000000E+02  0.00000000000E+00 0. -1.
         23    2    1    2    0    0  0.00000000000E+00  0.00000000000E+00  0.00000000000E+00  0.80000000000E+02  0.80000000000E+02 0.  0.
          5    1    3    3  501    0 -0.27619778473E+02  0.27651123884E+02 -0.71044482595E+01  0.40000000000E+02  0.47000000000E+01 0. -1.
         -5    1    3    3    0  501  0.27619778473E+02 -0.27651123884E+02  0.71044482595E+01  0.40000000000E+02  0.47000000000E+01 0.  1.
</event>
<event>
 5    1  0.4814700E-001  0.8000000E+02  0.7546771E-02  0.1203772E+00
         11   -1    0    0    0    0  0.00000000000E+00  0.00000000000E+00  0.40000000000E+02  0.40000000000E+02  0.00000000000E+00 0.  1.
        -11   -1    0    0    0    0 -0.00000000000E+00 -0.00000000000E+00 -0.40000000000E+02  0.40000000000E+02  0.00000000000E+00 0. -1.
         23    2    1    2    0    0  0.00000000000E+00  0.00000000000E+00  0.00000000000E+00  0.80000000000E+02  0.80000000000E+02 0.  0.
          5    1    3    3  501    0 -0.24883735802E+02 -0.17121653784E+02 -0.25798423678E+02  0.40000000000E+02  0.47000000000E+01 0. -1.
         -5    1    3    3    0  501  0.24883735802E+02  0.17121653784E+02  0.25798423678E+02  0.40000000000E+02  0.47000000000E+01 0.  1.
</event>
<event>
 5    1  0.4814700E-001  0.8000000E+02  0.7546771E-02  0.1203772E+00
         11   -1    0    0    0    0  0.00000000000E+00  0.00000000000E+00  0.40000000000E+02  0.40000000000E+02  0.00000000000E+00 0.  1.
        -11   -1    0    0    0    0 -0.00000000000E+00 -0.00000000000E+00 -0.40000000000E+02  0.40000000000E+02  0.00000000000E+00 0. -1.
         23    2    1    2    0    0  0.00000000000E+00  0.00000000000E+00  0.00000000000E+00  0.80000000000E+02  0.80000000000E+02 0.  0.
          5    1    3    3  501    0 -0.24438806999E+02  0.31275426761E+02 -0.15818954902E+01  0.40000000000E+02  0.47000000000E+01 0. -1.
         -5    1    3    3    0  501  0.24438806999E+02 -0.31275426761E+02  0.15818954902E+01  0.40000000000E+02  0.47000000000E+01 0.  1.
</event>
<event>
 5    1  0.4814700E-001  0.8000000E+02  0.7546771E-02  0.1203772E+00
         11   -1    0    0    0    0  0.00000000000E+00  0.00000000000E+00  0.40000000000E+02  0.40000000000E+02  0.00000000000E+00 0. -1.
        -11   -1    0    0    0    0 -0.00000000000E+00 -0.00000000000E+00 -0.40000000000E+02  0.40000000000E+02  0.00000000000E+00 0.  1.
         23    2    1    2    0    0  0.00000000000E+00  0.00000000000E+00  0.00000000000E+00  0.80000000000E+02  0.80000000000E+02 0.  0.
          5    1    3    3  501    0 -0.26582428880E+02 -0.11922452563E+02  0.27002585056E+02  0.40000000000E+02  0.47000000000E+01 0. -1.
         -5    1    3    3    0  501  0.26582428880E+02  0.11922452563E+02 -0.27002585056E+02  0.40000000000E+02  0.47000000000E+01 0.  1.
</event>
<event>
 5    1  0.4814700E-001  0.8000000E+02  0.7546771E-02  0.1203772E+00
         11   -1    0    0    0    0  0.00000000000E+00  0.00000000000E+00  0.40000000000E+02  0.40000000000E+02  0.00000000000E+00 0.  1.
        -11   -1    0    0    0    0 -0.00000000000E+00 -0.00000000000E+00 -0.40000000000E+02  0.40000000000E+02  0.00000000000E+00 0. -1.
         23    2    1    2    0    0  0.00000000000E+00  0.00000000000E+00  0.00000000000E+00  0.80000000000E+02  0.80000000000E+02 0.  0.
          5    1    3    3  501    0 -0.29121979440E+02  0.25297247679E+02 -0.94799564011E+01  0.40000000000E+02  0.47000000000E+01 0. -1.
         -5    1    3    3    0  501  0.29121979440E+02 -0.25297247679E+02  0.94799564011E+01  0.40000000000E+02  0.47000000000E+01 0.  1.
</event>
<event>
 5    1  0.4814700E-001  0.8000000E+02  0.7546771E-02  0.1203772E+00
         11   -1    0    0    0    0  0.00000000000E+00  0.00000000000E+00  0.40000000000E+02  0.40000000000E+02  0.00000000000E+00 0.  1.
        -11   -1    0    0    0    0 -0.00000000000E+00 -0.00000000000E+00 -0.40000000000E+02  0.40000000000E+02  0.00000000000E+00 0. -1.
         23    2    1    2    0    0  0.00000000000E+00  0.00000000000E+00  0.00000000000E+00  0.80000000000E+02  0.80000000000E+02 0.  0.
          5    1    3    3  501    0 -0.20839287820E+02  0.20122686628E+01 -0.33757737750E+02  0.40000000000E+02  0.47000000000E+01 0. -1.
         -5    1    3    3    0  501  0.20839287820E+02 -0.20122686628E+01  0.33757737750E+02  0.40000000000E+02  0.47000000000E+01 0.  1.
</event>
<event>
 5    1  0.4814700E-001  0.8000000E+02  0.7546771E-02  0.1203772E+00
         11   -1    0    0    0    0  0.00000000000E+00  0.00000000000E+00  0.40000000000E+02  0.40000000000E+02  0.00000000000E+00 0.  1.
        -11   -1    0    0    0    0 -0.00000000000E+00 -0.00000000000E+00 -0.40000000000E+02  0.40000000000E+02  0.00000000000E+00 0. -1.
         23    2    1    2    0    0  0.00000000000E+00  0.00000000000E+00  0.00000000000E+00  0.80000000000E+02  0.80000000000E+02 0.  0.
          5    1    3    3  501    0  0.83965576179E+01 -0.34685600440E+02 -0.17444682350E+02  0.40000000000E+02  0.47000000000E+01 0. -1.
         -5    1    3    3    0  501 -0.83965576179E+01  0.34685600440E+02  0.17444682350E+02  0.40000000000E+02  0.47000000000E+01 0.  1.
</event>
<event>
 5    1  0.4814700E-001  0.8000000E+02  0.7546771E-02  0.1203772E+00
         11   -1    0    0    0    0  0.00000000000E+00  0.00000000000E+00  0.40000000000E+02  0.40000000000E+02  0.00000000000E+00 0. -1.
        -11   -1    0    0    0    0 -0.00000000000E+00 -0.00000000000E+00 -0.40000000000E+02  0.40000000000E+02  0.00000000000E+00 0.  1.
         23    2    1    2    0    0  0.00000000000E+00  0.00000000000E+00  0.00000000000E+00  0.80000000000E+02  0.80000000000E+02 0.  0.
          5    1    3    3  501    0 -0.38025218499E+02 -0.72144297934E+01  0.89411834129E+01  0.40000000000E+02  0.47000000000E+01 0.  1.
         -5    1    3    3    0  501  0.38025218499E+02  0.72144297934E+01 -0.89411834129E+01  0.40000000000E+02  0.47000000000E+01 0. -1.
</event>
<event>
 5    1  0.4814700E-001  0.8000000E+02  0.7546771E-02  0.1203772E+00
         11   -1    0    0    0    0  0.00000000000E+00  0.00000000000E+00  0.40000000000E+02  0.40000000000E+02  0.00000000000E+00 0. -1.
        -11   -1    0    0    0    0 -0.00000000000E+00 -0.00000000000E+00 -0.40000000000E+02  0.40000000000E+02  0.00000000000E+00 0.  1.
         23    2    1    2    0    0  0.00000000000E+00  0.00000000000E+00  0.00000000000E+00  0.80000000000E+02  0.80000000000E+02 0.  0.
          5    1    3    3  501    0  0.23173440287E+02 -0.28202596461E+02  0.15668925238E+02  0.40000000000E+02  0.47000000000E+01 0. -1.
         -5    1    3    3    0  501 -0.23173440287E+02  0.28202596461E+02 -0.15668925238E+02  0.40000000000E+02  0.47000000000E+01 0.  1.
</event>
<event>
 5    1  0.4814700E-001  0.8000000E+02  0.7546771E-02  0.1203772E+00
         11   -1    0    0    0    0  0.00000000000E+00  0.00000000000E+00  0.40000000000E+02  0.40000000000E+02  0.00000000000E+00 0.  1.
        -11   -1    0    0    0    0 -0.00000000000E+00 -0.00000000000E+00 -0.40000000000E+02  0.40000000000E+02  0.00000000000E+00 0. -1.
         23    2    1    2    0    0  0.00000000000E+00  0.00000000000E+00  0.00000000000E+00  0.80000000000E+02  0.80000000000E+02 0.  0.
          5    1    3    3  501    0  0.16167124638E+02 -0.10307822695E+02 -0.34789120027E+02  0.40000000000E+02  0.47000000000E+01 0. -1.
         -5    1    3    3    0  501 -0.16167124638E+02  0.10307822695E+02  0.34789120027E+02  0.40000000000E+02  0.47000000000E+01 0.  1.
</event>
<event>
 5    1  0.4814700E-001  0.8000000E+02  0.7546771E-02  0.1203772E+00
         11   -1    0    0    0    0  0.00000000000E+00  0.00000000000E+00  0.40000000000E+02  0.40000000000E+02  0.00000000000E+00 0. -1.
        -11   -1    0    0    0    0 -0.00000000000E+00 -0.00000000000E+00 -0.40000000000E+02  0.40000000000E+02  0.00000000000E+00 0.  1.
         23    2    1    2    0    0  0.00000000000E+00  0.00000000000E+00  0.00000000000E+00  0.80000000000E+02  0.80000000000E+02 0.  0.
          5    1    3    3  501    0 -0.33001073067E+02 -0.20267342405E+02  0.88359497648E+01  0.40000000000E+02  0.47000000000E+01 0. -1.
         -5    1    3    3    0  501  0.33001073067E+02  0.20267342405E+02 -0.88359497648E+01  0.40000000000E+02  0.47000000000E+01 0.  1.
</event>
<event>
 5    1  0.4814700E-001  0.8000000E+02  0.7546771E-02  0.1203772E+00
         11   -1    0    0    0    0  0.00000000000E+00  0.00000000000E+00  0.40000000000E+02  0.40000000000E+02  0.00000000000E+00 0.  1.
        -11   -1    0    0    0    0 -0.00000000000E+00 -0.00000000000E+00 -0.40000000000E+02  0.40000000000E+02  0.00000000000E+00 0. -1.
         23    2    1    2    0    0  0.00000000000E+00  0.00000000000E+00  0.00000000000E+00  0.80000000000E+02  0.80000000000E+02 0.  0.
          5    1    3    3  501    0  0.13494890516E+02 -0.17122056683E+02 -0.33205919727E+02  0.40000000000E+02  0.47000000000E+01 0. -1.
         -5    1    3    3    0  501 -0.13494890516E+02  0.17122056683E+02  0.33205919727E+02  0.40000000000E+02  0.47000000000E+01 0.  1.
</event>
<event>
 5    1  0.4814700E-001  0.8000000E+02  0.7546771E-02  0.1203772E+00
         11   -1    0    0    0    0  0.00000000000E+00  0.00000000000E+00  0.40000000000E+02  0.40000000000E+02  0.00000000000E+00 0. -1.
        -11   -1    0    0    0    0 -0.00000000000E+00 -0.00000000000E+00 -0.40000000000E+02  0.40000000000E+02  0.00000000000E+00 0.  1.
         23    2    1    2    0    0  0.00000000000E+00  0.00000000000E+00  0.00000000000E+00  0.80000000000E+02  0.80000000000E+02 0.  0.
          5    1    3    3  501    0  0.11478280805E+02 -0.37723688948E+02  0.48044106711E+01  0.40000000000E+02  0.47000000000E+01 0. -1.
         -5    1    3    3    0  501 -0.11478280805E+02  0.37723688948E+02 -0.48044106711E+01  0.40000000000E+02  0.47000000000E+01 0.  1.
</event>
<event>
 5    1  0.4814700E-001  0.8000000E+02  0.7546771E-02  0.1203772E+00
         11   -1    0    0    0    0  0.00000000000E+00  0.00000000000E+00  0.40000000000E+02  0.40000000000E+02  0.00000000000E+00 0. -1.
        -11   -1    0    0    0    0 -0.00000000000E+00 -0.00000000000E+00 -0.40000000000E+02  0.40000000000E+02  0.00000000000E+00 0.  1.
         23    2    1    2    0    0  0.00000000000E+00  0.00000000000E+00  0.00000000000E+00  0.80000000000E+02  0.80000000000E+02 0.  0.
          5    1    3    3  501    0  0.83207325213E+01  0.18778740273E+02  0.34000504762E+02  0.40000000000E+02  0.47000000000E+01 0. -1.
         -5    1    3    3    0  501 -0.83207325213E+01 -0.18778740273E+02 -0.34000504762E+02  0.40000000000E+02  0.47000000000E+01 0.  1.
</event>
<event>
 5    1  0.4814700E-001  0.8000000E+02  0.7546771E-02  0.1203772E+00
         11   -1    0    0    0    0  0.00000000000E+00  0.00000000000E+00  0.40000000000E+02  0.40000000000E+02  0.00000000000E+00 0.  1.
        -11   -1    0    0    0    0 -0.00000000000E+00 -0.00000000000E+00 -0.40000000000E+02  0.40000000000E+02  0.00000000000E+00 0. -1.
         23    2    1    2    0    0  0.00000000000E+00  0.00000000000E+00  0.00000000000E+00  0.80000000000E+02  0.80000000000E+02 0.  0.
          5    1    3    3  501    0  0.36084352581E+02 -0.44522860389E+01 -0.16000207743E+02  0.40000000000E+02  0.47000000000E+01 0. -1.
         -5    1    3    3    0  501 -0.36084352581E+02  0.44522860389E+01  0.16000207743E+02  0.40000000000E+02  0.47000000000E+01 0.  1.
</event>
<event>
 5    1  0.4814700E-001  0.8000000E+02  0.7546771E-02  0.1203772E+00
         11   -1    0    0    0    0  0.00000000000E+00  0.00000000000E+00  0.40000000000E+02  0.40000000000E+02  0.00000000000E+00 0. -1.
        -11   -1    0    0    0    0 -0.00000000000E+00 -0.00000000000E+00 -0.40000000000E+02  0.40000000000E+02  0.00000000000E+00 0.  1.
         23    2    1    2    0    0  0.00000000000E+00  0.00000000000E+00  0.00000000000E+00  0.80000000000E+02  0.80000000000E+02 0.  0.
          5    1    3    3  501    0 -0.12163767756E+02 -0.37238120890E+02 -0.65783817615E+01  0.40000000000E+02  0.47000000000E+01 0. -1.
         -5    1    3    3    0  501  0.12163767756E+02  0.37238120890E+02  0.65783817615E+01  0.40000000000E+02  0.47000000000E+01 0.  1.
</event>
<event>
 5    1  0.4814700E-001  0.8000000E+02  0.7546771E-02  0.1203772E+00
         11   -1    0    0    0    0  0.00000000000E+00  0.00000000000E+00  0.40000000000E+02  0.40000000000E+02  0.00000000000E+00 0. -1.
        -11   -1    0    0    0    0 -0.00000000000E+00 -0.00000000000E+00 -0.40000000000E+02  0.40000000000E+02  0.00000000000E+00 0.  1.
         23    2    1    2    0    0  0.00000000000E+00  0.00000000000E+00  0.00000000000E+00  0.80000000000E+02  0.80000000000E+02 0.  0.
          5    1    3    3  501    0 -0.38273587027E+02  0.27527603989E+01  0.10269607893E+02  0.40000000000E+02  0.47000000000E+01 0. -1.
         -5    1    3    3    0  501  0.38273587027E+02 -0.27527603989E+01 -0.10269607893E+02  0.40000000000E+02  0.47000000000E+01 0.  1.
</event>
<event>
 5    1  0.4814700E-001  0.8000000E+02  0.7546771E-02  0.1203772E+00
         11   -1    0    0    0    0  0.00000000000E+00  0.00000000000E+00  0.40000000000E+02  0.40000000000E+02  0.00000000000E+00 0. -1.
        -11   -1    0    0    0    0 -0.00000000000E+00 -0.00000000000E+00 -0.40000000000E+02  0.40000000000E+02  0.00000000000E+00 0.  1.
         23    2    1    2    0    0  0.00000000000E+00  0.00000000000E+00  0.00000000000E+00  0.80000000000E+02  0.80000000000E+02 0.  0.
          5    1    3    3  501    0 -0.21647303354E+02 -0.92182099422E+00  0.33293460372E+02  0.40000000000E+02  0.47000000000E+01 0. -1.
         -5    1    3    3    0  501  0.21647303354E+02  0.92182099422E+00 -0.33293460372E+02  0.40000000000E+02  0.47000000000E+01 0.  1.
</event>
<event>
 5    1  0.4814700E-001  0.8000000E+02  0.7546771E-02  0.1203772E+00
         11   -1    0    0    0    0  0.00000000000E+00  0.00000000000E+00  0.40000000000E+02  0.40000000000E+02  0.00000000000E+00 0.  1.
        -11   -1    0    0    0    0 -0.00000000000E+00 -0.00000000000E+00 -0.40000000000E+02  0.40000000000E+02  0.00000000000E+00 0. -1.
         23    2    1    2    0    0  0.00000000000E+00  0.00000000000E+00  0.00000000000E+00  0.80000000000E+02  0.80000000000E+02 0.  0.
          5    1    3    3  501    0 -0.24645323099E+02 -0.21367042979E+02 -0.22670851851E+02  0.40000000000E+02  0.47000000000E+01 0. -1.
         -5    1    3    3    0  501  0.24645323099E+02  0.21367042979E+02  0.22670851851E+02  0.40000000000E+02  0.47000000000E+01 0.  1.
</event>
<event>
 5    1  0.4814700E-001  0.8000000E+02  0.7546771E-02  0.1203772E+00
         11   -1    0    0    0    0  0.00000000000E+00  0.00000000000E+00  0.40000000000E+02  0.40000000000E+02  0.00000000000E+00 0.  1.
        -11   -1    0    0    0    0 -0.00000000000E+00 -0.00000000000E+00 -0.40000000000E+02  0.40000000000E+02  0.00000000000E+00 0. -1.
         23    2    1    2    0    0  0.00000000000E+00  0.00000000000E+00  0.00000000000E+00  0.80000000000E+02  0.80000000000E+02 0.  0.
          5    1    3    3  501    0  0.37068443406E+02 -0.26166579837E+01 -0.14035441013E+02  0.40000000000E+02  0.47000000000E+01 0. -1.
         -5    1    3    3    0  501 -0.37068443406E+02  0.26166579837E+01  0.14035441013E+02  0.40000000000E+02  0.47000000000E+01 0.  1.
</event>
<event>
 5    1  0.4814700E-001  0.8000000E+02  0.7546771E-02  0.1203772E+00
         11   -1    0    0    0    0  0.00000000000E+00  0.00000000000E+00  0.40000000000E+02  0.40000000000E+02  0.00000000000E+00 0. -1.
        -11   -1    0    0    0    0 -0.00000000000E+00 -0.00000000000E+00 -0.40000000000E+02  0.40000000000E+02  0.00000000000E+00 0.  1.
         23    2    1    2    0    0  0.00000000000E+00  0.00000000000E+00  0.00000000000E+00  0.80000000000E+02  0.80000000000E+02 0.  0.
          5    1    3    3  501    0 -0.33234397375E+02  0.12320160034E+02  0.17933167257E+02  0.40000000000E+02  0.47000000000E+01 0.  1.
         -5    1    3    3    0  501  0.33234397375E+02 -0.12320160034E+02 -0.17933167257E+02  0.40000000000E+02  0.47000000000E+01 0. -1.
</event>
<event>
 5    1  0.4814700E-001  0.8000000E+02  0.7546771E-02  0.1203772E+00
         11   -1    0    0    0    0  0.00000000000E+00  0.00000000000E+00  0.40000000000E+02  0.40000000000E+02  0.00000000000E+00 0.  1.
        -11   -1    0    0    0    0 -0.00000000000E+00 -0.00000000000E+00 -0.40000000000E+02  0.40000000000E+02  0.00000000000E+00 0. -1.
         23    2    1    2    0    0  0.00000000000E+00  0.00000000000E+00  0.00000000000E+00  0.80000000000E+02  0.80000000000E+02 0.  0.
          5    1    3    3  501    0 -0.93633335196E+01  0.48533359847E+01 -0.38297299059E+02  0.40000000000E+02  0.47000000000E+01 0. -1.
         -5    1    3    3    0  501  0.93633335196E+01 -0.48533359847E+01  0.38297299059E+02  0.40000000000E+02  0.47000000000E+01 0.  1.
</event>
<event>
 5    1  0.4814700E-001  0.8000000E+02  0.7546771E-02  0.1203772E+00
         11   -1    0    0    0    0  0.00000000000E+00  0.00000000000E+00  0.40000000000E+02  0.40000000000E+02  0.00000000000E+00 0.  1.
        -11   -1    0    0    0    0 -0.00000000000E+00 -0.00000000000E+00 -0.40000000000E+02  0.40000000000E+02  0.00000000000E+00 0. -1.
         23    2    1    2    0    0  0.00000000000E+00  0.00000000000E+00  0.00000000000E+00  0.80000000000E+02  0.80000000000E+02 0.  0.
          5    1    3    3  501    0  0.29342457047E+02  0.24735941462E+02 -0.10250044606E+02  0.40000000000E+02  0.47000000000E+01 0. -1.
         -5    1    3    3    0  501 -0.29342457047E+02 -0.24735941462E+02  0.10250044606E+02  0.40000000000E+02  0.47000000000E+01 0.  1.
</event>
<event>
 5    1  0.4814700E-001  0.8000000E+02  0.7546771E-02  0.1203772E+00
         11   -1    0    0    0    0  0.00000000000E+00  0.00000000000E+00  0.40000000000E+02  0.40000000000E+02  0.00000000000E+00 0. -1.
        -11   -1    0    0    0    0 -0.00000000000E+00 -0.00000000000E+00 -0.40000000000E+02  0.40000000000E+02  0.00000000000E+00 0.  1.
         23    2    1    2    0    0  0.00000000000E+00  0.00000000000E+00  0.00000000000E+00  0.80000000000E+02  0.80000000000E+02 0.  0.
          5    1    3    3  501    0 -0.36872501534E+02 -0.61422099369E+01  0.13438820175E+02  0.40000000000E+02  0.47000000000E+01 0. -1.
         -5    1    3    3    0  501  0.36872501534E+02  0.61422099369E+01 -0.13438820175E+02  0.40000000000E+02  0.47000000000E+01 0.  1.
</event>
<event>
 5    1  0.4814700E-001  0.8000000E+02  0.7546771E-02  0.1203772E+00
         11   -1    0    0    0    0  0.00000000000E+00  0.00000000000E+00  0.40000000000E+02  0.40000000000E+02  0.00000000000E+00 0.  1.
        -11   -1    0    0    0    0 -0.00000000000E+00 -0.00000000000E+00 -0.40000000000E+02  0.40000000000E+02  0.00000000000E+00 0. -1.
         23    2    1    2    0    0  0.00000000000E+00  0.00000000000E+00  0.00000000000E+00  0.80000000000E+02  0.80000000000E+02 0.  0.
          5    1    3    3  501    0 -0.14826711680E+02  0.28168509999E+01 -0.36744305289E+02  0.40000000000E+02  0.47000000000E+01 0. -1.
         -5    1    3    3    0  501  0.14826711680E+02 -0.28168509999E+01  0.36744305289E+02  0.40000000000E+02  0.47000000000E+01 0.  1.
</event>
<event>
 5    1  0.4814700E-001  0.8000000E+02  0.7546771E-02  0.1203772E+00
         11   -1    0    0    0    0  0.00000000000E+00  0.00000000000E+00  0.40000000000E+02  0.40000000000E+02  0.00000000000E+00 0.  1.
        -11   -1    0    0    0    0 -0.00000000000E+00 -0.00000000000E+00 -0.40000000000E+02  0.40000000000E+02  0.00000000000E+00 0. -1.
         23    2    1    2    0    0  0.00000000000E+00  0.00000000000E+00  0.00000000000E+00  0.80000000000E+02  0.80000000000E+02 0.  0.
          5    1    3    3  501    0  0.19189058499E+02 -0.34592966725E+02  0.36078646177E+01  0.40000000000E+02  0.47000000000E+01 0. -1.
         -5    1    3    3    0  501 -0.19189058499E+02  0.34592966725E+02 -0.36078646177E+01  0.40000000000E+02  0.47000000000E+01 0.  1.
</event>
<event>
 5    1  0.4814700E-001  0.8000000E+02  0.7546771E-02  0.1203772E+00
         11   -1    0    0    0    0  0.00000000000E+00  0.00000000000E+00  0.40000000000E+02  0.40000000000E+02  0.00000000000E+00 0. -1.
        -11   -1    0    0    0    0 -0.00000000000E+00 -0.00000000000E+00 -0.40000000000E+02  0.40000000000E+02  0.00000000000E+00 0.  1.
         23    2    1    2    0    0  0.00000000000E+00  0.00000000000E+00  0.00000000000E+00  0.80000000000E+02  0.80000000000E+02 0.  0.
          5    1    3    3  501    0 -0.28883488953E+01 -0.57454555360E+01  0.39198943625E+02  0.40000000000E+02  0.47000000000E+01 0. -1.
         -5    1    3    3    0  501  0.28883488953E+01  0.57454555360E+01 -0.39198943625E+02  0.40000000000E+02  0.47000000000E+01 0.  1.
</event>
<event>
 5    1  0.4814700E-001  0.8000000E+02  0.7546771E-02  0.1203772E+00
         11   -1    0    0    0    0  0.00000000000E+00  0.00000000000E+00  0.40000000000E+02  0.40000000000E+02  0.00000000000E+00 0.  1.
        -11   -1    0    0    0    0 -0.00000000000E+00 -0.00000000000E+00 -0.40000000000E+02  0.40000000000E+02  0.00000000000E+00 0. -1.
         23    2    1    2    0    0  0.00000000000E+00  0.00000000000E+00  0.00000000000E+00  0.80000000000E+02  0.80000000000E+02 0.  0.
          5    1    3    3  501    0 -0.38752131225E+01  0.14174070924E+02 -0.36905127512E+02  0.40000000000E+02  0.47000000000E+01 0. -1.
         -5    1    3    3    0  501  0.38752131225E+01 -0.14174070924E+02  0.36905127512E+02  0.40000000000E+02  0.47000000000E+01 0.  1.
</event>
<event>
 5    1  0.4814700E-001  0.8000000E+02  0.7546771E-02  0.1203772E+00
         11   -1    0    0    0    0  0.00000000000E+00  0.00000000000E+00  0.40000000000E+02  0.40000000000E+02  0.00000000000E+00 0.  1.
        -11   -1    0    0    0    0 -0.00000000000E+00 -0.00000000000E+00 -0.40000000000E+02  0.40000000000E+02  0.00000000000E+00 0. -1.
         23    2    1    2    0    0  0.00000000000E+00  0.00000000000E+00  0.00000000000E+00  0.80000000000E+02  0.80000000000E+02 0.  0.
          5    1    3    3  501    0  0.72823655779E+01  0.34079487338E+02  0.19064776274E+02  0.40000000000E+02  0.47000000000E+01 0. -1.
         -5    1    3    3    0  501 -0.72823655779E+01 -0.34079487338E+02 -0.19064776274E+02  0.40000000000E+02  0.47000000000E+01 0.  1.
</event>
<event>
 5    1  0.4814700E-001  0.8000000E+02  0.7546771E-02  0.1203772E+00
         11   -1    0    0    0    0  0.00000000000E+00  0.00000000000E+00  0.40000000000E+02  0.40000000000E+02  0.00000000000E+00 0. -1.
        -11   -1    0    0    0    0 -0.00000000000E+00 -0.00000000000E+00 -0.40000000000E+02  0.40000000000E+02  0.00000000000E+00 0.  1.
         23    2    1    2    0    0  0.00000000000E+00  0.00000000000E+00  0.00000000000E+00  0.80000000000E+02  0.80000000000E+02 0.  0.
          5    1    3    3  501    0  0.28185309327E+02  0.11914743392E+02  0.25328585197E+02  0.40000000000E+02  0.47000000000E+01 0. -1.
         -5    1    3    3    0  501 -0.28185309327E+02 -0.11914743392E+02 -0.25328585197E+02  0.40000000000E+02  0.47000000000E+01 0.  1.
</event>
<event>
 5    1  0.4814700E-001  0.8000000E+02  0.7546771E-02  0.1203772E+00
         11   -1    0    0    0    0  0.00000000000E+00  0.00000000000E+00  0.40000000000E+02  0.40000000000E+02  0.00000000000E+00 0. -1.
        -11   -1    0    0    0    0 -0.00000000000E+00 -0.00000000000E+00 -0.40000000000E+02  0.40000000000E+02  0.00000000000E+00 0.  1.
         23    2    1    2    0    0  0.00000000000E+00  0.00000000000E+00  0.00000000000E+00  0.80000000000E+02  0.80000000000E+02 0.  0.
          5    1    3    3  501    0 -0.20490656319E+02 -0.16807037323E+02  0.29589972965E+02  0.40000000000E+02  0.47000000000E+01 0. -1.
         -5    1    3    3    0  501  0.20490656319E+02  0.16807037323E+02 -0.29589972965E+02  0.40000000000E+02  0.47000000000E+01 0.  1.
</event>
<event>
 5    1  0.4814700E-001  0.8000000E+02  0.7546771E-02  0.1203772E+00
         11   -1    0    0    0    0  0.00000000000E+00  0.00000000000E+00  0.40000000000E+02  0.40000000000E+02  0.00000000000E+00 0. -1.
        -11   -1    0    0    0    0 -0.00000000000E+00 -0.00000000000E+00 -0.40000000000E+02  0.40000000000E+02  0.00000000000E+00 0.  1.
         23    2    1    2    0    0  0.00000000000E+00  0.00000000000E+00  0.00000000000E+00  0.80000000000E+02  0.80000000000E+02 0.  0.
          5    1    3    3  501    0  0.36208170998E+00 -0.34377165931E+02  0.19899481385E+02  0.40000000000E+02  0.47000000000E+01 0. -1.
         -5    1    3    3    0  501 -0.36208170998E+00  0.34377165931E+02 -0.19899481385E+02  0.40000000000E+02  0.47000000000E+01 0.  1.
</event>
<event>
 5    1  0.4814700E-001  0.8000000E+02  0.7546771E-02  0.1203772E+00
         11   -1    0    0    0    0  0.00000000000E+00  0.00000000000E+00  0.40000000000E+02  0.40000000000E+02  0.00000000000E+00 0. -1.
        -11   -1    0    0    0    0 -0.00000000000E+00 -0.00000000000E+00 -0.40000000000E+02  0.40000000000E+02  0.00000000000E+00 0.  1.
         23    2    1    2    0    0  0.00000000000E+00  0.00000000000E+00  0.00000000000E+00  0.80000000000E+02  0.80000000000E+02 0.  0.
          5    1    3    3  501    0  0.25187157921E+02 -0.19034057474E+02  0.24108540644E+02  0.40000000000E+02  0.47000000000E+01 0. -1.
         -5    1    3    3    0  501 -0.25187157921E+02  0.19034057474E+02 -0.24108540644E+02  0.40000000000E+02  0.47000000000E+01 0.  1.
</event>
<event>
 5    1  0.4814700E-001  0.8000000E+02  0.7546771E-02  0.1203772E+00
         11   -1    0    0    0    0  0.00000000000E+00  0.00000000000E+00  0.40000000000E+02  0.40000000000E+02  0.00000000000E+00 0.  1.
        -11   -1    0    0    0    0 -0.00000000000E+00 -0.00000000000E+00 -0.40000000000E+02  0.40000000000E+02  0.00000000000E+00 0. -1.
         23    2    1    2    0    0  0.00000000000E+00  0.00000000000E+00  0.00000000000E+00  0.80000000000E+02  0.80000000000E+02 0.  0.
          5    1    3    3  501    0  0.21980006387E+02 -0.19961361808E+02 -0.26388129035E+02  0.40000000000E+02  0.47000000000E+01 0. -1.
         -5    1    3    3    0  501 -0.21980006387E+02  0.19961361808E+02  0.26388129035E+02  0.40000000000E+02  0.47000000000E+01 0.  1.
</event>
<event>
 5    1  0.4814700E-001  0.8000000E+02  0.7546771E-02  0.1203772E+00
         11   -1    0    0    0    0  0.00000000000E+00  0.00000000000E+00  0.40000000000E+02  0.40000000000E+02  0.00000000000E+00 0.  1.
        -11   -1    0    0    0    0 -0.00000000000E+00 -0.00000000000E+00 -0.40000000000E+02  0.40000000000E+02  0.00000000000E+00 0. -1.
         23    2    1    2    0    0  0.00000000000E+00  0.00000000000E+00  0.00000000000E+00  0.80000000000E+02  0.80000000000E+02 0.  0.
          5    1    3    3  501    0 -0.33592982046E+02 -0.95470847153E+01 -0.18928146520E+02  0.40000000000E+02  0.47000000000E+01 0. -1.
         -5    1    3    3    0  501  0.33592982046E+02  0.95470847153E+01  0.18928146520E+02  0.40000000000E+02  0.47000000000E+01 0.  1.
</event>
<event>
 5    1  0.4814700E-001  0.8000000E+02  0.7546771E-02  0.1203772E+00
         11   -1    0    0    0    0  0.00000000000E+00  0.00000000000E+00  0.40000000000E+02  0.40000000000E+02  0.00000000000E+00 0.  1.
        -11   -1    0    0    0    0 -0.00000000000E+00 -0.00000000000E+00 -0.40000000000E+02  0.40000000000E+02  0.00000000000E+00 0. -1.
         23    2    1    2    0    0  0.00000000000E+00  0.00000000000E+00  0.00000000000E+00  0.80000000000E+02  0.80000000000E+02 0.  0.
          5    1    3    3  501    0 -0.32691465141E+01  0.11393283903E+02 -0.37913266319E+02  0.40000000000E+02  0.47000000000E+01 0. -1.
         -5    1    3    3    0  501  0.32691465141E+01 -0.11393283903E+02  0.37913266319E+02  0.40000000000E+02  0.47000000000E+01 0.  1.
</event>
<event>
 5    1  0.4814700E-001  0.8000000E+02  0.7546771E-02  0.1203772E+00
         11   -1    0    0    0    0  0.00000000000E+00  0.00000000000E+00  0.40000000000E+02  0.40000000000E+02  0.00000000000E+00 0. -1.
        -11   -1    0    0    0    0 -0.00000000000E+00 -0.00000000000E+00 -0.40000000000E+02  0.40000000000E+02  0.00000000000E+00 0.  1.
         23    2    1    2    0    0  0.00000000000E+00  0.00000000000E+00  0.00000000000E+00  0.80000000000E+02  0.80000000000E+02 0.  0.
          5    1    3    3  501    0 -0.29824490028E+02  0.15615533591E+02 -0.21084707853E+02  0.40000000000E+02  0.47000000000E+01 0. -1.
         -5    1    3    3    0  501  0.29824490028E+02 -0.15615533591E+02  0.21084707853E+02  0.40000000000E+02  0.47000000000E+01 0.  1.
</event>
<event>
 5    1  0.4814700E-001  0.8000000E+02  0.7546771E-02  0.1203772E+00
         11   -1    0    0    0    0  0.00000000000E+00  0.00000000000E+00  0.40000000000E+02  0.40000000000E+02  0.00000000000E+00 0. -1.
        -11   -1    0    0    0    0 -0.00000000000E+00 -0.00000000000E+00 -0.40000000000E+02  0.40000000000E+02  0.00000000000E+00 0.  1.
         23    2    1    2    0    0  0.00000000000E+00  0.00000000000E+00  0.00000000000E+00  0.80000000000E+02  0.80000000000E+02 0.  0.
          5    1    3    3  501    0  0.29525128144E+02  0.26262464761E+02  0.40570620849E+01  0.40000000000E+02  0.47000000000E+01 0. -1.
         -5    1    3    3    0  501 -0.29525128144E+02 -0.26262464761E+02 -0.40570620849E+01  0.40000000000E+02  0.47000000000E+01 0.  1.
</event>
<event>
 5    1  0.4814700E-001  0.8000000E+02  0.7546771E-02  0.1203772E+00
         11   -1    0    0    0    0  0.00000000000E+00  0.00000000000E+00  0.40000000000E+02  0.40000000000E+02  0.00000000000E+00 0.  1.
        -11   -1    0    0    0    0 -0.00000000000E+00 -0.00000000000E+00 -0.40000000000E+02  0.40000000000E+02  0.00000000000E+00 0. -1.
         23    2    1    2    0    0  0.00000000000E+00  0.00000000000E+00  0.00000000000E+00  0.80000000000E+02  0.80000000000E+02 0.  0.
          5    1    3    3  501    0  0.10811301009E+02  0.27956680479E+02 -0.26066257634E+02  0.40000000000E+02  0.47000000000E+01 0. -1.
         -5    1    3    3    0  501 -0.10811301009E+02 -0.27956680479E+02  0.26066257634E+02  0.40000000000E+02  0.47000000000E+01 0.  1.
</event>
<event>
 5    1  0.4814700E-001  0.8000000E+02  0.7546771E-02  0.1203772E+00
         11   -1    0    0    0    0  0.00000000000E+00  0.00000000000E+00  0.40000000000E+02  0.40000000000E+02  0.00000000000E+00 0. -1.
        -11   -1    0    0    0    0 -0.00000000000E+00 -0.00000000000E+00 -0.40000000000E+02  0.40000000000E+02  0.00000000000E+00 0.  1.
         23    2    1    2    0    0  0.00000000000E+00  0.00000000000E+00  0.00000000000E+00  0.80000000000E+02  0.80000000000E+02 0.  0.
          5    1    3    3  501    0 -0.32033345392E+01  0.18738498314E+02  0.34878608469E+02  0.40000000000E+02  0.47000000000E+01 0. -1.
         -5    1    3    3    0  501  0.32033345392E+01 -0.18738498314E+02 -0.34878608469E+02  0.40000000000E+02  0.47000000000E+01 0.  1.
</event>
<event>
 5    1  0.4814700E-001  0.8000000E+02  0.7546771E-02  0.1203772E+00
         11   -1    0    0    0    0  0.00000000000E+00  0.00000000000E+00  0.40000000000E+02  0.40000000000E+02  0.00000000000E+00 0. -1.
        -11   -1    0    0    0    0 -0.00000000000E+00 -0.00000000000E+00 -0.40000000000E+02  0.40000000000E+02  0.00000000000E+00 0.  1.
         23    2    1    2    0    0  0.00000000000E+00  0.00000000000E+00  0.00000000000E+00  0.80000000000E+02  0.80000000000E+02 0.  0.
          5    1    3    3  501    0 -0.14974332351E+02  0.13003366448E+02  0.34417899873E+02  0.40000000000E+02  0.47000000000E+01 0. -1.
         -5    1    3    3    0  501  0.14974332351E+02 -0.13003366448E+02 -0.34417899873E+02  0.40000000000E+02  0.47000000000E+01 0.  1.
</event>
<event>
 5    1  0.4814700E-001  0.8000000E+02  0.7546771E-02  0.1203772E+00
         11   -1    0    0    0    0  0.00000000000E+00  0.00000000000E+00  0.40000000000E+02  0.40000000000E+02  0.00000000000E+00 0. -1.
        -11   -1    0    0    0    0 -0.00000000000E+00 -0.00000000000E+00 -0.40000000000E+02  0.40000000000E+02  0.00000000000E+00 0.  1.
         23    2    1    2    0    0  0.00000000000E+00  0.00000000000E+00  0.00000000000E+00  0.80000000000E+02  0.80000000000E+02 0.  0.
          5    1    3    3  501    0 -0.13572961575E+02  0.32183534105E+02  0.18918373254E+02  0.40000000000E+02  0.47000000000E+01 0. -1.
         -5    1    3    3    0  501  0.13572961575E+02 -0.32183534105E+02 -0.18918373254E+02  0.40000000000E+02  0.47000000000E+01 0.  1.
</event>
<event>
 5    1  0.4814700E-001  0.8000000E+02  0.7546771E-02  0.1203772E+00
         11   -1    0    0    0    0  0.00000000000E+00  0.00000000000E+00  0.40000000000E+02  0.40000000000E+02  0.00000000000E+00 0. -1.
        -11   -1    0    0    0    0 -0.00000000000E+00 -0.00000000000E+00 -0.40000000000E+02  0.40000000000E+02  0.00000000000E+00 0.  1.
         23    2    1    2    0    0  0.00000000000E+00  0.00000000000E+00  0.00000000000E+00  0.80000000000E+02  0.80000000000E+02 0.  0.
          5    1    3    3  501    0 -0.21742805778E+02  0.83188511542E+01  0.32186287645E+02  0.40000000000E+02  0.47000000000E+01 0. -1.
         -5    1    3    3    0  501  0.21742805778E+02 -0.83188511542E+01 -0.32186287645E+02  0.40000000000E+02  0.47000000000E+01 0.  1.
</event>
<event>
 5    1  0.4814700E-001  0.8000000E+02  0.7546771E-02  0.1203772E+00
         11   -1    0    0    0    0  0.00000000000E+00  0.00000000000E+00  0.40000000000E+02  0.40000000000E+02  0.00000000000E+00 0. -1.
        -11   -1    0    0    0    0 -0.00000000000E+00 -0.00000000000E+00 -0.40000000000E+02  0.40000000000E+02  0.00000000000E+00 0.  1.
         23    2    1    2    0    0  0.00000000000E+00  0.00000000000E+00  0.00000000000E+00  0.80000000000E+02  0.80000000000E+02 0.  0.
          5    1    3    3  501    0 -0.31214107764E+02 -0.87589529854E+01  0.22953653720E+02  0.40000000000E+02  0.47000000000E+01 0. -1.
         -5    1    3    3    0  501  0.31214107764E+02  0.87589529854E+01 -0.22953653720E+02  0.40000000000E+02  0.47000000000E+01 0.  1.
</event>
<event>
 5    1  0.4814700E-001  0.8000000E+02  0.7546771E-02  0.1203772E+00
         11   -1    0    0    0    0  0.00000000000E+00  0.00000000000E+00  0.40000000000E+02  0.40000000000E+02  0.00000000000E+00 0.  1.
        -11   -1    0    0    0    0 -0.00000000000E+00 -0.00000000000E+00 -0.40000000000E+02  0.40000000000E+02  0.00000000000E+00 0. -1.
         23    2    1    2    0    0  0.00000000000E+00  0.00000000000E+00  0.00000000000E+00  0.80000000000E+02  0.80000000000E+02 0.  0.
          5    1    3    3  501    0  0.11390243102E+01 -0.30169397276E+02 -0.25815113627E+02  0.40000000000E+02  0.47000000000E+01 0. -1.
         -5    1    3    3    0  501 -0.11390243102E+01  0.30169397276E+02  0.25815113627E+02  0.40000000000E+02  0.47000000000E+01 0.  1.
</event>
<event>
 5    1  0.4814700E-001  0.8000000E+02  0.7546771E-02  0.1203772E+00
         11   -1    0    0    0    0  0.00000000000E+00  0.00000000000E+00  0.40000000000E+02  0.40000000000E+02  0.00000000000E+00 0.  1.
        -11   -1    0    0    0    0 -0.00000000000E+00 -0.00000000000E+00 -0.40000000000E+02  0.40000000000E+02  0.00000000000E+00 0. -1.
         23    2    1    2    0    0  0.00000000000E+00  0.00000000000E+00  0.00000000000E+00  0.80000000000E+02  0.80000000000E+02 0.  0.
          5    1    3    3  501    0 -0.12908849730E+02  0.92776637518E+01 -0.36403249222E+02  0.40000000000E+02  0.47000000000E+01 0. -1.
         -5    1    3    3    0  501  0.12908849730E+02 -0.92776637518E+01  0.36403249222E+02  0.40000000000E+02  0.47000000000E+01 0.  1.
</event>
<event>
 5    1  0.4814700E-001  0.8000000E+02  0.7546771E-02  0.1203772E+00
         11   -1    0    0    0    0  0.00000000000E+00  0.00000000000E+00  0.40000000000E+02  0.40000000000E+02  0.00000000000E+00 0. -1.
        -11   -1    0    0    0    0 -0.00000000000E+00 -0.00000000000E+00 -0.40000000000E+02  0.40000000000E+02  0.00000000000E+00 0.  1.
         23    2    1    2    0    0  0.00000000000E+00  0.00000000000E+00  0.00000000000E+00  0.80000000000E+02  0.80000000000E+02 0.  0.
          5    1    3    3  501    0 -0.69019099719E+01 -0.33494871818E+02  0.20208097402E+02  0.40000000000E+02  0.47000000000E+01 0. -1.
         -5    1    3    3    0  501  0.69019099719E+01  0.33494871818E+02 -0.20208097402E+02  0.40000000000E+02  0.47000000000E+01 0.  1.
</event>
<event>
 5    1  0.4814700E-001  0.8000000E+02  0.7546771E-02  0.1203772E+00
         11   -1    0    0    0    0  0.00000000000E+00  0.00000000000E+00  0.40000000000E+02  0.40000000000E+02  0.00000000000E+00 0. -1.
        -11   -1    0    0    0    0 -0.00000000000E+00 -0.00000000000E+00 -0.40000000000E+02  0.40000000000E+02  0.00000000000E+00 0.  1.
         23    2    1    2    0    0  0.00000000000E+00  0.00000000000E+00  0.00000000000E+00  0.80000000000E+02  0.80000000000E+02 0.  0.
          5    1    3    3  501    0 -0.55433004151E+01 -0.32670292361E+02 -0.21905109394E+02  0.40000000000E+02  0.47000000000E+01 0. -1.
         -5    1    3    3    0  501  0.55433004151E+01  0.32670292361E+02  0.21905109394E+02  0.40000000000E+02  0.47000000000E+01 0.  1.
</event>
<event>
 5    1  0.4814700E-001  0.8000000E+02  0.7546771E-02  0.1203772E+00
         11   -1    0    0    0    0  0.00000000000E+00  0.00000000000E+00  0.40000000000E+02  0.40000000000E+02  0.00000000000E+00 0. -1.
        -11   -1    0    0    0    0 -0.00000000000E+00 -0.00000000000E+00 -0.40000000000E+02  0.40000000000E+02  0.00000000000E+00 0.  1.
         23    2    1    2    0    0  0.00000000000E+00  0.00000000000E+00  0.00000000000E+00  0.80000000000E+02  0.80000000000E+02 0.  0.
          5    1    3    3  501    0  0.45967353168E+01  0.31119017671E+01  0.39333142410E+02  0.40000000000E+02  0.47000000000E+01 0. -1.
         -5    1    3    3    0  501 -0.45967353168E+01 -0.31119017671E+01 -0.39333142410E+02  0.40000000000E+02  0.47000000000E+01 0.  1.
</event>
<event>
 5    1  0.4814700E-001  0.8000000E+02  0.7546771E-02  0.1203772E+00
         11   -1    0    0    0    0  0.00000000000E+00  0.00000000000E+00  0.40000000000E+02  0.40000000000E+02  0.00000000000E+00 0. -1.
        -11   -1    0    0    0    0 -0.00000000000E+00 -0.00000000000E+00 -0.40000000000E+02  0.40000000000E+02  0.00000000000E+00 0.  1.
         23    2    1    2    0    0  0.00000000000E+00  0.00000000000E+00  0.00000000000E+00  0.80000000000E+02  0.80000000000E+02 0.  0.
          5    1    3    3  501    0  0.23540005822E+02  0.31601854412E+02 -0.50100821976E+01  0.40000000000E+02  0.47000000000E+01 0. -1.
         -5    1    3    3    0  501 -0.23540005822E+02 -0.31601854412E+02  0.50100821976E+01  0.40000000000E+02  0.47000000000E+01 0.  1.
</event>
<event>
 5    1  0.4814700E-001  0.8000000E+02  0.7546771E-02  0.1203772E+00
         11   -1    0    0    0    0  0.00000000000E+00  0.00000000000E+00  0.40000000000E+02  0.40000000000E+02  0.00000000000E+00 0. -1.
        -11   -1    0    0    0    0 -0.00000000000E+00 -0.00000000000E+00 -0.40000000000E+02  0.40000000000E+02  0.00000000000E+00 0.  1.
         23    2    1    2    0    0  0.00000000000E+00  0.00000000000E+00  0.00000000000E+00  0.80000000000E+02  0.80000000000E+02 0.  0.
          5    1    3    3  501    0 -0.60511090875E+01  0.33685000803E+02  0.20164691907E+02  0.40000000000E+02  0.47000000000E+01 0. -1.
         -5    1    3    3    0  501  0.60511090875E+01 -0.33685000803E+02 -0.20164691907E+02  0.40000000000E+02  0.47000000000E+01 0.  1.
</event>
<event>
 5    1  0.4814700E-001  0.8000000E+02  0.7546771E-02  0.1203772E+00
         11   -1    0    0    0    0  0.00000000000E+00  0.00000000000E+00  0.40000000000E+02  0.40000000000E+02  0.00000000000E+00 0.  1.
        -11   -1    0    0    0    0 -0.00000000000E+00 -0.00000000000E+00 -0.40000000000E+02  0.40000000000E+02  0.00000000000E+00 0. -1.
         23    2    1    2    0    0  0.00000000000E+00  0.00000000000E+00  0.00000000000E+00  0.80000000000E+02  0.80000000000E+02 0.  0.
          5    1    3    3  501    0  0.29534709317E+02 -0.15447392548E+02 -0.21609928484E+02  0.40000000000E+02  0.47000000000E+01 0. -1.
         -5    1    3    3    0  501 -0.29534709317E+02  0.15447392548E+02  0.21609928484E+02  0.40000000000E+02  0.47000000000E+01 0.  1.
</event>
<event>
 5    1  0.4814700E-001  0.8000000E+02  0.7546771E-02  0.1203772E+00
         11   -1    0    0    0    0  0.00000000000E+00  0.00000000000E+00  0.40000000000E+02  0.40000000000E+02  0.00000000000E+00 0.  1.
        -11   -1    0    0    0    0 -0.00000000000E+00 -0.00000000000E+00 -0.40000000000E+02  0.40000000000E+02  0.00000000000E+00 0. -1.
         23    2    1    2    0    0  0.00000000000E+00  0.00000000000E+00  0.00000000000E+00  0.80000000000E+02  0.80000000000E+02 0.  0.
          5    1    3    3  501    0 -0.67069800267E+01 -0.26485890586E+02 -0.28834424198E+02  0.40000000000E+02  0.47000000000E+01 0. -1.
         -5    1    3    3    0  501  0.67069800267E+01  0.26485890586E+02  0.28834424198E+02  0.40000000000E+02  0.47000000000E+01 0.  1.
</event>
<event>
 5    1  0.4814700E-001  0.8000000E+02  0.7546771E-02  0.1203772E+00
         11   -1    0    0    0    0  0.00000000000E+00  0.00000000000E+00  0.40000000000E+02  0.40000000000E+02  0.00000000000E+00 0. -1.
        -11   -1    0    0    0    0 -0.00000000000E+00 -0.00000000000E+00 -0.40000000000E+02  0.40000000000E+02  0.00000000000E+00 0.  1.
         23    2    1    2    0    0  0.00000000000E+00  0.00000000000E+00  0.00000000000E+00  0.80000000000E+02  0.80000000000E+02 0.  0.
          5    1    3    3  501    0  0.18556832337E+02  0.11004021255E+02  0.33353642827E+02  0.40000000000E+02  0.47000000000E+01 0. -1.
         -5    1    3    3    0  501 -0.18556832337E+02 -0.11004021255E+02 -0.33353642827E+02  0.40000000000E+02  0.47000000000E+01 0.  1.
</event>
<event>
 5    1  0.4814700E-001  0.8000000E+02  0.7546771E-02  0.1203772E+00
         11   -1    0    0    0    0  0.00000000000E+00  0.00000000000E+00  0.40000000000E+02  0.40000000000E+02  0.00000000000E+00 0.  1.
        -11   -1    0    0    0    0 -0.00000000000E+00 -0.00000000000E+00 -0.40000000000E+02  0.40000000000E+02  0.00000000000E+00 0. -1.
         23    2    1    2    0    0  0.00000000000E+00  0.00000000000E+00  0.00000000000E+00  0.80000000000E+02  0.80000000000E+02 0.  0.
          5    1    3    3  501    0  0.11042079775E+01  0.34896000076E+02 -0.18946237184E+02  0.40000000000E+02  0.47000000000E+01 0. -1.
         -5    1    3    3    0  501 -0.11042079775E+01 -0.34896000076E+02  0.18946237184E+02  0.40000000000E+02  0.47000000000E+01 0.  1.
</event>
<event>
 5    1  0.4814700E-001  0.8000000E+02  0.7546771E-02  0.1203772E+00
         11   -1    0    0    0    0  0.00000000000E+00  0.00000000000E+00  0.40000000000E+02  0.40000000000E+02  0.00000000000E+00 0. -1.
        -11   -1    0    0    0    0 -0.00000000000E+00 -0.00000000000E+00 -0.40000000000E+02  0.40000000000E+02  0.00000000000E+00 0.  1.
         23    2    1    2    0    0  0.00000000000E+00  0.00000000000E+00  0.00000000000E+00  0.80000000000E+02  0.80000000000E+02 0.  0.
          5    1    3    3  501    0  0.21803590980E+02 -0.89559604336E+01  0.31973492038E+02  0.40000000000E+02  0.47000000000E+01 0. -1.
         -5    1    3    3    0  501 -0.21803590980E+02  0.89559604336E+01 -0.31973492038E+02  0.40000000000E+02  0.47000000000E+01 0.  1.
</event>
<event>
 5    1  0.4814700E-001  0.8000000E+02  0.7546771E-02  0.1203772E+00
         11   -1    0    0    0    0  0.00000000000E+00  0.00000000000E+00  0.40000000000E+02  0.40000000000E+02  0.00000000000E+00 0.  1.
        -11   -1    0    0    0    0 -0.00000000000E+00 -0.00000000000E+00 -0.40000000000E+02  0.40000000000E+02  0.00000000000E+00 0. -1.
         23    2    1    2    0    0  0.00000000000E+00  0.00000000000E+00  0.00000000000E+00  0.80000000000E+02  0.80000000000E+02 0.  0.
          5    1    3    3  501    0 -0.15424119623E+02 -0.33077332687E+02 -0.15681090401E+02  0.40000000000E+02  0.47000000000E+01 0. -1.
         -5    1    3    3    0  501  0.15424119623E+02  0.33077332687E+02  0.15681090401E+02  0.40000000000E+02  0.47000000000E+01 0.  1.
</event>
<event>
 5    1  0.4814700E-001  0.8000000E+02  0.7546771E-02  0.1203772E+00
         11   -1    0    0    0    0  0.00000000000E+00  0.00000000000E+00  0.40000000000E+02  0.40000000000E+02  0.00000000000E+00 0. -1.
        -11   -1    0    0    0    0 -0.00000000000E+00 -0.00000000000E+00 -0.40000000000E+02  0.40000000000E+02  0.00000000000E+00 0.  1.
         23    2    1    2    0    0  0.00000000000E+00  0.00000000000E+00  0.00000000000E+00  0.80000000000E+02  0.80000000000E+02 0.  0.
          5    1    3    3  501    0  0.12029045148E+02  0.71525789773E+01  0.37175969211E+02  0.40000000000E+02  0.47000000000E+01 0. -1.
         -5    1    3    3    0  501 -0.12029045148E+02 -0.71525789773E+01 -0.37175969211E+02  0.40000000000E+02  0.47000000000E+01 0.  1.
</event>
<event>
 5    1  0.4814700E-001  0.8000000E+02  0.7546771E-02  0.1203772E+00
         11   -1    0    0    0    0  0.00000000000E+00  0.00000000000E+00  0.40000000000E+02  0.40000000000E+02  0.00000000000E+00 0.  1.
        -11   -1    0    0    0    0 -0.00000000000E+00 -0.00000000000E+00 -0.40000000000E+02  0.40000000000E+02  0.00000000000E+00 0. -1.
         23    2    1    2    0    0  0.00000000000E+00  0.00000000000E+00  0.00000000000E+00  0.80000000000E+02  0.80000000000E+02 0.  0.
          5    1    3    3  501    0 -0.24366951638E+02 -0.30923498088E+02  0.52819441379E+01  0.40000000000E+02  0.47000000000E+01 0. -1.
         -5    1    3    3    0  501  0.24366951638E+02  0.30923498088E+02 -0.52819441379E+01  0.40000000000E+02  0.47000000000E+01 0.  1.
</event>
<event>
 5    1  0.4814700E-001  0.8000000E+02  0.7546771E-02  0.1203772E+00
         11   -1    0    0    0    0  0.00000000000E+00  0.00000000000E+00  0.40000000000E+02  0.40000000000E+02  0.00000000000E+00 0.  1.
        -11   -1    0    0    0    0 -0.00000000000E+00 -0.00000000000E+00 -0.40000000000E+02  0.40000000000E+02  0.00000000000E+00 0. -1.
         23    2    1    2    0    0  0.00000000000E+00  0.00000000000E+00  0.00000000000E+00  0.80000000000E+02  0.80000000000E+02 0.  0.
          5    1    3    3  501    0  0.87132532335E+01  0.35249803729E+02 -0.16107158506E+02  0.40000000000E+02  0.47000000000E+01 0. -1.
         -5    1    3    3    0  501 -0.87132532335E+01 -0.35249803729E+02  0.16107158506E+02  0.40000000000E+02  0.47000000000E+01 0.  1.
</event>
<event>
 5    1  0.4814700E-001  0.8000000E+02  0.7546771E-02  0.1203772E+00
         11   -1    0    0    0    0  0.00000000000E+00  0.00000000000E+00  0.40000000000E+02  0.40000000000E+02  0.00000000000E+00 0.  1.
        -11   -1    0    0    0    0 -0.00000000000E+00 -0.00000000000E+00 -0.40000000000E+02  0.40000000000E+02  0.00000000000E+00 0. -1.
         23    2    1    2    0    0  0.00000000000E+00  0.00000000000E+00  0.00000000000E+00  0.80000000000E+02  0.80000000000E+02 0.  0.
          5    1    3    3  501    0 -0.24835617469E+02  0.27017752938E+02 -0.15203392093E+02  0.40000000000E+02  0.47000000000E+01 0. -1.
         -5    1    3    3    0  501  0.24835617469E+02 -0.27017752938E+02  0.15203392093E+02  0.40000000000E+02  0.47000000000E+01 0.  1.
</event>
<event>
 5    1  0.4814700E-001  0.8000000E+02  0.7546771E-02  0.1203772E+00
         11   -1    0    0    0    0  0.00000000000E+00  0.00000000000E+00  0.40000000000E+02  0.40000000000E+02  0.00000000000E+00 0.  1.
        -11   -1    0    0    0    0 -0.00000000000E+00 -0.00000000000E+00 -0.40000000000E+02  0.40000000000E+02  0.00000000000E+00 0. -1.
         23    2    1    2    0    0  0.00000000000E+00  0.00000000000E+00  0.00000000000E+00  0.80000000000E+02  0.80000000000E+02 0.  0.
          5    1    3    3  501    0  0.33182002116E+02 -0.88403638062E+01 -0.19967791649E+02  0.40000000000E+02  0.47000000000E+01 0. -1.
         -5    1    3    3    0  501 -0.33182002116E+02  0.88403638062E+01  0.19967791649E+02  0.40000000000E+02  0.47000000000E+01 0.  1.
</event>
<event>
 5    1  0.4814700E-001  0.8000000E+02  0.7546771E-02  0.1203772E+00
         11   -1    0    0    0    0  0.00000000000E+00  0.00000000000E+00  0.40000000000E+02  0.40000000000E+02  0.00000000000E+00 0. -1.
        -11   -1    0    0    0    0 -0.00000000000E+00 -0.00000000000E+00 -0.40000000000E+02  0.40000000000E+02  0.00000000000E+00 0.  1.
         23    2    1    2    0    0  0.00000000000E+00  0.00000000000E+00  0.00000000000E+00  0.80000000000E+02  0.80000000000E+02 0.  0.
          5    1    3    3  501    0  0.25528980606E+02  0.10207787077E+02  0.28670232511E+02  0.40000000000E+02  0.47000000000E+01 0. -1.
         -5    1    3    3    0  501 -0.25528980606E+02 -0.10207787077E+02 -0.28670232511E+02  0.40000000000E+02  0.47000000000E+01 0.  1.
</event>
<event>
 5    1  0.4814700E-001  0.8000000E+02  0.7546771E-02  0.1203772E+00
         11   -1    0    0    0    0  0.00000000000E+00  0.00000000000E+00  0.40000000000E+02  0.40000000000E+02  0.00000000000E+00 0. -1.
        -11   -1    0    0    0    0 -0.00000000000E+00 -0.00000000000E+00 -0.40000000000E+02  0.40000000000E+02  0.00000000000E+00 0.  1.
         23    2    1    2    0    0  0.00000000000E+00  0.00000000000E+00  0.00000000000E+00  0.80000000000E+02  0.80000000000E+02 0.  0.
          5    1    3    3  501    0  0.16231597201E+02  0.27159605043E+02  0.24016683914E+02  0.40000000000E+02  0.47000000000E+01 0. -1.
         -5    1    3    3    0  501 -0.16231597201E+02 -0.27159605043E+02 -0.24016683914E+02  0.40000000000E+02  0.47000000000E+01 0.  1.
</event>
<event>
 5    1  0.4814700E-001  0.8000000E+02  0.7546771E-02  0.1203772E+00
         11   -1    0    0    0    0  0.00000000000E+00  0.00000000000E+00  0.40000000000E+02  0.40000000000E+02  0.00000000000E+00 0.  1.
        -11   -1    0    0    0    0 -0.00000000000E+00 -0.00000000000E+00 -0.40000000000E+02  0.40000000000E+02  0.00000000000E+00 0. -1.
         23    2    1    2    0    0  0.00000000000E+00  0.00000000000E+00  0.00000000000E+00  0.80000000000E+02  0.80000000000E+02 0.  0.
          5    1    3    3  501    0  0.24062275095E+02 -0.29274887690E+02 -0.11912089153E+02  0.40000000000E+02  0.47000000000E+01 0. -1.
         -5    1    3    3    0  501 -0.24062275095E+02  0.29274887690E+02  0.11912089153E+02  0.40000000000E+02  0.47000000000E+01 0.  1.
</event>
<event>
 5    1  0.4814700E-001  0.8000000E+02  0.7546771E-02  0.1203772E+00
         11   -1    0    0    0    0  0.00000000000E+00  0.00000000000E+00  0.40000000000E+02  0.40000000000E+02  0.00000000000E+00 0. -1.
        -11   -1    0    0    0    0 -0.00000000000E+00 -0.00000000000E+00 -0.40000000000E+02  0.40000000000E+02  0.00000000000E+00 0.  1.
         23    2    1    2    0    0  0.00000000000E+00  0.00000000000E+00  0.00000000000E+00  0.80000000000E+02  0.80000000000E+02 0.  0.
          5    1    3    3  501    0  0.34061512383E+02  0.16956900633E+02  0.11409947201E+02  0.40000000000E+02  0.47000000000E+01 0. -1.
         -5    1    3    3    0  501 -0.34061512383E+02 -0.16956900633E+02 -0.11409947201E+02  0.40000000000E+02  0.47000000000E+01 0.  1.
</event>
<event>
 5    1  0.4814700E-001  0.8000000E+02  0.7546771E-02  0.1203772E+00
         11   -1    0    0    0    0  0.00000000000E+00  0.00000000000E+00  0.40000000000E+02  0.40000000000E+02  0.00000000000E+00 0. -1.
        -11   -1    0    0    0    0 -0.00000000000E+00 -0.00000000000E+00 -0.40000000000E+02  0.40000000000E+02  0.00000000000E+00 0.  1.
         23    2    1    2    0    0  0.00000000000E+00  0.00000000000E+00  0.00000000000E+00  0.80000000000E+02  0.80000000000E+02 0.  0.
          5    1    3    3  501    0 -0.21309250528E+02  0.27240541926E+02  0.19539158567E+02  0.40000000000E+02  0.47000000000E+01 0. -1.
         -5    1    3    3    0  501  0.21309250528E+02 -0.27240541926E+02 -0.19539158567E+02  0.40000000000E+02  0.47000000000E+01 0.  1.
</event>
<event>
 5    1  0.4814700E-001  0.8000000E+02  0.7546771E-02  0.1203772E+00
         11   -1    0    0    0    0  0.00000000000E+00  0.00000000000E+00  0.40000000000E+02  0.40000000000E+02  0.00000000000E+00 0. -1.
        -11   -1    0    0    0    0 -0.00000000000E+00 -0.00000000000E+00 -0.40000000000E+02  0.40000000000E+02  0.00000000000E+00 0.  1.
         23    2    1    2    0    0  0.00000000000E+00  0.00000000000E+00  0.00000000000E+00  0.80000000000E+02  0.80000000000E+02 0.  0.
          5    1    3    3  501    0 -0.13878195232E+01 -0.19934757825E+02  0.34330589675E+02  0.40000000000E+02  0.47000000000E+01 0. -1.
         -5    1    3    3    0  501  0.13878195232E+01  0.19934757825E+02 -0.34330589675E+02  0.40000000000E+02  0.47000000000E+01 0.  1.
</event>
<event>
 5    1  0.4814700E-001  0.8000000E+02  0.7546771E-02  0.1203772E+00
         11   -1    0    0    0    0  0.00000000000E+00  0.00000000000E+00  0.40000000000E+02  0.40000000000E+02  0.00000000000E+00 0. -1.
        -11   -1    0    0    0    0 -0.00000000000E+00 -0.00000000000E+00 -0.40000000000E+02  0.40000000000E+02  0.00000000000E+00 0.  1.
         23    2    1    2    0    0  0.00000000000E+00  0.00000000000E+00  0.00000000000E+00  0.80000000000E+02  0.80000000000E+02 0.  0.
          5    1    3    3  501    0 -0.58134858573E+01 -0.12748305588E+02  0.37169800737E+02  0.40000000000E+02  0.47000000000E+01 0. -1.
         -5    1    3    3    0  501  0.58134858573E+01  0.12748305588E+02 -0.37169800737E+02  0.40000000000E+02  0.47000000000E+01 0.  1.
</event>
<event>
 5    1  0.4814700E-001  0.8000000E+02  0.7546771E-02  0.1203772E+00
         11   -1    0    0    0    0  0.00000000000E+00  0.00000000000E+00  0.40000000000E+02  0.40000000000E+02  0.00000000000E+00 0. -1.
        -11   -1    0    0    0    0 -0.00000000000E+00 -0.00000000000E+00 -0.40000000000E+02  0.40000000000E+02  0.00000000000E+00 0.  1.
         23    2    1    2    0    0  0.00000000000E+00  0.00000000000E+00  0.00000000000E+00  0.80000000000E+02  0.80000000000E+02 0.  0.
          5    1    3    3  501    0  0.10515373750E+01  0.11975041406E+02  0.37860304442E+02  0.40000000000E+02  0.47000000000E+01 0. -1.
         -5    1    3    3    0  501 -0.10515373750E+01 -0.11975041406E+02 -0.37860304442E+02  0.40000000000E+02  0.47000000000E+01 0.  1.
</event>
<event>
 5    1  0.4814700E-001  0.8000000E+02  0.7546771E-02  0.1203772E+00
         11   -1    0    0    0    0  0.00000000000E+00  0.00000000000E+00  0.40000000000E+02  0.40000000000E+02  0.00000000000E+00 0.  1.
        -11   -1    0    0    0    0 -0.00000000000E+00 -0.00000000000E+00 -0.40000000000E+02  0.40000000000E+02  0.00000000000E+00 0. -1.
         23    2    1    2    0    0  0.00000000000E+00  0.00000000000E+00  0.00000000000E+00  0.80000000000E+02  0.80000000000E+02 0.  0.
          5    1    3    3  501    0  0.23871098146E+02 -0.20404574614E+02  0.24325583408E+02  0.40000000000E+02  0.47000000000E+01 0. -1.
         -5    1    3    3    0  501 -0.23871098146E+02  0.20404574614E+02 -0.24325583408E+02  0.40000000000E+02  0.47000000000E+01 0.  1.
</event>
<event>
 5    1  0.4814700E-001  0.8000000E+02  0.7546771E-02  0.1203772E+00
         11   -1    0    0    0    0  0.00000000000E+00  0.00000000000E+00  0.40000000000E+02  0.40000000000E+02  0.00000000000E+00 0.  1.
        -11   -1    0    0    0    0 -0.00000000000E+00 -0.00000000000E+00 -0.40000000000E+02  0.40000000000E+02  0.00000000000E+00 0. -1.
         23    2    1    2    0    0  0.00000000000E+00  0.00000000000E+00  0.00000000000E+00  0.80000000000E+02  0.80000000000E+02 0.  0.
          5    1    3    3  501    0 -0.27051639682E+02  0.23221335821E+02 -0.17518229168E+02  0.40000000000E+02  0.47000000000E+01 0. -1.
         -5    1    3    3    0  501  0.27051639682E+02 -0.23221335821E+02  0.17518229168E+02  0.40000000000E+02  0.47000000000E+01 0.  1.
</event>
<event>
 5    1  0.4814700E-001  0.8000000E+02  0.7546771E-02  0.1203772E+00
         11   -1    0    0    0    0  0.00000000000E+00  0.00000000000E+00  0.40000000000E+02  0.40000000000E+02  0.00000000000E+00 0. -1.
        -11   -1    0    0    0    0 -0.00000000000E+00 -0.00000000000E+00 -0.40000000000E+02  0.40000000000E+02  0.00000000000E+00 0.  1.
         23    2    1    2    0    0  0.00000000000E+00  0.00000000000E+00  0.00000000000E+00  0.80000000000E+02  0.80000000000E+02 0.  0.
          5    1    3    3  501    0  0.82010241954E+01 -0.66749534170E+01  0.38289661777E+02  0.40000000000E+02  0.47000000000E+01 0. -1.
         -5    1    3    3    0  501 -0.82010241954E+01  0.66749534170E+01 -0.38289661777E+02  0.40000000000E+02  0.47000000000E+01 0.  1.
</event>
<event>
 5    1  0.4814700E-001  0.8000000E+02  0.7546771E-02  0.1203772E+00
         11   -1    0    0    0    0  0.00000000000E+00  0.00000000000E+00  0.40000000000E+02  0.40000000000E+02  0.00000000000E+00 0. -1.
        -11   -1    0    0    0    0 -0.00000000000E+00 -0.00000000000E+00 -0.40000000000E+02  0.40000000000E+02  0.00000000000E+00 0.  1.
         23    2    1    2    0    0  0.00000000000E+00  0.00000000000E+00  0.00000000000E+00  0.80000000000E+02  0.80000000000E+02 0.  0.
          5    1    3    3  501    0  0.81109819320E+01 -0.15075250139E+02  0.35844927191E+02  0.40000000000E+02  0.47000000000E+01 0. -1.
         -5    1    3    3    0  501 -0.81109819320E+01  0.15075250139E+02 -0.35844927191E+02  0.40000000000E+02  0.47000000000E+01 0.  1.
</event>
<event>
 5    1  0.4814700E-001  0.8000000E+02  0.7546771E-02  0.1203772E+00
         11   -1    0    0    0    0  0.00000000000E+00  0.00000000000E+00  0.40000000000E+02  0.40000000000E+02  0.00000000000E+00 0. -1.
        -11   -1    0    0    0    0 -0.00000000000E+00 -0.00000000000E+00 -0.40000000000E+02  0.40000000000E+02  0.00000000000E+00 0.  1.
         23    2    1    2    0    0  0.00000000000E+00  0.00000000000E+00  0.00000000000E+00  0.80000000000E+02  0.80000000000E+02 0.  0.
          5    1    3    3  501    0 -0.14340899232E+01  0.36687828103E+02  0.15161024213E+02  0.40000000000E+02  0.47000000000E+01 0. -1.
         -5    1    3    3    0  501  0.14340899232E+01 -0.36687828103E+02 -0.15161024213E+02  0.40000000000E+02  0.47000000000E+01 0.  1.
</event>
<event>
 5    1  0.4814700E-001  0.8000000E+02  0.7546771E-02  0.1203772E+00
         11   -1    0    0    0    0  0.00000000000E+00  0.00000000000E+00  0.40000000000E+02  0.40000000000E+02  0.00000000000E+00 0.  1.
        -11   -1    0    0    0    0 -0.00000000000E+00 -0.00000000000E+00 -0.40000000000E+02  0.40000000000E+02  0.00000000000E+00 0. -1.
         23    2    1    2    0    0  0.00000000000E+00  0.00000000000E+00  0.00000000000E+00  0.80000000000E+02  0.80000000000E+02 0.  0.
          5    1    3    3  501    0  0.16904178041E+02  0.52415730484E+01 -0.35562405384E+02  0.40000000000E+02  0.47000000000E+01 0. -1.
         -5    1    3    3    0  501 -0.16904178041E+02 -0.52415730484E+01  0.35562405384E+02  0.40000000000E+02  0.47000000000E+01 0.  1.
</event>
<event>
 5    1  0.4814700E-001  0.8000000E+02  0.7546771E-02  0.1203772E+00
         11   -1    0    0    0    0  0.00000000000E+00  0.00000000000E+00  0.40000000000E+02  0.40000000000E+02  0.00000000000E+00 0.  1.
        -11   -1    0    0    0    0 -0.00000000000E+00 -0.00000000000E+00 -0.40000000000E+02  0.40000000000E+02  0.00000000000E+00 0. -1.
         23    2    1    2    0    0  0.00000000000E+00  0.00000000000E+00  0.00000000000E+00  0.80000000000E+02  0.80000000000E+02 0.  0.
          5    1    3    3  501    0 -0.90544064674E+01 -0.74723039175E+01 -0.37948549349E+02  0.40000000000E+02  0.47000000000E+01 0. -1.
         -5    1    3    3    0  501  0.90544064674E+01  0.74723039175E+01  0.37948549349E+02  0.40000000000E+02  0.47000000000E+01 0.  1.
</event>
<event>
 5    1  0.4814700E-001  0.8000000E+02  0.7546771E-02  0.1203772E+00
         11   -1    0    0    0    0  0.00000000000E+00  0.00000000000E+00  0.40000000000E+02  0.40000000000E+02  0.00000000000E+00 0. -1.
        -11   -1    0    0    0    0 -0.00000000000E+00 -0.00000000000E+00 -0.40000000000E+02  0.40000000000E+02  0.00000000000E+00 0.  1.
         23    2    1    2    0    0  0.00000000000E+00  0.00000000000E+00  0.00000000000E+00  0.80000000000E+02  0.80000000000E+02 0.  0.
          5    1    3    3  501    0  0.24595113543E+02  0.26055460292E+02 -0.17149442521E+02  0.40000000000E+02  0.47000000000E+01 0.  1.
         -5    1    3    3    0  501 -0.24595113543E+02 -0.26055460292E+02  0.17149442521E+02  0.40000000000E+02  0.47000000000E+01 0. -1.
</event>
<event>
 5    1  0.4814700E-001  0.8000000E+02  0.7546771E-02  0.1203772E+00
         11   -1    0    0    0    0  0.00000000000E+00  0.00000000000E+00  0.40000000000E+02  0.40000000000E+02  0.00000000000E+00 0.  1.
        -11   -1    0    0    0    0 -0.00000000000E+00 -0.00000000000E+00 -0.40000000000E+02  0.40000000000E+02  0.00000000000E+00 0. -1.
         23    2    1    2    0    0  0.00000000000E+00  0.00000000000E+00  0.00000000000E+00  0.80000000000E+02  0.80000000000E+02 0.  0.
          5    1    3    3  501    0 -0.14866347302E+02 -0.13254006498E+01 -0.36812294563E+02  0.40000000000E+02  0.47000000000E+01 0. -1.
         -5    1    3    3    0  501  0.14866347302E+02  0.13254006498E+01  0.36812294563E+02  0.40000000000E+02  0.47000000000E+01 0.  1.
</event>
