<event>
 5    1  0.7702600E-002  0.6000000E+02  0.7546771E-02  0.1259629E+00
         11   -1    0    0    0    0  0.00000000000E+00  0.00000000000E+00  0.30000000000E+02  0.30000000000E+02  0.00000000000E+00 0.  1.
        -11   -1    0    0    0    0 -0.00000000000E+00 -0.00000000000E+00 -0.30000000000E+02  0.30000000000E+02  0.00000000000E+00 0. -1.
         23    2    1    2    0    0  0.00000000000E+00  0.00000000000E+00  0.00000000000E+00  0.60000000000E+02  0.60000000000E+02 0.  0.
          5    1    3    3  501    0  0.26819119253E+02  0.91877593711E+01 -0.86156787448E+01  0.30000000000E+02  0.47000000000E+01 0. -1.
         -5    1    3    3    0  501 -0.26819119253E+02 -0.91877593711E+01  0.86156787448E+01  0.30000000000E+02  0.47000000000E+01 0.  1.
</event>
<event>
 5    1  0.7702600E-002  0.6000000E+02  0.7546771E-02  0.1259629E+00
         11   -1    0    0    0    0  0.00000000000E+00  0.00000000000E+00  0.30000000000E+02  0.30000000000E+02  0.00000000000E+00 0.  1.
        -11   -1    0    0    0    0 -0.00000000000E+00 -0.00000000000E+00 -0.30000000000E+02  0.30000000000E+02  0.00000000000E+00 0. -1.
         23    2    1    2    0    0  0.00000000000E+00  0.00000000000E+00  0.00000000000E+00  0.60000000000E+02  0.60000000000E+02 0.  0.
          5    1    3    3  501    0 -0.14554170200E+02 -0.31137410761E+01 -0.25620123854E+02  0.30000000000E+02  0.47000000000E+01 0. -1.
         -5    1    3    3    0  501  0.14554170200E+02  0.31137410761E+01  0.25620123854E+02  0.30000000000E+02  0.47000000000E+01 0.  1.
</event>
<event>
 5    1  0.7702600E-002  0.6000000E+02  0.7546771E-02  0.1259629E+00
         11   -1    0    0    0    0  0.00000000000E+00  0.00000000000E+00  0.30000000000E+02  0.30000000000E+02  0.00000000000E+00 0. -1.
        -11   -1    0    0    0    0 -0.00000000000E+00 -0.00000000000E+00 -0.30000000000E+02  0.30000000000E+02  0.00000000000E+00 0.  1.
         23    2    1    2    0    0  0.00000000000E+00  0.00000000000E+00  0.00000000000E+00  0.60000000000E+02  0.60000000000E+02 0.  0.
          5    1    3    3  501    0  0.12043844672E+02  0.39856622799E+01 -0.26776301121E+02  0.30000000000E+02  0.47000000000E+01 0.  1.
         -5    1    3    3    0  501 -0.12043844672E+02 -0.39856622799E+01  0.26776301121E+02  0.30000000000E+02  0.47000000000E+01 0. -1.
</event>
<event>
 5    1  0.7702600E-002  0.6000000E+02  0.7546771E-02  0.1259629E+00
         11   -1    0    0    0    0  0.00000000000E+00  0.00000000000E+00  0.30000000000E+02  0.30000000000E+02  0.00000000000E+00 0.  1.
        -11   -1    0    0    0    0 -0.00000000000E+00 -0.00000000000E+00 -0.30000000000E+02  0.30000000000E+02  0.00000000000E+00 0. -1.
         23    2    1    2    0    0  0.00000000000E+00  0.00000000000E+00  0.00000000000E+00  0.60000000000E+02  0.60000000000E+02 0.  0.
          5    1    3    3  501    0  0.36045395537E-01 -0.11490839881E+02 -0.27310607821E+02  0.30000000000E+02  0.47000000000E+01 0. -1.
         -5    1    3    3    0  501 -0.36045395537E-01  0.11490839881E+02  0.27310607821E+02  0.30000000000E+02  0.47000000000E+01 0.  1.
</event>
<event>
 5    1  0.7702600E-002  0.6000000E+02  0.7546771E-02  0.1259629E+00
         11   -1    0    0    0    0  0.00000000000E+00  0.00000000000E+00  0.30000000000E+02  0.30000000000E+02  0.00000000000E+00 0.  1.
        -11   -1    0    0    0    0 -0.00000000000E+00 -0.00000000000E+00 -0.30000000000E+02  0.30000000000E+02  0.00000000000E+00 0. -1.
         23    2    1    2    0    0  0.00000000000E+00  0.00000000000E+00  0.00000000000E+00  0.60000000000E+02  0.60000000000E+02 0.  0.
          5    1    3    3  501    0 -0.24220314829E+02 -0.12676243660E+02  0.11428000537E+02  0.30000000000E+02  0.47000000000E+01 0.  1.
         -5    1    3    3    0  501  0.24220314829E+02  0.12676243660E+02 -0.11428000537E+02  0.30000000000E+02  0.47000000000E+01 0. -1.
</event>
<event>
 5    1  0.7702600E-002  0.6000000E+02  0.7546771E-02  0.1259629E+00
         11   -1    0    0    0    0  0.00000000000E+00  0.00000000000E+00  0.30000000000E+02  0.30000000000E+02  0.00000000000E+00 0. -1.
        -11   -1    0    0    0    0 -0.00000000000E+00 -0.00000000000E+00 -0.30000000000E+02  0.30000000000E+02  0.00000000000E+00 0.  1.
         23    2    1    2    0    0  0.00000000000E+00  0.00000000000E+00  0.00000000000E+00  0.60000000000E+02  0.60000000000E+02 0.  0.
          5    1    3    3  501    0 -0.60332423233E+01  0.27098404927E+02 -0.10353088306E+02  0.30000000000E+02  0.47000000000E+01 0.  1.
         -5    1    3    3    0  501  0.60332423233E+01 -0.27098404927E+02  0.10353088306E+02  0.30000000000E+02  0.47000000000E+01 0. -1.
</event>
<event>
 5    1  0.7702600E-002  0.6000000E+02  0.7546771E-02  0.1259629E+00
         11   -1    0    0    0    0  0.00000000000E+00  0.00000000000E+00  0.30000000000E+02  0.30000000000E+02  0.00000000000E+00 0.  1.
        -11   -1    0    0    0    0 -0.00000000000E+00 -0.00000000000E+00 -0.30000000000E+02  0.30000000000E+02  0.00000000000E+00 0. -1.
         23    2    1    2    0    0  0.00000000000E+00  0.00000000000E+00  0.00000000000E+00  0.60000000000E+02  0.60000000000E+02 0.  0.
          5    1    3    3  501    0  0.99655921062E+01 -0.23727650059E+02 -0.14683173930E+02  0.30000000000E+02  0.47000000000E+01 0. -1.
         -5    1    3    3    0  501 -0.99655921062E+01  0.23727650059E+02  0.14683173930E+02  0.30000000000E+02  0.47000000000E+01 0.  1.
</event>
<event>
 5    1  0.7702600E-002  0.6000000E+02  0.7546771E-02  0.1259629E+00
         11   -1    0    0    0    0  0.00000000000E+00  0.00000000000E+00  0.30000000000E+02  0.30000000000E+02  0.00000000000E+00 0.  1.
        -11   -1    0    0    0    0 -0.00000000000E+00 -0.00000000000E+00 -0.30000000000E+02  0.30000000000E+02  0.00000000000E+00 0. -1.
         23    2    1    2    0    0  0.00000000000E+00  0.00000000000E+00  0.00000000000E+00  0.60000000000E+02  0.60000000000E+02 0.  0.
          5    1    3    3  501    0 -0.31158129260E+01 -0.28080861039E+02 -0.89256346064E+01  0.30000000000E+02  0.47000000000E+01 0. -1.
         -5    1    3    3    0  501  0.31158129260E+01  0.28080861039E+02  0.89256346064E+01  0.30000000000E+02  0.47000000000E+01 0.  1.
</event>
<event>
 5    1  0.7702600E-002  0.6000000E+02  0.7546771E-02  0.1259629E+00
         11   -1    0    0    0    0  0.00000000000E+00  0.00000000000E+00  0.30000000000E+02  0.30000000000E+02  0.00000000000E+00 0. -1.
        -11   -1    0    0    0    0 -0.00000000000E+00 -0.00000000000E+00 -0.30000000000E+02  0.30000000000E+02  0.00000000000E+00 0.  1.
         23    2    1    2    0    0  0.00000000000E+00  0.00000000000E+00  0.00000000000E+00  0.60000000000E+02  0.60000000000E+02 0.  0.
          5    1    3    3  501    0 -0.82882660557E+01 -0.37982260490E+01 -0.28191986888E+02  0.30000000000E+02  0.47000000000E+01 0.  1.
         -5    1    3    3    0  501  0.82882660557E+01  0.37982260490E+01  0.28191986888E+02  0.30000000000E+02  0.47000000000E+01 0. -1.
</event>
<event>
 5    1  0.7702600E-002  0.6000000E+02  0.7546771E-02  0.1259629E+00
         11   -1    0    0    0    0  0.00000000000E+00  0.00000000000E+00  0.30000000000E+02  0.30000000000E+02  0.00000000000E+00 0.  1.
        -11   -1    0    0    0    0 -0.00000000000E+00 -0.00000000000E+00 -0.30000000000E+02  0.30000000000E+02  0.00000000000E+00 0. -1.
         23    2    1    2    0    0  0.00000000000E+00  0.00000000000E+00  0.00000000000E+00  0.60000000000E+02  0.60000000000E+02 0.  0.
          5    1    3    3  501    0  0.33205027466E+01 -0.24945487967E+02  0.15639913413E+02  0.30000000000E+02  0.47000000000E+01 0. -1.
         -5    1    3    3    0  501 -0.33205027466E+01  0.24945487967E+02 -0.15639913413E+02  0.30000000000E+02  0.47000000000E+01 0.  1.
</event>
<event>
 5    1  0.7702600E-002  0.6000000E+02  0.7546771E-02  0.1259629E+00
         11   -1    0    0    0    0  0.00000000000E+00  0.00000000000E+00  0.30000000000E+02  0.30000000000E+02  0.00000000000E+00 0.  1.
        -11   -1    0    0    0    0 -0.00000000000E+00 -0.00000000000E+00 -0.30000000000E+02  0.30000000000E+02  0.00000000000E+00 0. -1.
         23    2    1    2    0    0  0.00000000000E+00  0.00000000000E+00  0.00000000000E+00  0.60000000000E+02  0.60000000000E+02 0.  0.
          5    1    3    3  501    0 -0.75307853497E+01 -0.24734572131E+02 -0.14470598243E+02  0.30000000000E+02  0.47000000000E+01 0. -1.
         -5    1    3    3    0  501  0.75307853497E+01  0.24734572131E+02  0.14470598243E+02  0.30000000000E+02  0.47000000000E+01 0.  1.
</event>
<event>
 5    1  0.7702600E-002  0.6000000E+02  0.7546771E-02  0.1259629E+00
         11   -1    0    0    0    0  0.00000000000E+00  0.00000000000E+00  0.30000000000E+02  0.30000000000E+02  0.00000000000E+00 0.  1.
        -11   -1    0    0    0    0 -0.00000000000E+00 -0.00000000000E+00 -0.30000000000E+02  0.30000000000E+02  0.00000000000E+00 0. -1.
         23    2    1    2    0    0  0.00000000000E+00  0.00000000000E+00  0.00000000000E+00  0.60000000000E+02  0.60000000000E+02 0.  0.
          5    1    3    3  501    0  0.65074821495E+01  0.10223590402E+02 -0.27037767573E+02  0.30000000000E+02  0.47000000000E+01 0. -1.
         -5    1    3    3    0  501 -0.65074821495E+01 -0.10223590402E+02  0.27037767573E+02  0.30000000000E+02  0.47000000000E+01 0.  1.
</event>
<event>
 5    1  0.7702600E-002  0.6000000E+02  0.7546771E-02  0.1259629E+00
         11   -1    0    0    0    0  0.00000000000E+00  0.00000000000E+00  0.30000000000E+02  0.30000000000E+02  0.00000000000E+00 0.  1.
        -11   -1    0    0    0    0 -0.00000000000E+00 -0.00000000000E+00 -0.30000000000E+02  0.30000000000E+02  0.00000000000E+00 0. -1.
         23    2    1    2    0    0  0.00000000000E+00  0.00000000000E+00  0.00000000000E+00  0.60000000000E+02  0.60000000000E+02 0.  0.
          5    1    3    3  501    0 -0.11790403746E+02  0.62162363849E+01 -0.26462327651E+02  0.30000000000E+02  0.47000000000E+01 0. -1.
         -5    1    3    3    0  501  0.11790403746E+02 -0.62162363849E+01  0.26462327651E+02  0.30000000000E+02  0.47000000000E+01 0.  1.
</event>
<event>
 5    1  0.7702600E-002  0.6000000E+02  0.7546771E-02  0.1259629E+00
         11   -1    0    0    0    0  0.00000000000E+00  0.00000000000E+00  0.30000000000E+02  0.30000000000E+02  0.00000000000E+00 0.  1.
        -11   -1    0    0    0    0 -0.00000000000E+00 -0.00000000000E+00 -0.30000000000E+02  0.30000000000E+02  0.00000000000E+00 0. -1.
         23    2    1    2    0    0  0.00000000000E+00  0.00000000000E+00  0.00000000000E+00  0.60000000000E+02  0.60000000000E+02 0.  0.
          5    1    3    3  501    0  0.60819176959E+01  0.25285676937E+01 -0.28888174441E+02  0.30000000000E+02  0.47000000000E+01 0. -1.
         -5    1    3    3    0  501 -0.60819176959E+01 -0.25285676937E+01  0.28888174441E+02  0.30000000000E+02  0.47000000000E+01 0.  1.
</event>
<event>
 5    1  0.7702600E-002  0.6000000E+02  0.7546771E-02  0.1259629E+00
         11   -1    0    0    0    0  0.00000000000E+00  0.00000000000E+00  0.30000000000E+02  0.30000000000E+02  0.00000000000E+00 0.  1.
        -11   -1    0    0    0    0 -0.00000000000E+00 -0.00000000000E+00 -0.30000000000E+02  0.30000000000E+02  0.00000000000E+00 0. -1.
         23    2    1    2    0    0  0.00000000000E+00  0.00000000000E+00  0.00000000000E+00  0.60000000000E+02  0.60000000000E+02 0.  0.
          5    1    3    3  501    0 -0.91320362245E+01 -0.86958977023E+01 -0.26812259837E+02  0.30000000000E+02  0.47000000000E+01 0. -1.
         -5    1    3    3    0  501  0.91320362245E+01  0.86958977023E+01  0.26812259837E+02  0.30000000000E+02  0.47000000000E+01 0.  1.
</event>
<event>
 5    1  0.7702600E-002  0.6000000E+02  0.7546771E-02  0.1259629E+00
         11   -1    0    0    0    0  0.00000000000E+00  0.00000000000E+00  0.30000000000E+02  0.30000000000E+02  0.00000000000E+00 0.  1.
        -11   -1    0    0    0    0 -0.00000000000E+00 -0.00000000000E+00 -0.30000000000E+02  0.30000000000E+02  0.00000000000E+00 0. -1.
         23    2    1    2    0    0  0.00000000000E+00  0.00000000000E+00  0.00000000000E+00  0.60000000000E+02  0.60000000000E+02 0.  0.
          5    1    3    3  501    0  0.17047432989E+01 -0.53910643244E+01 -0.29085052445E+02  0.30000000000E+02  0.47000000000E+01 0. -1.
         -5    1    3    3    0  501 -0.17047432989E+01  0.53910643244E+01  0.29085052445E+02  0.30000000000E+02  0.47000000000E+01 0.  1.
</event>
<event>
 5    1  0.7702600E-002  0.6000000E+02  0.7546771E-02  0.1259629E+00
         11   -1    0    0    0    0  0.00000000000E+00  0.00000000000E+00  0.30000000000E+02  0.30000000000E+02  0.00000000000E+00 0. -1.
        -11   -1    0    0    0    0 -0.00000000000E+00 -0.00000000000E+00 -0.30000000000E+02  0.30000000000E+02  0.00000000000E+00 0.  1.
         23    2    1    2    0    0  0.00000000000E+00  0.00000000000E+00  0.00000000000E+00  0.60000000000E+02  0.60000000000E+02 0.  0.
          5    1    3    3  501    0 -0.65534750250E+01  0.14595633636E+02  0.24938513265E+02  0.30000000000E+02  0.47000000000E+01 0. -1.
         -5    1    3    3    0  501  0.65534750250E+01 -0.14595633636E+02 -0.24938513265E+02  0.30000000000E+02  0.47000000000E+01 0.  1.
</event>
<event>
 5    1  0.7702600E-002  0.6000000E+02  0.7546771E-02  0.1259629E+00
         11   -1    0    0    0    0  0.00000000000E+00  0.00000000000E+00  0.30000000000E+02  0.30000000000E+02  0.00000000000E+00 0. -1.
        -11   -1    0    0    0    0 -0.00000000000E+00 -0.00000000000E+00 -0.30000000000E+02  0.30000000000E+02  0.00000000000E+00 0.  1.
         23    2    1    2    0    0  0.00000000000E+00  0.00000000000E+00  0.00000000000E+00  0.60000000000E+02  0.60000000000E+02 0.  0.
          5    1    3    3  501    0 -0.13026470602E+02  0.18773657385E+02  0.18861888878E+02  0.30000000000E+02  0.47000000000E+01 0. -1.
         -5    1    3    3    0  501  0.13026470602E+02 -0.18773657385E+02 -0.18861888878E+02  0.30000000000E+02  0.47000000000E+01 0.  1.
</event>
<event>
 5    1  0.7702600E-002  0.6000000E+02  0.7546771E-02  0.1259629E+00
         11   -1    0    0    0    0  0.00000000000E+00  0.00000000000E+00  0.30000000000E+02  0.30000000000E+02  0.00000000000E+00 0.  1.
        -11   -1    0    0    0    0 -0.00000000000E+00 -0.00000000000E+00 -0.30000000000E+02  0.30000000000E+02  0.00000000000E+00 0. -1.
         23    2    1    2    0    0  0.00000000000E+00  0.00000000000E+00  0.00000000000E+00  0.60000000000E+02  0.60000000000E+02 0.  0.
          5    1    3    3  501    0  0.79617703113E+01  0.18633816310E+02 -0.21617148360E+02  0.30000000000E+02  0.47000000000E+01 0. -1.
         -5    1    3    3    0  501 -0.79617703113E+01 -0.18633816310E+02  0.21617148360E+02  0.30000000000E+02  0.47000000000E+01 0.  1.
</event>
<event>
 5    1  0.7702600E-002  0.6000000E+02  0.7546771E-02  0.1259629E+00
         11   -1    0    0    0    0  0.00000000000E+00  0.00000000000E+00  0.30000000000E+02  0.30000000000E+02  0.00000000000E+00 0.  1.
        -11   -1    0    0    0    0 -0.00000000000E+00 -0.00000000000E+00 -0.30000000000E+02  0.30000000000E+02  0.00000000000E+00 0. -1.
         23    2    1    2    0    0  0.00000000000E+00  0.00000000000E+00  0.00000000000E+00  0.60000000000E+02  0.60000000000E+02 0.  0.
          5    1    3    3  501    0 -0.14946005919E+02  0.13592034286E+02 -0.21674489868E+02  0.30000000000E+02  0.47000000000E+01 0. -1.
         -5    1    3    3    0  501  0.14946005919E+02 -0.13592034286E+02  0.21674489868E+02  0.30000000000E+02  0.47000000000E+01 0.  1.
</event>
<event>
 5    1  0.7702600E-002  0.6000000E+02  0.7546771E-02  0.1259629E+00
         11   -1    0    0    0    0  0.00000000000E+00  0.00000000000E+00  0.30000000000E+02  0.30000000000E+02  0.00000000000E+00 0.  1.
        -11   -1    0    0    0    0 -0.00000000000E+00 -0.00000000000E+00 -0.30000000000E+02  0.30000000000E+02  0.00000000000E+00 0. -1.
         23    2    1    2    0    0  0.00000000000E+00  0.00000000000E+00  0.00000000000E+00  0.60000000000E+02  0.60000000000E+02 0.  0.
          5    1    3    3  501    0  0.29245727862E+02  0.40783844426E+01 -0.24421675151E+01  0.30000000000E+02  0.47000000000E+01 0. -1.
         -5    1    3    3    0  501 -0.29245727862E+02 -0.40783844426E+01  0.24421675151E+01  0.30000000000E+02  0.47000000000E+01 0. -1.
</event>
<event>
 5    1  0.7702600E-002  0.6000000E+02  0.7546771E-02  0.1259629E+00
         11   -1    0    0    0    0  0.00000000000E+00  0.00000000000E+00  0.30000000000E+02  0.30000000000E+02  0.00000000000E+00 0.  1.
        -11   -1    0    0    0    0 -0.00000000000E+00 -0.00000000000E+00 -0.30000000000E+02  0.30000000000E+02  0.00000000000E+00 0. -1.
         23    2    1    2    0    0  0.00000000000E+00  0.00000000000E+00  0.00000000000E+00  0.60000000000E+02  0.60000000000E+02 0.  0.
          5    1    3    3  501    0  0.71291132662E+01  0.68326957913E+01 -0.27935640538E+02  0.30000000000E+02  0.47000000000E+01 0. -1.
         -5    1    3    3    0  501 -0.71291132662E+01 -0.68326957913E+01  0.27935640538E+02  0.30000000000E+02  0.47000000000E+01 0.  1.
</event>
<event>
 5    1  0.7702600E-002  0.6000000E+02  0.7546771E-02  0.1259629E+00
         11   -1    0    0    0    0  0.00000000000E+00  0.00000000000E+00  0.30000000000E+02  0.30000000000E+02  0.00000000000E+00 0.  1.
        -11   -1    0    0    0    0 -0.00000000000E+00 -0.00000000000E+00 -0.30000000000E+02  0.30000000000E+02  0.00000000000E+00 0. -1.
         23    2    1    2    0    0  0.00000000000E+00  0.00000000000E+00  0.00000000000E+00  0.60000000000E+02  0.60000000000E+02 0.  0.
          5    1    3    3  501    0  0.23923982472E+01 -0.77295009168E+01 -0.28503354999E+02  0.30000000000E+02  0.47000000000E+01 0. -1.
         -5    1    3    3    0  501 -0.23923982472E+01  0.77295009168E+01  0.28503354999E+02  0.30000000000E+02  0.47000000000E+01 0.  1.
</event>
<event>
 5    1  0.7702600E-002  0.6000000E+02  0.7546771E-02  0.1259629E+00
         11   -1    0    0    0    0  0.00000000000E+00  0.00000000000E+00  0.30000000000E+02  0.30000000000E+02  0.00000000000E+00 0.  1.
        -11   -1    0    0    0    0 -0.00000000000E+00 -0.00000000000E+00 -0.30000000000E+02  0.30000000000E+02  0.00000000000E+00 0. -1.
         23    2    1    2    0    0  0.00000000000E+00  0.00000000000E+00  0.00000000000E+00  0.60000000000E+02  0.60000000000E+02 0.  0.
          5    1    3    3  501    0 -0.85241796552E+01 -0.48956079666E+00 -0.28372675084E+02  0.30000000000E+02  0.47000000000E+01 0. -1.
         -5    1    3    3    0  501  0.85241796552E+01  0.48956079666E+00  0.28372675084E+02  0.30000000000E+02  0.47000000000E+01 0.  1.
</event>
<event>
 5    1  0.7702600E-002  0.6000000E+02  0.7546771E-02  0.1259629E+00
         11   -1    0    0    0    0  0.00000000000E+00  0.00000000000E+00  0.30000000000E+02  0.30000000000E+02  0.00000000000E+00 0.  1.
        -11   -1    0    0    0    0 -0.00000000000E+00 -0.00000000000E+00 -0.30000000000E+02  0.30000000000E+02  0.00000000000E+00 0. -1.
         23    2    1    2    0    0  0.00000000000E+00  0.00000000000E+00  0.00000000000E+00  0.60000000000E+02  0.60000000000E+02 0.  0.
          5    1    3    3  501    0 -0.45148336606E+01  0.22246501195E+02 -0.19042569722E+02  0.30000000000E+02  0.47000000000E+01 0. -1.
         -5    1    3    3    0  501  0.45148336606E+01 -0.22246501195E+02  0.19042569722E+02  0.30000000000E+02  0.47000000000E+01 0.  1.
</event>
<event>
 5    1  0.7702600E-002  0.6000000E+02  0.7546771E-02  0.1259629E+00
         11   -1    0    0    0    0  0.00000000000E+00  0.00000000000E+00  0.30000000000E+02  0.30000000000E+02  0.00000000000E+00 0.  1.
        -11   -1    0    0    0    0 -0.00000000000E+00 -0.00000000000E+00 -0.30000000000E+02  0.30000000000E+02  0.00000000000E+00 0. -1.
         23    2    1    2    0    0  0.00000000000E+00  0.00000000000E+00  0.00000000000E+00  0.60000000000E+02  0.60000000000E+02 0.  0.
          5    1    3    3  501    0 -0.72684297763E+01  0.26382581063E+02 -0.11359548628E+02  0.30000000000E+02  0.47000000000E+01 0. -1.
         -5    1    3    3    0  501  0.72684297763E+01 -0.26382581063E+02  0.11359548628E+02  0.30000000000E+02  0.47000000000E+01 0.  1.
</event>
<event>
 5    1  0.7702600E-002  0.6000000E+02  0.7546771E-02  0.1259629E+00
         11   -1    0    0    0    0  0.00000000000E+00  0.00000000000E+00  0.30000000000E+02  0.30000000000E+02  0.00000000000E+00 0.  1.
        -11   -1    0    0    0    0 -0.00000000000E+00 -0.00000000000E+00 -0.30000000000E+02  0.30000000000E+02  0.00000000000E+00 0. -1.
         23    2    1    2    0    0  0.00000000000E+00  0.00000000000E+00  0.00000000000E+00  0.60000000000E+02  0.60000000000E+02 0.  0.
          5    1    3    3  501    0  0.26458759627E+02  0.13257690861E+02 -0.14414132126E+01  0.30000000000E+02  0.47000000000E+01 0. -1.
         -5    1    3    3    0  501 -0.26458759627E+02 -0.13257690861E+02  0.14414132126E+01  0.30000000000E+02  0.47000000000E+01 0.  1.
</event>
<event>
 5    1  0.7702600E-002  0.6000000E+02  0.7546771E-02  0.1259629E+00
         11   -1    0    0    0    0  0.00000000000E+00  0.00000000000E+00  0.30000000000E+02  0.30000000000E+02  0.00000000000E+00 0.  1.
        -11   -1    0    0    0    0 -0.00000000000E+00 -0.00000000000E+00 -0.30000000000E+02  0.30000000000E+02  0.00000000000E+00 0. -1.
         23    2    1    2    0    0  0.00000000000E+00  0.00000000000E+00  0.00000000000E+00  0.60000000000E+02  0.60000000000E+02 0.  0.
          5    1    3    3  501    0  0.20262192384E+02 -0.61448264558E+01 -0.20726665617E+02  0.30000000000E+02  0.47000000000E+01 0. -1.
         -5    1    3    3    0  501 -0.20262192384E+02  0.61448264558E+01  0.20726665617E+02  0.30000000000E+02  0.47000000000E+01 0.  1.
</event>
<event>
 5    1  0.7702600E-002  0.6000000E+02  0.7546771E-02  0.1259629E+00
         11   -1    0    0    0    0  0.00000000000E+00  0.00000000000E+00  0.30000000000E+02  0.30000000000E+02  0.00000000000E+00 0.  1.
        -11   -1    0    0    0    0 -0.00000000000E+00 -0.00000000000E+00 -0.30000000000E+02  0.30000000000E+02  0.00000000000E+00 0. -1.
         23    2    1    2    0    0  0.00000000000E+00  0.00000000000E+00  0.00000000000E+00  0.60000000000E+02  0.60000000000E+02 0.  0.
          5    1    3    3  501    0  0.21545977847E+01  0.89079033102E+01  0.28176532203E+02  0.30000000000E+02  0.47000000000E+01 0.  1.
         -5    1    3    3    0  501 -0.21545977847E+01 -0.89079033102E+01 -0.28176532203E+02  0.30000000000E+02  0.47000000000E+01 0. -1.
</event>
<event>
 5    1  0.7702600E-002  0.6000000E+02  0.7546771E-02  0.1259629E+00
         11   -1    0    0    0    0  0.00000000000E+00  0.00000000000E+00  0.30000000000E+02  0.30000000000E+02  0.00000000000E+00 0.  1.
        -11   -1    0    0    0    0 -0.00000000000E+00 -0.00000000000E+00 -0.30000000000E+02  0.30000000000E+02  0.00000000000E+00 0. -1.
         23    2    1    2    0    0  0.00000000000E+00  0.00000000000E+00  0.00000000000E+00  0.60000000000E+02  0.60000000000E+02 0.  0.
          5    1    3    3  501    0 -0.92604913531E+01 -0.11890814759E+02 -0.25510033796E+02  0.30000000000E+02  0.47000000000E+01 0. -1.
         -5    1    3    3    0  501  0.92604913531E+01  0.11890814759E+02  0.25510033796E+02  0.30000000000E+02  0.47000000000E+01 0.  1.
</event>
<event>
 5    1  0.7702600E-002  0.6000000E+02  0.7546771E-02  0.1259629E+00
         11   -1    0    0    0    0  0.00000000000E+00  0.00000000000E+00  0.30000000000E+02  0.30000000000E+02  0.00000000000E+00 0. -1.
        -11   -1    0    0    0    0 -0.00000000000E+00 -0.00000000000E+00 -0.30000000000E+02  0.30000000000E+02  0.00000000000E+00 0.  1.
         23    2    1    2    0    0  0.00000000000E+00  0.00000000000E+00  0.00000000000E+00  0.60000000000E+02  0.60000000000E+02 0.  0.
          5    1    3    3  501    0 -0.16044463013E+02  0.54756666192E+01 -0.24300252709E+02  0.30000000000E+02  0.47000000000E+01 0.  1.
         -5    1    3    3    0  501  0.16044463013E+02 -0.54756666192E+01  0.24300252709E+02  0.30000000000E+02  0.47000000000E+01 0. -1.
</event>
<event>
 5    1  0.7702600E-002  0.6000000E+02  0.7546771E-02  0.1259629E+00
         11   -1    0    0    0    0  0.00000000000E+00  0.00000000000E+00  0.30000000000E+02  0.30000000000E+02  0.00000000000E+00 0. -1.
        -11   -1    0    0    0    0 -0.00000000000E+00 -0.00000000000E+00 -0.30000000000E+02  0.30000000000E+02  0.00000000000E+00 0.  1.
         23    2    1    2    0    0  0.00000000000E+00  0.00000000000E+00  0.00000000000E+00  0.60000000000E+02  0.60000000000E+02 0.  0.
          5    1    3    3  501    0 -0.52303303312E+01  0.11868677941E+02  0.26639972383E+02  0.30000000000E+02  0.47000000000E+01 0. -1.
         -5    1    3    3    0  501  0.52303303312E+01 -0.11868677941E+02 -0.26639972383E+02  0.30000000000E+02  0.47000000000E+01 0.  1.
</event>
<event>
 5    1  0.7702600E-002  0.6000000E+02  0.7546771E-02  0.1259629E+00
         11   -1    0    0    0    0  0.00000000000E+00  0.00000000000E+00  0.30000000000E+02  0.30000000000E+02  0.00000000000E+00 0.  1.
        -11   -1    0    0    0    0 -0.00000000000E+00 -0.00000000000E+00 -0.30000000000E+02  0.30000000000E+02  0.00000000000E+00 0. -1.
         23    2    1    2    0    0  0.00000000000E+00  0.00000000000E+00  0.00000000000E+00  0.60000000000E+02  0.60000000000E+02 0.  0.
          5    1    3    3  501    0 -0.17097891229E+02 -0.22961043240E+02 -0.76395424508E+01  0.30000000000E+02  0.47000000000E+01 0. -1.
         -5    1    3    3    0  501  0.17097891229E+02  0.22961043240E+02  0.76395424508E+01  0.30000000000E+02  0.47000000000E+01 0.  1.
</event>
<event>
 5    1  0.7702600E-002  0.6000000E+02  0.7546771E-02  0.1259629E+00
         11   -1    0    0    0    0  0.00000000000E+00  0.00000000000E+00  0.30000000000E+02  0.30000000000E+02  0.00000000000E+00 0. -1.
        -11   -1    0    0    0    0 -0.00000000000E+00 -0.00000000000E+00 -0.30000000000E+02  0.30000000000E+02  0.00000000000E+00 0.  1.
         23    2    1    2    0    0  0.00000000000E+00  0.00000000000E+00  0.00000000000E+00  0.60000000000E+02  0.60000000000E+02 0.  0.
          5    1    3    3  501    0 -0.80577000457E+01 -0.23913621355E+02 -0.15528109469E+02  0.30000000000E+02  0.47000000000E+01 0.  1.
         -5    1    3    3    0  501  0.80577000457E+01  0.23913621355E+02  0.15528109469E+02  0.30000000000E+02  0.47000000000E+01 0. -1.
</event>
<event>
 5    1  0.7702600E-002  0.6000000E+02  0.7546771E-02  0.1259629E+00
         11   -1    0    0    0    0  0.00000000000E+00  0.00000000000E+00  0.30000000000E+02  0.30000000000E+02  0.00000000000E+00 0.  1.
        -11   -1    0    0    0    0 -0.00000000000E+00 -0.00000000000E+00 -0.30000000000E+02  0.30000000000E+02  0.00000000000E+00 0. -1.
         23    2    1    2    0    0  0.00000000000E+00  0.00000000000E+00  0.00000000000E+00  0.60000000000E+02  0.60000000000E+02 0.  0.
          5    1    3    3  501    0 -0.19689437785E+02 -0.93014038782E+01 -0.20092782923E+02  0.30000000000E+02  0.47000000000E+01 0. -1.
         -5    1    3    3    0  501  0.19689437785E+02  0.93014038782E+01  0.20092782923E+02  0.30000000000E+02  0.47000000000E+01 0.  1.
</event>
<event>
 5    1  0.7702600E-002  0.6000000E+02  0.7546771E-02  0.1259629E+00
         11   -1    0    0    0    0  0.00000000000E+00  0.00000000000E+00  0.30000000000E+02  0.30000000000E+02  0.00000000000E+00 0.  1.
        -11   -1    0    0    0    0 -0.00000000000E+00 -0.00000000000E+00 -0.30000000000E+02  0.30000000000E+02  0.00000000000E+00 0. -1.
         23    2    1    2    0    0  0.00000000000E+00  0.00000000000E+00  0.00000000000E+00  0.60000000000E+02  0.60000000000E+02 0.  0.
          5    1    3    3  501    0 -0.13551644468E+02 -0.58229579695E+01 -0.25697394667E+02  0.30000000000E+02  0.47000000000E+01 0. -1.
         -5    1    3    3    0  501  0.13551644468E+02  0.58229579695E+01  0.25697394667E+02  0.30000000000E+02  0.47000000000E+01 0.  1.
</event>
<event>
 5    1  0.7702600E-002  0.6000000E+02  0.7546771E-02  0.1259629E+00
         11   -1    0    0    0    0  0.00000000000E+00  0.00000000000E+00  0.30000000000E+02  0.30000000000E+02  0.00000000000E+00 0.  1.
        -11   -1    0    0    0    0 -0.00000000000E+00 -0.00000000000E+00 -0.30000000000E+02  0.30000000000E+02  0.00000000000E+00 0. -1.
         23    2    1    2    0    0  0.00000000000E+00  0.00000000000E+00  0.00000000000E+00  0.60000000000E+02  0.60000000000E+02 0.  0.
          5    1    3    3  501    0 -0.22867884775E+02 -0.13642003393E+02 -0.12994829331E+02  0.30000000000E+02  0.47000000000E+01 0. -1.
         -5    1    3    3    0  501  0.22867884775E+02  0.13642003393E+02  0.12994829331E+02  0.30000000000E+02  0.47000000000E+01 0.  1.
</event>
<event>
 5    1  0.7702600E-002  0.6000000E+02  0.7546771E-02  0.1259629E+00
         11   -1    0    0    0    0  0.00000000000E+00  0.00000000000E+00  0.30000000000E+02  0.30000000000E+02  0.00000000000E+00 0.  1.
        -11   -1    0    0    0    0 -0.00000000000E+00 -0.00000000000E+00 -0.30000000000E+02  0.30000000000E+02  0.00000000000E+00 0. -1.
         23    2    1    2    0    0  0.00000000000E+00  0.00000000000E+00  0.00000000000E+00  0.60000000000E+02  0.60000000000E+02 0.  0.
          5    1    3    3  501    0  0.24138744927E+02  0.19889866065E+01 -0.17066778420E+02  0.30000000000E+02  0.47000000000E+01 0. -1.
         -5    1    3    3    0  501 -0.24138744927E+02 -0.19889866065E+01  0.17066778420E+02  0.30000000000E+02  0.47000000000E+01 0.  1.
</event>
<event>
 5    1  0.7702600E-002  0.6000000E+02  0.7546771E-02  0.1259629E+00
         11   -1    0    0    0    0  0.00000000000E+00  0.00000000000E+00  0.30000000000E+02  0.30000000000E+02  0.00000000000E+00 0.  1.
        -11   -1    0    0    0    0 -0.00000000000E+00 -0.00000000000E+00 -0.30000000000E+02  0.30000000000E+02  0.00000000000E+00 0. -1.
         23    2    1    2    0    0  0.00000000000E+00  0.00000000000E+00  0.00000000000E+00  0.60000000000E+02  0.60000000000E+02 0.  0.
          5    1    3    3  501    0 -0.10917341836E+02  0.16430117822E+02 -0.22108208331E+02  0.30000000000E+02  0.47000000000E+01 0. -1.
         -5    1    3    3    0  501  0.10917341836E+02 -0.16430117822E+02  0.22108208331E+02  0.30000000000E+02  0.47000000000E+01 0.  1.
</event>
<event>
 5    1  0.7702600E-002  0.6000000E+02  0.7546771E-02  0.1259629E+00
         11   -1    0    0    0    0  0.00000000000E+00  0.00000000000E+00  0.30000000000E+02  0.30000000000E+02  0.00000000000E+00 0. -1.
        -11   -1    0    0    0    0 -0.00000000000E+00 -0.00000000000E+00 -0.30000000000E+02  0.30000000000E+02  0.00000000000E+00 0.  1.
         23    2    1    2    0    0  0.00000000000E+00  0.00000000000E+00  0.00000000000E+00  0.60000000000E+02  0.60000000000E+02 0.  0.
          5    1    3    3  501    0 -0.26709222487E+01  0.28686901896E+02 -0.69164900006E+01  0.30000000000E+02  0.47000000000E+01 0.  1.
         -5    1    3    3    0  501  0.26709222487E+01 -0.28686901896E+02  0.69164900006E+01  0.30000000000E+02  0.47000000000E+01 0. -1.
</event>
<event>
 5    1  0.7702600E-002  0.6000000E+02  0.7546771E-02  0.1259629E+00
         11   -1    0    0    0    0  0.00000000000E+00  0.00000000000E+00  0.30000000000E+02  0.30000000000E+02  0.00000000000E+00 0.  1.
        -11   -1    0    0    0    0 -0.00000000000E+00 -0.00000000000E+00 -0.30000000000E+02  0.30000000000E+02  0.00000000000E+00 0. -1.
         23    2    1    2    0    0  0.00000000000E+00  0.00000000000E+00  0.00000000000E+00  0.60000000000E+02  0.60000000000E+02 0.  0.
          5    1    3    3  501    0  0.10919707563E+02 -0.22018691115E+02 -0.16548330076E+02  0.30000000000E+02  0.47000000000E+01 0. -1.
         -5    1    3    3    0  501 -0.10919707563E+02  0.22018691115E+02  0.16548330076E+02  0.30000000000E+02  0.47000000000E+01 0.  1.
</event>
<event>
 5    1  0.7702600E-002  0.6000000E+02  0.7546771E-02  0.1259629E+00
         11   -1    0    0    0    0  0.00000000000E+00  0.00000000000E+00  0.30000000000E+02  0.30000000000E+02  0.00000000000E+00 0. -1.
        -11   -1    0    0    0    0 -0.00000000000E+00 -0.00000000000E+00 -0.30000000000E+02  0.30000000000E+02  0.00000000000E+00 0.  1.
         23    2    1    2    0    0  0.00000000000E+00  0.00000000000E+00  0.00000000000E+00  0.60000000000E+02  0.60000000000E+02 0.  0.
          5    1    3    3  501    0 -0.91457413197E+01 -0.18512866089E+01 -0.28121844776E+02  0.30000000000E+02  0.47000000000E+01 0.  1.
         -5    1    3    3    0  501  0.91457413197E+01  0.18512866089E+01  0.28121844776E+02  0.30000000000E+02  0.47000000000E+01 0. -1.
</event>
<event>
 5    1  0.7702600E-002  0.6000000E+02  0.7546771E-02  0.1259629E+00
         11   -1    0    0    0    0  0.00000000000E+00  0.00000000000E+00  0.30000000000E+02  0.30000000000E+02  0.00000000000E+00 0.  1.
        -11   -1    0    0    0    0 -0.00000000000E+00 -0.00000000000E+00 -0.30000000000E+02  0.30000000000E+02  0.00000000000E+00 0. -1.
         23    2    1    2    0    0  0.00000000000E+00  0.00000000000E+00  0.00000000000E+00  0.60000000000E+02  0.60000000000E+02 0.  0.
          5    1    3    3  501    0  0.47429094329E+01  0.27302185627E+02  0.10488349254E+02  0.30000000000E+02  0.47000000000E+01 0. -1.
         -5    1    3    3    0  501 -0.47429094329E+01 -0.27302185627E+02 -0.10488349254E+02  0.30000000000E+02  0.47000000000E+01 0.  1.
</event>
<event>
 5    1  0.7702600E-002  0.6000000E+02  0.7546771E-02  0.1259629E+00
         11   -1    0    0    0    0  0.00000000000E+00  0.00000000000E+00  0.30000000000E+02  0.30000000000E+02  0.00000000000E+00 0.  1.
        -11   -1    0    0    0    0 -0.00000000000E+00 -0.00000000000E+00 -0.30000000000E+02  0.30000000000E+02  0.00000000000E+00 0. -1.
         23    2    1    2    0    0  0.00000000000E+00  0.00000000000E+00  0.00000000000E+00  0.60000000000E+02  0.60000000000E+02 0.  0.
          5    1    3    3  501    0 -0.16514224260E+02 -0.67897297234E+01 -0.23645083366E+02  0.30000000000E+02  0.47000000000E+01 0. -1.
         -5    1    3    3    0  501  0.16514224260E+02  0.67897297234E+01  0.23645083366E+02  0.30000000000E+02  0.47000000000E+01 0.  1.
</event>
<event>
 5    1  0.7702600E-002  0.6000000E+02  0.7546771E-02  0.1259629E+00
         11   -1    0    0    0    0  0.00000000000E+00  0.00000000000E+00  0.30000000000E+02  0.30000000000E+02  0.00000000000E+00 0.  1.
        -11   -1    0    0    0    0 -0.00000000000E+00 -0.00000000000E+00 -0.30000000000E+02  0.30000000000E+02  0.00000000000E+00 0. -1.
         23    2    1    2    0    0  0.00000000000E+00  0.00000000000E+00  0.00000000000E+00  0.60000000000E+02  0.60000000000E+02 0.  0.
          5    1    3    3  501    0  0.36484582430E+01  0.34658525917E+01 -0.29199085915E+02  0.30000000000E+02  0.47000000000E+01 0. -1.
         -5    1    3    3    0  501 -0.36484582430E+01 -0.34658525917E+01  0.29199085915E+02  0.30000000000E+02  0.47000000000E+01 0.  1.
</event>
<event>
 5    1  0.7702600E-002  0.6000000E+02  0.7546771E-02  0.1259629E+00
         11   -1    0    0    0    0  0.00000000000E+00  0.00000000000E+00  0.30000000000E+02  0.30000000000E+02  0.00000000000E+00 0.  1.
        -11   -1    0    0    0    0 -0.00000000000E+00 -0.00000000000E+00 -0.30000000000E+02  0.30000000000E+02  0.00000000000E+00 0. -1.
         23    2    1    2    0    0  0.00000000000E+00  0.00000000000E+00  0.00000000000E+00  0.60000000000E+02  0.60000000000E+02 0.  0.
          5    1    3    3  501    0  0.29266794993E+02  0.16928503016E+01 -0.43010427463E+01  0.30000000000E+02  0.47000000000E+01 0. -1.
         -5    1    3    3    0  501 -0.29266794993E+02 -0.16928503016E+01  0.43010427463E+01  0.30000000000E+02  0.47000000000E+01 0.  1.
</event>
<event>
 5    1  0.7702600E-002  0.6000000E+02  0.7546771E-02  0.1259629E+00
         11   -1    0    0    0    0  0.00000000000E+00  0.00000000000E+00  0.30000000000E+02  0.30000000000E+02  0.00000000000E+00 0.  1.
        -11   -1    0    0    0    0 -0.00000000000E+00 -0.00000000000E+00 -0.30000000000E+02  0.30000000000E+02  0.00000000000E+00 0. -1.
         23    2    1    2    0    0  0.00000000000E+00  0.00000000000E+00  0.00000000000E+00  0.60000000000E+02  0.60000000000E+02 0.  0.
          5    1    3    3  501    0  0.13865423127E+02 -0.21915039601E+02 -0.14331471689E+02  0.30000000000E+02  0.47000000000E+01 0. -1.
         -5    1    3    3    0  501 -0.13865423127E+02  0.21915039601E+02  0.14331471689E+02  0.30000000000E+02  0.47000000000E+01 0.  1.
</event>
<event>
 5    1  0.7702600E-002  0.6000000E+02  0.7546771E-02  0.1259629E+00
         11   -1    0    0    0    0  0.00000000000E+00  0.00000000000E+00  0.30000000000E+02  0.30000000000E+02  0.00000000000E+00 0. -1.
        -11   -1    0    0    0    0 -0.00000000000E+00 -0.00000000000E+00 -0.30000000000E+02  0.30000000000E+02  0.00000000000E+00 0.  1.
         23    2    1    2    0    0  0.00000000000E+00  0.00000000000E+00  0.00000000000E+00  0.60000000000E+02  0.60000000000E+02 0.  0.
          5    1    3    3  501    0 -0.72272353416E+01  0.80825605038E+00 -0.28723227386E+02  0.30000000000E+02  0.47000000000E+01 0.  1.
         -5    1    3    3    0  501  0.72272353416E+01 -0.80825605038E+00  0.28723227386E+02  0.30000000000E+02  0.47000000000E+01 0. -1.
</event>
<event>
 5    1  0.7702600E-002  0.6000000E+02  0.7546771E-02  0.1259629E+00
         11   -1    0    0    0    0  0.00000000000E+00  0.00000000000E+00  0.30000000000E+02  0.30000000000E+02  0.00000000000E+00 0.  1.
        -11   -1    0    0    0    0 -0.00000000000E+00 -0.00000000000E+00 -0.30000000000E+02  0.30000000000E+02  0.00000000000E+00 0. -1.
         23    2    1    2    0    0  0.00000000000E+00  0.00000000000E+00  0.00000000000E+00  0.60000000000E+02  0.60000000000E+02 0.  0.
          5    1    3    3  501    0  0.13784867359E+02 -0.81512489308E+01  0.24928790038E+02  0.30000000000E+02  0.47000000000E+01 0.  1.
         -5    1    3    3    0  501 -0.13784867359E+02  0.81512489308E+01 -0.24928790038E+02  0.30000000000E+02  0.47000000000E+01 0. -1.
</event>
<event>
 5    1  0.7702600E-002  0.6000000E+02  0.7546771E-02  0.1259629E+00
         11   -1    0    0    0    0  0.00000000000E+00  0.00000000000E+00  0.30000000000E+02  0.30000000000E+02  0.00000000000E+00 0.  1.
        -11   -1    0    0    0    0 -0.00000000000E+00 -0.00000000000E+00 -0.30000000000E+02  0.30000000000E+02  0.00000000000E+00 0. -1.
         23    2    1    2    0    0  0.00000000000E+00  0.00000000000E+00  0.00000000000E+00  0.60000000000E+02  0.60000000000E+02 0.  0.
          5    1    3    3  501    0  0.10192717624E+00  0.52575553472E+01 -0.29159179046E+02  0.30000000000E+02  0.47000000000E+01 0. -1.
         -5    1    3    3    0  501 -0.10192717624E+00 -0.52575553472E+01  0.29159179046E+02  0.30000000000E+02  0.47000000000E+01 0.  1.
</event>
<event>
 5    1  0.7702600E-002  0.6000000E+02  0.7546771E-02  0.1259629E+00
         11   -1    0    0    0    0  0.00000000000E+00  0.00000000000E+00  0.30000000000E+02  0.30000000000E+02  0.00000000000E+00 0.  1.
        -11   -1    0    0    0    0 -0.00000000000E+00 -0.00000000000E+00 -0.30000000000E+02  0.30000000000E+02  0.00000000000E+00 0. -1.
         23    2    1    2    0    0  0.00000000000E+00  0.00000000000E+00  0.00000000000E+00  0.60000000000E+02  0.60000000000E+02 0.  0.
          5    1    3    3  501    0 -0.11064074835E+02  0.12033207836E+02 -0.24712307808E+02  0.30000000000E+02  0.47000000000E+01 0. -1.
         -5    1    3    3    0  501  0.11064074835E+02 -0.12033207836E+02  0.24712307808E+02  0.30000000000E+02  0.47000000000E+01 0.  1.
</event>
<event>
 5    1  0.7702600E-002  0.6000000E+02  0.7546771E-02  0.1259629E+00
         11   -1    0    0    0    0  0.00000000000E+00  0.00000000000E+00  0.30000000000E+02  0.30000000000E+02  0.00000000000E+00 0.  1.
        -11   -1    0    0    0    0 -0.00000000000E+00 -0.00000000000E+00 -0.30000000000E+02  0.30000000000E+02  0.00000000000E+00 0. -1.
         23    2    1    2    0    0  0.00000000000E+00  0.00000000000E+00  0.00000000000E+00  0.60000000000E+02  0.60000000000E+02 0.  0.
          5    1    3    3  501    0 -0.17562253841E+02 -0.22116565582E+02 -0.89629664125E+01  0.30000000000E+02  0.47000000000E+01 0. -1.
         -5    1    3    3    0  501  0.17562253841E+02  0.22116565582E+02  0.89629664125E+01  0.30000000000E+02  0.47000000000E+01 0.  1.
</event>
<event>
 5    1  0.7702600E-002  0.6000000E+02  0.7546771E-02  0.1259629E+00
         11   -1    0    0    0    0  0.00000000000E+00  0.00000000000E+00  0.30000000000E+02  0.30000000000E+02  0.00000000000E+00 0.  1.
        -11   -1    0    0    0    0 -0.00000000000E+00 -0.00000000000E+00 -0.30000000000E+02  0.30000000000E+02  0.00000000000E+00 0. -1.
         23    2    1    2    0    0  0.00000000000E+00  0.00000000000E+00  0.00000000000E+00  0.60000000000E+02  0.60000000000E+02 0.  0.
          5    1    3    3  501    0 -0.34877564281E+01 -0.75616744425E+01 -0.28435306130E+02  0.30000000000E+02  0.47000000000E+01 0. -1.
         -5    1    3    3    0  501  0.34877564281E+01  0.75616744425E+01  0.28435306130E+02  0.30000000000E+02  0.47000000000E+01 0.  1.
</event>
<event>
 5    1  0.7702600E-002  0.6000000E+02  0.7546771E-02  0.1259629E+00
         11   -1    0    0    0    0  0.00000000000E+00  0.00000000000E+00  0.30000000000E+02  0.30000000000E+02  0.00000000000E+00 0.  1.
        -11   -1    0    0    0    0 -0.00000000000E+00 -0.00000000000E+00 -0.30000000000E+02  0.30000000000E+02  0.00000000000E+00 0. -1.
         23    2    1    2    0    0  0.00000000000E+00  0.00000000000E+00  0.00000000000E+00  0.60000000000E+02  0.60000000000E+02 0.  0.
          5    1    3    3  501    0  0.15000991250E+02 -0.33920385940E+01 -0.25325369409E+02  0.30000000000E+02  0.47000000000E+01 0. -1.
         -5    1    3    3    0  501 -0.15000991250E+02  0.33920385940E+01  0.25325369409E+02  0.30000000000E+02  0.47000000000E+01 0.  1.
</event>
<event>
 5    1  0.7702600E-002  0.6000000E+02  0.7546771E-02  0.1259629E+00
         11   -1    0    0    0    0  0.00000000000E+00  0.00000000000E+00  0.30000000000E+02  0.30000000000E+02  0.00000000000E+00 0.  1.
        -11   -1    0    0    0    0 -0.00000000000E+00 -0.00000000000E+00 -0.30000000000E+02  0.30000000000E+02  0.00000000000E+00 0. -1.
         23    2    1    2    0    0  0.00000000000E+00  0.00000000000E+00  0.00000000000E+00  0.60000000000E+02  0.60000000000E+02 0.  0.
          5    1    3    3  501    0  0.10935309579E+02 -0.14507815351E+02 -0.23406244854E+02  0.30000000000E+02  0.47000000000E+01 0. -1.
         -5    1    3    3    0  501 -0.10935309579E+02  0.14507815351E+02  0.23406244854E+02  0.30000000000E+02  0.47000000000E+01 0.  1.
</event>
<event>
 5    1  0.7702600E-002  0.6000000E+02  0.7546771E-02  0.1259629E+00
         11   -1    0    0    0    0  0.00000000000E+00  0.00000000000E+00  0.30000000000E+02  0.30000000000E+02  0.00000000000E+00 0.  1.
        -11   -1    0    0    0    0 -0.00000000000E+00 -0.00000000000E+00 -0.30000000000E+02  0.30000000000E+02  0.00000000000E+00 0. -1.
         23    2    1    2    0    0  0.00000000000E+00  0.00000000000E+00  0.00000000000E+00  0.60000000000E+02  0.60000000000E+02 0.  0.
          5    1    3    3  501    0  0.46041534532E+00 -0.57555421664E+01 -0.29061516686E+02  0.30000000000E+02  0.47000000000E+01 0. -1.
         -5    1    3    3    0  501 -0.46041534532E+00  0.57555421664E+01  0.29061516686E+02  0.30000000000E+02  0.47000000000E+01 0.  1.
</event>
<event>
 5    1  0.7702600E-002  0.6000000E+02  0.7546771E-02  0.1259629E+00
         11   -1    0    0    0    0  0.00000000000E+00  0.00000000000E+00  0.30000000000E+02  0.30000000000E+02  0.00000000000E+00 0.  1.
        -11   -1    0    0    0    0 -0.00000000000E+00 -0.00000000000E+00 -0.30000000000E+02  0.30000000000E+02  0.00000000000E+00 0. -1.
         23    2    1    2    0    0  0.00000000000E+00  0.00000000000E+00  0.00000000000E+00  0.60000000000E+02  0.60000000000E+02 0.  0.
          5    1    3    3  501    0 -0.44399391525E+00  0.29505053907E+02 -0.26766888806E+01  0.30000000000E+02  0.47000000000E+01 0.  1.
         -5    1    3    3    0  501  0.44399391525E+00 -0.29505053907E+02  0.26766888806E+01  0.30000000000E+02  0.47000000000E+01 0. -1.
</event>
<event>
 5    1  0.7702600E-002  0.6000000E+02  0.7546771E-02  0.1259629E+00
         11   -1    0    0    0    0  0.00000000000E+00  0.00000000000E+00  0.30000000000E+02  0.30000000000E+02  0.00000000000E+00 0.  1.
        -11   -1    0    0    0    0 -0.00000000000E+00 -0.00000000000E+00 -0.30000000000E+02  0.30000000000E+02  0.00000000000E+00 0. -1.
         23    2    1    2    0    0  0.00000000000E+00  0.00000000000E+00  0.00000000000E+00  0.60000000000E+02  0.60000000000E+02 0.  0.
          5    1    3    3  501    0  0.73791630554E+01  0.10363524687E+02 -0.26759209791E+02  0.30000000000E+02  0.47000000000E+01 0. -1.
         -5    1    3    3    0  501 -0.73791630554E+01 -0.10363524687E+02  0.26759209791E+02  0.30000000000E+02  0.47000000000E+01 0.  1.
</event>
<event>
 5    1  0.7702600E-002  0.6000000E+02  0.7546771E-02  0.1259629E+00
         11   -1    0    0    0    0  0.00000000000E+00  0.00000000000E+00  0.30000000000E+02  0.30000000000E+02  0.00000000000E+00 0.  1.
        -11   -1    0    0    0    0 -0.00000000000E+00 -0.00000000000E+00 -0.30000000000E+02  0.30000000000E+02  0.00000000000E+00 0. -1.
         23    2    1    2    0    0  0.00000000000E+00  0.00000000000E+00  0.00000000000E+00  0.60000000000E+02  0.60000000000E+02 0.  0.
          5    1    3    3  501    0  0.12347455468E+02 -0.55034611643E+01 -0.26365929885E+02  0.30000000000E+02  0.47000000000E+01 0. -1.
         -5    1    3    3    0  501 -0.12347455468E+02  0.55034611643E+01  0.26365929885E+02  0.30000000000E+02  0.47000000000E+01 0.  1.
</event>
<event>
 5    1  0.7702600E-002  0.6000000E+02  0.7546771E-02  0.1259629E+00
         11   -1    0    0    0    0  0.00000000000E+00  0.00000000000E+00  0.30000000000E+02  0.30000000000E+02  0.00000000000E+00 0.  1.
        -11   -1    0    0    0    0 -0.00000000000E+00 -0.00000000000E+00 -0.30000000000E+02  0.30000000000E+02  0.00000000000E+00 0. -1.
         23    2    1    2    0    0  0.00000000000E+00  0.00000000000E+00  0.00000000000E+00  0.60000000000E+02  0.60000000000E+02 0.  0.
          5    1    3    3  501    0  0.24923783816E+01 -0.57534184971E+01 -0.28958525957E+02  0.30000000000E+02  0.47000000000E+01 0. -1.
         -5    1    3    3    0  501 -0.24923783816E+01  0.57534184971E+01  0.28958525957E+02  0.30000000000E+02  0.47000000000E+01 0.  1.
</event>
<event>
 5    1  0.7702600E-002  0.6000000E+02  0.7546771E-02  0.1259629E+00
         11   -1    0    0    0    0  0.00000000000E+00  0.00000000000E+00  0.30000000000E+02  0.30000000000E+02  0.00000000000E+00 0. -1.
        -11   -1    0    0    0    0 -0.00000000000E+00 -0.00000000000E+00 -0.30000000000E+02  0.30000000000E+02  0.00000000000E+00 0.  1.
         23    2    1    2    0    0  0.00000000000E+00  0.00000000000E+00  0.00000000000E+00  0.60000000000E+02  0.60000000000E+02 0.  0.
          5    1    3    3  501    0  0.17640996449E+02  0.72269423645E+01 -0.22682075486E+02  0.30000000000E+02  0.47000000000E+01 0.  1.
         -5    1    3    3    0  501 -0.17640996449E+02 -0.72269423645E+01  0.22682075486E+02  0.30000000000E+02  0.47000000000E+01 0. -1.
</event>
<event>
 5    1  0.7702600E-002  0.6000000E+02  0.7546771E-02  0.1259629E+00
         11   -1    0    0    0    0  0.00000000000E+00  0.00000000000E+00  0.30000000000E+02  0.30000000000E+02  0.00000000000E+00 0. -1.
        -11   -1    0    0    0    0 -0.00000000000E+00 -0.00000000000E+00 -0.30000000000E+02  0.30000000000E+02  0.00000000000E+00 0.  1.
         23    2    1    2    0    0  0.00000000000E+00  0.00000000000E+00  0.00000000000E+00  0.60000000000E+02  0.60000000000E+02 0.  0.
          5    1    3    3  501    0  0.14974198708E+02  0.12819862626E+02  0.22120906294E+02  0.30000000000E+02  0.47000000000E+01 0. -1.
         -5    1    3    3    0  501 -0.14974198708E+02 -0.12819862626E+02 -0.22120906294E+02  0.30000000000E+02  0.47000000000E+01 0.  1.
</event>
<event>
 5    1  0.7702600E-002  0.6000000E+02  0.7546771E-02  0.1259629E+00
         11   -1    0    0    0    0  0.00000000000E+00  0.00000000000E+00  0.30000000000E+02  0.30000000000E+02  0.00000000000E+00 0.  1.
        -11   -1    0    0    0    0 -0.00000000000E+00 -0.00000000000E+00 -0.30000000000E+02  0.30000000000E+02  0.00000000000E+00 0. -1.
         23    2    1    2    0    0  0.00000000000E+00  0.00000000000E+00  0.00000000000E+00  0.60000000000E+02  0.60000000000E+02 0.  0.
          5    1    3    3  501    0 -0.13046085880E+01  0.23962899579E+02  0.17377785826E+02  0.30000000000E+02  0.47000000000E+01 0.  1.
         -5    1    3    3    0  501  0.13046085880E+01 -0.23962899579E+02 -0.17377785826E+02  0.30000000000E+02  0.47000000000E+01 0. -1.
</event>
<event>
 5    1  0.7702600E-002  0.6000000E+02  0.7546771E-02  0.1259629E+00
         11   -1    0    0    0    0  0.00000000000E+00  0.00000000000E+00  0.30000000000E+02  0.30000000000E+02  0.00000000000E+00 0.  1.
        -11   -1    0    0    0    0 -0.00000000000E+00 -0.00000000000E+00 -0.30000000000E+02  0.30000000000E+02  0.00000000000E+00 0. -1.
         23    2    1    2    0    0  0.00000000000E+00  0.00000000000E+00  0.00000000000E+00  0.60000000000E+02  0.60000000000E+02 0.  0.
          5    1    3    3  501    0 -0.29654256486E+01 -0.88665891986E+01 -0.28115829113E+02  0.30000000000E+02  0.47000000000E+01 0. -1.
         -5    1    3    3    0  501  0.29654256486E+01  0.88665891986E+01  0.28115829113E+02  0.30000000000E+02  0.47000000000E+01 0.  1.
</event>
<event>
 5    1  0.7702600E-002  0.6000000E+02  0.7546771E-02  0.1259629E+00
         11   -1    0    0    0    0  0.00000000000E+00  0.00000000000E+00  0.30000000000E+02  0.30000000000E+02  0.00000000000E+00 0.  1.
        -11   -1    0    0    0    0 -0.00000000000E+00 -0.00000000000E+00 -0.30000000000E+02  0.30000000000E+02  0.00000000000E+00 0. -1.
         23    2    1    2    0    0  0.00000000000E+00  0.00000000000E+00  0.00000000000E+00  0.60000000000E+02  0.60000000000E+02 0.  0.
          5    1    3    3  501    0  0.65482787976E+01 -0.22565515371E+02 -0.18050694193E+02  0.30000000000E+02  0.47000000000E+01 0. -1.
         -5    1    3    3    0  501 -0.65482787976E+01  0.22565515371E+02  0.18050694193E+02  0.30000000000E+02  0.47000000000E+01 0.  1.
</event>
<event>
 5    1  0.7702600E-002  0.6000000E+02  0.7546771E-02  0.1259629E+00
         11   -1    0    0    0    0  0.00000000000E+00  0.00000000000E+00  0.30000000000E+02  0.30000000000E+02  0.00000000000E+00 0.  1.
        -11   -1    0    0    0    0 -0.00000000000E+00 -0.00000000000E+00 -0.30000000000E+02  0.30000000000E+02  0.00000000000E+00 0. -1.
         23    2    1    2    0    0  0.00000000000E+00  0.00000000000E+00  0.00000000000E+00  0.60000000000E+02  0.60000000000E+02 0.  0.
          5    1    3    3  501    0 -0.85040472908E+01 -0.23064675254E+02 -0.16541219275E+02  0.30000000000E+02  0.47000000000E+01 0. -1.
         -5    1    3    3    0  501  0.85040472908E+01  0.23064675254E+02  0.16541219275E+02  0.30000000000E+02  0.47000000000E+01 0.  1.
</event>
<event>
 5    1  0.7702600E-002  0.6000000E+02  0.7546771E-02  0.1259629E+00
         11   -1    0    0    0    0  0.00000000000E+00  0.00000000000E+00  0.30000000000E+02  0.30000000000E+02  0.00000000000E+00 0. -1.
        -11   -1    0    0    0    0 -0.00000000000E+00 -0.00000000000E+00 -0.30000000000E+02  0.30000000000E+02  0.00000000000E+00 0.  1.
         23    2    1    2    0    0  0.00000000000E+00  0.00000000000E+00  0.00000000000E+00  0.60000000000E+02  0.60000000000E+02 0.  0.
          5    1    3    3  501    0  0.24121706386E+02  0.12941257373E+02  0.11339185976E+02  0.30000000000E+02  0.47000000000E+01 0. -1.
         -5    1    3    3    0  501 -0.24121706386E+02 -0.12941257373E+02 -0.11339185976E+02  0.30000000000E+02  0.47000000000E+01 0.  1.
</event>
<event>
 5    1  0.7702600E-002  0.6000000E+02  0.7546771E-02  0.1259629E+00
         11   -1    0    0    0    0  0.00000000000E+00  0.00000000000E+00  0.30000000000E+02  0.30000000000E+02  0.00000000000E+00 0.  1.
        -11   -1    0    0    0    0 -0.00000000000E+00 -0.00000000000E+00 -0.30000000000E+02  0.30000000000E+02  0.00000000000E+00 0. -1.
         23    2    1    2    0    0  0.00000000000E+00  0.00000000000E+00  0.00000000000E+00  0.60000000000E+02  0.60000000000E+02 0.  0.
          5    1    3    3  501    0  0.15607901660E+02  0.14371868440E+02 -0.20682185651E+02  0.30000000000E+02  0.47000000000E+01 0. -1.
         -5    1    3    3    0  501 -0.15607901660E+02 -0.14371868440E+02  0.20682185651E+02  0.30000000000E+02  0.47000000000E+01 0.  1.
</event>
<event>
 5    1  0.7702600E-002  0.6000000E+02  0.7546771E-02  0.1259629E+00
         11   -1    0    0    0    0  0.00000000000E+00  0.00000000000E+00  0.30000000000E+02  0.30000000000E+02  0.00000000000E+00 0.  1.
        -11   -1    0    0    0    0 -0.00000000000E+00 -0.00000000000E+00 -0.30000000000E+02  0.30000000000E+02  0.00000000000E+00 0. -1.
         23    2    1    2    0    0  0.00000000000E+00  0.00000000000E+00  0.00000000000E+00  0.60000000000E+02  0.60000000000E+02 0.  0.
          5    1    3    3  501    0 -0.12183700010E+02  0.39791370935E+01 -0.26713927492E+02  0.30000000000E+02  0.47000000000E+01 0. -1.
         -5    1    3    3    0  501  0.12183700010E+02 -0.39791370935E+01  0.26713927492E+02  0.30000000000E+02  0.47000000000E+01 0.  1.
</event>
<event>
 5    1  0.7702600E-002  0.6000000E+02  0.7546771E-02  0.1259629E+00
         11   -1    0    0    0    0  0.00000000000E+00  0.00000000000E+00  0.30000000000E+02  0.30000000000E+02  0.00000000000E+00 0.  1.
        -11   -1    0    0    0    0 -0.00000000000E+00 -0.00000000000E+00 -0.30000000000E+02  0.30000000000E+02  0.00000000000E+00 0. -1.
         23    2    1    2    0    0  0.00000000000E+00  0.00000000000E+00  0.00000000000E+00  0.60000000000E+02  0.60000000000E+02 0.  0.
          5    1    3    3  501    0 -0.11806169472E+02 -0.27013035106E+02  0.29698984428E+01  0.30000000000E+02  0.47000000000E+01 0.  1.
         -5    1    3    3    0  501  0.11806169472E+02  0.27013035106E+02 -0.29698984428E+01  0.30000000000E+02  0.47000000000E+01 0. -1.
</event>
<event>
 5    1  0.7702600E-002  0.6000000E+02  0.7546771E-02  0.1259629E+00
         11   -1    0    0    0    0  0.00000000000E+00  0.00000000000E+00  0.30000000000E+02  0.30000000000E+02  0.00000000000E+00 0. -1.
        -11   -1    0    0    0    0 -0.00000000000E+00 -0.00000000000E+00 -0.30000000000E+02  0.30000000000E+02  0.00000000000E+00 0.  1.
         23    2    1    2    0    0  0.00000000000E+00  0.00000000000E+00  0.00000000000E+00  0.60000000000E+02  0.60000000000E+02 0.  0.
          5    1    3    3  501    0  0.91370259574E+01  0.45187244968E+00 -0.28181919167E+02  0.30000000000E+02  0.47000000000E+01 0.  1.
         -5    1    3    3    0  501 -0.91370259574E+01 -0.45187244968E+00  0.28181919167E+02  0.30000000000E+02  0.47000000000E+01 0. -1.
</event>
<event>
 5    1  0.7702600E-002  0.6000000E+02  0.7546771E-02  0.1259629E+00
         11   -1    0    0    0    0  0.00000000000E+00  0.00000000000E+00  0.30000000000E+02  0.30000000000E+02  0.00000000000E+00 0.  1.
        -11   -1    0    0    0    0 -0.00000000000E+00 -0.00000000000E+00 -0.30000000000E+02  0.30000000000E+02  0.00000000000E+00 0. -1.
         23    2    1    2    0    0  0.00000000000E+00  0.00000000000E+00  0.00000000000E+00  0.60000000000E+02  0.60000000000E+02 0.  0.
          5    1    3    3  501    0 -0.92628770927E+01  0.27292789111E+02  0.68711549616E+01  0.30000000000E+02  0.47000000000E+01 0. -1.
         -5    1    3    3    0  501  0.92628770927E+01 -0.27292789111E+02 -0.68711549616E+01  0.30000000000E+02  0.47000000000E+01 0.  1.
</event>
<event>
 5    1  0.7702600E-002  0.6000000E+02  0.7546771E-02  0.1259629E+00
         11   -1    0    0    0    0  0.00000000000E+00  0.00000000000E+00  0.30000000000E+02  0.30000000000E+02  0.00000000000E+00 0.  1.
        -11   -1    0    0    0    0 -0.00000000000E+00 -0.00000000000E+00 -0.30000000000E+02  0.30000000000E+02  0.00000000000E+00 0. -1.
         23    2    1    2    0    0  0.00000000000E+00  0.00000000000E+00  0.00000000000E+00  0.60000000000E+02  0.60000000000E+02 0.  0.
          5    1    3    3  501    0 -0.69990112942E+01  0.16729046459E+02 -0.23432090079E+02  0.30000000000E+02  0.47000000000E+01 0. -1.
         -5    1    3    3    0  501  0.69990112942E+01 -0.16729046459E+02  0.23432090079E+02  0.30000000000E+02  0.47000000000E+01 0.  1.
</event>
<event>
 5    1  0.7702600E-002  0.6000000E+02  0.7546771E-02  0.1259629E+00
         11   -1    0    0    0    0  0.00000000000E+00  0.00000000000E+00  0.30000000000E+02  0.30000000000E+02  0.00000000000E+00 0.  1.
        -11   -1    0    0    0    0 -0.00000000000E+00 -0.00000000000E+00 -0.30000000000E+02  0.30000000000E+02  0.00000000000E+00 0. -1.
         23    2    1    2    0    0  0.00000000000E+00  0.00000000000E+00  0.00000000000E+00  0.60000000000E+02  0.60000000000E+02 0.  0.
          5    1    3    3  501    0  0.12629782929E+02  0.24538726079E+02  0.10781906398E+02  0.30000000000E+02  0.47000000000E+01 0. -1.
         -5    1    3    3    0  501 -0.12629782929E+02 -0.24538726079E+02 -0.10781906398E+02  0.30000000000E+02  0.47000000000E+01 0.  1.
</event>
<event>
 5    1  0.7702600E-002  0.6000000E+02  0.7546771E-02  0.1259629E+00
         11   -1    0    0    0    0  0.00000000000E+00  0.00000000000E+00  0.30000000000E+02  0.30000000000E+02  0.00000000000E+00 0. -1.
        -11   -1    0    0    0    0 -0.00000000000E+00 -0.00000000000E+00 -0.30000000000E+02  0.30000000000E+02  0.00000000000E+00 0.  1.
         23    2    1    2    0    0  0.00000000000E+00  0.00000000000E+00  0.00000000000E+00  0.60000000000E+02  0.60000000000E+02 0.  0.
          5    1    3    3  501    0 -0.20490154414E+02 -0.18704591927E+02  0.10402010043E+02  0.30000000000E+02  0.47000000000E+01 0. -1.
         -5    1    3    3    0  501  0.20490154414E+02  0.18704591927E+02 -0.10402010043E+02  0.30000000000E+02  0.47000000000E+01 0.  1.
</event>
<event>
 5    1  0.7702600E-002  0.6000000E+02  0.7546771E-02  0.1259629E+00
         11   -1    0    0    0    0  0.00000000000E+00  0.00000000000E+00  0.30000000000E+02  0.30000000000E+02  0.00000000000E+00 0.  1.
        -11   -1    0    0    0    0 -0.00000000000E+00 -0.00000000000E+00 -0.30000000000E+02  0.30000000000E+02  0.00000000000E+00 0. -1.
         23    2    1    2    0    0  0.00000000000E+00  0.00000000000E+00  0.00000000000E+00  0.60000000000E+02  0.60000000000E+02 0.  0.
          5    1    3    3  501    0 -0.64801236489E+01 -0.23078321070E+02 -0.17415771418E+02  0.30000000000E+02  0.47000000000E+01 0. -1.
         -5    1    3    3    0  501  0.64801236489E+01  0.23078321070E+02  0.17415771418E+02  0.30000000000E+02  0.47000000000E+01 0.  1.
</event>
<event>
 5    1  0.7702600E-002  0.6000000E+02  0.7546771E-02  0.1259629E+00
         11   -1    0    0    0    0  0.00000000000E+00  0.00000000000E+00  0.30000000000E+02  0.30000000000E+02  0.00000000000E+00 0. -1.
        -11   -1    0    0    0    0 -0.00000000000E+00 -0.00000000000E+00 -0.30000000000E+02  0.30000000000E+02  0.00000000000E+00 0.  1.
         23    2    1    2    0    0  0.00000000000E+00  0.00000000000E+00  0.00000000000E+00  0.60000000000E+02  0.60000000000E+02 0.  0.
          5    1    3    3  501    0  0.13099385873E+02 -0.12308087710E+02 -0.23554767387E+02  0.30000000000E+02  0.47000000000E+01 0.  1.
         -5    1    3    3    0  501 -0.13099385873E+02  0.12308087710E+02  0.23554767387E+02  0.30000000000E+02  0.47000000000E+01 0. -1.
</event>
<event>
 5    1  0.7702600E-002  0.6000000E+02  0.7546771E-02  0.1259629E+00
         11   -1    0    0    0    0  0.00000000000E+00  0.00000000000E+00  0.30000000000E+02  0.30000000000E+02  0.00000000000E+00 0.  1.
        -11   -1    0    0    0    0 -0.00000000000E+00 -0.00000000000E+00 -0.30000000000E+02  0.30000000000E+02  0.00000000000E+00 0. -1.
         23    2    1    2    0    0  0.00000000000E+00  0.00000000000E+00  0.00000000000E+00  0.60000000000E+02  0.60000000000E+02 0.  0.
          5    1    3    3  501    0 -0.87517662541E+01  0.22894972423E+02 -0.16647426983E+02  0.30000000000E+02  0.47000000000E+01 0. -1.
         -5    1    3    3    0  501  0.87517662541E+01 -0.22894972423E+02  0.16647426983E+02  0.30000000000E+02  0.47000000000E+01 0.  1.
</event>
<event>
 5    1  0.7702600E-002  0.6000000E+02  0.7546771E-02  0.1259629E+00
         11   -1    0    0    0    0  0.00000000000E+00  0.00000000000E+00  0.30000000000E+02  0.30000000000E+02  0.00000000000E+00 0.  1.
        -11   -1    0    0    0    0 -0.00000000000E+00 -0.00000000000E+00 -0.30000000000E+02  0.30000000000E+02  0.00000000000E+00 0. -1.
         23    2    1    2    0    0  0.00000000000E+00  0.00000000000E+00  0.00000000000E+00  0.60000000000E+02  0.60000000000E+02 0.  0.
          5    1    3    3  501    0  0.13105103155E+02 -0.12129745601E+02 -0.23643932476E+02  0.30000000000E+02  0.47000000000E+01 0. -1.
         -5    1    3    3    0  501 -0.13105103155E+02  0.12129745601E+02  0.23643932476E+02  0.30000000000E+02  0.47000000000E+01 0.  1.
</event>
<event>
 5    1  0.7702600E-002  0.6000000E+02  0.7546771E-02  0.1259629E+00
         11   -1    0    0    0    0  0.00000000000E+00  0.00000000000E+00  0.30000000000E+02  0.30000000000E+02  0.00000000000E+00 0. -1.
        -11   -1    0    0    0    0 -0.00000000000E+00 -0.00000000000E+00 -0.30000000000E+02  0.30000000000E+02  0.00000000000E+00 0.  1.
         23    2    1    2    0    0  0.00000000000E+00  0.00000000000E+00  0.00000000000E+00  0.60000000000E+02  0.60000000000E+02 0.  0.
          5    1    3    3  501    0  0.79135749307E+01  0.28277995045E+02 -0.39547854591E+01  0.30000000000E+02  0.47000000000E+01 0.  1.
         -5    1    3    3    0  501 -0.79135749307E+01 -0.28277995045E+02  0.39547854591E+01  0.30000000000E+02  0.47000000000E+01 0. -1.
</event>
<event>
 5    1  0.7702600E-002  0.6000000E+02  0.7546771E-02  0.1259629E+00
         11   -1    0    0    0    0  0.00000000000E+00  0.00000000000E+00  0.30000000000E+02  0.30000000000E+02  0.00000000000E+00 0.  1.
        -11   -1    0    0    0    0 -0.00000000000E+00 -0.00000000000E+00 -0.30000000000E+02  0.30000000000E+02  0.00000000000E+00 0. -1.
         23    2    1    2    0    0  0.00000000000E+00  0.00000000000E+00  0.00000000000E+00  0.60000000000E+02  0.60000000000E+02 0.  0.
          5    1    3    3  501    0  0.21273829574E+02  0.20511355089E+02  0.21490666996E+01  0.30000000000E+02  0.47000000000E+01 0.  1.
         -5    1    3    3    0  501 -0.21273829574E+02 -0.20511355089E+02 -0.21490666996E+01  0.30000000000E+02  0.47000000000E+01 0. -1.
</event>
<event>
 5    1  0.7702600E-002  0.6000000E+02  0.7546771E-02  0.1259629E+00
         11   -1    0    0    0    0  0.00000000000E+00  0.00000000000E+00  0.30000000000E+02  0.30000000000E+02  0.00000000000E+00 0. -1.
        -11   -1    0    0    0    0 -0.00000000000E+00 -0.00000000000E+00 -0.30000000000E+02  0.30000000000E+02  0.00000000000E+00 0.  1.
         23    2    1    2    0    0  0.00000000000E+00  0.00000000000E+00  0.00000000000E+00  0.60000000000E+02  0.60000000000E+02 0.  0.
          5    1    3    3  501    0 -0.24083205002E+02  0.25235939943E+01  0.17074563251E+02  0.30000000000E+02  0.47000000000E+01 0. -1.
         -5    1    3    3    0  501  0.24083205002E+02 -0.25235939943E+01 -0.17074563251E+02  0.30000000000E+02  0.47000000000E+01 0.  1.
</event>
<event>
 5    1  0.7702600E-002  0.6000000E+02  0.7546771E-02  0.1259629E+00
         11   -1    0    0    0    0  0.00000000000E+00  0.00000000000E+00  0.30000000000E+02  0.30000000000E+02  0.00000000000E+00 0. -1.
        -11   -1    0    0    0    0 -0.00000000000E+00 -0.00000000000E+00 -0.30000000000E+02  0.30000000000E+02  0.00000000000E+00 0.  1.
         23    2    1    2    0    0  0.00000000000E+00  0.00000000000E+00  0.00000000000E+00  0.60000000000E+02  0.60000000000E+02 0.  0.
          5    1    3    3  501    0 -0.39830534675E+01  0.18087624937E+02 -0.23127540060E+02  0.30000000000E+02  0.47000000000E+01 0.  1.
         -5    1    3    3    0  501  0.39830534675E+01 -0.18087624937E+02  0.23127540060E+02  0.30000000000E+02  0.47000000000E+01 0. -1.
</event>
<event>
 5    1  0.7702600E-002  0.6000000E+02  0.7546771E-02  0.1259629E+00
         11   -1    0    0    0    0  0.00000000000E+00  0.00000000000E+00  0.30000000000E+02  0.30000000000E+02  0.00000000000E+00 0.  1.
        -11   -1    0    0    0    0 -0.00000000000E+00 -0.00000000000E+00 -0.30000000000E+02  0.30000000000E+02  0.00000000000E+00 0. -1.
         23    2    1    2    0    0  0.00000000000E+00  0.00000000000E+00  0.00000000000E+00  0.60000000000E+02  0.60000000000E+02 0.  0.
          5    1    3    3  501    0  0.11847006007E+02  0.76154699895E+01 -0.26068430438E+02  0.30000000000E+02  0.47000000000E+01 0. -1.
         -5    1    3    3    0  501 -0.11847006007E+02 -0.76154699895E+01  0.26068430438E+02  0.30000000000E+02  0.47000000000E+01 0.  1.
</event>
<event>
 5    1  0.7702600E-002  0.6000000E+02  0.7546771E-02  0.1259629E+00
         11   -1    0    0    0    0  0.00000000000E+00  0.00000000000E+00  0.30000000000E+02  0.30000000000E+02  0.00000000000E+00 0.  1.
        -11   -1    0    0    0    0 -0.00000000000E+00 -0.00000000000E+00 -0.30000000000E+02  0.30000000000E+02  0.00000000000E+00 0. -1.
         23    2    1    2    0    0  0.00000000000E+00  0.00000000000E+00  0.00000000000E+00  0.60000000000E+02  0.60000000000E+02 0.  0.
          5    1    3    3  501    0 -0.88579991180E+01  0.11628178902E+02 -0.25772685290E+02  0.30000000000E+02  0.47000000000E+01 0. -1.
         -5    1    3    3    0  501  0.88579991180E+01 -0.11628178902E+02  0.25772685290E+02  0.30000000000E+02  0.47000000000E+01 0.  1.
</event>
<event>
 5    1  0.7702600E-002  0.6000000E+02  0.7546771E-02  0.1259629E+00
         11   -1    0    0    0    0  0.00000000000E+00  0.00000000000E+00  0.30000000000E+02  0.30000000000E+02  0.00000000000E+00 0.  1.
        -11   -1    0    0    0    0 -0.00000000000E+00 -0.00000000000E+00 -0.30000000000E+02  0.30000000000E+02  0.00000000000E+00 0. -1.
         23    2    1    2    0    0  0.00000000000E+00  0.00000000000E+00  0.00000000000E+00  0.60000000000E+02  0.60000000000E+02 0.  0.
          5    1    3    3  501    0 -0.45970299483E+01 -0.20821627152E+02 -0.20572728511E+02  0.30000000000E+02  0.47000000000E+01 0. -1.
         -5    1    3    3    0  501  0.45970299483E+01  0.20821627152E+02  0.20572728511E+02  0.30000000000E+02  0.47000000000E+01 0.  1.
</event>
<event>
 5    1  0.7702600E-002  0.6000000E+02  0.7546771E-02  0.1259629E+00
         11   -1    0    0    0    0  0.00000000000E+00  0.00000000000E+00  0.30000000000E+02  0.30000000000E+02  0.00000000000E+00 0. -1.
        -11   -1    0    0    0    0 -0.00000000000E+00 -0.00000000000E+00 -0.30000000000E+02  0.30000000000E+02  0.00000000000E+00 0.  1.
         23    2    1    2    0    0  0.00000000000E+00  0.00000000000E+00  0.00000000000E+00  0.60000000000E+02  0.60000000000E+02 0.  0.
          5    1    3    3  501    0  0.28219322179E+02  0.77668124717E+01  0.46104750049E+01  0.30000000000E+02  0.47000000000E+01 0. -1.
         -5    1    3    3    0  501 -0.28219322179E+02 -0.77668124717E+01 -0.46104750049E+01  0.30000000000E+02  0.47000000000E+01 0.  1.
</event>
<event>
 5    1  0.7702600E-002  0.6000000E+02  0.7546771E-02  0.1259629E+00
         11   -1    0    0    0    0  0.00000000000E+00  0.00000000000E+00  0.30000000000E+02  0.30000000000E+02  0.00000000000E+00 0.  1.
        -11   -1    0    0    0    0 -0.00000000000E+00 -0.00000000000E+00 -0.30000000000E+02  0.30000000000E+02  0.00000000000E+00 0. -1.
         23    2    1    2    0    0  0.00000000000E+00  0.00000000000E+00  0.00000000000E+00  0.60000000000E+02  0.60000000000E+02 0.  0.
          5    1    3    3  501    0 -0.96043636906E+01 -0.99830207360E+01 -0.26191706609E+02  0.30000000000E+02  0.47000000000E+01 0. -1.
         -5    1    3    3    0  501  0.96043636906E+01  0.99830207360E+01  0.26191706609E+02  0.30000000000E+02  0.47000000000E+01 0.  1.
</event>
<event>
 5    1  0.7702600E-002  0.6000000E+02  0.7546771E-02  0.1259629E+00
         11   -1    0    0    0    0  0.00000000000E+00  0.00000000000E+00  0.30000000000E+02  0.30000000000E+02  0.00000000000E+00 0.  1.
        -11   -1    0    0    0    0 -0.00000000000E+00 -0.00000000000E+00 -0.30000000000E+02  0.30000000000E+02  0.00000000000E+00 0. -1.
         23    2    1    2    0    0  0.00000000000E+00  0.00000000000E+00  0.00000000000E+00  0.60000000000E+02  0.60000000000E+02 0.  0.
          5    1    3    3  501    0  0.50631490088E+01 -0.80057064881E+01 -0.28074600367E+02  0.30000000000E+02  0.47000000000E+01 0. -1.
         -5    1    3    3    0  501 -0.50631490088E+01  0.80057064881E+01  0.28074600367E+02  0.30000000000E+02  0.47000000000E+01 0.  1.
</event>
<event>
 5    1  0.7702600E-002  0.6000000E+02  0.7546771E-02  0.1259629E+00
         11   -1    0    0    0    0  0.00000000000E+00  0.00000000000E+00  0.30000000000E+02  0.30000000000E+02  0.00000000000E+00 0.  1.
        -11   -1    0    0    0    0 -0.00000000000E+00 -0.00000000000E+00 -0.30000000000E+02  0.30000000000E+02  0.00000000000E+00 0. -1.
         23    2    1    2    0    0  0.00000000000E+00  0.00000000000E+00  0.00000000000E+00  0.60000000000E+02  0.60000000000E+02 0.  0.
          5    1    3    3  501    0 -0.16956118981E+02 -0.23806085857E+02 -0.48652137948E+01  0.30000000000E+02  0.47000000000E+01 0. -1.
         -5    1    3    3    0  501  0.16956118981E+02  0.23806085857E+02  0.48652137948E+01  0.30000000000E+02  0.47000000000E+01 0.  1.
</event>
<event>
 5    1  0.7702600E-002  0.6000000E+02  0.7546771E-02  0.1259629E+00
         11   -1    0    0    0    0  0.00000000000E+00  0.00000000000E+00  0.30000000000E+02  0.30000000000E+02  0.00000000000E+00 0.  1.
        -11   -1    0    0    0    0 -0.00000000000E+00 -0.00000000000E+00 -0.30000000000E+02  0.30000000000E+02  0.00000000000E+00 0. -1.
         23    2    1    2    0    0  0.00000000000E+00  0.00000000000E+00  0.00000000000E+00  0.60000000000E+02  0.60000000000E+02 0.  0.
          5    1    3    3  501    0  0.25358298406E+02  0.15796119635E+01 -0.15243737338E+02  0.30000000000E+02  0.47000000000E+01 0. -1.
         -5    1    3    3    0  501 -0.25358298406E+02 -0.15796119635E+01  0.15243737338E+02  0.30000000000E+02  0.47000000000E+01 0.  1.
</event>
<event>
 5    1  0.7702600E-002  0.6000000E+02  0.7546771E-02  0.1259629E+00
         11   -1    0    0    0    0  0.00000000000E+00  0.00000000000E+00  0.30000000000E+02  0.30000000000E+02  0.00000000000E+00 0.  1.
        -11   -1    0    0    0    0 -0.00000000000E+00 -0.00000000000E+00 -0.30000000000E+02  0.30000000000E+02  0.00000000000E+00 0. -1.
         23    2    1    2    0    0  0.00000000000E+00  0.00000000000E+00  0.00000000000E+00  0.60000000000E+02  0.60000000000E+02 0.  0.
          5    1    3    3  501    0  0.82985243363E+01 -0.10523455044E+02  0.26425392859E+02  0.30000000000E+02  0.47000000000E+01 0.  1.
         -5    1    3    3    0  501 -0.82985243363E+01  0.10523455044E+02 -0.26425392859E+02  0.30000000000E+02  0.47000000000E+01 0. -1.
</event>
<event>
 5    1  0.7702600E-002  0.6000000E+02  0.7546771E-02  0.1259629E+00
         11   -1    0    0    0    0  0.00000000000E+00  0.00000000000E+00  0.30000000000E+02  0.30000000000E+02  0.00000000000E+00 0.  1.
        -11   -1    0    0    0    0 -0.00000000000E+00 -0.00000000000E+00 -0.30000000000E+02  0.30000000000E+02  0.00000000000E+00 0. -1.
         23    2    1    2    0    0  0.00000000000E+00  0.00000000000E+00  0.00000000000E+00  0.60000000000E+02  0.60000000000E+02 0.  0.
          5    1    3    3  501    0 -0.20110863347E+02 -0.21696984435E+02 -0.16443971131E+01  0.30000000000E+02  0.47000000000E+01 0. -1.
         -5    1    3    3    0  501  0.20110863347E+02  0.21696984435E+02  0.16443971131E+01  0.30000000000E+02  0.47000000000E+01 0.  1.
</event>
<event>
 5    1  0.7702600E-002  0.6000000E+02  0.7546771E-02  0.1259629E+00
         11   -1    0    0    0    0  0.00000000000E+00  0.00000000000E+00  0.30000000000E+02  0.30000000000E+02  0.00000000000E+00 0.  1.
        -11   -1    0    0    0    0 -0.00000000000E+00 -0.00000000000E+00 -0.30000000000E+02  0.30000000000E+02  0.00000000000E+00 0. -1.
         23    2    1    2    0    0  0.00000000000E+00  0.00000000000E+00  0.00000000000E+00  0.60000000000E+02  0.60000000000E+02 0.  0.
          5    1    3    3  501    0 -0.18035140562E+02 -0.18395493345E+02 -0.14637265096E+02  0.30000000000E+02  0.47000000000E+01 0. -1.
         -5    1    3    3    0  501  0.18035140562E+02  0.18395493345E+02  0.14637265096E+02  0.30000000000E+02  0.47000000000E+01 0.  1.
</event>
<event>
 5    1  0.7702600E-002  0.6000000E+02  0.7546771E-02  0.1259629E+00
         11   -1    0    0    0    0  0.00000000000E+00  0.00000000000E+00  0.30000000000E+02  0.30000000000E+02  0.00000000000E+00 0. -1.
        -11   -1    0    0    0    0 -0.00000000000E+00 -0.00000000000E+00 -0.30000000000E+02  0.30000000000E+02  0.00000000000E+00 0.  1.
         23    2    1    2    0    0  0.00000000000E+00  0.00000000000E+00  0.00000000000E+00  0.60000000000E+02  0.60000000000E+02 0.  0.
          5    1    3    3  501    0 -0.13402389813E+02 -0.14205269711E+02 -0.22282196026E+02  0.30000000000E+02  0.47000000000E+01 0.  1.
         -5    1    3    3    0  501  0.13402389813E+02  0.14205269711E+02  0.22282196026E+02  0.30000000000E+02  0.47000000000E+01 0. -1.
</event>
<event>
 5    1  0.7702600E-002  0.6000000E+02  0.7546771E-02  0.1259629E+00
         11   -1    0    0    0    0  0.00000000000E+00  0.00000000000E+00  0.30000000000E+02  0.30000000000E+02  0.00000000000E+00 0.  1.
        -11   -1    0    0    0    0 -0.00000000000E+00 -0.00000000000E+00 -0.30000000000E+02  0.30000000000E+02  0.00000000000E+00 0. -1.
         23    2    1    2    0    0  0.00000000000E+00  0.00000000000E+00  0.00000000000E+00  0.60000000000E+02  0.60000000000E+02 0.  0.
          5    1    3    3  501    0  0.11896681579E+02  0.17031385424E+02 -0.21126071049E+02  0.30000000000E+02  0.47000000000E+01 0. -1.
         -5    1    3    3    0  501 -0.11896681579E+02 -0.17031385424E+02  0.21126071049E+02  0.30000000000E+02  0.47000000000E+01 0.  1.
</event>
<event>
 5    1  0.7702600E-002  0.6000000E+02  0.7546771E-02  0.1259629E+00
         11   -1    0    0    0    0  0.00000000000E+00  0.00000000000E+00  0.30000000000E+02  0.30000000000E+02  0.00000000000E+00 0.  1.
        -11   -1    0    0    0    0 -0.00000000000E+00 -0.00000000000E+00 -0.30000000000E+02  0.30000000000E+02  0.00000000000E+00 0. -1.
         23    2    1    2    0    0  0.00000000000E+00  0.00000000000E+00  0.00000000000E+00  0.60000000000E+02  0.60000000000E+02 0.  0.
          5    1    3    3  501    0  0.15104514493E+02 -0.24945354410E+02  0.52433706011E+01  0.30000000000E+02  0.47000000000E+01 0.  1.
         -5    1    3    3    0  501 -0.15104514493E+02  0.24945354410E+02 -0.52433706011E+01  0.30000000000E+02  0.47000000000E+01 0. -1.
</event>
<event>
 5    1  0.7702600E-002  0.6000000E+02  0.7546771E-02  0.1259629E+00
         11   -1    0    0    0    0  0.00000000000E+00  0.00000000000E+00  0.30000000000E+02  0.30000000000E+02  0.00000000000E+00 0.  1.
        -11   -1    0    0    0    0 -0.00000000000E+00 -0.00000000000E+00 -0.30000000000E+02  0.30000000000E+02  0.00000000000E+00 0. -1.
         23    2    1    2    0    0  0.00000000000E+00  0.00000000000E+00  0.00000000000E+00  0.60000000000E+02  0.60000000000E+02 0.  0.
          5    1    3    3  501    0  0.23027051376E+02  0.51715826966E+01 -0.17914230024E+02  0.30000000000E+02  0.47000000000E+01 0. -1.
         -5    1    3    3    0  501 -0.23027051376E+02 -0.51715826966E+01  0.17914230024E+02  0.30000000000E+02  0.47000000000E+01 0.  1.
</event>
<event>
 5    1  0.7702600E-002  0.6000000E+02  0.7546771E-02  0.1259629E+00
         11   -1    0    0    0    0  0.00000000000E+00  0.00000000000E+00  0.30000000000E+02  0.30000000000E+02  0.00000000000E+00 0. -1.
        -11   -1    0    0    0    0 -0.00000000000E+00 -0.00000000000E+00 -0.30000000000E+02  0.30000000000E+02  0.00000000000E+00 0.  1.
         23    2    1    2    0    0  0.00000000000E+00  0.00000000000E+00  0.00000000000E+00  0.60000000000E+02  0.60000000000E+02 0.  0.
          5    1    3    3  501    0  0.75644346540E+01  0.99394885307E+01  0.26868120443E+02  0.30000000000E+02  0.47000000000E+01 0. -1.
         -5    1    3    3    0  501 -0.75644346540E+01 -0.99394885307E+01 -0.26868120443E+02  0.30000000000E+02  0.47000000000E+01 0.  1.
</event>
<event>
 5    1  0.7702600E-002  0.6000000E+02  0.7546771E-02  0.1259629E+00
         11   -1    0    0    0    0  0.00000000000E+00  0.00000000000E+00  0.30000000000E+02  0.30000000000E+02  0.00000000000E+00 0. -1.
        -11   -1    0    0    0    0 -0.00000000000E+00 -0.00000000000E+00 -0.30000000000E+02  0.30000000000E+02  0.00000000000E+00 0.  1.
         23    2    1    2    0    0  0.00000000000E+00  0.00000000000E+00  0.00000000000E+00  0.60000000000E+02  0.60000000000E+02 0.  0.
          5    1    3    3  501    0  0.92135960935E+01 -0.74578521071E+01 -0.27155111655E+02  0.30000000000E+02  0.47000000000E+01 0.  1.
         -5    1    3    3    0  501 -0.92135960935E+01  0.74578521071E+01  0.27155111655E+02  0.30000000000E+02  0.47000000000E+01 0. -1.
</event>
<event>
 5    1  0.7702600E-002  0.6000000E+02  0.7546771E-02  0.1259629E+00
         11   -1    0    0    0    0  0.00000000000E+00  0.00000000000E+00  0.30000000000E+02  0.30000000000E+02  0.00000000000E+00 0.  1.
        -11   -1    0    0    0    0 -0.00000000000E+00 -0.00000000000E+00 -0.30000000000E+02  0.30000000000E+02  0.00000000000E+00 0. -1.
         23    2    1    2    0    0  0.00000000000E+00  0.00000000000E+00  0.00000000000E+00  0.60000000000E+02  0.60000000000E+02 0.  0.
          5    1    3    3  501    0  0.26169949174E+02  0.11601508729E+02 -0.76451785749E+01  0.30000000000E+02  0.47000000000E+01 0. -1.
         -5    1    3    3    0  501 -0.26169949174E+02 -0.11601508729E+02  0.76451785749E+01  0.30000000000E+02  0.47000000000E+01 0.  1.
</event>
<event>
 5    1  0.7702600E-002  0.6000000E+02  0.7546771E-02  0.1259629E+00
         11   -1    0    0    0    0  0.00000000000E+00  0.00000000000E+00  0.30000000000E+02  0.30000000000E+02  0.00000000000E+00 0. -1.
        -11   -1    0    0    0    0 -0.00000000000E+00 -0.00000000000E+00 -0.30000000000E+02  0.30000000000E+02  0.00000000000E+00 0.  1.
         23    2    1    2    0    0  0.00000000000E+00  0.00000000000E+00  0.00000000000E+00  0.60000000000E+02  0.60000000000E+02 0.  0.
          5    1    3    3  501    0 -0.12769318575E+02 -0.36350394072E+01 -0.26488506784E+02  0.30000000000E+02  0.47000000000E+01 0.  1.
         -5    1    3    3    0  501  0.12769318575E+02  0.36350394072E+01  0.26488506784E+02  0.30000000000E+02  0.47000000000E+01 0. -1.
</event>
<event>
 5    1  0.7702600E-002  0.6000000E+02  0.7546771E-02  0.1259629E+00
         11   -1    0    0    0    0  0.00000000000E+00  0.00000000000E+00  0.30000000000E+02  0.30000000000E+02  0.00000000000E+00 0.  1.
        -11   -1    0    0    0    0 -0.00000000000E+00 -0.00000000000E+00 -0.30000000000E+02  0.30000000000E+02  0.00000000000E+00 0. -1.
         23    2    1    2    0    0  0.00000000000E+00  0.00000000000E+00  0.00000000000E+00  0.60000000000E+02  0.60000000000E+02 0.  0.
          5    1    3    3  501    0 -0.21837729628E+02 -0.18049637590E+02  0.86737620194E+01  0.30000000000E+02  0.47000000000E+01 0.  1.
         -5    1    3    3    0  501  0.21837729628E+02  0.18049637590E+02 -0.86737620194E+01  0.30000000000E+02  0.47000000000E+01 0. -1.
</event>
<event>
 5    1  0.7702600E-002  0.6000000E+02  0.7546771E-02  0.1259629E+00
         11   -1    0    0    0    0  0.00000000000E+00  0.00000000000E+00  0.30000000000E+02  0.30000000000E+02  0.00000000000E+00 0.  1.
        -11   -1    0    0    0    0 -0.00000000000E+00 -0.00000000000E+00 -0.30000000000E+02  0.30000000000E+02  0.00000000000E+00 0. -1.
         23    2    1    2    0    0  0.00000000000E+00  0.00000000000E+00  0.00000000000E+00  0.60000000000E+02  0.60000000000E+02 0.  0.
          5    1    3    3  501    0 -0.17333056325E+02 -0.90092118533E+01 -0.22277999466E+02  0.30000000000E+02  0.47000000000E+01 0. -1.
         -5    1    3    3    0  501  0.17333056325E+02  0.90092118533E+01  0.22277999466E+02  0.30000000000E+02  0.47000000000E+01 0.  1.
</event>
<event>
 5    1  0.7702600E-002  0.6000000E+02  0.7546771E-02  0.1259629E+00
         11   -1    0    0    0    0  0.00000000000E+00  0.00000000000E+00  0.30000000000E+02  0.30000000000E+02  0.00000000000E+00 0.  1.
        -11   -1    0    0    0    0 -0.00000000000E+00 -0.00000000000E+00 -0.30000000000E+02  0.30000000000E+02  0.00000000000E+00 0. -1.
         23    2    1    2    0    0  0.00000000000E+00  0.00000000000E+00  0.00000000000E+00  0.60000000000E+02  0.60000000000E+02 0.  0.
          5    1    3    3  501    0  0.18173303236E+02  0.21504208458E+02  0.92309299679E+01  0.30000000000E+02  0.47000000000E+01 0. -1.
         -5    1    3    3    0  501 -0.18173303236E+02 -0.21504208458E+02 -0.92309299679E+01  0.30000000000E+02  0.47000000000E+01 0.  1.
</event>
<event>
 5    1  0.7702600E-002  0.6000000E+02  0.7546771E-02  0.1259629E+00
         11   -1    0    0    0    0  0.00000000000E+00  0.00000000000E+00  0.30000000000E+02  0.30000000000E+02  0.00000000000E+00 0.  1.
        -11   -1    0    0    0    0 -0.00000000000E+00 -0.00000000000E+00 -0.30000000000E+02  0.30000000000E+02  0.00000000000E+00 0. -1.
         23    2    1    2    0    0  0.00000000000E+00  0.00000000000E+00  0.00000000000E+00  0.60000000000E+02  0.60000000000E+02 0.  0.
          5    1    3    3  501    0  0.83460831486E+01 -0.16903585688E+02 -0.22858733275E+02  0.30000000000E+02  0.47000000000E+01 0. -1.
         -5    1    3    3    0  501 -0.83460831486E+01  0.16903585688E+02  0.22858733275E+02  0.30000000000E+02  0.47000000000E+01 0.  1.
</event>
<event>
 5    1  0.7702600E-002  0.6000000E+02  0.7546771E-02  0.1259629E+00
         11   -1    0    0    0    0  0.00000000000E+00  0.00000000000E+00  0.30000000000E+02  0.30000000000E+02  0.00000000000E+00 0. -1.
        -11   -1    0    0    0    0 -0.00000000000E+00 -0.00000000000E+00 -0.30000000000E+02  0.30000000000E+02  0.00000000000E+00 0.  1.
         23    2    1    2    0    0  0.00000000000E+00  0.00000000000E+00  0.00000000000E+00  0.60000000000E+02  0.60000000000E+02 0.  0.
          5    1    3    3  501    0  0.38022078326E+01  0.10528812233E+02 -0.27433507405E+02  0.30000000000E+02  0.47000000000E+01 0.  1.
         -5    1    3    3    0  501 -0.38022078326E+01 -0.10528812233E+02  0.27433507405E+02  0.30000000000E+02  0.47000000000E+01 0. -1.
</event>
<event>
 5    1  0.7702600E-002  0.6000000E+02  0.7546771E-02  0.1259629E+00
         11   -1    0    0    0    0  0.00000000000E+00  0.00000000000E+00  0.30000000000E+02  0.30000000000E+02  0.00000000000E+00 0.  1.
        -11   -1    0    0    0    0 -0.00000000000E+00 -0.00000000000E+00 -0.30000000000E+02  0.30000000000E+02  0.00000000000E+00 0. -1.
         23    2    1    2    0    0  0.00000000000E+00  0.00000000000E+00  0.00000000000E+00  0.60000000000E+02  0.60000000000E+02 0.  0.
          5    1    3    3  501    0  0.10495383704E+02  0.26972651332E+02 -0.63429489248E+01  0.30000000000E+02  0.47000000000E+01 0. -1.
         -5    1    3    3    0  501 -0.10495383704E+02 -0.26972651332E+02  0.63429489248E+01  0.30000000000E+02  0.47000000000E+01 0.  1.
</event>
<event>
 5    1  0.7702600E-002  0.6000000E+02  0.7546771E-02  0.1259629E+00
         11   -1    0    0    0    0  0.00000000000E+00  0.00000000000E+00  0.30000000000E+02  0.30000000000E+02  0.00000000000E+00 0. -1.
        -11   -1    0    0    0    0 -0.00000000000E+00 -0.00000000000E+00 -0.30000000000E+02  0.30000000000E+02  0.00000000000E+00 0.  1.
         23    2    1    2    0    0  0.00000000000E+00  0.00000000000E+00  0.00000000000E+00  0.60000000000E+02  0.60000000000E+02 0.  0.
          5    1    3    3  501    0 -0.27504850614E+02 -0.99929461430E+00  0.10972447447E+02  0.30000000000E+02  0.47000000000E+01 0.  1.
         -5    1    3    3    0  501  0.27504850614E+02  0.99929461430E+00 -0.10972447447E+02  0.30000000000E+02  0.47000000000E+01 0. -1.
</event>
<event>
 5    1  0.7702600E-002  0.6000000E+02  0.7546771E-02  0.1259629E+00
         11   -1    0    0    0    0  0.00000000000E+00  0.00000000000E+00  0.30000000000E+02  0.30000000000E+02  0.00000000000E+00 0.  1.
        -11   -1    0    0    0    0 -0.00000000000E+00 -0.00000000000E+00 -0.30000000000E+02  0.30000000000E+02  0.00000000000E+00 0. -1.
         23    2    1    2    0    0  0.00000000000E+00  0.00000000000E+00  0.00000000000E+00  0.60000000000E+02  0.60000000000E+02 0.  0.
          5    1    3    3  501    0 -0.28840395820E+02  0.11726391877E+01 -0.66907762099E+01  0.30000000000E+02  0.47000000000E+01 0. -1.
         -5    1    3    3    0  501  0.28840395820E+02 -0.11726391877E+01  0.66907762099E+01  0.30000000000E+02  0.47000000000E+01 0.  1.
</event>
<event>
 5    1  0.7702600E-002  0.6000000E+02  0.7546771E-02  0.1259629E+00
         11   -1    0    0    0    0  0.00000000000E+00  0.00000000000E+00  0.30000000000E+02  0.30000000000E+02  0.00000000000E+00 0. -1.
        -11   -1    0    0    0    0 -0.00000000000E+00 -0.00000000000E+00 -0.30000000000E+02  0.30000000000E+02  0.00000000000E+00 0.  1.
         23    2    1    2    0    0  0.00000000000E+00  0.00000000000E+00  0.00000000000E+00  0.60000000000E+02  0.60000000000E+02 0.  0.
          5    1    3    3  501    0  0.21520532052E+02  0.38987375327E+01 -0.19989410843E+02  0.30000000000E+02  0.47000000000E+01 0.  1.
         -5    1    3    3    0  501 -0.21520532052E+02 -0.38987375327E+01  0.19989410843E+02  0.30000000000E+02  0.47000000000E+01 0. -1.
</event>
<event>
 5    1  0.7702600E-002  0.6000000E+02  0.7546771E-02  0.1259629E+00
         11   -1    0    0    0    0  0.00000000000E+00  0.00000000000E+00  0.30000000000E+02  0.30000000000E+02  0.00000000000E+00 0.  1.
        -11   -1    0    0    0    0 -0.00000000000E+00 -0.00000000000E+00 -0.30000000000E+02  0.30000000000E+02  0.00000000000E+00 0. -1.
         23    2    1    2    0    0  0.00000000000E+00  0.00000000000E+00  0.00000000000E+00  0.60000000000E+02  0.60000000000E+02 0.  0.
          5    1    3    3  501    0  0.16210650535E+01 -0.29196933113E+02  0.47771586615E+01  0.30000000000E+02  0.47000000000E+01 0. -1.
         -5    1    3    3    0  501 -0.16210650535E+01  0.29196933113E+02 -0.47771586615E+01  0.30000000000E+02  0.47000000000E+01 0.  1.
</event>
<event>
 5    1  0.7702600E-002  0.6000000E+02  0.7546771E-02  0.1259629E+00
         11   -1    0    0    0    0  0.00000000000E+00  0.00000000000E+00  0.30000000000E+02  0.30000000000E+02  0.00000000000E+00 0.  1.
        -11   -1    0    0    0    0 -0.00000000000E+00 -0.00000000000E+00 -0.30000000000E+02  0.30000000000E+02  0.00000000000E+00 0. -1.
         23    2    1    2    0    0  0.00000000000E+00  0.00000000000E+00  0.00000000000E+00  0.60000000000E+02  0.60000000000E+02 0.  0.
          5    1    3    3  501    0 -0.39234764579E+01  0.28488519704E+02 -0.71358655772E+01  0.30000000000E+02  0.47000000000E+01 0. -1.
         -5    1    3    3    0  501  0.39234764579E+01 -0.28488519704E+02  0.71358655772E+01  0.30000000000E+02  0.47000000000E+01 0.  1.
</event>
<event>
 5    1  0.7702600E-002  0.6000000E+02  0.7546771E-02  0.1259629E+00
         11   -1    0    0    0    0  0.00000000000E+00  0.00000000000E+00  0.30000000000E+02  0.30000000000E+02  0.00000000000E+00 0. -1.
        -11   -1    0    0    0    0 -0.00000000000E+00 -0.00000000000E+00 -0.30000000000E+02  0.30000000000E+02  0.00000000000E+00 0.  1.
         23    2    1    2    0    0  0.00000000000E+00  0.00000000000E+00  0.00000000000E+00  0.60000000000E+02  0.60000000000E+02 0.  0.
          5    1    3    3  501    0  0.16501891168E+02 -0.12265087278E+02  0.21334601518E+02  0.30000000000E+02  0.47000000000E+01 0. -1.
         -5    1    3    3    0  501 -0.16501891168E+02  0.12265087278E+02 -0.21334601518E+02  0.30000000000E+02  0.47000000000E+01 0.  1.
</event>
<event>
 5    1  0.7702600E-002  0.6000000E+02  0.7546771E-02  0.1259629E+00
         11   -1    0    0    0    0  0.00000000000E+00  0.00000000000E+00  0.30000000000E+02  0.30000000000E+02  0.00000000000E+00 0.  1.
        -11   -1    0    0    0    0 -0.00000000000E+00 -0.00000000000E+00 -0.30000000000E+02  0.30000000000E+02  0.00000000000E+00 0. -1.
         23    2    1    2    0    0  0.00000000000E+00  0.00000000000E+00  0.00000000000E+00  0.60000000000E+02  0.60000000000E+02 0.  0.
          5    1    3    3  501    0 -0.17361222896E+02  0.17618283579E+02 -0.16312388645E+02  0.30000000000E+02  0.47000000000E+01 0. -1.
         -5    1    3    3    0  501  0.17361222896E+02 -0.17618283579E+02  0.16312388645E+02  0.30000000000E+02  0.47000000000E+01 0.  1.
</event>
<event>
 5    1  0.7702600E-002  0.6000000E+02  0.7546771E-02  0.1259629E+00
         11   -1    0    0    0    0  0.00000000000E+00  0.00000000000E+00  0.30000000000E+02  0.30000000000E+02  0.00000000000E+00 0.  1.
        -11   -1    0    0    0    0 -0.00000000000E+00 -0.00000000000E+00 -0.30000000000E+02  0.30000000000E+02  0.00000000000E+00 0. -1.
         23    2    1    2    0    0  0.00000000000E+00  0.00000000000E+00  0.00000000000E+00  0.60000000000E+02  0.60000000000E+02 0.  0.
          5    1    3    3  501    0  0.10828880959E+01  0.22973448781E+02 -0.18680417675E+02  0.30000000000E+02  0.47000000000E+01 0. -1.
         -5    1    3    3    0  501 -0.10828880959E+01 -0.22973448781E+02  0.18680417675E+02  0.30000000000E+02  0.47000000000E+01 0.  1.
</event>
<event>
 5    1  0.7702600E-002  0.6000000E+02  0.7546771E-02  0.1259629E+00
         11   -1    0    0    0    0  0.00000000000E+00  0.00000000000E+00  0.30000000000E+02  0.30000000000E+02  0.00000000000E+00 0.  1.
        -11   -1    0    0    0    0 -0.00000000000E+00 -0.00000000000E+00 -0.30000000000E+02  0.30000000000E+02  0.00000000000E+00 0. -1.
         23    2    1    2    0    0  0.00000000000E+00  0.00000000000E+00  0.00000000000E+00  0.60000000000E+02  0.60000000000E+02 0.  0.
          5    1    3    3  501    0 -0.26439812634E+02 -0.11526754732E+02 -0.67808725988E+01  0.30000000000E+02  0.47000000000E+01 0. -1.
         -5    1    3    3    0  501  0.26439812634E+02  0.11526754732E+02  0.67808725988E+01  0.30000000000E+02  0.47000000000E+01 0.  1.
</event>
<event>
 5    1  0.7702600E-002  0.6000000E+02  0.7546771E-02  0.1259629E+00
         11   -1    0    0    0    0  0.00000000000E+00  0.00000000000E+00  0.30000000000E+02  0.30000000000E+02  0.00000000000E+00 0.  1.
        -11   -1    0    0    0    0 -0.00000000000E+00 -0.00000000000E+00 -0.30000000000E+02  0.30000000000E+02  0.00000000000E+00 0. -1.
         23    2    1    2    0    0  0.00000000000E+00  0.00000000000E+00  0.00000000000E+00  0.60000000000E+02  0.60000000000E+02 0.  0.
          5    1    3    3  501    0  0.11480700621E+02 -0.49096123174E+01 -0.26870043173E+02  0.30000000000E+02  0.47000000000E+01 0. -1.
         -5    1    3    3    0  501 -0.11480700621E+02  0.49096123174E+01  0.26870043173E+02  0.30000000000E+02  0.47000000000E+01 0.  1.
</event>
<event>
 5    1  0.7702600E-002  0.6000000E+02  0.7546771E-02  0.1259629E+00
         11   -1    0    0    0    0  0.00000000000E+00  0.00000000000E+00  0.30000000000E+02  0.30000000000E+02  0.00000000000E+00 0.  1.
        -11   -1    0    0    0    0 -0.00000000000E+00 -0.00000000000E+00 -0.30000000000E+02  0.30000000000E+02  0.00000000000E+00 0. -1.
         23    2    1    2    0    0  0.00000000000E+00  0.00000000000E+00  0.00000000000E+00  0.60000000000E+02  0.60000000000E+02 0.  0.
          5    1    3    3  501    0  0.23741884488E+02 -0.74263833318E+01 -0.16096016636E+02  0.30000000000E+02  0.47000000000E+01 0. -1.
         -5    1    3    3    0  501 -0.23741884488E+02  0.74263833318E+01  0.16096016636E+02  0.30000000000E+02  0.47000000000E+01 0.  1.
</event>
<event>
 5    1  0.7702600E-002  0.6000000E+02  0.7546771E-02  0.1259629E+00
         11   -1    0    0    0    0  0.00000000000E+00  0.00000000000E+00  0.30000000000E+02  0.30000000000E+02  0.00000000000E+00 0.  1.
        -11   -1    0    0    0    0 -0.00000000000E+00 -0.00000000000E+00 -0.30000000000E+02  0.30000000000E+02  0.00000000000E+00 0. -1.
         23    2    1    2    0    0  0.00000000000E+00  0.00000000000E+00  0.00000000000E+00  0.60000000000E+02  0.60000000000E+02 0.  0.
          5    1    3    3  501    0  0.81354945750E+01 -0.29114710224E+01 -0.28341613654E+02  0.30000000000E+02  0.47000000000E+01 0. -1.
         -5    1    3    3    0  501 -0.81354945750E+01  0.29114710224E+01  0.28341613654E+02  0.30000000000E+02  0.47000000000E+01 0.  1.
</event>
<event>
 5    1  0.7702600E-002  0.6000000E+02  0.7546771E-02  0.1259629E+00
         11   -1    0    0    0    0  0.00000000000E+00  0.00000000000E+00  0.30000000000E+02  0.30000000000E+02  0.00000000000E+00 0.  1.
        -11   -1    0    0    0    0 -0.00000000000E+00 -0.00000000000E+00 -0.30000000000E+02  0.30000000000E+02  0.00000000000E+00 0. -1.
         23    2    1    2    0    0  0.00000000000E+00  0.00000000000E+00  0.00000000000E+00  0.60000000000E+02  0.60000000000E+02 0.  0.
          5    1    3    3  501    0 -0.62606534289E+01 -0.77779089788E+01  0.27896565211E+02  0.30000000000E+02  0.47000000000E+01 0.  1.
         -5    1    3    3    0  501  0.62606534289E+01  0.77779089788E+01 -0.27896565211E+02  0.30000000000E+02  0.47000000000E+01 0. -1.
</event>
<event>
 5    1  0.7702600E-002  0.6000000E+02  0.7546771E-02  0.1259629E+00
         11   -1    0    0    0    0  0.00000000000E+00  0.00000000000E+00  0.30000000000E+02  0.30000000000E+02  0.00000000000E+00 0.  1.
        -11   -1    0    0    0    0 -0.00000000000E+00 -0.00000000000E+00 -0.30000000000E+02  0.30000000000E+02  0.00000000000E+00 0. -1.
         23    2    1    2    0    0  0.00000000000E+00  0.00000000000E+00  0.00000000000E+00  0.60000000000E+02  0.60000000000E+02 0.  0.
          5    1    3    3  501    0  0.13806868897E+02 -0.13477329269E+02  0.22486484097E+02  0.30000000000E+02  0.47000000000E+01 0.  1.
         -5    1    3    3    0  501 -0.13806868897E+02  0.13477329269E+02 -0.22486484097E+02  0.30000000000E+02  0.47000000000E+01 0. -1.
</event>
<event>
 5    1  0.7702600E-002  0.6000000E+02  0.7546771E-02  0.1259629E+00
         11   -1    0    0    0    0  0.00000000000E+00  0.00000000000E+00  0.30000000000E+02  0.30000000000E+02  0.00000000000E+00 0.  1.
        -11   -1    0    0    0    0 -0.00000000000E+00 -0.00000000000E+00 -0.30000000000E+02  0.30000000000E+02  0.00000000000E+00 0. -1.
         23    2    1    2    0    0  0.00000000000E+00  0.00000000000E+00  0.00000000000E+00  0.60000000000E+02  0.60000000000E+02 0.  0.
          5    1    3    3  501    0 -0.14235628476E+01 -0.24015250045E+02 -0.17295988960E+02  0.30000000000E+02  0.47000000000E+01 0. -1.
         -5    1    3    3    0  501  0.14235628476E+01  0.24015250045E+02  0.17295988960E+02  0.30000000000E+02  0.47000000000E+01 0.  1.
</event>
<event>
 5    1  0.7702600E-002  0.6000000E+02  0.7546771E-02  0.1259629E+00
         11   -1    0    0    0    0  0.00000000000E+00  0.00000000000E+00  0.30000000000E+02  0.30000000000E+02  0.00000000000E+00 0. -1.
        -11   -1    0    0    0    0 -0.00000000000E+00 -0.00000000000E+00 -0.30000000000E+02  0.30000000000E+02  0.00000000000E+00 0.  1.
         23    2    1    2    0    0  0.00000000000E+00  0.00000000000E+00  0.00000000000E+00  0.60000000000E+02  0.60000000000E+02 0.  0.
          5    1    3    3  501    0 -0.14390890742E+02  0.22707947465E+02 -0.12456379312E+02  0.30000000000E+02  0.47000000000E+01 0.  1.
         -5    1    3    3    0  501  0.14390890742E+02 -0.22707947465E+02  0.12456379312E+02  0.30000000000E+02  0.47000000000E+01 0. -1.
</event>
<event>
 5    1  0.7702600E-002  0.6000000E+02  0.7546771E-02  0.1259629E+00
         11   -1    0    0    0    0  0.00000000000E+00  0.00000000000E+00  0.30000000000E+02  0.30000000000E+02  0.00000000000E+00 0.  1.
        -11   -1    0    0    0    0 -0.00000000000E+00 -0.00000000000E+00 -0.30000000000E+02  0.30000000000E+02  0.00000000000E+00 0. -1.
         23    2    1    2    0    0  0.00000000000E+00  0.00000000000E+00  0.00000000000E+00  0.60000000000E+02  0.60000000000E+02 0.  0.
          5    1    3    3  501    0 -0.19657687032E+01  0.75651765969E+01 -0.28579955501E+02  0.30000000000E+02  0.47000000000E+01 0. -1.
         -5    1    3    3    0  501  0.19657687032E+01 -0.75651765969E+01  0.28579955501E+02  0.30000000000E+02  0.47000000000E+01 0.  1.
</event>
<event>
 5    1  0.7702600E-002  0.6000000E+02  0.7546771E-02  0.1259629E+00
         11   -1    0    0    0    0  0.00000000000E+00  0.00000000000E+00  0.30000000000E+02  0.30000000000E+02  0.00000000000E+00 0. -1.
        -11   -1    0    0    0    0 -0.00000000000E+00 -0.00000000000E+00 -0.30000000000E+02  0.30000000000E+02  0.00000000000E+00 0.  1.
         23    2    1    2    0    0  0.00000000000E+00  0.00000000000E+00  0.00000000000E+00  0.60000000000E+02  0.60000000000E+02 0.  0.
          5    1    3    3  501    0 -0.81759688301E+01  0.28451235631E+02 -0.12612393811E+01  0.30000000000E+02  0.47000000000E+01 0.  1.
         -5    1    3    3    0  501  0.81759688301E+01 -0.28451235631E+02  0.12612393811E+01  0.30000000000E+02  0.47000000000E+01 0.  1.
</event>
<event>
 5    1  0.7702600E-002  0.6000000E+02  0.7546771E-02  0.1259629E+00
         11   -1    0    0    0    0  0.00000000000E+00  0.00000000000E+00  0.30000000000E+02  0.30000000000E+02  0.00000000000E+00 0.  1.
        -11   -1    0    0    0    0 -0.00000000000E+00 -0.00000000000E+00 -0.30000000000E+02  0.30000000000E+02  0.00000000000E+00 0. -1.
         23    2    1    2    0    0  0.00000000000E+00  0.00000000000E+00  0.00000000000E+00  0.60000000000E+02  0.60000000000E+02 0.  0.
          5    1    3    3  501    0 -0.49475711840E+01 -0.20407216242E+02 -0.20903996380E+02  0.30000000000E+02  0.47000000000E+01 0. -1.
         -5    1    3    3    0  501  0.49475711840E+01  0.20407216242E+02  0.20903996380E+02  0.30000000000E+02  0.47000000000E+01 0.  1.
</event>
<event>
 5    1  0.7702600E-002  0.6000000E+02  0.7546771E-02  0.1259629E+00
         11   -1    0    0    0    0  0.00000000000E+00  0.00000000000E+00  0.30000000000E+02  0.30000000000E+02  0.00000000000E+00 0. -1.
        -11   -1    0    0    0    0 -0.00000000000E+00 -0.00000000000E+00 -0.30000000000E+02  0.30000000000E+02  0.00000000000E+00 0.  1.
         23    2    1    2    0    0  0.00000000000E+00  0.00000000000E+00  0.00000000000E+00  0.60000000000E+02  0.60000000000E+02 0.  0.
          5    1    3    3  501    0  0.38458103918E+01  0.39633599091E+01 -0.29110333572E+02  0.30000000000E+02  0.47000000000E+01 0.  1.
         -5    1    3    3    0  501 -0.38458103918E+01 -0.39633599091E+01  0.29110333572E+02  0.30000000000E+02  0.47000000000E+01 0. -1.
</event>
<event>
 5    1  0.7702600E-002  0.6000000E+02  0.7546771E-02  0.1259629E+00
         11   -1    0    0    0    0  0.00000000000E+00  0.00000000000E+00  0.30000000000E+02  0.30000000000E+02  0.00000000000E+00 0.  1.
        -11   -1    0    0    0    0 -0.00000000000E+00 -0.00000000000E+00 -0.30000000000E+02  0.30000000000E+02  0.00000000000E+00 0. -1.
         23    2    1    2    0    0  0.00000000000E+00  0.00000000000E+00  0.00000000000E+00  0.60000000000E+02  0.60000000000E+02 0.  0.
          5    1    3    3  501    0  0.28148355380E+02  0.37883213995E+01 -0.84397103242E+01  0.30000000000E+02  0.47000000000E+01 0. -1.
         -5    1    3    3    0  501 -0.28148355380E+02 -0.37883213995E+01  0.84397103242E+01  0.30000000000E+02  0.47000000000E+01 0.  1.
</event>
<event>
 5    1  0.7702600E-002  0.6000000E+02  0.7546771E-02  0.1259629E+00
         11   -1    0    0    0    0  0.00000000000E+00  0.00000000000E+00  0.30000000000E+02  0.30000000000E+02  0.00000000000E+00 0.  1.
        -11   -1    0    0    0    0 -0.00000000000E+00 -0.00000000000E+00 -0.30000000000E+02  0.30000000000E+02  0.00000000000E+00 0. -1.
         23    2    1    2    0    0  0.00000000000E+00  0.00000000000E+00  0.00000000000E+00  0.60000000000E+02  0.60000000000E+02 0.  0.
          5    1    3    3  501    0  0.58932158311E+01 -0.85075661364E+01 -0.27763308982E+02  0.30000000000E+02  0.47000000000E+01 0. -1.
         -5    1    3    3    0  501 -0.58932158311E+01  0.85075661364E+01  0.27763308982E+02  0.30000000000E+02  0.47000000000E+01 0.  1.
</event>
<event>
 5    1  0.7702600E-002  0.6000000E+02  0.7546771E-02  0.1259629E+00
         11   -1    0    0    0    0  0.00000000000E+00  0.00000000000E+00  0.30000000000E+02  0.30000000000E+02  0.00000000000E+00 0.  1.
        -11   -1    0    0    0    0 -0.00000000000E+00 -0.00000000000E+00 -0.30000000000E+02  0.30000000000E+02  0.00000000000E+00 0. -1.
         23    2    1    2    0    0  0.00000000000E+00  0.00000000000E+00  0.00000000000E+00  0.60000000000E+02  0.60000000000E+02 0.  0.
          5    1    3    3  501    0  0.65066772382E+01  0.22653915419E+02  0.17954756125E+02  0.30000000000E+02  0.47000000000E+01 0. -1.
         -5    1    3    3    0  501 -0.65066772382E+01 -0.22653915419E+02 -0.17954756125E+02  0.30000000000E+02  0.47000000000E+01 0.  1.
</event>
<event>
 5    1  0.7702600E-002  0.6000000E+02  0.7546771E-02  0.1259629E+00
         11   -1    0    0    0    0  0.00000000000E+00  0.00000000000E+00  0.30000000000E+02  0.30000000000E+02  0.00000000000E+00 0.  1.
        -11   -1    0    0    0    0 -0.00000000000E+00 -0.00000000000E+00 -0.30000000000E+02  0.30000000000E+02  0.00000000000E+00 0. -1.
         23    2    1    2    0    0  0.00000000000E+00  0.00000000000E+00  0.00000000000E+00  0.60000000000E+02  0.60000000000E+02 0.  0.
          5    1    3    3  501    0  0.17045982160E+02  0.98799551950E+01 -0.22129866189E+02  0.30000000000E+02  0.47000000000E+01 0. -1.
         -5    1    3    3    0  501 -0.17045982160E+02 -0.98799551950E+01  0.22129866189E+02  0.30000000000E+02  0.47000000000E+01 0.  1.
</event>
<event>
 5    1  0.7702600E-002  0.6000000E+02  0.7546771E-02  0.1259629E+00
         11   -1    0    0    0    0  0.00000000000E+00  0.00000000000E+00  0.30000000000E+02  0.30000000000E+02  0.00000000000E+00 0.  1.
        -11   -1    0    0    0    0 -0.00000000000E+00 -0.00000000000E+00 -0.30000000000E+02  0.30000000000E+02  0.00000000000E+00 0. -1.
         23    2    1    2    0    0  0.00000000000E+00  0.00000000000E+00  0.00000000000E+00  0.60000000000E+02  0.60000000000E+02 0.  0.
          5    1    3    3  501    0  0.49998170010E+01 -0.10550902559E+01 -0.29185589158E+02  0.30000000000E+02  0.47000000000E+01 0. -1.
         -5    1    3    3    0  501 -0.49998170010E+01  0.10550902559E+01  0.29185589158E+02  0.30000000000E+02  0.47000000000E+01 0.  1.
</event>
<event>
 5    1  0.7702600E-002  0.6000000E+02  0.7546771E-02  0.1259629E+00
         11   -1    0    0    0    0  0.00000000000E+00  0.00000000000E+00  0.30000000000E+02  0.30000000000E+02  0.00000000000E+00 0.  1.
        -11   -1    0    0    0    0 -0.00000000000E+00 -0.00000000000E+00 -0.30000000000E+02  0.30000000000E+02  0.00000000000E+00 0. -1.
         23    2    1    2    0    0  0.00000000000E+00  0.00000000000E+00  0.00000000000E+00  0.60000000000E+02  0.60000000000E+02 0.  0.
          5    1    3    3  501    0 -0.13810168626E+02 -0.24687953685E+02  0.88144305188E+01  0.30000000000E+02  0.47000000000E+01 0.  1.
         -5    1    3    3    0  501  0.13810168626E+02  0.24687953685E+02 -0.88144305188E+01  0.30000000000E+02  0.47000000000E+01 0. -1.
</event>
<event>
 5    1  0.7702600E-002  0.6000000E+02  0.7546771E-02  0.1259629E+00
         11   -1    0    0    0    0  0.00000000000E+00  0.00000000000E+00  0.30000000000E+02  0.30000000000E+02  0.00000000000E+00 0.  1.
        -11   -1    0    0    0    0 -0.00000000000E+00 -0.00000000000E+00 -0.30000000000E+02  0.30000000000E+02  0.00000000000E+00 0. -1.
         23    2    1    2    0    0  0.00000000000E+00  0.00000000000E+00  0.00000000000E+00  0.60000000000E+02  0.60000000000E+02 0.  0.
          5    1    3    3  501    0  0.23607085456E+01 -0.79734339699E+01 -0.28438730736E+02  0.30000000000E+02  0.47000000000E+01 0. -1.
         -5    1    3    3    0  501 -0.23607085456E+01  0.79734339699E+01  0.28438730736E+02  0.30000000000E+02  0.47000000000E+01 0.  1.
</event>
<event>
 5    1  0.7702600E-002  0.6000000E+02  0.7546771E-02  0.1259629E+00
         11   -1    0    0    0    0  0.00000000000E+00  0.00000000000E+00  0.30000000000E+02  0.30000000000E+02  0.00000000000E+00 0. -1.
        -11   -1    0    0    0    0 -0.00000000000E+00 -0.00000000000E+00 -0.30000000000E+02  0.30000000000E+02  0.00000000000E+00 0.  1.
         23    2    1    2    0    0  0.00000000000E+00  0.00000000000E+00  0.00000000000E+00  0.60000000000E+02  0.60000000000E+02 0.  0.
          5    1    3    3  501    0 -0.14858068043E+02 -0.82462701987E+01 -0.24272347267E+02  0.30000000000E+02  0.47000000000E+01 0.  1.
         -5    1    3    3    0  501  0.14858068043E+02  0.82462701987E+01  0.24272347267E+02  0.30000000000E+02  0.47000000000E+01 0. -1.
</event>
<event>
 5    1  0.7702600E-002  0.6000000E+02  0.7546771E-02  0.1259629E+00
         11   -1    0    0    0    0  0.00000000000E+00  0.00000000000E+00  0.30000000000E+02  0.30000000000E+02  0.00000000000E+00 0. -1.
        -11   -1    0    0    0    0 -0.00000000000E+00 -0.00000000000E+00 -0.30000000000E+02  0.30000000000E+02  0.00000000000E+00 0.  1.
         23    2    1    2    0    0  0.00000000000E+00  0.00000000000E+00  0.00000000000E+00  0.60000000000E+02  0.60000000000E+02 0.  0.
          5    1    3    3  501    0 -0.73184776545E+01  0.24397698697E+01 -0.28607645968E+02  0.30000000000E+02  0.47000000000E+01 0.  1.
         -5    1    3    3    0  501  0.73184776545E+01 -0.24397698697E+01  0.28607645968E+02  0.30000000000E+02  0.47000000000E+01 0. -1.
</event>
<event>
 5    1  0.7702600E-002  0.6000000E+02  0.7546771E-02  0.1259629E+00
         11   -1    0    0    0    0  0.00000000000E+00  0.00000000000E+00  0.30000000000E+02  0.30000000000E+02  0.00000000000E+00 0. -1.
        -11   -1    0    0    0    0 -0.00000000000E+00 -0.00000000000E+00 -0.30000000000E+02  0.30000000000E+02  0.00000000000E+00 0.  1.
         23    2    1    2    0    0  0.00000000000E+00  0.00000000000E+00  0.00000000000E+00  0.60000000000E+02  0.60000000000E+02 0.  0.
          5    1    3    3  501    0  0.20568228682E+01  0.12289635334E+02  0.26882044994E+02  0.30000000000E+02  0.47000000000E+01 0. -1.
         -5    1    3    3    0  501 -0.20568228682E+01 -0.12289635334E+02 -0.26882044994E+02  0.30000000000E+02  0.47000000000E+01 0.  1.
</event>
<event>
 5    1  0.7702600E-002  0.6000000E+02  0.7546771E-02  0.1259629E+00
         11   -1    0    0    0    0  0.00000000000E+00  0.00000000000E+00  0.30000000000E+02  0.30000000000E+02  0.00000000000E+00 0.  1.
        -11   -1    0    0    0    0 -0.00000000000E+00 -0.00000000000E+00 -0.30000000000E+02  0.30000000000E+02  0.00000000000E+00 0. -1.
         23    2    1    2    0    0  0.00000000000E+00  0.00000000000E+00  0.00000000000E+00  0.60000000000E+02  0.60000000000E+02 0.  0.
          5    1    3    3  501    0  0.14891872531E+02 -0.12412666834E+02 -0.22406870254E+02  0.30000000000E+02  0.47000000000E+01 0. -1.
         -5    1    3    3    0  501 -0.14891872531E+02  0.12412666834E+02  0.22406870254E+02  0.30000000000E+02  0.47000000000E+01 0.  1.
</event>
<event>
 5    1  0.7702600E-002  0.6000000E+02  0.7546771E-02  0.1259629E+00
         11   -1    0    0    0    0  0.00000000000E+00  0.00000000000E+00  0.30000000000E+02  0.30000000000E+02  0.00000000000E+00 0. -1.
        -11   -1    0    0    0    0 -0.00000000000E+00 -0.00000000000E+00 -0.30000000000E+02  0.30000000000E+02  0.00000000000E+00 0.  1.
         23    2    1    2    0    0  0.00000000000E+00  0.00000000000E+00  0.00000000000E+00  0.60000000000E+02  0.60000000000E+02 0.  0.
          5    1    3    3  501    0 -0.23990431711E+02  0.80521794479E+00 -0.17370112562E+02  0.30000000000E+02  0.47000000000E+01 0.  1.
         -5    1    3    3    0  501  0.23990431711E+02 -0.80521794479E+00  0.17370112562E+02  0.30000000000E+02  0.47000000000E+01 0. -1.
</event>
<event>
 5    1  0.7702600E-002  0.6000000E+02  0.7546771E-02  0.1259629E+00
         11   -1    0    0    0    0  0.00000000000E+00  0.00000000000E+00  0.30000000000E+02  0.30000000000E+02  0.00000000000E+00 0. -1.
        -11   -1    0    0    0    0 -0.00000000000E+00 -0.00000000000E+00 -0.30000000000E+02  0.30000000000E+02  0.00000000000E+00 0.  1.
         23    2    1    2    0    0  0.00000000000E+00  0.00000000000E+00  0.00000000000E+00  0.60000000000E+02  0.60000000000E+02 0.  0.
          5    1    3    3  501    0 -0.13034400721E+00  0.28212985125E+02 -0.90509933595E+01  0.30000000000E+02  0.47000000000E+01 0.  1.
         -5    1    3    3    0  501  0.13034400721E+00 -0.28212985125E+02  0.90509933595E+01  0.30000000000E+02  0.47000000000E+01 0. -1.
</event>
<event>
 5    1  0.7702600E-002  0.6000000E+02  0.7546771E-02  0.1259629E+00
         11   -1    0    0    0    0  0.00000000000E+00  0.00000000000E+00  0.30000000000E+02  0.30000000000E+02  0.00000000000E+00 0.  1.
        -11   -1    0    0    0    0 -0.00000000000E+00 -0.00000000000E+00 -0.30000000000E+02  0.30000000000E+02  0.00000000000E+00 0. -1.
         23    2    1    2    0    0  0.00000000000E+00  0.00000000000E+00  0.00000000000E+00  0.60000000000E+02  0.60000000000E+02 0.  0.
          5    1    3    3  501    0  0.18564281165E+01  0.18109778432E+02  0.23377330896E+02  0.30000000000E+02  0.47000000000E+01 0.  1.
         -5    1    3    3    0  501 -0.18564281165E+01 -0.18109778432E+02 -0.23377330896E+02  0.30000000000E+02  0.47000000000E+01 0. -1.
</event>
<event>
 5    1  0.7702600E-002  0.6000000E+02  0.7546771E-02  0.1259629E+00
         11   -1    0    0    0    0  0.00000000000E+00  0.00000000000E+00  0.30000000000E+02  0.30000000000E+02  0.00000000000E+00 0.  1.
        -11   -1    0    0    0    0 -0.00000000000E+00 -0.00000000000E+00 -0.30000000000E+02  0.30000000000E+02  0.00000000000E+00 0. -1.
         23    2    1    2    0    0  0.00000000000E+00  0.00000000000E+00  0.00000000000E+00  0.60000000000E+02  0.60000000000E+02 0.  0.
          5    1    3    3  501    0 -0.88217220376E+01 -0.27019520698E+02 -0.83685555222E+01  0.30000000000E+02  0.47000000000E+01 0. -1.
         -5    1    3    3    0  501  0.88217220376E+01  0.27019520698E+02  0.83685555222E+01  0.30000000000E+02  0.47000000000E+01 0.  1.
</event>
<event>
 5    1  0.7702600E-002  0.6000000E+02  0.7546771E-02  0.1259629E+00
         11   -1    0    0    0    0  0.00000000000E+00  0.00000000000E+00  0.30000000000E+02  0.30000000000E+02  0.00000000000E+00 0. -1.
        -11   -1    0    0    0    0 -0.00000000000E+00 -0.00000000000E+00 -0.30000000000E+02  0.30000000000E+02  0.00000000000E+00 0.  1.
         23    2    1    2    0    0  0.00000000000E+00  0.00000000000E+00  0.00000000000E+00  0.60000000000E+02  0.60000000000E+02 0.  0.
          5    1    3    3  501    0 -0.17908043909E+02 -0.60694915476E+01 -0.22811690768E+02  0.30000000000E+02  0.47000000000E+01 0.  1.
         -5    1    3    3    0  501  0.17908043909E+02  0.60694915476E+01  0.22811690768E+02  0.30000000000E+02  0.47000000000E+01 0. -1.
</event>
<event>
 5    1  0.7702600E-002  0.6000000E+02  0.7546771E-02  0.1259629E+00
         11   -1    0    0    0    0  0.00000000000E+00  0.00000000000E+00  0.30000000000E+02  0.30000000000E+02  0.00000000000E+00 0.  1.
        -11   -1    0    0    0    0 -0.00000000000E+00 -0.00000000000E+00 -0.30000000000E+02  0.30000000000E+02  0.00000000000E+00 0. -1.
         23    2    1    2    0    0  0.00000000000E+00  0.00000000000E+00  0.00000000000E+00  0.60000000000E+02  0.60000000000E+02 0.  0.
          5    1    3    3  501    0  0.95808847572E+01 -0.75359482570E+01 -0.27006038790E+02  0.30000000000E+02  0.47000000000E+01 0. -1.
         -5    1    3    3    0  501 -0.95808847572E+01  0.75359482570E+01  0.27006038790E+02  0.30000000000E+02  0.47000000000E+01 0.  1.
</event>
<event>
 5    1  0.7702600E-002  0.6000000E+02  0.7546771E-02  0.1259629E+00
         11   -1    0    0    0    0  0.00000000000E+00  0.00000000000E+00  0.30000000000E+02  0.30000000000E+02  0.00000000000E+00 0. -1.
        -11   -1    0    0    0    0 -0.00000000000E+00 -0.00000000000E+00 -0.30000000000E+02  0.30000000000E+02  0.00000000000E+00 0.  1.
         23    2    1    2    0    0  0.00000000000E+00  0.00000000000E+00  0.00000000000E+00  0.60000000000E+02  0.60000000000E+02 0.  0.
          5    1    3    3  501    0  0.45591554728E+01  0.19183853134E+02 -0.22115693077E+02  0.30000000000E+02  0.47000000000E+01 0.  1.
         -5    1    3    3    0  501 -0.45591554728E+01 -0.19183853134E+02  0.22115693077E+02  0.30000000000E+02  0.47000000000E+01 0. -1.
</event>
<event>
 5    1  0.7702600E-002  0.6000000E+02  0.7546771E-02  0.1259629E+00
         11   -1    0    0    0    0  0.00000000000E+00  0.00000000000E+00  0.30000000000E+02  0.30000000000E+02  0.00000000000E+00 0.  1.
        -11   -1    0    0    0    0 -0.00000000000E+00 -0.00000000000E+00 -0.30000000000E+02  0.30000000000E+02  0.00000000000E+00 0. -1.
         23    2    1    2    0    0  0.00000000000E+00  0.00000000000E+00  0.00000000000E+00  0.60000000000E+02  0.60000000000E+02 0.  0.
          5    1    3    3  501    0  0.12289514495E+02 -0.26881589935E+02 -0.20634815424E+01  0.30000000000E+02  0.47000000000E+01 0. -1.
         -5    1    3    3    0  501 -0.12289514495E+02  0.26881589935E+02  0.20634815424E+01  0.30000000000E+02  0.47000000000E+01 0.  1.
</event>
<event>
 5    1  0.7702600E-002  0.6000000E+02  0.7546771E-02  0.1259629E+00
         11   -1    0    0    0    0  0.00000000000E+00  0.00000000000E+00  0.30000000000E+02  0.30000000000E+02  0.00000000000E+00 0.  1.
        -11   -1    0    0    0    0 -0.00000000000E+00 -0.00000000000E+00 -0.30000000000E+02  0.30000000000E+02  0.00000000000E+00 0. -1.
         23    2    1    2    0    0  0.00000000000E+00  0.00000000000E+00  0.00000000000E+00  0.60000000000E+02  0.60000000000E+02 0.  0.
          5    1    3    3  501    0  0.23005842082E+02 -0.15708074392E+02  0.10094435546E+02  0.30000000000E+02  0.47000000000E+01 0. -1.
         -5    1    3    3    0  501 -0.23005842082E+02  0.15708074392E+02 -0.10094435546E+02  0.30000000000E+02  0.47000000000E+01 0.  1.
</event>
<event>
 5    1  0.7702600E-002  0.6000000E+02  0.7546771E-02  0.1259629E+00
         11   -1    0    0    0    0  0.00000000000E+00  0.00000000000E+00  0.30000000000E+02  0.30000000000E+02  0.00000000000E+00 0.  1.
        -11   -1    0    0    0    0 -0.00000000000E+00 -0.00000000000E+00 -0.30000000000E+02  0.30000000000E+02  0.00000000000E+00 0. -1.
         23    2    1    2    0    0  0.00000000000E+00  0.00000000000E+00  0.00000000000E+00  0.60000000000E+02  0.60000000000E+02 0.  0.
          5    1    3    3  501    0  0.25660224476E+02 -0.41794181636E+01 -0.14212506593E+02  0.30000000000E+02  0.47000000000E+01 0. -1.
         -5    1    3    3    0  501 -0.25660224476E+02  0.41794181636E+01  0.14212506593E+02  0.30000000000E+02  0.47000000000E+01 0.  1.
</event>
<event>
 5    1  0.7702600E-002  0.6000000E+02  0.7546771E-02  0.1259629E+00
         11   -1    0    0    0    0  0.00000000000E+00  0.00000000000E+00  0.30000000000E+02  0.30000000000E+02  0.00000000000E+00 0. -1.
        -11   -1    0    0    0    0 -0.00000000000E+00 -0.00000000000E+00 -0.30000000000E+02  0.30000000000E+02  0.00000000000E+00 0.  1.
         23    2    1    2    0    0  0.00000000000E+00  0.00000000000E+00  0.00000000000E+00  0.60000000000E+02  0.60000000000E+02 0.  0.
          5    1    3    3  501    0  0.71980470947E+01  0.65204494154E+01 -0.27992532173E+02  0.30000000000E+02  0.47000000000E+01 0.  1.
         -5    1    3    3    0  501 -0.71980470947E+01 -0.65204494154E+01  0.27992532173E+02  0.30000000000E+02  0.47000000000E+01 0. -1.
</event>
<event>
 5    1  0.7702600E-002  0.6000000E+02  0.7546771E-02  0.1259629E+00
         11   -1    0    0    0    0  0.00000000000E+00  0.00000000000E+00  0.30000000000E+02  0.30000000000E+02  0.00000000000E+00 0.  1.
        -11   -1    0    0    0    0 -0.00000000000E+00 -0.00000000000E+00 -0.30000000000E+02  0.30000000000E+02  0.00000000000E+00 0. -1.
         23    2    1    2    0    0  0.00000000000E+00  0.00000000000E+00  0.00000000000E+00  0.60000000000E+02  0.60000000000E+02 0.  0.
          5    1    3    3  501    0 -0.27278872093E+02 -0.93483711336E+01 -0.68103666935E+01  0.30000000000E+02  0.47000000000E+01 0. -1.
         -5    1    3    3    0  501  0.27278872093E+02  0.93483711336E+01  0.68103666935E+01  0.30000000000E+02  0.47000000000E+01 0.  1.
</event>
<event>
 5    1  0.7702600E-002  0.6000000E+02  0.7546771E-02  0.1259629E+00
         11   -1    0    0    0    0  0.00000000000E+00  0.00000000000E+00  0.30000000000E+02  0.30000000000E+02  0.00000000000E+00 0.  1.
        -11   -1    0    0    0    0 -0.00000000000E+00 -0.00000000000E+00 -0.30000000000E+02  0.30000000000E+02  0.00000000000E+00 0. -1.
         23    2    1    2    0    0  0.00000000000E+00  0.00000000000E+00  0.00000000000E+00  0.60000000000E+02  0.60000000000E+02 0.  0.
          5    1    3    3  501    0  0.14891056483E+02  0.21339971296E+02  0.14169405842E+02  0.30000000000E+02  0.47000000000E+01 0.  1.
         -5    1    3    3    0  501 -0.14891056483E+02 -0.21339971296E+02 -0.14169405842E+02  0.30000000000E+02  0.47000000000E+01 0. -1.
</event>
<event>
 5    1  0.7702600E-002  0.6000000E+02  0.7546771E-02  0.1259629E+00
         11   -1    0    0    0    0  0.00000000000E+00  0.00000000000E+00  0.30000000000E+02  0.30000000000E+02  0.00000000000E+00 0.  1.
        -11   -1    0    0    0    0 -0.00000000000E+00 -0.00000000000E+00 -0.30000000000E+02  0.30000000000E+02  0.00000000000E+00 0. -1.
         23    2    1    2    0    0  0.00000000000E+00  0.00000000000E+00  0.00000000000E+00  0.60000000000E+02  0.60000000000E+02 0.  0.
          5    1    3    3  501    0  0.25630370107E+02 -0.83602080994E+01  0.12292316655E+02  0.30000000000E+02  0.47000000000E+01 0.  1.
         -5    1    3    3    0  501 -0.25630370107E+02  0.83602080994E+01 -0.12292316655E+02  0.30000000000E+02  0.47000000000E+01 0. -1.
</event>
<event>
 5    1  0.7702600E-002  0.6000000E+02  0.7546771E-02  0.1259629E+00
         11   -1    0    0    0    0  0.00000000000E+00  0.00000000000E+00  0.30000000000E+02  0.30000000000E+02  0.00000000000E+00 0.  1.
        -11   -1    0    0    0    0 -0.00000000000E+00 -0.00000000000E+00 -0.30000000000E+02  0.30000000000E+02  0.00000000000E+00 0. -1.
         23    2    1    2    0    0  0.00000000000E+00  0.00000000000E+00  0.00000000000E+00  0.60000000000E+02  0.60000000000E+02 0.  0.
          5    1    3    3  501    0 -0.24822073988E+02  0.12846144545E+02 -0.98362194602E+01  0.30000000000E+02  0.47000000000E+01 0. -1.
         -5    1    3    3    0  501  0.24822073988E+02 -0.12846144545E+02  0.98362194602E+01  0.30000000000E+02  0.47000000000E+01 0.  1.
</event>
<event>
 5    1  0.7702600E-002  0.6000000E+02  0.7546771E-02  0.1259629E+00
         11   -1    0    0    0    0  0.00000000000E+00  0.00000000000E+00  0.30000000000E+02  0.30000000000E+02  0.00000000000E+00 0.  1.
        -11   -1    0    0    0    0 -0.00000000000E+00 -0.00000000000E+00 -0.30000000000E+02  0.30000000000E+02  0.00000000000E+00 0. -1.
         23    2    1    2    0    0  0.00000000000E+00  0.00000000000E+00  0.00000000000E+00  0.60000000000E+02  0.60000000000E+02 0.  0.
          5    1    3    3  501    0 -0.28985538608E+02  0.43574337455E+01 -0.43314342577E+01  0.30000000000E+02  0.47000000000E+01 0. -1.
         -5    1    3    3    0  501  0.28985538608E+02 -0.43574337455E+01  0.43314342577E+01  0.30000000000E+02  0.47000000000E+01 0.  1.
</event>
<event>
 5    1  0.7702600E-002  0.6000000E+02  0.7546771E-02  0.1259629E+00
         11   -1    0    0    0    0  0.00000000000E+00  0.00000000000E+00  0.30000000000E+02  0.30000000000E+02  0.00000000000E+00 0. -1.
        -11   -1    0    0    0    0 -0.00000000000E+00 -0.00000000000E+00 -0.30000000000E+02  0.30000000000E+02  0.00000000000E+00 0.  1.
         23    2    1    2    0    0  0.00000000000E+00  0.00000000000E+00  0.00000000000E+00  0.60000000000E+02  0.60000000000E+02 0.  0.
          5    1    3    3  501    0  0.98762335890E+01 -0.54560452318E+01 -0.27397108981E+02  0.30000000000E+02  0.47000000000E+01 0.  1.
         -5    1    3    3    0  501 -0.98762335890E+01  0.54560452318E+01  0.27397108981E+02  0.30000000000E+02  0.47000000000E+01 0. -1.
</event>
<event>
 5    1  0.7702600E-002  0.6000000E+02  0.7546771E-02  0.1259629E+00
         11   -1    0    0    0    0  0.00000000000E+00  0.00000000000E+00  0.30000000000E+02  0.30000000000E+02  0.00000000000E+00 0. -1.
        -11   -1    0    0    0    0 -0.00000000000E+00 -0.00000000000E+00 -0.30000000000E+02  0.30000000000E+02  0.00000000000E+00 0.  1.
         23    2    1    2    0    0  0.00000000000E+00  0.00000000000E+00  0.00000000000E+00  0.60000000000E+02  0.60000000000E+02 0.  0.
          5    1    3    3  501    0  0.14887182133E+02  0.26735914947E+01 -0.25478102690E+02  0.30000000000E+02  0.47000000000E+01 0.  1.
         -5    1    3    3    0  501 -0.14887182133E+02 -0.26735914947E+01  0.25478102690E+02  0.30000000000E+02  0.47000000000E+01 0. -1.
</event>
<event>
 5    1  0.7702600E-002  0.6000000E+02  0.7546771E-02  0.1259629E+00
         11   -1    0    0    0    0  0.00000000000E+00  0.00000000000E+00  0.30000000000E+02  0.30000000000E+02  0.00000000000E+00 0. -1.
        -11   -1    0    0    0    0 -0.00000000000E+00 -0.00000000000E+00 -0.30000000000E+02  0.30000000000E+02  0.00000000000E+00 0.  1.
         23    2    1    2    0    0  0.00000000000E+00  0.00000000000E+00  0.00000000000E+00  0.60000000000E+02  0.60000000000E+02 0.  0.
          5    1    3    3  501    0  0.22585640845E+01  0.29007706244E+02  0.56001666687E+01  0.30000000000E+02  0.47000000000E+01 0. -1.
         -5    1    3    3    0  501 -0.22585640845E+01 -0.29007706244E+02 -0.56001666687E+01  0.30000000000E+02  0.47000000000E+01 0. -1.
</event>
<event>
 5    1  0.7702600E-002  0.6000000E+02  0.7546771E-02  0.1259629E+00
         11   -1    0    0    0    0  0.00000000000E+00  0.00000000000E+00  0.30000000000E+02  0.30000000000E+02  0.00000000000E+00 0. -1.
        -11   -1    0    0    0    0 -0.00000000000E+00 -0.00000000000E+00 -0.30000000000E+02  0.30000000000E+02  0.00000000000E+00 0.  1.
         23    2    1    2    0    0  0.00000000000E+00  0.00000000000E+00  0.00000000000E+00  0.60000000000E+02  0.60000000000E+02 0.  0.
          5    1    3    3  501    0  0.12752406509E+02 -0.18303248387E+02 -0.19500698108E+02  0.30000000000E+02  0.47000000000E+01 0.  1.
         -5    1    3    3    0  501 -0.12752406509E+02  0.18303248387E+02  0.19500698108E+02  0.30000000000E+02  0.47000000000E+01 0. -1.
</event>
<event>
 5    1  0.7702600E-002  0.6000000E+02  0.7546771E-02  0.1259629E+00
         11   -1    0    0    0    0  0.00000000000E+00  0.00000000000E+00  0.30000000000E+02  0.30000000000E+02  0.00000000000E+00 0.  1.
        -11   -1    0    0    0    0 -0.00000000000E+00 -0.00000000000E+00 -0.30000000000E+02  0.30000000000E+02  0.00000000000E+00 0. -1.
         23    2    1    2    0    0  0.00000000000E+00  0.00000000000E+00  0.00000000000E+00  0.60000000000E+02  0.60000000000E+02 0.  0.
          5    1    3    3  501    0 -0.78040510162E+01 -0.17542391976E+02 -0.22567039493E+02  0.30000000000E+02  0.47000000000E+01 0. -1.
         -5    1    3    3    0  501  0.78040510162E+01  0.17542391976E+02  0.22567039493E+02  0.30000000000E+02  0.47000000000E+01 0.  1.
</event>
<event>
 5    1  0.7702600E-002  0.6000000E+02  0.7546771E-02  0.1259629E+00
         11   -1    0    0    0    0  0.00000000000E+00  0.00000000000E+00  0.30000000000E+02  0.30000000000E+02  0.00000000000E+00 0.  1.
        -11   -1    0    0    0    0 -0.00000000000E+00 -0.00000000000E+00 -0.30000000000E+02  0.30000000000E+02  0.00000000000E+00 0. -1.
         23    2    1    2    0    0  0.00000000000E+00  0.00000000000E+00  0.00000000000E+00  0.60000000000E+02  0.60000000000E+02 0.  0.
          5    1    3    3  501    0  0.27549556138E+02 -0.66361956055E+01 -0.86540663545E+01  0.30000000000E+02  0.47000000000E+01 0. -1.
         -5    1    3    3    0  501 -0.27549556138E+02  0.66361956055E+01  0.86540663545E+01  0.30000000000E+02  0.47000000000E+01 0.  1.
</event>
<event>
 5    1  0.7702600E-002  0.6000000E+02  0.7546771E-02  0.1259629E+00
         11   -1    0    0    0    0  0.00000000000E+00  0.00000000000E+00  0.30000000000E+02  0.30000000000E+02  0.00000000000E+00 0.  1.
        -11   -1    0    0    0    0 -0.00000000000E+00 -0.00000000000E+00 -0.30000000000E+02  0.30000000000E+02  0.00000000000E+00 0. -1.
         23    2    1    2    0    0  0.00000000000E+00  0.00000000000E+00  0.00000000000E+00  0.60000000000E+02  0.60000000000E+02 0.  0.
          5    1    3    3  501    0 -0.20499159782E+02 -0.80094223292E-01 -0.21393644691E+02  0.30000000000E+02  0.47000000000E+01 0. -1.
         -5    1    3    3    0  501  0.20499159782E+02  0.80094223292E-01  0.21393644691E+02  0.30000000000E+02  0.47000000000E+01 0.  1.
</event>
<event>
 5    1  0.7702600E-002  0.6000000E+02  0.7546771E-02  0.1259629E+00
         11   -1    0    0    0    0  0.00000000000E+00  0.00000000000E+00  0.30000000000E+02  0.30000000000E+02  0.00000000000E+00 0.  1.
        -11   -1    0    0    0    0 -0.00000000000E+00 -0.00000000000E+00 -0.30000000000E+02  0.30000000000E+02  0.00000000000E+00 0. -1.
         23    2    1    2    0    0  0.00000000000E+00  0.00000000000E+00  0.00000000000E+00  0.60000000000E+02  0.60000000000E+02 0.  0.
          5    1    3    3  501    0 -0.96893082517E+01 -0.26189521822E+01 -0.27877740136E+02  0.30000000000E+02  0.47000000000E+01 0. -1.
         -5    1    3    3    0  501  0.96893082517E+01  0.26189521822E+01  0.27877740136E+02  0.30000000000E+02  0.47000000000E+01 0.  1.
</event>
<event>
 5    1  0.7702600E-002  0.6000000E+02  0.7546771E-02  0.1259629E+00
         11   -1    0    0    0    0  0.00000000000E+00  0.00000000000E+00  0.30000000000E+02  0.30000000000E+02  0.00000000000E+00 0.  1.
        -11   -1    0    0    0    0 -0.00000000000E+00 -0.00000000000E+00 -0.30000000000E+02  0.30000000000E+02  0.00000000000E+00 0. -1.
         23    2    1    2    0    0  0.00000000000E+00  0.00000000000E+00  0.00000000000E+00  0.60000000000E+02  0.60000000000E+02 0.  0.
          5    1    3    3  501    0  0.14560206410E+02  0.11991244841E+02 -0.22849954846E+02  0.30000000000E+02  0.47000000000E+01 0. -1.
         -5    1    3    3    0  501 -0.14560206410E+02 -0.11991244841E+02  0.22849954846E+02  0.30000000000E+02  0.47000000000E+01 0.  1.
</event>
<event>
 5    1  0.7702600E-002  0.6000000E+02  0.7546771E-02  0.1259629E+00
         11   -1    0    0    0    0  0.00000000000E+00  0.00000000000E+00  0.30000000000E+02  0.30000000000E+02  0.00000000000E+00 0.  1.
        -11   -1    0    0    0    0 -0.00000000000E+00 -0.00000000000E+00 -0.30000000000E+02  0.30000000000E+02  0.00000000000E+00 0. -1.
         23    2    1    2    0    0  0.00000000000E+00  0.00000000000E+00  0.00000000000E+00  0.60000000000E+02  0.60000000000E+02 0.  0.
          5    1    3    3  501    0 -0.87363336524E+01  0.28055670005E+02 -0.38034004400E+01  0.30000000000E+02  0.47000000000E+01 0. -1.
         -5    1    3    3    0  501  0.87363336524E+01 -0.28055670005E+02  0.38034004400E+01  0.30000000000E+02  0.47000000000E+01 0.  1.
</event>
<event>
 5    1  0.7702600E-002  0.6000000E+02  0.7546771E-02  0.1259629E+00
         11   -1    0    0    0    0  0.00000000000E+00  0.00000000000E+00  0.30000000000E+02  0.30000000000E+02  0.00000000000E+00 0. -1.
        -11   -1    0    0    0    0 -0.00000000000E+00 -0.00000000000E+00 -0.30000000000E+02  0.30000000000E+02  0.00000000000E+00 0.  1.
         23    2    1    2    0    0  0.00000000000E+00  0.00000000000E+00  0.00000000000E+00  0.60000000000E+02  0.60000000000E+02 0.  0.
          5    1    3    3  501    0 -0.16737788775E+02 -0.18917031286E+02 -0.15488781561E+02  0.30000000000E+02  0.47000000000E+01 0.  1.
         -5    1    3    3    0  501  0.16737788775E+02  0.18917031286E+02  0.15488781561E+02  0.30000000000E+02  0.47000000000E+01 0. -1.
</event>
<event>
 5    1  0.7702600E-002  0.6000000E+02  0.7546771E-02  0.1259629E+00
         11   -1    0    0    0    0  0.00000000000E+00  0.00000000000E+00  0.30000000000E+02  0.30000000000E+02  0.00000000000E+00 0.  1.
        -11   -1    0    0    0    0 -0.00000000000E+00 -0.00000000000E+00 -0.30000000000E+02  0.30000000000E+02  0.00000000000E+00 0. -1.
         23    2    1    2    0    0  0.00000000000E+00  0.00000000000E+00  0.00000000000E+00  0.60000000000E+02  0.60000000000E+02 0.  0.
          5    1    3    3  501    0 -0.11135304325E+02 -0.18282378966E+02 -0.20485839424E+02  0.30000000000E+02  0.47000000000E+01 0. -1.
         -5    1    3    3    0  501  0.11135304325E+02  0.18282378966E+02  0.20485839424E+02  0.30000000000E+02  0.47000000000E+01 0.  1.
</event>
<event>
 5    1  0.7702600E-002  0.6000000E+02  0.7546771E-02  0.1259629E+00
         11   -1    0    0    0    0  0.00000000000E+00  0.00000000000E+00  0.30000000000E+02  0.30000000000E+02  0.00000000000E+00 0.  1.
        -11   -1    0    0    0    0 -0.00000000000E+00 -0.00000000000E+00 -0.30000000000E+02  0.30000000000E+02  0.00000000000E+00 0. -1.
         23    2    1    2    0    0  0.00000000000E+00  0.00000000000E+00  0.00000000000E+00  0.60000000000E+02  0.60000000000E+02 0.  0.
          5    1    3    3  501    0 -0.11825799017E+02  0.21743943098E+02 -0.16286847950E+02  0.30000000000E+02  0.47000000000E+01 0. -1.
         -5    1    3    3    0  501  0.11825799017E+02 -0.21743943098E+02  0.16286847950E+02  0.30000000000E+02  0.47000000000E+01 0.  1.
</event>
<event>
 5    1  0.7702600E-002  0.6000000E+02  0.7546771E-02  0.1259629E+00
         11   -1    0    0    0    0  0.00000000000E+00  0.00000000000E+00  0.30000000000E+02  0.30000000000E+02  0.00000000000E+00 0.  1.
        -11   -1    0    0    0    0 -0.00000000000E+00 -0.00000000000E+00 -0.30000000000E+02  0.30000000000E+02  0.00000000000E+00 0. -1.
         23    2    1    2    0    0  0.00000000000E+00  0.00000000000E+00  0.00000000000E+00  0.60000000000E+02  0.60000000000E+02 0.  0.
          5    1    3    3  501    0 -0.10978051606E+02 -0.27246284013E+02  0.38771626744E+01  0.30000000000E+02  0.47000000000E+01 0. -1.
         -5    1    3    3    0  501  0.10978051606E+02  0.27246284013E+02 -0.38771626744E+01  0.30000000000E+02  0.47000000000E+01 0.  1.
</event>
<event>
 5    1  0.7702600E-002  0.6000000E+02  0.7546771E-02  0.1259629E+00
         11   -1    0    0    0    0  0.00000000000E+00  0.00000000000E+00  0.30000000000E+02  0.30000000000E+02  0.00000000000E+00 0.  1.
        -11   -1    0    0    0    0 -0.00000000000E+00 -0.00000000000E+00 -0.30000000000E+02  0.30000000000E+02  0.00000000000E+00 0. -1.
         23    2    1    2    0    0  0.00000000000E+00  0.00000000000E+00  0.00000000000E+00  0.60000000000E+02  0.60000000000E+02 0.  0.
          5    1    3    3  501    0  0.15292084524E+02  0.12590994805E+02  0.22034722616E+02  0.30000000000E+02  0.47000000000E+01 0.  1.
         -5    1    3    3    0  501 -0.15292084524E+02 -0.12590994805E+02 -0.22034722616E+02  0.30000000000E+02  0.47000000000E+01 0. -1.
</event>
<event>
 5    1  0.7702600E-002  0.6000000E+02  0.7546771E-02  0.1259629E+00
         11   -1    0    0    0    0  0.00000000000E+00  0.00000000000E+00  0.30000000000E+02  0.30000000000E+02  0.00000000000E+00 0.  1.
        -11   -1    0    0    0    0 -0.00000000000E+00 -0.00000000000E+00 -0.30000000000E+02  0.30000000000E+02  0.00000000000E+00 0. -1.
         23    2    1    2    0    0  0.00000000000E+00  0.00000000000E+00  0.00000000000E+00  0.60000000000E+02  0.60000000000E+02 0.  0.
          5    1    3    3  501    0 -0.48658923739E+01  0.95495276815E+01 -0.27623171658E+02  0.30000000000E+02  0.47000000000E+01 0. -1.
         -5    1    3    3    0  501  0.48658923739E+01 -0.95495276815E+01  0.27623171658E+02  0.30000000000E+02  0.47000000000E+01 0.  1.
</event>
<event>
 5    1  0.7702600E-002  0.6000000E+02  0.7546771E-02  0.1259629E+00
         11   -1    0    0    0    0  0.00000000000E+00  0.00000000000E+00  0.30000000000E+02  0.30000000000E+02  0.00000000000E+00 0.  1.
        -11   -1    0    0    0    0 -0.00000000000E+00 -0.00000000000E+00 -0.30000000000E+02  0.30000000000E+02  0.00000000000E+00 0. -1.
         23    2    1    2    0    0  0.00000000000E+00  0.00000000000E+00  0.00000000000E+00  0.60000000000E+02  0.60000000000E+02 0.  0.
          5    1    3    3  501    0 -0.22521942788E+02 -0.11713308012E+02 -0.15279741767E+02  0.30000000000E+02  0.47000000000E+01 0. -1.
         -5    1    3    3    0  501  0.22521942788E+02  0.11713308012E+02  0.15279741767E+02  0.30000000000E+02  0.47000000000E+01 0.  1.
</event>
<event>
 5    1  0.7702600E-002  0.6000000E+02  0.7546771E-02  0.1259629E+00
         11   -1    0    0    0    0  0.00000000000E+00  0.00000000000E+00  0.30000000000E+02  0.30000000000E+02  0.00000000000E+00 0.  1.
        -11   -1    0    0    0    0 -0.00000000000E+00 -0.00000000000E+00 -0.30000000000E+02  0.30000000000E+02  0.00000000000E+00 0. -1.
         23    2    1    2    0    0  0.00000000000E+00  0.00000000000E+00  0.00000000000E+00  0.60000000000E+02  0.60000000000E+02 0.  0.
          5    1    3    3  501    0 -0.17213152482E+02  0.87132810536E+01  0.22487688074E+02  0.30000000000E+02  0.47000000000E+01 0.  1.
         -5    1    3    3    0  501  0.17213152482E+02 -0.87132810536E+01 -0.22487688074E+02  0.30000000000E+02  0.47000000000E+01 0. -1.
</event>
<event>
 5    1  0.7702600E-002  0.6000000E+02  0.7546771E-02  0.1259629E+00
         11   -1    0    0    0    0  0.00000000000E+00  0.00000000000E+00  0.30000000000E+02  0.30000000000E+02  0.00000000000E+00 0. -1.
        -11   -1    0    0    0    0 -0.00000000000E+00 -0.00000000000E+00 -0.30000000000E+02  0.30000000000E+02  0.00000000000E+00 0.  1.
         23    2    1    2    0    0  0.00000000000E+00  0.00000000000E+00  0.00000000000E+00  0.60000000000E+02  0.60000000000E+02 0.  0.
          5    1    3    3  501    0  0.27937918715E+01 -0.15355825061E+02 -0.25185379959E+02  0.30000000000E+02  0.47000000000E+01 0.  1.
         -5    1    3    3    0  501 -0.27937918715E+01  0.15355825061E+02  0.25185379959E+02  0.30000000000E+02  0.47000000000E+01 0. -1.
</event>
<event>
 5    1  0.7702600E-002  0.6000000E+02  0.7546771E-02  0.1259629E+00
         11   -1    0    0    0    0  0.00000000000E+00  0.00000000000E+00  0.30000000000E+02  0.30000000000E+02  0.00000000000E+00 0. -1.
        -11   -1    0    0    0    0 -0.00000000000E+00 -0.00000000000E+00 -0.30000000000E+02  0.30000000000E+02  0.00000000000E+00 0.  1.
         23    2    1    2    0    0  0.00000000000E+00  0.00000000000E+00  0.00000000000E+00  0.60000000000E+02  0.60000000000E+02 0.  0.
          5    1    3    3  501    0  0.23067156845E+01  0.28705585912E+02 -0.69698206716E+01  0.30000000000E+02  0.47000000000E+01 0. -1.
         -5    1    3    3    0  501 -0.23067156845E+01 -0.28705585912E+02  0.69698206716E+01  0.30000000000E+02  0.47000000000E+01 0.  1.
</event>
<event>
 5    1  0.7702600E-002  0.6000000E+02  0.7546771E-02  0.1259629E+00
         11   -1    0    0    0    0  0.00000000000E+00  0.00000000000E+00  0.30000000000E+02  0.30000000000E+02  0.00000000000E+00 0.  1.
        -11   -1    0    0    0    0 -0.00000000000E+00 -0.00000000000E+00 -0.30000000000E+02  0.30000000000E+02  0.00000000000E+00 0. -1.
         23    2    1    2    0    0  0.00000000000E+00  0.00000000000E+00  0.00000000000E+00  0.60000000000E+02  0.60000000000E+02 0.  0.
          5    1    3    3  501    0  0.63622973228E+01 -0.26521667548E+02  0.11577232971E+02  0.30000000000E+02  0.47000000000E+01 0.  1.
         -5    1    3    3    0  501 -0.63622973228E+01  0.26521667548E+02 -0.11577232971E+02  0.30000000000E+02  0.47000000000E+01 0. -1.
</event>
<event>
 5    1  0.7702600E-002  0.6000000E+02  0.7546771E-02  0.1259629E+00
         11   -1    0    0    0    0  0.00000000000E+00  0.00000000000E+00  0.30000000000E+02  0.30000000000E+02  0.00000000000E+00 0.  1.
        -11   -1    0    0    0    0 -0.00000000000E+00 -0.00000000000E+00 -0.30000000000E+02  0.30000000000E+02  0.00000000000E+00 0. -1.
         23    2    1    2    0    0  0.00000000000E+00  0.00000000000E+00  0.00000000000E+00  0.60000000000E+02  0.60000000000E+02 0.  0.
          5    1    3    3  501    0 -0.28131391116E+02 -0.44699253426E+01 -0.81581003482E+01  0.30000000000E+02  0.47000000000E+01 0. -1.
         -5    1    3    3    0  501  0.28131391116E+02  0.44699253426E+01  0.81581003482E+01  0.30000000000E+02  0.47000000000E+01 0.  1.
</event>
<event>
 5    1  0.7702600E-002  0.6000000E+02  0.7546771E-02  0.1259629E+00
         11   -1    0    0    0    0  0.00000000000E+00  0.00000000000E+00  0.30000000000E+02  0.30000000000E+02  0.00000000000E+00 0.  1.
        -11   -1    0    0    0    0 -0.00000000000E+00 -0.00000000000E+00 -0.30000000000E+02  0.30000000000E+02  0.00000000000E+00 0. -1.
         23    2    1    2    0    0  0.00000000000E+00  0.00000000000E+00  0.00000000000E+00  0.60000000000E+02  0.60000000000E+02 0.  0.
          5    1    3    3  501    0 -0.10415823365E+02  0.17771737508E+02 -0.21297557831E+02  0.30000000000E+02  0.47000000000E+01 0. -1.
         -5    1    3    3    0  501  0.10415823365E+02 -0.17771737508E+02  0.21297557831E+02  0.30000000000E+02  0.47000000000E+01 0.  1.
</event>
<event>
 5    1  0.7702600E-002  0.6000000E+02  0.7546771E-02  0.1259629E+00
         11   -1    0    0    0    0  0.00000000000E+00  0.00000000000E+00  0.30000000000E+02  0.30000000000E+02  0.00000000000E+00 0.  1.
        -11   -1    0    0    0    0 -0.00000000000E+00 -0.00000000000E+00 -0.30000000000E+02  0.30000000000E+02  0.00000000000E+00 0. -1.
         23    2    1    2    0    0  0.00000000000E+00  0.00000000000E+00  0.00000000000E+00  0.60000000000E+02  0.60000000000E+02 0.  0.
          5    1    3    3  501    0 -0.12163555281E+01  0.24484095877E+02 -0.16642101078E+02  0.30000000000E+02  0.47000000000E+01 0. -1.
         -5    1    3    3    0  501  0.12163555281E+01 -0.24484095877E+02  0.16642101078E+02  0.30000000000E+02  0.47000000000E+01 0.  1.
</event>
<event>
 5    1  0.7702600E-002  0.6000000E+02  0.7546771E-02  0.1259629E+00
         11   -1    0    0    0    0  0.00000000000E+00  0.00000000000E+00  0.30000000000E+02  0.30000000000E+02  0.00000000000E+00 0.  1.
        -11   -1    0    0    0    0 -0.00000000000E+00 -0.00000000000E+00 -0.30000000000E+02  0.30000000000E+02  0.00000000000E+00 0. -1.
         23    2    1    2    0    0  0.00000000000E+00  0.00000000000E+00  0.00000000000E+00  0.60000000000E+02  0.60000000000E+02 0.  0.
          5    1    3    3  501    0 -0.26374357737E+02  0.13084318159E+02 -0.33322473313E+01  0.30000000000E+02  0.47000000000E+01 0. -1.
         -5    1    3    3    0  501  0.26374357737E+02 -0.13084318159E+02  0.33322473313E+01  0.30000000000E+02  0.47000000000E+01 0.  1.
</event>
<event>
 5    1  0.7702600E-002  0.6000000E+02  0.7546771E-02  0.1259629E+00
         11   -1    0    0    0    0  0.00000000000E+00  0.00000000000E+00  0.30000000000E+02  0.30000000000E+02  0.00000000000E+00 0.  1.
        -11   -1    0    0    0    0 -0.00000000000E+00 -0.00000000000E+00 -0.30000000000E+02  0.30000000000E+02  0.00000000000E+00 0. -1.
         23    2    1    2    0    0  0.00000000000E+00  0.00000000000E+00  0.00000000000E+00  0.60000000000E+02  0.60000000000E+02 0.  0.
          5    1    3    3  501    0 -0.31281753329E+01 -0.41596128746E+01 -0.29168855648E+02  0.30000000000E+02  0.47000000000E+01 0. -1.
         -5    1    3    3    0  501  0.31281753329E+01  0.41596128746E+01  0.29168855648E+02  0.30000000000E+02  0.47000000000E+01 0.  1.
</event>
<event>
 5    1  0.7702600E-002  0.6000000E+02  0.7546771E-02  0.1259629E+00
         11   -1    0    0    0    0  0.00000000000E+00  0.00000000000E+00  0.30000000000E+02  0.30000000000E+02  0.00000000000E+00 0.  1.
        -11   -1    0    0    0    0 -0.00000000000E+00 -0.00000000000E+00 -0.30000000000E+02  0.30000000000E+02  0.00000000000E+00 0. -1.
         23    2    1    2    0    0  0.00000000000E+00  0.00000000000E+00  0.00000000000E+00  0.60000000000E+02  0.60000000000E+02 0.  0.
          5    1    3    3  501    0  0.13239648870E+02  0.11290322036E+01  0.26482956483E+02  0.30000000000E+02  0.47000000000E+01 0.  1.
         -5    1    3    3    0  501 -0.13239648870E+02 -0.11290322036E+01 -0.26482956483E+02  0.30000000000E+02  0.47000000000E+01 0. -1.
</event>
<event>
 5    1  0.7702600E-002  0.6000000E+02  0.7546771E-02  0.1259629E+00
         11   -1    0    0    0    0  0.00000000000E+00  0.00000000000E+00  0.30000000000E+02  0.30000000000E+02  0.00000000000E+00 0. -1.
        -11   -1    0    0    0    0 -0.00000000000E+00 -0.00000000000E+00 -0.30000000000E+02  0.30000000000E+02  0.00000000000E+00 0.  1.
         23    2    1    2    0    0  0.00000000000E+00  0.00000000000E+00  0.00000000000E+00  0.60000000000E+02  0.60000000000E+02 0.  0.
          5    1    3    3  501    0 -0.29612765891E+01 -0.23383594568E+01 -0.29388312575E+02  0.30000000000E+02  0.47000000000E+01 0.  1.
         -5    1    3    3    0  501  0.29612765891E+01  0.23383594568E+01  0.29388312575E+02  0.30000000000E+02  0.47000000000E+01 0. -1.
</event>
<event>
 5    1  0.7702600E-002  0.6000000E+02  0.7546771E-02  0.1259629E+00
         11   -1    0    0    0    0  0.00000000000E+00  0.00000000000E+00  0.30000000000E+02  0.30000000000E+02  0.00000000000E+00 0. -1.
        -11   -1    0    0    0    0 -0.00000000000E+00 -0.00000000000E+00 -0.30000000000E+02  0.30000000000E+02  0.00000000000E+00 0.  1.
         23    2    1    2    0    0  0.00000000000E+00  0.00000000000E+00  0.00000000000E+00  0.60000000000E+02  0.60000000000E+02 0.  0.
          5    1    3    3  501    0 -0.10722182653E+02 -0.13867807655E+02 -0.23887836025E+02  0.30000000000E+02  0.47000000000E+01 0.  1.
         -5    1    3    3    0  501  0.10722182653E+02  0.13867807655E+02  0.23887836025E+02  0.30000000000E+02  0.47000000000E+01 0. -1.
</event>
<event>
 5    1  0.7702600E-002  0.6000000E+02  0.7546771E-02  0.1259629E+00
         11   -1    0    0    0    0  0.00000000000E+00  0.00000000000E+00  0.30000000000E+02  0.30000000000E+02  0.00000000000E+00 0.  1.
        -11   -1    0    0    0    0 -0.00000000000E+00 -0.00000000000E+00 -0.30000000000E+02  0.30000000000E+02  0.00000000000E+00 0. -1.
         23    2    1    2    0    0  0.00000000000E+00  0.00000000000E+00  0.00000000000E+00  0.60000000000E+02  0.60000000000E+02 0.  0.
          5    1    3    3  501    0 -0.26246447678E+02 -0.13230672792E+02  0.37394226464E+01  0.30000000000E+02  0.47000000000E+01 0. -1.
         -5    1    3    3    0  501  0.26246447678E+02  0.13230672792E+02 -0.37394226464E+01  0.30000000000E+02  0.47000000000E+01 0.  1.
</event>
<event>
 5    1  0.7702600E-002  0.6000000E+02  0.7546771E-02  0.1259629E+00
         11   -1    0    0    0    0  0.00000000000E+00  0.00000000000E+00  0.30000000000E+02  0.30000000000E+02  0.00000000000E+00 0. -1.
        -11   -1    0    0    0    0 -0.00000000000E+00 -0.00000000000E+00 -0.30000000000E+02  0.30000000000E+02  0.00000000000E+00 0.  1.
         23    2    1    2    0    0  0.00000000000E+00  0.00000000000E+00  0.00000000000E+00  0.60000000000E+02  0.60000000000E+02 0.  0.
          5    1    3    3  501    0  0.31130199348E+01  0.49387871509E+01 -0.29048708893E+02  0.30000000000E+02  0.47000000000E+01 0.  1.
         -5    1    3    3    0  501 -0.31130199348E+01 -0.49387871509E+01  0.29048708893E+02  0.30000000000E+02  0.47000000000E+01 0. -1.
</event>
<event>
 5    1  0.7702600E-002  0.6000000E+02  0.7546771E-02  0.1259629E+00
         11   -1    0    0    0    0  0.00000000000E+00  0.00000000000E+00  0.30000000000E+02  0.30000000000E+02  0.00000000000E+00 0.  1.
        -11   -1    0    0    0    0 -0.00000000000E+00 -0.00000000000E+00 -0.30000000000E+02  0.30000000000E+02  0.00000000000E+00 0. -1.
         23    2    1    2    0    0  0.00000000000E+00  0.00000000000E+00  0.00000000000E+00  0.60000000000E+02  0.60000000000E+02 0.  0.
          5    1    3    3  501    0 -0.24232363649E+01  0.20804145898E+02 -0.20957705957E+02  0.30000000000E+02  0.47000000000E+01 0. -1.
         -5    1    3    3    0  501  0.24232363649E+01 -0.20804145898E+02  0.20957705957E+02  0.30000000000E+02  0.47000000000E+01 0.  1.
</event>
<event>
 5    1  0.7702600E-002  0.6000000E+02  0.7546771E-02  0.1259629E+00
         11   -1    0    0    0    0  0.00000000000E+00  0.00000000000E+00  0.30000000000E+02  0.30000000000E+02  0.00000000000E+00 0.  1.
        -11   -1    0    0    0    0 -0.00000000000E+00 -0.00000000000E+00 -0.30000000000E+02  0.30000000000E+02  0.00000000000E+00 0. -1.
         23    2    1    2    0    0  0.00000000000E+00  0.00000000000E+00  0.00000000000E+00  0.60000000000E+02  0.60000000000E+02 0.  0.
          5    1    3    3  501    0 -0.18931911576E+02  0.46343268102E+01 -0.22316266245E+02  0.30000000000E+02  0.47000000000E+01 0. -1.
         -5    1    3    3    0  501  0.18931911576E+02 -0.46343268102E+01  0.22316266245E+02  0.30000000000E+02  0.47000000000E+01 0.  1.
</event>
<event>
 5    1  0.7702600E-002  0.6000000E+02  0.7546771E-02  0.1259629E+00
         11   -1    0    0    0    0  0.00000000000E+00  0.00000000000E+00  0.30000000000E+02  0.30000000000E+02  0.00000000000E+00 0.  1.
        -11   -1    0    0    0    0 -0.00000000000E+00 -0.00000000000E+00 -0.30000000000E+02  0.30000000000E+02  0.00000000000E+00 0. -1.
         23    2    1    2    0    0  0.00000000000E+00  0.00000000000E+00  0.00000000000E+00  0.60000000000E+02  0.60000000000E+02 0.  0.
          5    1    3    3  501    0 -0.80925050376E+01 -0.28135032627E+02 -0.45652274103E+01  0.30000000000E+02  0.47000000000E+01 0. -1.
         -5    1    3    3    0  501  0.80925050376E+01  0.28135032627E+02  0.45652274103E+01  0.30000000000E+02  0.47000000000E+01 0.  1.
</event>
<event>
 5    1  0.7702600E-002  0.6000000E+02  0.7546771E-02  0.1259629E+00
         11   -1    0    0    0    0  0.00000000000E+00  0.00000000000E+00  0.30000000000E+02  0.30000000000E+02  0.00000000000E+00 0. -1.
        -11   -1    0    0    0    0 -0.00000000000E+00 -0.00000000000E+00 -0.30000000000E+02  0.30000000000E+02  0.00000000000E+00 0.  1.
         23    2    1    2    0    0  0.00000000000E+00  0.00000000000E+00  0.00000000000E+00  0.60000000000E+02  0.60000000000E+02 0.  0.
          5    1    3    3  501    0  0.28349584762E+02 -0.67328521610E+01  0.53739878694E+01  0.30000000000E+02  0.47000000000E+01 0.  1.
         -5    1    3    3    0  501 -0.28349584762E+02  0.67328521610E+01 -0.53739878694E+01  0.30000000000E+02  0.47000000000E+01 0. -1.
</event>
<event>
 5    1  0.7702600E-002  0.6000000E+02  0.7546771E-02  0.1259629E+00
         11   -1    0    0    0    0  0.00000000000E+00  0.00000000000E+00  0.30000000000E+02  0.30000000000E+02  0.00000000000E+00 0.  1.
        -11   -1    0    0    0    0 -0.00000000000E+00 -0.00000000000E+00 -0.30000000000E+02  0.30000000000E+02  0.00000000000E+00 0. -1.
         23    2    1    2    0    0  0.00000000000E+00  0.00000000000E+00  0.00000000000E+00  0.60000000000E+02  0.60000000000E+02 0.  0.
          5    1    3    3  501    0 -0.23541016054E+02 -0.89688644359E+01 -0.15597757334E+02  0.30000000000E+02  0.47000000000E+01 0. -1.
         -5    1    3    3    0  501  0.23541016054E+02  0.89688644359E+01  0.15597757334E+02  0.30000000000E+02  0.47000000000E+01 0.  1.
</event>
<event>
 5    1  0.7702600E-002  0.6000000E+02  0.7546771E-02  0.1259629E+00
         11   -1    0    0    0    0  0.00000000000E+00  0.00000000000E+00  0.30000000000E+02  0.30000000000E+02  0.00000000000E+00 0. -1.
        -11   -1    0    0    0    0 -0.00000000000E+00 -0.00000000000E+00 -0.30000000000E+02  0.30000000000E+02  0.00000000000E+00 0.  1.
         23    2    1    2    0    0  0.00000000000E+00  0.00000000000E+00  0.00000000000E+00  0.60000000000E+02  0.60000000000E+02 0.  0.
          5    1    3    3  501    0 -0.25567858683E+02 -0.10711843836E+00 -0.14972746174E+02  0.30000000000E+02  0.47000000000E+01 0.  1.
         -5    1    3    3    0  501  0.25567858683E+02  0.10711843836E+00  0.14972746174E+02  0.30000000000E+02  0.47000000000E+01 0. -1.
</event>
<event>
 5    1  0.7702600E-002  0.6000000E+02  0.7546771E-02  0.1259629E+00
         11   -1    0    0    0    0  0.00000000000E+00  0.00000000000E+00  0.30000000000E+02  0.30000000000E+02  0.00000000000E+00 0.  1.
        -11   -1    0    0    0    0 -0.00000000000E+00 -0.00000000000E+00 -0.30000000000E+02  0.30000000000E+02  0.00000000000E+00 0. -1.
         23    2    1    2    0    0  0.00000000000E+00  0.00000000000E+00  0.00000000000E+00  0.60000000000E+02  0.60000000000E+02 0.  0.
          5    1    3    3  501    0  0.17681366407E+02 -0.23111820400E+02  0.55788027184E+01  0.30000000000E+02  0.47000000000E+01 0. -1.
         -5    1    3    3    0  501 -0.17681366407E+02  0.23111820400E+02 -0.55788027184E+01  0.30000000000E+02  0.47000000000E+01 0.  1.
</event>
<event>
 5    1  0.7702600E-002  0.6000000E+02  0.7546771E-02  0.1259629E+00
         11   -1    0    0    0    0  0.00000000000E+00  0.00000000000E+00  0.30000000000E+02  0.30000000000E+02  0.00000000000E+00 0.  1.
        -11   -1    0    0    0    0 -0.00000000000E+00 -0.00000000000E+00 -0.30000000000E+02  0.30000000000E+02  0.00000000000E+00 0. -1.
         23    2    1    2    0    0  0.00000000000E+00  0.00000000000E+00  0.00000000000E+00  0.60000000000E+02  0.60000000000E+02 0.  0.
          5    1    3    3  501    0 -0.51232532419E+01 -0.17532945223E+02 -0.23329340069E+02  0.30000000000E+02  0.47000000000E+01 0. -1.
         -5    1    3    3    0  501  0.51232532419E+01  0.17532945223E+02  0.23329340069E+02  0.30000000000E+02  0.47000000000E+01 0.  1.
</event>
<event>
 5    1  0.7702600E-002  0.6000000E+02  0.7546771E-02  0.1259629E+00
         11   -1    0    0    0    0  0.00000000000E+00  0.00000000000E+00  0.30000000000E+02  0.30000000000E+02  0.00000000000E+00 0.  1.
        -11   -1    0    0    0    0 -0.00000000000E+00 -0.00000000000E+00 -0.30000000000E+02  0.30000000000E+02  0.00000000000E+00 0. -1.
         23    2    1    2    0    0  0.00000000000E+00  0.00000000000E+00  0.00000000000E+00  0.60000000000E+02  0.60000000000E+02 0.  0.
          5    1    3    3  501    0 -0.66057519539E+01  0.21624247487E+02 -0.19148523749E+02  0.30000000000E+02  0.47000000000E+01 0. -1.
         -5    1    3    3    0  501  0.66057519539E+01 -0.21624247487E+02  0.19148523749E+02  0.30000000000E+02  0.47000000000E+01 0.  1.
</event>
<event>
 5    1  0.7702600E-002  0.6000000E+02  0.7546771E-02  0.1259629E+00
         11   -1    0    0    0    0  0.00000000000E+00  0.00000000000E+00  0.30000000000E+02  0.30000000000E+02  0.00000000000E+00 0.  1.
        -11   -1    0    0    0    0 -0.00000000000E+00 -0.00000000000E+00 -0.30000000000E+02  0.30000000000E+02  0.00000000000E+00 0. -1.
         23    2    1    2    0    0  0.00000000000E+00  0.00000000000E+00  0.00000000000E+00  0.60000000000E+02  0.60000000000E+02 0.  0.
          5    1    3    3  501    0  0.19875741988E+02  0.14290684874E+02 -0.16692549423E+02  0.30000000000E+02  0.47000000000E+01 0. -1.
         -5    1    3    3    0  501 -0.19875741988E+02 -0.14290684874E+02  0.16692549423E+02  0.30000000000E+02  0.47000000000E+01 0.  1.
</event>
<event>
 5    1  0.7702600E-002  0.6000000E+02  0.7546771E-02  0.1259629E+00
         11   -1    0    0    0    0  0.00000000000E+00  0.00000000000E+00  0.30000000000E+02  0.30000000000E+02  0.00000000000E+00 0.  1.
        -11   -1    0    0    0    0 -0.00000000000E+00 -0.00000000000E+00 -0.30000000000E+02  0.30000000000E+02  0.00000000000E+00 0. -1.
         23    2    1    2    0    0  0.00000000000E+00  0.00000000000E+00  0.00000000000E+00  0.60000000000E+02  0.60000000000E+02 0.  0.
          5    1    3    3  501    0  0.11727526781E+01  0.15057456102E+02 -0.25491325327E+02  0.30000000000E+02  0.47000000000E+01 0. -1.
         -5    1    3    3    0  501 -0.11727526781E+01 -0.15057456102E+02  0.25491325327E+02  0.30000000000E+02  0.47000000000E+01 0.  1.
</event>
<event>
 5    1  0.7702600E-002  0.6000000E+02  0.7546771E-02  0.1259629E+00
         11   -1    0    0    0    0  0.00000000000E+00  0.00000000000E+00  0.30000000000E+02  0.30000000000E+02  0.00000000000E+00 0.  1.
        -11   -1    0    0    0    0 -0.00000000000E+00 -0.00000000000E+00 -0.30000000000E+02  0.30000000000E+02  0.00000000000E+00 0. -1.
         23    2    1    2    0    0  0.00000000000E+00  0.00000000000E+00  0.00000000000E+00  0.60000000000E+02  0.60000000000E+02 0.  0.
          5    1    3    3  501    0 -0.17383053563E+02 -0.19237652218E+01 -0.23917327949E+02  0.30000000000E+02  0.47000000000E+01 0. -1.
         -5    1    3    3    0  501  0.17383053563E+02  0.19237652218E+01  0.23917327949E+02  0.30000000000E+02  0.47000000000E+01 0.  1.
</event>
<event>
 5    1  0.7702600E-002  0.6000000E+02  0.7546771E-02  0.1259629E+00
         11   -1    0    0    0    0  0.00000000000E+00  0.00000000000E+00  0.30000000000E+02  0.30000000000E+02  0.00000000000E+00 0.  1.
        -11   -1    0    0    0    0 -0.00000000000E+00 -0.00000000000E+00 -0.30000000000E+02  0.30000000000E+02  0.00000000000E+00 0. -1.
         23    2    1    2    0    0  0.00000000000E+00  0.00000000000E+00  0.00000000000E+00  0.60000000000E+02  0.60000000000E+02 0.  0.
          5    1    3    3  501    0  0.37444159218E+01 -0.31629123474E+00 -0.29390292773E+02  0.30000000000E+02  0.47000000000E+01 0. -1.
         -5    1    3    3    0  501 -0.37444159218E+01  0.31629123474E+00  0.29390292773E+02  0.30000000000E+02  0.47000000000E+01 0.  1.
</event>
<event>
 5    1  0.7702600E-002  0.6000000E+02  0.7546771E-02  0.1259629E+00
         11   -1    0    0    0    0  0.00000000000E+00  0.00000000000E+00  0.30000000000E+02  0.30000000000E+02  0.00000000000E+00 0.  1.
        -11   -1    0    0    0    0 -0.00000000000E+00 -0.00000000000E+00 -0.30000000000E+02  0.30000000000E+02  0.00000000000E+00 0. -1.
         23    2    1    2    0    0  0.00000000000E+00  0.00000000000E+00  0.00000000000E+00  0.60000000000E+02  0.60000000000E+02 0.  0.
          5    1    3    3  501    0 -0.28512658075E+02  0.17238620256E+01 -0.78718885411E+01  0.30000000000E+02  0.47000000000E+01 0. -1.
         -5    1    3    3    0  501  0.28512658075E+02 -0.17238620256E+01  0.78718885411E+01  0.30000000000E+02  0.47000000000E+01 0.  1.
</event>
<event>
 5    1  0.7702600E-002  0.6000000E+02  0.7546771E-02  0.1259629E+00
         11   -1    0    0    0    0  0.00000000000E+00  0.00000000000E+00  0.30000000000E+02  0.30000000000E+02  0.00000000000E+00 0.  1.
        -11   -1    0    0    0    0 -0.00000000000E+00 -0.00000000000E+00 -0.30000000000E+02  0.30000000000E+02  0.00000000000E+00 0. -1.
         23    2    1    2    0    0  0.00000000000E+00  0.00000000000E+00  0.00000000000E+00  0.60000000000E+02  0.60000000000E+02 0.  0.
          5    1    3    3  501    0 -0.59467528938E+01  0.66413720418E+01 -0.28256650676E+02  0.30000000000E+02  0.47000000000E+01 0. -1.
         -5    1    3    3    0  501  0.59467528938E+01 -0.66413720418E+01  0.28256650676E+02  0.30000000000E+02  0.47000000000E+01 0.  1.
</event>
<event>
 5    1  0.7702600E-002  0.6000000E+02  0.7546771E-02  0.1259629E+00
         11   -1    0    0    0    0  0.00000000000E+00  0.00000000000E+00  0.30000000000E+02  0.30000000000E+02  0.00000000000E+00 0.  1.
        -11   -1    0    0    0    0 -0.00000000000E+00 -0.00000000000E+00 -0.30000000000E+02  0.30000000000E+02  0.00000000000E+00 0. -1.
         23    2    1    2    0    0  0.00000000000E+00  0.00000000000E+00  0.00000000000E+00  0.60000000000E+02  0.60000000000E+02 0.  0.
          5    1    3    3  501    0  0.88785407145E+01 -0.15904297144E+02 -0.23369528175E+02  0.30000000000E+02  0.47000000000E+01 0. -1.
         -5    1    3    3    0  501 -0.88785407145E+01  0.15904297144E+02  0.23369528175E+02  0.30000000000E+02  0.47000000000E+01 0.  1.
</event>
<event>
 5    1  0.7702600E-002  0.6000000E+02  0.7546771E-02  0.1259629E+00
         11   -1    0    0    0    0  0.00000000000E+00  0.00000000000E+00  0.30000000000E+02  0.30000000000E+02  0.00000000000E+00 0.  1.
        -11   -1    0    0    0    0 -0.00000000000E+00 -0.00000000000E+00 -0.30000000000E+02  0.30000000000E+02  0.00000000000E+00 0. -1.
         23    2    1    2    0    0  0.00000000000E+00  0.00000000000E+00  0.00000000000E+00  0.60000000000E+02  0.60000000000E+02 0.  0.
          5    1    3    3  501    0 -0.11735121573E+02  0.26208158948E+02 -0.73026930790E+01  0.30000000000E+02  0.47000000000E+01 0. -1.
         -5    1    3    3    0  501  0.11735121573E+02 -0.26208158948E+02  0.73026930790E+01  0.30000000000E+02  0.47000000000E+01 0.  1.
</event>
<event>
 5    1  0.7702600E-002  0.6000000E+02  0.7546771E-02  0.1259629E+00
         11   -1    0    0    0    0  0.00000000000E+00  0.00000000000E+00  0.30000000000E+02  0.30000000000E+02  0.00000000000E+00 0.  1.
        -11   -1    0    0    0    0 -0.00000000000E+00 -0.00000000000E+00 -0.30000000000E+02  0.30000000000E+02  0.00000000000E+00 0. -1.
         23    2    1    2    0    0  0.00000000000E+00  0.00000000000E+00  0.00000000000E+00  0.60000000000E+02  0.60000000000E+02 0.  0.
          5    1    3    3  501    0  0.24123493340E+02  0.11623830542E+02  0.12682808546E+02  0.30000000000E+02  0.47000000000E+01 0. -1.
         -5    1    3    3    0  501 -0.24123493340E+02 -0.11623830542E+02 -0.12682808546E+02  0.30000000000E+02  0.47000000000E+01 0.  1.
</event>
<event>
 5    1  0.7702600E-002  0.6000000E+02  0.7546771E-02  0.1259629E+00
         11   -1    0    0    0    0  0.00000000000E+00  0.00000000000E+00  0.30000000000E+02  0.30000000000E+02  0.00000000000E+00 0. -1.
        -11   -1    0    0    0    0 -0.00000000000E+00 -0.00000000000E+00 -0.30000000000E+02  0.30000000000E+02  0.00000000000E+00 0.  1.
         23    2    1    2    0    0  0.00000000000E+00  0.00000000000E+00  0.00000000000E+00  0.60000000000E+02  0.60000000000E+02 0.  0.
          5    1    3    3  501    0 -0.15357407914E+02 -0.25278494229E+02 -0.17486428062E+01  0.30000000000E+02  0.47000000000E+01 0.  1.
         -5    1    3    3    0  501  0.15357407914E+02  0.25278494229E+02  0.17486428062E+01  0.30000000000E+02  0.47000000000E+01 0. -1.
</event>
<event>
 5    1  0.7702600E-002  0.6000000E+02  0.7546771E-02  0.1259629E+00
         11   -1    0    0    0    0  0.00000000000E+00  0.00000000000E+00  0.30000000000E+02  0.30000000000E+02  0.00000000000E+00 0.  1.
        -11   -1    0    0    0    0 -0.00000000000E+00 -0.00000000000E+00 -0.30000000000E+02  0.30000000000E+02  0.00000000000E+00 0. -1.
         23    2    1    2    0    0  0.00000000000E+00  0.00000000000E+00  0.00000000000E+00  0.60000000000E+02  0.60000000000E+02 0.  0.
          5    1    3    3  501    0  0.21377760963E+02 -0.42404378736E-01 -0.20515836276E+02  0.30000000000E+02  0.47000000000E+01 0. -1.
         -5    1    3    3    0  501 -0.21377760963E+02  0.42404378736E-01  0.20515836276E+02  0.30000000000E+02  0.47000000000E+01 0.  1.
</event>
<event>
 5    1  0.7702600E-002  0.6000000E+02  0.7546771E-02  0.1259629E+00
         11   -1    0    0    0    0  0.00000000000E+00  0.00000000000E+00  0.30000000000E+02  0.30000000000E+02  0.00000000000E+00 0. -1.
        -11   -1    0    0    0    0 -0.00000000000E+00 -0.00000000000E+00 -0.30000000000E+02  0.30000000000E+02  0.00000000000E+00 0.  1.
         23    2    1    2    0    0  0.00000000000E+00  0.00000000000E+00  0.00000000000E+00  0.60000000000E+02  0.60000000000E+02 0.  0.
          5    1    3    3  501    0  0.52155537742E+01  0.27932520996E+02 -0.83953719186E+01  0.30000000000E+02  0.47000000000E+01 0.  1.
         -5    1    3    3    0  501 -0.52155537742E+01 -0.27932520996E+02  0.83953719186E+01  0.30000000000E+02  0.47000000000E+01 0. -1.
</event>
<event>
 5    1  0.7702600E-002  0.6000000E+02  0.7546771E-02  0.1259629E+00
         11   -1    0    0    0    0  0.00000000000E+00  0.00000000000E+00  0.30000000000E+02  0.30000000000E+02  0.00000000000E+00 0. -1.
        -11   -1    0    0    0    0 -0.00000000000E+00 -0.00000000000E+00 -0.30000000000E+02  0.30000000000E+02  0.00000000000E+00 0.  1.
         23    2    1    2    0    0  0.00000000000E+00  0.00000000000E+00  0.00000000000E+00  0.60000000000E+02  0.60000000000E+02 0.  0.
          5    1    3    3  501    0  0.22679537309E+02  0.18025349195E+02 -0.62157359862E+01  0.30000000000E+02  0.47000000000E+01 0. -1.
         -5    1    3    3    0  501 -0.22679537309E+02 -0.18025349195E+02  0.62157359862E+01  0.30000000000E+02  0.47000000000E+01 0.  1.
</event>
<event>
 5    1  0.7702600E-002  0.6000000E+02  0.7546771E-02  0.1259629E+00
         11   -1    0    0    0    0  0.00000000000E+00  0.00000000000E+00  0.30000000000E+02  0.30000000000E+02  0.00000000000E+00 0.  1.
        -11   -1    0    0    0    0 -0.00000000000E+00 -0.00000000000E+00 -0.30000000000E+02  0.30000000000E+02  0.00000000000E+00 0. -1.
         23    2    1    2    0    0  0.00000000000E+00  0.00000000000E+00  0.00000000000E+00  0.60000000000E+02  0.60000000000E+02 0.  0.
          5    1    3    3  501    0 -0.20525471309E+02  0.14111683931E+02 -0.16046040140E+02  0.30000000000E+02  0.47000000000E+01 0. -1.
         -5    1    3    3    0  501  0.20525471309E+02 -0.14111683931E+02  0.16046040140E+02  0.30000000000E+02  0.47000000000E+01 0.  1.
</event>
<event>
 5    1  0.7702600E-002  0.6000000E+02  0.7546771E-02  0.1259629E+00
         11   -1    0    0    0    0  0.00000000000E+00  0.00000000000E+00  0.30000000000E+02  0.30000000000E+02  0.00000000000E+00 0. -1.
        -11   -1    0    0    0    0 -0.00000000000E+00 -0.00000000000E+00 -0.30000000000E+02  0.30000000000E+02  0.00000000000E+00 0.  1.
         23    2    1    2    0    0  0.00000000000E+00  0.00000000000E+00  0.00000000000E+00  0.60000000000E+02  0.60000000000E+02 0.  0.
          5    1    3    3  501    0  0.23932135980E+02  0.13452194710E+02 -0.11144564814E+02  0.30000000000E+02  0.47000000000E+01 0.  1.
         -5    1    3    3    0  501 -0.23932135980E+02 -0.13452194710E+02  0.11144564814E+02  0.30000000000E+02  0.47000000000E+01 0. -1.
</event>
<event>
 5    1  0.7702600E-002  0.6000000E+02  0.7546771E-02  0.1259629E+00
         11   -1    0    0    0    0  0.00000000000E+00  0.00000000000E+00  0.30000000000E+02  0.30000000000E+02  0.00000000000E+00 0. -1.
        -11   -1    0    0    0    0 -0.00000000000E+00 -0.00000000000E+00 -0.30000000000E+02  0.30000000000E+02  0.00000000000E+00 0.  1.
         23    2    1    2    0    0  0.00000000000E+00  0.00000000000E+00  0.00000000000E+00  0.60000000000E+02  0.60000000000E+02 0.  0.
          5    1    3    3  501    0  0.84685200108E+01 -0.27259012783E+02 -0.79460928072E+01  0.30000000000E+02  0.47000000000E+01 0.  1.
         -5    1    3    3    0  501 -0.84685200108E+01  0.27259012783E+02  0.79460928072E+01  0.30000000000E+02  0.47000000000E+01 0. -1.
</event>
<event>
 5    1  0.7702600E-002  0.6000000E+02  0.7546771E-02  0.1259629E+00
         11   -1    0    0    0    0  0.00000000000E+00  0.00000000000E+00  0.30000000000E+02  0.30000000000E+02  0.00000000000E+00 0.  1.
        -11   -1    0    0    0    0 -0.00000000000E+00 -0.00000000000E+00 -0.30000000000E+02  0.30000000000E+02  0.00000000000E+00 0. -1.
         23    2    1    2    0    0  0.00000000000E+00  0.00000000000E+00  0.00000000000E+00  0.60000000000E+02  0.60000000000E+02 0.  0.
          5    1    3    3  501    0  0.86904273583E+01  0.13556981633E+02 -0.24871564513E+02  0.30000000000E+02  0.47000000000E+01 0. -1.
         -5    1    3    3    0  501 -0.86904273583E+01 -0.13556981633E+02  0.24871564513E+02  0.30000000000E+02  0.47000000000E+01 0.  1.
</event>
<event>
 5    1  0.7702600E-002  0.6000000E+02  0.7546771E-02  0.1259629E+00
         11   -1    0    0    0    0  0.00000000000E+00  0.00000000000E+00  0.30000000000E+02  0.30000000000E+02  0.00000000000E+00 0.  1.
        -11   -1    0    0    0    0 -0.00000000000E+00 -0.00000000000E+00 -0.30000000000E+02  0.30000000000E+02  0.00000000000E+00 0. -1.
         23    2    1    2    0    0  0.00000000000E+00  0.00000000000E+00  0.00000000000E+00  0.60000000000E+02  0.60000000000E+02 0.  0.
          5    1    3    3  501    0 -0.15138712384E+01 -0.48071191126E+01 -0.29197770458E+02  0.30000000000E+02  0.47000000000E+01 0. -1.
         -5    1    3    3    0  501  0.15138712384E+01  0.48071191126E+01  0.29197770458E+02  0.30000000000E+02  0.47000000000E+01 0.  1.
</event>
<event>
 5    1  0.7702600E-002  0.6000000E+02  0.7546771E-02  0.1259629E+00
         11   -1    0    0    0    0  0.00000000000E+00  0.00000000000E+00  0.30000000000E+02  0.30000000000E+02  0.00000000000E+00 0. -1.
        -11   -1    0    0    0    0 -0.00000000000E+00 -0.00000000000E+00 -0.30000000000E+02  0.30000000000E+02  0.00000000000E+00 0.  1.
         23    2    1    2    0    0  0.00000000000E+00  0.00000000000E+00  0.00000000000E+00  0.60000000000E+02  0.60000000000E+02 0.  0.
          5    1    3    3  501    0 -0.17003289948E+02  0.22472482483E+02 -0.91534508249E+01  0.30000000000E+02  0.47000000000E+01 0.  1.
         -5    1    3    3    0  501  0.17003289948E+02 -0.22472482483E+02  0.91534508249E+01  0.30000000000E+02  0.47000000000E+01 0. -1.
</event>
<event>
 5    1  0.7702600E-002  0.6000000E+02  0.7546771E-02  0.1259629E+00
         11   -1    0    0    0    0  0.00000000000E+00  0.00000000000E+00  0.30000000000E+02  0.30000000000E+02  0.00000000000E+00 0.  1.
        -11   -1    0    0    0    0 -0.00000000000E+00 -0.00000000000E+00 -0.30000000000E+02  0.30000000000E+02  0.00000000000E+00 0. -1.
         23    2    1    2    0    0  0.00000000000E+00  0.00000000000E+00  0.00000000000E+00  0.60000000000E+02  0.60000000000E+02 0.  0.
          5    1    3    3  501    0  0.27655697030E+02 -0.92479193028E+01 -0.52486579587E+01  0.30000000000E+02  0.47000000000E+01 0. -1.
         -5    1    3    3    0  501 -0.27655697030E+02  0.92479193028E+01  0.52486579587E+01  0.30000000000E+02  0.47000000000E+01 0.  1.
</event>
<event>
 5    1  0.7702600E-002  0.6000000E+02  0.7546771E-02  0.1259629E+00
         11   -1    0    0    0    0  0.00000000000E+00  0.00000000000E+00  0.30000000000E+02  0.30000000000E+02  0.00000000000E+00 0.  1.
        -11   -1    0    0    0    0 -0.00000000000E+00 -0.00000000000E+00 -0.30000000000E+02  0.30000000000E+02  0.00000000000E+00 0. -1.
         23    2    1    2    0    0  0.00000000000E+00  0.00000000000E+00  0.00000000000E+00  0.60000000000E+02  0.60000000000E+02 0.  0.
          5    1    3    3  501    0  0.25700924695E+02  0.14652481919E+02 -0.16362284100E+01  0.30000000000E+02  0.47000000000E+01 0. -1.
         -5    1    3    3    0  501 -0.25700924695E+02 -0.14652481919E+02  0.16362284100E+01  0.30000000000E+02  0.47000000000E+01 0.  1.
</event>
<event>
 5    1  0.7702600E-002  0.6000000E+02  0.7546771E-02  0.1259629E+00
         11   -1    0    0    0    0  0.00000000000E+00  0.00000000000E+00  0.30000000000E+02  0.30000000000E+02  0.00000000000E+00 0.  1.
        -11   -1    0    0    0    0 -0.00000000000E+00 -0.00000000000E+00 -0.30000000000E+02  0.30000000000E+02  0.00000000000E+00 0. -1.
         23    2    1    2    0    0  0.00000000000E+00  0.00000000000E+00  0.00000000000E+00  0.60000000000E+02  0.60000000000E+02 0.  0.
          5    1    3    3  501    0  0.92553029570E+00  0.39984010893E+01 -0.29343929226E+02  0.30000000000E+02  0.47000000000E+01 0. -1.
         -5    1    3    3    0  501 -0.92553029570E+00 -0.39984010893E+01  0.29343929226E+02  0.30000000000E+02  0.47000000000E+01 0.  1.
</event>
<event>
 5    1  0.7702600E-002  0.6000000E+02  0.7546771E-02  0.1259629E+00
         11   -1    0    0    0    0  0.00000000000E+00  0.00000000000E+00  0.30000000000E+02  0.30000000000E+02  0.00000000000E+00 0.  1.
        -11   -1    0    0    0    0 -0.00000000000E+00 -0.00000000000E+00 -0.30000000000E+02  0.30000000000E+02  0.00000000000E+00 0. -1.
         23    2    1    2    0    0  0.00000000000E+00  0.00000000000E+00  0.00000000000E+00  0.60000000000E+02  0.60000000000E+02 0.  0.
          5    1    3    3  501    0  0.12785359081E+02  0.23831967249E+02 -0.12102971959E+02  0.30000000000E+02  0.47000000000E+01 0. -1.
         -5    1    3    3    0  501 -0.12785359081E+02 -0.23831967249E+02  0.12102971959E+02  0.30000000000E+02  0.47000000000E+01 0.  1.
</event>
<event>
 5    1  0.7702600E-002  0.6000000E+02  0.7546771E-02  0.1259629E+00
         11   -1    0    0    0    0  0.00000000000E+00  0.00000000000E+00  0.30000000000E+02  0.30000000000E+02  0.00000000000E+00 0.  1.
        -11   -1    0    0    0    0 -0.00000000000E+00 -0.00000000000E+00 -0.30000000000E+02  0.30000000000E+02  0.00000000000E+00 0. -1.
         23    2    1    2    0    0  0.00000000000E+00  0.00000000000E+00  0.00000000000E+00  0.60000000000E+02  0.60000000000E+02 0.  0.
          5    1    3    3  501    0  0.13490091166E+02 -0.13620960770E+02 -0.22591964678E+02  0.30000000000E+02  0.47000000000E+01 0. -1.
         -5    1    3    3    0  501 -0.13490091166E+02  0.13620960770E+02  0.22591964678E+02  0.30000000000E+02  0.47000000000E+01 0.  1.
</event>
<event>
 5    1  0.7702600E-002  0.6000000E+02  0.7546771E-02  0.1259629E+00
         11   -1    0    0    0    0  0.00000000000E+00  0.00000000000E+00  0.30000000000E+02  0.30000000000E+02  0.00000000000E+00 0.  1.
        -11   -1    0    0    0    0 -0.00000000000E+00 -0.00000000000E+00 -0.30000000000E+02  0.30000000000E+02  0.00000000000E+00 0. -1.
         23    2    1    2    0    0  0.00000000000E+00  0.00000000000E+00  0.00000000000E+00  0.60000000000E+02  0.60000000000E+02 0.  0.
          5    1    3    3  501    0  0.22654039013E+02  0.18784470802E+02 -0.34421175327E+01  0.30000000000E+02  0.47000000000E+01 0. -1.
         -5    1    3    3    0  501 -0.22654039013E+02 -0.18784470802E+02  0.34421175327E+01  0.30000000000E+02  0.47000000000E+01 0.  1.
</event>
<event>
 5    1  0.7702600E-002  0.6000000E+02  0.7546771E-02  0.1259629E+00
         11   -1    0    0    0    0  0.00000000000E+00  0.00000000000E+00  0.30000000000E+02  0.30000000000E+02  0.00000000000E+00 0. -1.
        -11   -1    0    0    0    0 -0.00000000000E+00 -0.00000000000E+00 -0.30000000000E+02  0.30000000000E+02  0.00000000000E+00 0.  1.
         23    2    1    2    0    0  0.00000000000E+00  0.00000000000E+00  0.00000000000E+00  0.60000000000E+02  0.60000000000E+02 0.  0.
          5    1    3    3  501    0 -0.11201050420E+02 -0.15765535872E+02 -0.22447591144E+02  0.30000000000E+02  0.47000000000E+01 0.  1.
         -5    1    3    3    0  501  0.11201050420E+02  0.15765535872E+02  0.22447591144E+02  0.30000000000E+02  0.47000000000E+01 0. -1.
</event>
<event>
 5    1  0.7702600E-002  0.6000000E+02  0.7546771E-02  0.1259629E+00
         11   -1    0    0    0    0  0.00000000000E+00  0.00000000000E+00  0.30000000000E+02  0.30000000000E+02  0.00000000000E+00 0.  1.
        -11   -1    0    0    0    0 -0.00000000000E+00 -0.00000000000E+00 -0.30000000000E+02  0.30000000000E+02  0.00000000000E+00 0. -1.
         23    2    1    2    0    0  0.00000000000E+00  0.00000000000E+00  0.00000000000E+00  0.60000000000E+02  0.60000000000E+02 0.  0.
          5    1    3    3  501    0  0.26316481928E+02 -0.12163430060E+02 -0.61158603751E+01  0.30000000000E+02  0.47000000000E+01 0. -1.
         -5    1    3    3    0  501 -0.26316481928E+02  0.12163430060E+02  0.61158603751E+01  0.30000000000E+02  0.47000000000E+01 0.  1.
</event>
<event>
 5    1  0.7702600E-002  0.6000000E+02  0.7546771E-02  0.1259629E+00
         11   -1    0    0    0    0  0.00000000000E+00  0.00000000000E+00  0.30000000000E+02  0.30000000000E+02  0.00000000000E+00 0.  1.
        -11   -1    0    0    0    0 -0.00000000000E+00 -0.00000000000E+00 -0.30000000000E+02  0.30000000000E+02  0.00000000000E+00 0. -1.
         23    2    1    2    0    0  0.00000000000E+00  0.00000000000E+00  0.00000000000E+00  0.60000000000E+02  0.60000000000E+02 0.  0.
          5    1    3    3  501    0 -0.34851005808E+01 -0.17168900966E+02 -0.23895458011E+02  0.30000000000E+02  0.47000000000E+01 0. -1.
         -5    1    3    3    0  501  0.34851005808E+01  0.17168900966E+02  0.23895458011E+02  0.30000000000E+02  0.47000000000E+01 0.  1.
</event>
<event>
 5    1  0.7702600E-002  0.6000000E+02  0.7546771E-02  0.1259629E+00
         11   -1    0    0    0    0  0.00000000000E+00  0.00000000000E+00  0.30000000000E+02  0.30000000000E+02  0.00000000000E+00 0.  1.
        -11   -1    0    0    0    0 -0.00000000000E+00 -0.00000000000E+00 -0.30000000000E+02  0.30000000000E+02  0.00000000000E+00 0. -1.
         23    2    1    2    0    0  0.00000000000E+00  0.00000000000E+00  0.00000000000E+00  0.60000000000E+02  0.60000000000E+02 0.  0.
          5    1    3    3  501    0 -0.24780103354E+02  0.14676140372E+02  0.69618518739E+01  0.30000000000E+02  0.47000000000E+01 0. -1.
         -5    1    3    3    0  501  0.24780103354E+02 -0.14676140372E+02 -0.69618518739E+01  0.30000000000E+02  0.47000000000E+01 0.  1.
</event>
<event>
 5    1  0.7702600E-002  0.6000000E+02  0.7546771E-02  0.1259629E+00
         11   -1    0    0    0    0  0.00000000000E+00  0.00000000000E+00  0.30000000000E+02  0.30000000000E+02  0.00000000000E+00 0.  1.
        -11   -1    0    0    0    0 -0.00000000000E+00 -0.00000000000E+00 -0.30000000000E+02  0.30000000000E+02  0.00000000000E+00 0. -1.
         23    2    1    2    0    0  0.00000000000E+00  0.00000000000E+00  0.00000000000E+00  0.60000000000E+02  0.60000000000E+02 0.  0.
          5    1    3    3  501    0 -0.42120279069E+01 -0.28707316121E+02 -0.60048998362E+01  0.30000000000E+02  0.47000000000E+01 0. -1.
         -5    1    3    3    0  501  0.42120279069E+01  0.28707316121E+02  0.60048998362E+01  0.30000000000E+02  0.47000000000E+01 0.  1.
</event>
<event>
 5    1  0.7702600E-002  0.6000000E+02  0.7546771E-02  0.1259629E+00
         11   -1    0    0    0    0  0.00000000000E+00  0.00000000000E+00  0.30000000000E+02  0.30000000000E+02  0.00000000000E+00 0.  1.
        -11   -1    0    0    0    0 -0.00000000000E+00 -0.00000000000E+00 -0.30000000000E+02  0.30000000000E+02  0.00000000000E+00 0. -1.
         23    2    1    2    0    0  0.00000000000E+00  0.00000000000E+00  0.00000000000E+00  0.60000000000E+02  0.60000000000E+02 0.  0.
          5    1    3    3  501    0  0.16101031774E+02  0.19659365845E+02 -0.15237326222E+02  0.30000000000E+02  0.47000000000E+01 0. -1.
         -5    1    3    3    0  501 -0.16101031774E+02 -0.19659365845E+02  0.15237326222E+02  0.30000000000E+02  0.47000000000E+01 0.  1.
</event>
<event>
 5    1  0.7702600E-002  0.6000000E+02  0.7546771E-02  0.1259629E+00
         11   -1    0    0    0    0  0.00000000000E+00  0.00000000000E+00  0.30000000000E+02  0.30000000000E+02  0.00000000000E+00 0. -1.
        -11   -1    0    0    0    0 -0.00000000000E+00 -0.00000000000E+00 -0.30000000000E+02  0.30000000000E+02  0.00000000000E+00 0.  1.
         23    2    1    2    0    0  0.00000000000E+00  0.00000000000E+00  0.00000000000E+00  0.60000000000E+02  0.60000000000E+02 0.  0.
          5    1    3    3  501    0 -0.21395364366E+01  0.27262726188E+02  0.11405092925E+02  0.30000000000E+02  0.47000000000E+01 0.  1.
         -5    1    3    3    0  501  0.21395364366E+01 -0.27262726188E+02 -0.11405092925E+02  0.30000000000E+02  0.47000000000E+01 0. -1.
</event>
<event>
 5    1  0.7702600E-002  0.6000000E+02  0.7546771E-02  0.1259629E+00
         11   -1    0    0    0    0  0.00000000000E+00  0.00000000000E+00  0.30000000000E+02  0.30000000000E+02  0.00000000000E+00 0.  1.
        -11   -1    0    0    0    0 -0.00000000000E+00 -0.00000000000E+00 -0.30000000000E+02  0.30000000000E+02  0.00000000000E+00 0. -1.
         23    2    1    2    0    0  0.00000000000E+00  0.00000000000E+00  0.00000000000E+00  0.60000000000E+02  0.60000000000E+02 0.  0.
          5    1    3    3  501    0 -0.26099708611E+02 -0.25596468426E+01 -0.13789975290E+02  0.30000000000E+02  0.47000000000E+01 0. -1.
         -5    1    3    3    0  501  0.26099708611E+02  0.25596468426E+01  0.13789975290E+02  0.30000000000E+02  0.47000000000E+01 0.  1.
</event>
<event>
 5    1  0.7702600E-002  0.6000000E+02  0.7546771E-02  0.1259629E+00
         11   -1    0    0    0    0  0.00000000000E+00  0.00000000000E+00  0.30000000000E+02  0.30000000000E+02  0.00000000000E+00 0.  1.
        -11   -1    0    0    0    0 -0.00000000000E+00 -0.00000000000E+00 -0.30000000000E+02  0.30000000000E+02  0.00000000000E+00 0. -1.
         23    2    1    2    0    0  0.00000000000E+00  0.00000000000E+00  0.00000000000E+00  0.60000000000E+02  0.60000000000E+02 0.  0.
          5    1    3    3  501    0 -0.15131682006E+02 -0.21965801585E+02  0.12901385987E+02  0.30000000000E+02  0.47000000000E+01 0. -1.
         -5    1    3    3    0  501  0.15131682006E+02  0.21965801585E+02 -0.12901385987E+02  0.30000000000E+02  0.47000000000E+01 0.  1.
</event>
<event>
 5    1  0.7702600E-002  0.6000000E+02  0.7546771E-02  0.1259629E+00
         11   -1    0    0    0    0  0.00000000000E+00  0.00000000000E+00  0.30000000000E+02  0.30000000000E+02  0.00000000000E+00 0.  1.
        -11   -1    0    0    0    0 -0.00000000000E+00 -0.00000000000E+00 -0.30000000000E+02  0.30000000000E+02  0.00000000000E+00 0. -1.
         23    2    1    2    0    0  0.00000000000E+00  0.00000000000E+00  0.00000000000E+00  0.60000000000E+02  0.60000000000E+02 0.  0.
          5    1    3    3  501    0  0.26710917843E+02  0.45237849859E+00 -0.12815312000E+02  0.30000000000E+02  0.47000000000E+01 0. -1.
         -5    1    3    3    0  501 -0.26710917843E+02 -0.45237849859E+00  0.12815312000E+02  0.30000000000E+02  0.47000000000E+01 0.  1.
</event>
<event>
 5    1  0.7702600E-002  0.6000000E+02  0.7546771E-02  0.1259629E+00
         11   -1    0    0    0    0  0.00000000000E+00  0.00000000000E+00  0.30000000000E+02  0.30000000000E+02  0.00000000000E+00 0. -1.
        -11   -1    0    0    0    0 -0.00000000000E+00 -0.00000000000E+00 -0.30000000000E+02  0.30000000000E+02  0.00000000000E+00 0.  1.
         23    2    1    2    0    0  0.00000000000E+00  0.00000000000E+00  0.00000000000E+00  0.60000000000E+02  0.60000000000E+02 0.  0.
          5    1    3    3  501    0  0.12140694926E+02  0.26879199716E+02 -0.28323399055E+01  0.30000000000E+02  0.47000000000E+01 0.  1.
         -5    1    3    3    0  501 -0.12140694926E+02 -0.26879199716E+02  0.28323399055E+01  0.30000000000E+02  0.47000000000E+01 0. -1.
</event>
<event>
 5    1  0.7702600E-002  0.6000000E+02  0.7546771E-02  0.1259629E+00
         11   -1    0    0    0    0  0.00000000000E+00  0.00000000000E+00  0.30000000000E+02  0.30000000000E+02  0.00000000000E+00 0.  1.
        -11   -1    0    0    0    0 -0.00000000000E+00 -0.00000000000E+00 -0.30000000000E+02  0.30000000000E+02  0.00000000000E+00 0. -1.
         23    2    1    2    0    0  0.00000000000E+00  0.00000000000E+00  0.00000000000E+00  0.60000000000E+02  0.60000000000E+02 0.  0.
          5    1    3    3  501    0  0.16177634125E+02 -0.96287041418E+01 -0.22879733623E+02  0.30000000000E+02  0.47000000000E+01 0. -1.
         -5    1    3    3    0  501 -0.16177634125E+02  0.96287041418E+01  0.22879733623E+02  0.30000000000E+02  0.47000000000E+01 0.  1.
</event>
<event>
 5    1  0.7702600E-002  0.6000000E+02  0.7546771E-02  0.1259629E+00
         11   -1    0    0    0    0  0.00000000000E+00  0.00000000000E+00  0.30000000000E+02  0.30000000000E+02  0.00000000000E+00 0. -1.
        -11   -1    0    0    0    0 -0.00000000000E+00 -0.00000000000E+00 -0.30000000000E+02  0.30000000000E+02  0.00000000000E+00 0.  1.
         23    2    1    2    0    0  0.00000000000E+00  0.00000000000E+00  0.00000000000E+00  0.60000000000E+02  0.60000000000E+02 0.  0.
          5    1    3    3  501    0 -0.20478431522E+02  0.21395718677E+02 -0.87582230447E+00  0.30000000000E+02  0.47000000000E+01 0.  1.
         -5    1    3    3    0  501  0.20478431522E+02 -0.21395718677E+02  0.87582230447E+00  0.30000000000E+02  0.47000000000E+01 0. -1.
</event>
<event>
 5    1  0.7702600E-002  0.6000000E+02  0.7546771E-02  0.1259629E+00
         11   -1    0    0    0    0  0.00000000000E+00  0.00000000000E+00  0.30000000000E+02  0.30000000000E+02  0.00000000000E+00 0.  1.
        -11   -1    0    0    0    0 -0.00000000000E+00 -0.00000000000E+00 -0.30000000000E+02  0.30000000000E+02  0.00000000000E+00 0. -1.
         23    2    1    2    0    0  0.00000000000E+00  0.00000000000E+00  0.00000000000E+00  0.60000000000E+02  0.60000000000E+02 0.  0.
          5    1    3    3  501    0 -0.15380814007E+02 -0.22384366421E+02 -0.11844015385E+02  0.30000000000E+02  0.47000000000E+01 0. -1.
         -5    1    3    3    0  501  0.15380814007E+02  0.22384366421E+02  0.11844015385E+02  0.30000000000E+02  0.47000000000E+01 0.  1.
</event>
<event>
 5    1  0.7702600E-002  0.6000000E+02  0.7546771E-02  0.1259629E+00
         11   -1    0    0    0    0  0.00000000000E+00  0.00000000000E+00  0.30000000000E+02  0.30000000000E+02  0.00000000000E+00 0.  1.
        -11   -1    0    0    0    0 -0.00000000000E+00 -0.00000000000E+00 -0.30000000000E+02  0.30000000000E+02  0.00000000000E+00 0. -1.
         23    2    1    2    0    0  0.00000000000E+00  0.00000000000E+00  0.00000000000E+00  0.60000000000E+02  0.60000000000E+02 0.  0.
          5    1    3    3  501    0 -0.21351125283E+02  0.28317808921E+01 -0.20347492871E+02  0.30000000000E+02  0.47000000000E+01 0. -1.
         -5    1    3    3    0  501  0.21351125283E+02 -0.28317808921E+01  0.20347492871E+02  0.30000000000E+02  0.47000000000E+01 0.  1.
</event>
<event>
 5    1  0.7702600E-002  0.6000000E+02  0.7546771E-02  0.1259629E+00
         11   -1    0    0    0    0  0.00000000000E+00  0.00000000000E+00  0.30000000000E+02  0.30000000000E+02  0.00000000000E+00 0.  1.
        -11   -1    0    0    0    0 -0.00000000000E+00 -0.00000000000E+00 -0.30000000000E+02  0.30000000000E+02  0.00000000000E+00 0. -1.
         23    2    1    2    0    0  0.00000000000E+00  0.00000000000E+00  0.00000000000E+00  0.60000000000E+02  0.60000000000E+02 0.  0.
          5    1    3    3  501    0  0.13231942654E+01 -0.10900103817E+01 -0.29579909302E+02  0.30000000000E+02  0.47000000000E+01 0. -1.
         -5    1    3    3    0  501 -0.13231942654E+01  0.10900103817E+01  0.29579909302E+02  0.30000000000E+02  0.47000000000E+01 0.  1.
</event>
<event>
 5    1  0.7702600E-002  0.6000000E+02  0.7546771E-02  0.1259629E+00
         11   -1    0    0    0    0  0.00000000000E+00  0.00000000000E+00  0.30000000000E+02  0.30000000000E+02  0.00000000000E+00 0.  1.
        -11   -1    0    0    0    0 -0.00000000000E+00 -0.00000000000E+00 -0.30000000000E+02  0.30000000000E+02  0.00000000000E+00 0. -1.
         23    2    1    2    0    0  0.00000000000E+00  0.00000000000E+00  0.00000000000E+00  0.60000000000E+02  0.60000000000E+02 0.  0.
          5    1    3    3  501    0  0.81291854703E+01  0.28357793815E+01 -0.28351096961E+02  0.30000000000E+02  0.47000000000E+01 0. -1.
         -5    1    3    3    0  501 -0.81291854703E+01 -0.28357793815E+01  0.28351096961E+02  0.30000000000E+02  0.47000000000E+01 0.  1.
</event>
<event>
 5    1  0.7702600E-002  0.6000000E+02  0.7546771E-02  0.1259629E+00
         11   -1    0    0    0    0  0.00000000000E+00  0.00000000000E+00  0.30000000000E+02  0.30000000000E+02  0.00000000000E+00 0.  1.
        -11   -1    0    0    0    0 -0.00000000000E+00 -0.00000000000E+00 -0.30000000000E+02  0.30000000000E+02  0.00000000000E+00 0. -1.
         23    2    1    2    0    0  0.00000000000E+00  0.00000000000E+00  0.00000000000E+00  0.60000000000E+02  0.60000000000E+02 0.  0.
          5    1    3    3  501    0 -0.11975476262E+02 -0.93029054261E+01 -0.25454938989E+02  0.30000000000E+02  0.47000000000E+01 0. -1.
         -5    1    3    3    0  501  0.11975476262E+02  0.93029054261E+01  0.25454938989E+02  0.30000000000E+02  0.47000000000E+01 0.  1.
</event>
<event>
 5    1  0.7702600E-002  0.6000000E+02  0.7546771E-02  0.1259629E+00
         11   -1    0    0    0    0  0.00000000000E+00  0.00000000000E+00  0.30000000000E+02  0.30000000000E+02  0.00000000000E+00 0.  1.
        -11   -1    0    0    0    0 -0.00000000000E+00 -0.00000000000E+00 -0.30000000000E+02  0.30000000000E+02  0.00000000000E+00 0. -1.
         23    2    1    2    0    0  0.00000000000E+00  0.00000000000E+00  0.00000000000E+00  0.60000000000E+02  0.60000000000E+02 0.  0.
          5    1    3    3  501    0  0.21442661729E+02 -0.13587058600E+02 -0.15281168036E+02  0.30000000000E+02  0.47000000000E+01 0. -1.
         -5    1    3    3    0  501 -0.21442661729E+02  0.13587058600E+02  0.15281168036E+02  0.30000000000E+02  0.47000000000E+01 0.  1.
</event>
<event>
 5    1  0.7702600E-002  0.6000000E+02  0.7546771E-02  0.1259629E+00
         11   -1    0    0    0    0  0.00000000000E+00  0.00000000000E+00  0.30000000000E+02  0.30000000000E+02  0.00000000000E+00 0.  1.
        -11   -1    0    0    0    0 -0.00000000000E+00 -0.00000000000E+00 -0.30000000000E+02  0.30000000000E+02  0.00000000000E+00 0. -1.
         23    2    1    2    0    0  0.00000000000E+00  0.00000000000E+00  0.00000000000E+00  0.60000000000E+02  0.60000000000E+02 0.  0.
          5    1    3    3  501    0 -0.44286237233E+01  0.23388854352E+02 -0.17642527711E+02  0.30000000000E+02  0.47000000000E+01 0. -1.
         -5    1    3    3    0  501  0.44286237233E+01 -0.23388854352E+02  0.17642527711E+02  0.30000000000E+02  0.47000000000E+01 0.  1.
</event>
<event>
 5    1  0.7702600E-002  0.6000000E+02  0.7546771E-02  0.1259629E+00
         11   -1    0    0    0    0  0.00000000000E+00  0.00000000000E+00  0.30000000000E+02  0.30000000000E+02  0.00000000000E+00 0. -1.
        -11   -1    0    0    0    0 -0.00000000000E+00 -0.00000000000E+00 -0.30000000000E+02  0.30000000000E+02  0.00000000000E+00 0.  1.
         23    2    1    2    0    0  0.00000000000E+00  0.00000000000E+00  0.00000000000E+00  0.60000000000E+02  0.60000000000E+02 0.  0.
          5    1    3    3  501    0 -0.16043303163E+02  0.91254409064E+01 -0.23178627049E+02  0.30000000000E+02  0.47000000000E+01 0.  1.
         -5    1    3    3    0  501  0.16043303163E+02 -0.91254409064E+01  0.23178627049E+02  0.30000000000E+02  0.47000000000E+01 0. -1.
</event>
<event>
 5    1  0.7702600E-002  0.6000000E+02  0.7546771E-02  0.1259629E+00
         11   -1    0    0    0    0  0.00000000000E+00  0.00000000000E+00  0.30000000000E+02  0.30000000000E+02  0.00000000000E+00 0.  1.
        -11   -1    0    0    0    0 -0.00000000000E+00 -0.00000000000E+00 -0.30000000000E+02  0.30000000000E+02  0.00000000000E+00 0. -1.
         23    2    1    2    0    0  0.00000000000E+00  0.00000000000E+00  0.00000000000E+00  0.60000000000E+02  0.60000000000E+02 0.  0.
          5    1    3    3  501    0  0.59713902266E+01 -0.44910774257E+01 -0.28671984973E+02  0.30000000000E+02  0.47000000000E+01 0. -1.
         -5    1    3    3    0  501 -0.59713902266E+01  0.44910774257E+01  0.28671984973E+02  0.30000000000E+02  0.47000000000E+01 0.  1.
</event>
<event>
 5    1  0.7702600E-002  0.6000000E+02  0.7546771E-02  0.1259629E+00
         11   -1    0    0    0    0  0.00000000000E+00  0.00000000000E+00  0.30000000000E+02  0.30000000000E+02  0.00000000000E+00 0.  1.
        -11   -1    0    0    0    0 -0.00000000000E+00 -0.00000000000E+00 -0.30000000000E+02  0.30000000000E+02  0.00000000000E+00 0. -1.
         23    2    1    2    0    0  0.00000000000E+00  0.00000000000E+00  0.00000000000E+00  0.60000000000E+02  0.60000000000E+02 0.  0.
          5    1    3    3  501    0  0.43939546981E+01 -0.29248030160E+02  0.17764835766E+01  0.30000000000E+02  0.47000000000E+01 0. -1.
         -5    1    3    3    0  501 -0.43939546981E+01  0.29248030160E+02 -0.17764835766E+01  0.30000000000E+02  0.47000000000E+01 0.  1.
</event>
<event>
 5    1  0.7702600E-002  0.6000000E+02  0.7546771E-02  0.1259629E+00
         11   -1    0    0    0    0  0.00000000000E+00  0.00000000000E+00  0.30000000000E+02  0.30000000000E+02  0.00000000000E+00 0. -1.
        -11   -1    0    0    0    0 -0.00000000000E+00 -0.00000000000E+00 -0.30000000000E+02  0.30000000000E+02  0.00000000000E+00 0.  1.
         23    2    1    2    0    0  0.00000000000E+00  0.00000000000E+00  0.00000000000E+00  0.60000000000E+02  0.60000000000E+02 0.  0.
          5    1    3    3  501    0  0.32119559068E+00 -0.15948567689E+01 -0.29584848576E+02  0.30000000000E+02  0.47000000000E+01 0.  1.
         -5    1    3    3    0  501 -0.32119559068E+00  0.15948567689E+01  0.29584848576E+02  0.30000000000E+02  0.47000000000E+01 0. -1.
</event>
<event>
 5    1  0.7702600E-002  0.6000000E+02  0.7546771E-02  0.1259629E+00
         11   -1    0    0    0    0  0.00000000000E+00  0.00000000000E+00  0.30000000000E+02  0.30000000000E+02  0.00000000000E+00 0.  1.
        -11   -1    0    0    0    0 -0.00000000000E+00 -0.00000000000E+00 -0.30000000000E+02  0.30000000000E+02  0.00000000000E+00 0. -1.
         23    2    1    2    0    0  0.00000000000E+00  0.00000000000E+00  0.00000000000E+00  0.60000000000E+02  0.60000000000E+02 0.  0.
          5    1    3    3  501    0 -0.24062474561E+02  0.13876753158E+02  0.10312276168E+02  0.30000000000E+02  0.47000000000E+01 0.  1.
         -5    1    3    3    0  501  0.24062474561E+02 -0.13876753158E+02 -0.10312276168E+02  0.30000000000E+02  0.47000000000E+01 0. -1.
</event>
<event>
 5    1  0.7702600E-002  0.6000000E+02  0.7546771E-02  0.1259629E+00
         11   -1    0    0    0    0  0.00000000000E+00  0.00000000000E+00  0.30000000000E+02  0.30000000000E+02  0.00000000000E+00 0. -1.
        -11   -1    0    0    0    0 -0.00000000000E+00 -0.00000000000E+00 -0.30000000000E+02  0.30000000000E+02  0.00000000000E+00 0.  1.
         23    2    1    2    0    0  0.00000000000E+00  0.00000000000E+00  0.00000000000E+00  0.60000000000E+02  0.60000000000E+02 0.  0.
          5    1    3    3  501    0 -0.87884597585E+01 -0.26660554607E+02 -0.94809178424E+01  0.30000000000E+02  0.47000000000E+01 0.  1.
         -5    1    3    3    0  501  0.87884597585E+01  0.26660554607E+02  0.94809178424E+01  0.30000000000E+02  0.47000000000E+01 0. -1.
</event>
<event>
 5    1  0.7702600E-002  0.6000000E+02  0.7546771E-02  0.1259629E+00
         11   -1    0    0    0    0  0.00000000000E+00  0.00000000000E+00  0.30000000000E+02  0.30000000000E+02  0.00000000000E+00 0. -1.
        -11   -1    0    0    0    0 -0.00000000000E+00 -0.00000000000E+00 -0.30000000000E+02  0.30000000000E+02  0.00000000000E+00 0.  1.
         23    2    1    2    0    0  0.00000000000E+00  0.00000000000E+00  0.00000000000E+00  0.60000000000E+02  0.60000000000E+02 0.  0.
          5    1    3    3  501    0 -0.26867501424E+02 -0.12301072154E+02 -0.21750841593E+01  0.30000000000E+02  0.47000000000E+01 0.  1.
         -5    1    3    3    0  501  0.26867501424E+02  0.12301072154E+02  0.21750841593E+01  0.30000000000E+02  0.47000000000E+01 0. -1.
</event>
<event>
 5    1  0.7702600E-002  0.6000000E+02  0.7546771E-02  0.1259629E+00
         11   -1    0    0    0    0  0.00000000000E+00  0.00000000000E+00  0.30000000000E+02  0.30000000000E+02  0.00000000000E+00 0.  1.
        -11   -1    0    0    0    0 -0.00000000000E+00 -0.00000000000E+00 -0.30000000000E+02  0.30000000000E+02  0.00000000000E+00 0. -1.
         23    2    1    2    0    0  0.00000000000E+00  0.00000000000E+00  0.00000000000E+00  0.60000000000E+02  0.60000000000E+02 0.  0.
          5    1    3    3  501    0  0.20571644657E+02 -0.19112591706E+02 -0.94565466400E+01  0.30000000000E+02  0.47000000000E+01 0. -1.
         -5    1    3    3    0  501 -0.20571644657E+02  0.19112591706E+02  0.94565466400E+01  0.30000000000E+02  0.47000000000E+01 0.  1.
</event>
<event>
 5    1  0.7702600E-002  0.6000000E+02  0.7546771E-02  0.1259629E+00
         11   -1    0    0    0    0  0.00000000000E+00  0.00000000000E+00  0.30000000000E+02  0.30000000000E+02  0.00000000000E+00 0.  1.
        -11   -1    0    0    0    0 -0.00000000000E+00 -0.00000000000E+00 -0.30000000000E+02  0.30000000000E+02  0.00000000000E+00 0. -1.
         23    2    1    2    0    0  0.00000000000E+00  0.00000000000E+00  0.00000000000E+00  0.60000000000E+02  0.60000000000E+02 0.  0.
          5    1    3    3  501    0  0.15985742509E+02  0.81663182736E+01 -0.23572808112E+02  0.30000000000E+02  0.47000000000E+01 0. -1.
         -5    1    3    3    0  501 -0.15985742509E+02 -0.81663182736E+01  0.23572808112E+02  0.30000000000E+02  0.47000000000E+01 0.  1.
</event>
<event>
 5    1  0.7702600E-002  0.6000000E+02  0.7546771E-02  0.1259629E+00
         11   -1    0    0    0    0  0.00000000000E+00  0.00000000000E+00  0.30000000000E+02  0.30000000000E+02  0.00000000000E+00 0.  1.
        -11   -1    0    0    0    0 -0.00000000000E+00 -0.00000000000E+00 -0.30000000000E+02  0.30000000000E+02  0.00000000000E+00 0. -1.
         23    2    1    2    0    0  0.00000000000E+00  0.00000000000E+00  0.00000000000E+00  0.60000000000E+02  0.60000000000E+02 0.  0.
          5    1    3    3  501    0 -0.28038721956E+02 -0.89038126072E+01 -0.35301830174E+01  0.30000000000E+02  0.47000000000E+01 0. -1.
         -5    1    3    3    0  501  0.28038721956E+02  0.89038126072E+01  0.35301830174E+01  0.30000000000E+02  0.47000000000E+01 0.  1.
</event>
<event>
 5    1  0.7702600E-002  0.6000000E+02  0.7546771E-02  0.1259629E+00
         11   -1    0    0    0    0  0.00000000000E+00  0.00000000000E+00  0.30000000000E+02  0.30000000000E+02  0.00000000000E+00 0.  1.
        -11   -1    0    0    0    0 -0.00000000000E+00 -0.00000000000E+00 -0.30000000000E+02  0.30000000000E+02  0.00000000000E+00 0. -1.
         23    2    1    2    0    0  0.00000000000E+00  0.00000000000E+00  0.00000000000E+00  0.60000000000E+02  0.60000000000E+02 0.  0.
          5    1    3    3  501    0 -0.20033719742E+02 -0.21802770151E+02  0.10951196322E+01  0.30000000000E+02  0.47000000000E+01 0. -1.
         -5    1    3    3    0  501  0.20033719742E+02  0.21802770151E+02 -0.10951196322E+01  0.30000000000E+02  0.47000000000E+01 0.  1.
</event>
<event>
 5    1  0.7702600E-002  0.6000000E+02  0.7546771E-02  0.1259629E+00
         11   -1    0    0    0    0  0.00000000000E+00  0.00000000000E+00  0.30000000000E+02  0.30000000000E+02  0.00000000000E+00 0. -1.
        -11   -1    0    0    0    0 -0.00000000000E+00 -0.00000000000E+00 -0.30000000000E+02  0.30000000000E+02  0.00000000000E+00 0.  1.
         23    2    1    2    0    0  0.00000000000E+00  0.00000000000E+00  0.00000000000E+00  0.60000000000E+02  0.60000000000E+02 0.  0.
          5    1    3    3  501    0 -0.53630286508E+01 -0.18344162334E+01 -0.29082345861E+02  0.30000000000E+02  0.47000000000E+01 0.  1.
         -5    1    3    3    0  501  0.53630286508E+01  0.18344162334E+01  0.29082345861E+02  0.30000000000E+02  0.47000000000E+01 0. -1.
</event>
<event>
 5    1  0.7702600E-002  0.6000000E+02  0.7546771E-02  0.1259629E+00
         11   -1    0    0    0    0  0.00000000000E+00  0.00000000000E+00  0.30000000000E+02  0.30000000000E+02  0.00000000000E+00 0. -1.
        -11   -1    0    0    0    0 -0.00000000000E+00 -0.00000000000E+00 -0.30000000000E+02  0.30000000000E+02  0.00000000000E+00 0.  1.
         23    2    1    2    0    0  0.00000000000E+00  0.00000000000E+00  0.00000000000E+00  0.60000000000E+02  0.60000000000E+02 0.  0.
          5    1    3    3  501    0 -0.12980580448E+02 -0.17413160943E+02 -0.20154313613E+02  0.30000000000E+02  0.47000000000E+01 0.  1.
         -5    1    3    3    0  501  0.12980580448E+02  0.17413160943E+02  0.20154313613E+02  0.30000000000E+02  0.47000000000E+01 0. -1.
</event>
<event>
 5    1  0.7702600E-002  0.6000000E+02  0.7546771E-02  0.1259629E+00
         11   -1    0    0    0    0  0.00000000000E+00  0.00000000000E+00  0.30000000000E+02  0.30000000000E+02  0.00000000000E+00 0.  1.
        -11   -1    0    0    0    0 -0.00000000000E+00 -0.00000000000E+00 -0.30000000000E+02  0.30000000000E+02  0.00000000000E+00 0. -1.
         23    2    1    2    0    0  0.00000000000E+00  0.00000000000E+00  0.00000000000E+00  0.60000000000E+02  0.60000000000E+02 0.  0.
          5    1    3    3  501    0  0.78529471607E+00  0.59791551316E+01 -0.29009360836E+02  0.30000000000E+02  0.47000000000E+01 0. -1.
         -5    1    3    3    0  501 -0.78529471607E+00 -0.59791551316E+01  0.29009360836E+02  0.30000000000E+02  0.47000000000E+01 0.  1.
</event>
<event>
 5    1  0.7702600E-002  0.6000000E+02  0.7546771E-02  0.1259629E+00
         11   -1    0    0    0    0  0.00000000000E+00  0.00000000000E+00  0.30000000000E+02  0.30000000000E+02  0.00000000000E+00 0.  1.
        -11   -1    0    0    0    0 -0.00000000000E+00 -0.00000000000E+00 -0.30000000000E+02  0.30000000000E+02  0.00000000000E+00 0. -1.
         23    2    1    2    0    0  0.00000000000E+00  0.00000000000E+00  0.00000000000E+00  0.60000000000E+02  0.60000000000E+02 0.  0.
          5    1    3    3  501    0 -0.98716546676E+01 -0.24281552674E+02 -0.13815449102E+02  0.30000000000E+02  0.47000000000E+01 0. -1.
         -5    1    3    3    0  501  0.98716546676E+01  0.24281552674E+02  0.13815449102E+02  0.30000000000E+02  0.47000000000E+01 0.  1.
</event>
<event>
 5    1  0.7702600E-002  0.6000000E+02  0.7546771E-02  0.1259629E+00
         11   -1    0    0    0    0  0.00000000000E+00  0.00000000000E+00  0.30000000000E+02  0.30000000000E+02  0.00000000000E+00 0.  1.
        -11   -1    0    0    0    0 -0.00000000000E+00 -0.00000000000E+00 -0.30000000000E+02  0.30000000000E+02  0.00000000000E+00 0. -1.
         23    2    1    2    0    0  0.00000000000E+00  0.00000000000E+00  0.00000000000E+00  0.60000000000E+02  0.60000000000E+02 0.  0.
          5    1    3    3  501    0 -0.14230382228E+02  0.23171642645E+02 -0.11767803482E+02  0.30000000000E+02  0.47000000000E+01 0. -1.
         -5    1    3    3    0  501  0.14230382228E+02 -0.23171642645E+02  0.11767803482E+02  0.30000000000E+02  0.47000000000E+01 0.  1.
</event>
<event>
 5    1  0.7702600E-002  0.6000000E+02  0.7546771E-02  0.1259629E+00
         11   -1    0    0    0    0  0.00000000000E+00  0.00000000000E+00  0.30000000000E+02  0.30000000000E+02  0.00000000000E+00 0.  1.
        -11   -1    0    0    0    0 -0.00000000000E+00 -0.00000000000E+00 -0.30000000000E+02  0.30000000000E+02  0.00000000000E+00 0. -1.
         23    2    1    2    0    0  0.00000000000E+00  0.00000000000E+00  0.00000000000E+00  0.60000000000E+02  0.60000000000E+02 0.  0.
          5    1    3    3  501    0  0.21745871795E+02  0.11978818214E+02 -0.16172042978E+02  0.30000000000E+02  0.47000000000E+01 0. -1.
         -5    1    3    3    0  501 -0.21745871795E+02 -0.11978818214E+02  0.16172042978E+02  0.30000000000E+02  0.47000000000E+01 0.  1.
</event>
<event>
 5    1  0.7702600E-002  0.6000000E+02  0.7546771E-02  0.1259629E+00
         11   -1    0    0    0    0  0.00000000000E+00  0.00000000000E+00  0.30000000000E+02  0.30000000000E+02  0.00000000000E+00 0. -1.
        -11   -1    0    0    0    0 -0.00000000000E+00 -0.00000000000E+00 -0.30000000000E+02  0.30000000000E+02  0.00000000000E+00 0.  1.
         23    2    1    2    0    0  0.00000000000E+00  0.00000000000E+00  0.00000000000E+00  0.60000000000E+02  0.60000000000E+02 0.  0.
          5    1    3    3  501    0  0.14579138942E+02  0.76440093880E+00 -0.25783219328E+02  0.30000000000E+02  0.47000000000E+01 0.  1.
         -5    1    3    3    0  501 -0.14579138942E+02 -0.76440093880E+00  0.25783219328E+02  0.30000000000E+02  0.47000000000E+01 0. -1.
</event>
<event>
 5    1  0.7702600E-002  0.6000000E+02  0.7546771E-02  0.1259629E+00
         11   -1    0    0    0    0  0.00000000000E+00  0.00000000000E+00  0.30000000000E+02  0.30000000000E+02  0.00000000000E+00 0. -1.
        -11   -1    0    0    0    0 -0.00000000000E+00 -0.00000000000E+00 -0.30000000000E+02  0.30000000000E+02  0.00000000000E+00 0.  1.
         23    2    1    2    0    0  0.00000000000E+00  0.00000000000E+00  0.00000000000E+00  0.60000000000E+02  0.60000000000E+02 0.  0.
          5    1    3    3  501    0  0.31909273046E+01  0.25136707978E+02 -0.15358186578E+02  0.30000000000E+02  0.47000000000E+01 0.  1.
         -5    1    3    3    0  501 -0.31909273046E+01 -0.25136707978E+02  0.15358186578E+02  0.30000000000E+02  0.47000000000E+01 0. -1.
</event>
<event>
 5    1  0.7702600E-002  0.6000000E+02  0.7546771E-02  0.1259629E+00
         11   -1    0    0    0    0  0.00000000000E+00  0.00000000000E+00  0.30000000000E+02  0.30000000000E+02  0.00000000000E+00 0. -1.
        -11   -1    0    0    0    0 -0.00000000000E+00 -0.00000000000E+00 -0.30000000000E+02  0.30000000000E+02  0.00000000000E+00 0.  1.
         23    2    1    2    0    0  0.00000000000E+00  0.00000000000E+00  0.00000000000E+00  0.60000000000E+02  0.60000000000E+02 0.  0.
          5    1    3    3  501    0 -0.12569470781E+02  0.89449726683E+01 -0.25296360771E+02  0.30000000000E+02  0.47000000000E+01 0.  1.
         -5    1    3    3    0  501  0.12569470781E+02 -0.89449726683E+01  0.25296360771E+02  0.30000000000E+02  0.47000000000E+01 0. -1.
</event>
<event>
 5    1  0.7702600E-002  0.6000000E+02  0.7546771E-02  0.1259629E+00
         11   -1    0    0    0    0  0.00000000000E+00  0.00000000000E+00  0.30000000000E+02  0.30000000000E+02  0.00000000000E+00 0.  1.
        -11   -1    0    0    0    0 -0.00000000000E+00 -0.00000000000E+00 -0.30000000000E+02  0.30000000000E+02  0.00000000000E+00 0. -1.
         23    2    1    2    0    0  0.00000000000E+00  0.00000000000E+00  0.00000000000E+00  0.60000000000E+02  0.60000000000E+02 0.  0.
          5    1    3    3  501    0  0.16457184208E+02 -0.84157845103E+01 -0.23156978625E+02  0.30000000000E+02  0.47000000000E+01 0. -1.
         -5    1    3    3    0  501 -0.16457184208E+02  0.84157845103E+01  0.23156978625E+02  0.30000000000E+02  0.47000000000E+01 0.  1.
</event>
<event>
 5    1  0.7702600E-002  0.6000000E+02  0.7546771E-02  0.1259629E+00
         11   -1    0    0    0    0  0.00000000000E+00  0.00000000000E+00  0.30000000000E+02  0.30000000000E+02  0.00000000000E+00 0.  1.
        -11   -1    0    0    0    0 -0.00000000000E+00 -0.00000000000E+00 -0.30000000000E+02  0.30000000000E+02  0.00000000000E+00 0. -1.
         23    2    1    2    0    0  0.00000000000E+00  0.00000000000E+00  0.00000000000E+00  0.60000000000E+02  0.60000000000E+02 0.  0.
          5    1    3    3  501    0 -0.27936229946E+02 -0.62116519019E+00 -0.98534872097E+01  0.30000000000E+02  0.47000000000E+01 0. -1.
         -5    1    3    3    0  501  0.27936229946E+02  0.62116519019E+00  0.98534872097E+01  0.30000000000E+02  0.47000000000E+01 0.  1.
</event>
<event>
 5    1  0.7702600E-002  0.6000000E+02  0.7546771E-02  0.1259629E+00
         11   -1    0    0    0    0  0.00000000000E+00  0.00000000000E+00  0.30000000000E+02  0.30000000000E+02  0.00000000000E+00 0.  1.
        -11   -1    0    0    0    0 -0.00000000000E+00 -0.00000000000E+00 -0.30000000000E+02  0.30000000000E+02  0.00000000000E+00 0. -1.
         23    2    1    2    0    0  0.00000000000E+00  0.00000000000E+00  0.00000000000E+00  0.60000000000E+02  0.60000000000E+02 0.  0.
          5    1    3    3  501    0 -0.73029155537E+00  0.29590158263E+02 -0.13413456755E+01  0.30000000000E+02  0.47000000000E+01 0. -1.
         -5    1    3    3    0  501  0.73029155537E+00 -0.29590158263E+02  0.13413456755E+01  0.30000000000E+02  0.47000000000E+01 0.  1.
</event>
<event>
 5    1  0.7702600E-002  0.6000000E+02  0.7546771E-02  0.1259629E+00
         11   -1    0    0    0    0  0.00000000000E+00  0.00000000000E+00  0.30000000000E+02  0.30000000000E+02  0.00000000000E+00 0.  1.
        -11   -1    0    0    0    0 -0.00000000000E+00 -0.00000000000E+00 -0.30000000000E+02  0.30000000000E+02  0.00000000000E+00 0. -1.
         23    2    1    2    0    0  0.00000000000E+00  0.00000000000E+00  0.00000000000E+00  0.60000000000E+02  0.60000000000E+02 0.  0.
          5    1    3    3  501    0 -0.27632250380E+02  0.10389674340E+02 -0.25344439376E+01  0.30000000000E+02  0.47000000000E+01 0. -1.
         -5    1    3    3    0  501  0.27632250380E+02 -0.10389674340E+02  0.25344439376E+01  0.30000000000E+02  0.47000000000E+01 0.  1.
</event>
<event>
 5    1  0.7702600E-002  0.6000000E+02  0.7546771E-02  0.1259629E+00
         11   -1    0    0    0    0  0.00000000000E+00  0.00000000000E+00  0.30000000000E+02  0.30000000000E+02  0.00000000000E+00 0. -1.
        -11   -1    0    0    0    0 -0.00000000000E+00 -0.00000000000E+00 -0.30000000000E+02  0.30000000000E+02  0.00000000000E+00 0.  1.
         23    2    1    2    0    0  0.00000000000E+00  0.00000000000E+00  0.00000000000E+00  0.60000000000E+02  0.60000000000E+02 0.  0.
          5    1    3    3  501    0  0.13375673681E+02 -0.25246174241E+02  0.78506076037E+01  0.30000000000E+02  0.47000000000E+01 0.  1.
         -5    1    3    3    0  501 -0.13375673681E+02  0.25246174241E+02 -0.78506076037E+01  0.30000000000E+02  0.47000000000E+01 0. -1.
</event>
<event>
 5    1  0.7702600E-002  0.6000000E+02  0.7546771E-02  0.1259629E+00
         11   -1    0    0    0    0  0.00000000000E+00  0.00000000000E+00  0.30000000000E+02  0.30000000000E+02  0.00000000000E+00 0.  1.
        -11   -1    0    0    0    0 -0.00000000000E+00 -0.00000000000E+00 -0.30000000000E+02  0.30000000000E+02  0.00000000000E+00 0. -1.
         23    2    1    2    0    0  0.00000000000E+00  0.00000000000E+00  0.00000000000E+00  0.60000000000E+02  0.60000000000E+02 0.  0.
          5    1    3    3  501    0 -0.41902587911E+01 -0.29306829442E+02  0.12089165923E+01  0.30000000000E+02  0.47000000000E+01 0. -1.
         -5    1    3    3    0  501  0.41902587911E+01  0.29306829442E+02 -0.12089165923E+01  0.30000000000E+02  0.47000000000E+01 0.  1.
</event>
<event>
 5    1  0.7702600E-002  0.6000000E+02  0.7546771E-02  0.1259629E+00
         11   -1    0    0    0    0  0.00000000000E+00  0.00000000000E+00  0.30000000000E+02  0.30000000000E+02  0.00000000000E+00 0. -1.
        -11   -1    0    0    0    0 -0.00000000000E+00 -0.00000000000E+00 -0.30000000000E+02  0.30000000000E+02  0.00000000000E+00 0.  1.
         23    2    1    2    0    0  0.00000000000E+00  0.00000000000E+00  0.00000000000E+00  0.60000000000E+02  0.60000000000E+02 0.  0.
          5    1    3    3  501    0  0.20932739066E+02  0.10098790386E+01 -0.20945419059E+02  0.30000000000E+02  0.47000000000E+01 0.  1.
         -5    1    3    3    0  501 -0.20932739066E+02 -0.10098790386E+01  0.20945419059E+02  0.30000000000E+02  0.47000000000E+01 0. -1.
</event>
<event>
 5    1  0.7702600E-002  0.6000000E+02  0.7546771E-02  0.1259629E+00
         11   -1    0    0    0    0  0.00000000000E+00  0.00000000000E+00  0.30000000000E+02  0.30000000000E+02  0.00000000000E+00 0.  1.
        -11   -1    0    0    0    0 -0.00000000000E+00 -0.00000000000E+00 -0.30000000000E+02  0.30000000000E+02  0.00000000000E+00 0. -1.
         23    2    1    2    0    0  0.00000000000E+00  0.00000000000E+00  0.00000000000E+00  0.60000000000E+02  0.60000000000E+02 0.  0.
          5    1    3    3  501    0  0.25818396358E+02 -0.11296857096E+02  0.91488485196E+01  0.30000000000E+02  0.47000000000E+01 0. -1.
         -5    1    3    3    0  501 -0.25818396358E+02  0.11296857096E+02 -0.91488485196E+01  0.30000000000E+02  0.47000000000E+01 0.  1.
</event>
<event>
 5    1  0.7702600E-002  0.6000000E+02  0.7546771E-02  0.1259629E+00
         11   -1    0    0    0    0  0.00000000000E+00  0.00000000000E+00  0.30000000000E+02  0.30000000000E+02  0.00000000000E+00 0. -1.
        -11   -1    0    0    0    0 -0.00000000000E+00 -0.00000000000E+00 -0.30000000000E+02  0.30000000000E+02  0.00000000000E+00 0.  1.
         23    2    1    2    0    0  0.00000000000E+00  0.00000000000E+00  0.00000000000E+00  0.60000000000E+02  0.60000000000E+02 0.  0.
          5    1    3    3  501    0  0.28962158508E+02 -0.34040800722E+01  0.52455327128E+01  0.30000000000E+02  0.47000000000E+01 0. -1.
         -5    1    3    3    0  501 -0.28962158508E+02  0.34040800722E+01 -0.52455327128E+01  0.30000000000E+02  0.47000000000E+01 0.  1.
</event>
<event>
 5    1  0.7702600E-002  0.6000000E+02  0.7546771E-02  0.1259629E+00
         11   -1    0    0    0    0  0.00000000000E+00  0.00000000000E+00  0.30000000000E+02  0.30000000000E+02  0.00000000000E+00 0. -1.
        -11   -1    0    0    0    0 -0.00000000000E+00 -0.00000000000E+00 -0.30000000000E+02  0.30000000000E+02  0.00000000000E+00 0.  1.
         23    2    1    2    0    0  0.00000000000E+00  0.00000000000E+00  0.00000000000E+00  0.60000000000E+02  0.60000000000E+02 0.  0.
          5    1    3    3  501    0  0.13733191972E+01  0.23189642791E+02 -0.18391967311E+02  0.30000000000E+02  0.47000000000E+01 0.  1.
         -5    1    3    3    0  501 -0.13733191972E+01 -0.23189642791E+02  0.18391967311E+02  0.30000000000E+02  0.47000000000E+01 0. -1.
</event>
<event>
 5    1  0.7702600E-002  0.6000000E+02  0.7546771E-02  0.1259629E+00
         11   -1    0    0    0    0  0.00000000000E+00  0.00000000000E+00  0.30000000000E+02  0.30000000000E+02  0.00000000000E+00 0.  1.
        -11   -1    0    0    0    0 -0.00000000000E+00 -0.00000000000E+00 -0.30000000000E+02  0.30000000000E+02  0.00000000000E+00 0. -1.
         23    2    1    2    0    0  0.00000000000E+00  0.00000000000E+00  0.00000000000E+00  0.60000000000E+02  0.60000000000E+02 0.  0.
          5    1    3    3  501    0 -0.24013466405E+02 -0.17253785454E+02 -0.18895287016E+01  0.30000000000E+02  0.47000000000E+01 0.  1.
         -5    1    3    3    0  501  0.24013466405E+02  0.17253785454E+02  0.18895287016E+01  0.30000000000E+02  0.47000000000E+01 0. -1.
</event>
<event>
 5    1  0.7702600E-002  0.6000000E+02  0.7546771E-02  0.1259629E+00
         11   -1    0    0    0    0  0.00000000000E+00  0.00000000000E+00  0.30000000000E+02  0.30000000000E+02  0.00000000000E+00 0.  1.
        -11   -1    0    0    0    0 -0.00000000000E+00 -0.00000000000E+00 -0.30000000000E+02  0.30000000000E+02  0.00000000000E+00 0. -1.
         23    2    1    2    0    0  0.00000000000E+00  0.00000000000E+00  0.00000000000E+00  0.60000000000E+02  0.60000000000E+02 0.  0.
          5    1    3    3  501    0 -0.18262057668E+02 -0.33912774040E+01 -0.23084767430E+02  0.30000000000E+02  0.47000000000E+01 0. -1.
         -5    1    3    3    0  501  0.18262057668E+02  0.33912774040E+01  0.23084767430E+02  0.30000000000E+02  0.47000000000E+01 0.  1.
</event>
<event>
 5    1  0.7702600E-002  0.6000000E+02  0.7546771E-02  0.1259629E+00
         11   -1    0    0    0    0  0.00000000000E+00  0.00000000000E+00  0.30000000000E+02  0.30000000000E+02  0.00000000000E+00 0.  1.
        -11   -1    0    0    0    0 -0.00000000000E+00 -0.00000000000E+00 -0.30000000000E+02  0.30000000000E+02  0.00000000000E+00 0. -1.
         23    2    1    2    0    0  0.00000000000E+00  0.00000000000E+00  0.00000000000E+00  0.60000000000E+02  0.60000000000E+02 0.  0.
          5    1    3    3  501    0 -0.18464378175E+02 -0.17598198823E+02  0.15075812973E+02  0.30000000000E+02  0.47000000000E+01 0. -1.
         -5    1    3    3    0  501  0.18464378175E+02  0.17598198823E+02 -0.15075812973E+02  0.30000000000E+02  0.47000000000E+01 0.  1.
</event>
<event>
 5    1  0.7702600E-002  0.6000000E+02  0.7546771E-02  0.1259629E+00
         11   -1    0    0    0    0  0.00000000000E+00  0.00000000000E+00  0.30000000000E+02  0.30000000000E+02  0.00000000000E+00 0.  1.
        -11   -1    0    0    0    0 -0.00000000000E+00 -0.00000000000E+00 -0.30000000000E+02  0.30000000000E+02  0.00000000000E+00 0. -1.
         23    2    1    2    0    0  0.00000000000E+00  0.00000000000E+00  0.00000000000E+00  0.60000000000E+02  0.60000000000E+02 0.  0.
          5    1    3    3  501    0  0.22532531425E+02 -0.43954891924E+01 -0.18731649750E+02  0.30000000000E+02  0.47000000000E+01 0. -1.
         -5    1    3    3    0  501 -0.22532531425E+02  0.43954891924E+01  0.18731649750E+02  0.30000000000E+02  0.47000000000E+01 0.  1.
</event>
<event>
 5    1  0.7702600E-002  0.6000000E+02  0.7546771E-02  0.1259629E+00
         11   -1    0    0    0    0  0.00000000000E+00  0.00000000000E+00  0.30000000000E+02  0.30000000000E+02  0.00000000000E+00 0.  1.
        -11   -1    0    0    0    0 -0.00000000000E+00 -0.00000000000E+00 -0.30000000000E+02  0.30000000000E+02  0.00000000000E+00 0. -1.
         23    2    1    2    0    0  0.00000000000E+00  0.00000000000E+00  0.00000000000E+00  0.60000000000E+02  0.60000000000E+02 0.  0.
          5    1    3    3  501    0 -0.14582298648E+02 -0.44484211078E+01 -0.25406261350E+02  0.30000000000E+02  0.47000000000E+01 0. -1.
         -5    1    3    3    0  501  0.14582298648E+02  0.44484211078E+01  0.25406261350E+02  0.30000000000E+02  0.47000000000E+01 0.  1.
</event>
<event>
 5    1  0.7702600E-002  0.6000000E+02  0.7546771E-02  0.1259629E+00
         11   -1    0    0    0    0  0.00000000000E+00  0.00000000000E+00  0.30000000000E+02  0.30000000000E+02  0.00000000000E+00 0.  1.
        -11   -1    0    0    0    0 -0.00000000000E+00 -0.00000000000E+00 -0.30000000000E+02  0.30000000000E+02  0.00000000000E+00 0. -1.
         23    2    1    2    0    0  0.00000000000E+00  0.00000000000E+00  0.00000000000E+00  0.60000000000E+02  0.60000000000E+02 0.  0.
          5    1    3    3  501    0  0.25821553975E+02  0.74189069676E+00 -0.14512303350E+02  0.30000000000E+02  0.47000000000E+01 0. -1.
         -5    1    3    3    0  501 -0.25821553975E+02 -0.74189069676E+00  0.14512303350E+02  0.30000000000E+02  0.47000000000E+01 0.  1.
</event>
<event>
 5    1  0.7702600E-002  0.6000000E+02  0.7546771E-02  0.1259629E+00
         11   -1    0    0    0    0  0.00000000000E+00  0.00000000000E+00  0.30000000000E+02  0.30000000000E+02  0.00000000000E+00 0.  1.
        -11   -1    0    0    0    0 -0.00000000000E+00 -0.00000000000E+00 -0.30000000000E+02  0.30000000000E+02  0.00000000000E+00 0. -1.
         23    2    1    2    0    0  0.00000000000E+00  0.00000000000E+00  0.00000000000E+00  0.60000000000E+02  0.60000000000E+02 0.  0.
          5    1    3    3  501    0 -0.96763080906E+01 -0.26360712738E+02  0.94547282174E+01  0.30000000000E+02  0.47000000000E+01 0. -1.
         -5    1    3    3    0  501  0.96763080906E+01  0.26360712738E+02 -0.94547282174E+01  0.30000000000E+02  0.47000000000E+01 0.  1.
</event>
<event>
 5    1  0.7702600E-002  0.6000000E+02  0.7546771E-02  0.1259629E+00
         11   -1    0    0    0    0  0.00000000000E+00  0.00000000000E+00  0.30000000000E+02  0.30000000000E+02  0.00000000000E+00 0. -1.
        -11   -1    0    0    0    0 -0.00000000000E+00 -0.00000000000E+00 -0.30000000000E+02  0.30000000000E+02  0.00000000000E+00 0.  1.
         23    2    1    2    0    0  0.00000000000E+00  0.00000000000E+00  0.00000000000E+00  0.60000000000E+02  0.60000000000E+02 0.  0.
          5    1    3    3  501    0  0.13227426376E+02 -0.14788513377E+01 -0.26471837680E+02  0.30000000000E+02  0.47000000000E+01 0.  1.
         -5    1    3    3    0  501 -0.13227426376E+02  0.14788513377E+01  0.26471837680E+02  0.30000000000E+02  0.47000000000E+01 0. -1.
</event>
<event>
 5    1  0.7702600E-002  0.6000000E+02  0.7546771E-02  0.1259629E+00
         11   -1    0    0    0    0  0.00000000000E+00  0.00000000000E+00  0.30000000000E+02  0.30000000000E+02  0.00000000000E+00 0.  1.
        -11   -1    0    0    0    0 -0.00000000000E+00 -0.00000000000E+00 -0.30000000000E+02  0.30000000000E+02  0.00000000000E+00 0. -1.
         23    2    1    2    0    0  0.00000000000E+00  0.00000000000E+00  0.00000000000E+00  0.60000000000E+02  0.60000000000E+02 0.  0.
          5    1    3    3  501    0 -0.14090525597E+01 -0.28627383209E+02 -0.75098269962E+01  0.30000000000E+02  0.47000000000E+01 0. -1.
         -5    1    3    3    0  501  0.14090525597E+01  0.28627383209E+02  0.75098269962E+01  0.30000000000E+02  0.47000000000E+01 0.  1.
</event>
<event>
 5    1  0.7702600E-002  0.6000000E+02  0.7546771E-02  0.1259629E+00
         11   -1    0    0    0    0  0.00000000000E+00  0.00000000000E+00  0.30000000000E+02  0.30000000000E+02  0.00000000000E+00 0. -1.
        -11   -1    0    0    0    0 -0.00000000000E+00 -0.00000000000E+00 -0.30000000000E+02  0.30000000000E+02  0.00000000000E+00 0.  1.
         23    2    1    2    0    0  0.00000000000E+00  0.00000000000E+00  0.00000000000E+00  0.60000000000E+02  0.60000000000E+02 0.  0.
          5    1    3    3  501    0  0.91257646765E+01 -0.17468369747E+02 -0.22124341288E+02  0.30000000000E+02  0.47000000000E+01 0.  1.
         -5    1    3    3    0  501 -0.91257646765E+01  0.17468369747E+02  0.22124341288E+02  0.30000000000E+02  0.47000000000E+01 0. -1.
</event>
<event>
 5    1  0.7702600E-002  0.6000000E+02  0.7546771E-02  0.1259629E+00
         11   -1    0    0    0    0  0.00000000000E+00  0.00000000000E+00  0.30000000000E+02  0.30000000000E+02  0.00000000000E+00 0.  1.
        -11   -1    0    0    0    0 -0.00000000000E+00 -0.00000000000E+00 -0.30000000000E+02  0.30000000000E+02  0.00000000000E+00 0. -1.
         23    2    1    2    0    0  0.00000000000E+00  0.00000000000E+00  0.00000000000E+00  0.60000000000E+02  0.60000000000E+02 0.  0.
          5    1    3    3  501    0 -0.22644904349E+02 -0.84367256752E+01 -0.17144677509E+02  0.30000000000E+02  0.47000000000E+01 0. -1.
         -5    1    3    3    0  501  0.22644904349E+02  0.84367256752E+01  0.17144677509E+02  0.30000000000E+02  0.47000000000E+01 0.  1.
</event>
<event>
 5    1  0.7702600E-002  0.6000000E+02  0.7546771E-02  0.1259629E+00
         11   -1    0    0    0    0  0.00000000000E+00  0.00000000000E+00  0.30000000000E+02  0.30000000000E+02  0.00000000000E+00 0.  1.
        -11   -1    0    0    0    0 -0.00000000000E+00 -0.00000000000E+00 -0.30000000000E+02  0.30000000000E+02  0.00000000000E+00 0. -1.
         23    2    1    2    0    0  0.00000000000E+00  0.00000000000E+00  0.00000000000E+00  0.60000000000E+02  0.60000000000E+02 0.  0.
          5    1    3    3  501    0 -0.14860540286E+02  0.22597407321E+02 -0.12100889420E+02  0.30000000000E+02  0.47000000000E+01 0. -1.
         -5    1    3    3    0  501  0.14860540286E+02 -0.22597407321E+02  0.12100889420E+02  0.30000000000E+02  0.47000000000E+01 0.  1.
</event>
<event>
 5    1  0.7702600E-002  0.6000000E+02  0.7546771E-02  0.1259629E+00
         11   -1    0    0    0    0  0.00000000000E+00  0.00000000000E+00  0.30000000000E+02  0.30000000000E+02  0.00000000000E+00 0.  1.
        -11   -1    0    0    0    0 -0.00000000000E+00 -0.00000000000E+00 -0.30000000000E+02  0.30000000000E+02  0.00000000000E+00 0. -1.
         23    2    1    2    0    0  0.00000000000E+00  0.00000000000E+00  0.00000000000E+00  0.60000000000E+02  0.60000000000E+02 0.  0.
          5    1    3    3  501    0 -0.30403650243E+01 -0.56356789112E+01 -0.28929315646E+02  0.30000000000E+02  0.47000000000E+01 0. -1.
         -5    1    3    3    0  501  0.30403650243E+01  0.56356789112E+01  0.28929315646E+02  0.30000000000E+02  0.47000000000E+01 0.  1.
</event>
<event>
 5    1  0.7702600E-002  0.6000000E+02  0.7546771E-02  0.1259629E+00
         11   -1    0    0    0    0  0.00000000000E+00  0.00000000000E+00  0.30000000000E+02  0.30000000000E+02  0.00000000000E+00 0.  1.
        -11   -1    0    0    0    0 -0.00000000000E+00 -0.00000000000E+00 -0.30000000000E+02  0.30000000000E+02  0.00000000000E+00 0. -1.
         23    2    1    2    0    0  0.00000000000E+00  0.00000000000E+00  0.00000000000E+00  0.60000000000E+02  0.60000000000E+02 0.  0.
          5    1    3    3  501    0  0.28700303288E+01  0.46523008606E+01 -0.29120937873E+02  0.30000000000E+02  0.47000000000E+01 0. -1.
         -5    1    3    3    0  501 -0.28700303288E+01 -0.46523008606E+01  0.29120937873E+02  0.30000000000E+02  0.47000000000E+01 0.  1.
</event>
<event>
 5    1  0.7702600E-002  0.6000000E+02  0.7546771E-02  0.1259629E+00
         11   -1    0    0    0    0  0.00000000000E+00  0.00000000000E+00  0.30000000000E+02  0.30000000000E+02  0.00000000000E+00 0.  1.
        -11   -1    0    0    0    0 -0.00000000000E+00 -0.00000000000E+00 -0.30000000000E+02  0.30000000000E+02  0.00000000000E+00 0. -1.
         23    2    1    2    0    0  0.00000000000E+00  0.00000000000E+00  0.00000000000E+00  0.60000000000E+02  0.60000000000E+02 0.  0.
          5    1    3    3  501    0 -0.57151410620E+00  0.29010732863E+02 -0.59967283077E+01  0.30000000000E+02  0.47000000000E+01 0.  1.
         -5    1    3    3    0  501  0.57151410620E+00 -0.29010732863E+02  0.59967283077E+01  0.30000000000E+02  0.47000000000E+01 0.  1.
</event>
<event>
 5    1  0.7702600E-002  0.6000000E+02  0.7546771E-02  0.1259629E+00
         11   -1    0    0    0    0  0.00000000000E+00  0.00000000000E+00  0.30000000000E+02  0.30000000000E+02  0.00000000000E+00 0.  1.
        -11   -1    0    0    0    0 -0.00000000000E+00 -0.00000000000E+00 -0.30000000000E+02  0.30000000000E+02  0.00000000000E+00 0. -1.
         23    2    1    2    0    0  0.00000000000E+00  0.00000000000E+00  0.00000000000E+00  0.60000000000E+02  0.60000000000E+02 0.  0.
          5    1    3    3  501    0 -0.33664714094E+01  0.18443697922E+02 -0.22943558512E+02  0.30000000000E+02  0.47000000000E+01 0. -1.
         -5    1    3    3    0  501  0.33664714094E+01 -0.18443697922E+02  0.22943558512E+02  0.30000000000E+02  0.47000000000E+01 0.  1.
</event>
<event>
 5    1  0.7702600E-002  0.6000000E+02  0.7546771E-02  0.1259629E+00
         11   -1    0    0    0    0  0.00000000000E+00  0.00000000000E+00  0.30000000000E+02  0.30000000000E+02  0.00000000000E+00 0.  1.
        -11   -1    0    0    0    0 -0.00000000000E+00 -0.00000000000E+00 -0.30000000000E+02  0.30000000000E+02  0.00000000000E+00 0. -1.
         23    2    1    2    0    0  0.00000000000E+00  0.00000000000E+00  0.00000000000E+00  0.60000000000E+02  0.60000000000E+02 0.  0.
          5    1    3    3  501    0 -0.12637164586E+02  0.16406251437E+02 -0.21190728751E+02  0.30000000000E+02  0.47000000000E+01 0. -1.
         -5    1    3    3    0  501  0.12637164586E+02 -0.16406251437E+02  0.21190728751E+02  0.30000000000E+02  0.47000000000E+01 0.  1.
</event>
<event>
 5    1  0.7702600E-002  0.6000000E+02  0.7546771E-02  0.1259629E+00
         11   -1    0    0    0    0  0.00000000000E+00  0.00000000000E+00  0.30000000000E+02  0.30000000000E+02  0.00000000000E+00 0. -1.
        -11   -1    0    0    0    0 -0.00000000000E+00 -0.00000000000E+00 -0.30000000000E+02  0.30000000000E+02  0.00000000000E+00 0.  1.
         23    2    1    2    0    0  0.00000000000E+00  0.00000000000E+00  0.00000000000E+00  0.60000000000E+02  0.60000000000E+02 0.  0.
          5    1    3    3  501    0 -0.23785196148E+02  0.13108587132E+02 -0.11846492629E+02  0.30000000000E+02  0.47000000000E+01 0.  1.
         -5    1    3    3    0  501  0.23785196148E+02 -0.13108587132E+02  0.11846492629E+02  0.30000000000E+02  0.47000000000E+01 0. -1.
</event>
<event>
 5    1  0.7702600E-002  0.6000000E+02  0.7546771E-02  0.1259629E+00
         11   -1    0    0    0    0  0.00000000000E+00  0.00000000000E+00  0.30000000000E+02  0.30000000000E+02  0.00000000000E+00 0.  1.
        -11   -1    0    0    0    0 -0.00000000000E+00 -0.00000000000E+00 -0.30000000000E+02  0.30000000000E+02  0.00000000000E+00 0. -1.
         23    2    1    2    0    0  0.00000000000E+00  0.00000000000E+00  0.00000000000E+00  0.60000000000E+02  0.60000000000E+02 0.  0.
          5    1    3    3  501    0  0.23593826057E+02  0.76593130584E+01 -0.16204206104E+02  0.30000000000E+02  0.47000000000E+01 0.  1.
         -5    1    3    3    0  501 -0.23593826057E+02 -0.76593130584E+01  0.16204206104E+02  0.30000000000E+02  0.47000000000E+01 0. -1.
</event>
<event>
 5    1  0.7702600E-002  0.6000000E+02  0.7546771E-02  0.1259629E+00
         11   -1    0    0    0    0  0.00000000000E+00  0.00000000000E+00  0.30000000000E+02  0.30000000000E+02  0.00000000000E+00 0.  1.
        -11   -1    0    0    0    0 -0.00000000000E+00 -0.00000000000E+00 -0.30000000000E+02  0.30000000000E+02  0.00000000000E+00 0. -1.
         23    2    1    2    0    0  0.00000000000E+00  0.00000000000E+00  0.00000000000E+00  0.60000000000E+02  0.60000000000E+02 0.  0.
          5    1    3    3  501    0  0.25823067814E+02  0.63951612532E+00 -0.14514482002E+02  0.30000000000E+02  0.47000000000E+01 0. -1.
         -5    1    3    3    0  501 -0.25823067814E+02 -0.63951612532E+00  0.14514482002E+02  0.30000000000E+02  0.47000000000E+01 0.  1.
</event>
<event>
 5    1  0.7702600E-002  0.6000000E+02  0.7546771E-02  0.1259629E+00
         11   -1    0    0    0    0  0.00000000000E+00  0.00000000000E+00  0.30000000000E+02  0.30000000000E+02  0.00000000000E+00 0.  1.
        -11   -1    0    0    0    0 -0.00000000000E+00 -0.00000000000E+00 -0.30000000000E+02  0.30000000000E+02  0.00000000000E+00 0. -1.
         23    2    1    2    0    0  0.00000000000E+00  0.00000000000E+00  0.00000000000E+00  0.60000000000E+02  0.60000000000E+02 0.  0.
          5    1    3    3  501    0 -0.28864825682E+02  0.82926008143E-01  0.66876723606E+01  0.30000000000E+02  0.47000000000E+01 0.  1.
         -5    1    3    3    0  501  0.28864825682E+02 -0.82926008143E-01 -0.66876723606E+01  0.30000000000E+02  0.47000000000E+01 0. -1.
</event>
<event>
 5    1  0.7702600E-002  0.6000000E+02  0.7546771E-02  0.1259629E+00
         11   -1    0    0    0    0  0.00000000000E+00  0.00000000000E+00  0.30000000000E+02  0.30000000000E+02  0.00000000000E+00 0.  1.
        -11   -1    0    0    0    0 -0.00000000000E+00 -0.00000000000E+00 -0.30000000000E+02  0.30000000000E+02  0.00000000000E+00 0. -1.
         23    2    1    2    0    0  0.00000000000E+00  0.00000000000E+00  0.00000000000E+00  0.60000000000E+02  0.60000000000E+02 0.  0.
          5    1    3    3  501    0 -0.16137641729E+02  0.22792180792E+02 -0.98996471744E+01  0.30000000000E+02  0.47000000000E+01 0. -1.
         -5    1    3    3    0  501  0.16137641729E+02 -0.22792180792E+02  0.98996471744E+01  0.30000000000E+02  0.47000000000E+01 0.  1.
</event>
<event>
 5    1  0.7702600E-002  0.6000000E+02  0.7546771E-02  0.1259629E+00
         11   -1    0    0    0    0  0.00000000000E+00  0.00000000000E+00  0.30000000000E+02  0.30000000000E+02  0.00000000000E+00 0.  1.
        -11   -1    0    0    0    0 -0.00000000000E+00 -0.00000000000E+00 -0.30000000000E+02  0.30000000000E+02  0.00000000000E+00 0. -1.
         23    2    1    2    0    0  0.00000000000E+00  0.00000000000E+00  0.00000000000E+00  0.60000000000E+02  0.60000000000E+02 0.  0.
          5    1    3    3  501    0  0.28589878656E+02 -0.54141978630E+01  0.55870654143E+01  0.30000000000E+02  0.47000000000E+01 0. -1.
         -5    1    3    3    0  501 -0.28589878656E+02  0.54141978630E+01 -0.55870654143E+01  0.30000000000E+02  0.47000000000E+01 0.  1.
</event>
<event>
 5    1  0.7702600E-002  0.6000000E+02  0.7546771E-02  0.1259629E+00
         11   -1    0    0    0    0  0.00000000000E+00  0.00000000000E+00  0.30000000000E+02  0.30000000000E+02  0.00000000000E+00 0. -1.
        -11   -1    0    0    0    0 -0.00000000000E+00 -0.00000000000E+00 -0.30000000000E+02  0.30000000000E+02  0.00000000000E+00 0.  1.
         23    2    1    2    0    0  0.00000000000E+00  0.00000000000E+00  0.00000000000E+00  0.60000000000E+02  0.60000000000E+02 0.  0.
          5    1    3    3  501    0 -0.15315549639E+02 -0.15951233003E+02 -0.19720601029E+02  0.30000000000E+02  0.47000000000E+01 0.  1.
         -5    1    3    3    0  501  0.15315549639E+02  0.15951233003E+02  0.19720601029E+02  0.30000000000E+02  0.47000000000E+01 0. -1.
</event>
<event>
 5    1  0.7702600E-002  0.6000000E+02  0.7546771E-02  0.1259629E+00
         11   -1    0    0    0    0  0.00000000000E+00  0.00000000000E+00  0.30000000000E+02  0.30000000000E+02  0.00000000000E+00 0.  1.
        -11   -1    0    0    0    0 -0.00000000000E+00 -0.00000000000E+00 -0.30000000000E+02  0.30000000000E+02  0.00000000000E+00 0. -1.
         23    2    1    2    0    0  0.00000000000E+00  0.00000000000E+00  0.00000000000E+00  0.60000000000E+02  0.60000000000E+02 0.  0.
          5    1    3    3  501    0  0.12874539001E+02  0.12323076213E+02 -0.23670615500E+02  0.30000000000E+02  0.47000000000E+01 0. -1.
         -5    1    3    3    0  501 -0.12874539001E+02 -0.12323076213E+02  0.23670615500E+02  0.30000000000E+02  0.47000000000E+01 0.  1.
</event>
<event>
 5    1  0.7702600E-002  0.6000000E+02  0.7546771E-02  0.1259629E+00
         11   -1    0    0    0    0  0.00000000000E+00  0.00000000000E+00  0.30000000000E+02  0.30000000000E+02  0.00000000000E+00 0.  1.
        -11   -1    0    0    0    0 -0.00000000000E+00 -0.00000000000E+00 -0.30000000000E+02  0.30000000000E+02  0.00000000000E+00 0. -1.
         23    2    1    2    0    0  0.00000000000E+00  0.00000000000E+00  0.00000000000E+00  0.60000000000E+02  0.60000000000E+02 0.  0.
          5    1    3    3  501    0  0.15931546327E+02 -0.21929594710E+02 -0.11966148399E+02  0.30000000000E+02  0.47000000000E+01 0. -1.
         -5    1    3    3    0  501 -0.15931546327E+02  0.21929594710E+02  0.11966148399E+02  0.30000000000E+02  0.47000000000E+01 0.  1.
</event>
<event>
 5    1  0.7702600E-002  0.6000000E+02  0.7546771E-02  0.1259629E+00
         11   -1    0    0    0    0  0.00000000000E+00  0.00000000000E+00  0.30000000000E+02  0.30000000000E+02  0.00000000000E+00 0.  1.
        -11   -1    0    0    0    0 -0.00000000000E+00 -0.00000000000E+00 -0.30000000000E+02  0.30000000000E+02  0.00000000000E+00 0. -1.
         23    2    1    2    0    0  0.00000000000E+00  0.00000000000E+00  0.00000000000E+00  0.60000000000E+02  0.60000000000E+02 0.  0.
          5    1    3    3  501    0 -0.17111602823E+02 -0.23142092844E+02 -0.70389336995E+01  0.30000000000E+02  0.47000000000E+01 0. -1.
         -5    1    3    3    0  501  0.17111602823E+02  0.23142092844E+02  0.70389336995E+01  0.30000000000E+02  0.47000000000E+01 0.  1.
</event>
<event>
 5    1  0.7702600E-002  0.6000000E+02  0.7546771E-02  0.1259629E+00
         11   -1    0    0    0    0  0.00000000000E+00  0.00000000000E+00  0.30000000000E+02  0.30000000000E+02  0.00000000000E+00 0. -1.
        -11   -1    0    0    0    0 -0.00000000000E+00 -0.00000000000E+00 -0.30000000000E+02  0.30000000000E+02  0.00000000000E+00 0.  1.
         23    2    1    2    0    0  0.00000000000E+00  0.00000000000E+00  0.00000000000E+00  0.60000000000E+02  0.60000000000E+02 0.  0.
          5    1    3    3  501    0  0.87724346579E+01 -0.92465199744E+01  0.26748014105E+02  0.30000000000E+02  0.47000000000E+01 0. -1.
         -5    1    3    3    0  501 -0.87724346579E+01  0.92465199744E+01 -0.26748014105E+02  0.30000000000E+02  0.47000000000E+01 0.  1.
</event>
<event>
 5    1  0.7702600E-002  0.6000000E+02  0.7546771E-02  0.1259629E+00
         11   -1    0    0    0    0  0.00000000000E+00  0.00000000000E+00  0.30000000000E+02  0.30000000000E+02  0.00000000000E+00 0.  1.
        -11   -1    0    0    0    0 -0.00000000000E+00 -0.00000000000E+00 -0.30000000000E+02  0.30000000000E+02  0.00000000000E+00 0. -1.
         23    2    1    2    0    0  0.00000000000E+00  0.00000000000E+00  0.00000000000E+00  0.60000000000E+02  0.60000000000E+02 0.  0.
          5    1    3    3  501    0 -0.13309327252E+01 -0.27411355972E+02 -0.11169430687E+02  0.30000000000E+02  0.47000000000E+01 0. -1.
         -5    1    3    3    0  501  0.13309327252E+01  0.27411355972E+02  0.11169430687E+02  0.30000000000E+02  0.47000000000E+01 0.  1.
</event>
<event>
 5    1  0.7702600E-002  0.6000000E+02  0.7546771E-02  0.1259629E+00
         11   -1    0    0    0    0  0.00000000000E+00  0.00000000000E+00  0.30000000000E+02  0.30000000000E+02  0.00000000000E+00 0. -1.
        -11   -1    0    0    0    0 -0.00000000000E+00 -0.00000000000E+00 -0.30000000000E+02  0.30000000000E+02  0.00000000000E+00 0.  1.
         23    2    1    2    0    0  0.00000000000E+00  0.00000000000E+00  0.00000000000E+00  0.60000000000E+02  0.60000000000E+02 0.  0.
          5    1    3    3  501    0  0.11842737544E+02  0.10427511662E+01 -0.27139864360E+02  0.30000000000E+02  0.47000000000E+01 0.  1.
         -5    1    3    3    0  501 -0.11842737544E+02 -0.10427511662E+01  0.27139864360E+02  0.30000000000E+02  0.47000000000E+01 0. -1.
</event>
<event>
 5    1  0.7702600E-002  0.6000000E+02  0.7546771E-02  0.1259629E+00
         11   -1    0    0    0    0  0.00000000000E+00  0.00000000000E+00  0.30000000000E+02  0.30000000000E+02  0.00000000000E+00 0.  1.
        -11   -1    0    0    0    0 -0.00000000000E+00 -0.00000000000E+00 -0.30000000000E+02  0.30000000000E+02  0.00000000000E+00 0. -1.
         23    2    1    2    0    0  0.00000000000E+00  0.00000000000E+00  0.00000000000E+00  0.60000000000E+02  0.60000000000E+02 0.  0.
          5    1    3    3  501    0 -0.22461706445E+02  0.61705310145E+01 -0.18311370527E+02  0.30000000000E+02  0.47000000000E+01 0. -1.
         -5    1    3    3    0  501  0.22461706445E+02 -0.61705310145E+01  0.18311370527E+02  0.30000000000E+02  0.47000000000E+01 0.  1.
</event>
<event>
 5    1  0.7702600E-002  0.6000000E+02  0.7546771E-02  0.1259629E+00
         11   -1    0    0    0    0  0.00000000000E+00  0.00000000000E+00  0.30000000000E+02  0.30000000000E+02  0.00000000000E+00 0.  1.
        -11   -1    0    0    0    0 -0.00000000000E+00 -0.00000000000E+00 -0.30000000000E+02  0.30000000000E+02  0.00000000000E+00 0. -1.
         23    2    1    2    0    0  0.00000000000E+00  0.00000000000E+00  0.00000000000E+00  0.60000000000E+02  0.60000000000E+02 0.  0.
          5    1    3    3  501    0 -0.10788882124E+02 -0.24913675742E+02 -0.11866709045E+02  0.30000000000E+02  0.47000000000E+01 0. -1.
         -5    1    3    3    0  501  0.10788882124E+02  0.24913675742E+02  0.11866709045E+02  0.30000000000E+02  0.47000000000E+01 0.  1.
</event>
<event>
 5    1  0.7702600E-002  0.6000000E+02  0.7546771E-02  0.1259629E+00
         11   -1    0    0    0    0  0.00000000000E+00  0.00000000000E+00  0.30000000000E+02  0.30000000000E+02  0.00000000000E+00 0.  1.
        -11   -1    0    0    0    0 -0.00000000000E+00 -0.00000000000E+00 -0.30000000000E+02  0.30000000000E+02  0.00000000000E+00 0. -1.
         23    2    1    2    0    0  0.00000000000E+00  0.00000000000E+00  0.00000000000E+00  0.60000000000E+02  0.60000000000E+02 0.  0.
          5    1    3    3  501    0 -0.19754443040E+02  0.21093052304E+02  0.65387402980E+01  0.30000000000E+02  0.47000000000E+01 0. -1.
         -5    1    3    3    0  501  0.19754443040E+02 -0.21093052304E+02 -0.65387402980E+01  0.30000000000E+02  0.47000000000E+01 0.  1.
</event>
<event>
 5    1  0.7702600E-002  0.6000000E+02  0.7546771E-02  0.1259629E+00
         11   -1    0    0    0    0  0.00000000000E+00  0.00000000000E+00  0.30000000000E+02  0.30000000000E+02  0.00000000000E+00 0.  1.
        -11   -1    0    0    0    0 -0.00000000000E+00 -0.00000000000E+00 -0.30000000000E+02  0.30000000000E+02  0.00000000000E+00 0. -1.
         23    2    1    2    0    0  0.00000000000E+00  0.00000000000E+00  0.00000000000E+00  0.60000000000E+02  0.60000000000E+02 0.  0.
          5    1    3    3  501    0 -0.63119416931E+01  0.20920765210E+02  0.20009771990E+02  0.30000000000E+02  0.47000000000E+01 0.  1.
         -5    1    3    3    0  501  0.63119416931E+01 -0.20920765210E+02 -0.20009771990E+02  0.30000000000E+02  0.47000000000E+01 0. -1.
</event>
<event>
 5    1  0.7702600E-002  0.6000000E+02  0.7546771E-02  0.1259629E+00
         11   -1    0    0    0    0  0.00000000000E+00  0.00000000000E+00  0.30000000000E+02  0.30000000000E+02  0.00000000000E+00 0.  1.
        -11   -1    0    0    0    0 -0.00000000000E+00 -0.00000000000E+00 -0.30000000000E+02  0.30000000000E+02  0.00000000000E+00 0. -1.
         23    2    1    2    0    0  0.00000000000E+00  0.00000000000E+00  0.00000000000E+00  0.60000000000E+02  0.60000000000E+02 0.  0.
          5    1    3    3  501    0 -0.22481642721E+02 -0.19084188512E+02  0.28774101901E+01  0.30000000000E+02  0.47000000000E+01 0. -1.
         -5    1    3    3    0  501  0.22481642721E+02  0.19084188512E+02 -0.28774101901E+01  0.30000000000E+02  0.47000000000E+01 0.  1.
</event>
<event>
 5    1  0.7702600E-002  0.6000000E+02  0.7546771E-02  0.1259629E+00
         11   -1    0    0    0    0  0.00000000000E+00  0.00000000000E+00  0.30000000000E+02  0.30000000000E+02  0.00000000000E+00 0. -1.
        -11   -1    0    0    0    0 -0.00000000000E+00 -0.00000000000E+00 -0.30000000000E+02  0.30000000000E+02  0.00000000000E+00 0.  1.
         23    2    1    2    0    0  0.00000000000E+00  0.00000000000E+00  0.00000000000E+00  0.60000000000E+02  0.60000000000E+02 0.  0.
          5    1    3    3  501    0  0.28290833431E+02  0.51257681626E+01  0.71599751755E+01  0.30000000000E+02  0.47000000000E+01 0. -1.
         -5    1    3    3    0  501 -0.28290833431E+02 -0.51257681626E+01 -0.71599751755E+01  0.30000000000E+02  0.47000000000E+01 0.  1.
</event>
<event>
 5    1  0.7702600E-002  0.6000000E+02  0.7546771E-02  0.1259629E+00
         11   -1    0    0    0    0  0.00000000000E+00  0.00000000000E+00  0.30000000000E+02  0.30000000000E+02  0.00000000000E+00 0.  1.
        -11   -1    0    0    0    0 -0.00000000000E+00 -0.00000000000E+00 -0.30000000000E+02  0.30000000000E+02  0.00000000000E+00 0. -1.
         23    2    1    2    0    0  0.00000000000E+00  0.00000000000E+00  0.00000000000E+00  0.60000000000E+02  0.60000000000E+02 0.  0.
          5    1    3    3  501    0  0.31291963072E+01 -0.94988450075E+01 -0.27890680773E+02  0.30000000000E+02  0.47000000000E+01 0. -1.
         -5    1    3    3    0  501 -0.31291963072E+01  0.94988450075E+01  0.27890680773E+02  0.30000000000E+02  0.47000000000E+01 0.  1.
</event>
<event>
 5    1  0.7702600E-002  0.6000000E+02  0.7546771E-02  0.1259629E+00
         11   -1    0    0    0    0  0.00000000000E+00  0.00000000000E+00  0.30000000000E+02  0.30000000000E+02  0.00000000000E+00 0. -1.
        -11   -1    0    0    0    0 -0.00000000000E+00 -0.00000000000E+00 -0.30000000000E+02  0.30000000000E+02  0.00000000000E+00 0.  1.
         23    2    1    2    0    0  0.00000000000E+00  0.00000000000E+00  0.00000000000E+00  0.60000000000E+02  0.60000000000E+02 0.  0.
          5    1    3    3  501    0  0.28963237410E+02  0.47547642296E+01  0.40537755076E+01  0.30000000000E+02  0.47000000000E+01 0.  1.
         -5    1    3    3    0  501 -0.28963237410E+02 -0.47547642296E+01 -0.40537755076E+01  0.30000000000E+02  0.47000000000E+01 0. -1.
</event>
<event>
 5    1  0.7702600E-002  0.6000000E+02  0.7546771E-02  0.1259629E+00
         11   -1    0    0    0    0  0.00000000000E+00  0.00000000000E+00  0.30000000000E+02  0.30000000000E+02  0.00000000000E+00 0.  1.
        -11   -1    0    0    0    0 -0.00000000000E+00 -0.00000000000E+00 -0.30000000000E+02  0.30000000000E+02  0.00000000000E+00 0. -1.
         23    2    1    2    0    0  0.00000000000E+00  0.00000000000E+00  0.00000000000E+00  0.60000000000E+02  0.60000000000E+02 0.  0.
          5    1    3    3  501    0  0.14141608903E+02 -0.94666665632E+00 -0.26019775554E+02  0.30000000000E+02  0.47000000000E+01 0. -1.
         -5    1    3    3    0  501 -0.14141608903E+02  0.94666665632E+00  0.26019775554E+02  0.30000000000E+02  0.47000000000E+01 0.  1.
</event>
<event>
 5    1  0.7702600E-002  0.6000000E+02  0.7546771E-02  0.1259629E+00
         11   -1    0    0    0    0  0.00000000000E+00  0.00000000000E+00  0.30000000000E+02  0.30000000000E+02  0.00000000000E+00 0.  1.
        -11   -1    0    0    0    0 -0.00000000000E+00 -0.00000000000E+00 -0.30000000000E+02  0.30000000000E+02  0.00000000000E+00 0. -1.
         23    2    1    2    0    0  0.00000000000E+00  0.00000000000E+00  0.00000000000E+00  0.60000000000E+02  0.60000000000E+02 0.  0.
          5    1    3    3  501    0 -0.77958392670E+01  0.82063559406E+00 -0.28573789517E+02  0.30000000000E+02  0.47000000000E+01 0. -1.
         -5    1    3    3    0  501  0.77958392670E+01 -0.82063559406E+00  0.28573789517E+02  0.30000000000E+02  0.47000000000E+01 0.  1.
</event>
<event>
 5    1  0.7702600E-002  0.6000000E+02  0.7546771E-02  0.1259629E+00
         11   -1    0    0    0    0  0.00000000000E+00  0.00000000000E+00  0.30000000000E+02  0.30000000000E+02  0.00000000000E+00 0.  1.
        -11   -1    0    0    0    0 -0.00000000000E+00 -0.00000000000E+00 -0.30000000000E+02  0.30000000000E+02  0.00000000000E+00 0. -1.
         23    2    1    2    0    0  0.00000000000E+00  0.00000000000E+00  0.00000000000E+00  0.60000000000E+02  0.60000000000E+02 0.  0.
          5    1    3    3  501    0 -0.96799247379E+01 -0.14927983302E+02 -0.23693129207E+02  0.30000000000E+02  0.47000000000E+01 0. -1.
         -5    1    3    3    0  501  0.96799247379E+01  0.14927983302E+02  0.23693129207E+02  0.30000000000E+02  0.47000000000E+01 0.  1.
</event>
<event>
 5    1  0.7702600E-002  0.6000000E+02  0.7546771E-02  0.1259629E+00
         11   -1    0    0    0    0  0.00000000000E+00  0.00000000000E+00  0.30000000000E+02  0.30000000000E+02  0.00000000000E+00 0.  1.
        -11   -1    0    0    0    0 -0.00000000000E+00 -0.00000000000E+00 -0.30000000000E+02  0.30000000000E+02  0.00000000000E+00 0. -1.
         23    2    1    2    0    0  0.00000000000E+00  0.00000000000E+00  0.00000000000E+00  0.60000000000E+02  0.60000000000E+02 0.  0.
          5    1    3    3  501    0  0.24367637884E+02 -0.15610870602E+02  0.63583758170E+01  0.30000000000E+02  0.47000000000E+01 0. -1.
         -5    1    3    3    0  501 -0.24367637884E+02  0.15610870602E+02 -0.63583758170E+01  0.30000000000E+02  0.47000000000E+01 0.  1.
</event>
<event>
 5    1  0.7702600E-002  0.6000000E+02  0.7546771E-02  0.1259629E+00
         11   -1    0    0    0    0  0.00000000000E+00  0.00000000000E+00  0.30000000000E+02  0.30000000000E+02  0.00000000000E+00 0.  1.
        -11   -1    0    0    0    0 -0.00000000000E+00 -0.00000000000E+00 -0.30000000000E+02  0.30000000000E+02  0.00000000000E+00 0. -1.
         23    2    1    2    0    0  0.00000000000E+00  0.00000000000E+00  0.00000000000E+00  0.60000000000E+02  0.60000000000E+02 0.  0.
          5    1    3    3  501    0  0.27057370282E+02  0.88038609339E+01 -0.82644265437E+01  0.30000000000E+02  0.47000000000E+01 0. -1.
         -5    1    3    3    0  501 -0.27057370282E+02 -0.88038609339E+01  0.82644265437E+01  0.30000000000E+02  0.47000000000E+01 0.  1.
</event>
<event>
 5    1  0.7702600E-002  0.6000000E+02  0.7546771E-02  0.1259629E+00
         11   -1    0    0    0    0  0.00000000000E+00  0.00000000000E+00  0.30000000000E+02  0.30000000000E+02  0.00000000000E+00 0. -1.
        -11   -1    0    0    0    0 -0.00000000000E+00 -0.00000000000E+00 -0.30000000000E+02  0.30000000000E+02  0.00000000000E+00 0.  1.
         23    2    1    2    0    0  0.00000000000E+00  0.00000000000E+00  0.00000000000E+00  0.60000000000E+02  0.60000000000E+02 0.  0.
          5    1    3    3  501    0  0.43251167231E+01  0.87505475672E+01 -0.27975547941E+02  0.30000000000E+02  0.47000000000E+01 0.  1.
         -5    1    3    3    0  501 -0.43251167231E+01 -0.87505475672E+01  0.27975547941E+02  0.30000000000E+02  0.47000000000E+01 0. -1.
</event>
<event>
 5    1  0.7702600E-002  0.6000000E+02  0.7546771E-02  0.1259629E+00
         11   -1    0    0    0    0  0.00000000000E+00  0.00000000000E+00  0.30000000000E+02  0.30000000000E+02  0.00000000000E+00 0. -1.
        -11   -1    0    0    0    0 -0.00000000000E+00 -0.00000000000E+00 -0.30000000000E+02  0.30000000000E+02  0.00000000000E+00 0.  1.
         23    2    1    2    0    0  0.00000000000E+00  0.00000000000E+00  0.00000000000E+00  0.60000000000E+02  0.60000000000E+02 0.  0.
          5    1    3    3  501    0  0.14739372943E+02 -0.25338687701E+02 -0.43141384840E+01  0.30000000000E+02  0.47000000000E+01 0.  1.
         -5    1    3    3    0  501 -0.14739372943E+02  0.25338687701E+02  0.43141384840E+01  0.30000000000E+02  0.47000000000E+01 0. -1.
</event>
<event>
 5    1  0.7702600E-002  0.6000000E+02  0.7546771E-02  0.1259629E+00
         11   -1    0    0    0    0  0.00000000000E+00  0.00000000000E+00  0.30000000000E+02  0.30000000000E+02  0.00000000000E+00 0.  1.
        -11   -1    0    0    0    0 -0.00000000000E+00 -0.00000000000E+00 -0.30000000000E+02  0.30000000000E+02  0.00000000000E+00 0. -1.
         23    2    1    2    0    0  0.00000000000E+00  0.00000000000E+00  0.00000000000E+00  0.60000000000E+02  0.60000000000E+02 0.  0.
          5    1    3    3  501    0  0.13041435732E+02  0.87835533972E+01 -0.25113345929E+02  0.30000000000E+02  0.47000000000E+01 0. -1.
         -5    1    3    3    0  501 -0.13041435732E+02 -0.87835533972E+01  0.25113345929E+02  0.30000000000E+02  0.47000000000E+01 0.  1.
</event>
<event>
 5    1  0.7702600E-002  0.6000000E+02  0.7546771E-02  0.1259629E+00
         11   -1    0    0    0    0  0.00000000000E+00  0.00000000000E+00  0.30000000000E+02  0.30000000000E+02  0.00000000000E+00 0. -1.
        -11   -1    0    0    0    0 -0.00000000000E+00 -0.00000000000E+00 -0.30000000000E+02  0.30000000000E+02  0.00000000000E+00 0.  1.
         23    2    1    2    0    0  0.00000000000E+00  0.00000000000E+00  0.00000000000E+00  0.60000000000E+02  0.60000000000E+02 0.  0.
          5    1    3    3  501    0  0.16378007305E+02  0.16174073025E+02 -0.18656640601E+02  0.30000000000E+02  0.47000000000E+01 0.  1.
         -5    1    3    3    0  501 -0.16378007305E+02 -0.16174073025E+02  0.18656640601E+02  0.30000000000E+02  0.47000000000E+01 0. -1.
</event>
<event>
 5    1  0.7702600E-002  0.6000000E+02  0.7546771E-02  0.1259629E+00
         11   -1    0    0    0    0  0.00000000000E+00  0.00000000000E+00  0.30000000000E+02  0.30000000000E+02  0.00000000000E+00 0.  1.
        -11   -1    0    0    0    0 -0.00000000000E+00 -0.00000000000E+00 -0.30000000000E+02  0.30000000000E+02  0.00000000000E+00 0. -1.
         23    2    1    2    0    0  0.00000000000E+00  0.00000000000E+00  0.00000000000E+00  0.60000000000E+02  0.60000000000E+02 0.  0.
          5    1    3    3  501    0 -0.10869704790E+01 -0.15476748851E+02 -0.25242795807E+02  0.30000000000E+02  0.47000000000E+01 0. -1.
         -5    1    3    3    0  501  0.10869704790E+01  0.15476748851E+02  0.25242795807E+02  0.30000000000E+02  0.47000000000E+01 0.  1.
</event>
<event>
 5    1  0.7702600E-002  0.6000000E+02  0.7546771E-02  0.1259629E+00
         11   -1    0    0    0    0  0.00000000000E+00  0.00000000000E+00  0.30000000000E+02  0.30000000000E+02  0.00000000000E+00 0.  1.
        -11   -1    0    0    0    0 -0.00000000000E+00 -0.00000000000E+00 -0.30000000000E+02  0.30000000000E+02  0.00000000000E+00 0. -1.
         23    2    1    2    0    0  0.00000000000E+00  0.00000000000E+00  0.00000000000E+00  0.60000000000E+02  0.60000000000E+02 0.  0.
          5    1    3    3  501    0 -0.20104890982E+01  0.28123027376E+02 -0.91084172495E+01  0.30000000000E+02  0.47000000000E+01 0. -1.
         -5    1    3    3    0  501  0.20104890982E+01 -0.28123027376E+02  0.91084172495E+01  0.30000000000E+02  0.47000000000E+01 0.  1.
</event>
<event>
 5    1  0.7702600E-002  0.6000000E+02  0.7546771E-02  0.1259629E+00
         11   -1    0    0    0    0  0.00000000000E+00  0.00000000000E+00  0.30000000000E+02  0.30000000000E+02  0.00000000000E+00 0.  1.
        -11   -1    0    0    0    0 -0.00000000000E+00 -0.00000000000E+00 -0.30000000000E+02  0.30000000000E+02  0.00000000000E+00 0. -1.
         23    2    1    2    0    0  0.00000000000E+00  0.00000000000E+00  0.00000000000E+00  0.60000000000E+02  0.60000000000E+02 0.  0.
          5    1    3    3  501    0  0.58029563160E+01 -0.28373692078E+02  0.62585378350E+01  0.30000000000E+02  0.47000000000E+01 0. -1.
         -5    1    3    3    0  501 -0.58029563160E+01  0.28373692078E+02 -0.62585378350E+01  0.30000000000E+02  0.47000000000E+01 0.  1.
</event>
<event>
 5    1  0.7702600E-002  0.6000000E+02  0.7546771E-02  0.1259629E+00
         11   -1    0    0    0    0  0.00000000000E+00  0.00000000000E+00  0.30000000000E+02  0.30000000000E+02  0.00000000000E+00 0.  1.
        -11   -1    0    0    0    0 -0.00000000000E+00 -0.00000000000E+00 -0.30000000000E+02  0.30000000000E+02  0.00000000000E+00 0. -1.
         23    2    1    2    0    0  0.00000000000E+00  0.00000000000E+00  0.00000000000E+00  0.60000000000E+02  0.60000000000E+02 0.  0.
          5    1    3    3  501    0 -0.82356486999E+01  0.20599495450E+01 -0.28387333414E+02  0.30000000000E+02  0.47000000000E+01 0. -1.
         -5    1    3    3    0  501  0.82356486999E+01 -0.20599495450E+01  0.28387333414E+02  0.30000000000E+02  0.47000000000E+01 0.  1.
</event>
<event>
 5    1  0.7702600E-002  0.6000000E+02  0.7546771E-02  0.1259629E+00
         11   -1    0    0    0    0  0.00000000000E+00  0.00000000000E+00  0.30000000000E+02  0.30000000000E+02  0.00000000000E+00 0.  1.
        -11   -1    0    0    0    0 -0.00000000000E+00 -0.00000000000E+00 -0.30000000000E+02  0.30000000000E+02  0.00000000000E+00 0. -1.
         23    2    1    2    0    0  0.00000000000E+00  0.00000000000E+00  0.00000000000E+00  0.60000000000E+02  0.60000000000E+02 0.  0.
          5    1    3    3  501    0  0.32535312852E+01  0.26523506082E+01 -0.29330693317E+02  0.30000000000E+02  0.47000000000E+01 0. -1.
         -5    1    3    3    0  501 -0.32535312852E+01 -0.26523506082E+01  0.29330693317E+02  0.30000000000E+02  0.47000000000E+01 0.  1.
</event>
<event>
 5    1  0.7702600E-002  0.6000000E+02  0.7546771E-02  0.1259629E+00
         11   -1    0    0    0    0  0.00000000000E+00  0.00000000000E+00  0.30000000000E+02  0.30000000000E+02  0.00000000000E+00 0.  1.
        -11   -1    0    0    0    0 -0.00000000000E+00 -0.00000000000E+00 -0.30000000000E+02  0.30000000000E+02  0.00000000000E+00 0. -1.
         23    2    1    2    0    0  0.00000000000E+00  0.00000000000E+00  0.00000000000E+00  0.60000000000E+02  0.60000000000E+02 0.  0.
          5    1    3    3  501    0  0.20436506971E+02  0.42945370009E+01 -0.21019422799E+02  0.30000000000E+02  0.47000000000E+01 0. -1.
         -5    1    3    3    0  501 -0.20436506971E+02 -0.42945370009E+01  0.21019422799E+02  0.30000000000E+02  0.47000000000E+01 0.  1.
</event>
<event>
 5    1  0.7702600E-002  0.6000000E+02  0.7546771E-02  0.1259629E+00
         11   -1    0    0    0    0  0.00000000000E+00  0.00000000000E+00  0.30000000000E+02  0.30000000000E+02  0.00000000000E+00 0.  1.
        -11   -1    0    0    0    0 -0.00000000000E+00 -0.00000000000E+00 -0.30000000000E+02  0.30000000000E+02  0.00000000000E+00 0. -1.
         23    2    1    2    0    0  0.00000000000E+00  0.00000000000E+00  0.00000000000E+00  0.60000000000E+02  0.60000000000E+02 0.  0.
          5    1    3    3  501    0  0.33224212875E+01  0.15501110182E+02  0.25031721873E+02  0.30000000000E+02  0.47000000000E+01 0.  1.
         -5    1    3    3    0  501 -0.33224212875E+01 -0.15501110182E+02 -0.25031721873E+02  0.30000000000E+02  0.47000000000E+01 0. -1.
</event>
<event>
 5    1  0.7702600E-002  0.6000000E+02  0.7546771E-02  0.1259629E+00
         11   -1    0    0    0    0  0.00000000000E+00  0.00000000000E+00  0.30000000000E+02  0.30000000000E+02  0.00000000000E+00 0.  1.
        -11   -1    0    0    0    0 -0.00000000000E+00 -0.00000000000E+00 -0.30000000000E+02  0.30000000000E+02  0.00000000000E+00 0. -1.
         23    2    1    2    0    0  0.00000000000E+00  0.00000000000E+00  0.00000000000E+00  0.60000000000E+02  0.60000000000E+02 0.  0.
          5    1    3    3  501    0  0.31987748121E+01  0.71584225624E+01 -0.28573323680E+02  0.30000000000E+02  0.47000000000E+01 0. -1.
         -5    1    3    3    0  501 -0.31987748121E+01 -0.71584225624E+01  0.28573323680E+02  0.30000000000E+02  0.47000000000E+01 0.  1.
</event>
<event>
 5    1  0.7702600E-002  0.6000000E+02  0.7546771E-02  0.1259629E+00
         11   -1    0    0    0    0  0.00000000000E+00  0.00000000000E+00  0.30000000000E+02  0.30000000000E+02  0.00000000000E+00 0. -1.
        -11   -1    0    0    0    0 -0.00000000000E+00 -0.00000000000E+00 -0.30000000000E+02  0.30000000000E+02  0.00000000000E+00 0.  1.
         23    2    1    2    0    0  0.00000000000E+00  0.00000000000E+00  0.00000000000E+00  0.60000000000E+02  0.60000000000E+02 0.  0.
          5    1    3    3  501    0 -0.78443942875E+01 -0.20793519780E+02 -0.19596045862E+02  0.30000000000E+02  0.47000000000E+01 0.  1.
         -5    1    3    3    0  501  0.78443942875E+01  0.20793519780E+02  0.19596045862E+02  0.30000000000E+02  0.47000000000E+01 0. -1.
</event>
<event>
 5    1  0.7702600E-002  0.6000000E+02  0.7546771E-02  0.1259629E+00
         11   -1    0    0    0    0  0.00000000000E+00  0.00000000000E+00  0.30000000000E+02  0.30000000000E+02  0.00000000000E+00 0.  1.
        -11   -1    0    0    0    0 -0.00000000000E+00 -0.00000000000E+00 -0.30000000000E+02  0.30000000000E+02  0.00000000000E+00 0. -1.
         23    2    1    2    0    0  0.00000000000E+00  0.00000000000E+00  0.00000000000E+00  0.60000000000E+02  0.60000000000E+02 0.  0.
          5    1    3    3  501    0 -0.17387207962E+02 -0.14034838526E+02  0.19458116734E+02  0.30000000000E+02  0.47000000000E+01 0.  1.
         -5    1    3    3    0  501  0.17387207962E+02  0.14034838526E+02 -0.19458116734E+02  0.30000000000E+02  0.47000000000E+01 0. -1.
</event>
<event>
 5    1  0.7702600E-002  0.6000000E+02  0.7546771E-02  0.1259629E+00
         11   -1    0    0    0    0  0.00000000000E+00  0.00000000000E+00  0.30000000000E+02  0.30000000000E+02  0.00000000000E+00 0. -1.
        -11   -1    0    0    0    0 -0.00000000000E+00 -0.00000000000E+00 -0.30000000000E+02  0.30000000000E+02  0.00000000000E+00 0.  1.
         23    2    1    2    0    0  0.00000000000E+00  0.00000000000E+00  0.00000000000E+00  0.60000000000E+02  0.60000000000E+02 0.  0.
          5    1    3    3  501    0 -0.26670657913E+01  0.11186296889E+02 -0.27306840205E+02  0.30000000000E+02  0.47000000000E+01 0.  1.
         -5    1    3    3    0  501  0.26670657913E+01 -0.11186296889E+02  0.27306840205E+02  0.30000000000E+02  0.47000000000E+01 0. -1.
</event>
<event>
 5    1  0.7702600E-002  0.6000000E+02  0.7546771E-02  0.1259629E+00
         11   -1    0    0    0    0  0.00000000000E+00  0.00000000000E+00  0.30000000000E+02  0.30000000000E+02  0.00000000000E+00 0.  1.
        -11   -1    0    0    0    0 -0.00000000000E+00 -0.00000000000E+00 -0.30000000000E+02  0.30000000000E+02  0.00000000000E+00 0. -1.
         23    2    1    2    0    0  0.00000000000E+00  0.00000000000E+00  0.00000000000E+00  0.60000000000E+02  0.60000000000E+02 0.  0.
          5    1    3    3  501    0  0.14572209341E+02 -0.53086297955E+01 -0.25246369335E+02  0.30000000000E+02  0.47000000000E+01 0. -1.
         -5    1    3    3    0  501 -0.14572209341E+02  0.53086297955E+01  0.25246369335E+02  0.30000000000E+02  0.47000000000E+01 0.  1.
</event>
<event>
 5    1  0.7702600E-002  0.6000000E+02  0.7546771E-02  0.1259629E+00
         11   -1    0    0    0    0  0.00000000000E+00  0.00000000000E+00  0.30000000000E+02  0.30000000000E+02  0.00000000000E+00 0.  1.
        -11   -1    0    0    0    0 -0.00000000000E+00 -0.00000000000E+00 -0.30000000000E+02  0.30000000000E+02  0.00000000000E+00 0. -1.
         23    2    1    2    0    0  0.00000000000E+00  0.00000000000E+00  0.00000000000E+00  0.60000000000E+02  0.60000000000E+02 0.  0.
          5    1    3    3  501    0  0.24105932945E+02 -0.36070245508E+01 -0.16846464636E+02  0.30000000000E+02  0.47000000000E+01 0. -1.
         -5    1    3    3    0  501 -0.24105932945E+02  0.36070245508E+01  0.16846464636E+02  0.30000000000E+02  0.47000000000E+01 0.  1.
</event>
<event>
 5    1  0.7702600E-002  0.6000000E+02  0.7546771E-02  0.1259629E+00
         11   -1    0    0    0    0  0.00000000000E+00  0.00000000000E+00  0.30000000000E+02  0.30000000000E+02  0.00000000000E+00 0.  1.
        -11   -1    0    0    0    0 -0.00000000000E+00 -0.00000000000E+00 -0.30000000000E+02  0.30000000000E+02  0.00000000000E+00 0. -1.
         23    2    1    2    0    0  0.00000000000E+00  0.00000000000E+00  0.00000000000E+00  0.60000000000E+02  0.60000000000E+02 0.  0.
          5    1    3    3  501    0 -0.28376276692E+02 -0.78195386526E+01 -0.33987845456E+01  0.30000000000E+02  0.47000000000E+01 0. -1.
         -5    1    3    3    0  501  0.28376276692E+02  0.78195386526E+01  0.33987845456E+01  0.30000000000E+02  0.47000000000E+01 0.  1.
</event>
<event>
 5    1  0.7702600E-002  0.6000000E+02  0.7546771E-02  0.1259629E+00
         11   -1    0    0    0    0  0.00000000000E+00  0.00000000000E+00  0.30000000000E+02  0.30000000000E+02  0.00000000000E+00 0. -1.
        -11   -1    0    0    0    0 -0.00000000000E+00 -0.00000000000E+00 -0.30000000000E+02  0.30000000000E+02  0.00000000000E+00 0.  1.
         23    2    1    2    0    0  0.00000000000E+00  0.00000000000E+00  0.00000000000E+00  0.60000000000E+02  0.60000000000E+02 0.  0.
          5    1    3    3  501    0  0.24695588234E+02 -0.15815239460E+02 -0.42327440946E+01  0.30000000000E+02  0.47000000000E+01 0.  1.
         -5    1    3    3    0  501 -0.24695588234E+02  0.15815239460E+02  0.42327440946E+01  0.30000000000E+02  0.47000000000E+01 0. -1.
</event>
<event>
 5    1  0.7702600E-002  0.6000000E+02  0.7546771E-02  0.1259629E+00
         11   -1    0    0    0    0  0.00000000000E+00  0.00000000000E+00  0.30000000000E+02  0.30000000000E+02  0.00000000000E+00 0. -1.
        -11   -1    0    0    0    0 -0.00000000000E+00 -0.00000000000E+00 -0.30000000000E+02  0.30000000000E+02  0.00000000000E+00 0.  1.
         23    2    1    2    0    0  0.00000000000E+00  0.00000000000E+00  0.00000000000E+00  0.60000000000E+02  0.60000000000E+02 0.  0.
          5    1    3    3  501    0 -0.21331336694E+02  0.82616130442E+01 -0.18831617688E+02  0.30000000000E+02  0.47000000000E+01 0.  1.
         -5    1    3    3    0  501  0.21331336694E+02 -0.82616130442E+01  0.18831617688E+02  0.30000000000E+02  0.47000000000E+01 0. -1.
</event>
<event>
 5    1  0.7702600E-002  0.6000000E+02  0.7546771E-02  0.1259629E+00
         11   -1    0    0    0    0  0.00000000000E+00  0.00000000000E+00  0.30000000000E+02  0.30000000000E+02  0.00000000000E+00 0.  1.
        -11   -1    0    0    0    0 -0.00000000000E+00 -0.00000000000E+00 -0.30000000000E+02  0.30000000000E+02  0.00000000000E+00 0. -1.
         23    2    1    2    0    0  0.00000000000E+00  0.00000000000E+00  0.00000000000E+00  0.60000000000E+02  0.60000000000E+02 0.  0.
          5    1    3    3  501    0 -0.24323951119E+02  0.94551627397E+01 -0.14030513160E+02  0.30000000000E+02  0.47000000000E+01 0. -1.
         -5    1    3    3    0  501  0.24323951119E+02 -0.94551627397E+01  0.14030513160E+02  0.30000000000E+02  0.47000000000E+01 0.  1.
</event>
<event>
 5    1  0.7702600E-002  0.6000000E+02  0.7546771E-02  0.1259629E+00
         11   -1    0    0    0    0  0.00000000000E+00  0.00000000000E+00  0.30000000000E+02  0.30000000000E+02  0.00000000000E+00 0.  1.
        -11   -1    0    0    0    0 -0.00000000000E+00 -0.00000000000E+00 -0.30000000000E+02  0.30000000000E+02  0.00000000000E+00 0. -1.
         23    2    1    2    0    0  0.00000000000E+00  0.00000000000E+00  0.00000000000E+00  0.60000000000E+02  0.60000000000E+02 0.  0.
          5    1    3    3  501    0  0.22198461682E+00  0.29163842734E+02 -0.52279058746E+01  0.30000000000E+02  0.47000000000E+01 0. -1.
         -5    1    3    3    0  501 -0.22198461682E+00 -0.29163842734E+02  0.52279058746E+01  0.30000000000E+02  0.47000000000E+01 0.  1.
</event>
<event>
 5    1  0.7702600E-002  0.6000000E+02  0.7546771E-02  0.1259629E+00
         11   -1    0    0    0    0  0.00000000000E+00  0.00000000000E+00  0.30000000000E+02  0.30000000000E+02  0.00000000000E+00 0. -1.
        -11   -1    0    0    0    0 -0.00000000000E+00 -0.00000000000E+00 -0.30000000000E+02  0.30000000000E+02  0.00000000000E+00 0.  1.
         23    2    1    2    0    0  0.00000000000E+00  0.00000000000E+00  0.00000000000E+00  0.60000000000E+02  0.60000000000E+02 0.  0.
          5    1    3    3  501    0 -0.79049712069E+01  0.10148911473E+02 -0.26691216273E+02  0.30000000000E+02  0.47000000000E+01 0.  1.
         -5    1    3    3    0  501  0.79049712069E+01 -0.10148911473E+02  0.26691216273E+02  0.30000000000E+02  0.47000000000E+01 0. -1.
</event>
<event>
 5    1  0.7702600E-002  0.6000000E+02  0.7546771E-02  0.1259629E+00
         11   -1    0    0    0    0  0.00000000000E+00  0.00000000000E+00  0.30000000000E+02  0.30000000000E+02  0.00000000000E+00 0.  1.
        -11   -1    0    0    0    0 -0.00000000000E+00 -0.00000000000E+00 -0.30000000000E+02  0.30000000000E+02  0.00000000000E+00 0. -1.
         23    2    1    2    0    0  0.00000000000E+00  0.00000000000E+00  0.00000000000E+00  0.60000000000E+02  0.60000000000E+02 0.  0.
          5    1    3    3  501    0  0.15971776001E+02  0.13098063473E+02 -0.21242718861E+02  0.30000000000E+02  0.47000000000E+01 0. -1.
         -5    1    3    3    0  501 -0.15971776001E+02 -0.13098063473E+02  0.21242718861E+02  0.30000000000E+02  0.47000000000E+01 0.  1.
</event>
<event>
 5    1  0.7702600E-002  0.6000000E+02  0.7546771E-02  0.1259629E+00
         11   -1    0    0    0    0  0.00000000000E+00  0.00000000000E+00  0.30000000000E+02  0.30000000000E+02  0.00000000000E+00 0. -1.
        -11   -1    0    0    0    0 -0.00000000000E+00 -0.00000000000E+00 -0.30000000000E+02  0.30000000000E+02  0.00000000000E+00 0.  1.
         23    2    1    2    0    0  0.00000000000E+00  0.00000000000E+00  0.00000000000E+00  0.60000000000E+02  0.60000000000E+02 0.  0.
          5    1    3    3  501    0  0.92915033131E+01 -0.27679025331E+02  0.50447520176E+01  0.30000000000E+02  0.47000000000E+01 0.  1.
         -5    1    3    3    0  501 -0.92915033131E+01  0.27679025331E+02 -0.50447520176E+01  0.30000000000E+02  0.47000000000E+01 0. -1.
</event>
<event>
 5    1  0.7702600E-002  0.6000000E+02  0.7546771E-02  0.1259629E+00
         11   -1    0    0    0    0  0.00000000000E+00  0.00000000000E+00  0.30000000000E+02  0.30000000000E+02  0.00000000000E+00 0.  1.
        -11   -1    0    0    0    0 -0.00000000000E+00 -0.00000000000E+00 -0.30000000000E+02  0.30000000000E+02  0.00000000000E+00 0. -1.
         23    2    1    2    0    0  0.00000000000E+00  0.00000000000E+00  0.00000000000E+00  0.60000000000E+02  0.60000000000E+02 0.  0.
          5    1    3    3  501    0 -0.53882444559E+01 -0.88421932078E+01  0.27761347967E+02  0.30000000000E+02  0.47000000000E+01 0.  1.
         -5    1    3    3    0  501  0.53882444559E+01  0.88421932078E+01 -0.27761347967E+02  0.30000000000E+02  0.47000000000E+01 0. -1.
</event>
<event>
 5    1  0.7702600E-002  0.6000000E+02  0.7546771E-02  0.1259629E+00
         11   -1    0    0    0    0  0.00000000000E+00  0.00000000000E+00  0.30000000000E+02  0.30000000000E+02  0.00000000000E+00 0. -1.
        -11   -1    0    0    0    0 -0.00000000000E+00 -0.00000000000E+00 -0.30000000000E+02  0.30000000000E+02  0.00000000000E+00 0.  1.
         23    2    1    2    0    0  0.00000000000E+00  0.00000000000E+00  0.00000000000E+00  0.60000000000E+02  0.60000000000E+02 0.  0.
          5    1    3    3  501    0 -0.16340889327E+02  0.17560876084E+02 -0.17392554935E+02  0.30000000000E+02  0.47000000000E+01 0.  1.
         -5    1    3    3    0  501  0.16340889327E+02 -0.17560876084E+02  0.17392554935E+02  0.30000000000E+02  0.47000000000E+01 0. -1.
</event>
<event>
 5    1  0.7702600E-002  0.6000000E+02  0.7546771E-02  0.1259629E+00
         11   -1    0    0    0    0  0.00000000000E+00  0.00000000000E+00  0.30000000000E+02  0.30000000000E+02  0.00000000000E+00 0. -1.
        -11   -1    0    0    0    0 -0.00000000000E+00 -0.00000000000E+00 -0.30000000000E+02  0.30000000000E+02  0.00000000000E+00 0.  1.
         23    2    1    2    0    0  0.00000000000E+00  0.00000000000E+00  0.00000000000E+00  0.60000000000E+02  0.60000000000E+02 0.  0.
          5    1    3    3  501    0  0.21816785533E+02 -0.16168676175E+02 -0.11853766479E+02  0.30000000000E+02  0.47000000000E+01 0.  1.
         -5    1    3    3    0  501 -0.21816785533E+02  0.16168676175E+02  0.11853766479E+02  0.30000000000E+02  0.47000000000E+01 0. -1.
</event>
<event>
 5    1  0.7702600E-002  0.6000000E+02  0.7546771E-02  0.1259629E+00
         11   -1    0    0    0    0  0.00000000000E+00  0.00000000000E+00  0.30000000000E+02  0.30000000000E+02  0.00000000000E+00 0.  1.
        -11   -1    0    0    0    0 -0.00000000000E+00 -0.00000000000E+00 -0.30000000000E+02  0.30000000000E+02  0.00000000000E+00 0. -1.
         23    2    1    2    0    0  0.00000000000E+00  0.00000000000E+00  0.00000000000E+00  0.60000000000E+02  0.60000000000E+02 0.  0.
          5    1    3    3  501    0 -0.23492115427E+02 -0.13345660694E+02  0.12162395052E+02  0.30000000000E+02  0.47000000000E+01 0. -1.
         -5    1    3    3    0  501  0.23492115427E+02  0.13345660694E+02 -0.12162395052E+02  0.30000000000E+02  0.47000000000E+01 0.  1.
</event>
<event>
 5    1  0.7702600E-002  0.6000000E+02  0.7546771E-02  0.1259629E+00
         11   -1    0    0    0    0  0.00000000000E+00  0.00000000000E+00  0.30000000000E+02  0.30000000000E+02  0.00000000000E+00 0.  1.
        -11   -1    0    0    0    0 -0.00000000000E+00 -0.00000000000E+00 -0.30000000000E+02  0.30000000000E+02  0.00000000000E+00 0. -1.
         23    2    1    2    0    0  0.00000000000E+00  0.00000000000E+00  0.00000000000E+00  0.60000000000E+02  0.60000000000E+02 0.  0.
          5    1    3    3  501    0 -0.13960668786E+02 -0.31607475781E+01 -0.25942617481E+02  0.30000000000E+02  0.47000000000E+01 0. -1.
         -5    1    3    3    0  501  0.13960668786E+02  0.31607475781E+01  0.25942617481E+02  0.30000000000E+02  0.47000000000E+01 0.  1.
</event>
<event>
 5    1  0.7702600E-002  0.6000000E+02  0.7546771E-02  0.1259629E+00
         11   -1    0    0    0    0  0.00000000000E+00  0.00000000000E+00  0.30000000000E+02  0.30000000000E+02  0.00000000000E+00 0.  1.
        -11   -1    0    0    0    0 -0.00000000000E+00 -0.00000000000E+00 -0.30000000000E+02  0.30000000000E+02  0.00000000000E+00 0. -1.
         23    2    1    2    0    0  0.00000000000E+00  0.00000000000E+00  0.00000000000E+00  0.60000000000E+02  0.60000000000E+02 0.  0.
          5    1    3    3  501    0  0.13525430086E+02  0.22438936533E+02 -0.13837155352E+02  0.30000000000E+02  0.47000000000E+01 0. -1.
         -5    1    3    3    0  501 -0.13525430086E+02 -0.22438936533E+02  0.13837155352E+02  0.30000000000E+02  0.47000000000E+01 0.  1.
</event>
<event>
 5    1  0.7702600E-002  0.6000000E+02  0.7546771E-02  0.1259629E+00
         11   -1    0    0    0    0  0.00000000000E+00  0.00000000000E+00  0.30000000000E+02  0.30000000000E+02  0.00000000000E+00 0.  1.
        -11   -1    0    0    0    0 -0.00000000000E+00 -0.00000000000E+00 -0.30000000000E+02  0.30000000000E+02  0.00000000000E+00 0. -1.
         23    2    1    2    0    0  0.00000000000E+00  0.00000000000E+00  0.00000000000E+00  0.60000000000E+02  0.60000000000E+02 0.  0.
          5    1    3    3  501    0  0.12723984009E+02 -0.20477872359E+02 -0.17224023182E+02  0.30000000000E+02  0.47000000000E+01 0. -1.
         -5    1    3    3    0  501 -0.12723984009E+02  0.20477872359E+02  0.17224023182E+02  0.30000000000E+02  0.47000000000E+01 0.  1.
</event>
<event>
 5    1  0.7702600E-002  0.6000000E+02  0.7546771E-02  0.1259629E+00
         11   -1    0    0    0    0  0.00000000000E+00  0.00000000000E+00  0.30000000000E+02  0.30000000000E+02  0.00000000000E+00 0.  1.
        -11   -1    0    0    0    0 -0.00000000000E+00 -0.00000000000E+00 -0.30000000000E+02  0.30000000000E+02  0.00000000000E+00 0. -1.
         23    2    1    2    0    0  0.00000000000E+00  0.00000000000E+00  0.00000000000E+00  0.60000000000E+02  0.60000000000E+02 0.  0.
          5    1    3    3  501    0 -0.13499014310E+02  0.57302081526E+01 -0.25745899231E+02  0.30000000000E+02  0.47000000000E+01 0. -1.
         -5    1    3    3    0  501  0.13499014310E+02 -0.57302081526E+01  0.25745899231E+02  0.30000000000E+02  0.47000000000E+01 0.  1.
</event>
<event>
 5    1  0.7702600E-002  0.6000000E+02  0.7546771E-02  0.1259629E+00
         11   -1    0    0    0    0  0.00000000000E+00  0.00000000000E+00  0.30000000000E+02  0.30000000000E+02  0.00000000000E+00 0.  1.
        -11   -1    0    0    0    0 -0.00000000000E+00 -0.00000000000E+00 -0.30000000000E+02  0.30000000000E+02  0.00000000000E+00 0. -1.
         23    2    1    2    0    0  0.00000000000E+00  0.00000000000E+00  0.00000000000E+00  0.60000000000E+02  0.60000000000E+02 0.  0.
          5    1    3    3  501    0  0.92751405494E+01 -0.13525742253E+02  0.24676629922E+02  0.30000000000E+02  0.47000000000E+01 0.  1.
         -5    1    3    3    0  501 -0.92751405494E+01  0.13525742253E+02 -0.24676629922E+02  0.30000000000E+02  0.47000000000E+01 0. -1.
</event>
<event>
 5    1  0.7702600E-002  0.6000000E+02  0.7546771E-02  0.1259629E+00
         11   -1    0    0    0    0  0.00000000000E+00  0.00000000000E+00  0.30000000000E+02  0.30000000000E+02  0.00000000000E+00 0. -1.
        -11   -1    0    0    0    0 -0.00000000000E+00 -0.00000000000E+00 -0.30000000000E+02  0.30000000000E+02  0.00000000000E+00 0.  1.
         23    2    1    2    0    0  0.00000000000E+00  0.00000000000E+00  0.00000000000E+00  0.60000000000E+02  0.60000000000E+02 0.  0.
          5    1    3    3  501    0  0.29179126956E+02 -0.35556260230E+01  0.37210312624E+01  0.30000000000E+02  0.47000000000E+01 0.  1.
         -5    1    3    3    0  501 -0.29179126956E+02  0.35556260230E+01 -0.37210312624E+01  0.30000000000E+02  0.47000000000E+01 0. -1.
</event>
<event>
 5    1  0.7702600E-002  0.6000000E+02  0.7546771E-02  0.1259629E+00
         11   -1    0    0    0    0  0.00000000000E+00  0.00000000000E+00  0.30000000000E+02  0.30000000000E+02  0.00000000000E+00 0. -1.
        -11   -1    0    0    0    0 -0.00000000000E+00 -0.00000000000E+00 -0.30000000000E+02  0.30000000000E+02  0.00000000000E+00 0.  1.
         23    2    1    2    0    0  0.00000000000E+00  0.00000000000E+00  0.00000000000E+00  0.60000000000E+02  0.60000000000E+02 0.  0.
          5    1    3    3  501    0  0.29961874667E+01  0.17941239853E+02 -0.23388988289E+02  0.30000000000E+02  0.47000000000E+01 0.  1.
         -5    1    3    3    0  501 -0.29961874667E+01 -0.17941239853E+02  0.23388988289E+02  0.30000000000E+02  0.47000000000E+01 0. -1.
</event>
<event>
 5    1  0.7702600E-002  0.6000000E+02  0.7546771E-02  0.1259629E+00
         11   -1    0    0    0    0  0.00000000000E+00  0.00000000000E+00  0.30000000000E+02  0.30000000000E+02  0.00000000000E+00 0.  1.
        -11   -1    0    0    0    0 -0.00000000000E+00 -0.00000000000E+00 -0.30000000000E+02  0.30000000000E+02  0.00000000000E+00 0. -1.
         23    2    1    2    0    0  0.00000000000E+00  0.00000000000E+00  0.00000000000E+00  0.60000000000E+02  0.60000000000E+02 0.  0.
          5    1    3    3  501    0 -0.96959296429E+01  0.23433082399E+02 -0.15322845612E+02  0.30000000000E+02  0.47000000000E+01 0. -1.
         -5    1    3    3    0  501  0.96959296429E+01 -0.23433082399E+02  0.15322845612E+02  0.30000000000E+02  0.47000000000E+01 0.  1.
</event>
<event>
 5    1  0.7702600E-002  0.6000000E+02  0.7546771E-02  0.1259629E+00
         11   -1    0    0    0    0  0.00000000000E+00  0.00000000000E+00  0.30000000000E+02  0.30000000000E+02  0.00000000000E+00 0.  1.
        -11   -1    0    0    0    0 -0.00000000000E+00 -0.00000000000E+00 -0.30000000000E+02  0.30000000000E+02  0.00000000000E+00 0. -1.
         23    2    1    2    0    0  0.00000000000E+00  0.00000000000E+00  0.00000000000E+00  0.60000000000E+02  0.60000000000E+02 0.  0.
          5    1    3    3  501    0 -0.22333689109E+02  0.11687494258E+02 -0.15573015404E+02  0.30000000000E+02  0.47000000000E+01 0. -1.
         -5    1    3    3    0  501  0.22333689109E+02 -0.11687494258E+02  0.15573015404E+02  0.30000000000E+02  0.47000000000E+01 0.  1.
</event>
<event>
 5    1  0.7702600E-002  0.6000000E+02  0.7546771E-02  0.1259629E+00
         11   -1    0    0    0    0  0.00000000000E+00  0.00000000000E+00  0.30000000000E+02  0.30000000000E+02  0.00000000000E+00 0.  1.
        -11   -1    0    0    0    0 -0.00000000000E+00 -0.00000000000E+00 -0.30000000000E+02  0.30000000000E+02  0.00000000000E+00 0. -1.
         23    2    1    2    0    0  0.00000000000E+00  0.00000000000E+00  0.00000000000E+00  0.60000000000E+02  0.60000000000E+02 0.  0.
          5    1    3    3  501    0 -0.71392077320E+01  0.80055386655E+01 -0.27619794779E+02  0.30000000000E+02  0.47000000000E+01 0. -1.
         -5    1    3    3    0  501  0.71392077320E+01 -0.80055386655E+01  0.27619794779E+02  0.30000000000E+02  0.47000000000E+01 0.  1.
</event>
<event>
 5    1  0.7702600E-002  0.6000000E+02  0.7546771E-02  0.1259629E+00
         11   -1    0    0    0    0  0.00000000000E+00  0.00000000000E+00  0.30000000000E+02  0.30000000000E+02  0.00000000000E+00 0.  1.
        -11   -1    0    0    0    0 -0.00000000000E+00 -0.00000000000E+00 -0.30000000000E+02  0.30000000000E+02  0.00000000000E+00 0. -1.
         23    2    1    2    0    0  0.00000000000E+00  0.00000000000E+00  0.00000000000E+00  0.60000000000E+02  0.60000000000E+02 0.  0.
          5    1    3    3  501    0  0.26489759917E+02  0.66330441668E+01 -0.11498058299E+02  0.30000000000E+02  0.47000000000E+01 0. -1.
         -5    1    3    3    0  501 -0.26489759917E+02 -0.66330441668E+01  0.11498058299E+02  0.30000000000E+02  0.47000000000E+01 0.  1.
</event>
<event>
 5    1  0.7702600E-002  0.6000000E+02  0.7546771E-02  0.1259629E+00
         11   -1    0    0    0    0  0.00000000000E+00  0.00000000000E+00  0.30000000000E+02  0.30000000000E+02  0.00000000000E+00 0.  1.
        -11   -1    0    0    0    0 -0.00000000000E+00 -0.00000000000E+00 -0.30000000000E+02  0.30000000000E+02  0.00000000000E+00 0. -1.
         23    2    1    2    0    0  0.00000000000E+00  0.00000000000E+00  0.00000000000E+00  0.60000000000E+02  0.60000000000E+02 0.  0.
          5    1    3    3  501    0  0.17452339312E+02 -0.36765279283E+01  0.23660283070E+02  0.30000000000E+02  0.47000000000E+01 0.  1.
         -5    1    3    3    0  501 -0.17452339312E+02  0.36765279283E+01 -0.23660283070E+02  0.30000000000E+02  0.47000000000E+01 0. -1.
</event>
<event>
 5    1  0.7702600E-002  0.6000000E+02  0.7546771E-02  0.1259629E+00
         11   -1    0    0    0    0  0.00000000000E+00  0.00000000000E+00  0.30000000000E+02  0.30000000000E+02  0.00000000000E+00 0.  1.
        -11   -1    0    0    0    0 -0.00000000000E+00 -0.00000000000E+00 -0.30000000000E+02  0.30000000000E+02  0.00000000000E+00 0. -1.
         23    2    1    2    0    0  0.00000000000E+00  0.00000000000E+00  0.00000000000E+00  0.60000000000E+02  0.60000000000E+02 0.  0.
          5    1    3    3  501    0 -0.55236344480E+01 -0.99189227518E+00 -0.29093222788E+02  0.30000000000E+02  0.47000000000E+01 0. -1.
         -5    1    3    3    0  501  0.55236344480E+01  0.99189227518E+00  0.29093222788E+02  0.30000000000E+02  0.47000000000E+01 0.  1.
</event>
<event>
 5    1  0.7702600E-002  0.6000000E+02  0.7546771E-02  0.1259629E+00
         11   -1    0    0    0    0  0.00000000000E+00  0.00000000000E+00  0.30000000000E+02  0.30000000000E+02  0.00000000000E+00 0.  1.
        -11   -1    0    0    0    0 -0.00000000000E+00 -0.00000000000E+00 -0.30000000000E+02  0.30000000000E+02  0.00000000000E+00 0. -1.
         23    2    1    2    0    0  0.00000000000E+00  0.00000000000E+00  0.00000000000E+00  0.60000000000E+02  0.60000000000E+02 0.  0.
          5    1    3    3  501    0 -0.55751396787E+01 -0.23899912116E+02  0.16601867920E+02  0.30000000000E+02  0.47000000000E+01 0.  1.
         -5    1    3    3    0  501  0.55751396787E+01  0.23899912116E+02 -0.16601867920E+02  0.30000000000E+02  0.47000000000E+01 0. -1.
</event>
<event>
 5    1  0.7702600E-002  0.6000000E+02  0.7546771E-02  0.1259629E+00
         11   -1    0    0    0    0  0.00000000000E+00  0.00000000000E+00  0.30000000000E+02  0.30000000000E+02  0.00000000000E+00 0.  1.
        -11   -1    0    0    0    0 -0.00000000000E+00 -0.00000000000E+00 -0.30000000000E+02  0.30000000000E+02  0.00000000000E+00 0. -1.
         23    2    1    2    0    0  0.00000000000E+00  0.00000000000E+00  0.00000000000E+00  0.60000000000E+02  0.60000000000E+02 0.  0.
          5    1    3    3  501    0 -0.28146531983E+02  0.88632215651E+01 -0.26694645162E+01  0.30000000000E+02  0.47000000000E+01 0. -1.
         -5    1    3    3    0  501  0.28146531983E+02 -0.88632215651E+01  0.26694645162E+01  0.30000000000E+02  0.47000000000E+01 0.  1.
</event>
<event>
 5    1  0.7702600E-002  0.6000000E+02  0.7546771E-02  0.1259629E+00
         11   -1    0    0    0    0  0.00000000000E+00  0.00000000000E+00  0.30000000000E+02  0.30000000000E+02  0.00000000000E+00 0.  1.
        -11   -1    0    0    0    0 -0.00000000000E+00 -0.00000000000E+00 -0.30000000000E+02  0.30000000000E+02  0.00000000000E+00 0. -1.
         23    2    1    2    0    0  0.00000000000E+00  0.00000000000E+00  0.00000000000E+00  0.60000000000E+02  0.60000000000E+02 0.  0.
          5    1    3    3  501    0 -0.13717897594E+01  0.44819457463E+01 -0.29256458350E+02  0.30000000000E+02  0.47000000000E+01 0. -1.
         -5    1    3    3    0  501  0.13717897594E+01 -0.44819457463E+01  0.29256458350E+02  0.30000000000E+02  0.47000000000E+01 0.  1.
</event>
<event>
 5    1  0.7702600E-002  0.6000000E+02  0.7546771E-02  0.1259629E+00
         11   -1    0    0    0    0  0.00000000000E+00  0.00000000000E+00  0.30000000000E+02  0.30000000000E+02  0.00000000000E+00 0.  1.
        -11   -1    0    0    0    0 -0.00000000000E+00 -0.00000000000E+00 -0.30000000000E+02  0.30000000000E+02  0.00000000000E+00 0. -1.
         23    2    1    2    0    0  0.00000000000E+00  0.00000000000E+00  0.00000000000E+00  0.60000000000E+02  0.60000000000E+02 0.  0.
          5    1    3    3  501    0  0.39233366933E+00 -0.24563257546E+02 -0.16565097434E+02  0.30000000000E+02  0.47000000000E+01 0. -1.
         -5    1    3    3    0  501 -0.39233366933E+00  0.24563257546E+02  0.16565097434E+02  0.30000000000E+02  0.47000000000E+01 0.  1.
</event>
<event>
 5    1  0.7702600E-002  0.6000000E+02  0.7546771E-02  0.1259629E+00
         11   -1    0    0    0    0  0.00000000000E+00  0.00000000000E+00  0.30000000000E+02  0.30000000000E+02  0.00000000000E+00 0.  1.
        -11   -1    0    0    0    0 -0.00000000000E+00 -0.00000000000E+00 -0.30000000000E+02  0.30000000000E+02  0.00000000000E+00 0. -1.
         23    2    1    2    0    0  0.00000000000E+00  0.00000000000E+00  0.00000000000E+00  0.60000000000E+02  0.60000000000E+02 0.  0.
          5    1    3    3  501    0 -0.10856226579E+02 -0.27390969779E+02 -0.31284371573E+01  0.30000000000E+02  0.47000000000E+01 0. -1.
         -5    1    3    3    0  501  0.10856226579E+02  0.27390969779E+02  0.31284371573E+01  0.30000000000E+02  0.47000000000E+01 0.  1.
</event>
<event>
 5    1  0.7702600E-002  0.6000000E+02  0.7546771E-02  0.1259629E+00
         11   -1    0    0    0    0  0.00000000000E+00  0.00000000000E+00  0.30000000000E+02  0.30000000000E+02  0.00000000000E+00 0.  1.
        -11   -1    0    0    0    0 -0.00000000000E+00 -0.00000000000E+00 -0.30000000000E+02  0.30000000000E+02  0.00000000000E+00 0. -1.
         23    2    1    2    0    0  0.00000000000E+00  0.00000000000E+00  0.00000000000E+00  0.60000000000E+02  0.60000000000E+02 0.  0.
          5    1    3    3  501    0 -0.25202395356E+02 -0.12494952563E+02 -0.93072782678E+01  0.30000000000E+02  0.47000000000E+01 0. -1.
         -5    1    3    3    0  501  0.25202395356E+02  0.12494952563E+02  0.93072782678E+01  0.30000000000E+02  0.47000000000E+01 0.  1.
</event>
<event>
 5    1  0.7702600E-002  0.6000000E+02  0.7546771E-02  0.1259629E+00
         11   -1    0    0    0    0  0.00000000000E+00  0.00000000000E+00  0.30000000000E+02  0.30000000000E+02  0.00000000000E+00 0. -1.
        -11   -1    0    0    0    0 -0.00000000000E+00 -0.00000000000E+00 -0.30000000000E+02  0.30000000000E+02  0.00000000000E+00 0.  1.
         23    2    1    2    0    0  0.00000000000E+00  0.00000000000E+00  0.00000000000E+00  0.60000000000E+02  0.60000000000E+02 0.  0.
          5    1    3    3  501    0 -0.16592685300E+02  0.24431474514E+02 -0.23865974947E+01  0.30000000000E+02  0.47000000000E+01 0.  1.
         -5    1    3    3    0  501  0.16592685300E+02 -0.24431474514E+02  0.23865974947E+01  0.30000000000E+02  0.47000000000E+01 0. -1.
</event>
<event>
 5    1  0.7702600E-002  0.6000000E+02  0.7546771E-02  0.1259629E+00
         11   -1    0    0    0    0  0.00000000000E+00  0.00000000000E+00  0.30000000000E+02  0.30000000000E+02  0.00000000000E+00 0.  1.
        -11   -1    0    0    0    0 -0.00000000000E+00 -0.00000000000E+00 -0.30000000000E+02  0.30000000000E+02  0.00000000000E+00 0. -1.
         23    2    1    2    0    0  0.00000000000E+00  0.00000000000E+00  0.00000000000E+00  0.60000000000E+02  0.60000000000E+02 0.  0.
          5    1    3    3  501    0  0.26440831662E+01  0.21324738046E+02 -0.20400352239E+02  0.30000000000E+02  0.47000000000E+01 0. -1.
         -5    1    3    3    0  501 -0.26440831662E+01 -0.21324738046E+02  0.20400352239E+02  0.30000000000E+02  0.47000000000E+01 0.  1.
</event>
<event>
 5    1  0.7702600E-002  0.6000000E+02  0.7546771E-02  0.1259629E+00
         11   -1    0    0    0    0  0.00000000000E+00  0.00000000000E+00  0.30000000000E+02  0.30000000000E+02  0.00000000000E+00 0.  1.
        -11   -1    0    0    0    0 -0.00000000000E+00 -0.00000000000E+00 -0.30000000000E+02  0.30000000000E+02  0.00000000000E+00 0. -1.
         23    2    1    2    0    0  0.00000000000E+00  0.00000000000E+00  0.00000000000E+00  0.60000000000E+02  0.60000000000E+02 0.  0.
          5    1    3    3  501    0  0.17851686352E+00 -0.18327777035E+02 -0.23280264618E+02  0.30000000000E+02  0.47000000000E+01 0. -1.
         -5    1    3    3    0  501 -0.17851686352E+00  0.18327777035E+02  0.23280264618E+02  0.30000000000E+02  0.47000000000E+01 0.  1.
</event>
<event>
 5    1  0.7702600E-002  0.6000000E+02  0.7546771E-02  0.1259629E+00
         11   -1    0    0    0    0  0.00000000000E+00  0.00000000000E+00  0.30000000000E+02  0.30000000000E+02  0.00000000000E+00 0.  1.
        -11   -1    0    0    0    0 -0.00000000000E+00 -0.00000000000E+00 -0.30000000000E+02  0.30000000000E+02  0.00000000000E+00 0. -1.
         23    2    1    2    0    0  0.00000000000E+00  0.00000000000E+00  0.00000000000E+00  0.60000000000E+02  0.60000000000E+02 0.  0.
          5    1    3    3  501    0  0.72480076513E+00 -0.33815266240E+01 -0.29427027399E+02  0.30000000000E+02  0.47000000000E+01 0. -1.
         -5    1    3    3    0  501 -0.72480076513E+00  0.33815266240E+01  0.29427027399E+02  0.30000000000E+02  0.47000000000E+01 0.  1.
</event>
<event>
 5    1  0.7702600E-002  0.6000000E+02  0.7546771E-02  0.1259629E+00
         11   -1    0    0    0    0  0.00000000000E+00  0.00000000000E+00  0.30000000000E+02  0.30000000000E+02  0.00000000000E+00 0.  1.
        -11   -1    0    0    0    0 -0.00000000000E+00 -0.00000000000E+00 -0.30000000000E+02  0.30000000000E+02  0.00000000000E+00 0. -1.
         23    2    1    2    0    0  0.00000000000E+00  0.00000000000E+00  0.00000000000E+00  0.60000000000E+02  0.60000000000E+02 0.  0.
          5    1    3    3  501    0  0.25783615296E+02  0.82539018446E+00 -0.14575112807E+02  0.30000000000E+02  0.47000000000E+01 0. -1.
         -5    1    3    3    0  501 -0.25783615296E+02 -0.82539018446E+00  0.14575112807E+02  0.30000000000E+02  0.47000000000E+01 0.  1.
</event>
<event>
 5    1  0.7702600E-002  0.6000000E+02  0.7546771E-02  0.1259629E+00
         11   -1    0    0    0    0  0.00000000000E+00  0.00000000000E+00  0.30000000000E+02  0.30000000000E+02  0.00000000000E+00 0.  1.
        -11   -1    0    0    0    0 -0.00000000000E+00 -0.00000000000E+00 -0.30000000000E+02  0.30000000000E+02  0.00000000000E+00 0. -1.
         23    2    1    2    0    0  0.00000000000E+00  0.00000000000E+00  0.00000000000E+00  0.60000000000E+02  0.60000000000E+02 0.  0.
          5    1    3    3  501    0 -0.27268933712E+02  0.98196686071E+01  0.61554335900E+01  0.30000000000E+02  0.47000000000E+01 0. -1.
         -5    1    3    3    0  501  0.27268933712E+02 -0.98196686071E+01 -0.61554335900E+01  0.30000000000E+02  0.47000000000E+01 0.  1.
</event>
<event>
 5    1  0.7702600E-002  0.6000000E+02  0.7546771E-02  0.1259629E+00
         11   -1    0    0    0    0  0.00000000000E+00  0.00000000000E+00  0.30000000000E+02  0.30000000000E+02  0.00000000000E+00 0. -1.
        -11   -1    0    0    0    0 -0.00000000000E+00 -0.00000000000E+00 -0.30000000000E+02  0.30000000000E+02  0.00000000000E+00 0.  1.
         23    2    1    2    0    0  0.00000000000E+00  0.00000000000E+00  0.00000000000E+00  0.60000000000E+02  0.60000000000E+02 0.  0.
          5    1    3    3  501    0  0.25485600074E+02  0.24853435044E+01 -0.14906953295E+02  0.30000000000E+02  0.47000000000E+01 0.  1.
         -5    1    3    3    0  501 -0.25485600074E+02 -0.24853435044E+01  0.14906953295E+02  0.30000000000E+02  0.47000000000E+01 0. -1.
</event>
<event>
 5    1  0.7702600E-002  0.6000000E+02  0.7546771E-02  0.1259629E+00
         11   -1    0    0    0    0  0.00000000000E+00  0.00000000000E+00  0.30000000000E+02  0.30000000000E+02  0.00000000000E+00 0.  1.
        -11   -1    0    0    0    0 -0.00000000000E+00 -0.00000000000E+00 -0.30000000000E+02  0.30000000000E+02  0.00000000000E+00 0. -1.
         23    2    1    2    0    0  0.00000000000E+00  0.00000000000E+00  0.00000000000E+00  0.60000000000E+02  0.60000000000E+02 0.  0.
          5    1    3    3  501    0  0.11788655191E+02  0.22097970675E+02 -0.15830897032E+02  0.30000000000E+02  0.47000000000E+01 0. -1.
         -5    1    3    3    0  501 -0.11788655191E+02 -0.22097970675E+02  0.15830897032E+02  0.30000000000E+02  0.47000000000E+01 0.  1.
</event>
<event>
 5    1  0.7702600E-002  0.6000000E+02  0.7546771E-02  0.1259629E+00
         11   -1    0    0    0    0  0.00000000000E+00  0.00000000000E+00  0.30000000000E+02  0.30000000000E+02  0.00000000000E+00 0. -1.
        -11   -1    0    0    0    0 -0.00000000000E+00 -0.00000000000E+00 -0.30000000000E+02  0.30000000000E+02  0.00000000000E+00 0.  1.
         23    2    1    2    0    0  0.00000000000E+00  0.00000000000E+00  0.00000000000E+00  0.60000000000E+02  0.60000000000E+02 0.  0.
          5    1    3    3  501    0 -0.26689065293E+00 -0.27497506774E+02 -0.11032945689E+02  0.30000000000E+02  0.47000000000E+01 0.  1.
         -5    1    3    3    0  501  0.26689065293E+00  0.27497506774E+02  0.11032945689E+02  0.30000000000E+02  0.47000000000E+01 0. -1.
</event>
<event>
 5    1  0.7702600E-002  0.6000000E+02  0.7546771E-02  0.1259629E+00
         11   -1    0    0    0    0  0.00000000000E+00  0.00000000000E+00  0.30000000000E+02  0.30000000000E+02  0.00000000000E+00 0.  1.
        -11   -1    0    0    0    0 -0.00000000000E+00 -0.00000000000E+00 -0.30000000000E+02  0.30000000000E+02  0.00000000000E+00 0. -1.
         23    2    1    2    0    0  0.00000000000E+00  0.00000000000E+00  0.00000000000E+00  0.60000000000E+02  0.60000000000E+02 0.  0.
          5    1    3    3  501    0  0.21627656629E+02  0.20249229786E+02 -0.35094415474E+00  0.30000000000E+02  0.47000000000E+01 0. -1.
         -5    1    3    3    0  501 -0.21627656629E+02 -0.20249229786E+02  0.35094415474E+00  0.30000000000E+02  0.47000000000E+01 0.  1.
</event>
<event>
 5    1  0.7702600E-002  0.6000000E+02  0.7546771E-02  0.1259629E+00
         11   -1    0    0    0    0  0.00000000000E+00  0.00000000000E+00  0.30000000000E+02  0.30000000000E+02  0.00000000000E+00 0.  1.
        -11   -1    0    0    0    0 -0.00000000000E+00 -0.00000000000E+00 -0.30000000000E+02  0.30000000000E+02  0.00000000000E+00 0. -1.
         23    2    1    2    0    0  0.00000000000E+00  0.00000000000E+00  0.00000000000E+00  0.60000000000E+02  0.60000000000E+02 0.  0.
          5    1    3    3  501    0  0.42224624295E+01  0.38216638074E+01 -0.29077064790E+02  0.30000000000E+02  0.47000000000E+01 0. -1.
         -5    1    3    3    0  501 -0.42224624295E+01 -0.38216638074E+01  0.29077064790E+02  0.30000000000E+02  0.47000000000E+01 0.  1.
</event>
<event>
 5    1  0.7702600E-002  0.6000000E+02  0.7546771E-02  0.1259629E+00
         11   -1    0    0    0    0  0.00000000000E+00  0.00000000000E+00  0.30000000000E+02  0.30000000000E+02  0.00000000000E+00 0.  1.
        -11   -1    0    0    0    0 -0.00000000000E+00 -0.00000000000E+00 -0.30000000000E+02  0.30000000000E+02  0.00000000000E+00 0. -1.
         23    2    1    2    0    0  0.00000000000E+00  0.00000000000E+00  0.00000000000E+00  0.60000000000E+02  0.60000000000E+02 0.  0.
          5    1    3    3  501    0 -0.21234063934E+01 -0.10020752763E+02 -0.27802619649E+02  0.30000000000E+02  0.47000000000E+01 0. -1.
         -5    1    3    3    0  501  0.21234063934E+01  0.10020752763E+02  0.27802619649E+02  0.30000000000E+02  0.47000000000E+01 0.  1.
</event>
<event>
 5    1  0.7702600E-002  0.6000000E+02  0.7546771E-02  0.1259629E+00
         11   -1    0    0    0    0  0.00000000000E+00  0.00000000000E+00  0.30000000000E+02  0.30000000000E+02  0.00000000000E+00 0.  1.
        -11   -1    0    0    0    0 -0.00000000000E+00 -0.00000000000E+00 -0.30000000000E+02  0.30000000000E+02  0.00000000000E+00 0. -1.
         23    2    1    2    0    0  0.00000000000E+00  0.00000000000E+00  0.00000000000E+00  0.60000000000E+02  0.60000000000E+02 0.  0.
          5    1    3    3  501    0  0.81667183807E+01  0.28366544851E+02 -0.25600476783E+01  0.30000000000E+02  0.47000000000E+01 0. -1.
         -5    1    3    3    0  501 -0.81667183807E+01 -0.28366544851E+02  0.25600476783E+01  0.30000000000E+02  0.47000000000E+01 0.  1.
</event>
<event>
 5    1  0.7702600E-002  0.6000000E+02  0.7546771E-02  0.1259629E+00
         11   -1    0    0    0    0  0.00000000000E+00  0.00000000000E+00  0.30000000000E+02  0.30000000000E+02  0.00000000000E+00 0. -1.
        -11   -1    0    0    0    0 -0.00000000000E+00 -0.00000000000E+00 -0.30000000000E+02  0.30000000000E+02  0.00000000000E+00 0.  1.
         23    2    1    2    0    0  0.00000000000E+00  0.00000000000E+00  0.00000000000E+00  0.60000000000E+02  0.60000000000E+02 0.  0.
          5    1    3    3  501    0  0.27065583159E+02  0.19249201394E+00 -0.12055171300E+02  0.30000000000E+02  0.47000000000E+01 0.  1.
         -5    1    3    3    0  501 -0.27065583159E+02 -0.19249201394E+00  0.12055171300E+02  0.30000000000E+02  0.47000000000E+01 0. -1.
</event>
<event>
 5    1  0.7702600E-002  0.6000000E+02  0.7546771E-02  0.1259629E+00
         11   -1    0    0    0    0  0.00000000000E+00  0.00000000000E+00  0.30000000000E+02  0.30000000000E+02  0.00000000000E+00 0.  1.
        -11   -1    0    0    0    0 -0.00000000000E+00 -0.00000000000E+00 -0.30000000000E+02  0.30000000000E+02  0.00000000000E+00 0. -1.
         23    2    1    2    0    0  0.00000000000E+00  0.00000000000E+00  0.00000000000E+00  0.60000000000E+02  0.60000000000E+02 0.  0.
          5    1    3    3  501    0  0.19634095387E+01 -0.15342690563E+02 -0.25271661387E+02  0.30000000000E+02  0.47000000000E+01 0. -1.
         -5    1    3    3    0  501 -0.19634095387E+01  0.15342690563E+02  0.25271661387E+02  0.30000000000E+02  0.47000000000E+01 0.  1.
</event>
<event>
 5    1  0.7702600E-002  0.6000000E+02  0.7546771E-02  0.1259629E+00
         11   -1    0    0    0    0  0.00000000000E+00  0.00000000000E+00  0.30000000000E+02  0.30000000000E+02  0.00000000000E+00 0.  1.
        -11   -1    0    0    0    0 -0.00000000000E+00 -0.00000000000E+00 -0.30000000000E+02  0.30000000000E+02  0.00000000000E+00 0. -1.
         23    2    1    2    0    0  0.00000000000E+00  0.00000000000E+00  0.00000000000E+00  0.60000000000E+02  0.60000000000E+02 0.  0.
          5    1    3    3  501    0  0.58371482185E+01 -0.28105420951E+02 -0.73432291171E+01  0.30000000000E+02  0.47000000000E+01 0. -1.
         -5    1    3    3    0  501 -0.58371482185E+01  0.28105420951E+02  0.73432291171E+01  0.30000000000E+02  0.47000000000E+01 0.  1.
</event>
<event>
 5    1  0.7702600E-002  0.6000000E+02  0.7546771E-02  0.1259629E+00
         11   -1    0    0    0    0  0.00000000000E+00  0.00000000000E+00  0.30000000000E+02  0.30000000000E+02  0.00000000000E+00 0.  1.
        -11   -1    0    0    0    0 -0.00000000000E+00 -0.00000000000E+00 -0.30000000000E+02  0.30000000000E+02  0.00000000000E+00 0. -1.
         23    2    1    2    0    0  0.00000000000E+00  0.00000000000E+00  0.00000000000E+00  0.60000000000E+02  0.60000000000E+02 0.  0.
          5    1    3    3  501    0  0.11109853062E+02 -0.17524008063E+02 -0.21151602926E+02  0.30000000000E+02  0.47000000000E+01 0. -1.
         -5    1    3    3    0  501 -0.11109853062E+02  0.17524008063E+02  0.21151602926E+02  0.30000000000E+02  0.47000000000E+01 0.  1.
</event>
<event>
 5    1  0.7702600E-002  0.6000000E+02  0.7546771E-02  0.1259629E+00
         11   -1    0    0    0    0  0.00000000000E+00  0.00000000000E+00  0.30000000000E+02  0.30000000000E+02  0.00000000000E+00 0.  1.
        -11   -1    0    0    0    0 -0.00000000000E+00 -0.00000000000E+00 -0.30000000000E+02  0.30000000000E+02  0.00000000000E+00 0. -1.
         23    2    1    2    0    0  0.00000000000E+00  0.00000000000E+00  0.00000000000E+00  0.60000000000E+02  0.60000000000E+02 0.  0.
          5    1    3    3  501    0 -0.14388031328E+02 -0.25852489704E+01 -0.25772292142E+02  0.30000000000E+02  0.47000000000E+01 0. -1.
         -5    1    3    3    0  501  0.14388031328E+02  0.25852489704E+01  0.25772292142E+02  0.30000000000E+02  0.47000000000E+01 0.  1.
</event>
<event>
 5    1  0.7702600E-002  0.6000000E+02  0.7546771E-02  0.1259629E+00
         11   -1    0    0    0    0  0.00000000000E+00  0.00000000000E+00  0.30000000000E+02  0.30000000000E+02  0.00000000000E+00 0.  1.
        -11   -1    0    0    0    0 -0.00000000000E+00 -0.00000000000E+00 -0.30000000000E+02  0.30000000000E+02  0.00000000000E+00 0. -1.
         23    2    1    2    0    0  0.00000000000E+00  0.00000000000E+00  0.00000000000E+00  0.60000000000E+02  0.60000000000E+02 0.  0.
          5    1    3    3  501    0  0.61594598214E+01  0.22617948845E+02  0.18121794745E+02  0.30000000000E+02  0.47000000000E+01 0.  1.
         -5    1    3    3    0  501 -0.61594598214E+01 -0.22617948845E+02 -0.18121794745E+02  0.30000000000E+02  0.47000000000E+01 0. -1.
</event>
<event>
 5    1  0.7702600E-002  0.6000000E+02  0.7546771E-02  0.1259629E+00
         11   -1    0    0    0    0  0.00000000000E+00  0.00000000000E+00  0.30000000000E+02  0.30000000000E+02  0.00000000000E+00 0.  1.
        -11   -1    0    0    0    0 -0.00000000000E+00 -0.00000000000E+00 -0.30000000000E+02  0.30000000000E+02  0.00000000000E+00 0. -1.
         23    2    1    2    0    0  0.00000000000E+00  0.00000000000E+00  0.00000000000E+00  0.60000000000E+02  0.60000000000E+02 0.  0.
          5    1    3    3  501    0 -0.53494915538E+01  0.36566838646E+01 -0.28912308853E+02  0.30000000000E+02  0.47000000000E+01 0. -1.
         -5    1    3    3    0  501  0.53494915538E+01 -0.36566838646E+01  0.28912308853E+02  0.30000000000E+02  0.47000000000E+01 0.  1.
</event>
<event>
 5    1  0.7702600E-002  0.6000000E+02  0.7546771E-02  0.1259629E+00
         11   -1    0    0    0    0  0.00000000000E+00  0.00000000000E+00  0.30000000000E+02  0.30000000000E+02  0.00000000000E+00 0. -1.
        -11   -1    0    0    0    0 -0.00000000000E+00 -0.00000000000E+00 -0.30000000000E+02  0.30000000000E+02  0.00000000000E+00 0.  1.
         23    2    1    2    0    0  0.00000000000E+00  0.00000000000E+00  0.00000000000E+00  0.60000000000E+02  0.60000000000E+02 0.  0.
          5    1    3    3  501    0 -0.29343238038E+01  0.16482037251E+02 -0.24446721496E+02  0.30000000000E+02  0.47000000000E+01 0.  1.
         -5    1    3    3    0  501  0.29343238038E+01 -0.16482037251E+02  0.24446721496E+02  0.30000000000E+02  0.47000000000E+01 0. -1.
</event>
<event>
 5    1  0.7702600E-002  0.6000000E+02  0.7546771E-02  0.1259629E+00
         11   -1    0    0    0    0  0.00000000000E+00  0.00000000000E+00  0.30000000000E+02  0.30000000000E+02  0.00000000000E+00 0.  1.
        -11   -1    0    0    0    0 -0.00000000000E+00 -0.00000000000E+00 -0.30000000000E+02  0.30000000000E+02  0.00000000000E+00 0. -1.
         23    2    1    2    0    0  0.00000000000E+00  0.00000000000E+00  0.00000000000E+00  0.60000000000E+02  0.60000000000E+02 0.  0.
          5    1    3    3  501    0 -0.91396153596E+01 -0.22197571939E+02 -0.17367936869E+02  0.30000000000E+02  0.47000000000E+01 0. -1.
         -5    1    3    3    0  501  0.91396153596E+01  0.22197571939E+02  0.17367936869E+02  0.30000000000E+02  0.47000000000E+01 0.  1.
</event>
<event>
 5    1  0.7702600E-002  0.6000000E+02  0.7546771E-02  0.1259629E+00
         11   -1    0    0    0    0  0.00000000000E+00  0.00000000000E+00  0.30000000000E+02  0.30000000000E+02  0.00000000000E+00 0.  1.
        -11   -1    0    0    0    0 -0.00000000000E+00 -0.00000000000E+00 -0.30000000000E+02  0.30000000000E+02  0.00000000000E+00 0. -1.
         23    2    1    2    0    0  0.00000000000E+00  0.00000000000E+00  0.00000000000E+00  0.60000000000E+02  0.60000000000E+02 0.  0.
          5    1    3    3  501    0 -0.21665268867E+02 -0.19446298001E+02 -0.55106822605E+01  0.30000000000E+02  0.47000000000E+01 0. -1.
         -5    1    3    3    0  501  0.21665268867E+02  0.19446298001E+02  0.55106822605E+01  0.30000000000E+02  0.47000000000E+01 0.  1.
</event>
<event>
 5    1  0.7702600E-002  0.6000000E+02  0.7546771E-02  0.1259629E+00
         11   -1    0    0    0    0  0.00000000000E+00  0.00000000000E+00  0.30000000000E+02  0.30000000000E+02  0.00000000000E+00 0.  1.
        -11   -1    0    0    0    0 -0.00000000000E+00 -0.00000000000E+00 -0.30000000000E+02  0.30000000000E+02  0.00000000000E+00 0. -1.
         23    2    1    2    0    0  0.00000000000E+00  0.00000000000E+00  0.00000000000E+00  0.60000000000E+02  0.60000000000E+02 0.  0.
          5    1    3    3  501    0 -0.93667122138E+01  0.16871387515E+02 -0.22484016226E+02  0.30000000000E+02  0.47000000000E+01 0. -1.
         -5    1    3    3    0  501  0.93667122138E+01 -0.16871387515E+02  0.22484016226E+02  0.30000000000E+02  0.47000000000E+01 0.  1.
</event>
<event>
 5    1  0.7702600E-002  0.6000000E+02  0.7546771E-02  0.1259629E+00
         11   -1    0    0    0    0  0.00000000000E+00  0.00000000000E+00  0.30000000000E+02  0.30000000000E+02  0.00000000000E+00 0.  1.
        -11   -1    0    0    0    0 -0.00000000000E+00 -0.00000000000E+00 -0.30000000000E+02  0.30000000000E+02  0.00000000000E+00 0. -1.
         23    2    1    2    0    0  0.00000000000E+00  0.00000000000E+00  0.00000000000E+00  0.60000000000E+02  0.60000000000E+02 0.  0.
          5    1    3    3  501    0 -0.13292790868E+02  0.82539102809E+01 -0.25161173979E+02  0.30000000000E+02  0.47000000000E+01 0. -1.
         -5    1    3    3    0  501  0.13292790868E+02 -0.82539102809E+01  0.25161173979E+02  0.30000000000E+02  0.47000000000E+01 0.  1.
</event>
<event>
 5    1  0.7702600E-002  0.6000000E+02  0.7546771E-02  0.1259629E+00
         11   -1    0    0    0    0  0.00000000000E+00  0.00000000000E+00  0.30000000000E+02  0.30000000000E+02  0.00000000000E+00 0.  1.
        -11   -1    0    0    0    0 -0.00000000000E+00 -0.00000000000E+00 -0.30000000000E+02  0.30000000000E+02  0.00000000000E+00 0. -1.
         23    2    1    2    0    0  0.00000000000E+00  0.00000000000E+00  0.00000000000E+00  0.60000000000E+02  0.60000000000E+02 0.  0.
          5    1    3    3  501    0  0.26112410823E+02  0.13431792401E+02  0.39546117254E+01  0.30000000000E+02  0.47000000000E+01 0. -1.
         -5    1    3    3    0  501 -0.26112410823E+02 -0.13431792401E+02 -0.39546117254E+01  0.30000000000E+02  0.47000000000E+01 0.  1.
</event>
<event>
 5    1  0.7702600E-002  0.6000000E+02  0.7546771E-02  0.1259629E+00
         11   -1    0    0    0    0  0.00000000000E+00  0.00000000000E+00  0.30000000000E+02  0.30000000000E+02  0.00000000000E+00 0.  1.
        -11   -1    0    0    0    0 -0.00000000000E+00 -0.00000000000E+00 -0.30000000000E+02  0.30000000000E+02  0.00000000000E+00 0. -1.
         23    2    1    2    0    0  0.00000000000E+00  0.00000000000E+00  0.00000000000E+00  0.60000000000E+02  0.60000000000E+02 0.  0.
          5    1    3    3  501    0 -0.20934510336E+02  0.20103874419E+02 -0.59573912369E+01  0.30000000000E+02  0.47000000000E+01 0. -1.
         -5    1    3    3    0  501  0.20934510336E+02 -0.20103874419E+02  0.59573912369E+01  0.30000000000E+02  0.47000000000E+01 0.  1.
</event>
<event>
 5    1  0.7702600E-002  0.6000000E+02  0.7546771E-02  0.1259629E+00
         11   -1    0    0    0    0  0.00000000000E+00  0.00000000000E+00  0.30000000000E+02  0.30000000000E+02  0.00000000000E+00 0.  1.
        -11   -1    0    0    0    0 -0.00000000000E+00 -0.00000000000E+00 -0.30000000000E+02  0.30000000000E+02  0.00000000000E+00 0. -1.
         23    2    1    2    0    0  0.00000000000E+00  0.00000000000E+00  0.00000000000E+00  0.60000000000E+02  0.60000000000E+02 0.  0.
          5    1    3    3  501    0  0.92431762015E+01 -0.22959909470E+02 -0.16288531267E+02  0.30000000000E+02  0.47000000000E+01 0. -1.
         -5    1    3    3    0  501 -0.92431762015E+01  0.22959909470E+02  0.16288531267E+02  0.30000000000E+02  0.47000000000E+01 0.  1.
</event>
<event>
 5    1  0.7702600E-002  0.6000000E+02  0.7546771E-02  0.1259629E+00
         11   -1    0    0    0    0  0.00000000000E+00  0.00000000000E+00  0.30000000000E+02  0.30000000000E+02  0.00000000000E+00 0.  1.
        -11   -1    0    0    0    0 -0.00000000000E+00 -0.00000000000E+00 -0.30000000000E+02  0.30000000000E+02  0.00000000000E+00 0. -1.
         23    2    1    2    0    0  0.00000000000E+00  0.00000000000E+00  0.00000000000E+00  0.60000000000E+02  0.60000000000E+02 0.  0.
          5    1    3    3  501    0 -0.59856983474E+01  0.98964575832E+01  0.27278957872E+02  0.30000000000E+02  0.47000000000E+01 0.  1.
         -5    1    3    3    0  501  0.59856983474E+01 -0.98964575832E+01 -0.27278957872E+02  0.30000000000E+02  0.47000000000E+01 0. -1.
</event>
<event>
 5    1  0.7702600E-002  0.6000000E+02  0.7546771E-02  0.1259629E+00
         11   -1    0    0    0    0  0.00000000000E+00  0.00000000000E+00  0.30000000000E+02  0.30000000000E+02  0.00000000000E+00 0.  1.
        -11   -1    0    0    0    0 -0.00000000000E+00 -0.00000000000E+00 -0.30000000000E+02  0.30000000000E+02  0.00000000000E+00 0. -1.
         23    2    1    2    0    0  0.00000000000E+00  0.00000000000E+00  0.00000000000E+00  0.60000000000E+02  0.60000000000E+02 0.  0.
          5    1    3    3  501    0 -0.76459098236E+01 -0.28307092258E+02 -0.42612898119E+01  0.30000000000E+02  0.47000000000E+01 0. -1.
         -5    1    3    3    0  501  0.76459098236E+01  0.28307092258E+02  0.42612898119E+01  0.30000000000E+02  0.47000000000E+01 0.  1.
</event>
<event>
 5    1  0.7702600E-002  0.6000000E+02  0.7546771E-02  0.1259629E+00
         11   -1    0    0    0    0  0.00000000000E+00  0.00000000000E+00  0.30000000000E+02  0.30000000000E+02  0.00000000000E+00 0.  1.
        -11   -1    0    0    0    0 -0.00000000000E+00 -0.00000000000E+00 -0.30000000000E+02  0.30000000000E+02  0.00000000000E+00 0. -1.
         23    2    1    2    0    0  0.00000000000E+00  0.00000000000E+00  0.00000000000E+00  0.60000000000E+02  0.60000000000E+02 0.  0.
          5    1    3    3  501    0 -0.89672298518E+01  0.13044947809E+02 -0.25046519228E+02  0.30000000000E+02  0.47000000000E+01 0. -1.
         -5    1    3    3    0  501  0.89672298518E+01 -0.13044947809E+02  0.25046519228E+02  0.30000000000E+02  0.47000000000E+01 0.  1.
</event>
<event>
 5    1  0.7702600E-002  0.6000000E+02  0.7546771E-02  0.1259629E+00
         11   -1    0    0    0    0  0.00000000000E+00  0.00000000000E+00  0.30000000000E+02  0.30000000000E+02  0.00000000000E+00 0. -1.
        -11   -1    0    0    0    0 -0.00000000000E+00 -0.00000000000E+00 -0.30000000000E+02  0.30000000000E+02  0.00000000000E+00 0.  1.
         23    2    1    2    0    0  0.00000000000E+00  0.00000000000E+00  0.00000000000E+00  0.60000000000E+02  0.60000000000E+02 0.  0.
          5    1    3    3  501    0  0.19958887313E+01 -0.16957241868E+02 -0.24215250906E+02  0.30000000000E+02  0.47000000000E+01 0.  1.
         -5    1    3    3    0  501 -0.19958887313E+01  0.16957241868E+02  0.24215250906E+02  0.30000000000E+02  0.47000000000E+01 0. -1.
</event>
<event>
 5    1  0.7702600E-002  0.6000000E+02  0.7546771E-02  0.1259629E+00
         11   -1    0    0    0    0  0.00000000000E+00  0.00000000000E+00  0.30000000000E+02  0.30000000000E+02  0.00000000000E+00 0.  1.
        -11   -1    0    0    0    0 -0.00000000000E+00 -0.00000000000E+00 -0.30000000000E+02  0.30000000000E+02  0.00000000000E+00 0. -1.
         23    2    1    2    0    0  0.00000000000E+00  0.00000000000E+00  0.00000000000E+00  0.60000000000E+02  0.60000000000E+02 0.  0.
          5    1    3    3  501    0  0.19539677340E+02  0.46165585173E+01  0.21789869134E+02  0.30000000000E+02  0.47000000000E+01 0.  1.
         -5    1    3    3    0  501 -0.19539677340E+02 -0.46165585173E+01 -0.21789869134E+02  0.30000000000E+02  0.47000000000E+01 0. -1.
</event>
<event>
 5    1  0.7702600E-002  0.6000000E+02  0.7546771E-02  0.1259629E+00
         11   -1    0    0    0    0  0.00000000000E+00  0.00000000000E+00  0.30000000000E+02  0.30000000000E+02  0.00000000000E+00 0.  1.
        -11   -1    0    0    0    0 -0.00000000000E+00 -0.00000000000E+00 -0.30000000000E+02  0.30000000000E+02  0.00000000000E+00 0. -1.
         23    2    1    2    0    0  0.00000000000E+00  0.00000000000E+00  0.00000000000E+00  0.60000000000E+02  0.60000000000E+02 0.  0.
          5    1    3    3  501    0  0.18043534751E+02 -0.21704617469E+02  0.90139022753E+01  0.30000000000E+02  0.47000000000E+01 0.  1.
         -5    1    3    3    0  501 -0.18043534751E+02  0.21704617469E+02 -0.90139022753E+01  0.30000000000E+02  0.47000000000E+01 0. -1.
</event>
<event>
 5    1  0.7702600E-002  0.6000000E+02  0.7546771E-02  0.1259629E+00
         11   -1    0    0    0    0  0.00000000000E+00  0.00000000000E+00  0.30000000000E+02  0.30000000000E+02  0.00000000000E+00 0. -1.
        -11   -1    0    0    0    0 -0.00000000000E+00 -0.00000000000E+00 -0.30000000000E+02  0.30000000000E+02  0.00000000000E+00 0.  1.
         23    2    1    2    0    0  0.00000000000E+00  0.00000000000E+00  0.00000000000E+00  0.60000000000E+02  0.60000000000E+02 0.  0.
          5    1    3    3  501    0  0.11394234199E+02 -0.56283359221E+01 -0.26765710560E+02  0.30000000000E+02  0.47000000000E+01 0.  1.
         -5    1    3    3    0  501 -0.11394234199E+02  0.56283359221E+01  0.26765710560E+02  0.30000000000E+02  0.47000000000E+01 0. -1.
</event>
<event>
 5    1  0.7702600E-002  0.6000000E+02  0.7546771E-02  0.1259629E+00
         11   -1    0    0    0    0  0.00000000000E+00  0.00000000000E+00  0.30000000000E+02  0.30000000000E+02  0.00000000000E+00 0.  1.
        -11   -1    0    0    0    0 -0.00000000000E+00 -0.00000000000E+00 -0.30000000000E+02  0.30000000000E+02  0.00000000000E+00 0. -1.
         23    2    1    2    0    0  0.00000000000E+00  0.00000000000E+00  0.00000000000E+00  0.60000000000E+02  0.60000000000E+02 0.  0.
          5    1    3    3  501    0  0.92183539372E+01  0.28156143464E+02 -0.40439572268E+00  0.30000000000E+02  0.47000000000E+01 0. -1.
         -5    1    3    3    0  501 -0.92183539372E+01 -0.28156143464E+02  0.40439572268E+00  0.30000000000E+02  0.47000000000E+01 0.  1.
</event>
<event>
 5    1  0.7702600E-002  0.6000000E+02  0.7546771E-02  0.1259629E+00
         11   -1    0    0    0    0  0.00000000000E+00  0.00000000000E+00  0.30000000000E+02  0.30000000000E+02  0.00000000000E+00 0.  1.
        -11   -1    0    0    0    0 -0.00000000000E+00 -0.00000000000E+00 -0.30000000000E+02  0.30000000000E+02  0.00000000000E+00 0. -1.
         23    2    1    2    0    0  0.00000000000E+00  0.00000000000E+00  0.00000000000E+00  0.60000000000E+02  0.60000000000E+02 0.  0.
          5    1    3    3  501    0  0.22825697245E+02  0.16074503453E+02 -0.99251138036E+01  0.30000000000E+02  0.47000000000E+01 0. -1.
         -5    1    3    3    0  501 -0.22825697245E+02 -0.16074503453E+02  0.99251138036E+01  0.30000000000E+02  0.47000000000E+01 0.  1.
</event>
<event>
 5    1  0.7702600E-002  0.6000000E+02  0.7546771E-02  0.1259629E+00
         11   -1    0    0    0    0  0.00000000000E+00  0.00000000000E+00  0.30000000000E+02  0.30000000000E+02  0.00000000000E+00 0.  1.
        -11   -1    0    0    0    0 -0.00000000000E+00 -0.00000000000E+00 -0.30000000000E+02  0.30000000000E+02  0.00000000000E+00 0. -1.
         23    2    1    2    0    0  0.00000000000E+00  0.00000000000E+00  0.00000000000E+00  0.60000000000E+02  0.60000000000E+02 0.  0.
          5    1    3    3  501    0 -0.14410063004E+02  0.18185677428E+02 -0.18426644315E+02  0.30000000000E+02  0.47000000000E+01 0. -1.
         -5    1    3    3    0  501  0.14410063004E+02 -0.18185677428E+02  0.18426644315E+02  0.30000000000E+02  0.47000000000E+01 0.  1.
</event>
<event>
 5    1  0.7702600E-002  0.6000000E+02  0.7546771E-02  0.1259629E+00
         11   -1    0    0    0    0  0.00000000000E+00  0.00000000000E+00  0.30000000000E+02  0.30000000000E+02  0.00000000000E+00 0.  1.
        -11   -1    0    0    0    0 -0.00000000000E+00 -0.00000000000E+00 -0.30000000000E+02  0.30000000000E+02  0.00000000000E+00 0. -1.
         23    2    1    2    0    0  0.00000000000E+00  0.00000000000E+00  0.00000000000E+00  0.60000000000E+02  0.60000000000E+02 0.  0.
          5    1    3    3  501    0  0.19514361046E+02 -0.14275103046E+02 -0.17126620974E+02  0.30000000000E+02  0.47000000000E+01 0. -1.
         -5    1    3    3    0  501 -0.19514361046E+02  0.14275103046E+02  0.17126620974E+02  0.30000000000E+02  0.47000000000E+01 0.  1.
</event>
<event>
 5    1  0.7702600E-002  0.6000000E+02  0.7546771E-02  0.1259629E+00
         11   -1    0    0    0    0  0.00000000000E+00  0.00000000000E+00  0.30000000000E+02  0.30000000000E+02  0.00000000000E+00 0.  1.
        -11   -1    0    0    0    0 -0.00000000000E+00 -0.00000000000E+00 -0.30000000000E+02  0.30000000000E+02  0.00000000000E+00 0. -1.
         23    2    1    2    0    0  0.00000000000E+00  0.00000000000E+00  0.00000000000E+00  0.60000000000E+02  0.60000000000E+02 0.  0.
          5    1    3    3  501    0 -0.29150421327E+02  0.53060897216E+01 -0.91369107416E-01  0.30000000000E+02  0.47000000000E+01 0. -1.
         -5    1    3    3    0  501  0.29150421327E+02 -0.53060897216E+01  0.91369107416E-01  0.30000000000E+02  0.47000000000E+01 0.  1.
</event>
<event>
 5    1  0.7702600E-002  0.6000000E+02  0.7546771E-02  0.1259629E+00
         11   -1    0    0    0    0  0.00000000000E+00  0.00000000000E+00  0.30000000000E+02  0.30000000000E+02  0.00000000000E+00 0.  1.
        -11   -1    0    0    0    0 -0.00000000000E+00 -0.00000000000E+00 -0.30000000000E+02  0.30000000000E+02  0.00000000000E+00 0. -1.
         23    2    1    2    0    0  0.00000000000E+00  0.00000000000E+00  0.00000000000E+00  0.60000000000E+02  0.60000000000E+02 0.  0.
          5    1    3    3  501    0 -0.10210213879E+01  0.28115888815E+02 -0.92932400963E+01  0.30000000000E+02  0.47000000000E+01 0. -1.
         -5    1    3    3    0  501  0.10210213879E+01 -0.28115888815E+02  0.92932400963E+01  0.30000000000E+02  0.47000000000E+01 0.  1.
</event>
<event>
 5    1  0.7702600E-002  0.6000000E+02  0.7546771E-02  0.1259629E+00
         11   -1    0    0    0    0  0.00000000000E+00  0.00000000000E+00  0.30000000000E+02  0.30000000000E+02  0.00000000000E+00 0. -1.
        -11   -1    0    0    0    0 -0.00000000000E+00 -0.00000000000E+00 -0.30000000000E+02  0.30000000000E+02  0.00000000000E+00 0.  1.
         23    2    1    2    0    0  0.00000000000E+00  0.00000000000E+00  0.00000000000E+00  0.60000000000E+02  0.60000000000E+02 0.  0.
          5    1    3    3  501    0 -0.14241886971E+02  0.15142244819E+02 -0.21113765116E+02  0.30000000000E+02  0.47000000000E+01 0.  1.
         -5    1    3    3    0  501  0.14241886971E+02 -0.15142244819E+02  0.21113765116E+02  0.30000000000E+02  0.47000000000E+01 0. -1.
</event>
<event>
 5    1  0.7702600E-002  0.6000000E+02  0.7546771E-02  0.1259629E+00
         11   -1    0    0    0    0  0.00000000000E+00  0.00000000000E+00  0.30000000000E+02  0.30000000000E+02  0.00000000000E+00 0.  1.
        -11   -1    0    0    0    0 -0.00000000000E+00 -0.00000000000E+00 -0.30000000000E+02  0.30000000000E+02  0.00000000000E+00 0. -1.
         23    2    1    2    0    0  0.00000000000E+00  0.00000000000E+00  0.00000000000E+00  0.60000000000E+02  0.60000000000E+02 0.  0.
          5    1    3    3  501    0  0.14794048836E+02  0.17893207202E+02 -0.18408673365E+02  0.30000000000E+02  0.47000000000E+01 0. -1.
         -5    1    3    3    0  501 -0.14794048836E+02 -0.17893207202E+02  0.18408673365E+02  0.30000000000E+02  0.47000000000E+01 0.  1.
</event>
<event>
 5    1  0.7702600E-002  0.6000000E+02  0.7546771E-02  0.1259629E+00
         11   -1    0    0    0    0  0.00000000000E+00  0.00000000000E+00  0.30000000000E+02  0.30000000000E+02  0.00000000000E+00 0.  1.
        -11   -1    0    0    0    0 -0.00000000000E+00 -0.00000000000E+00 -0.30000000000E+02  0.30000000000E+02  0.00000000000E+00 0. -1.
         23    2    1    2    0    0  0.00000000000E+00  0.00000000000E+00  0.00000000000E+00  0.60000000000E+02  0.60000000000E+02 0.  0.
          5    1    3    3  501    0 -0.21608067443E+02  0.91522422761E+01 -0.18089717596E+02  0.30000000000E+02  0.47000000000E+01 0. -1.
         -5    1    3    3    0  501  0.21608067443E+02 -0.91522422761E+01  0.18089717596E+02  0.30000000000E+02  0.47000000000E+01 0.  1.
</event>
<event>
 5    1  0.7702600E-002  0.6000000E+02  0.7546771E-02  0.1259629E+00
         11   -1    0    0    0    0  0.00000000000E+00  0.00000000000E+00  0.30000000000E+02  0.30000000000E+02  0.00000000000E+00 0. -1.
        -11   -1    0    0    0    0 -0.00000000000E+00 -0.00000000000E+00 -0.30000000000E+02  0.30000000000E+02  0.00000000000E+00 0.  1.
         23    2    1    2    0    0  0.00000000000E+00  0.00000000000E+00  0.00000000000E+00  0.60000000000E+02  0.60000000000E+02 0.  0.
          5    1    3    3  501    0  0.20629648866E+02  0.65396869071E+01 -0.20237590835E+02  0.30000000000E+02  0.47000000000E+01 0.  1.
         -5    1    3    3    0  501 -0.20629648866E+02 -0.65396869071E+01  0.20237590835E+02  0.30000000000E+02  0.47000000000E+01 0. -1.
</event>
<event>
 5    1  0.7702600E-002  0.6000000E+02  0.7546771E-02  0.1259629E+00
         11   -1    0    0    0    0  0.00000000000E+00  0.00000000000E+00  0.30000000000E+02  0.30000000000E+02  0.00000000000E+00 0. -1.
        -11   -1    0    0    0    0 -0.00000000000E+00 -0.00000000000E+00 -0.30000000000E+02  0.30000000000E+02  0.00000000000E+00 0.  1.
         23    2    1    2    0    0  0.00000000000E+00  0.00000000000E+00  0.00000000000E+00  0.60000000000E+02  0.60000000000E+02 0.  0.
          5    1    3    3  501    0  0.25336087502E+02  0.51944349028E+01  0.14457195998E+02  0.30000000000E+02  0.47000000000E+01 0. -1.
         -5    1    3    3    0  501 -0.25336087502E+02 -0.51944349028E+01 -0.14457195998E+02  0.30000000000E+02  0.47000000000E+01 0.  1.
</event>
<event>
 5    1  0.7702600E-002  0.6000000E+02  0.7546771E-02  0.1259629E+00
         11   -1    0    0    0    0  0.00000000000E+00  0.00000000000E+00  0.30000000000E+02  0.30000000000E+02  0.00000000000E+00 0.  1.
        -11   -1    0    0    0    0 -0.00000000000E+00 -0.00000000000E+00 -0.30000000000E+02  0.30000000000E+02  0.00000000000E+00 0. -1.
         23    2    1    2    0    0  0.00000000000E+00  0.00000000000E+00  0.00000000000E+00  0.60000000000E+02  0.60000000000E+02 0.  0.
          5    1    3    3  501    0 -0.22012048598E+02  0.11831326935E+02  0.15918524413E+02  0.30000000000E+02  0.47000000000E+01 0. -1.
         -5    1    3    3    0  501  0.22012048598E+02 -0.11831326935E+02 -0.15918524413E+02  0.30000000000E+02  0.47000000000E+01 0.  1.
</event>
<event>
 5    1  0.7702600E-002  0.6000000E+02  0.7546771E-02  0.1259629E+00
         11   -1    0    0    0    0  0.00000000000E+00  0.00000000000E+00  0.30000000000E+02  0.30000000000E+02  0.00000000000E+00 0.  1.
        -11   -1    0    0    0    0 -0.00000000000E+00 -0.00000000000E+00 -0.30000000000E+02  0.30000000000E+02  0.00000000000E+00 0. -1.
         23    2    1    2    0    0  0.00000000000E+00  0.00000000000E+00  0.00000000000E+00  0.60000000000E+02  0.60000000000E+02 0.  0.
          5    1    3    3  501    0 -0.15145280186E+02  0.59779202372E+01 -0.24754695670E+02  0.30000000000E+02  0.47000000000E+01 0. -1.
         -5    1    3    3    0  501  0.15145280186E+02 -0.59779202372E+01  0.24754695670E+02  0.30000000000E+02  0.47000000000E+01 0.  1.
</event>
<event>
 5    1  0.7702600E-002  0.6000000E+02  0.7546771E-02  0.1259629E+00
         11   -1    0    0    0    0  0.00000000000E+00  0.00000000000E+00  0.30000000000E+02  0.30000000000E+02  0.00000000000E+00 0. -1.
        -11   -1    0    0    0    0 -0.00000000000E+00 -0.00000000000E+00 -0.30000000000E+02  0.30000000000E+02  0.00000000000E+00 0.  1.
         23    2    1    2    0    0  0.00000000000E+00  0.00000000000E+00  0.00000000000E+00  0.60000000000E+02  0.60000000000E+02 0.  0.
          5    1    3    3  501    0 -0.28145605461E+02  0.21767052697E+01  0.89998248553E+01  0.30000000000E+02  0.47000000000E+01 0. -1.
         -5    1    3    3    0  501  0.28145605461E+02 -0.21767052697E+01 -0.89998248553E+01  0.30000000000E+02  0.47000000000E+01 0.  1.
</event>
<event>
 5    1  0.7702600E-002  0.6000000E+02  0.7546771E-02  0.1259629E+00
         11   -1    0    0    0    0  0.00000000000E+00  0.00000000000E+00  0.30000000000E+02  0.30000000000E+02  0.00000000000E+00 0. -1.
        -11   -1    0    0    0    0 -0.00000000000E+00 -0.00000000000E+00 -0.30000000000E+02  0.30000000000E+02  0.00000000000E+00 0.  1.
         23    2    1    2    0    0  0.00000000000E+00  0.00000000000E+00  0.00000000000E+00  0.60000000000E+02  0.60000000000E+02 0.  0.
          5    1    3    3  501    0 -0.61850874859E+01 -0.30085501461E+01 -0.28820189431E+02  0.30000000000E+02  0.47000000000E+01 0.  1.
         -5    1    3    3    0  501  0.61850874859E+01  0.30085501461E+01  0.28820189431E+02  0.30000000000E+02  0.47000000000E+01 0. -1.
</event>
<event>
 5    1  0.7702600E-002  0.6000000E+02  0.7546771E-02  0.1259629E+00
         11   -1    0    0    0    0  0.00000000000E+00  0.00000000000E+00  0.30000000000E+02  0.30000000000E+02  0.00000000000E+00 0. -1.
        -11   -1    0    0    0    0 -0.00000000000E+00 -0.00000000000E+00 -0.30000000000E+02  0.30000000000E+02  0.00000000000E+00 0.  1.
         23    2    1    2    0    0  0.00000000000E+00  0.00000000000E+00  0.00000000000E+00  0.60000000000E+02  0.60000000000E+02 0.  0.
          5    1    3    3  501    0  0.24702904445E+02  0.14089240841E+01 -0.16300044322E+02  0.30000000000E+02  0.47000000000E+01 0.  1.
         -5    1    3    3    0  501 -0.24702904445E+02 -0.14089240841E+01  0.16300044322E+02  0.30000000000E+02  0.47000000000E+01 0. -1.
</event>
<event>
 5    1  0.7702600E-002  0.6000000E+02  0.7546771E-02  0.1259629E+00
         11   -1    0    0    0    0  0.00000000000E+00  0.00000000000E+00  0.30000000000E+02  0.30000000000E+02  0.00000000000E+00 0.  1.
        -11   -1    0    0    0    0 -0.00000000000E+00 -0.00000000000E+00 -0.30000000000E+02  0.30000000000E+02  0.00000000000E+00 0. -1.
         23    2    1    2    0    0  0.00000000000E+00  0.00000000000E+00  0.00000000000E+00  0.60000000000E+02  0.60000000000E+02 0.  0.
          5    1    3    3  501    0 -0.20027467122E+02 -0.66762007175E+01 -0.20790356050E+02  0.30000000000E+02  0.47000000000E+01 0. -1.
         -5    1    3    3    0  501  0.20027467122E+02  0.66762007175E+01  0.20790356050E+02  0.30000000000E+02  0.47000000000E+01 0.  1.
</event>
<event>
 5    1  0.7702600E-002  0.6000000E+02  0.7546771E-02  0.1259629E+00
         11   -1    0    0    0    0  0.00000000000E+00  0.00000000000E+00  0.30000000000E+02  0.30000000000E+02  0.00000000000E+00 0.  1.
        -11   -1    0    0    0    0 -0.00000000000E+00 -0.00000000000E+00 -0.30000000000E+02  0.30000000000E+02  0.00000000000E+00 0. -1.
         23    2    1    2    0    0  0.00000000000E+00  0.00000000000E+00  0.00000000000E+00  0.60000000000E+02  0.60000000000E+02 0.  0.
          5    1    3    3  501    0  0.29144255991E+02  0.51520292976E+01 -0.14067468934E+01  0.30000000000E+02  0.47000000000E+01 0. -1.
         -5    1    3    3    0  501 -0.29144255991E+02 -0.51520292976E+01  0.14067468934E+01  0.30000000000E+02  0.47000000000E+01 0.  1.
</event>
<event>
 5    1  0.7702600E-002  0.6000000E+02  0.7546771E-02  0.1259629E+00
         11   -1    0    0    0    0  0.00000000000E+00  0.00000000000E+00  0.30000000000E+02  0.30000000000E+02  0.00000000000E+00 0.  1.
        -11   -1    0    0    0    0 -0.00000000000E+00 -0.00000000000E+00 -0.30000000000E+02  0.30000000000E+02  0.00000000000E+00 0. -1.
         23    2    1    2    0    0  0.00000000000E+00  0.00000000000E+00  0.00000000000E+00  0.60000000000E+02  0.60000000000E+02 0.  0.
          5    1    3    3  501    0  0.17217047125E+02  0.27393224855E+01 -0.23957867196E+02  0.30000000000E+02  0.47000000000E+01 0. -1.
         -5    1    3    3    0  501 -0.17217047125E+02 -0.27393224855E+01  0.23957867196E+02  0.30000000000E+02  0.47000000000E+01 0.  1.
</event>
<event>
 5    1  0.7702600E-002  0.6000000E+02  0.7546771E-02  0.1259629E+00
         11   -1    0    0    0    0  0.00000000000E+00  0.00000000000E+00  0.30000000000E+02  0.30000000000E+02  0.00000000000E+00 0.  1.
        -11   -1    0    0    0    0 -0.00000000000E+00 -0.00000000000E+00 -0.30000000000E+02  0.30000000000E+02  0.00000000000E+00 0. -1.
         23    2    1    2    0    0  0.00000000000E+00  0.00000000000E+00  0.00000000000E+00  0.60000000000E+02  0.60000000000E+02 0.  0.
          5    1    3    3  501    0  0.70291654819E+00 -0.28854277062E+02  0.66967606782E+01  0.30000000000E+02  0.47000000000E+01 0. -1.
         -5    1    3    3    0  501 -0.70291654819E+00  0.28854277062E+02 -0.66967606782E+01  0.30000000000E+02  0.47000000000E+01 0.  1.
</event>
<event>
 5    1  0.7702600E-002  0.6000000E+02  0.7546771E-02  0.1259629E+00
         11   -1    0    0    0    0  0.00000000000E+00  0.00000000000E+00  0.30000000000E+02  0.30000000000E+02  0.00000000000E+00 0. -1.
        -11   -1    0    0    0    0 -0.00000000000E+00 -0.00000000000E+00 -0.30000000000E+02  0.30000000000E+02  0.00000000000E+00 0.  1.
         23    2    1    2    0    0  0.00000000000E+00  0.00000000000E+00  0.00000000000E+00  0.60000000000E+02  0.60000000000E+02 0.  0.
          5    1    3    3  501    0  0.20561687128E+01 -0.17578666976E+02 -0.23762841530E+02  0.30000000000E+02  0.47000000000E+01 0.  1.
         -5    1    3    3    0  501 -0.20561687128E+01  0.17578666976E+02  0.23762841530E+02  0.30000000000E+02  0.47000000000E+01 0. -1.
</event>
<event>
 5    1  0.7702600E-002  0.6000000E+02  0.7546771E-02  0.1259629E+00
         11   -1    0    0    0    0  0.00000000000E+00  0.00000000000E+00  0.30000000000E+02  0.30000000000E+02  0.00000000000E+00 0.  1.
        -11   -1    0    0    0    0 -0.00000000000E+00 -0.00000000000E+00 -0.30000000000E+02  0.30000000000E+02  0.00000000000E+00 0. -1.
         23    2    1    2    0    0  0.00000000000E+00  0.00000000000E+00  0.00000000000E+00  0.60000000000E+02  0.60000000000E+02 0.  0.
          5    1    3    3  501    0 -0.88556222016E+01  0.17973786102E+02 -0.21827298701E+02  0.30000000000E+02  0.47000000000E+01 0. -1.
         -5    1    3    3    0  501  0.88556222016E+01 -0.17973786102E+02  0.21827298701E+02  0.30000000000E+02  0.47000000000E+01 0.  1.
</event>
<event>
 5    1  0.7702600E-002  0.6000000E+02  0.7546771E-02  0.1259629E+00
         11   -1    0    0    0    0  0.00000000000E+00  0.00000000000E+00  0.30000000000E+02  0.30000000000E+02  0.00000000000E+00 0.  1.
        -11   -1    0    0    0    0 -0.00000000000E+00 -0.00000000000E+00 -0.30000000000E+02  0.30000000000E+02  0.00000000000E+00 0. -1.
         23    2    1    2    0    0  0.00000000000E+00  0.00000000000E+00  0.00000000000E+00  0.60000000000E+02  0.60000000000E+02 0.  0.
          5    1    3    3  501    0 -0.22790470636E+02  0.11751241571E+02 -0.14846304919E+02  0.30000000000E+02  0.47000000000E+01 0. -1.
         -5    1    3    3    0  501  0.22790470636E+02 -0.11751241571E+02  0.14846304919E+02  0.30000000000E+02  0.47000000000E+01 0.  1.
</event>
<event>
 5    1  0.7702600E-002  0.6000000E+02  0.7546771E-02  0.1259629E+00
         11   -1    0    0    0    0  0.00000000000E+00  0.00000000000E+00  0.30000000000E+02  0.30000000000E+02  0.00000000000E+00 0.  1.
        -11   -1    0    0    0    0 -0.00000000000E+00 -0.00000000000E+00 -0.30000000000E+02  0.30000000000E+02  0.00000000000E+00 0. -1.
         23    2    1    2    0    0  0.00000000000E+00  0.00000000000E+00  0.00000000000E+00  0.60000000000E+02  0.60000000000E+02 0.  0.
          5    1    3    3  501    0  0.28963715383E+02  0.42837193023E+01 -0.45456506853E+01  0.30000000000E+02  0.47000000000E+01 0. -1.
         -5    1    3    3    0  501 -0.28963715383E+02 -0.42837193023E+01  0.45456506853E+01  0.30000000000E+02  0.47000000000E+01 0.  1.
</event>
<event>
 5    1  0.7702600E-002  0.6000000E+02  0.7546771E-02  0.1259629E+00
         11   -1    0    0    0    0  0.00000000000E+00  0.00000000000E+00  0.30000000000E+02  0.30000000000E+02  0.00000000000E+00 0. -1.
        -11   -1    0    0    0    0 -0.00000000000E+00 -0.00000000000E+00 -0.30000000000E+02  0.30000000000E+02  0.00000000000E+00 0.  1.
         23    2    1    2    0    0  0.00000000000E+00  0.00000000000E+00  0.00000000000E+00  0.60000000000E+02  0.60000000000E+02 0.  0.
          5    1    3    3  501    0 -0.77906510720E+01  0.15926468041E+02 -0.23739489708E+02  0.30000000000E+02  0.47000000000E+01 0.  1.
         -5    1    3    3    0  501  0.77906510720E+01 -0.15926468041E+02  0.23739489708E+02  0.30000000000E+02  0.47000000000E+01 0. -1.
</event>
<event>
 5    1  0.7702600E-002  0.6000000E+02  0.7546771E-02  0.1259629E+00
         11   -1    0    0    0    0  0.00000000000E+00  0.00000000000E+00  0.30000000000E+02  0.30000000000E+02  0.00000000000E+00 0.  1.
        -11   -1    0    0    0    0 -0.00000000000E+00 -0.00000000000E+00 -0.30000000000E+02  0.30000000000E+02  0.00000000000E+00 0. -1.
         23    2    1    2    0    0  0.00000000000E+00  0.00000000000E+00  0.00000000000E+00  0.60000000000E+02  0.60000000000E+02 0.  0.
          5    1    3    3  501    0  0.14787712177E+02  0.19953109736E+02 -0.16158805043E+02  0.30000000000E+02  0.47000000000E+01 0. -1.
         -5    1    3    3    0  501 -0.14787712177E+02 -0.19953109736E+02  0.16158805043E+02  0.30000000000E+02  0.47000000000E+01 0.  1.
</event>
<event>
 5    1  0.7702600E-002  0.6000000E+02  0.7546771E-02  0.1259629E+00
         11   -1    0    0    0    0  0.00000000000E+00  0.00000000000E+00  0.30000000000E+02  0.30000000000E+02  0.00000000000E+00 0.  1.
        -11   -1    0    0    0    0 -0.00000000000E+00 -0.00000000000E+00 -0.30000000000E+02  0.30000000000E+02  0.00000000000E+00 0. -1.
         23    2    1    2    0    0  0.00000000000E+00  0.00000000000E+00  0.00000000000E+00  0.60000000000E+02  0.60000000000E+02 0.  0.
          5    1    3    3  501    0 -0.27117718696E+02  0.32761628255E+01 -0.11480683337E+02  0.30000000000E+02  0.47000000000E+01 0. -1.
         -5    1    3    3    0  501  0.27117718696E+02 -0.32761628255E+01  0.11480683337E+02  0.30000000000E+02  0.47000000000E+01 0.  1.
</event>
<event>
 5    1  0.7702600E-002  0.6000000E+02  0.7546771E-02  0.1259629E+00
         11   -1    0    0    0    0  0.00000000000E+00  0.00000000000E+00  0.30000000000E+02  0.30000000000E+02  0.00000000000E+00 0.  1.
        -11   -1    0    0    0    0 -0.00000000000E+00 -0.00000000000E+00 -0.30000000000E+02  0.30000000000E+02  0.00000000000E+00 0. -1.
         23    2    1    2    0    0  0.00000000000E+00  0.00000000000E+00  0.00000000000E+00  0.60000000000E+02  0.60000000000E+02 0.  0.
          5    1    3    3  501    0  0.17965693986E+02  0.21240600583E+02  0.10197094022E+02  0.30000000000E+02  0.47000000000E+01 0. -1.
         -5    1    3    3    0  501 -0.17965693986E+02 -0.21240600583E+02 -0.10197094022E+02  0.30000000000E+02  0.47000000000E+01 0.  1.
</event>
<event>
 5    1  0.7702600E-002  0.6000000E+02  0.7546771E-02  0.1259629E+00
         11   -1    0    0    0    0  0.00000000000E+00  0.00000000000E+00  0.30000000000E+02  0.30000000000E+02  0.00000000000E+00 0.  1.
        -11   -1    0    0    0    0 -0.00000000000E+00 -0.00000000000E+00 -0.30000000000E+02  0.30000000000E+02  0.00000000000E+00 0. -1.
         23    2    1    2    0    0  0.00000000000E+00  0.00000000000E+00  0.00000000000E+00  0.60000000000E+02  0.60000000000E+02 0.  0.
          5    1    3    3  501    0 -0.87871260180E+01 -0.12079173321E+02 -0.25588864536E+02  0.30000000000E+02  0.47000000000E+01 0. -1.
         -5    1    3    3    0  501  0.87871260180E+01  0.12079173321E+02  0.25588864536E+02  0.30000000000E+02  0.47000000000E+01 0.  1.
</event>
<event>
 5    1  0.7702600E-002  0.6000000E+02  0.7546771E-02  0.1259629E+00
         11   -1    0    0    0    0  0.00000000000E+00  0.00000000000E+00  0.30000000000E+02  0.30000000000E+02  0.00000000000E+00 0.  1.
        -11   -1    0    0    0    0 -0.00000000000E+00 -0.00000000000E+00 -0.30000000000E+02  0.30000000000E+02  0.00000000000E+00 0. -1.
         23    2    1    2    0    0  0.00000000000E+00  0.00000000000E+00  0.00000000000E+00  0.60000000000E+02  0.60000000000E+02 0.  0.
          5    1    3    3  501    0 -0.18977640950E+02 -0.20475560104E+02 -0.99252497395E+01  0.30000000000E+02  0.47000000000E+01 0. -1.
         -5    1    3    3    0  501  0.18977640950E+02  0.20475560104E+02  0.99252497395E+01  0.30000000000E+02  0.47000000000E+01 0.  1.
</event>
<event>
 5    1  0.7702600E-002  0.6000000E+02  0.7546771E-02  0.1259629E+00
         11   -1    0    0    0    0  0.00000000000E+00  0.00000000000E+00  0.30000000000E+02  0.30000000000E+02  0.00000000000E+00 0. -1.
        -11   -1    0    0    0    0 -0.00000000000E+00 -0.00000000000E+00 -0.30000000000E+02  0.30000000000E+02  0.00000000000E+00 0.  1.
         23    2    1    2    0    0  0.00000000000E+00  0.00000000000E+00  0.00000000000E+00  0.60000000000E+02  0.60000000000E+02 0.  0.
          5    1    3    3  501    0 -0.26414365215E+02  0.50844301378E+01 -0.12423360272E+02  0.30000000000E+02  0.47000000000E+01 0.  1.
         -5    1    3    3    0  501  0.26414365215E+02 -0.50844301378E+01  0.12423360272E+02  0.30000000000E+02  0.47000000000E+01 0. -1.
</event>
<event>
 5    1  0.7702600E-002  0.6000000E+02  0.7546771E-02  0.1259629E+00
         11   -1    0    0    0    0  0.00000000000E+00  0.00000000000E+00  0.30000000000E+02  0.30000000000E+02  0.00000000000E+00 0.  1.
        -11   -1    0    0    0    0 -0.00000000000E+00 -0.00000000000E+00 -0.30000000000E+02  0.30000000000E+02  0.00000000000E+00 0. -1.
         23    2    1    2    0    0  0.00000000000E+00  0.00000000000E+00  0.00000000000E+00  0.60000000000E+02  0.60000000000E+02 0.  0.
          5    1    3    3  501    0  0.40096266220E+01  0.23306574231E+02  0.17850391927E+02  0.30000000000E+02  0.47000000000E+01 0. -1.
         -5    1    3    3    0  501 -0.40096266220E+01 -0.23306574231E+02 -0.17850391927E+02  0.30000000000E+02  0.47000000000E+01 0.  1.
</event>
<event>
 5    1  0.7702600E-002  0.6000000E+02  0.7546771E-02  0.1259629E+00
         11   -1    0    0    0    0  0.00000000000E+00  0.00000000000E+00  0.30000000000E+02  0.30000000000E+02  0.00000000000E+00 0. -1.
        -11   -1    0    0    0    0 -0.00000000000E+00 -0.00000000000E+00 -0.30000000000E+02  0.30000000000E+02  0.00000000000E+00 0.  1.
         23    2    1    2    0    0  0.00000000000E+00  0.00000000000E+00  0.00000000000E+00  0.60000000000E+02  0.60000000000E+02 0.  0.
          5    1    3    3  501    0 -0.23175709718E+02  0.12429932262E+02  0.13648929006E+02  0.30000000000E+02  0.47000000000E+01 0.  1.
         -5    1    3    3    0  501  0.23175709718E+02 -0.12429932262E+02 -0.13648929006E+02  0.30000000000E+02  0.47000000000E+01 0. -1.
</event>
<event>
 5    1  0.7702600E-002  0.6000000E+02  0.7546771E-02  0.1259629E+00
         11   -1    0    0    0    0  0.00000000000E+00  0.00000000000E+00  0.30000000000E+02  0.30000000000E+02  0.00000000000E+00 0.  1.
        -11   -1    0    0    0    0 -0.00000000000E+00 -0.00000000000E+00 -0.30000000000E+02  0.30000000000E+02  0.00000000000E+00 0. -1.
         23    2    1    2    0    0  0.00000000000E+00  0.00000000000E+00  0.00000000000E+00  0.60000000000E+02  0.60000000000E+02 0.  0.
          5    1    3    3  501    0  0.59513608522E+01 -0.28954410834E+02 -0.20330758142E+01  0.30000000000E+02  0.47000000000E+01 0. -1.
         -5    1    3    3    0  501 -0.59513608522E+01  0.28954410834E+02  0.20330758142E+01  0.30000000000E+02  0.47000000000E+01 0.  1.
</event>
<event>
 5    1  0.7702600E-002  0.6000000E+02  0.7546771E-02  0.1259629E+00
         11   -1    0    0    0    0  0.00000000000E+00  0.00000000000E+00  0.30000000000E+02  0.30000000000E+02  0.00000000000E+00 0.  1.
        -11   -1    0    0    0    0 -0.00000000000E+00 -0.00000000000E+00 -0.30000000000E+02  0.30000000000E+02  0.00000000000E+00 0. -1.
         23    2    1    2    0    0  0.00000000000E+00  0.00000000000E+00  0.00000000000E+00  0.60000000000E+02  0.60000000000E+02 0.  0.
          5    1    3    3  501    0  0.11066973405E+02 -0.18930063756E+02 -0.19926986372E+02  0.30000000000E+02  0.47000000000E+01 0. -1.
         -5    1    3    3    0  501 -0.11066973405E+02  0.18930063756E+02  0.19926986372E+02  0.30000000000E+02  0.47000000000E+01 0.  1.
</event>
<event>
 5    1  0.7702600E-002  0.6000000E+02  0.7546771E-02  0.1259629E+00
         11   -1    0    0    0    0  0.00000000000E+00  0.00000000000E+00  0.30000000000E+02  0.30000000000E+02  0.00000000000E+00 0.  1.
        -11   -1    0    0    0    0 -0.00000000000E+00 -0.00000000000E+00 -0.30000000000E+02  0.30000000000E+02  0.00000000000E+00 0. -1.
         23    2    1    2    0    0  0.00000000000E+00  0.00000000000E+00  0.00000000000E+00  0.60000000000E+02  0.60000000000E+02 0.  0.
          5    1    3    3  501    0  0.15814259159E-01  0.25704446177E+02 -0.14737408071E+02  0.30000000000E+02  0.47000000000E+01 0. -1.
         -5    1    3    3    0  501 -0.15814259159E-01 -0.25704446177E+02  0.14737408071E+02  0.30000000000E+02  0.47000000000E+01 0.  1.
</event>
<event>
 5    1  0.7702600E-002  0.6000000E+02  0.7546771E-02  0.1259629E+00
         11   -1    0    0    0    0  0.00000000000E+00  0.00000000000E+00  0.30000000000E+02  0.30000000000E+02  0.00000000000E+00 0.  1.
        -11   -1    0    0    0    0 -0.00000000000E+00 -0.00000000000E+00 -0.30000000000E+02  0.30000000000E+02  0.00000000000E+00 0. -1.
         23    2    1    2    0    0  0.00000000000E+00  0.00000000000E+00  0.00000000000E+00  0.60000000000E+02  0.60000000000E+02 0.  0.
          5    1    3    3  501    0 -0.13819481773E+02  0.20650663229E+02  0.16139455745E+02  0.30000000000E+02  0.47000000000E+01 0.  1.
         -5    1    3    3    0  501  0.13819481773E+02 -0.20650663229E+02 -0.16139455745E+02  0.30000000000E+02  0.47000000000E+01 0. -1.
</event>
<event>
 5    1  0.7702600E-002  0.6000000E+02  0.7546771E-02  0.1259629E+00
         11   -1    0    0    0    0  0.00000000000E+00  0.00000000000E+00  0.30000000000E+02  0.30000000000E+02  0.00000000000E+00 0.  1.
        -11   -1    0    0    0    0 -0.00000000000E+00 -0.00000000000E+00 -0.30000000000E+02  0.30000000000E+02  0.00000000000E+00 0. -1.
         23    2    1    2    0    0  0.00000000000E+00  0.00000000000E+00  0.00000000000E+00  0.60000000000E+02  0.60000000000E+02 0.  0.
          5    1    3    3  501    0 -0.45156297163E+01  0.96370912677E+01 -0.27652225230E+02  0.30000000000E+02  0.47000000000E+01 0. -1.
         -5    1    3    3    0  501  0.45156297163E+01 -0.96370912677E+01  0.27652225230E+02  0.30000000000E+02  0.47000000000E+01 0.  1.
</event>
<event>
 5    1  0.7702600E-002  0.6000000E+02  0.7546771E-02  0.1259629E+00
         11   -1    0    0    0    0  0.00000000000E+00  0.00000000000E+00  0.30000000000E+02  0.30000000000E+02  0.00000000000E+00 0.  1.
        -11   -1    0    0    0    0 -0.00000000000E+00 -0.00000000000E+00 -0.30000000000E+02  0.30000000000E+02  0.00000000000E+00 0. -1.
         23    2    1    2    0    0  0.00000000000E+00  0.00000000000E+00  0.00000000000E+00  0.60000000000E+02  0.60000000000E+02 0.  0.
          5    1    3    3  501    0 -0.79072599300E+01  0.37724391998E+01 -0.28304662918E+02  0.30000000000E+02  0.47000000000E+01 0. -1.
         -5    1    3    3    0  501  0.79072599300E+01 -0.37724391998E+01  0.28304662918E+02  0.30000000000E+02  0.47000000000E+01 0.  1.
</event>
<event>
 5    1  0.7702600E-002  0.6000000E+02  0.7546771E-02  0.1259629E+00
         11   -1    0    0    0    0  0.00000000000E+00  0.00000000000E+00  0.30000000000E+02  0.30000000000E+02  0.00000000000E+00 0.  1.
        -11   -1    0    0    0    0 -0.00000000000E+00 -0.00000000000E+00 -0.30000000000E+02  0.30000000000E+02  0.00000000000E+00 0. -1.
         23    2    1    2    0    0  0.00000000000E+00  0.00000000000E+00  0.00000000000E+00  0.60000000000E+02  0.60000000000E+02 0.  0.
          5    1    3    3  501    0 -0.16291937691E+02 -0.10895562665E+02 -0.22220924385E+02  0.30000000000E+02  0.47000000000E+01 0. -1.
         -5    1    3    3    0  501  0.16291937691E+02  0.10895562665E+02  0.22220924385E+02  0.30000000000E+02  0.47000000000E+01 0.  1.
</event>
<event>
 5    1  0.7702600E-002  0.6000000E+02  0.7546771E-02  0.1259629E+00
         11   -1    0    0    0    0  0.00000000000E+00  0.00000000000E+00  0.30000000000E+02  0.30000000000E+02  0.00000000000E+00 0.  1.
        -11   -1    0    0    0    0 -0.00000000000E+00 -0.00000000000E+00 -0.30000000000E+02  0.30000000000E+02  0.00000000000E+00 0. -1.
         23    2    1    2    0    0  0.00000000000E+00  0.00000000000E+00  0.00000000000E+00  0.60000000000E+02  0.60000000000E+02 0.  0.
          5    1    3    3  501    0  0.12359484528E+02  0.43524136382E+01 -0.26574605129E+02  0.30000000000E+02  0.47000000000E+01 0. -1.
         -5    1    3    3    0  501 -0.12359484528E+02 -0.43524136382E+01  0.26574605129E+02  0.30000000000E+02  0.47000000000E+01 0.  1.
</event>
<event>
 5    1  0.7702600E-002  0.6000000E+02  0.7546771E-02  0.1259629E+00
         11   -1    0    0    0    0  0.00000000000E+00  0.00000000000E+00  0.30000000000E+02  0.30000000000E+02  0.00000000000E+00 0.  1.
        -11   -1    0    0    0    0 -0.00000000000E+00 -0.00000000000E+00 -0.30000000000E+02  0.30000000000E+02  0.00000000000E+00 0. -1.
         23    2    1    2    0    0  0.00000000000E+00  0.00000000000E+00  0.00000000000E+00  0.60000000000E+02  0.60000000000E+02 0.  0.
          5    1    3    3  501    0  0.10043477895E+02 -0.76642353208E+01 -0.26801082977E+02  0.30000000000E+02  0.47000000000E+01 0. -1.
         -5    1    3    3    0  501 -0.10043477895E+02  0.76642353208E+01  0.26801082977E+02  0.30000000000E+02  0.47000000000E+01 0.  1.
</event>
<event>
 5    1  0.7702600E-002  0.6000000E+02  0.7546771E-02  0.1259629E+00
         11   -1    0    0    0    0  0.00000000000E+00  0.00000000000E+00  0.30000000000E+02  0.30000000000E+02  0.00000000000E+00 0.  1.
        -11   -1    0    0    0    0 -0.00000000000E+00 -0.00000000000E+00 -0.30000000000E+02  0.30000000000E+02  0.00000000000E+00 0. -1.
         23    2    1    2    0    0  0.00000000000E+00  0.00000000000E+00  0.00000000000E+00  0.60000000000E+02  0.60000000000E+02 0.  0.
          5    1    3    3  501    0 -0.91325996919E+01  0.13423443763E+01  0.28154994840E+02  0.30000000000E+02  0.47000000000E+01 0.  1.
         -5    1    3    3    0  501  0.91325996919E+01 -0.13423443763E+01 -0.28154994840E+02  0.30000000000E+02  0.47000000000E+01 0. -1.
</event>
<event>
 5    1  0.7702600E-002  0.6000000E+02  0.7546771E-02  0.1259629E+00
         11   -1    0    0    0    0  0.00000000000E+00  0.00000000000E+00  0.30000000000E+02  0.30000000000E+02  0.00000000000E+00 0. -1.
        -11   -1    0    0    0    0 -0.00000000000E+00 -0.00000000000E+00 -0.30000000000E+02  0.30000000000E+02  0.00000000000E+00 0.  1.
         23    2    1    2    0    0  0.00000000000E+00  0.00000000000E+00  0.00000000000E+00  0.60000000000E+02  0.60000000000E+02 0.  0.
          5    1    3    3  501    0  0.16242697572E+02 -0.23809095918E+02 -0.68710790402E+01  0.30000000000E+02  0.47000000000E+01 0.  1.
         -5    1    3    3    0  501 -0.16242697572E+02  0.23809095918E+02  0.68710790402E+01  0.30000000000E+02  0.47000000000E+01 0. -1.
</event>
<event>
 5    1  0.7702600E-002  0.6000000E+02  0.7546771E-02  0.1259629E+00
         11   -1    0    0    0    0  0.00000000000E+00  0.00000000000E+00  0.30000000000E+02  0.30000000000E+02  0.00000000000E+00 0.  1.
        -11   -1    0    0    0    0 -0.00000000000E+00 -0.00000000000E+00 -0.30000000000E+02  0.30000000000E+02  0.00000000000E+00 0. -1.
         23    2    1    2    0    0  0.00000000000E+00  0.00000000000E+00  0.00000000000E+00  0.60000000000E+02  0.60000000000E+02 0.  0.
          5    1    3    3  501    0 -0.13242991416E+01 -0.13143570730E+02 -0.26521741652E+02  0.30000000000E+02  0.47000000000E+01 0. -1.
         -5    1    3    3    0  501  0.13242991416E+01  0.13143570730E+02  0.26521741652E+02  0.30000000000E+02  0.47000000000E+01 0.  1.
</event>
<event>
 5    1  0.7702600E-002  0.6000000E+02  0.7546771E-02  0.1259629E+00
         11   -1    0    0    0    0  0.00000000000E+00  0.00000000000E+00  0.30000000000E+02  0.30000000000E+02  0.00000000000E+00 0.  1.
        -11   -1    0    0    0    0 -0.00000000000E+00 -0.00000000000E+00 -0.30000000000E+02  0.30000000000E+02  0.00000000000E+00 0. -1.
         23    2    1    2    0    0  0.00000000000E+00  0.00000000000E+00  0.00000000000E+00  0.60000000000E+02  0.60000000000E+02 0.  0.
          5    1    3    3  501    0  0.13037565689E+02  0.88842320143E+01 -0.25079918310E+02  0.30000000000E+02  0.47000000000E+01 0. -1.
         -5    1    3    3    0  501 -0.13037565689E+02 -0.88842320143E+01  0.25079918310E+02  0.30000000000E+02  0.47000000000E+01 0.  1.
</event>
<event>
 5    1  0.7702600E-002  0.6000000E+02  0.7546771E-02  0.1259629E+00
         11   -1    0    0    0    0  0.00000000000E+00  0.00000000000E+00  0.30000000000E+02  0.30000000000E+02  0.00000000000E+00 0.  1.
        -11   -1    0    0    0    0 -0.00000000000E+00 -0.00000000000E+00 -0.30000000000E+02  0.30000000000E+02  0.00000000000E+00 0. -1.
         23    2    1    2    0    0  0.00000000000E+00  0.00000000000E+00  0.00000000000E+00  0.60000000000E+02  0.60000000000E+02 0.  0.
          5    1    3    3  501    0  0.10576634801E+02  0.15835407825E+02 -0.22699882275E+02  0.30000000000E+02  0.47000000000E+01 0. -1.
         -5    1    3    3    0  501 -0.10576634801E+02 -0.15835407825E+02  0.22699882275E+02  0.30000000000E+02  0.47000000000E+01 0.  1.
</event>
<event>
 5    1  0.7702600E-002  0.6000000E+02  0.7546771E-02  0.1259629E+00
         11   -1    0    0    0    0  0.00000000000E+00  0.00000000000E+00  0.30000000000E+02  0.30000000000E+02  0.00000000000E+00 0.  1.
        -11   -1    0    0    0    0 -0.00000000000E+00 -0.00000000000E+00 -0.30000000000E+02  0.30000000000E+02  0.00000000000E+00 0. -1.
         23    2    1    2    0    0  0.00000000000E+00  0.00000000000E+00  0.00000000000E+00  0.60000000000E+02  0.60000000000E+02 0.  0.
          5    1    3    3  501    0  0.85734375774E+01  0.39611938476E+01  0.28084072201E+02  0.30000000000E+02  0.47000000000E+01 0. -1.
         -5    1    3    3    0  501 -0.85734375774E+01 -0.39611938476E+01 -0.28084072201E+02  0.30000000000E+02  0.47000000000E+01 0. -1.
</event>
<event>
 5    1  0.7702600E-002  0.6000000E+02  0.7546771E-02  0.1259629E+00
         11   -1    0    0    0    0  0.00000000000E+00  0.00000000000E+00  0.30000000000E+02  0.30000000000E+02  0.00000000000E+00 0.  1.
        -11   -1    0    0    0    0 -0.00000000000E+00 -0.00000000000E+00 -0.30000000000E+02  0.30000000000E+02  0.00000000000E+00 0. -1.
         23    2    1    2    0    0  0.00000000000E+00  0.00000000000E+00  0.00000000000E+00  0.60000000000E+02  0.60000000000E+02 0.  0.
          5    1    3    3  501    0 -0.16997921155E+02 -0.16068256212E+02 -0.18187683159E+02  0.30000000000E+02  0.47000000000E+01 0. -1.
         -5    1    3    3    0  501  0.16997921155E+02  0.16068256212E+02  0.18187683159E+02  0.30000000000E+02  0.47000000000E+01 0.  1.
</event>
<event>
 5    1  0.7702600E-002  0.6000000E+02  0.7546771E-02  0.1259629E+00
         11   -1    0    0    0    0  0.00000000000E+00  0.00000000000E+00  0.30000000000E+02  0.30000000000E+02  0.00000000000E+00 0.  1.
        -11   -1    0    0    0    0 -0.00000000000E+00 -0.00000000000E+00 -0.30000000000E+02  0.30000000000E+02  0.00000000000E+00 0. -1.
         23    2    1    2    0    0  0.00000000000E+00  0.00000000000E+00  0.00000000000E+00  0.60000000000E+02  0.60000000000E+02 0.  0.
          5    1    3    3  501    0  0.66587992918E+01 -0.22593757524E+01  0.28783078591E+02  0.30000000000E+02  0.47000000000E+01 0.  1.
         -5    1    3    3    0  501 -0.66587992918E+01  0.22593757524E+01 -0.28783078591E+02  0.30000000000E+02  0.47000000000E+01 0. -1.
</event>
<event>
 5    1  0.7702600E-002  0.6000000E+02  0.7546771E-02  0.1259629E+00
         11   -1    0    0    0    0  0.00000000000E+00  0.00000000000E+00  0.30000000000E+02  0.30000000000E+02  0.00000000000E+00 0.  1.
        -11   -1    0    0    0    0 -0.00000000000E+00 -0.00000000000E+00 -0.30000000000E+02  0.30000000000E+02  0.00000000000E+00 0. -1.
         23    2    1    2    0    0  0.00000000000E+00  0.00000000000E+00  0.00000000000E+00  0.60000000000E+02  0.60000000000E+02 0.  0.
          5    1    3    3  501    0  0.24710567309E+02 -0.62721044363E+01 -0.15098296898E+02  0.30000000000E+02  0.47000000000E+01 0. -1.
         -5    1    3    3    0  501 -0.24710567309E+02  0.62721044363E+01  0.15098296898E+02  0.30000000000E+02  0.47000000000E+01 0.  1.
</event>
<event>
 5    1  0.7702600E-002  0.6000000E+02  0.7546771E-02  0.1259629E+00
         11   -1    0    0    0    0  0.00000000000E+00  0.00000000000E+00  0.30000000000E+02  0.30000000000E+02  0.00000000000E+00 0.  1.
        -11   -1    0    0    0    0 -0.00000000000E+00 -0.00000000000E+00 -0.30000000000E+02  0.30000000000E+02  0.00000000000E+00 0. -1.
         23    2    1    2    0    0  0.00000000000E+00  0.00000000000E+00  0.00000000000E+00  0.60000000000E+02  0.60000000000E+02 0.  0.
          5    1    3    3  501    0 -0.25123758430E+02 -0.39546562676E+01 -0.15200903136E+02  0.30000000000E+02  0.47000000000E+01 0. -1.
         -5    1    3    3    0  501  0.25123758430E+02  0.39546562676E+01  0.15200903136E+02  0.30000000000E+02  0.47000000000E+01 0.  1.
</event>
<event>
 5    1  0.7702600E-002  0.6000000E+02  0.7546771E-02  0.1259629E+00
         11   -1    0    0    0    0  0.00000000000E+00  0.00000000000E+00  0.30000000000E+02  0.30000000000E+02  0.00000000000E+00 0. -1.
        -11   -1    0    0    0    0 -0.00000000000E+00 -0.00000000000E+00 -0.30000000000E+02  0.30000000000E+02  0.00000000000E+00 0.  1.
         23    2    1    2    0    0  0.00000000000E+00  0.00000000000E+00  0.00000000000E+00  0.60000000000E+02  0.60000000000E+02 0.  0.
          5    1    3    3  501    0 -0.43192078940E+00  0.72622099912E+01 -0.28722530363E+02  0.30000000000E+02  0.47000000000E+01 0.  1.
         -5    1    3    3    0  501  0.43192078940E+00 -0.72622099912E+01  0.28722530363E+02  0.30000000000E+02  0.47000000000E+01 0. -1.
</event>
<event>
 5    1  0.7702600E-002  0.6000000E+02  0.7546771E-02  0.1259629E+00
         11   -1    0    0    0    0  0.00000000000E+00  0.00000000000E+00  0.30000000000E+02  0.30000000000E+02  0.00000000000E+00 0. -1.
        -11   -1    0    0    0    0 -0.00000000000E+00 -0.00000000000E+00 -0.30000000000E+02  0.30000000000E+02  0.00000000000E+00 0.  1.
         23    2    1    2    0    0  0.00000000000E+00  0.00000000000E+00  0.00000000000E+00  0.60000000000E+02  0.60000000000E+02 0.  0.
          5    1    3    3  501    0  0.27315534995E+02  0.62240721296E+01 -0.96453343156E+01  0.30000000000E+02  0.47000000000E+01 0.  1.
         -5    1    3    3    0  501 -0.27315534995E+02 -0.62240721296E+01  0.96453343156E+01  0.30000000000E+02  0.47000000000E+01 0. -1.
</event>
<event>
 5    1  0.7702600E-002  0.6000000E+02  0.7546771E-02  0.1259629E+00
         11   -1    0    0    0    0  0.00000000000E+00  0.00000000000E+00  0.30000000000E+02  0.30000000000E+02  0.00000000000E+00 0. -1.
        -11   -1    0    0    0    0 -0.00000000000E+00 -0.00000000000E+00 -0.30000000000E+02  0.30000000000E+02  0.00000000000E+00 0.  1.
         23    2    1    2    0    0  0.00000000000E+00  0.00000000000E+00  0.00000000000E+00  0.60000000000E+02  0.60000000000E+02 0.  0.
          5    1    3    3  501    0 -0.77365677684E+01  0.23927440099E+02  0.15669496784E+02  0.30000000000E+02  0.47000000000E+01 0. -1.
         -5    1    3    3    0  501  0.77365677684E+01 -0.23927440099E+02 -0.15669496784E+02  0.30000000000E+02  0.47000000000E+01 0.  1.
</event>
<event>
 5    1  0.7702600E-002  0.6000000E+02  0.7546771E-02  0.1259629E+00
         11   -1    0    0    0    0  0.00000000000E+00  0.00000000000E+00  0.30000000000E+02  0.30000000000E+02  0.00000000000E+00 0.  1.
        -11   -1    0    0    0    0 -0.00000000000E+00 -0.00000000000E+00 -0.30000000000E+02  0.30000000000E+02  0.00000000000E+00 0. -1.
         23    2    1    2    0    0  0.00000000000E+00  0.00000000000E+00  0.00000000000E+00  0.60000000000E+02  0.60000000000E+02 0.  0.
          5    1    3    3  501    0 -0.44161365794E+01  0.39508810399E+01 -0.29030988215E+02  0.30000000000E+02  0.47000000000E+01 0. -1.
         -5    1    3    3    0  501  0.44161365794E+01 -0.39508810399E+01  0.29030988215E+02  0.30000000000E+02  0.47000000000E+01 0.  1.
</event>
<event>
 5    1  0.7702600E-002  0.6000000E+02  0.7546771E-02  0.1259629E+00
         11   -1    0    0    0    0  0.00000000000E+00  0.00000000000E+00  0.30000000000E+02  0.30000000000E+02  0.00000000000E+00 0. -1.
        -11   -1    0    0    0    0 -0.00000000000E+00 -0.00000000000E+00 -0.30000000000E+02  0.30000000000E+02  0.00000000000E+00 0.  1.
         23    2    1    2    0    0  0.00000000000E+00  0.00000000000E+00  0.00000000000E+00  0.60000000000E+02  0.60000000000E+02 0.  0.
          5    1    3    3  501    0  0.17334765754E+02  0.77500550684E+01 -0.22745385086E+02  0.30000000000E+02  0.47000000000E+01 0.  1.
         -5    1    3    3    0  501 -0.17334765754E+02 -0.77500550684E+01  0.22745385086E+02  0.30000000000E+02  0.47000000000E+01 0. -1.
</event>
<event>
 5    1  0.7702600E-002  0.6000000E+02  0.7546771E-02  0.1259629E+00
         11   -1    0    0    0    0  0.00000000000E+00  0.00000000000E+00  0.30000000000E+02  0.30000000000E+02  0.00000000000E+00 0. -1.
        -11   -1    0    0    0    0 -0.00000000000E+00 -0.00000000000E+00 -0.30000000000E+02  0.30000000000E+02  0.00000000000E+00 0.  1.
         23    2    1    2    0    0  0.00000000000E+00  0.00000000000E+00  0.00000000000E+00  0.60000000000E+02  0.60000000000E+02 0.  0.
          5    1    3    3  501    0  0.15078766239E+02 -0.13100432431E+02 -0.21884228998E+02  0.30000000000E+02  0.47000000000E+01 0.  1.
         -5    1    3    3    0  501 -0.15078766239E+02  0.13100432431E+02  0.21884228998E+02  0.30000000000E+02  0.47000000000E+01 0. -1.
</event>
<event>
 5    1  0.7702600E-002  0.6000000E+02  0.7546771E-02  0.1259629E+00
         11   -1    0    0    0    0  0.00000000000E+00  0.00000000000E+00  0.30000000000E+02  0.30000000000E+02  0.00000000000E+00 0. -1.
        -11   -1    0    0    0    0 -0.00000000000E+00 -0.00000000000E+00 -0.30000000000E+02  0.30000000000E+02  0.00000000000E+00 0.  1.
         23    2    1    2    0    0  0.00000000000E+00  0.00000000000E+00  0.00000000000E+00  0.60000000000E+02  0.60000000000E+02 0.  0.
          5    1    3    3  501    0 -0.16035928168E+02  0.76872995425E+01 -0.23699460617E+02  0.30000000000E+02  0.47000000000E+01 0.  1.
         -5    1    3    3    0  501  0.16035928168E+02 -0.76872995425E+01  0.23699460617E+02  0.30000000000E+02  0.47000000000E+01 0. -1.
</event>
<event>
 5    1  0.7702600E-002  0.6000000E+02  0.7546771E-02  0.1259629E+00
         11   -1    0    0    0    0  0.00000000000E+00  0.00000000000E+00  0.30000000000E+02  0.30000000000E+02  0.00000000000E+00 0. -1.
        -11   -1    0    0    0    0 -0.00000000000E+00 -0.00000000000E+00 -0.30000000000E+02  0.30000000000E+02  0.00000000000E+00 0.  1.
         23    2    1    2    0    0  0.00000000000E+00  0.00000000000E+00  0.00000000000E+00  0.60000000000E+02  0.60000000000E+02 0.  0.
          5    1    3    3  501    0 -0.14832732956E+02 -0.24330358711E+02 -0.81199555469E+01  0.30000000000E+02  0.47000000000E+01 0.  1.
         -5    1    3    3    0  501  0.14832732956E+02  0.24330358711E+02  0.81199555469E+01  0.30000000000E+02  0.47000000000E+01 0. -1.
</event>
<event>
 5    1  0.7702600E-002  0.6000000E+02  0.7546771E-02  0.1259629E+00
         11   -1    0    0    0    0  0.00000000000E+00  0.00000000000E+00  0.30000000000E+02  0.30000000000E+02  0.00000000000E+00 0.  1.
        -11   -1    0    0    0    0 -0.00000000000E+00 -0.00000000000E+00 -0.30000000000E+02  0.30000000000E+02  0.00000000000E+00 0. -1.
         23    2    1    2    0    0  0.00000000000E+00  0.00000000000E+00  0.00000000000E+00  0.60000000000E+02  0.60000000000E+02 0.  0.
          5    1    3    3  501    0 -0.68056925593E+01  0.28533972058E+02  0.41719284997E+01  0.30000000000E+02  0.47000000000E+01 0. -1.
         -5    1    3    3    0  501  0.68056925593E+01 -0.28533972058E+02 -0.41719284997E+01  0.30000000000E+02  0.47000000000E+01 0.  1.
</event>
<event>
 5    1  0.7702600E-002  0.6000000E+02  0.7546771E-02  0.1259629E+00
         11   -1    0    0    0    0  0.00000000000E+00  0.00000000000E+00  0.30000000000E+02  0.30000000000E+02  0.00000000000E+00 0.  1.
        -11   -1    0    0    0    0 -0.00000000000E+00 -0.00000000000E+00 -0.30000000000E+02  0.30000000000E+02  0.00000000000E+00 0. -1.
         23    2    1    2    0    0  0.00000000000E+00  0.00000000000E+00  0.00000000000E+00  0.60000000000E+02  0.60000000000E+02 0.  0.
          5    1    3    3  501    0 -0.62790394755E+01 -0.21063100535E+02 -0.19870316029E+02  0.30000000000E+02  0.47000000000E+01 0. -1.
         -5    1    3    3    0  501  0.62790394755E+01  0.21063100535E+02  0.19870316029E+02  0.30000000000E+02  0.47000000000E+01 0.  1.
</event>
<event>
 5    1  0.7702600E-002  0.6000000E+02  0.7546771E-02  0.1259629E+00
         11   -1    0    0    0    0  0.00000000000E+00  0.00000000000E+00  0.30000000000E+02  0.30000000000E+02  0.00000000000E+00 0. -1.
        -11   -1    0    0    0    0 -0.00000000000E+00 -0.00000000000E+00 -0.30000000000E+02  0.30000000000E+02  0.00000000000E+00 0.  1.
         23    2    1    2    0    0  0.00000000000E+00  0.00000000000E+00  0.00000000000E+00  0.60000000000E+02  0.60000000000E+02 0.  0.
          5    1    3    3  501    0 -0.80874555785E+01  0.28399475702E+02  0.24439398714E+01  0.30000000000E+02  0.47000000000E+01 0.  1.
         -5    1    3    3    0  501  0.80874555785E+01 -0.28399475702E+02 -0.24439398714E+01  0.30000000000E+02  0.47000000000E+01 0. -1.
</event>
<event>
 5    1  0.7702600E-002  0.6000000E+02  0.7546771E-02  0.1259629E+00
         11   -1    0    0    0    0  0.00000000000E+00  0.00000000000E+00  0.30000000000E+02  0.30000000000E+02  0.00000000000E+00 0. -1.
        -11   -1    0    0    0    0 -0.00000000000E+00 -0.00000000000E+00 -0.30000000000E+02  0.30000000000E+02  0.00000000000E+00 0.  1.
         23    2    1    2    0    0  0.00000000000E+00  0.00000000000E+00  0.00000000000E+00  0.60000000000E+02  0.60000000000E+02 0.  0.
          5    1    3    3  501    0  0.13470300450E+02 -0.20215681198E+02  0.16964293074E+02  0.30000000000E+02  0.47000000000E+01 0. -1.
         -5    1    3    3    0  501 -0.13470300450E+02  0.20215681198E+02 -0.16964293074E+02  0.30000000000E+02  0.47000000000E+01 0.  1.
</event>
<event>
 5    1  0.7702600E-002  0.6000000E+02  0.7546771E-02  0.1259629E+00
         11   -1    0    0    0    0  0.00000000000E+00  0.00000000000E+00  0.30000000000E+02  0.30000000000E+02  0.00000000000E+00 0.  1.
        -11   -1    0    0    0    0 -0.00000000000E+00 -0.00000000000E+00 -0.30000000000E+02  0.30000000000E+02  0.00000000000E+00 0. -1.
         23    2    1    2    0    0  0.00000000000E+00  0.00000000000E+00  0.00000000000E+00  0.60000000000E+02  0.60000000000E+02 0.  0.
          5    1    3    3  501    0 -0.32638629339E+01 -0.22704493548E+02 -0.18755350476E+02  0.30000000000E+02  0.47000000000E+01 0. -1.
         -5    1    3    3    0  501  0.32638629339E+01  0.22704493548E+02  0.18755350476E+02  0.30000000000E+02  0.47000000000E+01 0.  1.
</event>
<event>
 5    1  0.7702600E-002  0.6000000E+02  0.7546771E-02  0.1259629E+00
         11   -1    0    0    0    0  0.00000000000E+00  0.00000000000E+00  0.30000000000E+02  0.30000000000E+02  0.00000000000E+00 0.  1.
        -11   -1    0    0    0    0 -0.00000000000E+00 -0.00000000000E+00 -0.30000000000E+02  0.30000000000E+02  0.00000000000E+00 0. -1.
         23    2    1    2    0    0  0.00000000000E+00  0.00000000000E+00  0.00000000000E+00  0.60000000000E+02  0.60000000000E+02 0.  0.
          5    1    3    3  501    0 -0.89412469457E+01 -0.27505667177E+02  0.64344678274E+01  0.30000000000E+02  0.47000000000E+01 0. -1.
         -5    1    3    3    0  501  0.89412469457E+01  0.27505667177E+02 -0.64344678274E+01  0.30000000000E+02  0.47000000000E+01 0.  1.
</event>
<event>
 5    1  0.7702600E-002  0.6000000E+02  0.7546771E-02  0.1259629E+00
         11   -1    0    0    0    0  0.00000000000E+00  0.00000000000E+00  0.30000000000E+02  0.30000000000E+02  0.00000000000E+00 0.  1.
        -11   -1    0    0    0    0 -0.00000000000E+00 -0.00000000000E+00 -0.30000000000E+02  0.30000000000E+02  0.00000000000E+00 0. -1.
         23    2    1    2    0    0  0.00000000000E+00  0.00000000000E+00  0.00000000000E+00  0.60000000000E+02  0.60000000000E+02 0.  0.
          5    1    3    3  501    0 -0.17565098243E+02 -0.77944840151E+01 -0.22552679279E+02  0.30000000000E+02  0.47000000000E+01 0. -1.
         -5    1    3    3    0  501  0.17565098243E+02  0.77944840151E+01  0.22552679279E+02  0.30000000000E+02  0.47000000000E+01 0.  1.
</event>
<event>
 5    1  0.7702600E-002  0.6000000E+02  0.7546771E-02  0.1259629E+00
         11   -1    0    0    0    0  0.00000000000E+00  0.00000000000E+00  0.30000000000E+02  0.30000000000E+02  0.00000000000E+00 0.  1.
        -11   -1    0    0    0    0 -0.00000000000E+00 -0.00000000000E+00 -0.30000000000E+02  0.30000000000E+02  0.00000000000E+00 0. -1.
         23    2    1    2    0    0  0.00000000000E+00  0.00000000000E+00  0.00000000000E+00  0.60000000000E+02  0.60000000000E+02 0.  0.
          5    1    3    3  501    0  0.19790637219E+01 -0.87319609832E+01 -0.28244400581E+02  0.30000000000E+02  0.47000000000E+01 0. -1.
         -5    1    3    3    0  501 -0.19790637219E+01  0.87319609832E+01  0.28244400581E+02  0.30000000000E+02  0.47000000000E+01 0.  1.
</event>
<event>
 5    1  0.7702600E-002  0.6000000E+02  0.7546771E-02  0.1259629E+00
         11   -1    0    0    0    0  0.00000000000E+00  0.00000000000E+00  0.30000000000E+02  0.30000000000E+02  0.00000000000E+00 0.  1.
        -11   -1    0    0    0    0 -0.00000000000E+00 -0.00000000000E+00 -0.30000000000E+02  0.30000000000E+02  0.00000000000E+00 0. -1.
         23    2    1    2    0    0  0.00000000000E+00  0.00000000000E+00  0.00000000000E+00  0.60000000000E+02  0.60000000000E+02 0.  0.
          5    1    3    3  501    0  0.11927819041E+02  0.27027983000E+02 -0.22639054510E+01  0.30000000000E+02  0.47000000000E+01 0. -1.
         -5    1    3    3    0  501 -0.11927819041E+02 -0.27027983000E+02  0.22639054510E+01  0.30000000000E+02  0.47000000000E+01 0.  1.
</event>
<event>
 5    1  0.7702600E-002  0.6000000E+02  0.7546771E-02  0.1259629E+00
         11   -1    0    0    0    0  0.00000000000E+00  0.00000000000E+00  0.30000000000E+02  0.30000000000E+02  0.00000000000E+00 0. -1.
        -11   -1    0    0    0    0 -0.00000000000E+00 -0.00000000000E+00 -0.30000000000E+02  0.30000000000E+02  0.00000000000E+00 0.  1.
         23    2    1    2    0    0  0.00000000000E+00  0.00000000000E+00  0.00000000000E+00  0.60000000000E+02  0.60000000000E+02 0.  0.
          5    1    3    3  501    0  0.16962919756E+02  0.19232730881E+02 -0.14841543592E+02  0.30000000000E+02  0.47000000000E+01 0.  1.
         -5    1    3    3    0  501 -0.16962919756E+02 -0.19232730881E+02  0.14841543592E+02  0.30000000000E+02  0.47000000000E+01 0. -1.
</event>
<event>
 5    1  0.7702600E-002  0.6000000E+02  0.7546771E-02  0.1259629E+00
         11   -1    0    0    0    0  0.00000000000E+00  0.00000000000E+00  0.30000000000E+02  0.30000000000E+02  0.00000000000E+00 0.  1.
        -11   -1    0    0    0    0 -0.00000000000E+00 -0.00000000000E+00 -0.30000000000E+02  0.30000000000E+02  0.00000000000E+00 0. -1.
         23    2    1    2    0    0  0.00000000000E+00  0.00000000000E+00  0.00000000000E+00  0.60000000000E+02  0.60000000000E+02 0.  0.
          5    1    3    3  501    0  0.14453706604E+01 -0.26258812315E+02 -0.13649017527E+02  0.30000000000E+02  0.47000000000E+01 0. -1.
         -5    1    3    3    0  501 -0.14453706604E+01  0.26258812315E+02  0.13649017527E+02  0.30000000000E+02  0.47000000000E+01 0.  1.
</event>
<event>
 5    1  0.7702600E-002  0.6000000E+02  0.7546771E-02  0.1259629E+00
         11   -1    0    0    0    0  0.00000000000E+00  0.00000000000E+00  0.30000000000E+02  0.30000000000E+02  0.00000000000E+00 0.  1.
        -11   -1    0    0    0    0 -0.00000000000E+00 -0.00000000000E+00 -0.30000000000E+02  0.30000000000E+02  0.00000000000E+00 0. -1.
         23    2    1    2    0    0  0.00000000000E+00  0.00000000000E+00  0.00000000000E+00  0.60000000000E+02  0.60000000000E+02 0.  0.
          5    1    3    3  501    0  0.17429708298E+02  0.63803262746E+01 -0.23095599262E+02  0.30000000000E+02  0.47000000000E+01 0. -1.
         -5    1    3    3    0  501 -0.17429708298E+02 -0.63803262746E+01  0.23095599262E+02  0.30000000000E+02  0.47000000000E+01 0.  1.
</event>
<event>
 5    1  0.7702600E-002  0.6000000E+02  0.7546771E-02  0.1259629E+00
         11   -1    0    0    0    0  0.00000000000E+00  0.00000000000E+00  0.30000000000E+02  0.30000000000E+02  0.00000000000E+00 0.  1.
        -11   -1    0    0    0    0 -0.00000000000E+00 -0.00000000000E+00 -0.30000000000E+02  0.30000000000E+02  0.00000000000E+00 0. -1.
         23    2    1    2    0    0  0.00000000000E+00  0.00000000000E+00  0.00000000000E+00  0.60000000000E+02  0.60000000000E+02 0.  0.
          5    1    3    3  501    0 -0.19858547633E+01 -0.27612694860E+02 -0.10559614738E+02  0.30000000000E+02  0.47000000000E+01 0. -1.
         -5    1    3    3    0  501  0.19858547633E+01  0.27612694860E+02  0.10559614738E+02  0.30000000000E+02  0.47000000000E+01 0.  1.
</event>
<event>
 5    1  0.7702600E-002  0.6000000E+02  0.7546771E-02  0.1259629E+00
         11   -1    0    0    0    0  0.00000000000E+00  0.00000000000E+00  0.30000000000E+02  0.30000000000E+02  0.00000000000E+00 0.  1.
        -11   -1    0    0    0    0 -0.00000000000E+00 -0.00000000000E+00 -0.30000000000E+02  0.30000000000E+02  0.00000000000E+00 0. -1.
         23    2    1    2    0    0  0.00000000000E+00  0.00000000000E+00  0.00000000000E+00  0.60000000000E+02  0.60000000000E+02 0.  0.
          5    1    3    3  501    0  0.28369701003E+02 -0.63825715704E+01 -0.56861977738E+01  0.30000000000E+02  0.47000000000E+01 0. -1.
         -5    1    3    3    0  501 -0.28369701003E+02  0.63825715704E+01  0.56861977738E+01  0.30000000000E+02  0.47000000000E+01 0.  1.
</event>
<event>
 5    1  0.7702600E-002  0.6000000E+02  0.7546771E-02  0.1259629E+00
         11   -1    0    0    0    0  0.00000000000E+00  0.00000000000E+00  0.30000000000E+02  0.30000000000E+02  0.00000000000E+00 0.  1.
        -11   -1    0    0    0    0 -0.00000000000E+00 -0.00000000000E+00 -0.30000000000E+02  0.30000000000E+02  0.00000000000E+00 0. -1.
         23    2    1    2    0    0  0.00000000000E+00  0.00000000000E+00  0.00000000000E+00  0.60000000000E+02  0.60000000000E+02 0.  0.
          5    1    3    3  501    0 -0.26058166060E+02 -0.11807889884E+02 -0.77107534073E+01  0.30000000000E+02  0.47000000000E+01 0. -1.
         -5    1    3    3    0  501  0.26058166060E+02  0.11807889884E+02  0.77107534073E+01  0.30000000000E+02  0.47000000000E+01 0.  1.
</event>
<event>
 5    1  0.7702600E-002  0.6000000E+02  0.7546771E-02  0.1259629E+00
         11   -1    0    0    0    0  0.00000000000E+00  0.00000000000E+00  0.30000000000E+02  0.30000000000E+02  0.00000000000E+00 0. -1.
        -11   -1    0    0    0    0 -0.00000000000E+00 -0.00000000000E+00 -0.30000000000E+02  0.30000000000E+02  0.00000000000E+00 0.  1.
         23    2    1    2    0    0  0.00000000000E+00  0.00000000000E+00  0.00000000000E+00  0.60000000000E+02  0.60000000000E+02 0.  0.
          5    1    3    3  501    0  0.11917033123E+02 -0.23845286533E+02 -0.12934319917E+02  0.30000000000E+02  0.47000000000E+01 0. -1.
         -5    1    3    3    0  501 -0.11917033123E+02  0.23845286533E+02  0.12934319917E+02  0.30000000000E+02  0.47000000000E+01 0.  1.
</event>
<event>
 5    1  0.7702600E-002  0.6000000E+02  0.7546771E-02  0.1259629E+00
         11   -1    0    0    0    0  0.00000000000E+00  0.00000000000E+00  0.30000000000E+02  0.30000000000E+02  0.00000000000E+00 0.  1.
        -11   -1    0    0    0    0 -0.00000000000E+00 -0.00000000000E+00 -0.30000000000E+02  0.30000000000E+02  0.00000000000E+00 0. -1.
         23    2    1    2    0    0  0.00000000000E+00  0.00000000000E+00  0.00000000000E+00  0.60000000000E+02  0.60000000000E+02 0.  0.
          5    1    3    3  501    0  0.10276126714E+02  0.23157221962E+02 -0.15364058408E+02  0.30000000000E+02  0.47000000000E+01 0. -1.
         -5    1    3    3    0  501 -0.10276126714E+02 -0.23157221962E+02  0.15364058408E+02  0.30000000000E+02  0.47000000000E+01 0.  1.
</event>
<event>
 5    1  0.7702600E-002  0.6000000E+02  0.7546771E-02  0.1259629E+00
         11   -1    0    0    0    0  0.00000000000E+00  0.00000000000E+00  0.30000000000E+02  0.30000000000E+02  0.00000000000E+00 0.  1.
        -11   -1    0    0    0    0 -0.00000000000E+00 -0.00000000000E+00 -0.30000000000E+02  0.30000000000E+02  0.00000000000E+00 0. -1.
         23    2    1    2    0    0  0.00000000000E+00  0.00000000000E+00  0.00000000000E+00  0.60000000000E+02  0.60000000000E+02 0.  0.
          5    1    3    3  501    0  0.12482747196E+02  0.36484119270E+01 -0.26622924574E+02  0.30000000000E+02  0.47000000000E+01 0. -1.
         -5    1    3    3    0  501 -0.12482747196E+02 -0.36484119270E+01  0.26622924574E+02  0.30000000000E+02  0.47000000000E+01 0.  1.
</event>
<event>
 5    1  0.7702600E-002  0.6000000E+02  0.7546771E-02  0.1259629E+00
         11   -1    0    0    0    0  0.00000000000E+00  0.00000000000E+00  0.30000000000E+02  0.30000000000E+02  0.00000000000E+00 0.  1.
        -11   -1    0    0    0    0 -0.00000000000E+00 -0.00000000000E+00 -0.30000000000E+02  0.30000000000E+02  0.00000000000E+00 0. -1.
         23    2    1    2    0    0  0.00000000000E+00  0.00000000000E+00  0.00000000000E+00  0.60000000000E+02  0.60000000000E+02 0.  0.
          5    1    3    3  501    0 -0.77535060678E+01  0.24917488856E+02 -0.14032529807E+02  0.30000000000E+02  0.47000000000E+01 0. -1.
         -5    1    3    3    0  501  0.77535060678E+01 -0.24917488856E+02  0.14032529807E+02  0.30000000000E+02  0.47000000000E+01 0.  1.
</event>
<event>
 5    1  0.7702600E-002  0.6000000E+02  0.7546771E-02  0.1259629E+00
         11   -1    0    0    0    0  0.00000000000E+00  0.00000000000E+00  0.30000000000E+02  0.30000000000E+02  0.00000000000E+00 0.  1.
        -11   -1    0    0    0    0 -0.00000000000E+00 -0.00000000000E+00 -0.30000000000E+02  0.30000000000E+02  0.00000000000E+00 0. -1.
         23    2    1    2    0    0  0.00000000000E+00  0.00000000000E+00  0.00000000000E+00  0.60000000000E+02  0.60000000000E+02 0.  0.
          5    1    3    3  501    0 -0.68080564203E+01  0.27326414828E+02 -0.92101802609E+01  0.30000000000E+02  0.47000000000E+01 0. -1.
         -5    1    3    3    0  501  0.68080564203E+01 -0.27326414828E+02  0.92101802609E+01  0.30000000000E+02  0.47000000000E+01 0.  1.
</event>
<event>
 5    1  0.7702600E-002  0.6000000E+02  0.7546771E-02  0.1259629E+00
         11   -1    0    0    0    0  0.00000000000E+00  0.00000000000E+00  0.30000000000E+02  0.30000000000E+02  0.00000000000E+00 0.  1.
        -11   -1    0    0    0    0 -0.00000000000E+00 -0.00000000000E+00 -0.30000000000E+02  0.30000000000E+02  0.00000000000E+00 0. -1.
         23    2    1    2    0    0  0.00000000000E+00  0.00000000000E+00  0.00000000000E+00  0.60000000000E+02  0.60000000000E+02 0.  0.
          5    1    3    3  501    0  0.27458508517E+02 -0.10964379256E+02 -0.19294293355E+01  0.30000000000E+02  0.47000000000E+01 0.  1.
         -5    1    3    3    0  501 -0.27458508517E+02  0.10964379256E+02  0.19294293355E+01  0.30000000000E+02  0.47000000000E+01 0.  1.
</event>
<event>
 5    1  0.7702600E-002  0.6000000E+02  0.7546771E-02  0.1259629E+00
         11   -1    0    0    0    0  0.00000000000E+00  0.00000000000E+00  0.30000000000E+02  0.30000000000E+02  0.00000000000E+00 0.  1.
        -11   -1    0    0    0    0 -0.00000000000E+00 -0.00000000000E+00 -0.30000000000E+02  0.30000000000E+02  0.00000000000E+00 0. -1.
         23    2    1    2    0    0  0.00000000000E+00  0.00000000000E+00  0.00000000000E+00  0.60000000000E+02  0.60000000000E+02 0.  0.
          5    1    3    3  501    0 -0.80065873033E+01 -0.23248189705E+02 -0.16532581020E+02  0.30000000000E+02  0.47000000000E+01 0. -1.
         -5    1    3    3    0  501  0.80065873033E+01  0.23248189705E+02  0.16532581020E+02  0.30000000000E+02  0.47000000000E+01 0.  1.
</event>
<event>
 5    1  0.7702600E-002  0.6000000E+02  0.7546771E-02  0.1259629E+00
         11   -1    0    0    0    0  0.00000000000E+00  0.00000000000E+00  0.30000000000E+02  0.30000000000E+02  0.00000000000E+00 0. -1.
        -11   -1    0    0    0    0 -0.00000000000E+00 -0.00000000000E+00 -0.30000000000E+02  0.30000000000E+02  0.00000000000E+00 0.  1.
         23    2    1    2    0    0  0.00000000000E+00  0.00000000000E+00  0.00000000000E+00  0.60000000000E+02  0.60000000000E+02 0.  0.
          5    1    3    3  501    0 -0.10836523317E+02 -0.15806606051E+01 -0.27531459723E+02  0.30000000000E+02  0.47000000000E+01 0.  1.
         -5    1    3    3    0  501  0.10836523317E+02  0.15806606051E+01  0.27531459723E+02  0.30000000000E+02  0.47000000000E+01 0. -1.
</event>
<event>
 5    1  0.7702600E-002  0.6000000E+02  0.7546771E-02  0.1259629E+00
         11   -1    0    0    0    0  0.00000000000E+00  0.00000000000E+00  0.30000000000E+02  0.30000000000E+02  0.00000000000E+00 0. -1.
        -11   -1    0    0    0    0 -0.00000000000E+00 -0.00000000000E+00 -0.30000000000E+02  0.30000000000E+02  0.00000000000E+00 0.  1.
         23    2    1    2    0    0  0.00000000000E+00  0.00000000000E+00  0.00000000000E+00  0.60000000000E+02  0.60000000000E+02 0.  0.
          5    1    3    3  501    0  0.78405611672E+01  0.26946009727E+02 -0.95051649320E+01  0.30000000000E+02  0.47000000000E+01 0.  1.
         -5    1    3    3    0  501 -0.78405611672E+01 -0.26946009727E+02  0.95051649320E+01  0.30000000000E+02  0.47000000000E+01 0. -1.
</event>
<event>
 5    1  0.7702600E-002  0.6000000E+02  0.7546771E-02  0.1259629E+00
         11   -1    0    0    0    0  0.00000000000E+00  0.00000000000E+00  0.30000000000E+02  0.30000000000E+02  0.00000000000E+00 0.  1.
        -11   -1    0    0    0    0 -0.00000000000E+00 -0.00000000000E+00 -0.30000000000E+02  0.30000000000E+02  0.00000000000E+00 0. -1.
         23    2    1    2    0    0  0.00000000000E+00  0.00000000000E+00  0.00000000000E+00  0.60000000000E+02  0.60000000000E+02 0.  0.
          5    1    3    3  501    0 -0.12907250039E+02  0.21465053910E+01 -0.26583931444E+02  0.30000000000E+02  0.47000000000E+01 0. -1.
         -5    1    3    3    0  501  0.12907250039E+02 -0.21465053910E+01  0.26583931444E+02  0.30000000000E+02  0.47000000000E+01 0.  1.
</event>
<event>
 5    1  0.7702600E-002  0.6000000E+02  0.7546771E-02  0.1259629E+00
         11   -1    0    0    0    0  0.00000000000E+00  0.00000000000E+00  0.30000000000E+02  0.30000000000E+02  0.00000000000E+00 0.  1.
        -11   -1    0    0    0    0 -0.00000000000E+00 -0.00000000000E+00 -0.30000000000E+02  0.30000000000E+02  0.00000000000E+00 0. -1.
         23    2    1    2    0    0  0.00000000000E+00  0.00000000000E+00  0.00000000000E+00  0.60000000000E+02  0.60000000000E+02 0.  0.
          5    1    3    3  501    0  0.17599216749E+01  0.16005580144E+02 -0.24872355738E+02  0.30000000000E+02  0.47000000000E+01 0. -1.
         -5    1    3    3    0  501 -0.17599216749E+01 -0.16005580144E+02  0.24872355738E+02  0.30000000000E+02  0.47000000000E+01 0.  1.
</event>
<event>
 5    1  0.7702600E-002  0.6000000E+02  0.7546771E-02  0.1259629E+00
         11   -1    0    0    0    0  0.00000000000E+00  0.00000000000E+00  0.30000000000E+02  0.30000000000E+02  0.00000000000E+00 0.  1.
        -11   -1    0    0    0    0 -0.00000000000E+00 -0.00000000000E+00 -0.30000000000E+02  0.30000000000E+02  0.00000000000E+00 0. -1.
         23    2    1    2    0    0  0.00000000000E+00  0.00000000000E+00  0.00000000000E+00  0.60000000000E+02  0.60000000000E+02 0.  0.
          5    1    3    3  501    0  0.82745719717E+01 -0.28364920592E+02 -0.22074280226E+01  0.30000000000E+02  0.47000000000E+01 0.  1.
         -5    1    3    3    0  501 -0.82745719717E+01  0.28364920592E+02  0.22074280226E+01  0.30000000000E+02  0.47000000000E+01 0. -1.
</event>
<event>
 5    1  0.7702600E-002  0.6000000E+02  0.7546771E-02  0.1259629E+00
         11   -1    0    0    0    0  0.00000000000E+00  0.00000000000E+00  0.30000000000E+02  0.30000000000E+02  0.00000000000E+00 0.  1.
        -11   -1    0    0    0    0 -0.00000000000E+00 -0.00000000000E+00 -0.30000000000E+02  0.30000000000E+02  0.00000000000E+00 0. -1.
         23    2    1    2    0    0  0.00000000000E+00  0.00000000000E+00  0.00000000000E+00  0.60000000000E+02  0.60000000000E+02 0.  0.
          5    1    3    3  501    0 -0.10869865106E+02 -0.25412330279E+02 -0.10675649974E+02  0.30000000000E+02  0.47000000000E+01 0. -1.
         -5    1    3    3    0  501  0.10869865106E+02  0.25412330279E+02  0.10675649974E+02  0.30000000000E+02  0.47000000000E+01 0.  1.
</event>
<event>
 5    1  0.7702600E-002  0.6000000E+02  0.7546771E-02  0.1259629E+00
         11   -1    0    0    0    0  0.00000000000E+00  0.00000000000E+00  0.30000000000E+02  0.30000000000E+02  0.00000000000E+00 0. -1.
        -11   -1    0    0    0    0 -0.00000000000E+00 -0.00000000000E+00 -0.30000000000E+02  0.30000000000E+02  0.00000000000E+00 0.  1.
         23    2    1    2    0    0  0.00000000000E+00  0.00000000000E+00  0.00000000000E+00  0.60000000000E+02  0.60000000000E+02 0.  0.
          5    1    3    3  501    0  0.21851618536E+02 -0.14389809334E+02 -0.13905040622E+02  0.30000000000E+02  0.47000000000E+01 0.  1.
         -5    1    3    3    0  501 -0.21851618536E+02  0.14389809334E+02  0.13905040622E+02  0.30000000000E+02  0.47000000000E+01 0. -1.
</event>
<event>
 5    1  0.7702600E-002  0.6000000E+02  0.7546771E-02  0.1259629E+00
         11   -1    0    0    0    0  0.00000000000E+00  0.00000000000E+00  0.30000000000E+02  0.30000000000E+02  0.00000000000E+00 0. -1.
        -11   -1    0    0    0    0 -0.00000000000E+00 -0.00000000000E+00 -0.30000000000E+02  0.30000000000E+02  0.00000000000E+00 0.  1.
         23    2    1    2    0    0  0.00000000000E+00  0.00000000000E+00  0.00000000000E+00  0.60000000000E+02  0.60000000000E+02 0.  0.
          5    1    3    3  501    0  0.11650554122E+02 -0.89141331815E+01  0.25743209168E+02  0.30000000000E+02  0.47000000000E+01 0. -1.
         -5    1    3    3    0  501 -0.11650554122E+02  0.89141331815E+01 -0.25743209168E+02  0.30000000000E+02  0.47000000000E+01 0.  1.
</event>
<event>
 5    1  0.7702600E-002  0.6000000E+02  0.7546771E-02  0.1259629E+00
         11   -1    0    0    0    0  0.00000000000E+00  0.00000000000E+00  0.30000000000E+02  0.30000000000E+02  0.00000000000E+00 0.  1.
        -11   -1    0    0    0    0 -0.00000000000E+00 -0.00000000000E+00 -0.30000000000E+02  0.30000000000E+02  0.00000000000E+00 0. -1.
         23    2    1    2    0    0  0.00000000000E+00  0.00000000000E+00  0.00000000000E+00  0.60000000000E+02  0.60000000000E+02 0.  0.
          5    1    3    3  501    0  0.10979453085E+02  0.63153813407E-01 -0.27520131205E+02  0.30000000000E+02  0.47000000000E+01 0. -1.
         -5    1    3    3    0  501 -0.10979453085E+02 -0.63153813407E-01  0.27520131205E+02  0.30000000000E+02  0.47000000000E+01 0.  1.
</event>
<event>
 5    1  0.7702600E-002  0.6000000E+02  0.7546771E-02  0.1259629E+00
         11   -1    0    0    0    0  0.00000000000E+00  0.00000000000E+00  0.30000000000E+02  0.30000000000E+02  0.00000000000E+00 0.  1.
        -11   -1    0    0    0    0 -0.00000000000E+00 -0.00000000000E+00 -0.30000000000E+02  0.30000000000E+02  0.00000000000E+00 0. -1.
         23    2    1    2    0    0  0.00000000000E+00  0.00000000000E+00  0.00000000000E+00  0.60000000000E+02  0.60000000000E+02 0.  0.
          5    1    3    3  501    0  0.19285225725E+02 -0.20561084726E+02 -0.91231498750E+01  0.30000000000E+02  0.47000000000E+01 0. -1.
         -5    1    3    3    0  501 -0.19285225725E+02  0.20561084726E+02  0.91231498750E+01  0.30000000000E+02  0.47000000000E+01 0.  1.
</event>
<event>
 5    1  0.7702600E-002  0.6000000E+02  0.7546771E-02  0.1259629E+00
         11   -1    0    0    0    0  0.00000000000E+00  0.00000000000E+00  0.30000000000E+02  0.30000000000E+02  0.00000000000E+00 0.  1.
        -11   -1    0    0    0    0 -0.00000000000E+00 -0.00000000000E+00 -0.30000000000E+02  0.30000000000E+02  0.00000000000E+00 0. -1.
         23    2    1    2    0    0  0.00000000000E+00  0.00000000000E+00  0.00000000000E+00  0.60000000000E+02  0.60000000000E+02 0.  0.
          5    1    3    3  501    0  0.15202752565E+02  0.14461186638E+02 -0.20920334497E+02  0.30000000000E+02  0.47000000000E+01 0. -1.
         -5    1    3    3    0  501 -0.15202752565E+02 -0.14461186638E+02  0.20920334497E+02  0.30000000000E+02  0.47000000000E+01 0.  1.
</event>
<event>
 5    1  0.7702600E-002  0.6000000E+02  0.7546771E-02  0.1259629E+00
         11   -1    0    0    0    0  0.00000000000E+00  0.00000000000E+00  0.30000000000E+02  0.30000000000E+02  0.00000000000E+00 0.  1.
        -11   -1    0    0    0    0 -0.00000000000E+00 -0.00000000000E+00 -0.30000000000E+02  0.30000000000E+02  0.00000000000E+00 0. -1.
         23    2    1    2    0    0  0.00000000000E+00  0.00000000000E+00  0.00000000000E+00  0.60000000000E+02  0.60000000000E+02 0.  0.
          5    1    3    3  501    0  0.53845757055E+01  0.27513639714E+02 -0.95872818973E+01  0.30000000000E+02  0.47000000000E+01 0. -1.
         -5    1    3    3    0  501 -0.53845757055E+01 -0.27513639714E+02  0.95872818973E+01  0.30000000000E+02  0.47000000000E+01 0.  1.
</event>
<event>
 5    1  0.7702600E-002  0.6000000E+02  0.7546771E-02  0.1259629E+00
         11   -1    0    0    0    0  0.00000000000E+00  0.00000000000E+00  0.30000000000E+02  0.30000000000E+02  0.00000000000E+00 0.  1.
        -11   -1    0    0    0    0 -0.00000000000E+00 -0.00000000000E+00 -0.30000000000E+02  0.30000000000E+02  0.00000000000E+00 0. -1.
         23    2    1    2    0    0  0.00000000000E+00  0.00000000000E+00  0.00000000000E+00  0.60000000000E+02  0.60000000000E+02 0.  0.
          5    1    3    3  501    0 -0.20178350476E+02  0.62826674640E+01 -0.20767095647E+02  0.30000000000E+02  0.47000000000E+01 0. -1.
         -5    1    3    3    0  501  0.20178350476E+02 -0.62826674640E+01  0.20767095647E+02  0.30000000000E+02  0.47000000000E+01 0.  1.
</event>
<event>
 5    1  0.7702600E-002  0.6000000E+02  0.7546771E-02  0.1259629E+00
         11   -1    0    0    0    0  0.00000000000E+00  0.00000000000E+00  0.30000000000E+02  0.30000000000E+02  0.00000000000E+00 0.  1.
        -11   -1    0    0    0    0 -0.00000000000E+00 -0.00000000000E+00 -0.30000000000E+02  0.30000000000E+02  0.00000000000E+00 0. -1.
         23    2    1    2    0    0  0.00000000000E+00  0.00000000000E+00  0.00000000000E+00  0.60000000000E+02  0.60000000000E+02 0.  0.
          5    1    3    3  501    0  0.23263095816E+02 -0.16076075793E+02 -0.88486247600E+01  0.30000000000E+02  0.47000000000E+01 0. -1.
         -5    1    3    3    0  501 -0.23263095816E+02  0.16076075793E+02  0.88486247600E+01  0.30000000000E+02  0.47000000000E+01 0.  1.
</event>
<event>
 5    1  0.7702600E-002  0.6000000E+02  0.7546771E-02  0.1259629E+00
         11   -1    0    0    0    0  0.00000000000E+00  0.00000000000E+00  0.30000000000E+02  0.30000000000E+02  0.00000000000E+00 0. -1.
        -11   -1    0    0    0    0 -0.00000000000E+00 -0.00000000000E+00 -0.30000000000E+02  0.30000000000E+02  0.00000000000E+00 0.  1.
         23    2    1    2    0    0  0.00000000000E+00  0.00000000000E+00  0.00000000000E+00  0.60000000000E+02  0.60000000000E+02 0.  0.
          5    1    3    3  501    0 -0.11829636202E+02 -0.16047152109E+02 -0.21919366244E+02  0.30000000000E+02  0.47000000000E+01 0.  1.
         -5    1    3    3    0  501  0.11829636202E+02  0.16047152109E+02  0.21919366244E+02  0.30000000000E+02  0.47000000000E+01 0. -1.
</event>
<event>
 5    1  0.7702600E-002  0.6000000E+02  0.7546771E-02  0.1259629E+00
         11   -1    0    0    0    0  0.00000000000E+00  0.00000000000E+00  0.30000000000E+02  0.30000000000E+02  0.00000000000E+00 0. -1.
        -11   -1    0    0    0    0 -0.00000000000E+00 -0.00000000000E+00 -0.30000000000E+02  0.30000000000E+02  0.00000000000E+00 0.  1.
         23    2    1    2    0    0  0.00000000000E+00  0.00000000000E+00  0.00000000000E+00  0.60000000000E+02  0.60000000000E+02 0.  0.
          5    1    3    3  501    0 -0.15209473974E+02 -0.18189821142E+02 -0.17768295030E+02  0.30000000000E+02  0.47000000000E+01 0.  1.
         -5    1    3    3    0  501  0.15209473974E+02  0.18189821142E+02  0.17768295030E+02  0.30000000000E+02  0.47000000000E+01 0. -1.
</event>
<event>
 5    1  0.7702600E-002  0.6000000E+02  0.7546771E-02  0.1259629E+00
         11   -1    0    0    0    0  0.00000000000E+00  0.00000000000E+00  0.30000000000E+02  0.30000000000E+02  0.00000000000E+00 0. -1.
        -11   -1    0    0    0    0 -0.00000000000E+00 -0.00000000000E+00 -0.30000000000E+02  0.30000000000E+02  0.00000000000E+00 0.  1.
         23    2    1    2    0    0  0.00000000000E+00  0.00000000000E+00  0.00000000000E+00  0.60000000000E+02  0.60000000000E+02 0.  0.
          5    1    3    3  501    0  0.20552765221E+01  0.28323916802E+01 -0.29422158245E+02  0.30000000000E+02  0.47000000000E+01 0.  1.
         -5    1    3    3    0  501 -0.20552765221E+01 -0.28323916802E+01  0.29422158245E+02  0.30000000000E+02  0.47000000000E+01 0. -1.
</event>
<event>
 5    1  0.7702600E-002  0.6000000E+02  0.7546771E-02  0.1259629E+00
         11   -1    0    0    0    0  0.00000000000E+00  0.00000000000E+00  0.30000000000E+02  0.30000000000E+02  0.00000000000E+00 0.  1.
        -11   -1    0    0    0    0 -0.00000000000E+00 -0.00000000000E+00 -0.30000000000E+02  0.30000000000E+02  0.00000000000E+00 0. -1.
         23    2    1    2    0    0  0.00000000000E+00  0.00000000000E+00  0.00000000000E+00  0.60000000000E+02  0.60000000000E+02 0.  0.
          5    1    3    3  501    0 -0.27282263990E+02  0.10232303420E+02  0.53747593719E+01  0.30000000000E+02  0.47000000000E+01 0.  1.
         -5    1    3    3    0  501  0.27282263990E+02 -0.10232303420E+02 -0.53747593719E+01  0.30000000000E+02  0.47000000000E+01 0. -1.
</event>
<event>
 5    1  0.7702600E-002  0.6000000E+02  0.7546771E-02  0.1259629E+00
         11   -1    0    0    0    0  0.00000000000E+00  0.00000000000E+00  0.30000000000E+02  0.30000000000E+02  0.00000000000E+00 0.  1.
        -11   -1    0    0    0    0 -0.00000000000E+00 -0.00000000000E+00 -0.30000000000E+02  0.30000000000E+02  0.00000000000E+00 0. -1.
         23    2    1    2    0    0  0.00000000000E+00  0.00000000000E+00  0.00000000000E+00  0.60000000000E+02  0.60000000000E+02 0.  0.
          5    1    3    3  501    0  0.11255503268E+02  0.27195890049E+02  0.34069356687E+01  0.30000000000E+02  0.47000000000E+01 0. -1.
         -5    1    3    3    0  501 -0.11255503268E+02 -0.27195890049E+02 -0.34069356687E+01  0.30000000000E+02  0.47000000000E+01 0.  1.
</event>
<event>
 5    1  0.7702600E-002  0.6000000E+02  0.7546771E-02  0.1259629E+00
         11   -1    0    0    0    0  0.00000000000E+00  0.00000000000E+00  0.30000000000E+02  0.30000000000E+02  0.00000000000E+00 0. -1.
        -11   -1    0    0    0    0 -0.00000000000E+00 -0.00000000000E+00 -0.30000000000E+02  0.30000000000E+02  0.00000000000E+00 0.  1.
         23    2    1    2    0    0  0.00000000000E+00  0.00000000000E+00  0.00000000000E+00  0.60000000000E+02  0.60000000000E+02 0.  0.
          5    1    3    3  501    0  0.36713008006E+01 -0.85113481010E+01  0.28142290311E+02  0.30000000000E+02  0.47000000000E+01 0. -1.
         -5    1    3    3    0  501 -0.36713008006E+01  0.85113481010E+01 -0.28142290311E+02  0.30000000000E+02  0.47000000000E+01 0.  1.
</event>
<event>
 5    1  0.7702600E-002  0.6000000E+02  0.7546771E-02  0.1259629E+00
         11   -1    0    0    0    0  0.00000000000E+00  0.00000000000E+00  0.30000000000E+02  0.30000000000E+02  0.00000000000E+00 0.  1.
        -11   -1    0    0    0    0 -0.00000000000E+00 -0.00000000000E+00 -0.30000000000E+02  0.30000000000E+02  0.00000000000E+00 0. -1.
         23    2    1    2    0    0  0.00000000000E+00  0.00000000000E+00  0.00000000000E+00  0.60000000000E+02  0.60000000000E+02 0.  0.
          5    1    3    3  501    0 -0.60364008640E+01  0.24075037406E+02 -0.16182226006E+02  0.30000000000E+02  0.47000000000E+01 0. -1.
         -5    1    3    3    0  501  0.60364008640E+01 -0.24075037406E+02  0.16182226006E+02  0.30000000000E+02  0.47000000000E+01 0.  1.
</event>
<event>
 5    1  0.7702600E-002  0.6000000E+02  0.7546771E-02  0.1259629E+00
         11   -1    0    0    0    0  0.00000000000E+00  0.00000000000E+00  0.30000000000E+02  0.30000000000E+02  0.00000000000E+00 0. -1.
        -11   -1    0    0    0    0 -0.00000000000E+00 -0.00000000000E+00 -0.30000000000E+02  0.30000000000E+02  0.00000000000E+00 0.  1.
         23    2    1    2    0    0  0.00000000000E+00  0.00000000000E+00  0.00000000000E+00  0.60000000000E+02  0.60000000000E+02 0.  0.
          5    1    3    3  501    0 -0.64820572874E+01 -0.28855191223E+02 -0.18085554409E+01  0.30000000000E+02  0.47000000000E+01 0.  1.
         -5    1    3    3    0  501  0.64820572874E+01  0.28855191223E+02  0.18085554409E+01  0.30000000000E+02  0.47000000000E+01 0. -1.
</event>
<event>
 5    1  0.7702600E-002  0.6000000E+02  0.7546771E-02  0.1259629E+00
         11   -1    0    0    0    0  0.00000000000E+00  0.00000000000E+00  0.30000000000E+02  0.30000000000E+02  0.00000000000E+00 0.  1.
        -11   -1    0    0    0    0 -0.00000000000E+00 -0.00000000000E+00 -0.30000000000E+02  0.30000000000E+02  0.00000000000E+00 0. -1.
         23    2    1    2    0    0  0.00000000000E+00  0.00000000000E+00  0.00000000000E+00  0.60000000000E+02  0.60000000000E+02 0.  0.
          5    1    3    3  501    0  0.89610410653E+00  0.11625219344E+02 -0.27238966071E+02  0.30000000000E+02  0.47000000000E+01 0. -1.
         -5    1    3    3    0  501 -0.89610410653E+00 -0.11625219344E+02  0.27238966071E+02  0.30000000000E+02  0.47000000000E+01 0.  1.
</event>
<event>
 5    1  0.7702600E-002  0.6000000E+02  0.7546771E-02  0.1259629E+00
         11   -1    0    0    0    0  0.00000000000E+00  0.00000000000E+00  0.30000000000E+02  0.30000000000E+02  0.00000000000E+00 0. -1.
        -11   -1    0    0    0    0 -0.00000000000E+00 -0.00000000000E+00 -0.30000000000E+02  0.30000000000E+02  0.00000000000E+00 0.  1.
         23    2    1    2    0    0  0.00000000000E+00  0.00000000000E+00  0.00000000000E+00  0.60000000000E+02  0.60000000000E+02 0.  0.
          5    1    3    3  501    0  0.96876251792E+01  0.23005146272E+02 -0.15963181493E+02  0.30000000000E+02  0.47000000000E+01 0.  1.
         -5    1    3    3    0  501 -0.96876251792E+01 -0.23005146272E+02  0.15963181493E+02  0.30000000000E+02  0.47000000000E+01 0. -1.
</event>
<event>
 5    1  0.7702600E-002  0.6000000E+02  0.7546771E-02  0.1259629E+00
         11   -1    0    0    0    0  0.00000000000E+00  0.00000000000E+00  0.30000000000E+02  0.30000000000E+02  0.00000000000E+00 0.  1.
        -11   -1    0    0    0    0 -0.00000000000E+00 -0.00000000000E+00 -0.30000000000E+02  0.30000000000E+02  0.00000000000E+00 0. -1.
         23    2    1    2    0    0  0.00000000000E+00  0.00000000000E+00  0.00000000000E+00  0.60000000000E+02  0.60000000000E+02 0.  0.
          5    1    3    3  501    0 -0.24953519244E+02 -0.13545611804E+02 -0.84704355377E+01  0.30000000000E+02  0.47000000000E+01 0. -1.
         -5    1    3    3    0  501  0.24953519244E+02  0.13545611804E+02  0.84704355377E+01  0.30000000000E+02  0.47000000000E+01 0.  1.
</event>
<event>
 5    1  0.7702600E-002  0.6000000E+02  0.7546771E-02  0.1259629E+00
         11   -1    0    0    0    0  0.00000000000E+00  0.00000000000E+00  0.30000000000E+02  0.30000000000E+02  0.00000000000E+00 0.  1.
        -11   -1    0    0    0    0 -0.00000000000E+00 -0.00000000000E+00 -0.30000000000E+02  0.30000000000E+02  0.00000000000E+00 0. -1.
         23    2    1    2    0    0  0.00000000000E+00  0.00000000000E+00  0.00000000000E+00  0.60000000000E+02  0.60000000000E+02 0.  0.
          5    1    3    3  501    0  0.10977516539E+01  0.13231196392E+02 -0.26488495302E+02  0.30000000000E+02  0.47000000000E+01 0. -1.
         -5    1    3    3    0  501 -0.10977516539E+01 -0.13231196392E+02  0.26488495302E+02  0.30000000000E+02  0.47000000000E+01 0.  1.
</event>
<event>
 5    1  0.7702600E-002  0.6000000E+02  0.7546771E-02  0.1259629E+00
         11   -1    0    0    0    0  0.00000000000E+00  0.00000000000E+00  0.30000000000E+02  0.30000000000E+02  0.00000000000E+00 0.  1.
        -11   -1    0    0    0    0 -0.00000000000E+00 -0.00000000000E+00 -0.30000000000E+02  0.30000000000E+02  0.00000000000E+00 0. -1.
         23    2    1    2    0    0  0.00000000000E+00  0.00000000000E+00  0.00000000000E+00  0.60000000000E+02  0.60000000000E+02 0.  0.
          5    1    3    3  501    0  0.20857617110E+02 -0.34295158431E+01 -0.20763145946E+02  0.30000000000E+02  0.47000000000E+01 0. -1.
         -5    1    3    3    0  501 -0.20857617110E+02  0.34295158431E+01  0.20763145946E+02  0.30000000000E+02  0.47000000000E+01 0.  1.
</event>
<event>
 5    1  0.7702600E-002  0.6000000E+02  0.7546771E-02  0.1259629E+00
         11   -1    0    0    0    0  0.00000000000E+00  0.00000000000E+00  0.30000000000E+02  0.30000000000E+02  0.00000000000E+00 0. -1.
        -11   -1    0    0    0    0 -0.00000000000E+00 -0.00000000000E+00 -0.30000000000E+02  0.30000000000E+02  0.00000000000E+00 0.  1.
         23    2    1    2    0    0  0.00000000000E+00  0.00000000000E+00  0.00000000000E+00  0.60000000000E+02  0.60000000000E+02 0.  0.
          5    1    3    3  501    0  0.17438936177E+02 -0.17463044667E+02  0.16396206146E+02  0.30000000000E+02  0.47000000000E+01 0. -1.
         -5    1    3    3    0  501 -0.17438936177E+02  0.17463044667E+02 -0.16396206146E+02  0.30000000000E+02  0.47000000000E+01 0.  1.
</event>
<event>
 5    1  0.7702600E-002  0.6000000E+02  0.7546771E-02  0.1259629E+00
         11   -1    0    0    0    0  0.00000000000E+00  0.00000000000E+00  0.30000000000E+02  0.30000000000E+02  0.00000000000E+00 0. -1.
        -11   -1    0    0    0    0 -0.00000000000E+00 -0.00000000000E+00 -0.30000000000E+02  0.30000000000E+02  0.00000000000E+00 0.  1.
         23    2    1    2    0    0  0.00000000000E+00  0.00000000000E+00  0.00000000000E+00  0.60000000000E+02  0.60000000000E+02 0.  0.
          5    1    3    3  501    0  0.30137918799E+01  0.43751089311E+01 -0.29149365008E+02  0.30000000000E+02  0.47000000000E+01 0.  1.
         -5    1    3    3    0  501 -0.30137918799E+01 -0.43751089311E+01  0.29149365008E+02  0.30000000000E+02  0.47000000000E+01 0. -1.
</event>
<event>
 5    1  0.7702600E-002  0.6000000E+02  0.7546771E-02  0.1259629E+00
         11   -1    0    0    0    0  0.00000000000E+00  0.00000000000E+00  0.30000000000E+02  0.30000000000E+02  0.00000000000E+00 0.  1.
        -11   -1    0    0    0    0 -0.00000000000E+00 -0.00000000000E+00 -0.30000000000E+02  0.30000000000E+02  0.00000000000E+00 0. -1.
         23    2    1    2    0    0  0.00000000000E+00  0.00000000000E+00  0.00000000000E+00  0.60000000000E+02  0.60000000000E+02 0.  0.
          5    1    3    3  501    0  0.29825156500E+01 -0.96359218482E+01 -0.27859713038E+02  0.30000000000E+02  0.47000000000E+01 0. -1.
         -5    1    3    3    0  501 -0.29825156500E+01  0.96359218482E+01  0.27859713038E+02  0.30000000000E+02  0.47000000000E+01 0.  1.
</event>
<event>
 5    1  0.7702600E-002  0.6000000E+02  0.7546771E-02  0.1259629E+00
         11   -1    0    0    0    0  0.00000000000E+00  0.00000000000E+00  0.30000000000E+02  0.30000000000E+02  0.00000000000E+00 0.  1.
        -11   -1    0    0    0    0 -0.00000000000E+00 -0.00000000000E+00 -0.30000000000E+02  0.30000000000E+02  0.00000000000E+00 0. -1.
         23    2    1    2    0    0  0.00000000000E+00  0.00000000000E+00  0.00000000000E+00  0.60000000000E+02  0.60000000000E+02 0.  0.
          5    1    3    3  501    0 -0.27841842060E+02 -0.10131276318E+02  0.31475524575E+00  0.30000000000E+02  0.47000000000E+01 0. -1.
         -5    1    3    3    0  501  0.27841842060E+02  0.10131276318E+02 -0.31475524575E+00  0.30000000000E+02  0.47000000000E+01 0.  1.
</event>
<event>
 5    1  0.7702600E-002  0.6000000E+02  0.7546771E-02  0.1259629E+00
         11   -1    0    0    0    0  0.00000000000E+00  0.00000000000E+00  0.30000000000E+02  0.30000000000E+02  0.00000000000E+00 0. -1.
        -11   -1    0    0    0    0 -0.00000000000E+00 -0.00000000000E+00 -0.30000000000E+02  0.30000000000E+02  0.00000000000E+00 0.  1.
         23    2    1    2    0    0  0.00000000000E+00  0.00000000000E+00  0.00000000000E+00  0.60000000000E+02  0.60000000000E+02 0.  0.
          5    1    3    3  501    0  0.29610406188E+02  0.61122921833E+00  0.87191985259E+00  0.30000000000E+02  0.47000000000E+01 0.  1.
         -5    1    3    3    0  501 -0.29610406188E+02 -0.61122921833E+00 -0.87191985259E+00  0.30000000000E+02  0.47000000000E+01 0. -1.
</event>
<event>
 5    1  0.7702600E-002  0.6000000E+02  0.7546771E-02  0.1259629E+00
         11   -1    0    0    0    0  0.00000000000E+00  0.00000000000E+00  0.30000000000E+02  0.30000000000E+02  0.00000000000E+00 0.  1.
        -11   -1    0    0    0    0 -0.00000000000E+00 -0.00000000000E+00 -0.30000000000E+02  0.30000000000E+02  0.00000000000E+00 0. -1.
         23    2    1    2    0    0  0.00000000000E+00  0.00000000000E+00  0.00000000000E+00  0.60000000000E+02  0.60000000000E+02 0.  0.
          5    1    3    3  501    0  0.28653880803E+02 -0.20511329850E+01 -0.72565810428E+01  0.30000000000E+02  0.47000000000E+01 0. -1.
         -5    1    3    3    0  501 -0.28653880803E+02  0.20511329850E+01  0.72565810428E+01  0.30000000000E+02  0.47000000000E+01 0.  1.
</event>
<event>
 5    1  0.7702600E-002  0.6000000E+02  0.7546771E-02  0.1259629E+00
         11   -1    0    0    0    0  0.00000000000E+00  0.00000000000E+00  0.30000000000E+02  0.30000000000E+02  0.00000000000E+00 0.  1.
        -11   -1    0    0    0    0 -0.00000000000E+00 -0.00000000000E+00 -0.30000000000E+02  0.30000000000E+02  0.00000000000E+00 0. -1.
         23    2    1    2    0    0  0.00000000000E+00  0.00000000000E+00  0.00000000000E+00  0.60000000000E+02  0.60000000000E+02 0.  0.
          5    1    3    3  501    0  0.25752202912E+02 -0.13109209729E+02 -0.65484857376E+01  0.30000000000E+02  0.47000000000E+01 0. -1.
         -5    1    3    3    0  501 -0.25752202912E+02  0.13109209729E+02  0.65484857376E+01  0.30000000000E+02  0.47000000000E+01 0.  1.
</event>
<event>
 5    1  0.7702600E-002  0.6000000E+02  0.7546771E-02  0.1259629E+00
         11   -1    0    0    0    0  0.00000000000E+00  0.00000000000E+00  0.30000000000E+02  0.30000000000E+02  0.00000000000E+00 0.  1.
        -11   -1    0    0    0    0 -0.00000000000E+00 -0.00000000000E+00 -0.30000000000E+02  0.30000000000E+02  0.00000000000E+00 0. -1.
         23    2    1    2    0    0  0.00000000000E+00  0.00000000000E+00  0.00000000000E+00  0.60000000000E+02  0.60000000000E+02 0.  0.
          5    1    3    3  501    0 -0.18656408920E+01 -0.23004250294E+02 -0.18580469652E+02  0.30000000000E+02  0.47000000000E+01 0. -1.
         -5    1    3    3    0  501  0.18656408920E+01  0.23004250294E+02  0.18580469652E+02  0.30000000000E+02  0.47000000000E+01 0.  1.
</event>
<event>
 5    1  0.7702600E-002  0.6000000E+02  0.7546771E-02  0.1259629E+00
         11   -1    0    0    0    0  0.00000000000E+00  0.00000000000E+00  0.30000000000E+02  0.30000000000E+02  0.00000000000E+00 0.  1.
        -11   -1    0    0    0    0 -0.00000000000E+00 -0.00000000000E+00 -0.30000000000E+02  0.30000000000E+02  0.00000000000E+00 0. -1.
         23    2    1    2    0    0  0.00000000000E+00  0.00000000000E+00  0.00000000000E+00  0.60000000000E+02  0.60000000000E+02 0.  0.
          5    1    3    3  501    0  0.10705372914E+02  0.28378441994E+01 -0.27481841843E+02  0.30000000000E+02  0.47000000000E+01 0. -1.
         -5    1    3    3    0  501 -0.10705372914E+02 -0.28378441994E+01  0.27481841843E+02  0.30000000000E+02  0.47000000000E+01 0.  1.
</event>
<event>
 5    1  0.7702600E-002  0.6000000E+02  0.7546771E-02  0.1259629E+00
         11   -1    0    0    0    0  0.00000000000E+00  0.00000000000E+00  0.30000000000E+02  0.30000000000E+02  0.00000000000E+00 0.  1.
        -11   -1    0    0    0    0 -0.00000000000E+00 -0.00000000000E+00 -0.30000000000E+02  0.30000000000E+02  0.00000000000E+00 0. -1.
         23    2    1    2    0    0  0.00000000000E+00  0.00000000000E+00  0.00000000000E+00  0.60000000000E+02  0.60000000000E+02 0.  0.
          5    1    3    3  501    0 -0.16509578100E+02  0.21236627237E-02  0.24603736026E+02  0.30000000000E+02  0.47000000000E+01 0.  1.
         -5    1    3    3    0  501  0.16509578100E+02 -0.21236627237E-02 -0.24603736026E+02  0.30000000000E+02  0.47000000000E+01 0. -1.
</event>
<event>
 5    1  0.7702600E-002  0.6000000E+02  0.7546771E-02  0.1259629E+00
         11   -1    0    0    0    0  0.00000000000E+00  0.00000000000E+00  0.30000000000E+02  0.30000000000E+02  0.00000000000E+00 0. -1.
        -11   -1    0    0    0    0 -0.00000000000E+00 -0.00000000000E+00 -0.30000000000E+02  0.30000000000E+02  0.00000000000E+00 0.  1.
         23    2    1    2    0    0  0.00000000000E+00  0.00000000000E+00  0.00000000000E+00  0.60000000000E+02  0.60000000000E+02 0.  0.
          5    1    3    3  501    0 -0.13780921105E+02  0.26229173692E+02  0.16328176419E+00  0.30000000000E+02  0.47000000000E+01 0. -1.
         -5    1    3    3    0  501  0.13780921105E+02 -0.26229173692E+02 -0.16328176419E+00  0.30000000000E+02  0.47000000000E+01 0.  1.
</event>
<event>
 5    1  0.7702600E-002  0.6000000E+02  0.7546771E-02  0.1259629E+00
         11   -1    0    0    0    0  0.00000000000E+00  0.00000000000E+00  0.30000000000E+02  0.30000000000E+02  0.00000000000E+00 0.  1.
        -11   -1    0    0    0    0 -0.00000000000E+00 -0.00000000000E+00 -0.30000000000E+02  0.30000000000E+02  0.00000000000E+00 0. -1.
         23    2    1    2    0    0  0.00000000000E+00  0.00000000000E+00  0.00000000000E+00  0.60000000000E+02  0.60000000000E+02 0.  0.
          5    1    3    3  501    0 -0.15913152331E+02 -0.14069136468E+02 -0.20657709988E+02  0.30000000000E+02  0.47000000000E+01 0. -1.
         -5    1    3    3    0  501  0.15913152331E+02  0.14069136468E+02  0.20657709988E+02  0.30000000000E+02  0.47000000000E+01 0.  1.
</event>
<event>
 5    1  0.7702600E-002  0.6000000E+02  0.7546771E-02  0.1259629E+00
         11   -1    0    0    0    0  0.00000000000E+00  0.00000000000E+00  0.30000000000E+02  0.30000000000E+02  0.00000000000E+00 0. -1.
        -11   -1    0    0    0    0 -0.00000000000E+00 -0.00000000000E+00 -0.30000000000E+02  0.30000000000E+02  0.00000000000E+00 0.  1.
         23    2    1    2    0    0  0.00000000000E+00  0.00000000000E+00  0.00000000000E+00  0.60000000000E+02  0.60000000000E+02 0.  0.
          5    1    3    3  501    0  0.97390070091E+01 -0.26226099041E+02 -0.97597885015E+01  0.30000000000E+02  0.47000000000E+01 0.  1.
         -5    1    3    3    0  501 -0.97390070091E+01  0.26226099041E+02  0.97597885015E+01  0.30000000000E+02  0.47000000000E+01 0. -1.
</event>
<event>
 5    1  0.7702600E-002  0.6000000E+02  0.7546771E-02  0.1259629E+00
         11   -1    0    0    0    0  0.00000000000E+00  0.00000000000E+00  0.30000000000E+02  0.30000000000E+02  0.00000000000E+00 0.  1.
        -11   -1    0    0    0    0 -0.00000000000E+00 -0.00000000000E+00 -0.30000000000E+02  0.30000000000E+02  0.00000000000E+00 0. -1.
         23    2    1    2    0    0  0.00000000000E+00  0.00000000000E+00  0.00000000000E+00  0.60000000000E+02  0.60000000000E+02 0.  0.
          5    1    3    3  501    0  0.13231527416E+02 -0.91862766811E+01 -0.24868634924E+02  0.30000000000E+02  0.47000000000E+01 0. -1.
         -5    1    3    3    0  501 -0.13231527416E+02  0.91862766811E+01  0.24868634924E+02  0.30000000000E+02  0.47000000000E+01 0.  1.
</event>
<event>
 5    1  0.7702600E-002  0.6000000E+02  0.7546771E-02  0.1259629E+00
         11   -1    0    0    0    0  0.00000000000E+00  0.00000000000E+00  0.30000000000E+02  0.30000000000E+02  0.00000000000E+00 0. -1.
        -11   -1    0    0    0    0 -0.00000000000E+00 -0.00000000000E+00 -0.30000000000E+02  0.30000000000E+02  0.00000000000E+00 0.  1.
         23    2    1    2    0    0  0.00000000000E+00  0.00000000000E+00  0.00000000000E+00  0.60000000000E+02  0.60000000000E+02 0.  0.
          5    1    3    3  501    0  0.17205455894E+02 -0.22379397581E+02  0.90024913973E+01  0.30000000000E+02  0.47000000000E+01 0. -1.
         -5    1    3    3    0  501 -0.17205455894E+02  0.22379397581E+02 -0.90024913973E+01  0.30000000000E+02  0.47000000000E+01 0.  1.
</event>
<event>
 5    1  0.7702600E-002  0.6000000E+02  0.7546771E-02  0.1259629E+00
         11   -1    0    0    0    0  0.00000000000E+00  0.00000000000E+00  0.30000000000E+02  0.30000000000E+02  0.00000000000E+00 0.  1.
        -11   -1    0    0    0    0 -0.00000000000E+00 -0.00000000000E+00 -0.30000000000E+02  0.30000000000E+02  0.00000000000E+00 0. -1.
         23    2    1    2    0    0  0.00000000000E+00  0.00000000000E+00  0.00000000000E+00  0.60000000000E+02  0.60000000000E+02 0.  0.
          5    1    3    3  501    0  0.90546348894E+01 -0.23060659998E+02 -0.16252062868E+02  0.30000000000E+02  0.47000000000E+01 0. -1.
         -5    1    3    3    0  501 -0.90546348894E+01  0.23060659998E+02  0.16252062868E+02  0.30000000000E+02  0.47000000000E+01 0.  1.
</event>
<event>
 5    1  0.7702600E-002  0.6000000E+02  0.7546771E-02  0.1259629E+00
         11   -1    0    0    0    0  0.00000000000E+00  0.00000000000E+00  0.30000000000E+02  0.30000000000E+02  0.00000000000E+00 0.  1.
        -11   -1    0    0    0    0 -0.00000000000E+00 -0.00000000000E+00 -0.30000000000E+02  0.30000000000E+02  0.00000000000E+00 0. -1.
         23    2    1    2    0    0  0.00000000000E+00  0.00000000000E+00  0.00000000000E+00  0.60000000000E+02  0.60000000000E+02 0.  0.
          5    1    3    3  501    0  0.14069623887E+01 -0.19033117754E+01 -0.29534858407E+02  0.30000000000E+02  0.47000000000E+01 0. -1.
         -5    1    3    3    0  501 -0.14069623887E+01  0.19033117754E+01  0.29534858407E+02  0.30000000000E+02  0.47000000000E+01 0.  1.
</event>
<event>
 5    1  0.7702600E-002  0.6000000E+02  0.7546771E-02  0.1259629E+00
         11   -1    0    0    0    0  0.00000000000E+00  0.00000000000E+00  0.30000000000E+02  0.30000000000E+02  0.00000000000E+00 0. -1.
        -11   -1    0    0    0    0 -0.00000000000E+00 -0.00000000000E+00 -0.30000000000E+02  0.30000000000E+02  0.00000000000E+00 0.  1.
         23    2    1    2    0    0  0.00000000000E+00  0.00000000000E+00  0.00000000000E+00  0.60000000000E+02  0.60000000000E+02 0.  0.
          5    1    3    3  501    0  0.97293688608E+01 -0.25193952909E+02 -0.12186636878E+02  0.30000000000E+02  0.47000000000E+01 0.  1.
         -5    1    3    3    0  501 -0.97293688608E+01  0.25193952909E+02  0.12186636878E+02  0.30000000000E+02  0.47000000000E+01 0. -1.
</event>
<event>
 5    1  0.7702600E-002  0.6000000E+02  0.7546771E-02  0.1259629E+00
         11   -1    0    0    0    0  0.00000000000E+00  0.00000000000E+00  0.30000000000E+02  0.30000000000E+02  0.00000000000E+00 0.  1.
        -11   -1    0    0    0    0 -0.00000000000E+00 -0.00000000000E+00 -0.30000000000E+02  0.30000000000E+02  0.00000000000E+00 0. -1.
         23    2    1    2    0    0  0.00000000000E+00  0.00000000000E+00  0.00000000000E+00  0.60000000000E+02  0.60000000000E+02 0.  0.
          5    1    3    3  501    0 -0.12896597486E+02 -0.93266302099E+01 -0.24992033575E+02  0.30000000000E+02  0.47000000000E+01 0. -1.
         -5    1    3    3    0  501  0.12896597486E+02  0.93266302099E+01  0.24992033575E+02  0.30000000000E+02  0.47000000000E+01 0.  1.
</event>
<event>
 5    1  0.7702600E-002  0.6000000E+02  0.7546771E-02  0.1259629E+00
         11   -1    0    0    0    0  0.00000000000E+00  0.00000000000E+00  0.30000000000E+02  0.30000000000E+02  0.00000000000E+00 0.  1.
        -11   -1    0    0    0    0 -0.00000000000E+00 -0.00000000000E+00 -0.30000000000E+02  0.30000000000E+02  0.00000000000E+00 0. -1.
         23    2    1    2    0    0  0.00000000000E+00  0.00000000000E+00  0.00000000000E+00  0.60000000000E+02  0.60000000000E+02 0.  0.
          5    1    3    3  501    0 -0.19476245231E+02 -0.86305239208E+01 -0.20593686618E+02  0.30000000000E+02  0.47000000000E+01 0. -1.
         -5    1    3    3    0  501  0.19476245231E+02  0.86305239208E+01  0.20593686618E+02  0.30000000000E+02  0.47000000000E+01 0.  1.
</event>
<event>
 5    1  0.7702600E-002  0.6000000E+02  0.7546771E-02  0.1259629E+00
         11   -1    0    0    0    0  0.00000000000E+00  0.00000000000E+00  0.30000000000E+02  0.30000000000E+02  0.00000000000E+00 0.  1.
        -11   -1    0    0    0    0 -0.00000000000E+00 -0.00000000000E+00 -0.30000000000E+02  0.30000000000E+02  0.00000000000E+00 0. -1.
         23    2    1    2    0    0  0.00000000000E+00  0.00000000000E+00  0.00000000000E+00  0.60000000000E+02  0.60000000000E+02 0.  0.
          5    1    3    3  501    0 -0.15137472178E+02 -0.20191904086E+02 -0.15525912064E+02  0.30000000000E+02  0.47000000000E+01 0. -1.
         -5    1    3    3    0  501  0.15137472178E+02  0.20191904086E+02  0.15525912064E+02  0.30000000000E+02  0.47000000000E+01 0.  1.
</event>
<event>
 5    1  0.7702600E-002  0.6000000E+02  0.7546771E-02  0.1259629E+00
         11   -1    0    0    0    0  0.00000000000E+00  0.00000000000E+00  0.30000000000E+02  0.30000000000E+02  0.00000000000E+00 0.  1.
        -11   -1    0    0    0    0 -0.00000000000E+00 -0.00000000000E+00 -0.30000000000E+02  0.30000000000E+02  0.00000000000E+00 0. -1.
         23    2    1    2    0    0  0.00000000000E+00  0.00000000000E+00  0.00000000000E+00  0.60000000000E+02  0.60000000000E+02 0.  0.
          5    1    3    3  501    0  0.12228773071E+02 -0.42821458294E+01 -0.26646394433E+02  0.30000000000E+02  0.47000000000E+01 0. -1.
         -5    1    3    3    0  501 -0.12228773071E+02  0.42821458294E+01  0.26646394433E+02  0.30000000000E+02  0.47000000000E+01 0.  1.
</event>
<event>
 5    1  0.7702600E-002  0.6000000E+02  0.7546771E-02  0.1259629E+00
         11   -1    0    0    0    0  0.00000000000E+00  0.00000000000E+00  0.30000000000E+02  0.30000000000E+02  0.00000000000E+00 0.  1.
        -11   -1    0    0    0    0 -0.00000000000E+00 -0.00000000000E+00 -0.30000000000E+02  0.30000000000E+02  0.00000000000E+00 0. -1.
         23    2    1    2    0    0  0.00000000000E+00  0.00000000000E+00  0.00000000000E+00  0.60000000000E+02  0.60000000000E+02 0.  0.
          5    1    3    3  501    0 -0.56791369917E+00  0.29623713221E+02  0.15195076862E+00  0.30000000000E+02  0.47000000000E+01 0.  1.
         -5    1    3    3    0  501  0.56791369917E+00 -0.29623713221E+02 -0.15195076862E+00  0.30000000000E+02  0.47000000000E+01 0. -1.
</event>
<event>
 5    1  0.7702600E-002  0.6000000E+02  0.7546771E-02  0.1259629E+00
         11   -1    0    0    0    0  0.00000000000E+00  0.00000000000E+00  0.30000000000E+02  0.30000000000E+02  0.00000000000E+00 0.  1.
        -11   -1    0    0    0    0 -0.00000000000E+00 -0.00000000000E+00 -0.30000000000E+02  0.30000000000E+02  0.00000000000E+00 0. -1.
         23    2    1    2    0    0  0.00000000000E+00  0.00000000000E+00  0.00000000000E+00  0.60000000000E+02  0.60000000000E+02 0.  0.
          5    1    3    3  501    0  0.15579109360E+02  0.15760080377E+02  0.19667771049E+02  0.30000000000E+02  0.47000000000E+01 0.  1.
         -5    1    3    3    0  501 -0.15579109360E+02 -0.15760080377E+02 -0.19667771049E+02  0.30000000000E+02  0.47000000000E+01 0. -1.
</event>
<event>
 5    1  0.7702600E-002  0.6000000E+02  0.7546771E-02  0.1259629E+00
         11   -1    0    0    0    0  0.00000000000E+00  0.00000000000E+00  0.30000000000E+02  0.30000000000E+02  0.00000000000E+00 0.  1.
        -11   -1    0    0    0    0 -0.00000000000E+00 -0.00000000000E+00 -0.30000000000E+02  0.30000000000E+02  0.00000000000E+00 0. -1.
         23    2    1    2    0    0  0.00000000000E+00  0.00000000000E+00  0.00000000000E+00  0.60000000000E+02  0.60000000000E+02 0.  0.
          5    1    3    3  501    0  0.27057606357E+02  0.13588188041E+01 -0.11997897720E+02  0.30000000000E+02  0.47000000000E+01 0. -1.
         -5    1    3    3    0  501 -0.27057606357E+02 -0.13588188041E+01  0.11997897720E+02  0.30000000000E+02  0.47000000000E+01 0.  1.
</event>
<event>
 5    1  0.7702600E-002  0.6000000E+02  0.7546771E-02  0.1259629E+00
         11   -1    0    0    0    0  0.00000000000E+00  0.00000000000E+00  0.30000000000E+02  0.30000000000E+02  0.00000000000E+00 0. -1.
        -11   -1    0    0    0    0 -0.00000000000E+00 -0.00000000000E+00 -0.30000000000E+02  0.30000000000E+02  0.00000000000E+00 0.  1.
         23    2    1    2    0    0  0.00000000000E+00  0.00000000000E+00  0.00000000000E+00  0.60000000000E+02  0.60000000000E+02 0.  0.
          5    1    3    3  501    0 -0.63819992877E+01  0.16791586901E+01 -0.28885299223E+02  0.30000000000E+02  0.47000000000E+01 0.  1.
         -5    1    3    3    0  501  0.63819992877E+01 -0.16791586901E+01  0.28885299223E+02  0.30000000000E+02  0.47000000000E+01 0. -1.
</event>
<event>
 5    1  0.7702600E-002  0.6000000E+02  0.7546771E-02  0.1259629E+00
         11   -1    0    0    0    0  0.00000000000E+00  0.00000000000E+00  0.30000000000E+02  0.30000000000E+02  0.00000000000E+00 0.  1.
        -11   -1    0    0    0    0 -0.00000000000E+00 -0.00000000000E+00 -0.30000000000E+02  0.30000000000E+02  0.00000000000E+00 0. -1.
         23    2    1    2    0    0  0.00000000000E+00  0.00000000000E+00  0.00000000000E+00  0.60000000000E+02  0.60000000000E+02 0.  0.
          5    1    3    3  501    0 -0.24029483398E+01  0.67572592050E+01 -0.28748483218E+02  0.30000000000E+02  0.47000000000E+01 0. -1.
         -5    1    3    3    0  501  0.24029483398E+01 -0.67572592050E+01  0.28748483218E+02  0.30000000000E+02  0.47000000000E+01 0.  1.
</event>
<event>
 5    1  0.7702600E-002  0.6000000E+02  0.7546771E-02  0.1259629E+00
         11   -1    0    0    0    0  0.00000000000E+00  0.00000000000E+00  0.30000000000E+02  0.30000000000E+02  0.00000000000E+00 0.  1.
        -11   -1    0    0    0    0 -0.00000000000E+00 -0.00000000000E+00 -0.30000000000E+02  0.30000000000E+02  0.00000000000E+00 0. -1.
         23    2    1    2    0    0  0.00000000000E+00  0.00000000000E+00  0.00000000000E+00  0.60000000000E+02  0.60000000000E+02 0.  0.
          5    1    3    3  501    0  0.28879816520E+01 -0.23304207830E+01 -0.29396236170E+02  0.30000000000E+02  0.47000000000E+01 0. -1.
         -5    1    3    3    0  501 -0.28879816520E+01  0.23304207830E+01  0.29396236170E+02  0.30000000000E+02  0.47000000000E+01 0.  1.
</event>
<event>
 5    1  0.7702600E-002  0.6000000E+02  0.7546771E-02  0.1259629E+00
         11   -1    0    0    0    0  0.00000000000E+00  0.00000000000E+00  0.30000000000E+02  0.30000000000E+02  0.00000000000E+00 0.  1.
        -11   -1    0    0    0    0 -0.00000000000E+00 -0.00000000000E+00 -0.30000000000E+02  0.30000000000E+02  0.00000000000E+00 0. -1.
         23    2    1    2    0    0  0.00000000000E+00  0.00000000000E+00  0.00000000000E+00  0.60000000000E+02  0.60000000000E+02 0.  0.
          5    1    3    3  501    0 -0.12943187762E+02 -0.33956790350E+00 -0.26650864605E+02  0.30000000000E+02  0.47000000000E+01 0. -1.
         -5    1    3    3    0  501  0.12943187762E+02  0.33956790350E+00  0.26650864605E+02  0.30000000000E+02  0.47000000000E+01 0.  1.
</event>
<event>
 5    1  0.7702600E-002  0.6000000E+02  0.7546771E-02  0.1259629E+00
         11   -1    0    0    0    0  0.00000000000E+00  0.00000000000E+00  0.30000000000E+02  0.30000000000E+02  0.00000000000E+00 0.  1.
        -11   -1    0    0    0    0 -0.00000000000E+00 -0.00000000000E+00 -0.30000000000E+02  0.30000000000E+02  0.00000000000E+00 0. -1.
         23    2    1    2    0    0  0.00000000000E+00  0.00000000000E+00  0.00000000000E+00  0.60000000000E+02  0.60000000000E+02 0.  0.
          5    1    3    3  501    0 -0.13526202686E+02 -0.21815692016E+02 -0.14799575087E+02  0.30000000000E+02  0.47000000000E+01 0. -1.
         -5    1    3    3    0  501  0.13526202686E+02  0.21815692016E+02  0.14799575087E+02  0.30000000000E+02  0.47000000000E+01 0.  1.
</event>
<event>
 5    1  0.7702600E-002  0.6000000E+02  0.7546771E-02  0.1259629E+00
         11   -1    0    0    0    0  0.00000000000E+00  0.00000000000E+00  0.30000000000E+02  0.30000000000E+02  0.00000000000E+00 0.  1.
        -11   -1    0    0    0    0 -0.00000000000E+00 -0.00000000000E+00 -0.30000000000E+02  0.30000000000E+02  0.00000000000E+00 0. -1.
         23    2    1    2    0    0  0.00000000000E+00  0.00000000000E+00  0.00000000000E+00  0.60000000000E+02  0.60000000000E+02 0.  0.
          5    1    3    3  501    0  0.46661537813E+01 -0.26973063009E+02 -0.11339791921E+02  0.30000000000E+02  0.47000000000E+01 0. -1.
         -5    1    3    3    0  501 -0.46661537813E+01  0.26973063009E+02  0.11339791921E+02  0.30000000000E+02  0.47000000000E+01 0.  1.
</event>
<event>
 5    1  0.7702600E-002  0.6000000E+02  0.7546771E-02  0.1259629E+00
         11   -1    0    0    0    0  0.00000000000E+00  0.00000000000E+00  0.30000000000E+02  0.30000000000E+02  0.00000000000E+00 0. -1.
        -11   -1    0    0    0    0 -0.00000000000E+00 -0.00000000000E+00 -0.30000000000E+02  0.30000000000E+02  0.00000000000E+00 0.  1.
         23    2    1    2    0    0  0.00000000000E+00  0.00000000000E+00  0.00000000000E+00  0.60000000000E+02  0.60000000000E+02 0.  0.
          5    1    3    3  501    0 -0.10442597815E+02 -0.60260968179E+01 -0.27065629644E+02  0.30000000000E+02  0.47000000000E+01 0.  1.
         -5    1    3    3    0  501  0.10442597815E+02  0.60260968179E+01  0.27065629644E+02  0.30000000000E+02  0.47000000000E+01 0. -1.
</event>
<event>
 5    1  0.7702600E-002  0.6000000E+02  0.7546771E-02  0.1259629E+00
         11   -1    0    0    0    0  0.00000000000E+00  0.00000000000E+00  0.30000000000E+02  0.30000000000E+02  0.00000000000E+00 0.  1.
        -11   -1    0    0    0    0 -0.00000000000E+00 -0.00000000000E+00 -0.30000000000E+02  0.30000000000E+02  0.00000000000E+00 0. -1.
         23    2    1    2    0    0  0.00000000000E+00  0.00000000000E+00  0.00000000000E+00  0.60000000000E+02  0.60000000000E+02 0.  0.
          5    1    3    3  501    0  0.16292331941E+02  0.13673900595E+02 -0.20627514694E+02  0.30000000000E+02  0.47000000000E+01 0. -1.
         -5    1    3    3    0  501 -0.16292331941E+02 -0.13673900595E+02  0.20627514694E+02  0.30000000000E+02  0.47000000000E+01 0.  1.
</event>
<event>
 5    1  0.7702600E-002  0.6000000E+02  0.7546771E-02  0.1259629E+00
         11   -1    0    0    0    0  0.00000000000E+00  0.00000000000E+00  0.30000000000E+02  0.30000000000E+02  0.00000000000E+00 0.  1.
        -11   -1    0    0    0    0 -0.00000000000E+00 -0.00000000000E+00 -0.30000000000E+02  0.30000000000E+02  0.00000000000E+00 0. -1.
         23    2    1    2    0    0  0.00000000000E+00  0.00000000000E+00  0.00000000000E+00  0.60000000000E+02  0.60000000000E+02 0.  0.
          5    1    3    3  501    0  0.20652254153E+02 -0.95106164043E+01 -0.18998488729E+02  0.30000000000E+02  0.47000000000E+01 0. -1.
         -5    1    3    3    0  501 -0.20652254153E+02  0.95106164043E+01  0.18998488729E+02  0.30000000000E+02  0.47000000000E+01 0.  1.
</event>
<event>
 5    1  0.7702600E-002  0.6000000E+02  0.7546771E-02  0.1259629E+00
         11   -1    0    0    0    0  0.00000000000E+00  0.00000000000E+00  0.30000000000E+02  0.30000000000E+02  0.00000000000E+00 0. -1.
        -11   -1    0    0    0    0 -0.00000000000E+00 -0.00000000000E+00 -0.30000000000E+02  0.30000000000E+02  0.00000000000E+00 0.  1.
         23    2    1    2    0    0  0.00000000000E+00  0.00000000000E+00  0.00000000000E+00  0.60000000000E+02  0.60000000000E+02 0.  0.
          5    1    3    3  501    0 -0.14559513287E+02  0.37631312099E+01  0.25529775094E+02  0.30000000000E+02  0.47000000000E+01 0. -1.
         -5    1    3    3    0  501  0.14559513287E+02 -0.37631312099E+01 -0.25529775094E+02  0.30000000000E+02  0.47000000000E+01 0.  1.
</event>
<event>
 5    1  0.7702600E-002  0.6000000E+02  0.7546771E-02  0.1259629E+00
         11   -1    0    0    0    0  0.00000000000E+00  0.00000000000E+00  0.30000000000E+02  0.30000000000E+02  0.00000000000E+00 0.  1.
        -11   -1    0    0    0    0 -0.00000000000E+00 -0.00000000000E+00 -0.30000000000E+02  0.30000000000E+02  0.00000000000E+00 0. -1.
         23    2    1    2    0    0  0.00000000000E+00  0.00000000000E+00  0.00000000000E+00  0.60000000000E+02  0.60000000000E+02 0.  0.
          5    1    3    3  501    0 -0.50740043940E+01  0.20933956289E+02  0.20345366880E+02  0.30000000000E+02  0.47000000000E+01 0.  1.
         -5    1    3    3    0  501  0.50740043940E+01 -0.20933956289E+02 -0.20345366880E+02  0.30000000000E+02  0.47000000000E+01 0. -1.
</event>
<event>
 5    1  0.7702600E-002  0.6000000E+02  0.7546771E-02  0.1259629E+00
         11   -1    0    0    0    0  0.00000000000E+00  0.00000000000E+00  0.30000000000E+02  0.30000000000E+02  0.00000000000E+00 0.  1.
        -11   -1    0    0    0    0 -0.00000000000E+00 -0.00000000000E+00 -0.30000000000E+02  0.30000000000E+02  0.00000000000E+00 0. -1.
         23    2    1    2    0    0  0.00000000000E+00  0.00000000000E+00  0.00000000000E+00  0.60000000000E+02  0.60000000000E+02 0.  0.
          5    1    3    3  501    0 -0.10832983678E+02 -0.18794153315E+02  0.20182573320E+02  0.30000000000E+02  0.47000000000E+01 0.  1.
         -5    1    3    3    0  501  0.10832983678E+02  0.18794153315E+02 -0.20182573320E+02  0.30000000000E+02  0.47000000000E+01 0. -1.
</event>
<event>
 5    1  0.7702600E-002  0.6000000E+02  0.7546771E-02  0.1259629E+00
         11   -1    0    0    0    0  0.00000000000E+00  0.00000000000E+00  0.30000000000E+02  0.30000000000E+02  0.00000000000E+00 0.  1.
        -11   -1    0    0    0    0 -0.00000000000E+00 -0.00000000000E+00 -0.30000000000E+02  0.30000000000E+02  0.00000000000E+00 0. -1.
         23    2    1    2    0    0  0.00000000000E+00  0.00000000000E+00  0.00000000000E+00  0.60000000000E+02  0.60000000000E+02 0.  0.
          5    1    3    3  501    0 -0.44223970613E+01  0.27228817549E+02 -0.10814060251E+02  0.30000000000E+02  0.47000000000E+01 0. -1.
         -5    1    3    3    0  501  0.44223970613E+01 -0.27228817549E+02  0.10814060251E+02  0.30000000000E+02  0.47000000000E+01 0.  1.
</event>
<event>
 5    1  0.7702600E-002  0.6000000E+02  0.7546771E-02  0.1259629E+00
         11   -1    0    0    0    0  0.00000000000E+00  0.00000000000E+00  0.30000000000E+02  0.30000000000E+02  0.00000000000E+00 0.  1.
        -11   -1    0    0    0    0 -0.00000000000E+00 -0.00000000000E+00 -0.30000000000E+02  0.30000000000E+02  0.00000000000E+00 0. -1.
         23    2    1    2    0    0  0.00000000000E+00  0.00000000000E+00  0.00000000000E+00  0.60000000000E+02  0.60000000000E+02 0.  0.
          5    1    3    3  501    0  0.29709672394E+01  0.11330240526E+02 -0.27215969637E+02  0.30000000000E+02  0.47000000000E+01 0. -1.
         -5    1    3    3    0  501 -0.29709672394E+01 -0.11330240526E+02  0.27215969637E+02  0.30000000000E+02  0.47000000000E+01 0.  1.
</event>
<event>
 5    1  0.7702600E-002  0.6000000E+02  0.7546771E-02  0.1259629E+00
         11   -1    0    0    0    0  0.00000000000E+00  0.00000000000E+00  0.30000000000E+02  0.30000000000E+02  0.00000000000E+00 0.  1.
        -11   -1    0    0    0    0 -0.00000000000E+00 -0.00000000000E+00 -0.30000000000E+02  0.30000000000E+02  0.00000000000E+00 0. -1.
         23    2    1    2    0    0  0.00000000000E+00  0.00000000000E+00  0.00000000000E+00  0.60000000000E+02  0.60000000000E+02 0.  0.
          5    1    3    3  501    0 -0.25562861570E+01  0.50601453142E+00 -0.29514731074E+02  0.30000000000E+02  0.47000000000E+01 0. -1.
         -5    1    3    3    0  501  0.25562861570E+01 -0.50601453142E+00  0.29514731074E+02  0.30000000000E+02  0.47000000000E+01 0.  1.
</event>
<event>
 5    1  0.7702600E-002  0.6000000E+02  0.7546771E-02  0.1259629E+00
         11   -1    0    0    0    0  0.00000000000E+00  0.00000000000E+00  0.30000000000E+02  0.30000000000E+02  0.00000000000E+00 0.  1.
        -11   -1    0    0    0    0 -0.00000000000E+00 -0.00000000000E+00 -0.30000000000E+02  0.30000000000E+02  0.00000000000E+00 0. -1.
         23    2    1    2    0    0  0.00000000000E+00  0.00000000000E+00  0.00000000000E+00  0.60000000000E+02  0.60000000000E+02 0.  0.
          5    1    3    3  501    0  0.21618439249E+02  0.39248610071E+01 -0.19878343757E+02  0.30000000000E+02  0.47000000000E+01 0. -1.
         -5    1    3    3    0  501 -0.21618439249E+02 -0.39248610071E+01  0.19878343757E+02  0.30000000000E+02  0.47000000000E+01 0.  1.
</event>
<event>
 5    1  0.7702600E-002  0.6000000E+02  0.7546771E-02  0.1259629E+00
         11   -1    0    0    0    0  0.00000000000E+00  0.00000000000E+00  0.30000000000E+02  0.30000000000E+02  0.00000000000E+00 0.  1.
        -11   -1    0    0    0    0 -0.00000000000E+00 -0.00000000000E+00 -0.30000000000E+02  0.30000000000E+02  0.00000000000E+00 0. -1.
         23    2    1    2    0    0  0.00000000000E+00  0.00000000000E+00  0.00000000000E+00  0.60000000000E+02  0.60000000000E+02 0.  0.
          5    1    3    3  501    0 -0.19940021992E+02  0.65706969949E+01 -0.20907689111E+02  0.30000000000E+02  0.47000000000E+01 0. -1.
         -5    1    3    3    0  501  0.19940021992E+02 -0.65706969949E+01  0.20907689111E+02  0.30000000000E+02  0.47000000000E+01 0.  1.
</event>
<event>
 5    1  0.7702600E-002  0.6000000E+02  0.7546771E-02  0.1259629E+00
         11   -1    0    0    0    0  0.00000000000E+00  0.00000000000E+00  0.30000000000E+02  0.30000000000E+02  0.00000000000E+00 0.  1.
        -11   -1    0    0    0    0 -0.00000000000E+00 -0.00000000000E+00 -0.30000000000E+02  0.30000000000E+02  0.00000000000E+00 0. -1.
         23    2    1    2    0    0  0.00000000000E+00  0.00000000000E+00  0.00000000000E+00  0.60000000000E+02  0.60000000000E+02 0.  0.
          5    1    3    3  501    0 -0.83990437233E+01  0.18931906677E+02 -0.21188416035E+02  0.30000000000E+02  0.47000000000E+01 0. -1.
         -5    1    3    3    0  501  0.83990437233E+01 -0.18931906677E+02  0.21188416035E+02  0.30000000000E+02  0.47000000000E+01 0.  1.
</event>
<event>
 5    1  0.7702600E-002  0.6000000E+02  0.7546771E-02  0.1259629E+00
         11   -1    0    0    0    0  0.00000000000E+00  0.00000000000E+00  0.30000000000E+02  0.30000000000E+02  0.00000000000E+00 0.  1.
        -11   -1    0    0    0    0 -0.00000000000E+00 -0.00000000000E+00 -0.30000000000E+02  0.30000000000E+02  0.00000000000E+00 0. -1.
         23    2    1    2    0    0  0.00000000000E+00  0.00000000000E+00  0.00000000000E+00  0.60000000000E+02  0.60000000000E+02 0.  0.
          5    1    3    3  501    0  0.25518518764E+02  0.33486655753E+01  0.14679974080E+02  0.30000000000E+02  0.47000000000E+01 0.  1.
         -5    1    3    3    0  501 -0.25518518764E+02 -0.33486655753E+01 -0.14679974080E+02  0.30000000000E+02  0.47000000000E+01 0. -1.
</event>
<event>
 5    1  0.7702600E-002  0.6000000E+02  0.7546771E-02  0.1259629E+00
         11   -1    0    0    0    0  0.00000000000E+00  0.00000000000E+00  0.30000000000E+02  0.30000000000E+02  0.00000000000E+00 0. -1.
        -11   -1    0    0    0    0 -0.00000000000E+00 -0.00000000000E+00 -0.30000000000E+02  0.30000000000E+02  0.00000000000E+00 0.  1.
         23    2    1    2    0    0  0.00000000000E+00  0.00000000000E+00  0.00000000000E+00  0.60000000000E+02  0.60000000000E+02 0.  0.
          5    1    3    3  501    0  0.57414808673E+01 -0.26472462789E+02 -0.12006419590E+02  0.30000000000E+02  0.47000000000E+01 0.  1.
         -5    1    3    3    0  501 -0.57414808673E+01  0.26472462789E+02  0.12006419590E+02  0.30000000000E+02  0.47000000000E+01 0. -1.
</event>
<event>
 5    1  0.7702600E-002  0.6000000E+02  0.7546771E-02  0.1259629E+00
         11   -1    0    0    0    0  0.00000000000E+00  0.00000000000E+00  0.30000000000E+02  0.30000000000E+02  0.00000000000E+00 0.  1.
        -11   -1    0    0    0    0 -0.00000000000E+00 -0.00000000000E+00 -0.30000000000E+02  0.30000000000E+02  0.00000000000E+00 0. -1.
         23    2    1    2    0    0  0.00000000000E+00  0.00000000000E+00  0.00000000000E+00  0.60000000000E+02  0.60000000000E+02 0.  0.
          5    1    3    3  501    0 -0.17381712298E+02 -0.23978531045E+02 -0.90339718482E+00  0.30000000000E+02  0.47000000000E+01 0. -1.
         -5    1    3    3    0  501  0.17381712298E+02  0.23978531045E+02  0.90339718482E+00  0.30000000000E+02  0.47000000000E+01 0.  1.
</event>
<event>
 5    1  0.7702600E-002  0.6000000E+02  0.7546771E-02  0.1259629E+00
         11   -1    0    0    0    0  0.00000000000E+00  0.00000000000E+00  0.30000000000E+02  0.30000000000E+02  0.00000000000E+00 0.  1.
        -11   -1    0    0    0    0 -0.00000000000E+00 -0.00000000000E+00 -0.30000000000E+02  0.30000000000E+02  0.00000000000E+00 0. -1.
         23    2    1    2    0    0  0.00000000000E+00  0.00000000000E+00  0.00000000000E+00  0.60000000000E+02  0.60000000000E+02 0.  0.
          5    1    3    3  501    0  0.21293788821E+02  0.64766678516E+01 -0.19558561582E+02  0.30000000000E+02  0.47000000000E+01 0. -1.
         -5    1    3    3    0  501 -0.21293788821E+02 -0.64766678516E+01  0.19558561582E+02  0.30000000000E+02  0.47000000000E+01 0.  1.
</event>
<event>
 5    1  0.7702600E-002  0.6000000E+02  0.7546771E-02  0.1259629E+00
         11   -1    0    0    0    0  0.00000000000E+00  0.00000000000E+00  0.30000000000E+02  0.30000000000E+02  0.00000000000E+00 0.  1.
        -11   -1    0    0    0    0 -0.00000000000E+00 -0.00000000000E+00 -0.30000000000E+02  0.30000000000E+02  0.00000000000E+00 0. -1.
         23    2    1    2    0    0  0.00000000000E+00  0.00000000000E+00  0.00000000000E+00  0.60000000000E+02  0.60000000000E+02 0.  0.
          5    1    3    3  501    0  0.56736263452E+01 -0.26615655708E+02 -0.11718653308E+02  0.30000000000E+02  0.47000000000E+01 0. -1.
         -5    1    3    3    0  501 -0.56736263452E+01  0.26615655708E+02  0.11718653308E+02  0.30000000000E+02  0.47000000000E+01 0.  1.
</event>
<event>
 5    1  0.7702600E-002  0.6000000E+02  0.7546771E-02  0.1259629E+00
         11   -1    0    0    0    0  0.00000000000E+00  0.00000000000E+00  0.30000000000E+02  0.30000000000E+02  0.00000000000E+00 0.  1.
        -11   -1    0    0    0    0 -0.00000000000E+00 -0.00000000000E+00 -0.30000000000E+02  0.30000000000E+02  0.00000000000E+00 0. -1.
         23    2    1    2    0    0  0.00000000000E+00  0.00000000000E+00  0.00000000000E+00  0.60000000000E+02  0.60000000000E+02 0.  0.
          5    1    3    3  501    0  0.67098255235E+01  0.62433211651E+01 -0.28176394061E+02  0.30000000000E+02  0.47000000000E+01 0. -1.
         -5    1    3    3    0  501 -0.67098255235E+01 -0.62433211651E+01  0.28176394061E+02  0.30000000000E+02  0.47000000000E+01 0.  1.
</event>
<event>
 5    1  0.7702600E-002  0.6000000E+02  0.7546771E-02  0.1259629E+00
         11   -1    0    0    0    0  0.00000000000E+00  0.00000000000E+00  0.30000000000E+02  0.30000000000E+02  0.00000000000E+00 0. -1.
        -11   -1    0    0    0    0 -0.00000000000E+00 -0.00000000000E+00 -0.30000000000E+02  0.30000000000E+02  0.00000000000E+00 0.  1.
         23    2    1    2    0    0  0.00000000000E+00  0.00000000000E+00  0.00000000000E+00  0.60000000000E+02  0.60000000000E+02 0.  0.
          5    1    3    3  501    0 -0.99412517052E+01 -0.15413615787E+02 -0.23270194733E+02  0.30000000000E+02  0.47000000000E+01 0.  1.
         -5    1    3    3    0  501  0.99412517052E+01  0.15413615787E+02  0.23270194733E+02  0.30000000000E+02  0.47000000000E+01 0. -1.
</event>
<event>
 5    1  0.7702600E-002  0.6000000E+02  0.7546771E-02  0.1259629E+00
         11   -1    0    0    0    0  0.00000000000E+00  0.00000000000E+00  0.30000000000E+02  0.30000000000E+02  0.00000000000E+00 0.  1.
        -11   -1    0    0    0    0 -0.00000000000E+00 -0.00000000000E+00 -0.30000000000E+02  0.30000000000E+02  0.00000000000E+00 0. -1.
         23    2    1    2    0    0  0.00000000000E+00  0.00000000000E+00  0.00000000000E+00  0.60000000000E+02  0.60000000000E+02 0.  0.
          5    1    3    3  501    0 -0.25658002431E+02 -0.14336316695E+02 -0.37479240750E+01  0.30000000000E+02  0.47000000000E+01 0. -1.
         -5    1    3    3    0  501  0.25658002431E+02  0.14336316695E+02  0.37479240750E+01  0.30000000000E+02  0.47000000000E+01 0.  1.
</event>
<event>
 5    1  0.7702600E-002  0.6000000E+02  0.7546771E-02  0.1259629E+00
         11   -1    0    0    0    0  0.00000000000E+00  0.00000000000E+00  0.30000000000E+02  0.30000000000E+02  0.00000000000E+00 0.  1.
        -11   -1    0    0    0    0 -0.00000000000E+00 -0.00000000000E+00 -0.30000000000E+02  0.30000000000E+02  0.00000000000E+00 0. -1.
         23    2    1    2    0    0  0.00000000000E+00  0.00000000000E+00  0.00000000000E+00  0.60000000000E+02  0.60000000000E+02 0.  0.
          5    1    3    3  501    0  0.13964228469E+02 -0.10286683090E+02 -0.24022790726E+02  0.30000000000E+02  0.47000000000E+01 0. -1.
         -5    1    3    3    0  501 -0.13964228469E+02  0.10286683090E+02  0.24022790726E+02  0.30000000000E+02  0.47000000000E+01 0.  1.
</event>
<event>
 5    1  0.7702600E-002  0.6000000E+02  0.7546771E-02  0.1259629E+00
         11   -1    0    0    0    0  0.00000000000E+00  0.00000000000E+00  0.30000000000E+02  0.30000000000E+02  0.00000000000E+00 0.  1.
        -11   -1    0    0    0    0 -0.00000000000E+00 -0.00000000000E+00 -0.30000000000E+02  0.30000000000E+02  0.00000000000E+00 0. -1.
         23    2    1    2    0    0  0.00000000000E+00  0.00000000000E+00  0.00000000000E+00  0.60000000000E+02  0.60000000000E+02 0.  0.
          5    1    3    3  501    0  0.23580130871E+01 -0.23439447965E+02 -0.17970588565E+02  0.30000000000E+02  0.47000000000E+01 0. -1.
         -5    1    3    3    0  501 -0.23580130871E+01  0.23439447965E+02  0.17970588565E+02  0.30000000000E+02  0.47000000000E+01 0.  1.
</event>
<event>
 5    1  0.7702600E-002  0.6000000E+02  0.7546771E-02  0.1259629E+00
         11   -1    0    0    0    0  0.00000000000E+00  0.00000000000E+00  0.30000000000E+02  0.30000000000E+02  0.00000000000E+00 0. -1.
        -11   -1    0    0    0    0 -0.00000000000E+00 -0.00000000000E+00 -0.30000000000E+02  0.30000000000E+02  0.00000000000E+00 0.  1.
         23    2    1    2    0    0  0.00000000000E+00  0.00000000000E+00  0.00000000000E+00  0.60000000000E+02  0.60000000000E+02 0.  0.
          5    1    3    3  501    0  0.10542640705E+02 -0.27527953151E+02  0.29957507047E+01  0.30000000000E+02  0.47000000000E+01 0.  1.
         -5    1    3    3    0  501 -0.10542640705E+02  0.27527953151E+02 -0.29957507047E+01  0.30000000000E+02  0.47000000000E+01 0. -1.
</event>
<event>
 5    1  0.7702600E-002  0.6000000E+02  0.7546771E-02  0.1259629E+00
         11   -1    0    0    0    0  0.00000000000E+00  0.00000000000E+00  0.30000000000E+02  0.30000000000E+02  0.00000000000E+00 0.  1.
        -11   -1    0    0    0    0 -0.00000000000E+00 -0.00000000000E+00 -0.30000000000E+02  0.30000000000E+02  0.00000000000E+00 0. -1.
         23    2    1    2    0    0  0.00000000000E+00  0.00000000000E+00  0.00000000000E+00  0.60000000000E+02  0.60000000000E+02 0.  0.
          5    1    3    3  501    0  0.29204072547E+02  0.30438307222E+00  0.49939460951E+01  0.30000000000E+02  0.47000000000E+01 0. -1.
         -5    1    3    3    0  501 -0.29204072547E+02 -0.30438307222E+00 -0.49939460951E+01  0.30000000000E+02  0.47000000000E+01 0.  1.
</event>
<event>
 5    1  0.7702600E-002  0.6000000E+02  0.7546771E-02  0.1259629E+00
         11   -1    0    0    0    0  0.00000000000E+00  0.00000000000E+00  0.30000000000E+02  0.30000000000E+02  0.00000000000E+00 0.  1.
        -11   -1    0    0    0    0 -0.00000000000E+00 -0.00000000000E+00 -0.30000000000E+02  0.30000000000E+02  0.00000000000E+00 0. -1.
         23    2    1    2    0    0  0.00000000000E+00  0.00000000000E+00  0.00000000000E+00  0.60000000000E+02  0.60000000000E+02 0.  0.
          5    1    3    3  501    0 -0.28883082756E+02  0.24103458037E+01  0.61536788676E+01  0.30000000000E+02  0.47000000000E+01 0. -1.
         -5    1    3    3    0  501  0.28883082756E+02 -0.24103458037E+01 -0.61536788676E+01  0.30000000000E+02  0.47000000000E+01 0.  1.
</event>
<event>
 5    1  0.7702600E-002  0.6000000E+02  0.7546771E-02  0.1259629E+00
         11   -1    0    0    0    0  0.00000000000E+00  0.00000000000E+00  0.30000000000E+02  0.30000000000E+02  0.00000000000E+00 0.  1.
        -11   -1    0    0    0    0 -0.00000000000E+00 -0.00000000000E+00 -0.30000000000E+02  0.30000000000E+02  0.00000000000E+00 0. -1.
         23    2    1    2    0    0  0.00000000000E+00  0.00000000000E+00  0.00000000000E+00  0.60000000000E+02  0.60000000000E+02 0.  0.
          5    1    3    3  501    0  0.89243443150E+00  0.29246799113E+02 -0.46624352475E+01  0.30000000000E+02  0.47000000000E+01 0. -1.
         -5    1    3    3    0  501 -0.89243443150E+00 -0.29246799113E+02  0.46624352475E+01  0.30000000000E+02  0.47000000000E+01 0.  1.
</event>
<event>
 5    1  0.7702600E-002  0.6000000E+02  0.7546771E-02  0.1259629E+00
         11   -1    0    0    0    0  0.00000000000E+00  0.00000000000E+00  0.30000000000E+02  0.30000000000E+02  0.00000000000E+00 0.  1.
        -11   -1    0    0    0    0 -0.00000000000E+00 -0.00000000000E+00 -0.30000000000E+02  0.30000000000E+02  0.00000000000E+00 0. -1.
         23    2    1    2    0    0  0.00000000000E+00  0.00000000000E+00  0.00000000000E+00  0.60000000000E+02  0.60000000000E+02 0.  0.
          5    1    3    3  501    0  0.13906826437E+01  0.75054789221E+01 -0.28629421718E+02  0.30000000000E+02  0.47000000000E+01 0. -1.
         -5    1    3    3    0  501 -0.13906826437E+01 -0.75054789221E+01  0.28629421718E+02  0.30000000000E+02  0.47000000000E+01 0.  1.
</event>
<event>
 5    1  0.7702600E-002  0.6000000E+02  0.7546771E-02  0.1259629E+00
         11   -1    0    0    0    0  0.00000000000E+00  0.00000000000E+00  0.30000000000E+02  0.30000000000E+02  0.00000000000E+00 0.  1.
        -11   -1    0    0    0    0 -0.00000000000E+00 -0.00000000000E+00 -0.30000000000E+02  0.30000000000E+02  0.00000000000E+00 0. -1.
         23    2    1    2    0    0  0.00000000000E+00  0.00000000000E+00  0.00000000000E+00  0.60000000000E+02  0.60000000000E+02 0.  0.
          5    1    3    3  501    0 -0.14192306557E+02 -0.15888006756E+01  0.25960819460E+02  0.30000000000E+02  0.47000000000E+01 0.  1.
         -5    1    3    3    0  501  0.14192306557E+02  0.15888006756E+01 -0.25960819460E+02  0.30000000000E+02  0.47000000000E+01 0. -1.
</event>
<event>
 5    1  0.7702600E-002  0.6000000E+02  0.7546771E-02  0.1259629E+00
         11   -1    0    0    0    0  0.00000000000E+00  0.00000000000E+00  0.30000000000E+02  0.30000000000E+02  0.00000000000E+00 0. -1.
        -11   -1    0    0    0    0 -0.00000000000E+00 -0.00000000000E+00 -0.30000000000E+02  0.30000000000E+02  0.00000000000E+00 0.  1.
         23    2    1    2    0    0  0.00000000000E+00  0.00000000000E+00  0.00000000000E+00  0.60000000000E+02  0.60000000000E+02 0.  0.
          5    1    3    3  501    0 -0.25702613016E+02  0.20659215953E+01 -0.14595124258E+02  0.30000000000E+02  0.47000000000E+01 0.  1.
         -5    1    3    3    0  501  0.25702613016E+02 -0.20659215953E+01  0.14595124258E+02  0.30000000000E+02  0.47000000000E+01 0. -1.
</event>
<event>
 5    1  0.7702600E-002  0.6000000E+02  0.7546771E-02  0.1259629E+00
         11   -1    0    0    0    0  0.00000000000E+00  0.00000000000E+00  0.30000000000E+02  0.30000000000E+02  0.00000000000E+00 0.  1.
        -11   -1    0    0    0    0 -0.00000000000E+00 -0.00000000000E+00 -0.30000000000E+02  0.30000000000E+02  0.00000000000E+00 0. -1.
         23    2    1    2    0    0  0.00000000000E+00  0.00000000000E+00  0.00000000000E+00  0.60000000000E+02  0.60000000000E+02 0.  0.
          5    1    3    3  501    0 -0.22611055340E+02  0.18109423047E+02 -0.62208498879E+01  0.30000000000E+02  0.47000000000E+01 0. -1.
         -5    1    3    3    0  501  0.22611055340E+02 -0.18109423047E+02  0.62208498879E+01  0.30000000000E+02  0.47000000000E+01 0.  1.
</event>
<event>
 5    1  0.7702600E-002  0.6000000E+02  0.7546771E-02  0.1259629E+00
         11   -1    0    0    0    0  0.00000000000E+00  0.00000000000E+00  0.30000000000E+02  0.30000000000E+02  0.00000000000E+00 0.  1.
        -11   -1    0    0    0    0 -0.00000000000E+00 -0.00000000000E+00 -0.30000000000E+02  0.30000000000E+02  0.00000000000E+00 0. -1.
         23    2    1    2    0    0  0.00000000000E+00  0.00000000000E+00  0.00000000000E+00  0.60000000000E+02  0.60000000000E+02 0.  0.
          5    1    3    3  501    0  0.18126036627E+00 -0.17285028738E+02 -0.24064599025E+02  0.30000000000E+02  0.47000000000E+01 0. -1.
         -5    1    3    3    0  501 -0.18126036627E+00  0.17285028738E+02  0.24064599025E+02  0.30000000000E+02  0.47000000000E+01 0.  1.
</event>
<event>
 5    1  0.7702600E-002  0.6000000E+02  0.7546771E-02  0.1259629E+00
         11   -1    0    0    0    0  0.00000000000E+00  0.00000000000E+00  0.30000000000E+02  0.30000000000E+02  0.00000000000E+00 0.  1.
        -11   -1    0    0    0    0 -0.00000000000E+00 -0.00000000000E+00 -0.30000000000E+02  0.30000000000E+02  0.00000000000E+00 0. -1.
         23    2    1    2    0    0  0.00000000000E+00  0.00000000000E+00  0.00000000000E+00  0.60000000000E+02  0.60000000000E+02 0.  0.
          5    1    3    3  501    0  0.72976402547E+01 -0.16409249124E+02 -0.23566734816E+02  0.30000000000E+02  0.47000000000E+01 0. -1.
         -5    1    3    3    0  501 -0.72976402547E+01  0.16409249124E+02  0.23566734816E+02  0.30000000000E+02  0.47000000000E+01 0.  1.
</event>
<event>
 5    1  0.7702600E-002  0.6000000E+02  0.7546771E-02  0.1259629E+00
         11   -1    0    0    0    0  0.00000000000E+00  0.00000000000E+00  0.30000000000E+02  0.30000000000E+02  0.00000000000E+00 0.  1.
        -11   -1    0    0    0    0 -0.00000000000E+00 -0.00000000000E+00 -0.30000000000E+02  0.30000000000E+02  0.00000000000E+00 0. -1.
         23    2    1    2    0    0  0.00000000000E+00  0.00000000000E+00  0.00000000000E+00  0.60000000000E+02  0.60000000000E+02 0.  0.
          5    1    3    3  501    0  0.17636137443E+02  0.53592791421E+01 -0.23198163358E+02  0.30000000000E+02  0.47000000000E+01 0. -1.
         -5    1    3    3    0  501 -0.17636137443E+02 -0.53592791421E+01  0.23198163358E+02  0.30000000000E+02  0.47000000000E+01 0.  1.
</event>
<event>
 5    1  0.7702600E-002  0.6000000E+02  0.7546771E-02  0.1259629E+00
         11   -1    0    0    0    0  0.00000000000E+00  0.00000000000E+00  0.30000000000E+02  0.30000000000E+02  0.00000000000E+00 0.  1.
        -11   -1    0    0    0    0 -0.00000000000E+00 -0.00000000000E+00 -0.30000000000E+02  0.30000000000E+02  0.00000000000E+00 0. -1.
         23    2    1    2    0    0  0.00000000000E+00  0.00000000000E+00  0.00000000000E+00  0.60000000000E+02  0.60000000000E+02 0.  0.
          5    1    3    3  501    0 -0.16521316038E+02  0.15875418010E+02 -0.18786357267E+02  0.30000000000E+02  0.47000000000E+01 0. -1.
         -5    1    3    3    0  501  0.16521316038E+02 -0.15875418010E+02  0.18786357267E+02  0.30000000000E+02  0.47000000000E+01 0.  1.
</event>
<event>
 5    1  0.7702600E-002  0.6000000E+02  0.7546771E-02  0.1259629E+00
         11   -1    0    0    0    0  0.00000000000E+00  0.00000000000E+00  0.30000000000E+02  0.30000000000E+02  0.00000000000E+00 0.  1.
        -11   -1    0    0    0    0 -0.00000000000E+00 -0.00000000000E+00 -0.30000000000E+02  0.30000000000E+02  0.00000000000E+00 0. -1.
         23    2    1    2    0    0  0.00000000000E+00  0.00000000000E+00  0.00000000000E+00  0.60000000000E+02  0.60000000000E+02 0.  0.
          5    1    3    3  501    0  0.21061028365E+02  0.16054158148E+02 -0.13289360043E+02  0.30000000000E+02  0.47000000000E+01 0. -1.
         -5    1    3    3    0  501 -0.21061028365E+02 -0.16054158148E+02  0.13289360043E+02  0.30000000000E+02  0.47000000000E+01 0.  1.
</event>
<event>
 5    1  0.7702600E-002  0.6000000E+02  0.7546771E-02  0.1259629E+00
         11   -1    0    0    0    0  0.00000000000E+00  0.00000000000E+00  0.30000000000E+02  0.30000000000E+02  0.00000000000E+00 0. -1.
        -11   -1    0    0    0    0 -0.00000000000E+00 -0.00000000000E+00 -0.30000000000E+02  0.30000000000E+02  0.00000000000E+00 0.  1.
         23    2    1    2    0    0  0.00000000000E+00  0.00000000000E+00  0.00000000000E+00  0.60000000000E+02  0.60000000000E+02 0.  0.
          5    1    3    3  501    0  0.20905303756E+02 -0.52963409788E+01 -0.20318145760E+02  0.30000000000E+02  0.47000000000E+01 0.  1.
         -5    1    3    3    0  501 -0.20905303756E+02  0.52963409788E+01  0.20318145760E+02  0.30000000000E+02  0.47000000000E+01 0. -1.
</event>
<event>
 5    1  0.7702600E-002  0.6000000E+02  0.7546771E-02  0.1259629E+00
         11   -1    0    0    0    0  0.00000000000E+00  0.00000000000E+00  0.30000000000E+02  0.30000000000E+02  0.00000000000E+00 0.  1.
        -11   -1    0    0    0    0 -0.00000000000E+00 -0.00000000000E+00 -0.30000000000E+02  0.30000000000E+02  0.00000000000E+00 0. -1.
         23    2    1    2    0    0  0.00000000000E+00  0.00000000000E+00  0.00000000000E+00  0.60000000000E+02  0.60000000000E+02 0.  0.
          5    1    3    3  501    0 -0.18249693309E+02  0.95066367211E+01 -0.21318596398E+02  0.30000000000E+02  0.47000000000E+01 0. -1.
         -5    1    3    3    0  501  0.18249693309E+02 -0.95066367211E+01  0.21318596398E+02  0.30000000000E+02  0.47000000000E+01 0.  1.
</event>
<event>
 5    1  0.7702600E-002  0.6000000E+02  0.7546771E-02  0.1259629E+00
         11   -1    0    0    0    0  0.00000000000E+00  0.00000000000E+00  0.30000000000E+02  0.30000000000E+02  0.00000000000E+00 0.  1.
        -11   -1    0    0    0    0 -0.00000000000E+00 -0.00000000000E+00 -0.30000000000E+02  0.30000000000E+02  0.00000000000E+00 0. -1.
         23    2    1    2    0    0  0.00000000000E+00  0.00000000000E+00  0.00000000000E+00  0.60000000000E+02  0.60000000000E+02 0.  0.
          5    1    3    3  501    0  0.12323404056E+02 -0.21218558183E+02 -0.16607724140E+02  0.30000000000E+02  0.47000000000E+01 0. -1.
         -5    1    3    3    0  501 -0.12323404056E+02  0.21218558183E+02  0.16607724140E+02  0.30000000000E+02  0.47000000000E+01 0.  1.
</event>
<event>
 5    1  0.7702600E-002  0.6000000E+02  0.7546771E-02  0.1259629E+00
         11   -1    0    0    0    0  0.00000000000E+00  0.00000000000E+00  0.30000000000E+02  0.30000000000E+02  0.00000000000E+00 0.  1.
        -11   -1    0    0    0    0 -0.00000000000E+00 -0.00000000000E+00 -0.30000000000E+02  0.30000000000E+02  0.00000000000E+00 0. -1.
         23    2    1    2    0    0  0.00000000000E+00  0.00000000000E+00  0.00000000000E+00  0.60000000000E+02  0.60000000000E+02 0.  0.
          5    1    3    3  501    0 -0.94262188825E+01  0.79241316921E-01 -0.28090035927E+02  0.30000000000E+02  0.47000000000E+01 0. -1.
         -5    1    3    3    0  501  0.94262188825E+01 -0.79241316921E-01  0.28090035927E+02  0.30000000000E+02  0.47000000000E+01 0.  1.
</event>
<event>
 5    1  0.7702600E-002  0.6000000E+02  0.7546771E-02  0.1259629E+00
         11   -1    0    0    0    0  0.00000000000E+00  0.00000000000E+00  0.30000000000E+02  0.30000000000E+02  0.00000000000E+00 0. -1.
        -11   -1    0    0    0    0 -0.00000000000E+00 -0.00000000000E+00 -0.30000000000E+02  0.30000000000E+02  0.00000000000E+00 0.  1.
         23    2    1    2    0    0  0.00000000000E+00  0.00000000000E+00  0.00000000000E+00  0.60000000000E+02  0.60000000000E+02 0.  0.
          5    1    3    3  501    0  0.12921226763E+02 -0.11087399060E+02 -0.24249154233E+02  0.30000000000E+02  0.47000000000E+01 0.  1.
         -5    1    3    3    0  501 -0.12921226763E+02  0.11087399060E+02  0.24249154233E+02  0.30000000000E+02  0.47000000000E+01 0. -1.
</event>
<event>
 5    1  0.7702600E-002  0.6000000E+02  0.7546771E-02  0.1259629E+00
         11   -1    0    0    0    0  0.00000000000E+00  0.00000000000E+00  0.30000000000E+02  0.30000000000E+02  0.00000000000E+00 0.  1.
        -11   -1    0    0    0    0 -0.00000000000E+00 -0.00000000000E+00 -0.30000000000E+02  0.30000000000E+02  0.00000000000E+00 0. -1.
         23    2    1    2    0    0  0.00000000000E+00  0.00000000000E+00  0.00000000000E+00  0.60000000000E+02  0.60000000000E+02 0.  0.
          5    1    3    3  501    0 -0.76051914415E+01 -0.63977562025E+01 -0.27913075408E+02  0.30000000000E+02  0.47000000000E+01 0. -1.
         -5    1    3    3    0  501  0.76051914415E+01  0.63977562025E+01  0.27913075408E+02  0.30000000000E+02  0.47000000000E+01 0.  1.
</event>
<event>
 5    1  0.7702600E-002  0.6000000E+02  0.7546771E-02  0.1259629E+00
         11   -1    0    0    0    0  0.00000000000E+00  0.00000000000E+00  0.30000000000E+02  0.30000000000E+02  0.00000000000E+00 0. -1.
        -11   -1    0    0    0    0 -0.00000000000E+00 -0.00000000000E+00 -0.30000000000E+02  0.30000000000E+02  0.00000000000E+00 0.  1.
         23    2    1    2    0    0  0.00000000000E+00  0.00000000000E+00  0.00000000000E+00  0.60000000000E+02  0.60000000000E+02 0.  0.
          5    1    3    3  501    0  0.17676495193E+02 -0.23038387078E+02 -0.58893326067E+01  0.30000000000E+02  0.47000000000E+01 0.  1.
         -5    1    3    3    0  501 -0.17676495193E+02  0.23038387078E+02  0.58893326067E+01  0.30000000000E+02  0.47000000000E+01 0. -1.
</event>
<event>
 5    1  0.7702600E-002  0.6000000E+02  0.7546771E-02  0.1259629E+00
         11   -1    0    0    0    0  0.00000000000E+00  0.00000000000E+00  0.30000000000E+02  0.30000000000E+02  0.00000000000E+00 0.  1.
        -11   -1    0    0    0    0 -0.00000000000E+00 -0.00000000000E+00 -0.30000000000E+02  0.30000000000E+02  0.00000000000E+00 0. -1.
         23    2    1    2    0    0  0.00000000000E+00  0.00000000000E+00  0.00000000000E+00  0.60000000000E+02  0.60000000000E+02 0.  0.
          5    1    3    3  501    0  0.79125206312E+01 -0.28297512377E+02  0.38148146115E+01  0.30000000000E+02  0.47000000000E+01 0.  1.
         -5    1    3    3    0  501 -0.79125206312E+01  0.28297512377E+02 -0.38148146115E+01  0.30000000000E+02  0.47000000000E+01 0.  1.
</event>
<event>
 5    1  0.7702600E-002  0.6000000E+02  0.7546771E-02  0.1259629E+00
         11   -1    0    0    0    0  0.00000000000E+00  0.00000000000E+00  0.30000000000E+02  0.30000000000E+02  0.00000000000E+00 0.  1.
        -11   -1    0    0    0    0 -0.00000000000E+00 -0.00000000000E+00 -0.30000000000E+02  0.30000000000E+02  0.00000000000E+00 0. -1.
         23    2    1    2    0    0  0.00000000000E+00  0.00000000000E+00  0.00000000000E+00  0.60000000000E+02  0.60000000000E+02 0.  0.
          5    1    3    3  501    0 -0.49281612339E+01 -0.20610146404E+02 -0.20708575327E+02  0.30000000000E+02  0.47000000000E+01 0. -1.
         -5    1    3    3    0  501  0.49281612339E+01  0.20610146404E+02  0.20708575327E+02  0.30000000000E+02  0.47000000000E+01 0.  1.
</event>
<event>
 5    1  0.7702600E-002  0.6000000E+02  0.7546771E-02  0.1259629E+00
         11   -1    0    0    0    0  0.00000000000E+00  0.00000000000E+00  0.30000000000E+02  0.30000000000E+02  0.00000000000E+00 0.  1.
        -11   -1    0    0    0    0 -0.00000000000E+00 -0.00000000000E+00 -0.30000000000E+02  0.30000000000E+02  0.00000000000E+00 0. -1.
         23    2    1    2    0    0  0.00000000000E+00  0.00000000000E+00  0.00000000000E+00  0.60000000000E+02  0.60000000000E+02 0.  0.
          5    1    3    3  501    0 -0.13164490293E+02  0.26000745766E+02 -0.53448493823E+01  0.30000000000E+02  0.47000000000E+01 0. -1.
         -5    1    3    3    0  501  0.13164490293E+02 -0.26000745766E+02  0.53448493823E+01  0.30000000000E+02  0.47000000000E+01 0.  1.
</event>
<event>
 5    1  0.7702600E-002  0.6000000E+02  0.7546771E-02  0.1259629E+00
         11   -1    0    0    0    0  0.00000000000E+00  0.00000000000E+00  0.30000000000E+02  0.30000000000E+02  0.00000000000E+00 0.  1.
        -11   -1    0    0    0    0 -0.00000000000E+00 -0.00000000000E+00 -0.30000000000E+02  0.30000000000E+02  0.00000000000E+00 0. -1.
         23    2    1    2    0    0  0.00000000000E+00  0.00000000000E+00  0.00000000000E+00  0.60000000000E+02  0.60000000000E+02 0.  0.
          5    1    3    3  501    0 -0.10067024689E+02 -0.13308167866E+02 -0.24483824905E+02  0.30000000000E+02  0.47000000000E+01 0. -1.
         -5    1    3    3    0  501  0.10067024689E+02  0.13308167866E+02  0.24483824905E+02  0.30000000000E+02  0.47000000000E+01 0.  1.
</event>
<event>
 5    1  0.7702600E-002  0.6000000E+02  0.7546771E-02  0.1259629E+00
         11   -1    0    0    0    0  0.00000000000E+00  0.00000000000E+00  0.30000000000E+02  0.30000000000E+02  0.00000000000E+00 0.  1.
        -11   -1    0    0    0    0 -0.00000000000E+00 -0.00000000000E+00 -0.30000000000E+02  0.30000000000E+02  0.00000000000E+00 0. -1.
         23    2    1    2    0    0  0.00000000000E+00  0.00000000000E+00  0.00000000000E+00  0.60000000000E+02  0.60000000000E+02 0.  0.
          5    1    3    3  501    0 -0.19907138854E+02  0.21671064875E+02  0.34613248684E+01  0.30000000000E+02  0.47000000000E+01 0. -1.
         -5    1    3    3    0  501  0.19907138854E+02 -0.21671064875E+02 -0.34613248684E+01  0.30000000000E+02  0.47000000000E+01 0.  1.
</event>
<event>
 5    1  0.7702600E-002  0.6000000E+02  0.7546771E-02  0.1259629E+00
         11   -1    0    0    0    0  0.00000000000E+00  0.00000000000E+00  0.30000000000E+02  0.30000000000E+02  0.00000000000E+00 0. -1.
        -11   -1    0    0    0    0 -0.00000000000E+00 -0.00000000000E+00 -0.30000000000E+02  0.30000000000E+02  0.00000000000E+00 0.  1.
         23    2    1    2    0    0  0.00000000000E+00  0.00000000000E+00  0.00000000000E+00  0.60000000000E+02  0.60000000000E+02 0.  0.
          5    1    3    3  501    0 -0.13898001243E+02  0.82763085769E+01 -0.24824549901E+02  0.30000000000E+02  0.47000000000E+01 0.  1.
         -5    1    3    3    0  501  0.13898001243E+02 -0.82763085769E+01  0.24824549901E+02  0.30000000000E+02  0.47000000000E+01 0. -1.
</event>
<event>
 5    1  0.7702600E-002  0.6000000E+02  0.7546771E-02  0.1259629E+00
         11   -1    0    0    0    0  0.00000000000E+00  0.00000000000E+00  0.30000000000E+02  0.30000000000E+02  0.00000000000E+00 0.  1.
        -11   -1    0    0    0    0 -0.00000000000E+00 -0.00000000000E+00 -0.30000000000E+02  0.30000000000E+02  0.00000000000E+00 0. -1.
         23    2    1    2    0    0  0.00000000000E+00  0.00000000000E+00  0.00000000000E+00  0.60000000000E+02  0.60000000000E+02 0.  0.
          5    1    3    3  501    0  0.15449354097E+02  0.23624349705E+02 -0.90065286871E+01  0.30000000000E+02  0.47000000000E+01 0. -1.
         -5    1    3    3    0  501 -0.15449354097E+02 -0.23624349705E+02  0.90065286871E+01  0.30000000000E+02  0.47000000000E+01 0.  1.
</event>
<event>
 5    1  0.7702600E-002  0.6000000E+02  0.7546771E-02  0.1259629E+00
         11   -1    0    0    0    0  0.00000000000E+00  0.00000000000E+00  0.30000000000E+02  0.30000000000E+02  0.00000000000E+00 0.  1.
        -11   -1    0    0    0    0 -0.00000000000E+00 -0.00000000000E+00 -0.30000000000E+02  0.30000000000E+02  0.00000000000E+00 0. -1.
         23    2    1    2    0    0  0.00000000000E+00  0.00000000000E+00  0.00000000000E+00  0.60000000000E+02  0.60000000000E+02 0.  0.
          5    1    3    3  501    0 -0.14946552228E+02  0.20922547296E+02 -0.14722689671E+02  0.30000000000E+02  0.47000000000E+01 0. -1.
         -5    1    3    3    0  501  0.14946552228E+02 -0.20922547296E+02  0.14722689671E+02  0.30000000000E+02  0.47000000000E+01 0.  1.
</event>
<event>
 5    1  0.7702600E-002  0.6000000E+02  0.7546771E-02  0.1259629E+00
         11   -1    0    0    0    0  0.00000000000E+00  0.00000000000E+00  0.30000000000E+02  0.30000000000E+02  0.00000000000E+00 0.  1.
        -11   -1    0    0    0    0 -0.00000000000E+00 -0.00000000000E+00 -0.30000000000E+02  0.30000000000E+02  0.00000000000E+00 0. -1.
         23    2    1    2    0    0  0.00000000000E+00  0.00000000000E+00  0.00000000000E+00  0.60000000000E+02  0.60000000000E+02 0.  0.
          5    1    3    3  501    0 -0.12759859605E+01  0.84175016592E+01 -0.28380055068E+02  0.30000000000E+02  0.47000000000E+01 0. -1.
         -5    1    3    3    0  501  0.12759859605E+01 -0.84175016592E+01  0.28380055068E+02  0.30000000000E+02  0.47000000000E+01 0.  1.
</event>
<event>
 5    1  0.7702600E-002  0.6000000E+02  0.7546771E-02  0.1259629E+00
         11   -1    0    0    0    0  0.00000000000E+00  0.00000000000E+00  0.30000000000E+02  0.30000000000E+02  0.00000000000E+00 0. -1.
        -11   -1    0    0    0    0 -0.00000000000E+00 -0.00000000000E+00 -0.30000000000E+02  0.30000000000E+02  0.00000000000E+00 0.  1.
         23    2    1    2    0    0  0.00000000000E+00  0.00000000000E+00  0.00000000000E+00  0.60000000000E+02  0.60000000000E+02 0.  0.
          5    1    3    3  501    0 -0.90566337097E+01 -0.17900219623E+02 -0.21805263660E+02  0.30000000000E+02  0.47000000000E+01 0.  1.
         -5    1    3    3    0  501  0.90566337097E+01  0.17900219623E+02  0.21805263660E+02  0.30000000000E+02  0.47000000000E+01 0. -1.
</event>
<event>
 5    1  0.7702600E-002  0.6000000E+02  0.7546771E-02  0.1259629E+00
         11   -1    0    0    0    0  0.00000000000E+00  0.00000000000E+00  0.30000000000E+02  0.30000000000E+02  0.00000000000E+00 0.  1.
        -11   -1    0    0    0    0 -0.00000000000E+00 -0.00000000000E+00 -0.30000000000E+02  0.30000000000E+02  0.00000000000E+00 0. -1.
         23    2    1    2    0    0  0.00000000000E+00  0.00000000000E+00  0.00000000000E+00  0.60000000000E+02  0.60000000000E+02 0.  0.
          5    1    3    3  501    0 -0.61389515289E+01  0.11207764298E+02 -0.26732177120E+02  0.30000000000E+02  0.47000000000E+01 0. -1.
         -5    1    3    3    0  501  0.61389515289E+01 -0.11207764298E+02  0.26732177120E+02  0.30000000000E+02  0.47000000000E+01 0.  1.
</event>
<event>
 5    1  0.7702600E-002  0.6000000E+02  0.7546771E-02  0.1259629E+00
         11   -1    0    0    0    0  0.00000000000E+00  0.00000000000E+00  0.30000000000E+02  0.30000000000E+02  0.00000000000E+00 0. -1.
        -11   -1    0    0    0    0 -0.00000000000E+00 -0.00000000000E+00 -0.30000000000E+02  0.30000000000E+02  0.00000000000E+00 0.  1.
         23    2    1    2    0    0  0.00000000000E+00  0.00000000000E+00  0.00000000000E+00  0.60000000000E+02  0.60000000000E+02 0.  0.
          5    1    3    3  501    0  0.26133088132E+02 -0.11943316829E+02  0.72338708722E+01  0.30000000000E+02  0.47000000000E+01 0.  1.
         -5    1    3    3    0  501 -0.26133088132E+02  0.11943316829E+02 -0.72338708722E+01  0.30000000000E+02  0.47000000000E+01 0. -1.
</event>
<event>
 5    1  0.7702600E-002  0.6000000E+02  0.7546771E-02  0.1259629E+00
         11   -1    0    0    0    0  0.00000000000E+00  0.00000000000E+00  0.30000000000E+02  0.30000000000E+02  0.00000000000E+00 0.  1.
        -11   -1    0    0    0    0 -0.00000000000E+00 -0.00000000000E+00 -0.30000000000E+02  0.30000000000E+02  0.00000000000E+00 0. -1.
         23    2    1    2    0    0  0.00000000000E+00  0.00000000000E+00  0.00000000000E+00  0.60000000000E+02  0.60000000000E+02 0.  0.
          5    1    3    3  501    0  0.29625657661E+02 -0.47786112824E+00 -0.45353224514E-01  0.30000000000E+02  0.47000000000E+01 0.  1.
         -5    1    3    3    0  501 -0.29625657661E+02  0.47786112824E+00  0.45353224514E-01  0.30000000000E+02  0.47000000000E+01 0. -1.
</event>
<event>
 5    1  0.7702600E-002  0.6000000E+02  0.7546771E-02  0.1259629E+00
         11   -1    0    0    0    0  0.00000000000E+00  0.00000000000E+00  0.30000000000E+02  0.30000000000E+02  0.00000000000E+00 0.  1.
        -11   -1    0    0    0    0 -0.00000000000E+00 -0.00000000000E+00 -0.30000000000E+02  0.30000000000E+02  0.00000000000E+00 0. -1.
         23    2    1    2    0    0  0.00000000000E+00  0.00000000000E+00  0.00000000000E+00  0.60000000000E+02  0.60000000000E+02 0.  0.
          5    1    3    3  501    0  0.12579933733E+02 -0.10809233763E+02 -0.24552306057E+02  0.30000000000E+02  0.47000000000E+01 0. -1.
         -5    1    3    3    0  501 -0.12579933733E+02  0.10809233763E+02  0.24552306057E+02  0.30000000000E+02  0.47000000000E+01 0.  1.
</event>
<event>
 5    1  0.7702600E-002  0.6000000E+02  0.7546771E-02  0.1259629E+00
         11   -1    0    0    0    0  0.00000000000E+00  0.00000000000E+00  0.30000000000E+02  0.30000000000E+02  0.00000000000E+00 0.  1.
        -11   -1    0    0    0    0 -0.00000000000E+00 -0.00000000000E+00 -0.30000000000E+02  0.30000000000E+02  0.00000000000E+00 0. -1.
         23    2    1    2    0    0  0.00000000000E+00  0.00000000000E+00  0.00000000000E+00  0.60000000000E+02  0.60000000000E+02 0.  0.
          5    1    3    3  501    0  0.20579983086E+02 -0.21239696614E+02 -0.18026602280E+01  0.30000000000E+02  0.47000000000E+01 0. -1.
         -5    1    3    3    0  501 -0.20579983086E+02  0.21239696614E+02  0.18026602280E+01  0.30000000000E+02  0.47000000000E+01 0.  1.
</event>
<event>
 5    1  0.7702600E-002  0.6000000E+02  0.7546771E-02  0.1259629E+00
         11   -1    0    0    0    0  0.00000000000E+00  0.00000000000E+00  0.30000000000E+02  0.30000000000E+02  0.00000000000E+00 0.  1.
        -11   -1    0    0    0    0 -0.00000000000E+00 -0.00000000000E+00 -0.30000000000E+02  0.30000000000E+02  0.00000000000E+00 0. -1.
         23    2    1    2    0    0  0.00000000000E+00  0.00000000000E+00  0.00000000000E+00  0.60000000000E+02  0.60000000000E+02 0.  0.
          5    1    3    3  501    0 -0.20613830602E+02 -0.30180396829E+01 -0.21068256321E+02  0.30000000000E+02  0.47000000000E+01 0. -1.
         -5    1    3    3    0  501  0.20613830602E+02  0.30180396829E+01  0.21068256321E+02  0.30000000000E+02  0.47000000000E+01 0.  1.
</event>
<event>
 5    1  0.7702600E-002  0.6000000E+02  0.7546771E-02  0.1259629E+00
         11   -1    0    0    0    0  0.00000000000E+00  0.00000000000E+00  0.30000000000E+02  0.30000000000E+02  0.00000000000E+00 0.  1.
        -11   -1    0    0    0    0 -0.00000000000E+00 -0.00000000000E+00 -0.30000000000E+02  0.30000000000E+02  0.00000000000E+00 0. -1.
         23    2    1    2    0    0  0.00000000000E+00  0.00000000000E+00  0.00000000000E+00  0.60000000000E+02  0.60000000000E+02 0.  0.
          5    1    3    3  501    0  0.14221469252E+01  0.28494537058E+02  0.79968028596E+01  0.30000000000E+02  0.47000000000E+01 0. -1.
         -5    1    3    3    0  501 -0.14221469252E+01 -0.28494537058E+02 -0.79968028596E+01  0.30000000000E+02  0.47000000000E+01 0.  1.
</event>
<event>
 5    1  0.7702600E-002  0.6000000E+02  0.7546771E-02  0.1259629E+00
         11   -1    0    0    0    0  0.00000000000E+00  0.00000000000E+00  0.30000000000E+02  0.30000000000E+02  0.00000000000E+00 0.  1.
        -11   -1    0    0    0    0 -0.00000000000E+00 -0.00000000000E+00 -0.30000000000E+02  0.30000000000E+02  0.00000000000E+00 0. -1.
         23    2    1    2    0    0  0.00000000000E+00  0.00000000000E+00  0.00000000000E+00  0.60000000000E+02  0.60000000000E+02 0.  0.
          5    1    3    3  501    0  0.80484827048E+01 -0.22288473134E+02 -0.17786396248E+02  0.30000000000E+02  0.47000000000E+01 0. -1.
         -5    1    3    3    0  501 -0.80484827048E+01  0.22288473134E+02  0.17786396248E+02  0.30000000000E+02  0.47000000000E+01 0.  1.
</event>
<event>
 5    1  0.7702600E-002  0.6000000E+02  0.7546771E-02  0.1259629E+00
         11   -1    0    0    0    0  0.00000000000E+00  0.00000000000E+00  0.30000000000E+02  0.30000000000E+02  0.00000000000E+00 0. -1.
        -11   -1    0    0    0    0 -0.00000000000E+00 -0.00000000000E+00 -0.30000000000E+02  0.30000000000E+02  0.00000000000E+00 0.  1.
         23    2    1    2    0    0  0.00000000000E+00  0.00000000000E+00  0.00000000000E+00  0.60000000000E+02  0.60000000000E+02 0.  0.
          5    1    3    3  501    0  0.18900829155E+02 -0.15122226280E+02 -0.17087625042E+02  0.30000000000E+02  0.47000000000E+01 0.  1.
         -5    1    3    3    0  501 -0.18900829155E+02  0.15122226280E+02  0.17087625042E+02  0.30000000000E+02  0.47000000000E+01 0. -1.
</event>
<event>
 5    1  0.7702600E-002  0.6000000E+02  0.7546771E-02  0.1259629E+00
         11   -1    0    0    0    0  0.00000000000E+00  0.00000000000E+00  0.30000000000E+02  0.30000000000E+02  0.00000000000E+00 0. -1.
        -11   -1    0    0    0    0 -0.00000000000E+00 -0.00000000000E+00 -0.30000000000E+02  0.30000000000E+02  0.00000000000E+00 0.  1.
         23    2    1    2    0    0  0.00000000000E+00  0.00000000000E+00  0.00000000000E+00  0.60000000000E+02  0.60000000000E+02 0.  0.
          5    1    3    3  501    0  0.37295350903E+01 -0.19246615928E+02 -0.22216398073E+02  0.30000000000E+02  0.47000000000E+01 0.  1.
         -5    1    3    3    0  501 -0.37295350903E+01  0.19246615928E+02  0.22216398073E+02  0.30000000000E+02  0.47000000000E+01 0. -1.
</event>
<event>
 5    1  0.7702600E-002  0.6000000E+02  0.7546771E-02  0.1259629E+00
         11   -1    0    0    0    0  0.00000000000E+00  0.00000000000E+00  0.30000000000E+02  0.30000000000E+02  0.00000000000E+00 0. -1.
        -11   -1    0    0    0    0 -0.00000000000E+00 -0.00000000000E+00 -0.30000000000E+02  0.30000000000E+02  0.00000000000E+00 0.  1.
         23    2    1    2    0    0  0.00000000000E+00  0.00000000000E+00  0.00000000000E+00  0.60000000000E+02  0.60000000000E+02 0.  0.
          5    1    3    3  501    0  0.25261167973E+02  0.13461335338E+02 -0.76534857140E+01  0.30000000000E+02  0.47000000000E+01 0.  1.
         -5    1    3    3    0  501 -0.25261167973E+02 -0.13461335338E+02  0.76534857140E+01  0.30000000000E+02  0.47000000000E+01 0. -1.
</event>
<event>
 5    1  0.7702600E-002  0.6000000E+02  0.7546771E-02  0.1259629E+00
         11   -1    0    0    0    0  0.00000000000E+00  0.00000000000E+00  0.30000000000E+02  0.30000000000E+02  0.00000000000E+00 0.  1.
        -11   -1    0    0    0    0 -0.00000000000E+00 -0.00000000000E+00 -0.30000000000E+02  0.30000000000E+02  0.00000000000E+00 0. -1.
         23    2    1    2    0    0  0.00000000000E+00  0.00000000000E+00  0.00000000000E+00  0.60000000000E+02  0.60000000000E+02 0.  0.
          5    1    3    3  501    0  0.16305954609E+02 -0.24715492538E+01 -0.24615387232E+02  0.30000000000E+02  0.47000000000E+01 0. -1.
         -5    1    3    3    0  501 -0.16305954609E+02  0.24715492538E+01  0.24615387232E+02  0.30000000000E+02  0.47000000000E+01 0.  1.
</event>
<event>
 5    1  0.7702600E-002  0.6000000E+02  0.7546771E-02  0.1259629E+00
         11   -1    0    0    0    0  0.00000000000E+00  0.00000000000E+00  0.30000000000E+02  0.30000000000E+02  0.00000000000E+00 0. -1.
        -11   -1    0    0    0    0 -0.00000000000E+00 -0.00000000000E+00 -0.30000000000E+02  0.30000000000E+02  0.00000000000E+00 0.  1.
         23    2    1    2    0    0  0.00000000000E+00  0.00000000000E+00  0.00000000000E+00  0.60000000000E+02  0.60000000000E+02 0.  0.
          5    1    3    3  501    0  0.14832456919E+02  0.24325602882E+02 -0.81346952108E+01  0.30000000000E+02  0.47000000000E+01 0. -1.
         -5    1    3    3    0  501 -0.14832456919E+02 -0.24325602882E+02  0.81346952108E+01  0.30000000000E+02  0.47000000000E+01 0.  1.
</event>
<event>
 5    1  0.7702600E-002  0.6000000E+02  0.7546771E-02  0.1259629E+00
         11   -1    0    0    0    0  0.00000000000E+00  0.00000000000E+00  0.30000000000E+02  0.30000000000E+02  0.00000000000E+00 0. -1.
        -11   -1    0    0    0    0 -0.00000000000E+00 -0.00000000000E+00 -0.30000000000E+02  0.30000000000E+02  0.00000000000E+00 0.  1.
         23    2    1    2    0    0  0.00000000000E+00  0.00000000000E+00  0.00000000000E+00  0.60000000000E+02  0.60000000000E+02 0.  0.
          5    1    3    3  501    0 -0.25217425210E+02  0.62189063446E+01 -0.14258915445E+02  0.30000000000E+02  0.47000000000E+01 0.  1.
         -5    1    3    3    0  501  0.25217425210E+02 -0.62189063446E+01  0.14258915445E+02  0.30000000000E+02  0.47000000000E+01 0. -1.
</event>
<event>
 5    1  0.7702600E-002  0.6000000E+02  0.7546771E-02  0.1259629E+00
         11   -1    0    0    0    0  0.00000000000E+00  0.00000000000E+00  0.30000000000E+02  0.30000000000E+02  0.00000000000E+00 0. -1.
        -11   -1    0    0    0    0 -0.00000000000E+00 -0.00000000000E+00 -0.30000000000E+02  0.30000000000E+02  0.00000000000E+00 0.  1.
         23    2    1    2    0    0  0.00000000000E+00  0.00000000000E+00  0.00000000000E+00  0.60000000000E+02  0.60000000000E+02 0.  0.
          5    1    3    3  501    0  0.14901560887E+02  0.14707346932E+02 -0.20965386459E+02  0.30000000000E+02  0.47000000000E+01 0.  1.
         -5    1    3    3    0  501 -0.14901560887E+02 -0.14707346932E+02  0.20965386459E+02  0.30000000000E+02  0.47000000000E+01 0. -1.
</event>
<event>
 5    1  0.7702600E-002  0.6000000E+02  0.7546771E-02  0.1259629E+00
         11   -1    0    0    0    0  0.00000000000E+00  0.00000000000E+00  0.30000000000E+02  0.30000000000E+02  0.00000000000E+00 0.  1.
        -11   -1    0    0    0    0 -0.00000000000E+00 -0.00000000000E+00 -0.30000000000E+02  0.30000000000E+02  0.00000000000E+00 0. -1.
         23    2    1    2    0    0  0.00000000000E+00  0.00000000000E+00  0.00000000000E+00  0.60000000000E+02  0.60000000000E+02 0.  0.
          5    1    3    3  501    0 -0.34214271666E+01  0.19025863485E+02 -0.22454851476E+02  0.30000000000E+02  0.47000000000E+01 0. -1.
         -5    1    3    3    0  501  0.34214271666E+01 -0.19025863485E+02  0.22454851476E+02  0.30000000000E+02  0.47000000000E+01 0.  1.
</event>
<event>
 5    1  0.7702600E-002  0.6000000E+02  0.7546771E-02  0.1259629E+00
         11   -1    0    0    0    0  0.00000000000E+00  0.00000000000E+00  0.30000000000E+02  0.30000000000E+02  0.00000000000E+00 0.  1.
        -11   -1    0    0    0    0 -0.00000000000E+00 -0.00000000000E+00 -0.30000000000E+02  0.30000000000E+02  0.00000000000E+00 0. -1.
         23    2    1    2    0    0  0.00000000000E+00  0.00000000000E+00  0.00000000000E+00  0.60000000000E+02  0.60000000000E+02 0.  0.
          5    1    3    3  501    0  0.22185538707E+02  0.39315057084E+01  0.19242014841E+02  0.30000000000E+02  0.47000000000E+01 0.  1.
         -5    1    3    3    0  501 -0.22185538707E+02 -0.39315057084E+01 -0.19242014841E+02  0.30000000000E+02  0.47000000000E+01 0. -1.
</event>
<event>
 5    1  0.7702600E-002  0.6000000E+02  0.7546771E-02  0.1259629E+00
         11   -1    0    0    0    0  0.00000000000E+00  0.00000000000E+00  0.30000000000E+02  0.30000000000E+02  0.00000000000E+00 0.  1.
        -11   -1    0    0    0    0 -0.00000000000E+00 -0.00000000000E+00 -0.30000000000E+02  0.30000000000E+02  0.00000000000E+00 0. -1.
         23    2    1    2    0    0  0.00000000000E+00  0.00000000000E+00  0.00000000000E+00  0.60000000000E+02  0.60000000000E+02 0.  0.
          5    1    3    3  501    0 -0.11054864386E+02  0.20788191359E+01 -0.27411283888E+02  0.30000000000E+02  0.47000000000E+01 0. -1.
         -5    1    3    3    0  501  0.11054864386E+02 -0.20788191359E+01  0.27411283888E+02  0.30000000000E+02  0.47000000000E+01 0.  1.
</event>
<event>
 5    1  0.7702600E-002  0.6000000E+02  0.7546771E-02  0.1259629E+00
         11   -1    0    0    0    0  0.00000000000E+00  0.00000000000E+00  0.30000000000E+02  0.30000000000E+02  0.00000000000E+00 0.  1.
        -11   -1    0    0    0    0 -0.00000000000E+00 -0.00000000000E+00 -0.30000000000E+02  0.30000000000E+02  0.00000000000E+00 0. -1.
         23    2    1    2    0    0  0.00000000000E+00  0.00000000000E+00  0.00000000000E+00  0.60000000000E+02  0.60000000000E+02 0.  0.
          5    1    3    3  501    0  0.73798422725E+01  0.13638492176E+02 -0.25247563431E+02  0.30000000000E+02  0.47000000000E+01 0. -1.
         -5    1    3    3    0  501 -0.73798422725E+01 -0.13638492176E+02  0.25247563431E+02  0.30000000000E+02  0.47000000000E+01 0.  1.
</event>
<event>
 5    1  0.7702600E-002  0.6000000E+02  0.7546771E-02  0.1259629E+00
         11   -1    0    0    0    0  0.00000000000E+00  0.00000000000E+00  0.30000000000E+02  0.30000000000E+02  0.00000000000E+00 0.  1.
        -11   -1    0    0    0    0 -0.00000000000E+00 -0.00000000000E+00 -0.30000000000E+02  0.30000000000E+02  0.00000000000E+00 0. -1.
         23    2    1    2    0    0  0.00000000000E+00  0.00000000000E+00  0.00000000000E+00  0.60000000000E+02  0.60000000000E+02 0.  0.
          5    1    3    3  501    0  0.12582558317E+02  0.24551976545E+02 -0.10806927126E+02  0.30000000000E+02  0.47000000000E+01 0. -1.
         -5    1    3    3    0  501 -0.12582558317E+02 -0.24551976545E+02  0.10806927126E+02  0.30000000000E+02  0.47000000000E+01 0.  1.
</event>
<event>
 5    1  0.7702600E-002  0.6000000E+02  0.7546771E-02  0.1259629E+00
         11   -1    0    0    0    0  0.00000000000E+00  0.00000000000E+00  0.30000000000E+02  0.30000000000E+02  0.00000000000E+00 0. -1.
        -11   -1    0    0    0    0 -0.00000000000E+00 -0.00000000000E+00 -0.30000000000E+02  0.30000000000E+02  0.00000000000E+00 0.  1.
         23    2    1    2    0    0  0.00000000000E+00  0.00000000000E+00  0.00000000000E+00  0.60000000000E+02  0.60000000000E+02 0.  0.
          5    1    3    3  501    0 -0.68584318532E+01  0.25982812977E+02  0.12480598636E+02  0.30000000000E+02  0.47000000000E+01 0.  1.
         -5    1    3    3    0  501  0.68584318532E+01 -0.25982812977E+02 -0.12480598636E+02  0.30000000000E+02  0.47000000000E+01 0. -1.
</event>
<event>
 5    1  0.7702600E-002  0.6000000E+02  0.7546771E-02  0.1259629E+00
         11   -1    0    0    0    0  0.00000000000E+00  0.00000000000E+00  0.30000000000E+02  0.30000000000E+02  0.00000000000E+00 0.  1.
        -11   -1    0    0    0    0 -0.00000000000E+00 -0.00000000000E+00 -0.30000000000E+02  0.30000000000E+02  0.00000000000E+00 0. -1.
         23    2    1    2    0    0  0.00000000000E+00  0.00000000000E+00  0.00000000000E+00  0.60000000000E+02  0.60000000000E+02 0.  0.
          5    1    3    3  501    0  0.29478814073E+02  0.17896945999E+01 -0.23888311146E+01  0.30000000000E+02  0.47000000000E+01 0. -1.
         -5    1    3    3    0  501 -0.29478814073E+02 -0.17896945999E+01  0.23888311146E+01  0.30000000000E+02  0.47000000000E+01 0.  1.
</event>
<event>
 5    1  0.7702600E-002  0.6000000E+02  0.7546771E-02  0.1259629E+00
         11   -1    0    0    0    0  0.00000000000E+00  0.00000000000E+00  0.30000000000E+02  0.30000000000E+02  0.00000000000E+00 0.  1.
        -11   -1    0    0    0    0 -0.00000000000E+00 -0.00000000000E+00 -0.30000000000E+02  0.30000000000E+02  0.00000000000E+00 0. -1.
         23    2    1    2    0    0  0.00000000000E+00  0.00000000000E+00  0.00000000000E+00  0.60000000000E+02  0.60000000000E+02 0.  0.
          5    1    3    3  501    0 -0.22639710921E+02  0.57780194810E+01 -0.18219988482E+02  0.30000000000E+02  0.47000000000E+01 0. -1.
         -5    1    3    3    0  501  0.22639710921E+02 -0.57780194810E+01  0.18219988482E+02  0.30000000000E+02  0.47000000000E+01 0.  1.
</event>
<event>
 5    1  0.7702600E-002  0.6000000E+02  0.7546771E-02  0.1259629E+00
         11   -1    0    0    0    0  0.00000000000E+00  0.00000000000E+00  0.30000000000E+02  0.30000000000E+02  0.00000000000E+00 0.  1.
        -11   -1    0    0    0    0 -0.00000000000E+00 -0.00000000000E+00 -0.30000000000E+02  0.30000000000E+02  0.00000000000E+00 0. -1.
         23    2    1    2    0    0  0.00000000000E+00  0.00000000000E+00  0.00000000000E+00  0.60000000000E+02  0.60000000000E+02 0.  0.
          5    1    3    3  501    0  0.16899595652E+02  0.97456392894E+01 -0.22301035439E+02  0.30000000000E+02  0.47000000000E+01 0. -1.
         -5    1    3    3    0  501 -0.16899595652E+02 -0.97456392894E+01  0.22301035439E+02  0.30000000000E+02  0.47000000000E+01 0.  1.
</event>
<event>
 5    1  0.7702600E-002  0.6000000E+02  0.7546771E-02  0.1259629E+00
         11   -1    0    0    0    0  0.00000000000E+00  0.00000000000E+00  0.30000000000E+02  0.30000000000E+02  0.00000000000E+00 0.  1.
        -11   -1    0    0    0    0 -0.00000000000E+00 -0.00000000000E+00 -0.30000000000E+02  0.30000000000E+02  0.00000000000E+00 0. -1.
         23    2    1    2    0    0  0.00000000000E+00  0.00000000000E+00  0.00000000000E+00  0.60000000000E+02  0.60000000000E+02 0.  0.
          5    1    3    3  501    0  0.27700951883E+02 -0.78890654222E+01 -0.69519717716E+01  0.30000000000E+02  0.47000000000E+01 0. -1.
         -5    1    3    3    0  501 -0.27700951883E+02  0.78890654222E+01  0.69519717716E+01  0.30000000000E+02  0.47000000000E+01 0.  1.
</event>
<event>
 5    1  0.7702600E-002  0.6000000E+02  0.7546771E-02  0.1259629E+00
         11   -1    0    0    0    0  0.00000000000E+00  0.00000000000E+00  0.30000000000E+02  0.30000000000E+02  0.00000000000E+00 0.  1.
        -11   -1    0    0    0    0 -0.00000000000E+00 -0.00000000000E+00 -0.30000000000E+02  0.30000000000E+02  0.00000000000E+00 0. -1.
         23    2    1    2    0    0  0.00000000000E+00  0.00000000000E+00  0.00000000000E+00  0.60000000000E+02  0.60000000000E+02 0.  0.
          5    1    3    3  501    0  0.13780265391E+02  0.24717924833E+02  0.87771565855E+01  0.30000000000E+02  0.47000000000E+01 0. -1.
         -5    1    3    3    0  501 -0.13780265391E+02 -0.24717924833E+02 -0.87771565855E+01  0.30000000000E+02  0.47000000000E+01 0.  1.
</event>
<event>
 5    1  0.7702600E-002  0.6000000E+02  0.7546771E-02  0.1259629E+00
         11   -1    0    0    0    0  0.00000000000E+00  0.00000000000E+00  0.30000000000E+02  0.30000000000E+02  0.00000000000E+00 0.  1.
        -11   -1    0    0    0    0 -0.00000000000E+00 -0.00000000000E+00 -0.30000000000E+02  0.30000000000E+02  0.00000000000E+00 0. -1.
         23    2    1    2    0    0  0.00000000000E+00  0.00000000000E+00  0.00000000000E+00  0.60000000000E+02  0.60000000000E+02 0.  0.
          5    1    3    3  501    0  0.60117043928E+01  0.15727998390E+02 -0.24380309205E+02  0.30000000000E+02  0.47000000000E+01 0. -1.
         -5    1    3    3    0  501 -0.60117043928E+01 -0.15727998390E+02  0.24380309205E+02  0.30000000000E+02  0.47000000000E+01 0.  1.
</event>
<event>
 5    1  0.7702600E-002  0.6000000E+02  0.7546771E-02  0.1259629E+00
         11   -1    0    0    0    0  0.00000000000E+00  0.00000000000E+00  0.30000000000E+02  0.30000000000E+02  0.00000000000E+00 0.  1.
        -11   -1    0    0    0    0 -0.00000000000E+00 -0.00000000000E+00 -0.30000000000E+02  0.30000000000E+02  0.00000000000E+00 0. -1.
         23    2    1    2    0    0  0.00000000000E+00  0.00000000000E+00  0.00000000000E+00  0.60000000000E+02  0.60000000000E+02 0.  0.
          5    1    3    3  501    0  0.22278944772E+02  0.12807152522E+02 -0.14749083501E+02  0.30000000000E+02  0.47000000000E+01 0. -1.
         -5    1    3    3    0  501 -0.22278944772E+02 -0.12807152522E+02  0.14749083501E+02  0.30000000000E+02  0.47000000000E+01 0.  1.
</event>
<event>
 5    1  0.7702600E-002  0.6000000E+02  0.7546771E-02  0.1259629E+00
         11   -1    0    0    0    0  0.00000000000E+00  0.00000000000E+00  0.30000000000E+02  0.30000000000E+02  0.00000000000E+00 0.  1.
        -11   -1    0    0    0    0 -0.00000000000E+00 -0.00000000000E+00 -0.30000000000E+02  0.30000000000E+02  0.00000000000E+00 0. -1.
         23    2    1    2    0    0  0.00000000000E+00  0.00000000000E+00  0.00000000000E+00  0.60000000000E+02  0.60000000000E+02 0.  0.
          5    1    3    3  501    0  0.29520072630E+02 -0.23537870298E+01 -0.96695321648E+00  0.30000000000E+02  0.47000000000E+01 0. -1.
         -5    1    3    3    0  501 -0.29520072630E+02  0.23537870298E+01  0.96695321648E+00  0.30000000000E+02  0.47000000000E+01 0.  1.
</event>
<event>
 5    1  0.7702600E-002  0.6000000E+02  0.7546771E-02  0.1259629E+00
         11   -1    0    0    0    0  0.00000000000E+00  0.00000000000E+00  0.30000000000E+02  0.30000000000E+02  0.00000000000E+00 0.  1.
        -11   -1    0    0    0    0 -0.00000000000E+00 -0.00000000000E+00 -0.30000000000E+02  0.30000000000E+02  0.00000000000E+00 0. -1.
         23    2    1    2    0    0  0.00000000000E+00  0.00000000000E+00  0.00000000000E+00  0.60000000000E+02  0.60000000000E+02 0.  0.
          5    1    3    3  501    0  0.42798268388E+01 -0.21211617637E+02 -0.20240068168E+02  0.30000000000E+02  0.47000000000E+01 0. -1.
         -5    1    3    3    0  501 -0.42798268388E+01  0.21211617637E+02  0.20240068168E+02  0.30000000000E+02  0.47000000000E+01 0.  1.
</event>
<event>
 5    1  0.7702600E-002  0.6000000E+02  0.7546771E-02  0.1259629E+00
         11   -1    0    0    0    0  0.00000000000E+00  0.00000000000E+00  0.30000000000E+02  0.30000000000E+02  0.00000000000E+00 0.  1.
        -11   -1    0    0    0    0 -0.00000000000E+00 -0.00000000000E+00 -0.30000000000E+02  0.30000000000E+02  0.00000000000E+00 0. -1.
         23    2    1    2    0    0  0.00000000000E+00  0.00000000000E+00  0.00000000000E+00  0.60000000000E+02  0.60000000000E+02 0.  0.
          5    1    3    3  501    0 -0.16887258843E+02  0.21206465757E+02 -0.11958942213E+02  0.30000000000E+02  0.47000000000E+01 0. -1.
         -5    1    3    3    0  501  0.16887258843E+02 -0.21206465757E+02  0.11958942213E+02  0.30000000000E+02  0.47000000000E+01 0.  1.
</event>
<event>
 5    1  0.7702600E-002  0.6000000E+02  0.7546771E-02  0.1259629E+00
         11   -1    0    0    0    0  0.00000000000E+00  0.00000000000E+00  0.30000000000E+02  0.30000000000E+02  0.00000000000E+00 0.  1.
        -11   -1    0    0    0    0 -0.00000000000E+00 -0.00000000000E+00 -0.30000000000E+02  0.30000000000E+02  0.00000000000E+00 0. -1.
         23    2    1    2    0    0  0.00000000000E+00  0.00000000000E+00  0.00000000000E+00  0.60000000000E+02  0.60000000000E+02 0.  0.
          5    1    3    3  501    0  0.16565864700E+02  0.21329966416E+02 -0.12186659076E+02  0.30000000000E+02  0.47000000000E+01 0. -1.
         -5    1    3    3    0  501 -0.16565864700E+02 -0.21329966416E+02  0.12186659076E+02  0.30000000000E+02  0.47000000000E+01 0.  1.
</event>
<event>
 5    1  0.7702600E-002  0.6000000E+02  0.7546771E-02  0.1259629E+00
         11   -1    0    0    0    0  0.00000000000E+00  0.00000000000E+00  0.30000000000E+02  0.30000000000E+02  0.00000000000E+00 0.  1.
        -11   -1    0    0    0    0 -0.00000000000E+00 -0.00000000000E+00 -0.30000000000E+02  0.30000000000E+02  0.00000000000E+00 0. -1.
         23    2    1    2    0    0  0.00000000000E+00  0.00000000000E+00  0.00000000000E+00  0.60000000000E+02  0.60000000000E+02 0.  0.
          5    1    3    3  501    0  0.22978967222E+02 -0.73782943641E+01 -0.17188305259E+02  0.30000000000E+02  0.47000000000E+01 0. -1.
         -5    1    3    3    0  501 -0.22978967222E+02  0.73782943641E+01  0.17188305259E+02  0.30000000000E+02  0.47000000000E+01 0.  1.
</event>
<event>
 5    1  0.7702600E-002  0.6000000E+02  0.7546771E-02  0.1259629E+00
         11   -1    0    0    0    0  0.00000000000E+00  0.00000000000E+00  0.30000000000E+02  0.30000000000E+02  0.00000000000E+00 0.  1.
        -11   -1    0    0    0    0 -0.00000000000E+00 -0.00000000000E+00 -0.30000000000E+02  0.30000000000E+02  0.00000000000E+00 0. -1.
         23    2    1    2    0    0  0.00000000000E+00  0.00000000000E+00  0.00000000000E+00  0.60000000000E+02  0.60000000000E+02 0.  0.
          5    1    3    3  501    0  0.23464044896E+02 -0.16882330927E+02  0.65065735664E+01  0.30000000000E+02  0.47000000000E+01 0. -1.
         -5    1    3    3    0  501 -0.23464044896E+02  0.16882330927E+02 -0.65065735664E+01  0.30000000000E+02  0.47000000000E+01 0.  1.
</event>
<event>
 5    1  0.7702600E-002  0.6000000E+02  0.7546771E-02  0.1259629E+00
         11   -1    0    0    0    0  0.00000000000E+00  0.00000000000E+00  0.30000000000E+02  0.30000000000E+02  0.00000000000E+00 0. -1.
        -11   -1    0    0    0    0 -0.00000000000E+00 -0.00000000000E+00 -0.30000000000E+02  0.30000000000E+02  0.00000000000E+00 0.  1.
         23    2    1    2    0    0  0.00000000000E+00  0.00000000000E+00  0.00000000000E+00  0.60000000000E+02  0.60000000000E+02 0.  0.
          5    1    3    3  501    0  0.21528640203E+02  0.20105437870E+02  0.31935903095E+01  0.30000000000E+02  0.47000000000E+01 0. -1.
         -5    1    3    3    0  501 -0.21528640203E+02 -0.20105437870E+02 -0.31935903095E+01  0.30000000000E+02  0.47000000000E+01 0.  1.
</event>
<event>
 5    1  0.7702600E-002  0.6000000E+02  0.7546771E-02  0.1259629E+00
         11   -1    0    0    0    0  0.00000000000E+00  0.00000000000E+00  0.30000000000E+02  0.30000000000E+02  0.00000000000E+00 0.  1.
        -11   -1    0    0    0    0 -0.00000000000E+00 -0.00000000000E+00 -0.30000000000E+02  0.30000000000E+02  0.00000000000E+00 0. -1.
         23    2    1    2    0    0  0.00000000000E+00  0.00000000000E+00  0.00000000000E+00  0.60000000000E+02  0.60000000000E+02 0.  0.
          5    1    3    3  501    0  0.35748085640E+00  0.22704489687E+02 -0.19033873896E+02  0.30000000000E+02  0.47000000000E+01 0. -1.
         -5    1    3    3    0  501 -0.35748085640E+00 -0.22704489687E+02  0.19033873896E+02  0.30000000000E+02  0.47000000000E+01 0.  1.
</event>
<event>
 5    1  0.7702600E-002  0.6000000E+02  0.7546771E-02  0.1259629E+00
         11   -1    0    0    0    0  0.00000000000E+00  0.00000000000E+00  0.30000000000E+02  0.30000000000E+02  0.00000000000E+00 0.  1.
        -11   -1    0    0    0    0 -0.00000000000E+00 -0.00000000000E+00 -0.30000000000E+02  0.30000000000E+02  0.00000000000E+00 0. -1.
         23    2    1    2    0    0  0.00000000000E+00  0.00000000000E+00  0.00000000000E+00  0.60000000000E+02  0.60000000000E+02 0.  0.
          5    1    3    3  501    0  0.10218461666E+02 -0.27225296274E+02  0.56812220487E+01  0.30000000000E+02  0.47000000000E+01 0. -1.
         -5    1    3    3    0  501 -0.10218461666E+02  0.27225296274E+02 -0.56812220487E+01  0.30000000000E+02  0.47000000000E+01 0.  1.
</event>
<event>
 5    1  0.7702600E-002  0.6000000E+02  0.7546771E-02  0.1259629E+00
         11   -1    0    0    0    0  0.00000000000E+00  0.00000000000E+00  0.30000000000E+02  0.30000000000E+02  0.00000000000E+00 0.  1.
        -11   -1    0    0    0    0 -0.00000000000E+00 -0.00000000000E+00 -0.30000000000E+02  0.30000000000E+02  0.00000000000E+00 0. -1.
         23    2    1    2    0    0  0.00000000000E+00  0.00000000000E+00  0.00000000000E+00  0.60000000000E+02  0.60000000000E+02 0.  0.
          5    1    3    3  501    0 -0.31370258889E+01  0.18313193875E+02 -0.23080207942E+02  0.30000000000E+02  0.47000000000E+01 0. -1.
         -5    1    3    3    0  501  0.31370258889E+01 -0.18313193875E+02  0.23080207942E+02  0.30000000000E+02  0.47000000000E+01 0.  1.
</event>
<event>
 5    1  0.7702600E-002  0.6000000E+02  0.7546771E-02  0.1259629E+00
         11   -1    0    0    0    0  0.00000000000E+00  0.00000000000E+00  0.30000000000E+02  0.30000000000E+02  0.00000000000E+00 0.  1.
        -11   -1    0    0    0    0 -0.00000000000E+00 -0.00000000000E+00 -0.30000000000E+02  0.30000000000E+02  0.00000000000E+00 0. -1.
         23    2    1    2    0    0  0.00000000000E+00  0.00000000000E+00  0.00000000000E+00  0.60000000000E+02  0.60000000000E+02 0.  0.
          5    1    3    3  501    0 -0.17164236126E+02 -0.18175980840E+02 -0.15903858612E+02  0.30000000000E+02  0.47000000000E+01 0. -1.
         -5    1    3    3    0  501  0.17164236126E+02  0.18175980840E+02  0.15903858612E+02  0.30000000000E+02  0.47000000000E+01 0.  1.
</event>
<event>
 5    1  0.7702600E-002  0.6000000E+02  0.7546771E-02  0.1259629E+00
         11   -1    0    0    0    0  0.00000000000E+00  0.00000000000E+00  0.30000000000E+02  0.30000000000E+02  0.00000000000E+00 0. -1.
        -11   -1    0    0    0    0 -0.00000000000E+00 -0.00000000000E+00 -0.30000000000E+02  0.30000000000E+02  0.00000000000E+00 0.  1.
         23    2    1    2    0    0  0.00000000000E+00  0.00000000000E+00  0.00000000000E+00  0.60000000000E+02  0.60000000000E+02 0.  0.
          5    1    3    3  501    0  0.14171165669E+02  0.10570520957E+02 -0.23777135031E+02  0.30000000000E+02  0.47000000000E+01 0.  1.
         -5    1    3    3    0  501 -0.14171165669E+02 -0.10570520957E+02  0.23777135031E+02  0.30000000000E+02  0.47000000000E+01 0. -1.
</event>
<event>
 5    1  0.7702600E-002  0.6000000E+02  0.7546771E-02  0.1259629E+00
         11   -1    0    0    0    0  0.00000000000E+00  0.00000000000E+00  0.30000000000E+02  0.30000000000E+02  0.00000000000E+00 0.  1.
        -11   -1    0    0    0    0 -0.00000000000E+00 -0.00000000000E+00 -0.30000000000E+02  0.30000000000E+02  0.00000000000E+00 0. -1.
         23    2    1    2    0    0  0.00000000000E+00  0.00000000000E+00  0.00000000000E+00  0.60000000000E+02  0.60000000000E+02 0.  0.
          5    1    3    3  501    0  0.19897711483E+02  0.10926374793E+02 -0.19042200808E+02  0.30000000000E+02  0.47000000000E+01 0. -1.
         -5    1    3    3    0  501 -0.19897711483E+02 -0.10926374793E+02  0.19042200808E+02  0.30000000000E+02  0.47000000000E+01 0.  1.
</event>
<event>
 5    1  0.7702600E-002  0.6000000E+02  0.7546771E-02  0.1259629E+00
         11   -1    0    0    0    0  0.00000000000E+00  0.00000000000E+00  0.30000000000E+02  0.30000000000E+02  0.00000000000E+00 0.  1.
        -11   -1    0    0    0    0 -0.00000000000E+00 -0.00000000000E+00 -0.30000000000E+02  0.30000000000E+02  0.00000000000E+00 0. -1.
         23    2    1    2    0    0  0.00000000000E+00  0.00000000000E+00  0.00000000000E+00  0.60000000000E+02  0.60000000000E+02 0.  0.
          5    1    3    3  501    0  0.89212842017E+01 -0.88241224441E+01 -0.26841303085E+02  0.30000000000E+02  0.47000000000E+01 0. -1.
         -5    1    3    3    0  501 -0.89212842017E+01  0.88241224441E+01  0.26841303085E+02  0.30000000000E+02  0.47000000000E+01 0.  1.
</event>
<event>
 5    1  0.7702600E-002  0.6000000E+02  0.7546771E-02  0.1259629E+00
         11   -1    0    0    0    0  0.00000000000E+00  0.00000000000E+00  0.30000000000E+02  0.30000000000E+02  0.00000000000E+00 0.  1.
        -11   -1    0    0    0    0 -0.00000000000E+00 -0.00000000000E+00 -0.30000000000E+02  0.30000000000E+02  0.00000000000E+00 0. -1.
         23    2    1    2    0    0  0.00000000000E+00  0.00000000000E+00  0.00000000000E+00  0.60000000000E+02  0.60000000000E+02 0.  0.
          5    1    3    3  501    0  0.10006950808E+02  0.12569631805E+02 -0.24895286538E+02  0.30000000000E+02  0.47000000000E+01 0. -1.
         -5    1    3    3    0  501 -0.10006950808E+02 -0.12569631805E+02  0.24895286538E+02  0.30000000000E+02  0.47000000000E+01 0.  1.
</event>
<event>
 5    1  0.7702600E-002  0.6000000E+02  0.7546771E-02  0.1259629E+00
         11   -1    0    0    0    0  0.00000000000E+00  0.00000000000E+00  0.30000000000E+02  0.30000000000E+02  0.00000000000E+00 0. -1.
        -11   -1    0    0    0    0 -0.00000000000E+00 -0.00000000000E+00 -0.30000000000E+02  0.30000000000E+02  0.00000000000E+00 0.  1.
         23    2    1    2    0    0  0.00000000000E+00  0.00000000000E+00  0.00000000000E+00  0.60000000000E+02  0.60000000000E+02 0.  0.
          5    1    3    3  501    0 -0.22120609130E+02 -0.14900907741E+02  0.12905487213E+02  0.30000000000E+02  0.47000000000E+01 0. -1.
         -5    1    3    3    0  501  0.22120609130E+02  0.14900907741E+02 -0.12905487213E+02  0.30000000000E+02  0.47000000000E+01 0.  1.
</event>
<event>
 5    1  0.7702600E-002  0.6000000E+02  0.7546771E-02  0.1259629E+00
         11   -1    0    0    0    0  0.00000000000E+00  0.00000000000E+00  0.30000000000E+02  0.30000000000E+02  0.00000000000E+00 0. -1.
        -11   -1    0    0    0    0 -0.00000000000E+00 -0.00000000000E+00 -0.30000000000E+02  0.30000000000E+02  0.00000000000E+00 0.  1.
         23    2    1    2    0    0  0.00000000000E+00  0.00000000000E+00  0.00000000000E+00  0.60000000000E+02  0.60000000000E+02 0.  0.
          5    1    3    3  501    0 -0.21303667396E+01 -0.59965601942E+01  0.28938085690E+02  0.30000000000E+02  0.47000000000E+01 0. -1.
         -5    1    3    3    0  501  0.21303667396E+01  0.59965601942E+01 -0.28938085690E+02  0.30000000000E+02  0.47000000000E+01 0.  1.
</event>
<event>
 5    1  0.7702600E-002  0.6000000E+02  0.7546771E-02  0.1259629E+00
         11   -1    0    0    0    0  0.00000000000E+00  0.00000000000E+00  0.30000000000E+02  0.30000000000E+02  0.00000000000E+00 0.  1.
        -11   -1    0    0    0    0 -0.00000000000E+00 -0.00000000000E+00 -0.30000000000E+02  0.30000000000E+02  0.00000000000E+00 0. -1.
         23    2    1    2    0    0  0.00000000000E+00  0.00000000000E+00  0.00000000000E+00  0.60000000000E+02  0.60000000000E+02 0.  0.
          5    1    3    3  501    0  0.22719832155E+02  0.10736073841E+02 -0.15698915418E+02  0.30000000000E+02  0.47000000000E+01 0. -1.
         -5    1    3    3    0  501 -0.22719832155E+02 -0.10736073841E+02  0.15698915418E+02  0.30000000000E+02  0.47000000000E+01 0. -1.
</event>
<event>
 5    1  0.7702600E-002  0.6000000E+02  0.7546771E-02  0.1259629E+00
         11   -1    0    0    0    0  0.00000000000E+00  0.00000000000E+00  0.30000000000E+02  0.30000000000E+02  0.00000000000E+00 0.  1.
        -11   -1    0    0    0    0 -0.00000000000E+00 -0.00000000000E+00 -0.30000000000E+02  0.30000000000E+02  0.00000000000E+00 0. -1.
         23    2    1    2    0    0  0.00000000000E+00  0.00000000000E+00  0.00000000000E+00  0.60000000000E+02  0.60000000000E+02 0.  0.
          5    1    3    3  501    0 -0.12245223842E+02  0.26733555277E+02 -0.36443813342E+01  0.30000000000E+02  0.47000000000E+01 0. -1.
         -5    1    3    3    0  501  0.12245223842E+02 -0.26733555277E+02  0.36443813342E+01  0.30000000000E+02  0.47000000000E+01 0.  1.
</event>
<event>
 5    1  0.7702600E-002  0.6000000E+02  0.7546771E-02  0.1259629E+00
         11   -1    0    0    0    0  0.00000000000E+00  0.00000000000E+00  0.30000000000E+02  0.30000000000E+02  0.00000000000E+00 0. -1.
        -11   -1    0    0    0    0 -0.00000000000E+00 -0.00000000000E+00 -0.30000000000E+02  0.30000000000E+02  0.00000000000E+00 0.  1.
         23    2    1    2    0    0  0.00000000000E+00  0.00000000000E+00  0.00000000000E+00  0.60000000000E+02  0.60000000000E+02 0.  0.
          5    1    3    3  501    0  0.22125274467E+02 -0.16028433639E+02 -0.11466104171E+02  0.30000000000E+02  0.47000000000E+01 0.  1.
         -5    1    3    3    0  501 -0.22125274467E+02  0.16028433639E+02  0.11466104171E+02  0.30000000000E+02  0.47000000000E+01 0. -1.
</event>
<event>
 5    1  0.7702600E-002  0.6000000E+02  0.7546771E-02  0.1259629E+00
         11   -1    0    0    0    0  0.00000000000E+00  0.00000000000E+00  0.30000000000E+02  0.30000000000E+02  0.00000000000E+00 0. -1.
        -11   -1    0    0    0    0 -0.00000000000E+00 -0.00000000000E+00 -0.30000000000E+02  0.30000000000E+02  0.00000000000E+00 0.  1.
         23    2    1    2    0    0  0.00000000000E+00  0.00000000000E+00  0.00000000000E+00  0.60000000000E+02  0.60000000000E+02 0.  0.
          5    1    3    3  501    0 -0.49189501445E+01  0.20800583364E+02 -0.20519494662E+02  0.30000000000E+02  0.47000000000E+01 0.  1.
         -5    1    3    3    0  501  0.49189501445E+01 -0.20800583364E+02  0.20519494662E+02  0.30000000000E+02  0.47000000000E+01 0. -1.
</event>
<event>
 5    1  0.7702600E-002  0.6000000E+02  0.7546771E-02  0.1259629E+00
         11   -1    0    0    0    0  0.00000000000E+00  0.00000000000E+00  0.30000000000E+02  0.30000000000E+02  0.00000000000E+00 0.  1.
        -11   -1    0    0    0    0 -0.00000000000E+00 -0.00000000000E+00 -0.30000000000E+02  0.30000000000E+02  0.00000000000E+00 0. -1.
         23    2    1    2    0    0  0.00000000000E+00  0.00000000000E+00  0.00000000000E+00  0.60000000000E+02  0.60000000000E+02 0.  0.
          5    1    3    3  501    0 -0.44054058952E+01  0.28653029657E+02 -0.61242379432E+01  0.30000000000E+02  0.47000000000E+01 0. -1.
         -5    1    3    3    0  501  0.44054058952E+01 -0.28653029657E+02  0.61242379432E+01  0.30000000000E+02  0.47000000000E+01 0.  1.
</event>
<event>
 5    1  0.7702600E-002  0.6000000E+02  0.7546771E-02  0.1259629E+00
         11   -1    0    0    0    0  0.00000000000E+00  0.00000000000E+00  0.30000000000E+02  0.30000000000E+02  0.00000000000E+00 0.  1.
        -11   -1    0    0    0    0 -0.00000000000E+00 -0.00000000000E+00 -0.30000000000E+02  0.30000000000E+02  0.00000000000E+00 0. -1.
         23    2    1    2    0    0  0.00000000000E+00  0.00000000000E+00  0.00000000000E+00  0.60000000000E+02  0.60000000000E+02 0.  0.
          5    1    3    3  501    0 -0.11106164937E+01 -0.21994861094E+02 -0.19821771274E+02  0.30000000000E+02  0.47000000000E+01 0. -1.
         -5    1    3    3    0  501  0.11106164937E+01  0.21994861094E+02  0.19821771274E+02  0.30000000000E+02  0.47000000000E+01 0.  1.
</event>
<event>
 5    1  0.7702600E-002  0.6000000E+02  0.7546771E-02  0.1259629E+00
         11   -1    0    0    0    0  0.00000000000E+00  0.00000000000E+00  0.30000000000E+02  0.30000000000E+02  0.00000000000E+00 0.  1.
        -11   -1    0    0    0    0 -0.00000000000E+00 -0.00000000000E+00 -0.30000000000E+02  0.30000000000E+02  0.00000000000E+00 0. -1.
         23    2    1    2    0    0  0.00000000000E+00  0.00000000000E+00  0.00000000000E+00  0.60000000000E+02  0.60000000000E+02 0.  0.
          5    1    3    3  501    0 -0.19711470703E+02  0.16996178398E+02 -0.14159726077E+02  0.30000000000E+02  0.47000000000E+01 0. -1.
         -5    1    3    3    0  501  0.19711470703E+02 -0.16996178398E+02  0.14159726077E+02  0.30000000000E+02  0.47000000000E+01 0.  1.
</event>
<event>
 5    1  0.7702600E-002  0.6000000E+02  0.7546771E-02  0.1259629E+00
         11   -1    0    0    0    0  0.00000000000E+00  0.00000000000E+00  0.30000000000E+02  0.30000000000E+02  0.00000000000E+00 0.  1.
        -11   -1    0    0    0    0 -0.00000000000E+00 -0.00000000000E+00 -0.30000000000E+02  0.30000000000E+02  0.00000000000E+00 0. -1.
         23    2    1    2    0    0  0.00000000000E+00  0.00000000000E+00  0.00000000000E+00  0.60000000000E+02  0.60000000000E+02 0.  0.
          5    1    3    3  501    0 -0.84744825377E+01 -0.19770863919E+02 -0.20376606332E+02  0.30000000000E+02  0.47000000000E+01 0. -1.
         -5    1    3    3    0  501  0.84744825377E+01  0.19770863919E+02  0.20376606332E+02  0.30000000000E+02  0.47000000000E+01 0.  1.
</event>
<event>
 5    1  0.7702600E-002  0.6000000E+02  0.7546771E-02  0.1259629E+00
         11   -1    0    0    0    0  0.00000000000E+00  0.00000000000E+00  0.30000000000E+02  0.30000000000E+02  0.00000000000E+00 0.  1.
        -11   -1    0    0    0    0 -0.00000000000E+00 -0.00000000000E+00 -0.30000000000E+02  0.30000000000E+02  0.00000000000E+00 0. -1.
         23    2    1    2    0    0  0.00000000000E+00  0.00000000000E+00  0.00000000000E+00  0.60000000000E+02  0.60000000000E+02 0.  0.
          5    1    3    3  501    0 -0.24618834416E+02 -0.47154915792E+01 -0.15798326847E+02  0.30000000000E+02  0.47000000000E+01 0. -1.
         -5    1    3    3    0  501  0.24618834416E+02  0.47154915792E+01  0.15798326847E+02  0.30000000000E+02  0.47000000000E+01 0.  1.
</event>
<event>
 5    1  0.7702600E-002  0.6000000E+02  0.7546771E-02  0.1259629E+00
         11   -1    0    0    0    0  0.00000000000E+00  0.00000000000E+00  0.30000000000E+02  0.30000000000E+02  0.00000000000E+00 0.  1.
        -11   -1    0    0    0    0 -0.00000000000E+00 -0.00000000000E+00 -0.30000000000E+02  0.30000000000E+02  0.00000000000E+00 0. -1.
         23    2    1    2    0    0  0.00000000000E+00  0.00000000000E+00  0.00000000000E+00  0.60000000000E+02  0.60000000000E+02 0.  0.
          5    1    3    3  501    0 -0.22886422573E+02  0.90642170313E+01  0.16491259243E+02  0.30000000000E+02  0.47000000000E+01 0. -1.
         -5    1    3    3    0  501  0.22886422573E+02 -0.90642170313E+01 -0.16491259243E+02  0.30000000000E+02  0.47000000000E+01 0.  1.
</event>
<event>
 5    1  0.7702600E-002  0.6000000E+02  0.7546771E-02  0.1259629E+00
         11   -1    0    0    0    0  0.00000000000E+00  0.00000000000E+00  0.30000000000E+02  0.30000000000E+02  0.00000000000E+00 0.  1.
        -11   -1    0    0    0    0 -0.00000000000E+00 -0.00000000000E+00 -0.30000000000E+02  0.30000000000E+02  0.00000000000E+00 0. -1.
         23    2    1    2    0    0  0.00000000000E+00  0.00000000000E+00  0.00000000000E+00  0.60000000000E+02  0.60000000000E+02 0.  0.
          5    1    3    3  501    0 -0.18155859234E+02 -0.15319251446E+02  0.17708622493E+02  0.30000000000E+02  0.47000000000E+01 0. -1.
         -5    1    3    3    0  501  0.18155859234E+02  0.15319251446E+02 -0.17708622493E+02  0.30000000000E+02  0.47000000000E+01 0.  1.
</event>
<event>
 5    1  0.7702600E-002  0.6000000E+02  0.7546771E-02  0.1259629E+00
         11   -1    0    0    0    0  0.00000000000E+00  0.00000000000E+00  0.30000000000E+02  0.30000000000E+02  0.00000000000E+00 0.  1.
        -11   -1    0    0    0    0 -0.00000000000E+00 -0.00000000000E+00 -0.30000000000E+02  0.30000000000E+02  0.00000000000E+00 0. -1.
         23    2    1    2    0    0  0.00000000000E+00  0.00000000000E+00  0.00000000000E+00  0.60000000000E+02  0.60000000000E+02 0.  0.
          5    1    3    3  501    0 -0.29528125635E+02 -0.25706452372E+00  0.24359216543E+01  0.30000000000E+02  0.47000000000E+01 0. -1.
         -5    1    3    3    0  501  0.29528125635E+02  0.25706452372E+00 -0.24359216543E+01  0.30000000000E+02  0.47000000000E+01 0.  1.
</event>
<event>
 5    1  0.7702600E-002  0.6000000E+02  0.7546771E-02  0.1259629E+00
         11   -1    0    0    0    0  0.00000000000E+00  0.00000000000E+00  0.30000000000E+02  0.30000000000E+02  0.00000000000E+00 0.  1.
        -11   -1    0    0    0    0 -0.00000000000E+00 -0.00000000000E+00 -0.30000000000E+02  0.30000000000E+02  0.00000000000E+00 0. -1.
         23    2    1    2    0    0  0.00000000000E+00  0.00000000000E+00  0.00000000000E+00  0.60000000000E+02  0.60000000000E+02 0.  0.
          5    1    3    3  501    0 -0.51060217739E+01  0.22505331840E+02 -0.18583556722E+02  0.30000000000E+02  0.47000000000E+01 0. -1.
         -5    1    3    3    0  501  0.51060217739E+01 -0.22505331840E+02  0.18583556722E+02  0.30000000000E+02  0.47000000000E+01 0.  1.
</event>
<event>
 5    1  0.7702600E-002  0.6000000E+02  0.7546771E-02  0.1259629E+00
         11   -1    0    0    0    0  0.00000000000E+00  0.00000000000E+00  0.30000000000E+02  0.30000000000E+02  0.00000000000E+00 0.  1.
        -11   -1    0    0    0    0 -0.00000000000E+00 -0.00000000000E+00 -0.30000000000E+02  0.30000000000E+02  0.00000000000E+00 0. -1.
         23    2    1    2    0    0  0.00000000000E+00  0.00000000000E+00  0.00000000000E+00  0.60000000000E+02  0.60000000000E+02 0.  0.
          5    1    3    3  501    0  0.83093047918E+01  0.23672665289E+02 -0.15762942999E+02  0.30000000000E+02  0.47000000000E+01 0. -1.
         -5    1    3    3    0  501 -0.83093047918E+01 -0.23672665289E+02  0.15762942999E+02  0.30000000000E+02  0.47000000000E+01 0.  1.
</event>
<event>
 5    1  0.7702600E-002  0.6000000E+02  0.7546771E-02  0.1259629E+00
         11   -1    0    0    0    0  0.00000000000E+00  0.00000000000E+00  0.30000000000E+02  0.30000000000E+02  0.00000000000E+00 0.  1.
        -11   -1    0    0    0    0 -0.00000000000E+00 -0.00000000000E+00 -0.30000000000E+02  0.30000000000E+02  0.00000000000E+00 0. -1.
         23    2    1    2    0    0  0.00000000000E+00  0.00000000000E+00  0.00000000000E+00  0.60000000000E+02  0.60000000000E+02 0.  0.
          5    1    3    3  501    0 -0.21204830352E+02  0.16562645446E+02 -0.12407414943E+02  0.30000000000E+02  0.47000000000E+01 0. -1.
         -5    1    3    3    0  501  0.21204830352E+02 -0.16562645446E+02  0.12407414943E+02  0.30000000000E+02  0.47000000000E+01 0.  1.
</event>
<event>
 5    1  0.7702600E-002  0.6000000E+02  0.7546771E-02  0.1259629E+00
         11   -1    0    0    0    0  0.00000000000E+00  0.00000000000E+00  0.30000000000E+02  0.30000000000E+02  0.00000000000E+00 0.  1.
        -11   -1    0    0    0    0 -0.00000000000E+00 -0.00000000000E+00 -0.30000000000E+02  0.30000000000E+02  0.00000000000E+00 0. -1.
         23    2    1    2    0    0  0.00000000000E+00  0.00000000000E+00  0.00000000000E+00  0.60000000000E+02  0.60000000000E+02 0.  0.
          5    1    3    3  501    0 -0.47913536012E+01  0.75232746761E+01 -0.28255145882E+02  0.30000000000E+02  0.47000000000E+01 0. -1.
         -5    1    3    3    0  501  0.47913536012E+01 -0.75232746761E+01  0.28255145882E+02  0.30000000000E+02  0.47000000000E+01 0.  1.
</event>
<event>
 5    1  0.7702600E-002  0.6000000E+02  0.7546771E-02  0.1259629E+00
         11   -1    0    0    0    0  0.00000000000E+00  0.00000000000E+00  0.30000000000E+02  0.30000000000E+02  0.00000000000E+00 0. -1.
        -11   -1    0    0    0    0 -0.00000000000E+00 -0.00000000000E+00 -0.30000000000E+02  0.30000000000E+02  0.00000000000E+00 0.  1.
         23    2    1    2    0    0  0.00000000000E+00  0.00000000000E+00  0.00000000000E+00  0.60000000000E+02  0.60000000000E+02 0.  0.
          5    1    3    3  501    0 -0.11126293755E+02 -0.19562916684E+00 -0.27460468250E+02  0.30000000000E+02  0.47000000000E+01 0.  1.
         -5    1    3    3    0  501  0.11126293755E+02  0.19562916684E+00  0.27460468250E+02  0.30000000000E+02  0.47000000000E+01 0. -1.
</event>
<event>
 5    1  0.7702600E-002  0.6000000E+02  0.7546771E-02  0.1259629E+00
         11   -1    0    0    0    0  0.00000000000E+00  0.00000000000E+00  0.30000000000E+02  0.30000000000E+02  0.00000000000E+00 0.  1.
        -11   -1    0    0    0    0 -0.00000000000E+00 -0.00000000000E+00 -0.30000000000E+02  0.30000000000E+02  0.00000000000E+00 0. -1.
         23    2    1    2    0    0  0.00000000000E+00  0.00000000000E+00  0.00000000000E+00  0.60000000000E+02  0.60000000000E+02 0.  0.
          5    1    3    3  501    0  0.14065741634E+02  0.23184949451E+02 -0.11938301019E+02  0.30000000000E+02  0.47000000000E+01 0. -1.
         -5    1    3    3    0  501 -0.14065741634E+02 -0.23184949451E+02  0.11938301019E+02  0.30000000000E+02  0.47000000000E+01 0.  1.
</event>
<event>
 5    1  0.7702600E-002  0.6000000E+02  0.7546771E-02  0.1259629E+00
         11   -1    0    0    0    0  0.00000000000E+00  0.00000000000E+00  0.30000000000E+02  0.30000000000E+02  0.00000000000E+00 0.  1.
        -11   -1    0    0    0    0 -0.00000000000E+00 -0.00000000000E+00 -0.30000000000E+02  0.30000000000E+02  0.00000000000E+00 0. -1.
         23    2    1    2    0    0  0.00000000000E+00  0.00000000000E+00  0.00000000000E+00  0.60000000000E+02  0.60000000000E+02 0.  0.
          5    1    3    3  501    0 -0.46317592961E+01  0.10523067030E+02  0.27307908490E+02  0.30000000000E+02  0.47000000000E+01 0.  1.
         -5    1    3    3    0  501  0.46317592961E+01 -0.10523067030E+02 -0.27307908490E+02  0.30000000000E+02  0.47000000000E+01 0. -1.
</event>
<event>
 5    1  0.7702600E-002  0.6000000E+02  0.7546771E-02  0.1259629E+00
         11   -1    0    0    0    0  0.00000000000E+00  0.00000000000E+00  0.30000000000E+02  0.30000000000E+02  0.00000000000E+00 0.  1.
        -11   -1    0    0    0    0 -0.00000000000E+00 -0.00000000000E+00 -0.30000000000E+02  0.30000000000E+02  0.00000000000E+00 0. -1.
         23    2    1    2    0    0  0.00000000000E+00  0.00000000000E+00  0.00000000000E+00  0.60000000000E+02  0.60000000000E+02 0.  0.
          5    1    3    3  501    0 -0.49640805906E+01  0.77344649415E+01 -0.28168172748E+02  0.30000000000E+02  0.47000000000E+01 0. -1.
         -5    1    3    3    0  501  0.49640805906E+01 -0.77344649415E+01  0.28168172748E+02  0.30000000000E+02  0.47000000000E+01 0.  1.
</event>
<event>
 5    1  0.7702600E-002  0.6000000E+02  0.7546771E-02  0.1259629E+00
         11   -1    0    0    0    0  0.00000000000E+00  0.00000000000E+00  0.30000000000E+02  0.30000000000E+02  0.00000000000E+00 0.  1.
        -11   -1    0    0    0    0 -0.00000000000E+00 -0.00000000000E+00 -0.30000000000E+02  0.30000000000E+02  0.00000000000E+00 0. -1.
         23    2    1    2    0    0  0.00000000000E+00  0.00000000000E+00  0.00000000000E+00  0.60000000000E+02  0.60000000000E+02 0.  0.
          5    1    3    3  501    0 -0.24447436628E+02  0.50583764198E+01 -0.15957621073E+02  0.30000000000E+02  0.47000000000E+01 0. -1.
         -5    1    3    3    0  501  0.24447436628E+02 -0.50583764198E+01  0.15957621073E+02  0.30000000000E+02  0.47000000000E+01 0.  1.
</event>
<event>
 5    1  0.7702600E-002  0.6000000E+02  0.7546771E-02  0.1259629E+00
         11   -1    0    0    0    0  0.00000000000E+00  0.00000000000E+00  0.30000000000E+02  0.30000000000E+02  0.00000000000E+00 0. -1.
        -11   -1    0    0    0    0 -0.00000000000E+00 -0.00000000000E+00 -0.30000000000E+02  0.30000000000E+02  0.00000000000E+00 0.  1.
         23    2    1    2    0    0  0.00000000000E+00  0.00000000000E+00  0.00000000000E+00  0.60000000000E+02  0.60000000000E+02 0.  0.
          5    1    3    3  501    0 -0.15522632574E+02 -0.19777230059E+02  0.15678617578E+02  0.30000000000E+02  0.47000000000E+01 0.  1.
         -5    1    3    3    0  501  0.15522632574E+02  0.19777230059E+02 -0.15678617578E+02  0.30000000000E+02  0.47000000000E+01 0. -1.
</event>
<event>
 5    1  0.7702600E-002  0.6000000E+02  0.7546771E-02  0.1259629E+00
         11   -1    0    0    0    0  0.00000000000E+00  0.00000000000E+00  0.30000000000E+02  0.30000000000E+02  0.00000000000E+00 0.  1.
        -11   -1    0    0    0    0 -0.00000000000E+00 -0.00000000000E+00 -0.30000000000E+02  0.30000000000E+02  0.00000000000E+00 0. -1.
         23    2    1    2    0    0  0.00000000000E+00  0.00000000000E+00  0.00000000000E+00  0.60000000000E+02  0.60000000000E+02 0.  0.
          5    1    3    3  501    0 -0.69616678211E+01  0.20434839018E+02 -0.20294396652E+02  0.30000000000E+02  0.47000000000E+01 0. -1.
         -5    1    3    3    0  501  0.69616678211E+01 -0.20434839018E+02  0.20294396652E+02  0.30000000000E+02  0.47000000000E+01 0.  1.
</event>
<event>
 5    1  0.7702600E-002  0.6000000E+02  0.7546771E-02  0.1259629E+00
         11   -1    0    0    0    0  0.00000000000E+00  0.00000000000E+00  0.30000000000E+02  0.30000000000E+02  0.00000000000E+00 0. -1.
        -11   -1    0    0    0    0 -0.00000000000E+00 -0.00000000000E+00 -0.30000000000E+02  0.30000000000E+02  0.00000000000E+00 0.  1.
         23    2    1    2    0    0  0.00000000000E+00  0.00000000000E+00  0.00000000000E+00  0.60000000000E+02  0.60000000000E+02 0.  0.
          5    1    3    3  501    0 -0.66601991253E+00 -0.14529416611E+02 -0.25813997568E+02  0.30000000000E+02  0.47000000000E+01 0.  1.
         -5    1    3    3    0  501  0.66601991253E+00  0.14529416611E+02  0.25813997568E+02  0.30000000000E+02  0.47000000000E+01 0. -1.
</event>
<event>
 5    1  0.7702600E-002  0.6000000E+02  0.7546771E-02  0.1259629E+00
         11   -1    0    0    0    0  0.00000000000E+00  0.00000000000E+00  0.30000000000E+02  0.30000000000E+02  0.00000000000E+00 0.  1.
        -11   -1    0    0    0    0 -0.00000000000E+00 -0.00000000000E+00 -0.30000000000E+02  0.30000000000E+02  0.00000000000E+00 0. -1.
         23    2    1    2    0    0  0.00000000000E+00  0.00000000000E+00  0.00000000000E+00  0.60000000000E+02  0.60000000000E+02 0.  0.
          5    1    3    3  501    0 -0.27397289933E+02 -0.11258808634E+02 -0.73330244891E+00  0.30000000000E+02  0.47000000000E+01 0. -1.
         -5    1    3    3    0  501  0.27397289933E+02  0.11258808634E+02  0.73330244891E+00  0.30000000000E+02  0.47000000000E+01 0.  1.
</event>
<event>
 5    1  0.7702600E-002  0.6000000E+02  0.7546771E-02  0.1259629E+00
         11   -1    0    0    0    0  0.00000000000E+00  0.00000000000E+00  0.30000000000E+02  0.30000000000E+02  0.00000000000E+00 0.  1.
        -11   -1    0    0    0    0 -0.00000000000E+00 -0.00000000000E+00 -0.30000000000E+02  0.30000000000E+02  0.00000000000E+00 0. -1.
         23    2    1    2    0    0  0.00000000000E+00  0.00000000000E+00  0.00000000000E+00  0.60000000000E+02  0.60000000000E+02 0.  0.
          5    1    3    3  501    0 -0.74694897936E+01  0.28466298353E+02 -0.34331589387E+01  0.30000000000E+02  0.47000000000E+01 0. -1.
         -5    1    3    3    0  501  0.74694897936E+01 -0.28466298353E+02  0.34331589387E+01  0.30000000000E+02  0.47000000000E+01 0.  1.
</event>
<event>
 5    1  0.7702600E-002  0.6000000E+02  0.7546771E-02  0.1259629E+00
         11   -1    0    0    0    0  0.00000000000E+00  0.00000000000E+00  0.30000000000E+02  0.30000000000E+02  0.00000000000E+00 0.  1.
        -11   -1    0    0    0    0 -0.00000000000E+00 -0.00000000000E+00 -0.30000000000E+02  0.30000000000E+02  0.00000000000E+00 0. -1.
         23    2    1    2    0    0  0.00000000000E+00  0.00000000000E+00  0.00000000000E+00  0.60000000000E+02  0.60000000000E+02 0.  0.
          5    1    3    3  501    0 -0.61061418601E+01  0.10554250325E+02 -0.27004311353E+02  0.30000000000E+02  0.47000000000E+01 0. -1.
         -5    1    3    3    0  501  0.61061418601E+01 -0.10554250325E+02  0.27004311353E+02  0.30000000000E+02  0.47000000000E+01 0.  1.
</event>
<event>
 5    1  0.7702600E-002  0.6000000E+02  0.7546771E-02  0.1259629E+00
         11   -1    0    0    0    0  0.00000000000E+00  0.00000000000E+00  0.30000000000E+02  0.30000000000E+02  0.00000000000E+00 0.  1.
        -11   -1    0    0    0    0 -0.00000000000E+00 -0.00000000000E+00 -0.30000000000E+02  0.30000000000E+02  0.00000000000E+00 0. -1.
         23    2    1    2    0    0  0.00000000000E+00  0.00000000000E+00  0.00000000000E+00  0.60000000000E+02  0.60000000000E+02 0.  0.
          5    1    3    3  501    0 -0.16969257905E+02 -0.43662473439E+01 -0.23893308065E+02  0.30000000000E+02  0.47000000000E+01 0. -1.
         -5    1    3    3    0  501  0.16969257905E+02  0.43662473439E+01  0.23893308065E+02  0.30000000000E+02  0.47000000000E+01 0.  1.
</event>
<event>
 5    1  0.7702600E-002  0.6000000E+02  0.7546771E-02  0.1259629E+00
         11   -1    0    0    0    0  0.00000000000E+00  0.00000000000E+00  0.30000000000E+02  0.30000000000E+02  0.00000000000E+00 0. -1.
        -11   -1    0    0    0    0 -0.00000000000E+00 -0.00000000000E+00 -0.30000000000E+02  0.30000000000E+02  0.00000000000E+00 0.  1.
         23    2    1    2    0    0  0.00000000000E+00  0.00000000000E+00  0.00000000000E+00  0.60000000000E+02  0.60000000000E+02 0.  0.
          5    1    3    3  501    0  0.12669339327E+02  0.12190156955E+02  0.23849484574E+02  0.30000000000E+02  0.47000000000E+01 0. -1.
         -5    1    3    3    0  501 -0.12669339327E+02 -0.12190156955E+02 -0.23849484574E+02  0.30000000000E+02  0.47000000000E+01 0.  1.
</event>
<event>
 5    1  0.7702600E-002  0.6000000E+02  0.7546771E-02  0.1259629E+00
         11   -1    0    0    0    0  0.00000000000E+00  0.00000000000E+00  0.30000000000E+02  0.30000000000E+02  0.00000000000E+00 0.  1.
        -11   -1    0    0    0    0 -0.00000000000E+00 -0.00000000000E+00 -0.30000000000E+02  0.30000000000E+02  0.00000000000E+00 0. -1.
         23    2    1    2    0    0  0.00000000000E+00  0.00000000000E+00  0.00000000000E+00  0.60000000000E+02  0.60000000000E+02 0.  0.
          5    1    3    3  501    0 -0.52559584331E+01 -0.17688554530E+02 -0.23181888180E+02  0.30000000000E+02  0.47000000000E+01 0. -1.
         -5    1    3    3    0  501  0.52559584331E+01  0.17688554530E+02  0.23181888180E+02  0.30000000000E+02  0.47000000000E+01 0.  1.
</event>
<event>
 5    1  0.7702600E-002  0.6000000E+02  0.7546771E-02  0.1259629E+00
         11   -1    0    0    0    0  0.00000000000E+00  0.00000000000E+00  0.30000000000E+02  0.30000000000E+02  0.00000000000E+00 0. -1.
        -11   -1    0    0    0    0 -0.00000000000E+00 -0.00000000000E+00 -0.30000000000E+02  0.30000000000E+02  0.00000000000E+00 0.  1.
         23    2    1    2    0    0  0.00000000000E+00  0.00000000000E+00  0.00000000000E+00  0.60000000000E+02  0.60000000000E+02 0.  0.
          5    1    3    3  501    0  0.23400635107E+02  0.63776932850E+01 -0.17018968975E+02  0.30000000000E+02  0.47000000000E+01 0.  1.
         -5    1    3    3    0  501 -0.23400635107E+02 -0.63776932850E+01  0.17018968975E+02  0.30000000000E+02  0.47000000000E+01 0. -1.
</event>
<event>
 5    1  0.7702600E-002  0.6000000E+02  0.7546771E-02  0.1259629E+00
         11   -1    0    0    0    0  0.00000000000E+00  0.00000000000E+00  0.30000000000E+02  0.30000000000E+02  0.00000000000E+00 0.  1.
        -11   -1    0    0    0    0 -0.00000000000E+00 -0.00000000000E+00 -0.30000000000E+02  0.30000000000E+02  0.00000000000E+00 0. -1.
         23    2    1    2    0    0  0.00000000000E+00  0.00000000000E+00  0.00000000000E+00  0.60000000000E+02  0.60000000000E+02 0.  0.
          5    1    3    3  501    0 -0.10310867662E+02 -0.10109747190E+02 -0.25872553407E+02  0.30000000000E+02  0.47000000000E+01 0. -1.
         -5    1    3    3    0  501  0.10310867662E+02  0.10109747190E+02  0.25872553407E+02  0.30000000000E+02  0.47000000000E+01 0.  1.
</event>
<event>
 5    1  0.7702600E-002  0.6000000E+02  0.7546771E-02  0.1259629E+00
         11   -1    0    0    0    0  0.00000000000E+00  0.00000000000E+00  0.30000000000E+02  0.30000000000E+02  0.00000000000E+00 0.  1.
        -11   -1    0    0    0    0 -0.00000000000E+00 -0.00000000000E+00 -0.30000000000E+02  0.30000000000E+02  0.00000000000E+00 0. -1.
         23    2    1    2    0    0  0.00000000000E+00  0.00000000000E+00  0.00000000000E+00  0.60000000000E+02  0.60000000000E+02 0.  0.
          5    1    3    3  501    0 -0.15697682662E+02  0.20340279169E+02  0.14756889996E+02  0.30000000000E+02  0.47000000000E+01 0. -1.
         -5    1    3    3    0  501  0.15697682662E+02 -0.20340279169E+02 -0.14756889996E+02  0.30000000000E+02  0.47000000000E+01 0.  1.
</event>
<event>
 5    1  0.7702600E-002  0.6000000E+02  0.7546771E-02  0.1259629E+00
         11   -1    0    0    0    0  0.00000000000E+00  0.00000000000E+00  0.30000000000E+02  0.30000000000E+02  0.00000000000E+00 0. -1.
        -11   -1    0    0    0    0 -0.00000000000E+00 -0.00000000000E+00 -0.30000000000E+02  0.30000000000E+02  0.00000000000E+00 0.  1.
         23    2    1    2    0    0  0.00000000000E+00  0.00000000000E+00  0.00000000000E+00  0.60000000000E+02  0.60000000000E+02 0.  0.
          5    1    3    3  501    0  0.11736604608E+02  0.11952739848E+01 -0.27179651072E+02  0.30000000000E+02  0.47000000000E+01 0.  1.
         -5    1    3    3    0  501 -0.11736604608E+02 -0.11952739848E+01  0.27179651072E+02  0.30000000000E+02  0.47000000000E+01 0. -1.
</event>
<event>
 5    1  0.7702600E-002  0.6000000E+02  0.7546771E-02  0.1259629E+00
         11   -1    0    0    0    0  0.00000000000E+00  0.00000000000E+00  0.30000000000E+02  0.30000000000E+02  0.00000000000E+00 0.  1.
        -11   -1    0    0    0    0 -0.00000000000E+00 -0.00000000000E+00 -0.30000000000E+02  0.30000000000E+02  0.00000000000E+00 0. -1.
         23    2    1    2    0    0  0.00000000000E+00  0.00000000000E+00  0.00000000000E+00  0.60000000000E+02  0.60000000000E+02 0.  0.
          5    1    3    3  501    0 -0.15847462172E+02  0.75731498606E+01 -0.23862425357E+02  0.30000000000E+02  0.47000000000E+01 0. -1.
         -5    1    3    3    0  501  0.15847462172E+02 -0.75731498606E+01  0.23862425357E+02  0.30000000000E+02  0.47000000000E+01 0.  1.
</event>
<event>
 5    1  0.7702600E-002  0.6000000E+02  0.7546771E-02  0.1259629E+00
         11   -1    0    0    0    0  0.00000000000E+00  0.00000000000E+00  0.30000000000E+02  0.30000000000E+02  0.00000000000E+00 0. -1.
        -11   -1    0    0    0    0 -0.00000000000E+00 -0.00000000000E+00 -0.30000000000E+02  0.30000000000E+02  0.00000000000E+00 0.  1.
         23    2    1    2    0    0  0.00000000000E+00  0.00000000000E+00  0.00000000000E+00  0.60000000000E+02  0.60000000000E+02 0.  0.
          5    1    3    3  501    0 -0.95700386969E+00  0.21842346808E+02 -0.19997650599E+02  0.30000000000E+02  0.47000000000E+01 0.  1.
         -5    1    3    3    0  501  0.95700386969E+00 -0.21842346808E+02  0.19997650599E+02  0.30000000000E+02  0.47000000000E+01 0. -1.
</event>
<event>
 5    1  0.7702600E-002  0.6000000E+02  0.7546771E-02  0.1259629E+00
         11   -1    0    0    0    0  0.00000000000E+00  0.00000000000E+00  0.30000000000E+02  0.30000000000E+02  0.00000000000E+00 0.  1.
        -11   -1    0    0    0    0 -0.00000000000E+00 -0.00000000000E+00 -0.30000000000E+02  0.30000000000E+02  0.00000000000E+00 0. -1.
         23    2    1    2    0    0  0.00000000000E+00  0.00000000000E+00  0.00000000000E+00  0.60000000000E+02  0.60000000000E+02 0.  0.
          5    1    3    3  501    0  0.29273202788E+02 -0.18410994607E+01  0.41952295878E+01  0.30000000000E+02  0.47000000000E+01 0. -1.
         -5    1    3    3    0  501 -0.29273202788E+02  0.18410994607E+01 -0.41952295878E+01  0.30000000000E+02  0.47000000000E+01 0.  1.
</event>
<event>
 5    1  0.7702600E-002  0.6000000E+02  0.7546771E-02  0.1259629E+00
         11   -1    0    0    0    0  0.00000000000E+00  0.00000000000E+00  0.30000000000E+02  0.30000000000E+02  0.00000000000E+00 0.  1.
        -11   -1    0    0    0    0 -0.00000000000E+00 -0.00000000000E+00 -0.30000000000E+02  0.30000000000E+02  0.00000000000E+00 0. -1.
         23    2    1    2    0    0  0.00000000000E+00  0.00000000000E+00  0.00000000000E+00  0.60000000000E+02  0.60000000000E+02 0.  0.
          5    1    3    3  501    0 -0.13672443268E+02 -0.85654670266E+01 -0.24851701546E+02  0.30000000000E+02  0.47000000000E+01 0. -1.
         -5    1    3    3    0  501  0.13672443268E+02  0.85654670266E+01  0.24851701546E+02  0.30000000000E+02  0.47000000000E+01 0.  1.
</event>
<event>
 5    1  0.7702600E-002  0.6000000E+02  0.7546771E-02  0.1259629E+00
         11   -1    0    0    0    0  0.00000000000E+00  0.00000000000E+00  0.30000000000E+02  0.30000000000E+02  0.00000000000E+00 0.  1.
        -11   -1    0    0    0    0 -0.00000000000E+00 -0.00000000000E+00 -0.30000000000E+02  0.30000000000E+02  0.00000000000E+00 0. -1.
         23    2    1    2    0    0  0.00000000000E+00  0.00000000000E+00  0.00000000000E+00  0.60000000000E+02  0.60000000000E+02 0.  0.
          5    1    3    3  501    0 -0.21701245794E+02 -0.91579081224E+01 -0.17974945057E+02  0.30000000000E+02  0.47000000000E+01 0. -1.
         -5    1    3    3    0  501  0.21701245794E+02  0.91579081224E+01  0.17974945057E+02  0.30000000000E+02  0.47000000000E+01 0.  1.
</event>
<event>
 5    1  0.7702600E-002  0.6000000E+02  0.7546771E-02  0.1259629E+00
         11   -1    0    0    0    0  0.00000000000E+00  0.00000000000E+00  0.30000000000E+02  0.30000000000E+02  0.00000000000E+00 0.  1.
        -11   -1    0    0    0    0 -0.00000000000E+00 -0.00000000000E+00 -0.30000000000E+02  0.30000000000E+02  0.00000000000E+00 0. -1.
         23    2    1    2    0    0  0.00000000000E+00  0.00000000000E+00  0.00000000000E+00  0.60000000000E+02  0.60000000000E+02 0.  0.
          5    1    3    3  501    0 -0.26521105898E+02  0.11847963915E+02  0.58452282284E+01  0.30000000000E+02  0.47000000000E+01 0. -1.
         -5    1    3    3    0  501  0.26521105898E+02 -0.11847963915E+02 -0.58452282284E+01  0.30000000000E+02  0.47000000000E+01 0.  1.
</event>
<event>
 5    1  0.7702600E-002  0.6000000E+02  0.7546771E-02  0.1259629E+00
         11   -1    0    0    0    0  0.00000000000E+00  0.00000000000E+00  0.30000000000E+02  0.30000000000E+02  0.00000000000E+00 0.  1.
        -11   -1    0    0    0    0 -0.00000000000E+00 -0.00000000000E+00 -0.30000000000E+02  0.30000000000E+02  0.00000000000E+00 0. -1.
         23    2    1    2    0    0  0.00000000000E+00  0.00000000000E+00  0.00000000000E+00  0.60000000000E+02  0.60000000000E+02 0.  0.
          5    1    3    3  501    0  0.26723770728E+02  0.24231949222E+01  0.12564959389E+02  0.30000000000E+02  0.47000000000E+01 0.  1.
         -5    1    3    3    0  501 -0.26723770728E+02 -0.24231949222E+01 -0.12564959389E+02  0.30000000000E+02  0.47000000000E+01 0. -1.
</event>
<event>
 5    1  0.7702600E-002  0.6000000E+02  0.7546771E-02  0.1259629E+00
         11   -1    0    0    0    0  0.00000000000E+00  0.00000000000E+00  0.30000000000E+02  0.30000000000E+02  0.00000000000E+00 0.  1.
        -11   -1    0    0    0    0 -0.00000000000E+00 -0.00000000000E+00 -0.30000000000E+02  0.30000000000E+02  0.00000000000E+00 0. -1.
         23    2    1    2    0    0  0.00000000000E+00  0.00000000000E+00  0.00000000000E+00  0.60000000000E+02  0.60000000000E+02 0.  0.
          5    1    3    3  501    0  0.17146258005E+02  0.21863007427E+02 -0.10291974674E+02  0.30000000000E+02  0.47000000000E+01 0.  1.
         -5    1    3    3    0  501 -0.17146258005E+02 -0.21863007427E+02  0.10291974674E+02  0.30000000000E+02  0.47000000000E+01 0. -1.
</event>
<event>
 5    1  0.7702600E-002  0.6000000E+02  0.7546771E-02  0.1259629E+00
         11   -1    0    0    0    0  0.00000000000E+00  0.00000000000E+00  0.30000000000E+02  0.30000000000E+02  0.00000000000E+00 0.  1.
        -11   -1    0    0    0    0 -0.00000000000E+00 -0.00000000000E+00 -0.30000000000E+02  0.30000000000E+02  0.00000000000E+00 0. -1.
         23    2    1    2    0    0  0.00000000000E+00  0.00000000000E+00  0.00000000000E+00  0.60000000000E+02  0.60000000000E+02 0.  0.
          5    1    3    3  501    0  0.89499906620E+01  0.27339018902E+02  0.70982894143E+01  0.30000000000E+02  0.47000000000E+01 0. -1.
         -5    1    3    3    0  501 -0.89499906620E+01 -0.27339018902E+02 -0.70982894143E+01  0.30000000000E+02  0.47000000000E+01 0.  1.
</event>
<event>
 5    1  0.7702600E-002  0.6000000E+02  0.7546771E-02  0.1259629E+00
         11   -1    0    0    0    0  0.00000000000E+00  0.00000000000E+00  0.30000000000E+02  0.30000000000E+02  0.00000000000E+00 0.  1.
        -11   -1    0    0    0    0 -0.00000000000E+00 -0.00000000000E+00 -0.30000000000E+02  0.30000000000E+02  0.00000000000E+00 0. -1.
         23    2    1    2    0    0  0.00000000000E+00  0.00000000000E+00  0.00000000000E+00  0.60000000000E+02  0.60000000000E+02 0.  0.
          5    1    3    3  501    0 -0.26946739350E+01  0.63765272535E+01 -0.28809523296E+02  0.30000000000E+02  0.47000000000E+01 0. -1.
         -5    1    3    3    0  501  0.26946739350E+01 -0.63765272535E+01  0.28809523296E+02  0.30000000000E+02  0.47000000000E+01 0.  1.
</event>
<event>
 5    1  0.7702600E-002  0.6000000E+02  0.7546771E-02  0.1259629E+00
         11   -1    0    0    0    0  0.00000000000E+00  0.00000000000E+00  0.30000000000E+02  0.30000000000E+02  0.00000000000E+00 0. -1.
        -11   -1    0    0    0    0 -0.00000000000E+00 -0.00000000000E+00 -0.30000000000E+02  0.30000000000E+02  0.00000000000E+00 0.  1.
         23    2    1    2    0    0  0.00000000000E+00  0.00000000000E+00  0.00000000000E+00  0.60000000000E+02  0.60000000000E+02 0.  0.
          5    1    3    3  501    0  0.10807759210E+02 -0.17829034369E+02 -0.21052977802E+02  0.30000000000E+02  0.47000000000E+01 0.  1.
         -5    1    3    3    0  501 -0.10807759210E+02  0.17829034369E+02  0.21052977802E+02  0.30000000000E+02  0.47000000000E+01 0. -1.
</event>
<event>
 5    1  0.7702600E-002  0.6000000E+02  0.7546771E-02  0.1259629E+00
         11   -1    0    0    0    0  0.00000000000E+00  0.00000000000E+00  0.30000000000E+02  0.30000000000E+02  0.00000000000E+00 0. -1.
        -11   -1    0    0    0    0 -0.00000000000E+00 -0.00000000000E+00 -0.30000000000E+02  0.30000000000E+02  0.00000000000E+00 0.  1.
         23    2    1    2    0    0  0.00000000000E+00  0.00000000000E+00  0.00000000000E+00  0.60000000000E+02  0.60000000000E+02 0.  0.
          5    1    3    3  501    0  0.15304833396E+02  0.24592927874E+02 -0.62337768092E+01  0.30000000000E+02  0.47000000000E+01 0. -1.
         -5    1    3    3    0  501 -0.15304833396E+02 -0.24592927874E+02  0.62337768092E+01  0.30000000000E+02  0.47000000000E+01 0.  1.
</event>
<event>
 5    1  0.7702600E-002  0.6000000E+02  0.7546771E-02  0.1259629E+00
         11   -1    0    0    0    0  0.00000000000E+00  0.00000000000E+00  0.30000000000E+02  0.30000000000E+02  0.00000000000E+00 0.  1.
        -11   -1    0    0    0    0 -0.00000000000E+00 -0.00000000000E+00 -0.30000000000E+02  0.30000000000E+02  0.00000000000E+00 0. -1.
         23    2    1    2    0    0  0.00000000000E+00  0.00000000000E+00  0.00000000000E+00  0.60000000000E+02  0.60000000000E+02 0.  0.
          5    1    3    3  501    0 -0.18827981594E+02 -0.20481454805E+02  0.10194465075E+02  0.30000000000E+02  0.47000000000E+01 0. -1.
         -5    1    3    3    0  501  0.18827981594E+02  0.20481454805E+02 -0.10194465075E+02  0.30000000000E+02  0.47000000000E+01 0.  1.
</event>
<event>
 5    1  0.7702600E-002  0.6000000E+02  0.7546771E-02  0.1259629E+00
         11   -1    0    0    0    0  0.00000000000E+00  0.00000000000E+00  0.30000000000E+02  0.30000000000E+02  0.00000000000E+00 0. -1.
        -11   -1    0    0    0    0 -0.00000000000E+00 -0.00000000000E+00 -0.30000000000E+02  0.30000000000E+02  0.00000000000E+00 0.  1.
         23    2    1    2    0    0  0.00000000000E+00  0.00000000000E+00  0.00000000000E+00  0.60000000000E+02  0.60000000000E+02 0.  0.
          5    1    3    3  501    0 -0.18646072016E+02  0.19607724391E+02 -0.12073572072E+02  0.30000000000E+02  0.47000000000E+01 0.  1.
         -5    1    3    3    0  501  0.18646072016E+02 -0.19607724391E+02  0.12073572072E+02  0.30000000000E+02  0.47000000000E+01 0. -1.
</event>
<event>
 5    1  0.7702600E-002  0.6000000E+02  0.7546771E-02  0.1259629E+00
         11   -1    0    0    0    0  0.00000000000E+00  0.00000000000E+00  0.30000000000E+02  0.30000000000E+02  0.00000000000E+00 0.  1.
        -11   -1    0    0    0    0 -0.00000000000E+00 -0.00000000000E+00 -0.30000000000E+02  0.30000000000E+02  0.00000000000E+00 0. -1.
         23    2    1    2    0    0  0.00000000000E+00  0.00000000000E+00  0.00000000000E+00  0.60000000000E+02  0.60000000000E+02 0.  0.
          5    1    3    3  501    0 -0.11412166859E+02  0.20818301917E+02 -0.17727683235E+02  0.30000000000E+02  0.47000000000E+01 0. -1.
         -5    1    3    3    0  501  0.11412166859E+02 -0.20818301917E+02  0.17727683235E+02  0.30000000000E+02  0.47000000000E+01 0.  1.
</event>
<event>
 5    1  0.7702600E-002  0.6000000E+02  0.7546771E-02  0.1259629E+00
         11   -1    0    0    0    0  0.00000000000E+00  0.00000000000E+00  0.30000000000E+02  0.30000000000E+02  0.00000000000E+00 0. -1.
        -11   -1    0    0    0    0 -0.00000000000E+00 -0.00000000000E+00 -0.30000000000E+02  0.30000000000E+02  0.00000000000E+00 0.  1.
         23    2    1    2    0    0  0.00000000000E+00  0.00000000000E+00  0.00000000000E+00  0.60000000000E+02  0.60000000000E+02 0.  0.
          5    1    3    3  501    0  0.25469590080E+02 -0.75107813529E+01 -0.13145270808E+02  0.30000000000E+02  0.47000000000E+01 0.  1.
         -5    1    3    3    0  501 -0.25469590080E+02  0.75107813529E+01  0.13145270808E+02  0.30000000000E+02  0.47000000000E+01 0. -1.
</event>
<event>
 5    1  0.7702600E-002  0.6000000E+02  0.7546771E-02  0.1259629E+00
         11   -1    0    0    0    0  0.00000000000E+00  0.00000000000E+00  0.30000000000E+02  0.30000000000E+02  0.00000000000E+00 0.  1.
        -11   -1    0    0    0    0 -0.00000000000E+00 -0.00000000000E+00 -0.30000000000E+02  0.30000000000E+02  0.00000000000E+00 0. -1.
         23    2    1    2    0    0  0.00000000000E+00  0.00000000000E+00  0.00000000000E+00  0.60000000000E+02  0.60000000000E+02 0.  0.
          5    1    3    3  501    0  0.11817639566E+02  0.27043427560E+02  0.26280070244E+01  0.30000000000E+02  0.47000000000E+01 0. -1.
         -5    1    3    3    0  501 -0.11817639566E+02 -0.27043427560E+02 -0.26280070244E+01  0.30000000000E+02  0.47000000000E+01 0.  1.
</event>
<event>
 5    1  0.7702600E-002  0.6000000E+02  0.7546771E-02  0.1259629E+00
         11   -1    0    0    0    0  0.00000000000E+00  0.00000000000E+00  0.30000000000E+02  0.30000000000E+02  0.00000000000E+00 0.  1.
        -11   -1    0    0    0    0 -0.00000000000E+00 -0.00000000000E+00 -0.30000000000E+02  0.30000000000E+02  0.00000000000E+00 0. -1.
         23    2    1    2    0    0  0.00000000000E+00  0.00000000000E+00  0.00000000000E+00  0.60000000000E+02  0.60000000000E+02 0.  0.
          5    1    3    3  501    0 -0.20812637326E+01 -0.22819623749E+02  0.18784118644E+02  0.30000000000E+02  0.47000000000E+01 0.  1.
         -5    1    3    3    0  501  0.20812637326E+01  0.22819623749E+02 -0.18784118644E+02  0.30000000000E+02  0.47000000000E+01 0. -1.
</event>
<event>
 5    1  0.7702600E-002  0.6000000E+02  0.7546771E-02  0.1259629E+00
         11   -1    0    0    0    0  0.00000000000E+00  0.00000000000E+00  0.30000000000E+02  0.30000000000E+02  0.00000000000E+00 0. -1.
        -11   -1    0    0    0    0 -0.00000000000E+00 -0.00000000000E+00 -0.30000000000E+02  0.30000000000E+02  0.00000000000E+00 0.  1.
         23    2    1    2    0    0  0.00000000000E+00  0.00000000000E+00  0.00000000000E+00  0.60000000000E+02  0.60000000000E+02 0.  0.
          5    1    3    3  501    0 -0.87654362222E+01 -0.28279914210E+02  0.11504695266E+01  0.30000000000E+02  0.47000000000E+01 0.  1.
         -5    1    3    3    0  501  0.87654362222E+01  0.28279914210E+02 -0.11504695266E+01  0.30000000000E+02  0.47000000000E+01 0. -1.
</event>
<event>
 5    1  0.7702600E-002  0.6000000E+02  0.7546771E-02  0.1259629E+00
         11   -1    0    0    0    0  0.00000000000E+00  0.00000000000E+00  0.30000000000E+02  0.30000000000E+02  0.00000000000E+00 0. -1.
        -11   -1    0    0    0    0 -0.00000000000E+00 -0.00000000000E+00 -0.30000000000E+02  0.30000000000E+02  0.00000000000E+00 0.  1.
         23    2    1    2    0    0  0.00000000000E+00  0.00000000000E+00  0.00000000000E+00  0.60000000000E+02  0.60000000000E+02 0.  0.
          5    1    3    3  501    0  0.25550180289E+02 -0.13404659094E+02 -0.67389466371E+01  0.30000000000E+02  0.47000000000E+01 0.  1.
         -5    1    3    3    0  501 -0.25550180289E+02  0.13404659094E+02  0.67389466371E+01  0.30000000000E+02  0.47000000000E+01 0. -1.
</event>
<event>
 5    1  0.7702600E-002  0.6000000E+02  0.7546771E-02  0.1259629E+00
         11   -1    0    0    0    0  0.00000000000E+00  0.00000000000E+00  0.30000000000E+02  0.30000000000E+02  0.00000000000E+00 0.  1.
        -11   -1    0    0    0    0 -0.00000000000E+00 -0.00000000000E+00 -0.30000000000E+02  0.30000000000E+02  0.00000000000E+00 0. -1.
         23    2    1    2    0    0  0.00000000000E+00  0.00000000000E+00  0.00000000000E+00  0.60000000000E+02  0.60000000000E+02 0.  0.
          5    1    3    3  501    0 -0.12287878159E+02 -0.19125671376E+02 -0.19003335096E+02  0.30000000000E+02  0.47000000000E+01 0. -1.
         -5    1    3    3    0  501  0.12287878159E+02  0.19125671376E+02  0.19003335096E+02  0.30000000000E+02  0.47000000000E+01 0.  1.
</event>
<event>
 5    1  0.7702600E-002  0.6000000E+02  0.7546771E-02  0.1259629E+00
         11   -1    0    0    0    0  0.00000000000E+00  0.00000000000E+00  0.30000000000E+02  0.30000000000E+02  0.00000000000E+00 0.  1.
        -11   -1    0    0    0    0 -0.00000000000E+00 -0.00000000000E+00 -0.30000000000E+02  0.30000000000E+02  0.00000000000E+00 0. -1.
         23    2    1    2    0    0  0.00000000000E+00  0.00000000000E+00  0.00000000000E+00  0.60000000000E+02  0.60000000000E+02 0.  0.
          5    1    3    3  501    0  0.11004892676E+02 -0.23823215775E+02 -0.13757060999E+02  0.30000000000E+02  0.47000000000E+01 0. -1.
         -5    1    3    3    0  501 -0.11004892676E+02  0.23823215775E+02  0.13757060999E+02  0.30000000000E+02  0.47000000000E+01 0.  1.
</event>
<event>
 5    1  0.7702600E-002  0.6000000E+02  0.7546771E-02  0.1259629E+00
         11   -1    0    0    0    0  0.00000000000E+00  0.00000000000E+00  0.30000000000E+02  0.30000000000E+02  0.00000000000E+00 0.  1.
        -11   -1    0    0    0    0 -0.00000000000E+00 -0.00000000000E+00 -0.30000000000E+02  0.30000000000E+02  0.00000000000E+00 0. -1.
         23    2    1    2    0    0  0.00000000000E+00  0.00000000000E+00  0.00000000000E+00  0.60000000000E+02  0.60000000000E+02 0.  0.
          5    1    3    3  501    0  0.23434036157E+02 -0.18766021366E+01 -0.18034253902E+02  0.30000000000E+02  0.47000000000E+01 0. -1.
         -5    1    3    3    0  501 -0.23434036157E+02  0.18766021366E+01  0.18034253902E+02  0.30000000000E+02  0.47000000000E+01 0.  1.
</event>
<event>
 5    1  0.7702600E-002  0.6000000E+02  0.7546771E-02  0.1259629E+00
         11   -1    0    0    0    0  0.00000000000E+00  0.00000000000E+00  0.30000000000E+02  0.30000000000E+02  0.00000000000E+00 0.  1.
        -11   -1    0    0    0    0 -0.00000000000E+00 -0.00000000000E+00 -0.30000000000E+02  0.30000000000E+02  0.00000000000E+00 0. -1.
         23    2    1    2    0    0  0.00000000000E+00  0.00000000000E+00  0.00000000000E+00  0.60000000000E+02  0.60000000000E+02 0.  0.
          5    1    3    3  501    0 -0.22249425922E+00 -0.46914541145E+01  0.29254927014E+02  0.30000000000E+02  0.47000000000E+01 0.  1.
         -5    1    3    3    0  501  0.22249425922E+00  0.46914541145E+01 -0.29254927014E+02  0.30000000000E+02  0.47000000000E+01 0. -1.
</event>
<event>
 5    1  0.7702600E-002  0.6000000E+02  0.7546771E-02  0.1259629E+00
         11   -1    0    0    0    0  0.00000000000E+00  0.00000000000E+00  0.30000000000E+02  0.30000000000E+02  0.00000000000E+00 0. -1.
        -11   -1    0    0    0    0 -0.00000000000E+00 -0.00000000000E+00 -0.30000000000E+02  0.30000000000E+02  0.00000000000E+00 0.  1.
         23    2    1    2    0    0  0.00000000000E+00  0.00000000000E+00  0.00000000000E+00  0.60000000000E+02  0.60000000000E+02 0.  0.
          5    1    3    3  501    0 -0.37981293192E+01 -0.79122603262E+01 -0.28299829508E+02  0.30000000000E+02  0.47000000000E+01 0.  1.
         -5    1    3    3    0  501  0.37981293192E+01  0.79122603262E+01  0.28299829508E+02  0.30000000000E+02  0.47000000000E+01 0. -1.
</event>
<event>
 5    1  0.7702600E-002  0.6000000E+02  0.7546771E-02  0.1259629E+00
         11   -1    0    0    0    0  0.00000000000E+00  0.00000000000E+00  0.30000000000E+02  0.30000000000E+02  0.00000000000E+00 0. -1.
        -11   -1    0    0    0    0 -0.00000000000E+00 -0.00000000000E+00 -0.30000000000E+02  0.30000000000E+02  0.00000000000E+00 0.  1.
         23    2    1    2    0    0  0.00000000000E+00  0.00000000000E+00  0.00000000000E+00  0.60000000000E+02  0.60000000000E+02 0.  0.
          5    1    3    3  501    0  0.59343822807E+01 -0.25193041469E+02 -0.14422335751E+02  0.30000000000E+02  0.47000000000E+01 0.  1.
         -5    1    3    3    0  501 -0.59343822807E+01  0.25193041469E+02  0.14422335751E+02  0.30000000000E+02  0.47000000000E+01 0. -1.
</event>
<event>
 5    1  0.7702600E-002  0.6000000E+02  0.7546771E-02  0.1259629E+00
         11   -1    0    0    0    0  0.00000000000E+00  0.00000000000E+00  0.30000000000E+02  0.30000000000E+02  0.00000000000E+00 0.  1.
        -11   -1    0    0    0    0 -0.00000000000E+00 -0.00000000000E+00 -0.30000000000E+02  0.30000000000E+02  0.00000000000E+00 0. -1.
         23    2    1    2    0    0  0.00000000000E+00  0.00000000000E+00  0.00000000000E+00  0.60000000000E+02  0.60000000000E+02 0.  0.
          5    1    3    3  501    0  0.27821784901E+02  0.49466424175E+01  0.89100512741E+01  0.30000000000E+02  0.47000000000E+01 0. -1.
         -5    1    3    3    0  501 -0.27821784901E+02 -0.49466424175E+01 -0.89100512741E+01  0.30000000000E+02  0.47000000000E+01 0.  1.
</event>
<event>
 5    1  0.7702600E-002  0.6000000E+02  0.7546771E-02  0.1259629E+00
         11   -1    0    0    0    0  0.00000000000E+00  0.00000000000E+00  0.30000000000E+02  0.30000000000E+02  0.00000000000E+00 0.  1.
        -11   -1    0    0    0    0 -0.00000000000E+00 -0.00000000000E+00 -0.30000000000E+02  0.30000000000E+02  0.00000000000E+00 0. -1.
         23    2    1    2    0    0  0.00000000000E+00  0.00000000000E+00  0.00000000000E+00  0.60000000000E+02  0.60000000000E+02 0.  0.
          5    1    3    3  501    0  0.31544864356E+01 -0.20978569004E+02 -0.20684749403E+02  0.30000000000E+02  0.47000000000E+01 0. -1.
         -5    1    3    3    0  501 -0.31544864356E+01  0.20978569004E+02  0.20684749403E+02  0.30000000000E+02  0.47000000000E+01 0.  1.
</event>
<event>
 5    1  0.7702600E-002  0.6000000E+02  0.7546771E-02  0.1259629E+00
         11   -1    0    0    0    0  0.00000000000E+00  0.00000000000E+00  0.30000000000E+02  0.30000000000E+02  0.00000000000E+00 0.  1.
        -11   -1    0    0    0    0 -0.00000000000E+00 -0.00000000000E+00 -0.30000000000E+02  0.30000000000E+02  0.00000000000E+00 0. -1.
         23    2    1    2    0    0  0.00000000000E+00  0.00000000000E+00  0.00000000000E+00  0.60000000000E+02  0.60000000000E+02 0.  0.
          5    1    3    3  501    0  0.25198172401E+02 -0.12363683885E+02 -0.94921772230E+01  0.30000000000E+02  0.47000000000E+01 0. -1.
         -5    1    3    3    0  501 -0.25198172401E+02  0.12363683885E+02  0.94921772230E+01  0.30000000000E+02  0.47000000000E+01 0.  1.
</event>
<event>
 5    1  0.7702600E-002  0.6000000E+02  0.7546771E-02  0.1259629E+00
         11   -1    0    0    0    0  0.00000000000E+00  0.00000000000E+00  0.30000000000E+02  0.30000000000E+02  0.00000000000E+00 0.  1.
        -11   -1    0    0    0    0 -0.00000000000E+00 -0.00000000000E+00 -0.30000000000E+02  0.30000000000E+02  0.00000000000E+00 0. -1.
         23    2    1    2    0    0  0.00000000000E+00  0.00000000000E+00  0.00000000000E+00  0.60000000000E+02  0.60000000000E+02 0.  0.
          5    1    3    3  501    0 -0.23075081763E+02 -0.46356581964E+01 -0.17998924266E+02  0.30000000000E+02  0.47000000000E+01 0. -1.
         -5    1    3    3    0  501  0.23075081763E+02  0.46356581964E+01  0.17998924266E+02  0.30000000000E+02  0.47000000000E+01 0.  1.
</event>
<event>
 5    1  0.7702600E-002  0.6000000E+02  0.7546771E-02  0.1259629E+00
         11   -1    0    0    0    0  0.00000000000E+00  0.00000000000E+00  0.30000000000E+02  0.30000000000E+02  0.00000000000E+00 0.  1.
        -11   -1    0    0    0    0 -0.00000000000E+00 -0.00000000000E+00 -0.30000000000E+02  0.30000000000E+02  0.00000000000E+00 0. -1.
         23    2    1    2    0    0  0.00000000000E+00  0.00000000000E+00  0.00000000000E+00  0.60000000000E+02  0.60000000000E+02 0.  0.
          5    1    3    3  501    0 -0.68197725305E+01  0.18270502674E+02 -0.22306712771E+02  0.30000000000E+02  0.47000000000E+01 0. -1.
         -5    1    3    3    0  501  0.68197725305E+01 -0.18270502674E+02  0.22306712771E+02  0.30000000000E+02  0.47000000000E+01 0.  1.
</event>
<event>
 5    1  0.7702600E-002  0.6000000E+02  0.7546771E-02  0.1259629E+00
         11   -1    0    0    0    0  0.00000000000E+00  0.00000000000E+00  0.30000000000E+02  0.30000000000E+02  0.00000000000E+00 0.  1.
        -11   -1    0    0    0    0 -0.00000000000E+00 -0.00000000000E+00 -0.30000000000E+02  0.30000000000E+02  0.00000000000E+00 0. -1.
         23    2    1    2    0    0  0.00000000000E+00  0.00000000000E+00  0.00000000000E+00  0.60000000000E+02  0.60000000000E+02 0.  0.
          5    1    3    3  501    0 -0.53237451756E+01  0.17498109693E+02 -0.23310596185E+02  0.30000000000E+02  0.47000000000E+01 0. -1.
         -5    1    3    3    0  501  0.53237451756E+01 -0.17498109693E+02  0.23310596185E+02  0.30000000000E+02  0.47000000000E+01 0.  1.
</event>
<event>
 5    1  0.7702600E-002  0.6000000E+02  0.7546771E-02  0.1259629E+00
         11   -1    0    0    0    0  0.00000000000E+00  0.00000000000E+00  0.30000000000E+02  0.30000000000E+02  0.00000000000E+00 0.  1.
        -11   -1    0    0    0    0 -0.00000000000E+00 -0.00000000000E+00 -0.30000000000E+02  0.30000000000E+02  0.00000000000E+00 0. -1.
         23    2    1    2    0    0  0.00000000000E+00  0.00000000000E+00  0.00000000000E+00  0.60000000000E+02  0.60000000000E+02 0.  0.
          5    1    3    3  501    0  0.67160334986E+01  0.25535319420E+02  0.13444417286E+02  0.30000000000E+02  0.47000000000E+01 0. -1.
         -5    1    3    3    0  501 -0.67160334986E+01 -0.25535319420E+02 -0.13444417286E+02  0.30000000000E+02  0.47000000000E+01 0.  1.
</event>
<event>
 5    1  0.7702600E-002  0.6000000E+02  0.7546771E-02  0.1259629E+00
         11   -1    0    0    0    0  0.00000000000E+00  0.00000000000E+00  0.30000000000E+02  0.30000000000E+02  0.00000000000E+00 0.  1.
        -11   -1    0    0    0    0 -0.00000000000E+00 -0.00000000000E+00 -0.30000000000E+02  0.30000000000E+02  0.00000000000E+00 0. -1.
         23    2    1    2    0    0  0.00000000000E+00  0.00000000000E+00  0.00000000000E+00  0.60000000000E+02  0.60000000000E+02 0.  0.
          5    1    3    3  501    0 -0.47067184380E+01 -0.17237172006E+02 -0.23635496668E+02  0.30000000000E+02  0.47000000000E+01 0. -1.
         -5    1    3    3    0  501  0.47067184380E+01  0.17237172006E+02  0.23635496668E+02  0.30000000000E+02  0.47000000000E+01 0.  1.
</event>
<event>
 5    1  0.7702600E-002  0.6000000E+02  0.7546771E-02  0.1259629E+00
         11   -1    0    0    0    0  0.00000000000E+00  0.00000000000E+00  0.30000000000E+02  0.30000000000E+02  0.00000000000E+00 0.  1.
        -11   -1    0    0    0    0 -0.00000000000E+00 -0.00000000000E+00 -0.30000000000E+02  0.30000000000E+02  0.00000000000E+00 0. -1.
         23    2    1    2    0    0  0.00000000000E+00  0.00000000000E+00  0.00000000000E+00  0.60000000000E+02  0.60000000000E+02 0.  0.
          5    1    3    3  501    0 -0.18514091885E+02  0.62477681116E-01 -0.23132974262E+02  0.30000000000E+02  0.47000000000E+01 0. -1.
         -5    1    3    3    0  501  0.18514091885E+02 -0.62477681116E-01  0.23132974262E+02  0.30000000000E+02  0.47000000000E+01 0.  1.
</event>
<event>
 5    1  0.7702600E-002  0.6000000E+02  0.7546771E-02  0.1259629E+00
         11   -1    0    0    0    0  0.00000000000E+00  0.00000000000E+00  0.30000000000E+02  0.30000000000E+02  0.00000000000E+00 0. -1.
        -11   -1    0    0    0    0 -0.00000000000E+00 -0.00000000000E+00 -0.30000000000E+02  0.30000000000E+02  0.00000000000E+00 0.  1.
         23    2    1    2    0    0  0.00000000000E+00  0.00000000000E+00  0.00000000000E+00  0.60000000000E+02  0.60000000000E+02 0.  0.
          5    1    3    3  501    0 -0.26792196725E+01 -0.11206005562E+02 -0.27297568047E+02  0.30000000000E+02  0.47000000000E+01 0.  1.
         -5    1    3    3    0  501  0.26792196725E+01  0.11206005562E+02  0.27297568047E+02  0.30000000000E+02  0.47000000000E+01 0. -1.
</event>
<event>
 5    1  0.7702600E-002  0.6000000E+02  0.7546771E-02  0.1259629E+00
         11   -1    0    0    0    0  0.00000000000E+00  0.00000000000E+00  0.30000000000E+02  0.30000000000E+02  0.00000000000E+00 0.  1.
        -11   -1    0    0    0    0 -0.00000000000E+00 -0.00000000000E+00 -0.30000000000E+02  0.30000000000E+02  0.00000000000E+00 0. -1.
         23    2    1    2    0    0  0.00000000000E+00  0.00000000000E+00  0.00000000000E+00  0.60000000000E+02  0.60000000000E+02 0.  0.
          5    1    3    3  501    0 -0.89120575241E+01 -0.19856155203E+02 -0.20105181701E+02  0.30000000000E+02  0.47000000000E+01 0. -1.
         -5    1    3    3    0  501  0.89120575241E+01  0.19856155203E+02  0.20105181701E+02  0.30000000000E+02  0.47000000000E+01 0.  1.
</event>
<event>
 5    1  0.7702600E-002  0.6000000E+02  0.7546771E-02  0.1259629E+00
         11   -1    0    0    0    0  0.00000000000E+00  0.00000000000E+00  0.30000000000E+02  0.30000000000E+02  0.00000000000E+00 0.  1.
        -11   -1    0    0    0    0 -0.00000000000E+00 -0.00000000000E+00 -0.30000000000E+02  0.30000000000E+02  0.00000000000E+00 0. -1.
         23    2    1    2    0    0  0.00000000000E+00  0.00000000000E+00  0.00000000000E+00  0.60000000000E+02  0.60000000000E+02 0.  0.
          5    1    3    3  501    0 -0.26830207419E+02 -0.10912322870E+02 -0.62426900801E+01  0.30000000000E+02  0.47000000000E+01 0. -1.
         -5    1    3    3    0  501  0.26830207419E+02  0.10912322870E+02  0.62426900801E+01  0.30000000000E+02  0.47000000000E+01 0.  1.
</event>
<event>
 5    1  0.7702600E-002  0.6000000E+02  0.7546771E-02  0.1259629E+00
         11   -1    0    0    0    0  0.00000000000E+00  0.00000000000E+00  0.30000000000E+02  0.30000000000E+02  0.00000000000E+00 0.  1.
        -11   -1    0    0    0    0 -0.00000000000E+00 -0.00000000000E+00 -0.30000000000E+02  0.30000000000E+02  0.00000000000E+00 0. -1.
         23    2    1    2    0    0  0.00000000000E+00  0.00000000000E+00  0.00000000000E+00  0.60000000000E+02  0.60000000000E+02 0.  0.
          5    1    3    3  501    0  0.15360400559E+02  0.14139175029E+02 -0.21025028518E+02  0.30000000000E+02  0.47000000000E+01 0. -1.
         -5    1    3    3    0  501 -0.15360400559E+02 -0.14139175029E+02  0.21025028518E+02  0.30000000000E+02  0.47000000000E+01 0.  1.
</event>
<event>
 5    1  0.7702600E-002  0.6000000E+02  0.7546771E-02  0.1259629E+00
         11   -1    0    0    0    0  0.00000000000E+00  0.00000000000E+00  0.30000000000E+02  0.30000000000E+02  0.00000000000E+00 0.  1.
        -11   -1    0    0    0    0 -0.00000000000E+00 -0.00000000000E+00 -0.30000000000E+02  0.30000000000E+02  0.00000000000E+00 0. -1.
         23    2    1    2    0    0  0.00000000000E+00  0.00000000000E+00  0.00000000000E+00  0.60000000000E+02  0.60000000000E+02 0.  0.
          5    1    3    3  501    0 -0.21498004230E+02  0.14803761691E+02  0.14021214424E+02  0.30000000000E+02  0.47000000000E+01 0.  1.
         -5    1    3    3    0  501  0.21498004230E+02 -0.14803761691E+02 -0.14021214424E+02  0.30000000000E+02  0.47000000000E+01 0. -1.
</event>
<event>
 5    1  0.7702600E-002  0.6000000E+02  0.7546771E-02  0.1259629E+00
         11   -1    0    0    0    0  0.00000000000E+00  0.00000000000E+00  0.30000000000E+02  0.30000000000E+02  0.00000000000E+00 0.  1.
        -11   -1    0    0    0    0 -0.00000000000E+00 -0.00000000000E+00 -0.30000000000E+02  0.30000000000E+02  0.00000000000E+00 0. -1.
         23    2    1    2    0    0  0.00000000000E+00  0.00000000000E+00  0.00000000000E+00  0.60000000000E+02  0.60000000000E+02 0.  0.
          5    1    3    3  501    0  0.15715295435E+02  0.55112634559E+01 -0.24506437206E+02  0.30000000000E+02  0.47000000000E+01 0. -1.
         -5    1    3    3    0  501 -0.15715295435E+02 -0.55112634559E+01  0.24506437206E+02  0.30000000000E+02  0.47000000000E+01 0.  1.
</event>
<event>
 5    1  0.7702600E-002  0.6000000E+02  0.7546771E-02  0.1259629E+00
         11   -1    0    0    0    0  0.00000000000E+00  0.00000000000E+00  0.30000000000E+02  0.30000000000E+02  0.00000000000E+00 0.  1.
        -11   -1    0    0    0    0 -0.00000000000E+00 -0.00000000000E+00 -0.30000000000E+02  0.30000000000E+02  0.00000000000E+00 0. -1.
         23    2    1    2    0    0  0.00000000000E+00  0.00000000000E+00  0.00000000000E+00  0.60000000000E+02  0.60000000000E+02 0.  0.
          5    1    3    3  501    0 -0.36985991463E+01 -0.29339786368E+02 -0.18458873833E+01  0.30000000000E+02  0.47000000000E+01 0.  1.
         -5    1    3    3    0  501  0.36985991463E+01  0.29339786368E+02  0.18458873833E+01  0.30000000000E+02  0.47000000000E+01 0. -1.
</event>
<event>
 5    1  0.7702600E-002  0.6000000E+02  0.7546771E-02  0.1259629E+00
         11   -1    0    0    0    0  0.00000000000E+00  0.00000000000E+00  0.30000000000E+02  0.30000000000E+02  0.00000000000E+00 0.  1.
        -11   -1    0    0    0    0 -0.00000000000E+00 -0.00000000000E+00 -0.30000000000E+02  0.30000000000E+02  0.00000000000E+00 0. -1.
         23    2    1    2    0    0  0.00000000000E+00  0.00000000000E+00  0.00000000000E+00  0.60000000000E+02  0.60000000000E+02 0.  0.
          5    1    3    3  501    0  0.26050737828E+02  0.13798387200E+02 -0.29788536900E+01  0.30000000000E+02  0.47000000000E+01 0. -1.
         -5    1    3    3    0  501 -0.26050737828E+02 -0.13798387200E+02  0.29788536900E+01  0.30000000000E+02  0.47000000000E+01 0.  1.
</event>
<event>
 5    1  0.7702600E-002  0.6000000E+02  0.7546771E-02  0.1259629E+00
         11   -1    0    0    0    0  0.00000000000E+00  0.00000000000E+00  0.30000000000E+02  0.30000000000E+02  0.00000000000E+00 0. -1.
        -11   -1    0    0    0    0 -0.00000000000E+00 -0.00000000000E+00 -0.30000000000E+02  0.30000000000E+02  0.00000000000E+00 0.  1.
         23    2    1    2    0    0  0.00000000000E+00  0.00000000000E+00  0.00000000000E+00  0.60000000000E+02  0.60000000000E+02 0.  0.
          5    1    3    3  501    0  0.27525852108E+02 -0.36593737778E+01 -0.10336655615E+02  0.30000000000E+02  0.47000000000E+01 0.  1.
         -5    1    3    3    0  501 -0.27525852108E+02  0.36593737778E+01  0.10336655615E+02  0.30000000000E+02  0.47000000000E+01 0. -1.
</event>
<event>
 5    1  0.7702600E-002  0.6000000E+02  0.7546771E-02  0.1259629E+00
         11   -1    0    0    0    0  0.00000000000E+00  0.00000000000E+00  0.30000000000E+02  0.30000000000E+02  0.00000000000E+00 0.  1.
        -11   -1    0    0    0    0 -0.00000000000E+00 -0.00000000000E+00 -0.30000000000E+02  0.30000000000E+02  0.00000000000E+00 0. -1.
         23    2    1    2    0    0  0.00000000000E+00  0.00000000000E+00  0.00000000000E+00  0.60000000000E+02  0.60000000000E+02 0.  0.
          5    1    3    3  501    0 -0.28187633793E+02  0.87358891808E+01 -0.26554738540E+01  0.30000000000E+02  0.47000000000E+01 0. -1.
         -5    1    3    3    0  501  0.28187633793E+02 -0.87358891808E+01  0.26554738540E+01  0.30000000000E+02  0.47000000000E+01 0.  1.
</event>
<event>
 5    1  0.7702600E-002  0.6000000E+02  0.7546771E-02  0.1259629E+00
         11   -1    0    0    0    0  0.00000000000E+00  0.00000000000E+00  0.30000000000E+02  0.30000000000E+02  0.00000000000E+00 0.  1.
        -11   -1    0    0    0    0 -0.00000000000E+00 -0.00000000000E+00 -0.30000000000E+02  0.30000000000E+02  0.00000000000E+00 0. -1.
         23    2    1    2    0    0  0.00000000000E+00  0.00000000000E+00  0.00000000000E+00  0.60000000000E+02  0.60000000000E+02 0.  0.
          5    1    3    3  501    0  0.15423641595E+02  0.24871888442E+02 -0.46271422348E+01  0.30000000000E+02  0.47000000000E+01 0. -1.
         -5    1    3    3    0  501 -0.15423641595E+02 -0.24871888442E+02  0.46271422348E+01  0.30000000000E+02  0.47000000000E+01 0.  1.
</event>
<event>
 5    1  0.7702600E-002  0.6000000E+02  0.7546771E-02  0.1259629E+00
         11   -1    0    0    0    0  0.00000000000E+00  0.00000000000E+00  0.30000000000E+02  0.30000000000E+02  0.00000000000E+00 0.  1.
        -11   -1    0    0    0    0 -0.00000000000E+00 -0.00000000000E+00 -0.30000000000E+02  0.30000000000E+02  0.00000000000E+00 0. -1.
         23    2    1    2    0    0  0.00000000000E+00  0.00000000000E+00  0.00000000000E+00  0.60000000000E+02  0.60000000000E+02 0.  0.
          5    1    3    3  501    0  0.23669273364E+02 -0.50878681459E+01 -0.17081835268E+02  0.30000000000E+02  0.47000000000E+01 0. -1.
         -5    1    3    3    0  501 -0.23669273364E+02  0.50878681459E+01  0.17081835268E+02  0.30000000000E+02  0.47000000000E+01 0.  1.
</event>
<event>
 5    1  0.7702600E-002  0.6000000E+02  0.7546771E-02  0.1259629E+00
         11   -1    0    0    0    0  0.00000000000E+00  0.00000000000E+00  0.30000000000E+02  0.30000000000E+02  0.00000000000E+00 0.  1.
        -11   -1    0    0    0    0 -0.00000000000E+00 -0.00000000000E+00 -0.30000000000E+02  0.30000000000E+02  0.00000000000E+00 0. -1.
         23    2    1    2    0    0  0.00000000000E+00  0.00000000000E+00  0.00000000000E+00  0.60000000000E+02  0.60000000000E+02 0.  0.
          5    1    3    3  501    0 -0.19429936577E+02 -0.14202730407E+02 -0.17282072028E+02  0.30000000000E+02  0.47000000000E+01 0. -1.
         -5    1    3    3    0  501  0.19429936577E+02  0.14202730407E+02  0.17282072028E+02  0.30000000000E+02  0.47000000000E+01 0.  1.
</event>
<event>
 5    1  0.7702600E-002  0.6000000E+02  0.7546771E-02  0.1259629E+00
         11   -1    0    0    0    0  0.00000000000E+00  0.00000000000E+00  0.30000000000E+02  0.30000000000E+02  0.00000000000E+00 0. -1.
        -11   -1    0    0    0    0 -0.00000000000E+00 -0.00000000000E+00 -0.30000000000E+02  0.30000000000E+02  0.00000000000E+00 0.  1.
         23    2    1    2    0    0  0.00000000000E+00  0.00000000000E+00  0.00000000000E+00  0.60000000000E+02  0.60000000000E+02 0.  0.
          5    1    3    3  501    0  0.77739633863E+00 -0.25150267310E+02 -0.15645117742E+02  0.30000000000E+02  0.47000000000E+01 0.  1.
         -5    1    3    3    0  501 -0.77739633863E+00  0.25150267310E+02  0.15645117742E+02  0.30000000000E+02  0.47000000000E+01 0. -1.
</event>
<event>
 5    1  0.7702600E-002  0.6000000E+02  0.7546771E-02  0.1259629E+00
         11   -1    0    0    0    0  0.00000000000E+00  0.00000000000E+00  0.30000000000E+02  0.30000000000E+02  0.00000000000E+00 0.  1.
        -11   -1    0    0    0    0 -0.00000000000E+00 -0.00000000000E+00 -0.30000000000E+02  0.30000000000E+02  0.00000000000E+00 0. -1.
         23    2    1    2    0    0  0.00000000000E+00  0.00000000000E+00  0.00000000000E+00  0.60000000000E+02  0.60000000000E+02 0.  0.
          5    1    3    3  501    0  0.15959465827E+02  0.52337699198E+00 -0.24958596255E+02  0.30000000000E+02  0.47000000000E+01 0. -1.
         -5    1    3    3    0  501 -0.15959465827E+02 -0.52337699198E+00  0.24958596255E+02  0.30000000000E+02  0.47000000000E+01 0.  1.
</event>
<event>
 5    1  0.7702600E-002  0.6000000E+02  0.7546771E-02  0.1259629E+00
         11   -1    0    0    0    0  0.00000000000E+00  0.00000000000E+00  0.30000000000E+02  0.30000000000E+02  0.00000000000E+00 0. -1.
        -11   -1    0    0    0    0 -0.00000000000E+00 -0.00000000000E+00 -0.30000000000E+02  0.30000000000E+02  0.00000000000E+00 0.  1.
         23    2    1    2    0    0  0.00000000000E+00  0.00000000000E+00  0.00000000000E+00  0.60000000000E+02  0.60000000000E+02 0.  0.
          5    1    3    3  501    0 -0.27022520742E+02  0.93167862802E+01 -0.78032599689E+01  0.30000000000E+02  0.47000000000E+01 0. -1.
         -5    1    3    3    0  501  0.27022520742E+02 -0.93167862802E+01  0.78032599689E+01  0.30000000000E+02  0.47000000000E+01 0. -1.
</event>
<event>
 5    1  0.7702600E-002  0.6000000E+02  0.7546771E-02  0.1259629E+00
         11   -1    0    0    0    0  0.00000000000E+00  0.00000000000E+00  0.30000000000E+02  0.30000000000E+02  0.00000000000E+00 0. -1.
        -11   -1    0    0    0    0 -0.00000000000E+00 -0.00000000000E+00 -0.30000000000E+02  0.30000000000E+02  0.00000000000E+00 0.  1.
         23    2    1    2    0    0  0.00000000000E+00  0.00000000000E+00  0.00000000000E+00  0.60000000000E+02  0.60000000000E+02 0.  0.
          5    1    3    3  501    0 -0.19073800854E+02 -0.20444724394E+02 -0.98037424199E+01  0.30000000000E+02  0.47000000000E+01 0.  1.
         -5    1    3    3    0  501  0.19073800854E+02  0.20444724394E+02  0.98037424199E+01  0.30000000000E+02  0.47000000000E+01 0. -1.
</event>
<event>
 5    1  0.7702600E-002  0.6000000E+02  0.7546771E-02  0.1259629E+00
         11   -1    0    0    0    0  0.00000000000E+00  0.00000000000E+00  0.30000000000E+02  0.30000000000E+02  0.00000000000E+00 0.  1.
        -11   -1    0    0    0    0 -0.00000000000E+00 -0.00000000000E+00 -0.30000000000E+02  0.30000000000E+02  0.00000000000E+00 0. -1.
         23    2    1    2    0    0  0.00000000000E+00  0.00000000000E+00  0.00000000000E+00  0.60000000000E+02  0.60000000000E+02 0.  0.
          5    1    3    3  501    0 -0.84366931104E+00 -0.22667252493E+02 -0.19062892921E+02  0.30000000000E+02  0.47000000000E+01 0. -1.
         -5    1    3    3    0  501  0.84366931104E+00  0.22667252493E+02  0.19062892921E+02  0.30000000000E+02  0.47000000000E+01 0.  1.
</event>
<event>
 5    1  0.7702600E-002  0.6000000E+02  0.7546771E-02  0.1259629E+00
         11   -1    0    0    0    0  0.00000000000E+00  0.00000000000E+00  0.30000000000E+02  0.30000000000E+02  0.00000000000E+00 0.  1.
        -11   -1    0    0    0    0 -0.00000000000E+00 -0.00000000000E+00 -0.30000000000E+02  0.30000000000E+02  0.00000000000E+00 0. -1.
         23    2    1    2    0    0  0.00000000000E+00  0.00000000000E+00  0.00000000000E+00  0.60000000000E+02  0.60000000000E+02 0.  0.
          5    1    3    3  501    0 -0.17298806974E+02  0.13607867685E+02 -0.19836512152E+02  0.30000000000E+02  0.47000000000E+01 0. -1.
         -5    1    3    3    0  501  0.17298806974E+02 -0.13607867685E+02  0.19836512152E+02  0.30000000000E+02  0.47000000000E+01 0.  1.
</event>
<event>
 5    1  0.7702600E-002  0.6000000E+02  0.7546771E-02  0.1259629E+00
         11   -1    0    0    0    0  0.00000000000E+00  0.00000000000E+00  0.30000000000E+02  0.30000000000E+02  0.00000000000E+00 0.  1.
        -11   -1    0    0    0    0 -0.00000000000E+00 -0.00000000000E+00 -0.30000000000E+02  0.30000000000E+02  0.00000000000E+00 0. -1.
         23    2    1    2    0    0  0.00000000000E+00  0.00000000000E+00  0.00000000000E+00  0.60000000000E+02  0.60000000000E+02 0.  0.
          5    1    3    3  501    0  0.15781512425E+02 -0.19184959533E+02 -0.16149030723E+02  0.30000000000E+02  0.47000000000E+01 0. -1.
         -5    1    3    3    0  501 -0.15781512425E+02  0.19184959533E+02  0.16149030723E+02  0.30000000000E+02  0.47000000000E+01 0.  1.
</event>
<event>
 5    1  0.7702600E-002  0.6000000E+02  0.7546771E-02  0.1259629E+00
         11   -1    0    0    0    0  0.00000000000E+00  0.00000000000E+00  0.30000000000E+02  0.30000000000E+02  0.00000000000E+00 0.  1.
        -11   -1    0    0    0    0 -0.00000000000E+00 -0.00000000000E+00 -0.30000000000E+02  0.30000000000E+02  0.00000000000E+00 0. -1.
         23    2    1    2    0    0  0.00000000000E+00  0.00000000000E+00  0.00000000000E+00  0.60000000000E+02  0.60000000000E+02 0.  0.
          5    1    3    3  501    0  0.83836470050E+01 -0.27700769482E+02 -0.63475848146E+01  0.30000000000E+02  0.47000000000E+01 0. -1.
         -5    1    3    3    0  501 -0.83836470050E+01  0.27700769482E+02  0.63475848146E+01  0.30000000000E+02  0.47000000000E+01 0.  1.
</event>
<event>
 5    1  0.7702600E-002  0.6000000E+02  0.7546771E-02  0.1259629E+00
         11   -1    0    0    0    0  0.00000000000E+00  0.00000000000E+00  0.30000000000E+02  0.30000000000E+02  0.00000000000E+00 0.  1.
        -11   -1    0    0    0    0 -0.00000000000E+00 -0.00000000000E+00 -0.30000000000E+02  0.30000000000E+02  0.00000000000E+00 0. -1.
         23    2    1    2    0    0  0.00000000000E+00  0.00000000000E+00  0.00000000000E+00  0.60000000000E+02  0.60000000000E+02 0.  0.
          5    1    3    3  501    0  0.11385865757E+01 -0.21733204927E+02 -0.20106750713E+02  0.30000000000E+02  0.47000000000E+01 0. -1.
         -5    1    3    3    0  501 -0.11385865757E+01  0.21733204927E+02  0.20106750713E+02  0.30000000000E+02  0.47000000000E+01 0.  1.
</event>
<event>
 5    1  0.7702600E-002  0.6000000E+02  0.7546771E-02  0.1259629E+00
         11   -1    0    0    0    0  0.00000000000E+00  0.00000000000E+00  0.30000000000E+02  0.30000000000E+02  0.00000000000E+00 0. -1.
        -11   -1    0    0    0    0 -0.00000000000E+00 -0.00000000000E+00 -0.30000000000E+02  0.30000000000E+02  0.00000000000E+00 0.  1.
         23    2    1    2    0    0  0.00000000000E+00  0.00000000000E+00  0.00000000000E+00  0.60000000000E+02  0.60000000000E+02 0.  0.
          5    1    3    3  501    0 -0.14550113088E+02 -0.23448369897E+02 -0.10787870889E+02  0.30000000000E+02  0.47000000000E+01 0.  1.
         -5    1    3    3    0  501  0.14550113088E+02  0.23448369897E+02  0.10787870889E+02  0.30000000000E+02  0.47000000000E+01 0. -1.
</event>
<event>
 5    1  0.7702600E-002  0.6000000E+02  0.7546771E-02  0.1259629E+00
         11   -1    0    0    0    0  0.00000000000E+00  0.00000000000E+00  0.30000000000E+02  0.30000000000E+02  0.00000000000E+00 0. -1.
        -11   -1    0    0    0    0 -0.00000000000E+00 -0.00000000000E+00 -0.30000000000E+02  0.30000000000E+02  0.00000000000E+00 0.  1.
         23    2    1    2    0    0  0.00000000000E+00  0.00000000000E+00  0.00000000000E+00  0.60000000000E+02  0.60000000000E+02 0.  0.
          5    1    3    3  501    0  0.14505424316E+02 -0.18412398635E+02  0.18124189414E+02  0.30000000000E+02  0.47000000000E+01 0. -1.
         -5    1    3    3    0  501 -0.14505424316E+02  0.18412398635E+02 -0.18124189414E+02  0.30000000000E+02  0.47000000000E+01 0.  1.
</event>
<event>
 5    1  0.7702600E-002  0.6000000E+02  0.7546771E-02  0.1259629E+00
         11   -1    0    0    0    0  0.00000000000E+00  0.00000000000E+00  0.30000000000E+02  0.30000000000E+02  0.00000000000E+00 0. -1.
        -11   -1    0    0    0    0 -0.00000000000E+00 -0.00000000000E+00 -0.30000000000E+02  0.30000000000E+02  0.00000000000E+00 0.  1.
         23    2    1    2    0    0  0.00000000000E+00  0.00000000000E+00  0.00000000000E+00  0.60000000000E+02  0.60000000000E+02 0.  0.
          5    1    3    3  501    0 -0.26103106929E+02 -0.95549544561E+01 -0.10258686759E+02  0.30000000000E+02  0.47000000000E+01 0.  1.
         -5    1    3    3    0  501  0.26103106929E+02  0.95549544561E+01  0.10258686759E+02  0.30000000000E+02  0.47000000000E+01 0. -1.
</event>
<event>
 5    1  0.7702600E-002  0.6000000E+02  0.7546771E-02  0.1259629E+00
         11   -1    0    0    0    0  0.00000000000E+00  0.00000000000E+00  0.30000000000E+02  0.30000000000E+02  0.00000000000E+00 0.  1.
        -11   -1    0    0    0    0 -0.00000000000E+00 -0.00000000000E+00 -0.30000000000E+02  0.30000000000E+02  0.00000000000E+00 0. -1.
         23    2    1    2    0    0  0.00000000000E+00  0.00000000000E+00  0.00000000000E+00  0.60000000000E+02  0.60000000000E+02 0.  0.
          5    1    3    3  501    0  0.69636706937E+01  0.12717430653E+02 -0.25839586840E+02  0.30000000000E+02  0.47000000000E+01 0. -1.
         -5    1    3    3    0  501 -0.69636706937E+01 -0.12717430653E+02  0.25839586840E+02  0.30000000000E+02  0.47000000000E+01 0.  1.
</event>
<event>
 5    1  0.7702600E-002  0.6000000E+02  0.7546771E-02  0.1259629E+00
         11   -1    0    0    0    0  0.00000000000E+00  0.00000000000E+00  0.30000000000E+02  0.30000000000E+02  0.00000000000E+00 0.  1.
        -11   -1    0    0    0    0 -0.00000000000E+00 -0.00000000000E+00 -0.30000000000E+02  0.30000000000E+02  0.00000000000E+00 0. -1.
         23    2    1    2    0    0  0.00000000000E+00  0.00000000000E+00  0.00000000000E+00  0.60000000000E+02  0.60000000000E+02 0.  0.
          5    1    3    3  501    0 -0.13678937808E+02  0.10931404607E+02 -0.23901904815E+02  0.30000000000E+02  0.47000000000E+01 0. -1.
         -5    1    3    3    0  501  0.13678937808E+02 -0.10931404607E+02  0.23901904815E+02  0.30000000000E+02  0.47000000000E+01 0.  1.
</event>
<event>
 5    1  0.7702600E-002  0.6000000E+02  0.7546771E-02  0.1259629E+00
         11   -1    0    0    0    0  0.00000000000E+00  0.00000000000E+00  0.30000000000E+02  0.30000000000E+02  0.00000000000E+00 0.  1.
        -11   -1    0    0    0    0 -0.00000000000E+00 -0.00000000000E+00 -0.30000000000E+02  0.30000000000E+02  0.00000000000E+00 0. -1.
         23    2    1    2    0    0  0.00000000000E+00  0.00000000000E+00  0.00000000000E+00  0.60000000000E+02  0.60000000000E+02 0.  0.
          5    1    3    3  501    0 -0.10490916775E+02 -0.26832440147E+01 -0.27579899688E+02  0.30000000000E+02  0.47000000000E+01 0. -1.
         -5    1    3    3    0  501  0.10490916775E+02  0.26832440147E+01  0.27579899688E+02  0.30000000000E+02  0.47000000000E+01 0.  1.
</event>
<event>
 5    1  0.7702600E-002  0.6000000E+02  0.7546771E-02  0.1259629E+00
         11   -1    0    0    0    0  0.00000000000E+00  0.00000000000E+00  0.30000000000E+02  0.30000000000E+02  0.00000000000E+00 0. -1.
        -11   -1    0    0    0    0 -0.00000000000E+00 -0.00000000000E+00 -0.30000000000E+02  0.30000000000E+02  0.00000000000E+00 0.  1.
         23    2    1    2    0    0  0.00000000000E+00  0.00000000000E+00  0.00000000000E+00  0.60000000000E+02  0.60000000000E+02 0.  0.
          5    1    3    3  501    0  0.28997890734E+02  0.24844565055E+01 -0.55551605599E+01  0.30000000000E+02  0.47000000000E+01 0.  1.
         -5    1    3    3    0  501 -0.28997890734E+02 -0.24844565055E+01  0.55551605599E+01  0.30000000000E+02  0.47000000000E+01 0. -1.
</event>
<event>
 5    1  0.7702600E-002  0.6000000E+02  0.7546771E-02  0.1259629E+00
         11   -1    0    0    0    0  0.00000000000E+00  0.00000000000E+00  0.30000000000E+02  0.30000000000E+02  0.00000000000E+00 0.  1.
        -11   -1    0    0    0    0 -0.00000000000E+00 -0.00000000000E+00 -0.30000000000E+02  0.30000000000E+02  0.00000000000E+00 0. -1.
         23    2    1    2    0    0  0.00000000000E+00  0.00000000000E+00  0.00000000000E+00  0.60000000000E+02  0.60000000000E+02 0.  0.
          5    1    3    3  501    0 -0.15442421935E+02  0.85617783690E+01 -0.23793645285E+02  0.30000000000E+02  0.47000000000E+01 0. -1.
         -5    1    3    3    0  501  0.15442421935E+02 -0.85617783690E+01  0.23793645285E+02  0.30000000000E+02  0.47000000000E+01 0.  1.
</event>
<event>
 5    1  0.7702600E-002  0.6000000E+02  0.7546771E-02  0.1259629E+00
         11   -1    0    0    0    0  0.00000000000E+00  0.00000000000E+00  0.30000000000E+02  0.30000000000E+02  0.00000000000E+00 0. -1.
        -11   -1    0    0    0    0 -0.00000000000E+00 -0.00000000000E+00 -0.30000000000E+02  0.30000000000E+02  0.00000000000E+00 0.  1.
         23    2    1    2    0    0  0.00000000000E+00  0.00000000000E+00  0.00000000000E+00  0.60000000000E+02  0.60000000000E+02 0.  0.
          5    1    3    3  501    0  0.21109917847E+02  0.62602995395E+01 -0.19826497880E+02  0.30000000000E+02  0.47000000000E+01 0.  1.
         -5    1    3    3    0  501 -0.21109917847E+02 -0.62602995395E+01  0.19826497880E+02  0.30000000000E+02  0.47000000000E+01 0. -1.
</event>
<event>
 5    1  0.7702600E-002  0.6000000E+02  0.7546771E-02  0.1259629E+00
         11   -1    0    0    0    0  0.00000000000E+00  0.00000000000E+00  0.30000000000E+02  0.30000000000E+02  0.00000000000E+00 0.  1.
        -11   -1    0    0    0    0 -0.00000000000E+00 -0.00000000000E+00 -0.30000000000E+02  0.30000000000E+02  0.00000000000E+00 0. -1.
         23    2    1    2    0    0  0.00000000000E+00  0.00000000000E+00  0.00000000000E+00  0.60000000000E+02  0.60000000000E+02 0.  0.
          5    1    3    3  501    0  0.22423331360E+02  0.19070916807E+02 -0.33770316625E+01  0.30000000000E+02  0.47000000000E+01 0.  1.
         -5    1    3    3    0  501 -0.22423331360E+02 -0.19070916807E+02  0.33770316625E+01  0.30000000000E+02  0.47000000000E+01 0. -1.
</event>
<event>
 5    1  0.7702600E-002  0.6000000E+02  0.7546771E-02  0.1259629E+00
         11   -1    0    0    0    0  0.00000000000E+00  0.00000000000E+00  0.30000000000E+02  0.30000000000E+02  0.00000000000E+00 0.  1.
        -11   -1    0    0    0    0 -0.00000000000E+00 -0.00000000000E+00 -0.30000000000E+02  0.30000000000E+02  0.00000000000E+00 0. -1.
         23    2    1    2    0    0  0.00000000000E+00  0.00000000000E+00  0.00000000000E+00  0.60000000000E+02  0.60000000000E+02 0.  0.
          5    1    3    3  501    0  0.20055953776E+02 -0.20846359571E+02 -0.64107730236E+01  0.30000000000E+02  0.47000000000E+01 0. -1.
         -5    1    3    3    0  501 -0.20055953776E+02  0.20846359571E+02  0.64107730236E+01  0.30000000000E+02  0.47000000000E+01 0.  1.
</event>
<event>
 5    1  0.7702600E-002  0.6000000E+02  0.7546771E-02  0.1259629E+00
         11   -1    0    0    0    0  0.00000000000E+00  0.00000000000E+00  0.30000000000E+02  0.30000000000E+02  0.00000000000E+00 0. -1.
        -11   -1    0    0    0    0 -0.00000000000E+00 -0.00000000000E+00 -0.30000000000E+02  0.30000000000E+02  0.00000000000E+00 0.  1.
         23    2    1    2    0    0  0.00000000000E+00  0.00000000000E+00  0.00000000000E+00  0.60000000000E+02  0.60000000000E+02 0.  0.
          5    1    3    3  501    0 -0.15454184452E+02  0.86934092282E+01 -0.23738214316E+02  0.30000000000E+02  0.47000000000E+01 0.  1.
         -5    1    3    3    0  501  0.15454184452E+02 -0.86934092282E+01  0.23738214316E+02  0.30000000000E+02  0.47000000000E+01 0. -1.
</event>
<event>
 5    1  0.7702600E-002  0.6000000E+02  0.7546771E-02  0.1259629E+00
         11   -1    0    0    0    0  0.00000000000E+00  0.00000000000E+00  0.30000000000E+02  0.30000000000E+02  0.00000000000E+00 0.  1.
        -11   -1    0    0    0    0 -0.00000000000E+00 -0.00000000000E+00 -0.30000000000E+02  0.30000000000E+02  0.00000000000E+00 0. -1.
         23    2    1    2    0    0  0.00000000000E+00  0.00000000000E+00  0.00000000000E+00  0.60000000000E+02  0.60000000000E+02 0.  0.
          5    1    3    3  501    0 -0.59395722078E+01  0.12932369197E+02 -0.25988176330E+02  0.30000000000E+02  0.47000000000E+01 0. -1.
         -5    1    3    3    0  501  0.59395722078E+01 -0.12932369197E+02  0.25988176330E+02  0.30000000000E+02  0.47000000000E+01 0.  1.
</event>
<event>
 5    1  0.7702600E-002  0.6000000E+02  0.7546771E-02  0.1259629E+00
         11   -1    0    0    0    0  0.00000000000E+00  0.00000000000E+00  0.30000000000E+02  0.30000000000E+02  0.00000000000E+00 0.  1.
        -11   -1    0    0    0    0 -0.00000000000E+00 -0.00000000000E+00 -0.30000000000E+02  0.30000000000E+02  0.00000000000E+00 0. -1.
         23    2    1    2    0    0  0.00000000000E+00  0.00000000000E+00  0.00000000000E+00  0.60000000000E+02  0.60000000000E+02 0.  0.
          5    1    3    3  501    0 -0.82100591341E+00  0.17332491451E+01 -0.29567411058E+02  0.30000000000E+02  0.47000000000E+01 0. -1.
         -5    1    3    3    0  501  0.82100591341E+00 -0.17332491451E+01  0.29567411058E+02  0.30000000000E+02  0.47000000000E+01 0.  1.
</event>
<event>
 5    1  0.7702600E-002  0.6000000E+02  0.7546771E-02  0.1259629E+00
         11   -1    0    0    0    0  0.00000000000E+00  0.00000000000E+00  0.30000000000E+02  0.30000000000E+02  0.00000000000E+00 0.  1.
        -11   -1    0    0    0    0 -0.00000000000E+00 -0.00000000000E+00 -0.30000000000E+02  0.30000000000E+02  0.00000000000E+00 0. -1.
         23    2    1    2    0    0  0.00000000000E+00  0.00000000000E+00  0.00000000000E+00  0.60000000000E+02  0.60000000000E+02 0.  0.
          5    1    3    3  501    0  0.74574454165E+01 -0.13213184985E+02 -0.25450112974E+02  0.30000000000E+02  0.47000000000E+01 0. -1.
         -5    1    3    3    0  501 -0.74574454165E+01  0.13213184985E+02  0.25450112974E+02  0.30000000000E+02  0.47000000000E+01 0.  1.
</event>
<event>
 5    1  0.7702600E-002  0.6000000E+02  0.7546771E-02  0.1259629E+00
         11   -1    0    0    0    0  0.00000000000E+00  0.00000000000E+00  0.30000000000E+02  0.30000000000E+02  0.00000000000E+00 0. -1.
        -11   -1    0    0    0    0 -0.00000000000E+00 -0.00000000000E+00 -0.30000000000E+02  0.30000000000E+02  0.00000000000E+00 0.  1.
         23    2    1    2    0    0  0.00000000000E+00  0.00000000000E+00  0.00000000000E+00  0.60000000000E+02  0.60000000000E+02 0.  0.
          5    1    3    3  501    0 -0.11267192534E+02  0.11037970285E+02 -0.25082336103E+02  0.30000000000E+02  0.47000000000E+01 0.  1.
         -5    1    3    3    0  501  0.11267192534E+02 -0.11037970285E+02  0.25082336103E+02  0.30000000000E+02  0.47000000000E+01 0. -1.
</event>
<event>
 5    1  0.7702600E-002  0.6000000E+02  0.7546771E-02  0.1259629E+00
         11   -1    0    0    0    0  0.00000000000E+00  0.00000000000E+00  0.30000000000E+02  0.30000000000E+02  0.00000000000E+00 0.  1.
        -11   -1    0    0    0    0 -0.00000000000E+00 -0.00000000000E+00 -0.30000000000E+02  0.30000000000E+02  0.00000000000E+00 0. -1.
         23    2    1    2    0    0  0.00000000000E+00  0.00000000000E+00  0.00000000000E+00  0.60000000000E+02  0.60000000000E+02 0.  0.
          5    1    3    3  501    0 -0.14947144703E+02  0.11102922277E+02 -0.23048166568E+02  0.30000000000E+02  0.47000000000E+01 0. -1.
         -5    1    3    3    0  501  0.14947144703E+02 -0.11102922277E+02  0.23048166568E+02  0.30000000000E+02  0.47000000000E+01 0.  1.
</event>
<event>
 5    1  0.7702600E-002  0.6000000E+02  0.7546771E-02  0.1259629E+00
         11   -1    0    0    0    0  0.00000000000E+00  0.00000000000E+00  0.30000000000E+02  0.30000000000E+02  0.00000000000E+00 0.  1.
        -11   -1    0    0    0    0 -0.00000000000E+00 -0.00000000000E+00 -0.30000000000E+02  0.30000000000E+02  0.00000000000E+00 0. -1.
         23    2    1    2    0    0  0.00000000000E+00  0.00000000000E+00  0.00000000000E+00  0.60000000000E+02  0.60000000000E+02 0.  0.
          5    1    3    3  501    0  0.19577595425E+01  0.47774632485E+01 -0.29176240719E+02  0.30000000000E+02  0.47000000000E+01 0. -1.
         -5    1    3    3    0  501 -0.19577595425E+01 -0.47774632485E+01  0.29176240719E+02  0.30000000000E+02  0.47000000000E+01 0.  1.
</event>
<event>
 5    1  0.7702600E-002  0.6000000E+02  0.7546771E-02  0.1259629E+00
         11   -1    0    0    0    0  0.00000000000E+00  0.00000000000E+00  0.30000000000E+02  0.30000000000E+02  0.00000000000E+00 0.  1.
        -11   -1    0    0    0    0 -0.00000000000E+00 -0.00000000000E+00 -0.30000000000E+02  0.30000000000E+02  0.00000000000E+00 0. -1.
         23    2    1    2    0    0  0.00000000000E+00  0.00000000000E+00  0.00000000000E+00  0.60000000000E+02  0.60000000000E+02 0.  0.
          5    1    3    3  501    0  0.79551912795E+00  0.27897237007E+02 -0.99509455179E+01  0.30000000000E+02  0.47000000000E+01 0. -1.
         -5    1    3    3    0  501 -0.79551912795E+00 -0.27897237007E+02  0.99509455179E+01  0.30000000000E+02  0.47000000000E+01 0.  1.
</event>
<event>
 5    1  0.7702600E-002  0.6000000E+02  0.7546771E-02  0.1259629E+00
         11   -1    0    0    0    0  0.00000000000E+00  0.00000000000E+00  0.30000000000E+02  0.30000000000E+02  0.00000000000E+00 0.  1.
        -11   -1    0    0    0    0 -0.00000000000E+00 -0.00000000000E+00 -0.30000000000E+02  0.30000000000E+02  0.00000000000E+00 0. -1.
         23    2    1    2    0    0  0.00000000000E+00  0.00000000000E+00  0.00000000000E+00  0.60000000000E+02  0.60000000000E+02 0.  0.
          5    1    3    3  501    0  0.25778987206E+02  0.72380100900E+00 -0.14588691878E+02  0.30000000000E+02  0.47000000000E+01 0. -1.
         -5    1    3    3    0  501 -0.25778987206E+02 -0.72380100900E+00  0.14588691878E+02  0.30000000000E+02  0.47000000000E+01 0.  1.
</event>
<event>
 5    1  0.7702600E-002  0.6000000E+02  0.7546771E-02  0.1259629E+00
         11   -1    0    0    0    0  0.00000000000E+00  0.00000000000E+00  0.30000000000E+02  0.30000000000E+02  0.00000000000E+00 0.  1.
        -11   -1    0    0    0    0 -0.00000000000E+00 -0.00000000000E+00 -0.30000000000E+02  0.30000000000E+02  0.00000000000E+00 0. -1.
         23    2    1    2    0    0  0.00000000000E+00  0.00000000000E+00  0.00000000000E+00  0.60000000000E+02  0.60000000000E+02 0.  0.
          5    1    3    3  501    0  0.38807447477E+01 -0.29294322204E+02 -0.21662194803E+01  0.30000000000E+02  0.47000000000E+01 0. -1.
         -5    1    3    3    0  501 -0.38807447477E+01  0.29294322204E+02  0.21662194803E+01  0.30000000000E+02  0.47000000000E+01 0.  1.
</event>
<event>
 5    1  0.7702600E-002  0.6000000E+02  0.7546771E-02  0.1259629E+00
         11   -1    0    0    0    0  0.00000000000E+00  0.00000000000E+00  0.30000000000E+02  0.30000000000E+02  0.00000000000E+00 0.  1.
        -11   -1    0    0    0    0 -0.00000000000E+00 -0.00000000000E+00 -0.30000000000E+02  0.30000000000E+02  0.00000000000E+00 0. -1.
         23    2    1    2    0    0  0.00000000000E+00  0.00000000000E+00  0.00000000000E+00  0.60000000000E+02  0.60000000000E+02 0.  0.
          5    1    3    3  501    0  0.26263553717E+02 -0.14532517615E+01 -0.13639054420E+02  0.30000000000E+02  0.47000000000E+01 0. -1.
         -5    1    3    3    0  501 -0.26263553717E+02  0.14532517615E+01  0.13639054420E+02  0.30000000000E+02  0.47000000000E+01 0.  1.
</event>
<event>
 5    1  0.7702600E-002  0.6000000E+02  0.7546771E-02  0.1259629E+00
         11   -1    0    0    0    0  0.00000000000E+00  0.00000000000E+00  0.30000000000E+02  0.30000000000E+02  0.00000000000E+00 0.  1.
        -11   -1    0    0    0    0 -0.00000000000E+00 -0.00000000000E+00 -0.30000000000E+02  0.30000000000E+02  0.00000000000E+00 0. -1.
         23    2    1    2    0    0  0.00000000000E+00  0.00000000000E+00  0.00000000000E+00  0.60000000000E+02  0.60000000000E+02 0.  0.
          5    1    3    3  501    0 -0.18797300170E+02 -0.22469644890E+02 -0.44369544572E+01  0.30000000000E+02  0.47000000000E+01 0. -1.
         -5    1    3    3    0  501  0.18797300170E+02  0.22469644890E+02  0.44369544572E+01  0.30000000000E+02  0.47000000000E+01 0.  1.
</event>
<event>
 5    1  0.7702600E-002  0.6000000E+02  0.7546771E-02  0.1259629E+00
         11   -1    0    0    0    0  0.00000000000E+00  0.00000000000E+00  0.30000000000E+02  0.30000000000E+02  0.00000000000E+00 0.  1.
        -11   -1    0    0    0    0 -0.00000000000E+00 -0.00000000000E+00 -0.30000000000E+02  0.30000000000E+02  0.00000000000E+00 0. -1.
         23    2    1    2    0    0  0.00000000000E+00  0.00000000000E+00  0.00000000000E+00  0.60000000000E+02  0.60000000000E+02 0.  0.
          5    1    3    3  501    0 -0.16394989436E+02  0.34469845688E+01 -0.24438343209E+02  0.30000000000E+02  0.47000000000E+01 0. -1.
         -5    1    3    3    0  501  0.16394989436E+02 -0.34469845688E+01  0.24438343209E+02  0.30000000000E+02  0.47000000000E+01 0.  1.
</event>
<event>
 5    1  0.7702600E-002  0.6000000E+02  0.7546771E-02  0.1259629E+00
         11   -1    0    0    0    0  0.00000000000E+00  0.00000000000E+00  0.30000000000E+02  0.30000000000E+02  0.00000000000E+00 0.  1.
        -11   -1    0    0    0    0 -0.00000000000E+00 -0.00000000000E+00 -0.30000000000E+02  0.30000000000E+02  0.00000000000E+00 0. -1.
         23    2    1    2    0    0  0.00000000000E+00  0.00000000000E+00  0.00000000000E+00  0.60000000000E+02  0.60000000000E+02 0.  0.
          5    1    3    3  501    0 -0.14907151373E+01 -0.11582032068E+02 -0.27231311051E+02  0.30000000000E+02  0.47000000000E+01 0. -1.
         -5    1    3    3    0  501  0.14907151373E+01  0.11582032068E+02  0.27231311051E+02  0.30000000000E+02  0.47000000000E+01 0.  1.
</event>
<event>
 5    1  0.7702600E-002  0.6000000E+02  0.7546771E-02  0.1259629E+00
         11   -1    0    0    0    0  0.00000000000E+00  0.00000000000E+00  0.30000000000E+02  0.30000000000E+02  0.00000000000E+00 0.  1.
        -11   -1    0    0    0    0 -0.00000000000E+00 -0.00000000000E+00 -0.30000000000E+02  0.30000000000E+02  0.00000000000E+00 0. -1.
         23    2    1    2    0    0  0.00000000000E+00  0.00000000000E+00  0.00000000000E+00  0.60000000000E+02  0.60000000000E+02 0.  0.
          5    1    3    3  501    0 -0.20371625416E+02 -0.15424508332E+02 -0.14999714017E+02  0.30000000000E+02  0.47000000000E+01 0. -1.
         -5    1    3    3    0  501  0.20371625416E+02  0.15424508332E+02  0.14999714017E+02  0.30000000000E+02  0.47000000000E+01 0.  1.
</event>
<event>
 5    1  0.7702600E-002  0.6000000E+02  0.7546771E-02  0.1259629E+00
         11   -1    0    0    0    0  0.00000000000E+00  0.00000000000E+00  0.30000000000E+02  0.30000000000E+02  0.00000000000E+00 0.  1.
        -11   -1    0    0    0    0 -0.00000000000E+00 -0.00000000000E+00 -0.30000000000E+02  0.30000000000E+02  0.00000000000E+00 0. -1.
         23    2    1    2    0    0  0.00000000000E+00  0.00000000000E+00  0.00000000000E+00  0.60000000000E+02  0.60000000000E+02 0.  0.
          5    1    3    3  501    0  0.27067309593E+02  0.32621829197E+00 -0.12048416205E+02  0.30000000000E+02  0.47000000000E+01 0. -1.
         -5    1    3    3    0  501 -0.27067309593E+02 -0.32621829197E+00  0.12048416205E+02  0.30000000000E+02  0.47000000000E+01 0.  1.
</event>
<event>
 5    1  0.7702600E-002  0.6000000E+02  0.7546771E-02  0.1259629E+00
         11   -1    0    0    0    0  0.00000000000E+00  0.00000000000E+00  0.30000000000E+02  0.30000000000E+02  0.00000000000E+00 0. -1.
        -11   -1    0    0    0    0 -0.00000000000E+00 -0.00000000000E+00 -0.30000000000E+02  0.30000000000E+02  0.00000000000E+00 0.  1.
         23    2    1    2    0    0  0.00000000000E+00  0.00000000000E+00  0.00000000000E+00  0.60000000000E+02  0.60000000000E+02 0.  0.
          5    1    3    3  501    0 -0.29114879544E+02  0.15672512237E+01 -0.52704376218E+01  0.30000000000E+02  0.47000000000E+01 0.  1.
         -5    1    3    3    0  501  0.29114879544E+02 -0.15672512237E+01  0.52704376218E+01  0.30000000000E+02  0.47000000000E+01 0. -1.
</event>
<event>
 5    1  0.7702600E-002  0.6000000E+02  0.7546771E-02  0.1259629E+00
         11   -1    0    0    0    0  0.00000000000E+00  0.00000000000E+00  0.30000000000E+02  0.30000000000E+02  0.00000000000E+00 0. -1.
        -11   -1    0    0    0    0 -0.00000000000E+00 -0.00000000000E+00 -0.30000000000E+02  0.30000000000E+02  0.00000000000E+00 0.  1.
         23    2    1    2    0    0  0.00000000000E+00  0.00000000000E+00  0.00000000000E+00  0.60000000000E+02  0.60000000000E+02 0.  0.
          5    1    3    3  501    0  0.10680947775E+02  0.18435647086E+02 -0.20590149858E+02  0.30000000000E+02  0.47000000000E+01 0.  1.
         -5    1    3    3    0  501 -0.10680947775E+02 -0.18435647086E+02  0.20590149858E+02  0.30000000000E+02  0.47000000000E+01 0. -1.
</event>
<event>
 5    1  0.7702600E-002  0.6000000E+02  0.7546771E-02  0.1259629E+00
         11   -1    0    0    0    0  0.00000000000E+00  0.00000000000E+00  0.30000000000E+02  0.30000000000E+02  0.00000000000E+00 0.  1.
        -11   -1    0    0    0    0 -0.00000000000E+00 -0.00000000000E+00 -0.30000000000E+02  0.30000000000E+02  0.00000000000E+00 0. -1.
         23    2    1    2    0    0  0.00000000000E+00  0.00000000000E+00  0.00000000000E+00  0.60000000000E+02  0.60000000000E+02 0.  0.
          5    1    3    3  501    0  0.27219780353E+01  0.11471621166E+02 -0.27182765558E+02  0.30000000000E+02  0.47000000000E+01 0. -1.
         -5    1    3    3    0  501 -0.27219780353E+01 -0.11471621166E+02  0.27182765558E+02  0.30000000000E+02  0.47000000000E+01 0.  1.
</event>
<event>
 5    1  0.7702600E-002  0.6000000E+02  0.7546771E-02  0.1259629E+00
         11   -1    0    0    0    0  0.00000000000E+00  0.00000000000E+00  0.30000000000E+02  0.30000000000E+02  0.00000000000E+00 0.  1.
        -11   -1    0    0    0    0 -0.00000000000E+00 -0.00000000000E+00 -0.30000000000E+02  0.30000000000E+02  0.00000000000E+00 0. -1.
         23    2    1    2    0    0  0.00000000000E+00  0.00000000000E+00  0.00000000000E+00  0.60000000000E+02  0.60000000000E+02 0.  0.
          5    1    3    3  501    0  0.57348428360E+01 -0.68925759069E+01 -0.28240289924E+02  0.30000000000E+02  0.47000000000E+01 0. -1.
         -5    1    3    3    0  501 -0.57348428360E+01  0.68925759069E+01  0.28240289924E+02  0.30000000000E+02  0.47000000000E+01 0.  1.
</event>
<event>
 5    1  0.7702600E-002  0.6000000E+02  0.7546771E-02  0.1259629E+00
         11   -1    0    0    0    0  0.00000000000E+00  0.00000000000E+00  0.30000000000E+02  0.30000000000E+02  0.00000000000E+00 0.  1.
        -11   -1    0    0    0    0 -0.00000000000E+00 -0.00000000000E+00 -0.30000000000E+02  0.30000000000E+02  0.00000000000E+00 0. -1.
         23    2    1    2    0    0  0.00000000000E+00  0.00000000000E+00  0.00000000000E+00  0.60000000000E+02  0.60000000000E+02 0.  0.
          5    1    3    3  501    0 -0.16321261204E+02  0.16238076922E+02 -0.18650771850E+02  0.30000000000E+02  0.47000000000E+01 0. -1.
         -5    1    3    3    0  501  0.16321261204E+02 -0.16238076922E+02  0.18650771850E+02  0.30000000000E+02  0.47000000000E+01 0.  1.
</event>
<event>
 5    1  0.7702600E-002  0.6000000E+02  0.7546771E-02  0.1259629E+00
         11   -1    0    0    0    0  0.00000000000E+00  0.00000000000E+00  0.30000000000E+02  0.30000000000E+02  0.00000000000E+00 0. -1.
        -11   -1    0    0    0    0 -0.00000000000E+00 -0.00000000000E+00 -0.30000000000E+02  0.30000000000E+02  0.00000000000E+00 0.  1.
         23    2    1    2    0    0  0.00000000000E+00  0.00000000000E+00  0.00000000000E+00  0.60000000000E+02  0.60000000000E+02 0.  0.
          5    1    3    3  501    0 -0.51470833955E+01 -0.28971453841E+02 -0.34745352031E+01  0.30000000000E+02  0.47000000000E+01 0.  1.
         -5    1    3    3    0  501  0.51470833955E+01  0.28971453841E+02  0.34745352031E+01  0.30000000000E+02  0.47000000000E+01 0. -1.
</event>
<event>
 5    1  0.7702600E-002  0.6000000E+02  0.7546771E-02  0.1259629E+00
         11   -1    0    0    0    0  0.00000000000E+00  0.00000000000E+00  0.30000000000E+02  0.30000000000E+02  0.00000000000E+00 0. -1.
        -11   -1    0    0    0    0 -0.00000000000E+00 -0.00000000000E+00 -0.30000000000E+02  0.30000000000E+02  0.00000000000E+00 0.  1.
         23    2    1    2    0    0  0.00000000000E+00  0.00000000000E+00  0.00000000000E+00  0.60000000000E+02  0.60000000000E+02 0.  0.
          5    1    3    3  501    0 -0.73698615882E+01 -0.22471091615E+02 -0.17850635333E+02  0.30000000000E+02  0.47000000000E+01 0.  1.
         -5    1    3    3    0  501  0.73698615882E+01  0.22471091615E+02  0.17850635333E+02  0.30000000000E+02  0.47000000000E+01 0. -1.
</event>
<event>
 5    1  0.7702600E-002  0.6000000E+02  0.7546771E-02  0.1259629E+00
         11   -1    0    0    0    0  0.00000000000E+00  0.00000000000E+00  0.30000000000E+02  0.30000000000E+02  0.00000000000E+00 0.  1.
        -11   -1    0    0    0    0 -0.00000000000E+00 -0.00000000000E+00 -0.30000000000E+02  0.30000000000E+02  0.00000000000E+00 0. -1.
         23    2    1    2    0    0  0.00000000000E+00  0.00000000000E+00  0.00000000000E+00  0.60000000000E+02  0.60000000000E+02 0.  0.
          5    1    3    3  501    0  0.23183207536E+02  0.12643529207E+02  0.13438380019E+02  0.30000000000E+02  0.47000000000E+01 0. -1.
         -5    1    3    3    0  501 -0.23183207536E+02 -0.12643529207E+02 -0.13438380019E+02  0.30000000000E+02  0.47000000000E+01 0.  1.
</event>
<event>
 5    1  0.7702600E-002  0.6000000E+02  0.7546771E-02  0.1259629E+00
         11   -1    0    0    0    0  0.00000000000E+00  0.00000000000E+00  0.30000000000E+02  0.30000000000E+02  0.00000000000E+00 0.  1.
        -11   -1    0    0    0    0 -0.00000000000E+00 -0.00000000000E+00 -0.30000000000E+02  0.30000000000E+02  0.00000000000E+00 0. -1.
         23    2    1    2    0    0  0.00000000000E+00  0.00000000000E+00  0.00000000000E+00  0.60000000000E+02  0.60000000000E+02 0.  0.
          5    1    3    3  501    0  0.29126435216E+02  0.52114076087E+01  0.15498394556E+01  0.30000000000E+02  0.47000000000E+01 0.  1.
         -5    1    3    3    0  501 -0.29126435216E+02 -0.52114076087E+01 -0.15498394556E+01  0.30000000000E+02  0.47000000000E+01 0. -1.
</event>
<event>
 5    1  0.7702600E-002  0.6000000E+02  0.7546771E-02  0.1259629E+00
         11   -1    0    0    0    0  0.00000000000E+00  0.00000000000E+00  0.30000000000E+02  0.30000000000E+02  0.00000000000E+00 0.  1.
        -11   -1    0    0    0    0 -0.00000000000E+00 -0.00000000000E+00 -0.30000000000E+02  0.30000000000E+02  0.00000000000E+00 0. -1.
         23    2    1    2    0    0  0.00000000000E+00  0.00000000000E+00  0.00000000000E+00  0.60000000000E+02  0.60000000000E+02 0.  0.
          5    1    3    3  501    0  0.13985192793E+02 -0.18576453189E+02 -0.18364089127E+02  0.30000000000E+02  0.47000000000E+01 0. -1.
         -5    1    3    3    0  501 -0.13985192793E+02  0.18576453189E+02  0.18364089127E+02  0.30000000000E+02  0.47000000000E+01 0.  1.
</event>
<event>
 5    1  0.7702600E-002  0.6000000E+02  0.7546771E-02  0.1259629E+00
         11   -1    0    0    0    0  0.00000000000E+00  0.00000000000E+00  0.30000000000E+02  0.30000000000E+02  0.00000000000E+00 0.  1.
        -11   -1    0    0    0    0 -0.00000000000E+00 -0.00000000000E+00 -0.30000000000E+02  0.30000000000E+02  0.00000000000E+00 0. -1.
         23    2    1    2    0    0  0.00000000000E+00  0.00000000000E+00  0.00000000000E+00  0.60000000000E+02  0.60000000000E+02 0.  0.
          5    1    3    3  501    0  0.15779797794E+02  0.71001298225E+01  0.24051946659E+02  0.30000000000E+02  0.47000000000E+01 0.  1.
         -5    1    3    3    0  501 -0.15779797794E+02 -0.71001298225E+01 -0.24051946659E+02  0.30000000000E+02  0.47000000000E+01 0. -1.
</event>
<event>
 5    1  0.7702600E-002  0.6000000E+02  0.7546771E-02  0.1259629E+00
         11   -1    0    0    0    0  0.00000000000E+00  0.00000000000E+00  0.30000000000E+02  0.30000000000E+02  0.00000000000E+00 0.  1.
        -11   -1    0    0    0    0 -0.00000000000E+00 -0.00000000000E+00 -0.30000000000E+02  0.30000000000E+02  0.00000000000E+00 0. -1.
         23    2    1    2    0    0  0.00000000000E+00  0.00000000000E+00  0.00000000000E+00  0.60000000000E+02  0.60000000000E+02 0.  0.
          5    1    3    3  501    0 -0.25773585402E+02 -0.15926716830E+01 -0.14529132542E+02  0.30000000000E+02  0.47000000000E+01 0. -1.
         -5    1    3    3    0  501  0.25773585402E+02  0.15926716830E+01  0.14529132542E+02  0.30000000000E+02  0.47000000000E+01 0.  1.
</event>
<event>
 5    1  0.7702600E-002  0.6000000E+02  0.7546771E-02  0.1259629E+00
         11   -1    0    0    0    0  0.00000000000E+00  0.00000000000E+00  0.30000000000E+02  0.30000000000E+02  0.00000000000E+00 0.  1.
        -11   -1    0    0    0    0 -0.00000000000E+00 -0.00000000000E+00 -0.30000000000E+02  0.30000000000E+02  0.00000000000E+00 0. -1.
         23    2    1    2    0    0  0.00000000000E+00  0.00000000000E+00  0.00000000000E+00  0.60000000000E+02  0.60000000000E+02 0.  0.
          5    1    3    3  501    0  0.23161671838E+02  0.34471316952E+00 -0.18475067807E+02  0.30000000000E+02  0.47000000000E+01 0. -1.
         -5    1    3    3    0  501 -0.23161671838E+02 -0.34471316952E+00  0.18475067807E+02  0.30000000000E+02  0.47000000000E+01 0.  1.
</event>
<event>
 5    1  0.7702600E-002  0.6000000E+02  0.7546771E-02  0.1259629E+00
         11   -1    0    0    0    0  0.00000000000E+00  0.00000000000E+00  0.30000000000E+02  0.30000000000E+02  0.00000000000E+00 0.  1.
        -11   -1    0    0    0    0 -0.00000000000E+00 -0.00000000000E+00 -0.30000000000E+02  0.30000000000E+02  0.00000000000E+00 0. -1.
         23    2    1    2    0    0  0.00000000000E+00  0.00000000000E+00  0.00000000000E+00  0.60000000000E+02  0.60000000000E+02 0.  0.
          5    1    3    3  501    0  0.26953144732E+02 -0.97475564261E+01  0.75115333189E+01  0.30000000000E+02  0.47000000000E+01 0.  1.
         -5    1    3    3    0  501 -0.26953144732E+02  0.97475564261E+01 -0.75115333189E+01  0.30000000000E+02  0.47000000000E+01 0. -1.
</event>
<event>
 5    1  0.7702600E-002  0.6000000E+02  0.7546771E-02  0.1259629E+00
         11   -1    0    0    0    0  0.00000000000E+00  0.00000000000E+00  0.30000000000E+02  0.30000000000E+02  0.00000000000E+00 0.  1.
        -11   -1    0    0    0    0 -0.00000000000E+00 -0.00000000000E+00 -0.30000000000E+02  0.30000000000E+02  0.00000000000E+00 0. -1.
         23    2    1    2    0    0  0.00000000000E+00  0.00000000000E+00  0.00000000000E+00  0.60000000000E+02  0.60000000000E+02 0.  0.
          5    1    3    3  501    0  0.71655976907E+01 -0.23217285012E+02 -0.16956470341E+02  0.30000000000E+02  0.47000000000E+01 0. -1.
         -5    1    3    3    0  501 -0.71655976907E+01  0.23217285012E+02  0.16956470341E+02  0.30000000000E+02  0.47000000000E+01 0.  1.
</event>
<event>
 5    1  0.7702600E-002  0.6000000E+02  0.7546771E-02  0.1259629E+00
         11   -1    0    0    0    0  0.00000000000E+00  0.00000000000E+00  0.30000000000E+02  0.30000000000E+02  0.00000000000E+00 0.  1.
        -11   -1    0    0    0    0 -0.00000000000E+00 -0.00000000000E+00 -0.30000000000E+02  0.30000000000E+02  0.00000000000E+00 0. -1.
         23    2    1    2    0    0  0.00000000000E+00  0.00000000000E+00  0.00000000000E+00  0.60000000000E+02  0.60000000000E+02 0.  0.
          5    1    3    3  501    0 -0.22442460466E+01 -0.28626239520E+02  0.73083356963E+01  0.30000000000E+02  0.47000000000E+01 0.  1.
         -5    1    3    3    0  501  0.22442460466E+01  0.28626239520E+02 -0.73083356963E+01  0.30000000000E+02  0.47000000000E+01 0. -1.
</event>
<event>
 5    1  0.7702600E-002  0.6000000E+02  0.7546771E-02  0.1259629E+00
         11   -1    0    0    0    0  0.00000000000E+00  0.00000000000E+00  0.30000000000E+02  0.30000000000E+02  0.00000000000E+00 0.  1.
        -11   -1    0    0    0    0 -0.00000000000E+00 -0.00000000000E+00 -0.30000000000E+02  0.30000000000E+02  0.00000000000E+00 0. -1.
         23    2    1    2    0    0  0.00000000000E+00  0.00000000000E+00  0.00000000000E+00  0.60000000000E+02  0.60000000000E+02 0.  0.
          5    1    3    3  501    0  0.27217088314E+02 -0.63016636068E+01  0.98706200159E+01  0.30000000000E+02  0.47000000000E+01 0.  1.
         -5    1    3    3    0  501 -0.27217088314E+02  0.63016636068E+01 -0.98706200159E+01  0.30000000000E+02  0.47000000000E+01 0. -1.
</event>
<event>
 5    1  0.7702600E-002  0.6000000E+02  0.7546771E-02  0.1259629E+00
         11   -1    0    0    0    0  0.00000000000E+00  0.00000000000E+00  0.30000000000E+02  0.30000000000E+02  0.00000000000E+00 0. -1.
        -11   -1    0    0    0    0 -0.00000000000E+00 -0.00000000000E+00 -0.30000000000E+02  0.30000000000E+02  0.00000000000E+00 0.  1.
         23    2    1    2    0    0  0.00000000000E+00  0.00000000000E+00  0.00000000000E+00  0.60000000000E+02  0.60000000000E+02 0.  0.
          5    1    3    3  501    0 -0.24655391591E+02 -0.16228641709E+02 -0.25793126501E+01  0.30000000000E+02  0.47000000000E+01 0.  1.
         -5    1    3    3    0  501  0.24655391591E+02  0.16228641709E+02  0.25793126501E+01  0.30000000000E+02  0.47000000000E+01 0. -1.
</event>
<event>
 5    1  0.7702600E-002  0.6000000E+02  0.7546771E-02  0.1259629E+00
         11   -1    0    0    0    0  0.00000000000E+00  0.00000000000E+00  0.30000000000E+02  0.30000000000E+02  0.00000000000E+00 0.  1.
        -11   -1    0    0    0    0 -0.00000000000E+00 -0.00000000000E+00 -0.30000000000E+02  0.30000000000E+02  0.00000000000E+00 0. -1.
         23    2    1    2    0    0  0.00000000000E+00  0.00000000000E+00  0.00000000000E+00  0.60000000000E+02  0.60000000000E+02 0.  0.
          5    1    3    3  501    0 -0.10784103570E+02  0.16052495315E+02 -0.22448396476E+02  0.30000000000E+02  0.47000000000E+01 0. -1.
         -5    1    3    3    0  501  0.10784103570E+02 -0.16052495315E+02  0.22448396476E+02  0.30000000000E+02  0.47000000000E+01 0.  1.
</event>
<event>
 5    1  0.7702600E-002  0.6000000E+02  0.7546771E-02  0.1259629E+00
         11   -1    0    0    0    0  0.00000000000E+00  0.00000000000E+00  0.30000000000E+02  0.30000000000E+02  0.00000000000E+00 0.  1.
        -11   -1    0    0    0    0 -0.00000000000E+00 -0.00000000000E+00 -0.30000000000E+02  0.30000000000E+02  0.00000000000E+00 0. -1.
         23    2    1    2    0    0  0.00000000000E+00  0.00000000000E+00  0.00000000000E+00  0.60000000000E+02  0.60000000000E+02 0.  0.
          5    1    3    3  501    0 -0.22250452531E+02 -0.17223760855E+02 -0.92827487406E+01  0.30000000000E+02  0.47000000000E+01 0. -1.
         -5    1    3    3    0  501  0.22250452531E+02  0.17223760855E+02  0.92827487406E+01  0.30000000000E+02  0.47000000000E+01 0.  1.
</event>
<event>
 5    1  0.7702600E-002  0.6000000E+02  0.7546771E-02  0.1259629E+00
         11   -1    0    0    0    0  0.00000000000E+00  0.00000000000E+00  0.30000000000E+02  0.30000000000E+02  0.00000000000E+00 0.  1.
        -11   -1    0    0    0    0 -0.00000000000E+00 -0.00000000000E+00 -0.30000000000E+02  0.30000000000E+02  0.00000000000E+00 0. -1.
         23    2    1    2    0    0  0.00000000000E+00  0.00000000000E+00  0.00000000000E+00  0.60000000000E+02  0.60000000000E+02 0.  0.
          5    1    3    3  501    0  0.76939254655E+01 -0.32080439172E+01  0.28432762180E+02  0.30000000000E+02  0.47000000000E+01 0.  1.
         -5    1    3    3    0  501 -0.76939254655E+01  0.32080439172E+01 -0.28432762180E+02  0.30000000000E+02  0.47000000000E+01 0. -1.
</event>
<event>
 5    1  0.7702600E-002  0.6000000E+02  0.7546771E-02  0.1259629E+00
         11   -1    0    0    0    0  0.00000000000E+00  0.00000000000E+00  0.30000000000E+02  0.30000000000E+02  0.00000000000E+00 0.  1.
        -11   -1    0    0    0    0 -0.00000000000E+00 -0.00000000000E+00 -0.30000000000E+02  0.30000000000E+02  0.00000000000E+00 0. -1.
         23    2    1    2    0    0  0.00000000000E+00  0.00000000000E+00  0.00000000000E+00  0.60000000000E+02  0.60000000000E+02 0.  0.
          5    1    3    3  501    0  0.13548616560E+02  0.23848015829E+02  0.11207904814E+02  0.30000000000E+02  0.47000000000E+01 0.  1.
         -5    1    3    3    0  501 -0.13548616560E+02 -0.23848015829E+02 -0.11207904814E+02  0.30000000000E+02  0.47000000000E+01 0. -1.
</event>
<event>
 5    1  0.7702600E-002  0.6000000E+02  0.7546771E-02  0.1259629E+00
         11   -1    0    0    0    0  0.00000000000E+00  0.00000000000E+00  0.30000000000E+02  0.30000000000E+02  0.00000000000E+00 0.  1.
        -11   -1    0    0    0    0 -0.00000000000E+00 -0.00000000000E+00 -0.30000000000E+02  0.30000000000E+02  0.00000000000E+00 0. -1.
         23    2    1    2    0    0  0.00000000000E+00  0.00000000000E+00  0.00000000000E+00  0.60000000000E+02  0.60000000000E+02 0.  0.
          5    1    3    3  501    0  0.19985857540E+02 -0.17443993513E+01 -0.21804416280E+02  0.30000000000E+02  0.47000000000E+01 0. -1.
         -5    1    3    3    0  501 -0.19985857540E+02  0.17443993513E+01  0.21804416280E+02  0.30000000000E+02  0.47000000000E+01 0.  1.
</event>
<event>
 5    1  0.7702600E-002  0.6000000E+02  0.7546771E-02  0.1259629E+00
         11   -1    0    0    0    0  0.00000000000E+00  0.00000000000E+00  0.30000000000E+02  0.30000000000E+02  0.00000000000E+00 0.  1.
        -11   -1    0    0    0    0 -0.00000000000E+00 -0.00000000000E+00 -0.30000000000E+02  0.30000000000E+02  0.00000000000E+00 0. -1.
         23    2    1    2    0    0  0.00000000000E+00  0.00000000000E+00  0.00000000000E+00  0.60000000000E+02  0.60000000000E+02 0.  0.
          5    1    3    3  501    0  0.86918274526E+01 -0.28016597260E+02  0.41752141885E+01  0.30000000000E+02  0.47000000000E+01 0. -1.
         -5    1    3    3    0  501 -0.86918274526E+01  0.28016597260E+02 -0.41752141885E+01  0.30000000000E+02  0.47000000000E+01 0.  1.
</event>
<event>
 5    1  0.7702600E-002  0.6000000E+02  0.7546771E-02  0.1259629E+00
         11   -1    0    0    0    0  0.00000000000E+00  0.00000000000E+00  0.30000000000E+02  0.30000000000E+02  0.00000000000E+00 0.  1.
        -11   -1    0    0    0    0 -0.00000000000E+00 -0.00000000000E+00 -0.30000000000E+02  0.30000000000E+02  0.00000000000E+00 0. -1.
         23    2    1    2    0    0  0.00000000000E+00  0.00000000000E+00  0.00000000000E+00  0.60000000000E+02  0.60000000000E+02 0.  0.
          5    1    3    3  501    0 -0.24117936702E+02 -0.11198755744E+02 -0.13069927277E+02  0.30000000000E+02  0.47000000000E+01 0. -1.
         -5    1    3    3    0  501  0.24117936702E+02  0.11198755744E+02  0.13069927277E+02  0.30000000000E+02  0.47000000000E+01 0.  1.
</event>
<event>
 5    1  0.7702600E-002  0.6000000E+02  0.7546771E-02  0.1259629E+00
         11   -1    0    0    0    0  0.00000000000E+00  0.00000000000E+00  0.30000000000E+02  0.30000000000E+02  0.00000000000E+00 0.  1.
        -11   -1    0    0    0    0 -0.00000000000E+00 -0.00000000000E+00 -0.30000000000E+02  0.30000000000E+02  0.00000000000E+00 0. -1.
         23    2    1    2    0    0  0.00000000000E+00  0.00000000000E+00  0.00000000000E+00  0.60000000000E+02  0.60000000000E+02 0.  0.
          5    1    3    3  501    0  0.72910284991E+01 -0.26096556990E+02 -0.11988353376E+02  0.30000000000E+02  0.47000000000E+01 0. -1.
         -5    1    3    3    0  501 -0.72910284991E+01  0.26096556990E+02  0.11988353376E+02  0.30000000000E+02  0.47000000000E+01 0.  1.
</event>
<event>
 5    1  0.7702600E-002  0.6000000E+02  0.7546771E-02  0.1259629E+00
         11   -1    0    0    0    0  0.00000000000E+00  0.00000000000E+00  0.30000000000E+02  0.30000000000E+02  0.00000000000E+00 0. -1.
        -11   -1    0    0    0    0 -0.00000000000E+00 -0.00000000000E+00 -0.30000000000E+02  0.30000000000E+02  0.00000000000E+00 0.  1.
         23    2    1    2    0    0  0.00000000000E+00  0.00000000000E+00  0.00000000000E+00  0.60000000000E+02  0.60000000000E+02 0.  0.
          5    1    3    3  501    0 -0.72294269273E+01 -0.32404138625E+01 -0.28550746125E+02  0.30000000000E+02  0.47000000000E+01 0.  1.
         -5    1    3    3    0  501  0.72294269273E+01  0.32404138625E+01  0.28550746125E+02  0.30000000000E+02  0.47000000000E+01 0. -1.
</event>
<event>
 5    1  0.7702600E-002  0.6000000E+02  0.7546771E-02  0.1259629E+00
         11   -1    0    0    0    0  0.00000000000E+00  0.00000000000E+00  0.30000000000E+02  0.30000000000E+02  0.00000000000E+00 0.  1.
        -11   -1    0    0    0    0 -0.00000000000E+00 -0.00000000000E+00 -0.30000000000E+02  0.30000000000E+02  0.00000000000E+00 0. -1.
         23    2    1    2    0    0  0.00000000000E+00  0.00000000000E+00  0.00000000000E+00  0.60000000000E+02  0.60000000000E+02 0.  0.
          5    1    3    3  501    0 -0.25949203109E+02  0.90834368449E+01  0.11047173083E+02  0.30000000000E+02  0.47000000000E+01 0. -1.
         -5    1    3    3    0  501  0.25949203109E+02 -0.90834368449E+01 -0.11047173083E+02  0.30000000000E+02  0.47000000000E+01 0.  1.
</event>
<event>
 5    1  0.7702600E-002  0.6000000E+02  0.7546771E-02  0.1259629E+00
         11   -1    0    0    0    0  0.00000000000E+00  0.00000000000E+00  0.30000000000E+02  0.30000000000E+02  0.00000000000E+00 0.  1.
        -11   -1    0    0    0    0 -0.00000000000E+00 -0.00000000000E+00 -0.30000000000E+02  0.30000000000E+02  0.00000000000E+00 0. -1.
         23    2    1    2    0    0  0.00000000000E+00  0.00000000000E+00  0.00000000000E+00  0.60000000000E+02  0.60000000000E+02 0.  0.
          5    1    3    3  501    0  0.25439108939E+02  0.10819501287E+02  0.10663026226E+02  0.30000000000E+02  0.47000000000E+01 0. -1.
         -5    1    3    3    0  501 -0.25439108939E+02 -0.10819501287E+02 -0.10663026226E+02  0.30000000000E+02  0.47000000000E+01 0.  1.
</event>
<event>
 5    1  0.7702600E-002  0.6000000E+02  0.7546771E-02  0.1259629E+00
         11   -1    0    0    0    0  0.00000000000E+00  0.00000000000E+00  0.30000000000E+02  0.30000000000E+02  0.00000000000E+00 0.  1.
        -11   -1    0    0    0    0 -0.00000000000E+00 -0.00000000000E+00 -0.30000000000E+02  0.30000000000E+02  0.00000000000E+00 0. -1.
         23    2    1    2    0    0  0.00000000000E+00  0.00000000000E+00  0.00000000000E+00  0.60000000000E+02  0.60000000000E+02 0.  0.
          5    1    3    3  501    0  0.30373465846E+01 -0.23188405501E+02 -0.18192921042E+02  0.30000000000E+02  0.47000000000E+01 0. -1.
         -5    1    3    3    0  501 -0.30373465846E+01  0.23188405501E+02  0.18192921042E+02  0.30000000000E+02  0.47000000000E+01 0.  1.
</event>
<event>
 5    1  0.7702600E-002  0.6000000E+02  0.7546771E-02  0.1259629E+00
         11   -1    0    0    0    0  0.00000000000E+00  0.00000000000E+00  0.30000000000E+02  0.30000000000E+02  0.00000000000E+00 0.  1.
        -11   -1    0    0    0    0 -0.00000000000E+00 -0.00000000000E+00 -0.30000000000E+02  0.30000000000E+02  0.00000000000E+00 0. -1.
         23    2    1    2    0    0  0.00000000000E+00  0.00000000000E+00  0.00000000000E+00  0.60000000000E+02  0.60000000000E+02 0.  0.
          5    1    3    3  501    0 -0.23705840287E+02  0.84720785265E+01 -0.15625844672E+02  0.30000000000E+02  0.47000000000E+01 0. -1.
         -5    1    3    3    0  501  0.23705840287E+02 -0.84720785265E+01  0.15625844672E+02  0.30000000000E+02  0.47000000000E+01 0.  1.
</event>
<event>
 5    1  0.7702600E-002  0.6000000E+02  0.7546771E-02  0.1259629E+00
         11   -1    0    0    0    0  0.00000000000E+00  0.00000000000E+00  0.30000000000E+02  0.30000000000E+02  0.00000000000E+00 0.  1.
        -11   -1    0    0    0    0 -0.00000000000E+00 -0.00000000000E+00 -0.30000000000E+02  0.30000000000E+02  0.00000000000E+00 0. -1.
         23    2    1    2    0    0  0.00000000000E+00  0.00000000000E+00  0.00000000000E+00  0.60000000000E+02  0.60000000000E+02 0.  0.
          5    1    3    3  501    0  0.98100118180E+00 -0.27103328640E+02 -0.11931354211E+02  0.30000000000E+02  0.47000000000E+01 0. -1.
         -5    1    3    3    0  501 -0.98100118180E+00  0.27103328640E+02  0.11931354211E+02  0.30000000000E+02  0.47000000000E+01 0.  1.
</event>
<event>
 5    1  0.7702600E-002  0.6000000E+02  0.7546771E-02  0.1259629E+00
         11   -1    0    0    0    0  0.00000000000E+00  0.00000000000E+00  0.30000000000E+02  0.30000000000E+02  0.00000000000E+00 0.  1.
        -11   -1    0    0    0    0 -0.00000000000E+00 -0.00000000000E+00 -0.30000000000E+02  0.30000000000E+02  0.00000000000E+00 0. -1.
         23    2    1    2    0    0  0.00000000000E+00  0.00000000000E+00  0.00000000000E+00  0.60000000000E+02  0.60000000000E+02 0.  0.
          5    1    3    3  501    0 -0.13626392907E+02  0.31065203393E+01 -0.26126250166E+02  0.30000000000E+02  0.47000000000E+01 0. -1.
         -5    1    3    3    0  501  0.13626392907E+02 -0.31065203393E+01  0.26126250166E+02  0.30000000000E+02  0.47000000000E+01 0.  1.
</event>
<event>
 5    1  0.7702600E-002  0.6000000E+02  0.7546771E-02  0.1259629E+00
         11   -1    0    0    0    0  0.00000000000E+00  0.00000000000E+00  0.30000000000E+02  0.30000000000E+02  0.00000000000E+00 0. -1.
        -11   -1    0    0    0    0 -0.00000000000E+00 -0.00000000000E+00 -0.30000000000E+02  0.30000000000E+02  0.00000000000E+00 0.  1.
         23    2    1    2    0    0  0.00000000000E+00  0.00000000000E+00  0.00000000000E+00  0.60000000000E+02  0.60000000000E+02 0.  0.
          5    1    3    3  501    0  0.20336590017E+01  0.22241541744E+02 -0.19470183664E+02  0.30000000000E+02  0.47000000000E+01 0.  1.
         -5    1    3    3    0  501 -0.20336590017E+01 -0.22241541744E+02  0.19470183664E+02  0.30000000000E+02  0.47000000000E+01 0. -1.
</event>
<event>
 5    1  0.7702600E-002  0.6000000E+02  0.7546771E-02  0.1259629E+00
         11   -1    0    0    0    0  0.00000000000E+00  0.00000000000E+00  0.30000000000E+02  0.30000000000E+02  0.00000000000E+00 0.  1.
        -11   -1    0    0    0    0 -0.00000000000E+00 -0.00000000000E+00 -0.30000000000E+02  0.30000000000E+02  0.00000000000E+00 0. -1.
         23    2    1    2    0    0  0.00000000000E+00  0.00000000000E+00  0.00000000000E+00  0.60000000000E+02  0.60000000000E+02 0.  0.
          5    1    3    3  501    0 -0.59247353546E+01 -0.28967448089E+02  0.19220983819E+01  0.30000000000E+02  0.47000000000E+01 0. -1.
         -5    1    3    3    0  501  0.59247353546E+01  0.28967448089E+02 -0.19220983819E+01  0.30000000000E+02  0.47000000000E+01 0.  1.
</event>
<event>
 5    1  0.7702600E-002  0.6000000E+02  0.7546771E-02  0.1259629E+00
         11   -1    0    0    0    0  0.00000000000E+00  0.00000000000E+00  0.30000000000E+02  0.30000000000E+02  0.00000000000E+00 0. -1.
        -11   -1    0    0    0    0 -0.00000000000E+00 -0.00000000000E+00 -0.30000000000E+02  0.30000000000E+02  0.00000000000E+00 0.  1.
         23    2    1    2    0    0  0.00000000000E+00  0.00000000000E+00  0.00000000000E+00  0.60000000000E+02  0.60000000000E+02 0.  0.
          5    1    3    3  501    0 -0.91673350975E+01  0.81677489008E+01 -0.26965864442E+02  0.30000000000E+02  0.47000000000E+01 0.  1.
         -5    1    3    3    0  501  0.91673350975E+01 -0.81677489008E+01  0.26965864442E+02  0.30000000000E+02  0.47000000000E+01 0. -1.
</event>
<event>
 5    1  0.7702600E-002  0.6000000E+02  0.7546771E-02  0.1259629E+00
         11   -1    0    0    0    0  0.00000000000E+00  0.00000000000E+00  0.30000000000E+02  0.30000000000E+02  0.00000000000E+00 0. -1.
        -11   -1    0    0    0    0 -0.00000000000E+00 -0.00000000000E+00 -0.30000000000E+02  0.30000000000E+02  0.00000000000E+00 0.  1.
         23    2    1    2    0    0  0.00000000000E+00  0.00000000000E+00  0.00000000000E+00  0.60000000000E+02  0.60000000000E+02 0.  0.
          5    1    3    3  501    0  0.26923355392E+02  0.67752932864E+01  0.10350764962E+02  0.30000000000E+02  0.47000000000E+01 0. -1.
         -5    1    3    3    0  501 -0.26923355392E+02 -0.67752932864E+01 -0.10350764962E+02  0.30000000000E+02  0.47000000000E+01 0.  1.
</event>
<event>
 5    1  0.7702600E-002  0.6000000E+02  0.7546771E-02  0.1259629E+00
         11   -1    0    0    0    0  0.00000000000E+00  0.00000000000E+00  0.30000000000E+02  0.30000000000E+02  0.00000000000E+00 0. -1.
        -11   -1    0    0    0    0 -0.00000000000E+00 -0.00000000000E+00 -0.30000000000E+02  0.30000000000E+02  0.00000000000E+00 0.  1.
         23    2    1    2    0    0  0.00000000000E+00  0.00000000000E+00  0.00000000000E+00  0.60000000000E+02  0.60000000000E+02 0.  0.
          5    1    3    3  501    0 -0.19454671891E+02  0.48555141006E+01 -0.21813980023E+02  0.30000000000E+02  0.47000000000E+01 0.  1.
         -5    1    3    3    0  501  0.19454671891E+02 -0.48555141006E+01  0.21813980023E+02  0.30000000000E+02  0.47000000000E+01 0. -1.
</event>
<event>
 5    1  0.7702600E-002  0.6000000E+02  0.7546771E-02  0.1259629E+00
         11   -1    0    0    0    0  0.00000000000E+00  0.00000000000E+00  0.30000000000E+02  0.30000000000E+02  0.00000000000E+00 0.  1.
        -11   -1    0    0    0    0 -0.00000000000E+00 -0.00000000000E+00 -0.30000000000E+02  0.30000000000E+02  0.00000000000E+00 0. -1.
         23    2    1    2    0    0  0.00000000000E+00  0.00000000000E+00  0.00000000000E+00  0.60000000000E+02  0.60000000000E+02 0.  0.
          5    1    3    3  501    0  0.20080782314E+02  0.14922253873E+02 -0.15874461282E+02  0.30000000000E+02  0.47000000000E+01 0. -1.
         -5    1    3    3    0  501 -0.20080782314E+02 -0.14922253873E+02  0.15874461282E+02  0.30000000000E+02  0.47000000000E+01 0.  1.
</event>
<event>
 5    1  0.7702600E-002  0.6000000E+02  0.7546771E-02  0.1259629E+00
         11   -1    0    0    0    0  0.00000000000E+00  0.00000000000E+00  0.30000000000E+02  0.30000000000E+02  0.00000000000E+00 0. -1.
        -11   -1    0    0    0    0 -0.00000000000E+00 -0.00000000000E+00 -0.30000000000E+02  0.30000000000E+02  0.00000000000E+00 0.  1.
         23    2    1    2    0    0  0.00000000000E+00  0.00000000000E+00  0.00000000000E+00  0.60000000000E+02  0.60000000000E+02 0.  0.
          5    1    3    3  501    0 -0.21222159707E+02  0.20455958470E+02  0.30139177899E+01  0.30000000000E+02  0.47000000000E+01 0.  1.
         -5    1    3    3    0  501  0.21222159707E+02 -0.20455958470E+02 -0.30139177899E+01  0.30000000000E+02  0.47000000000E+01 0. -1.
</event>
<event>
 5    1  0.7702600E-002  0.6000000E+02  0.7546771E-02  0.1259629E+00
         11   -1    0    0    0    0  0.00000000000E+00  0.00000000000E+00  0.30000000000E+02  0.30000000000E+02  0.00000000000E+00 0. -1.
        -11   -1    0    0    0    0 -0.00000000000E+00 -0.00000000000E+00 -0.30000000000E+02  0.30000000000E+02  0.00000000000E+00 0.  1.
         23    2    1    2    0    0  0.00000000000E+00  0.00000000000E+00  0.00000000000E+00  0.60000000000E+02  0.60000000000E+02 0.  0.
          5    1    3    3  501    0 -0.21361503992E+02  0.20339738287E+02 -0.28091268361E+01  0.30000000000E+02  0.47000000000E+01 0.  1.
         -5    1    3    3    0  501  0.21361503992E+02 -0.20339738287E+02  0.28091268361E+01  0.30000000000E+02  0.47000000000E+01 0. -1.
</event>
<event>
 5    1  0.7702600E-002  0.6000000E+02  0.7546771E-02  0.1259629E+00
         11   -1    0    0    0    0  0.00000000000E+00  0.00000000000E+00  0.30000000000E+02  0.30000000000E+02  0.00000000000E+00 0.  1.
        -11   -1    0    0    0    0 -0.00000000000E+00 -0.00000000000E+00 -0.30000000000E+02  0.30000000000E+02  0.00000000000E+00 0. -1.
         23    2    1    2    0    0  0.00000000000E+00  0.00000000000E+00  0.00000000000E+00  0.60000000000E+02  0.60000000000E+02 0.  0.
          5    1    3    3  501    0 -0.16595595057E+02  0.15985415735E+02 -0.18626935026E+02  0.30000000000E+02  0.47000000000E+01 0. -1.
         -5    1    3    3    0  501  0.16595595057E+02 -0.15985415735E+02  0.18626935026E+02  0.30000000000E+02  0.47000000000E+01 0.  1.
</event>
<event>
 5    1  0.7702600E-002  0.6000000E+02  0.7546771E-02  0.1259629E+00
         11   -1    0    0    0    0  0.00000000000E+00  0.00000000000E+00  0.30000000000E+02  0.30000000000E+02  0.00000000000E+00 0. -1.
        -11   -1    0    0    0    0 -0.00000000000E+00 -0.00000000000E+00 -0.30000000000E+02  0.30000000000E+02  0.00000000000E+00 0.  1.
         23    2    1    2    0    0  0.00000000000E+00  0.00000000000E+00  0.00000000000E+00  0.60000000000E+02  0.60000000000E+02 0.  0.
          5    1    3    3  501    0  0.52088484648E+01 -0.22722235769E+02 -0.18288736953E+02  0.30000000000E+02  0.47000000000E+01 0.  1.
         -5    1    3    3    0  501 -0.52088484648E+01  0.22722235769E+02  0.18288736953E+02  0.30000000000E+02  0.47000000000E+01 0. -1.
</event>
<event>
 5    1  0.7702600E-002  0.6000000E+02  0.7546771E-02  0.1259629E+00
         11   -1    0    0    0    0  0.00000000000E+00  0.00000000000E+00  0.30000000000E+02  0.30000000000E+02  0.00000000000E+00 0.  1.
        -11   -1    0    0    0    0 -0.00000000000E+00 -0.00000000000E+00 -0.30000000000E+02  0.30000000000E+02  0.00000000000E+00 0. -1.
         23    2    1    2    0    0  0.00000000000E+00  0.00000000000E+00  0.00000000000E+00  0.60000000000E+02  0.60000000000E+02 0.  0.
          5    1    3    3  501    0  0.98351230845E+01  0.19369839085E+02 -0.20149185783E+02  0.30000000000E+02  0.47000000000E+01 0. -1.
         -5    1    3    3    0  501 -0.98351230845E+01 -0.19369839085E+02  0.20149185783E+02  0.30000000000E+02  0.47000000000E+01 0.  1.
</event>
<event>
 5    1  0.7702600E-002  0.6000000E+02  0.7546771E-02  0.1259629E+00
         11   -1    0    0    0    0  0.00000000000E+00  0.00000000000E+00  0.30000000000E+02  0.30000000000E+02  0.00000000000E+00 0.  1.
        -11   -1    0    0    0    0 -0.00000000000E+00 -0.00000000000E+00 -0.30000000000E+02  0.30000000000E+02  0.00000000000E+00 0. -1.
         23    2    1    2    0    0  0.00000000000E+00  0.00000000000E+00  0.00000000000E+00  0.60000000000E+02  0.60000000000E+02 0.  0.
          5    1    3    3  501    0 -0.25341303976E+02  0.13780357672E+02 -0.67697898951E+01  0.30000000000E+02  0.47000000000E+01 0. -1.
         -5    1    3    3    0  501  0.25341303976E+02 -0.13780357672E+02  0.67697898951E+01  0.30000000000E+02  0.47000000000E+01 0.  1.
</event>
<event>
 5    1  0.7702600E-002  0.6000000E+02  0.7546771E-02  0.1259629E+00
         11   -1    0    0    0    0  0.00000000000E+00  0.00000000000E+00  0.30000000000E+02  0.30000000000E+02  0.00000000000E+00 0.  1.
        -11   -1    0    0    0    0 -0.00000000000E+00 -0.00000000000E+00 -0.30000000000E+02  0.30000000000E+02  0.00000000000E+00 0. -1.
         23    2    1    2    0    0  0.00000000000E+00  0.00000000000E+00  0.00000000000E+00  0.60000000000E+02  0.60000000000E+02 0.  0.
          5    1    3    3  501    0 -0.25918983637E+02 -0.18894218446E+01 -0.14231878735E+02  0.30000000000E+02  0.47000000000E+01 0. -1.
         -5    1    3    3    0  501  0.25918983637E+02  0.18894218446E+01  0.14231878735E+02  0.30000000000E+02  0.47000000000E+01 0.  1.
</event>
<event>
 5    1  0.7702600E-002  0.6000000E+02  0.7546771E-02  0.1259629E+00
         11   -1    0    0    0    0  0.00000000000E+00  0.00000000000E+00  0.30000000000E+02  0.30000000000E+02  0.00000000000E+00 0.  1.
        -11   -1    0    0    0    0 -0.00000000000E+00 -0.00000000000E+00 -0.30000000000E+02  0.30000000000E+02  0.00000000000E+00 0. -1.
         23    2    1    2    0    0  0.00000000000E+00  0.00000000000E+00  0.00000000000E+00  0.60000000000E+02  0.60000000000E+02 0.  0.
          5    1    3    3  501    0 -0.37638649778E+01 -0.76254419654E+01 -0.28383022307E+02  0.30000000000E+02  0.47000000000E+01 0. -1.
         -5    1    3    3    0  501  0.37638649778E+01  0.76254419654E+01  0.28383022307E+02  0.30000000000E+02  0.47000000000E+01 0.  1.
</event>
<event>
 5    1  0.7702600E-002  0.6000000E+02  0.7546771E-02  0.1259629E+00
         11   -1    0    0    0    0  0.00000000000E+00  0.00000000000E+00  0.30000000000E+02  0.30000000000E+02  0.00000000000E+00 0.  1.
        -11   -1    0    0    0    0 -0.00000000000E+00 -0.00000000000E+00 -0.30000000000E+02  0.30000000000E+02  0.00000000000E+00 0. -1.
         23    2    1    2    0    0  0.00000000000E+00  0.00000000000E+00  0.00000000000E+00  0.60000000000E+02  0.60000000000E+02 0.  0.
          5    1    3    3  501    0 -0.10178736047E+02  0.23188366610E+02 -0.15381904513E+02  0.30000000000E+02  0.47000000000E+01 0. -1.
         -5    1    3    3    0  501  0.10178736047E+02 -0.23188366610E+02  0.15381904513E+02  0.30000000000E+02  0.47000000000E+01 0.  1.
</event>
<event>
 5    1  0.7702600E-002  0.6000000E+02  0.7546771E-02  0.1259629E+00
         11   -1    0    0    0    0  0.00000000000E+00  0.00000000000E+00  0.30000000000E+02  0.30000000000E+02  0.00000000000E+00 0.  1.
        -11   -1    0    0    0    0 -0.00000000000E+00 -0.00000000000E+00 -0.30000000000E+02  0.30000000000E+02  0.00000000000E+00 0. -1.
         23    2    1    2    0    0  0.00000000000E+00  0.00000000000E+00  0.00000000000E+00  0.60000000000E+02  0.60000000000E+02 0.  0.
          5    1    3    3  501    0 -0.23503083412E+02  0.17579244531E+02  0.40602009591E+01  0.30000000000E+02  0.47000000000E+01 0. -1.
         -5    1    3    3    0  501  0.23503083412E+02 -0.17579244531E+02 -0.40602009591E+01  0.30000000000E+02  0.47000000000E+01 0. -1.
</event>
<event>
 5    1  0.7702600E-002  0.6000000E+02  0.7546771E-02  0.1259629E+00
         11   -1    0    0    0    0  0.00000000000E+00  0.00000000000E+00  0.30000000000E+02  0.30000000000E+02  0.00000000000E+00 0. -1.
        -11   -1    0    0    0    0 -0.00000000000E+00 -0.00000000000E+00 -0.30000000000E+02  0.30000000000E+02  0.00000000000E+00 0.  1.
         23    2    1    2    0    0  0.00000000000E+00  0.00000000000E+00  0.00000000000E+00  0.60000000000E+02  0.60000000000E+02 0.  0.
          5    1    3    3  501    0 -0.83229120417E+01  0.18252206799E+02  0.21805872652E+02  0.30000000000E+02  0.47000000000E+01 0. -1.
         -5    1    3    3    0  501  0.83229120417E+01 -0.18252206799E+02 -0.21805872652E+02  0.30000000000E+02  0.47000000000E+01 0.  1.
</event>
<event>
 5    1  0.7702600E-002  0.6000000E+02  0.7546771E-02  0.1259629E+00
         11   -1    0    0    0    0  0.00000000000E+00  0.00000000000E+00  0.30000000000E+02  0.30000000000E+02  0.00000000000E+00 0.  1.
        -11   -1    0    0    0    0 -0.00000000000E+00 -0.00000000000E+00 -0.30000000000E+02  0.30000000000E+02  0.00000000000E+00 0. -1.
         23    2    1    2    0    0  0.00000000000E+00  0.00000000000E+00  0.00000000000E+00  0.60000000000E+02  0.60000000000E+02 0.  0.
          5    1    3    3  501    0 -0.78423250805E+01  0.12591743828E+02 -0.25648702203E+02  0.30000000000E+02  0.47000000000E+01 0. -1.
         -5    1    3    3    0  501  0.78423250805E+01 -0.12591743828E+02  0.25648702203E+02  0.30000000000E+02  0.47000000000E+01 0.  1.
</event>
<event>
 5    1  0.7702600E-002  0.6000000E+02  0.7546771E-02  0.1259629E+00
         11   -1    0    0    0    0  0.00000000000E+00  0.00000000000E+00  0.30000000000E+02  0.30000000000E+02  0.00000000000E+00 0.  1.
        -11   -1    0    0    0    0 -0.00000000000E+00 -0.00000000000E+00 -0.30000000000E+02  0.30000000000E+02  0.00000000000E+00 0. -1.
         23    2    1    2    0    0  0.00000000000E+00  0.00000000000E+00  0.00000000000E+00  0.60000000000E+02  0.60000000000E+02 0.  0.
          5    1    3    3  501    0 -0.17521735305E+02 -0.23400295713E+02 -0.48295913356E+01  0.30000000000E+02  0.47000000000E+01 0. -1.
         -5    1    3    3    0  501  0.17521735305E+02  0.23400295713E+02  0.48295913356E+01  0.30000000000E+02  0.47000000000E+01 0.  1.
</event>
<event>
 5    1  0.7702600E-002  0.6000000E+02  0.7546771E-02  0.1259629E+00
         11   -1    0    0    0    0  0.00000000000E+00  0.00000000000E+00  0.30000000000E+02  0.30000000000E+02  0.00000000000E+00 0. -1.
        -11   -1    0    0    0    0 -0.00000000000E+00 -0.00000000000E+00 -0.30000000000E+02  0.30000000000E+02  0.00000000000E+00 0.  1.
         23    2    1    2    0    0  0.00000000000E+00  0.00000000000E+00  0.00000000000E+00  0.60000000000E+02  0.60000000000E+02 0.  0.
          5    1    3    3  501    0 -0.68938927845E+01  0.18383576061E+02 -0.22190727196E+02  0.30000000000E+02  0.47000000000E+01 0.  1.
         -5    1    3    3    0  501  0.68938927845E+01 -0.18383576061E+02  0.22190727196E+02  0.30000000000E+02  0.47000000000E+01 0. -1.
</event>
<event>
 5    1  0.7702600E-002  0.6000000E+02  0.7546771E-02  0.1259629E+00
         11   -1    0    0    0    0  0.00000000000E+00  0.00000000000E+00  0.30000000000E+02  0.30000000000E+02  0.00000000000E+00 0.  1.
        -11   -1    0    0    0    0 -0.00000000000E+00 -0.00000000000E+00 -0.30000000000E+02  0.30000000000E+02  0.00000000000E+00 0. -1.
         23    2    1    2    0    0  0.00000000000E+00  0.00000000000E+00  0.00000000000E+00  0.60000000000E+02  0.60000000000E+02 0.  0.
          5    1    3    3  501    0 -0.21935415629E+02 -0.65234023489E+01 -0.18820009644E+02  0.30000000000E+02  0.47000000000E+01 0. -1.
         -5    1    3    3    0  501  0.21935415629E+02  0.65234023489E+01  0.18820009644E+02  0.30000000000E+02  0.47000000000E+01 0.  1.
</event>
<event>
 5    1  0.7702600E-002  0.6000000E+02  0.7546771E-02  0.1259629E+00
         11   -1    0    0    0    0  0.00000000000E+00  0.00000000000E+00  0.30000000000E+02  0.30000000000E+02  0.00000000000E+00 0.  1.
        -11   -1    0    0    0    0 -0.00000000000E+00 -0.00000000000E+00 -0.30000000000E+02  0.30000000000E+02  0.00000000000E+00 0. -1.
         23    2    1    2    0    0  0.00000000000E+00  0.00000000000E+00  0.00000000000E+00  0.60000000000E+02  0.60000000000E+02 0.  0.
          5    1    3    3  501    0  0.42925033315E+01 -0.20335790041E+02 -0.21117292880E+02  0.30000000000E+02  0.47000000000E+01 0. -1.
         -5    1    3    3    0  501 -0.42925033315E+01  0.20335790041E+02  0.21117292880E+02  0.30000000000E+02  0.47000000000E+01 0.  1.
</event>
<event>
 5    1  0.7702600E-002  0.6000000E+02  0.7546771E-02  0.1259629E+00
         11   -1    0    0    0    0  0.00000000000E+00  0.00000000000E+00  0.30000000000E+02  0.30000000000E+02  0.00000000000E+00 0.  1.
        -11   -1    0    0    0    0 -0.00000000000E+00 -0.00000000000E+00 -0.30000000000E+02  0.30000000000E+02  0.00000000000E+00 0. -1.
         23    2    1    2    0    0  0.00000000000E+00  0.00000000000E+00  0.00000000000E+00  0.60000000000E+02  0.60000000000E+02 0.  0.
          5    1    3    3  501    0  0.17679632724E+02  0.21986427372E+02 -0.90519389155E+01  0.30000000000E+02  0.47000000000E+01 0. -1.
         -5    1    3    3    0  501 -0.17679632724E+02 -0.21986427372E+02  0.90519389155E+01  0.30000000000E+02  0.47000000000E+01 0.  1.
</event>
<event>
 5    1  0.7702600E-002  0.6000000E+02  0.7546771E-02  0.1259629E+00
         11   -1    0    0    0    0  0.00000000000E+00  0.00000000000E+00  0.30000000000E+02  0.30000000000E+02  0.00000000000E+00 0.  1.
        -11   -1    0    0    0    0 -0.00000000000E+00 -0.00000000000E+00 -0.30000000000E+02  0.30000000000E+02  0.00000000000E+00 0. -1.
         23    2    1    2    0    0  0.00000000000E+00  0.00000000000E+00  0.00000000000E+00  0.60000000000E+02  0.60000000000E+02 0.  0.
          5    1    3    3  501    0 -0.16248322445E+02  0.14015054932E+02 -0.20432333517E+02  0.30000000000E+02  0.47000000000E+01 0. -1.
         -5    1    3    3    0  501  0.16248322445E+02 -0.14015054932E+02  0.20432333517E+02  0.30000000000E+02  0.47000000000E+01 0.  1.
</event>
<event>
 5    1  0.7702600E-002  0.6000000E+02  0.7546771E-02  0.1259629E+00
         11   -1    0    0    0    0  0.00000000000E+00  0.00000000000E+00  0.30000000000E+02  0.30000000000E+02  0.00000000000E+00 0.  1.
        -11   -1    0    0    0    0 -0.00000000000E+00 -0.00000000000E+00 -0.30000000000E+02  0.30000000000E+02  0.00000000000E+00 0. -1.
         23    2    1    2    0    0  0.00000000000E+00  0.00000000000E+00  0.00000000000E+00  0.60000000000E+02  0.60000000000E+02 0.  0.
          5    1    3    3  501    0  0.15348051429E+01  0.19664246569E+02 -0.22110445044E+02  0.30000000000E+02  0.47000000000E+01 0. -1.
         -5    1    3    3    0  501 -0.15348051429E+01 -0.19664246569E+02  0.22110445044E+02  0.30000000000E+02  0.47000000000E+01 0.  1.
</event>
<event>
 5    1  0.7702600E-002  0.6000000E+02  0.7546771E-02  0.1259629E+00
         11   -1    0    0    0    0  0.00000000000E+00  0.00000000000E+00  0.30000000000E+02  0.30000000000E+02  0.00000000000E+00 0.  1.
        -11   -1    0    0    0    0 -0.00000000000E+00 -0.00000000000E+00 -0.30000000000E+02  0.30000000000E+02  0.00000000000E+00 0. -1.
         23    2    1    2    0    0  0.00000000000E+00  0.00000000000E+00  0.00000000000E+00  0.60000000000E+02  0.60000000000E+02 0.  0.
          5    1    3    3  501    0  0.27162879616E+02  0.83845691601E+01 -0.83538596435E+01  0.30000000000E+02  0.47000000000E+01 0. -1.
         -5    1    3    3    0  501 -0.27162879616E+02 -0.83845691601E+01  0.83538596435E+01  0.30000000000E+02  0.47000000000E+01 0.  1.
</event>
<event>
 5    1  0.7702600E-002  0.6000000E+02  0.7546771E-02  0.1259629E+00
         11   -1    0    0    0    0  0.00000000000E+00  0.00000000000E+00  0.30000000000E+02  0.30000000000E+02  0.00000000000E+00 0.  1.
        -11   -1    0    0    0    0 -0.00000000000E+00 -0.00000000000E+00 -0.30000000000E+02  0.30000000000E+02  0.00000000000E+00 0. -1.
         23    2    1    2    0    0  0.00000000000E+00  0.00000000000E+00  0.00000000000E+00  0.60000000000E+02  0.60000000000E+02 0.  0.
          5    1    3    3  501    0 -0.23573059106E+01  0.13471962129E+02 -0.26284203340E+02  0.30000000000E+02  0.47000000000E+01 0. -1.
         -5    1    3    3    0  501  0.23573059106E+01 -0.13471962129E+02  0.26284203340E+02  0.30000000000E+02  0.47000000000E+01 0.  1.
</event>
<event>
 5    1  0.7702600E-002  0.6000000E+02  0.7546771E-02  0.1259629E+00
         11   -1    0    0    0    0  0.00000000000E+00  0.00000000000E+00  0.30000000000E+02  0.30000000000E+02  0.00000000000E+00 0.  1.
        -11   -1    0    0    0    0 -0.00000000000E+00 -0.00000000000E+00 -0.30000000000E+02  0.30000000000E+02  0.00000000000E+00 0. -1.
         23    2    1    2    0    0  0.00000000000E+00  0.00000000000E+00  0.00000000000E+00  0.60000000000E+02  0.60000000000E+02 0.  0.
          5    1    3    3  501    0 -0.27966368144E+02  0.62773661811E+01  0.75091228968E+01  0.30000000000E+02  0.47000000000E+01 0.  1.
         -5    1    3    3    0  501  0.27966368144E+02 -0.62773661811E+01 -0.75091228968E+01  0.30000000000E+02  0.47000000000E+01 0. -1.
</event>
<event>
 5    1  0.7702600E-002  0.6000000E+02  0.7546771E-02  0.1259629E+00
         11   -1    0    0    0    0  0.00000000000E+00  0.00000000000E+00  0.30000000000E+02  0.30000000000E+02  0.00000000000E+00 0.  1.
        -11   -1    0    0    0    0 -0.00000000000E+00 -0.00000000000E+00 -0.30000000000E+02  0.30000000000E+02  0.00000000000E+00 0. -1.
         23    2    1    2    0    0  0.00000000000E+00  0.00000000000E+00  0.00000000000E+00  0.60000000000E+02  0.60000000000E+02 0.  0.
          5    1    3    3  501    0 -0.11980577192E+02 -0.23844972771E+02 -0.12876064760E+02  0.30000000000E+02  0.47000000000E+01 0. -1.
         -5    1    3    3    0  501  0.11980577192E+02  0.23844972771E+02  0.12876064760E+02  0.30000000000E+02  0.47000000000E+01 0.  1.
</event>
<event>
 5    1  0.7702600E-002  0.6000000E+02  0.7546771E-02  0.1259629E+00
         11   -1    0    0    0    0  0.00000000000E+00  0.00000000000E+00  0.30000000000E+02  0.30000000000E+02  0.00000000000E+00 0. -1.
        -11   -1    0    0    0    0 -0.00000000000E+00 -0.00000000000E+00 -0.30000000000E+02  0.30000000000E+02  0.00000000000E+00 0.  1.
         23    2    1    2    0    0  0.00000000000E+00  0.00000000000E+00  0.00000000000E+00  0.60000000000E+02  0.60000000000E+02 0.  0.
          5    1    3    3  501    0 -0.18511764968E+02 -0.23054795918E+02  0.19237835038E+01  0.30000000000E+02  0.47000000000E+01 0.  1.
         -5    1    3    3    0  501  0.18511764968E+02  0.23054795918E+02 -0.19237835038E+01  0.30000000000E+02  0.47000000000E+01 0. -1.
</event>
<event>
 5    1  0.7702600E-002  0.6000000E+02  0.7546771E-02  0.1259629E+00
         11   -1    0    0    0    0  0.00000000000E+00  0.00000000000E+00  0.30000000000E+02  0.30000000000E+02  0.00000000000E+00 0.  1.
        -11   -1    0    0    0    0 -0.00000000000E+00 -0.00000000000E+00 -0.30000000000E+02  0.30000000000E+02  0.00000000000E+00 0. -1.
         23    2    1    2    0    0  0.00000000000E+00  0.00000000000E+00  0.00000000000E+00  0.60000000000E+02  0.60000000000E+02 0.  0.
          5    1    3    3  501    0  0.27731826183E+02  0.77769610518E+01 -0.69551918289E+01  0.30000000000E+02  0.47000000000E+01 0. -1.
         -5    1    3    3    0  501 -0.27731826183E+02 -0.77769610518E+01  0.69551918289E+01  0.30000000000E+02  0.47000000000E+01 0.  1.
</event>
<event>
 5    1  0.7702600E-002  0.6000000E+02  0.7546771E-02  0.1259629E+00
         11   -1    0    0    0    0  0.00000000000E+00  0.00000000000E+00  0.30000000000E+02  0.30000000000E+02  0.00000000000E+00 0.  1.
        -11   -1    0    0    0    0 -0.00000000000E+00 -0.00000000000E+00 -0.30000000000E+02  0.30000000000E+02  0.00000000000E+00 0. -1.
         23    2    1    2    0    0  0.00000000000E+00  0.00000000000E+00  0.00000000000E+00  0.60000000000E+02  0.60000000000E+02 0.  0.
          5    1    3    3  501    0  0.77015655902E+01  0.97088767288E+01 -0.26913446456E+02  0.30000000000E+02  0.47000000000E+01 0. -1.
         -5    1    3    3    0  501 -0.77015655902E+01 -0.97088767288E+01  0.26913446456E+02  0.30000000000E+02  0.47000000000E+01 0.  1.
</event>
<event>
 5    1  0.7702600E-002  0.6000000E+02  0.7546771E-02  0.1259629E+00
         11   -1    0    0    0    0  0.00000000000E+00  0.00000000000E+00  0.30000000000E+02  0.30000000000E+02  0.00000000000E+00 0.  1.
        -11   -1    0    0    0    0 -0.00000000000E+00 -0.00000000000E+00 -0.30000000000E+02  0.30000000000E+02  0.00000000000E+00 0. -1.
         23    2    1    2    0    0  0.00000000000E+00  0.00000000000E+00  0.00000000000E+00  0.60000000000E+02  0.60000000000E+02 0.  0.
          5    1    3    3  501    0  0.21803350715E+02 -0.45162853747E+01 -0.19548070596E+02  0.30000000000E+02  0.47000000000E+01 0. -1.
         -5    1    3    3    0  501 -0.21803350715E+02  0.45162853747E+01  0.19548070596E+02  0.30000000000E+02  0.47000000000E+01 0.  1.
</event>
<event>
 5    1  0.7702600E-002  0.6000000E+02  0.7546771E-02  0.1259629E+00
         11   -1    0    0    0    0  0.00000000000E+00  0.00000000000E+00  0.30000000000E+02  0.30000000000E+02  0.00000000000E+00 0. -1.
        -11   -1    0    0    0    0 -0.00000000000E+00 -0.00000000000E+00 -0.30000000000E+02  0.30000000000E+02  0.00000000000E+00 0.  1.
         23    2    1    2    0    0  0.00000000000E+00  0.00000000000E+00  0.00000000000E+00  0.60000000000E+02  0.60000000000E+02 0.  0.
          5    1    3    3  501    0  0.51872999496E+01 -0.25499745810E+01 -0.29060274411E+02  0.30000000000E+02  0.47000000000E+01 0.  1.
         -5    1    3    3    0  501 -0.51872999496E+01  0.25499745810E+01  0.29060274411E+02  0.30000000000E+02  0.47000000000E+01 0. -1.
</event>
<event>
 5    1  0.7702600E-002  0.6000000E+02  0.7546771E-02  0.1259629E+00
         11   -1    0    0    0    0  0.00000000000E+00  0.00000000000E+00  0.30000000000E+02  0.30000000000E+02  0.00000000000E+00 0.  1.
        -11   -1    0    0    0    0 -0.00000000000E+00 -0.00000000000E+00 -0.30000000000E+02  0.30000000000E+02  0.00000000000E+00 0. -1.
         23    2    1    2    0    0  0.00000000000E+00  0.00000000000E+00  0.00000000000E+00  0.60000000000E+02  0.60000000000E+02 0.  0.
          5    1    3    3  501    0 -0.94841897525E+01 -0.90474264874E+01 -0.26572621600E+02  0.30000000000E+02  0.47000000000E+01 0. -1.
         -5    1    3    3    0  501  0.94841897525E+01  0.90474264874E+01  0.26572621600E+02  0.30000000000E+02  0.47000000000E+01 0.  1.
</event>
<event>
 5    1  0.7702600E-002  0.6000000E+02  0.7546771E-02  0.1259629E+00
         11   -1    0    0    0    0  0.00000000000E+00  0.00000000000E+00  0.30000000000E+02  0.30000000000E+02  0.00000000000E+00 0.  1.
        -11   -1    0    0    0    0 -0.00000000000E+00 -0.00000000000E+00 -0.30000000000E+02  0.30000000000E+02  0.00000000000E+00 0. -1.
         23    2    1    2    0    0  0.00000000000E+00  0.00000000000E+00  0.00000000000E+00  0.60000000000E+02  0.60000000000E+02 0.  0.
          5    1    3    3  501    0 -0.19565709219E+02 -0.17763303044E+02 -0.13399928646E+02  0.30000000000E+02  0.47000000000E+01 0. -1.
         -5    1    3    3    0  501  0.19565709219E+02  0.17763303044E+02  0.13399928646E+02  0.30000000000E+02  0.47000000000E+01 0.  1.
</event>
<event>
 5    1  0.7702600E-002  0.6000000E+02  0.7546771E-02  0.1259629E+00
         11   -1    0    0    0    0  0.00000000000E+00  0.00000000000E+00  0.30000000000E+02  0.30000000000E+02  0.00000000000E+00 0. -1.
        -11   -1    0    0    0    0 -0.00000000000E+00 -0.00000000000E+00 -0.30000000000E+02  0.30000000000E+02  0.00000000000E+00 0.  1.
         23    2    1    2    0    0  0.00000000000E+00  0.00000000000E+00  0.00000000000E+00  0.60000000000E+02  0.60000000000E+02 0.  0.
          5    1    3    3  501    0 -0.23960743903E+02  0.17343984875E+02  0.17259606812E+01  0.30000000000E+02  0.47000000000E+01 0.  1.
         -5    1    3    3    0  501  0.23960743903E+02 -0.17343984875E+02 -0.17259606812E+01  0.30000000000E+02  0.47000000000E+01 0. -1.
</event>
<event>
 5    1  0.7702600E-002  0.6000000E+02  0.7546771E-02  0.1259629E+00
         11   -1    0    0    0    0  0.00000000000E+00  0.00000000000E+00  0.30000000000E+02  0.30000000000E+02  0.00000000000E+00 0. -1.
        -11   -1    0    0    0    0 -0.00000000000E+00 -0.00000000000E+00 -0.30000000000E+02  0.30000000000E+02  0.00000000000E+00 0.  1.
         23    2    1    2    0    0  0.00000000000E+00  0.00000000000E+00  0.00000000000E+00  0.60000000000E+02  0.60000000000E+02 0.  0.
          5    1    3    3  501    0 -0.82556713641E+01 -0.16861756920E+02 -0.22922369945E+02  0.30000000000E+02  0.47000000000E+01 0.  1.
         -5    1    3    3    0  501  0.82556713641E+01  0.16861756920E+02  0.22922369945E+02  0.30000000000E+02  0.47000000000E+01 0. -1.
</event>
<event>
 5    1  0.7702600E-002  0.6000000E+02  0.7546771E-02  0.1259629E+00
         11   -1    0    0    0    0  0.00000000000E+00  0.00000000000E+00  0.30000000000E+02  0.30000000000E+02  0.00000000000E+00 0. -1.
        -11   -1    0    0    0    0 -0.00000000000E+00 -0.00000000000E+00 -0.30000000000E+02  0.30000000000E+02  0.00000000000E+00 0.  1.
         23    2    1    2    0    0  0.00000000000E+00  0.00000000000E+00  0.00000000000E+00  0.60000000000E+02  0.60000000000E+02 0.  0.
          5    1    3    3  501    0  0.12080654335E+02 -0.61584055495E+01 -0.26344673692E+02  0.30000000000E+02  0.47000000000E+01 0.  1.
         -5    1    3    3    0  501 -0.12080654335E+02  0.61584055495E+01  0.26344673692E+02  0.30000000000E+02  0.47000000000E+01 0. -1.
</event>
<event>
 5    1  0.7702600E-002  0.6000000E+02  0.7546771E-02  0.1259629E+00
         11   -1    0    0    0    0  0.00000000000E+00  0.00000000000E+00  0.30000000000E+02  0.30000000000E+02  0.00000000000E+00 0. -1.
        -11   -1    0    0    0    0 -0.00000000000E+00 -0.00000000000E+00 -0.30000000000E+02  0.30000000000E+02  0.00000000000E+00 0.  1.
         23    2    1    2    0    0  0.00000000000E+00  0.00000000000E+00  0.00000000000E+00  0.60000000000E+02  0.60000000000E+02 0.  0.
          5    1    3    3  501    0  0.20958233501E+02  0.20933146675E+02 -0.68250919034E+00  0.30000000000E+02  0.47000000000E+01 0.  1.
         -5    1    3    3    0  501 -0.20958233501E+02 -0.20933146675E+02  0.68250919034E+00  0.30000000000E+02  0.47000000000E+01 0. -1.
</event>
<event>
 5    1  0.7702600E-002  0.6000000E+02  0.7546771E-02  0.1259629E+00
         11   -1    0    0    0    0  0.00000000000E+00  0.00000000000E+00  0.30000000000E+02  0.30000000000E+02  0.00000000000E+00 0.  1.
        -11   -1    0    0    0    0 -0.00000000000E+00 -0.00000000000E+00 -0.30000000000E+02  0.30000000000E+02  0.00000000000E+00 0. -1.
         23    2    1    2    0    0  0.00000000000E+00  0.00000000000E+00  0.00000000000E+00  0.60000000000E+02  0.60000000000E+02 0.  0.
          5    1    3    3  501    0 -0.27040551917E+02  0.12071871267E+02 -0.99422136351E+00  0.30000000000E+02  0.47000000000E+01 0. -1.
         -5    1    3    3    0  501  0.27040551917E+02 -0.12071871267E+02  0.99422136351E+00  0.30000000000E+02  0.47000000000E+01 0.  1.
</event>
<event>
 5    1  0.7702600E-002  0.6000000E+02  0.7546771E-02  0.1259629E+00
         11   -1    0    0    0    0  0.00000000000E+00  0.00000000000E+00  0.30000000000E+02  0.30000000000E+02  0.00000000000E+00 0. -1.
        -11   -1    0    0    0    0 -0.00000000000E+00 -0.00000000000E+00 -0.30000000000E+02  0.30000000000E+02  0.00000000000E+00 0.  1.
         23    2    1    2    0    0  0.00000000000E+00  0.00000000000E+00  0.00000000000E+00  0.60000000000E+02  0.60000000000E+02 0.  0.
          5    1    3    3  501    0 -0.17770724651E+02 -0.23336404492E+02 -0.41861164320E+01  0.30000000000E+02  0.47000000000E+01 0.  1.
         -5    1    3    3    0  501  0.17770724651E+02  0.23336404492E+02  0.41861164320E+01  0.30000000000E+02  0.47000000000E+01 0. -1.
</event>
<event>
 5    1  0.7702600E-002  0.6000000E+02  0.7546771E-02  0.1259629E+00
         11   -1    0    0    0    0  0.00000000000E+00  0.00000000000E+00  0.30000000000E+02  0.30000000000E+02  0.00000000000E+00 0.  1.
        -11   -1    0    0    0    0 -0.00000000000E+00 -0.00000000000E+00 -0.30000000000E+02  0.30000000000E+02  0.00000000000E+00 0. -1.
         23    2    1    2    0    0  0.00000000000E+00  0.00000000000E+00  0.00000000000E+00  0.60000000000E+02  0.60000000000E+02 0.  0.
          5    1    3    3  501    0  0.99879566624E+01  0.13504645758E+02 -0.24408508039E+02  0.30000000000E+02  0.47000000000E+01 0. -1.
         -5    1    3    3    0  501 -0.99879566624E+01 -0.13504645758E+02  0.24408508039E+02  0.30000000000E+02  0.47000000000E+01 0.  1.
</event>
<event>
 5    1  0.7702600E-002  0.6000000E+02  0.7546771E-02  0.1259629E+00
         11   -1    0    0    0    0  0.00000000000E+00  0.00000000000E+00  0.30000000000E+02  0.30000000000E+02  0.00000000000E+00 0.  1.
        -11   -1    0    0    0    0 -0.00000000000E+00 -0.00000000000E+00 -0.30000000000E+02  0.30000000000E+02  0.00000000000E+00 0. -1.
         23    2    1    2    0    0  0.00000000000E+00  0.00000000000E+00  0.00000000000E+00  0.60000000000E+02  0.60000000000E+02 0.  0.
          5    1    3    3  501    0 -0.17535792886E+02  0.12438775011E+02 -0.20388301648E+02  0.30000000000E+02  0.47000000000E+01 0. -1.
         -5    1    3    3    0  501  0.17535792886E+02 -0.12438775011E+02  0.20388301648E+02  0.30000000000E+02  0.47000000000E+01 0.  1.
</event>
<event>
 5    1  0.7702600E-002  0.6000000E+02  0.7546771E-02  0.1259629E+00
         11   -1    0    0    0    0  0.00000000000E+00  0.00000000000E+00  0.30000000000E+02  0.30000000000E+02  0.00000000000E+00 0.  1.
        -11   -1    0    0    0    0 -0.00000000000E+00 -0.00000000000E+00 -0.30000000000E+02  0.30000000000E+02  0.00000000000E+00 0. -1.
         23    2    1    2    0    0  0.00000000000E+00  0.00000000000E+00  0.00000000000E+00  0.60000000000E+02  0.60000000000E+02 0.  0.
          5    1    3    3  501    0  0.17995613518E+02  0.23530332150E+02 -0.62559015632E+00  0.30000000000E+02  0.47000000000E+01 0. -1.
         -5    1    3    3    0  501 -0.17995613518E+02 -0.23530332150E+02  0.62559015632E+00  0.30000000000E+02  0.47000000000E+01 0.  1.
</event>
<event>
 5    1  0.7702600E-002  0.6000000E+02  0.7546771E-02  0.1259629E+00
         11   -1    0    0    0    0  0.00000000000E+00  0.00000000000E+00  0.30000000000E+02  0.30000000000E+02  0.00000000000E+00 0.  1.
        -11   -1    0    0    0    0 -0.00000000000E+00 -0.00000000000E+00 -0.30000000000E+02  0.30000000000E+02  0.00000000000E+00 0. -1.
         23    2    1    2    0    0  0.00000000000E+00  0.00000000000E+00  0.00000000000E+00  0.60000000000E+02  0.60000000000E+02 0.  0.
          5    1    3    3  501    0  0.16959174179E+02  0.14627865617E+02 -0.19399019529E+02  0.30000000000E+02  0.47000000000E+01 0. -1.
         -5    1    3    3    0  501 -0.16959174179E+02 -0.14627865617E+02  0.19399019529E+02  0.30000000000E+02  0.47000000000E+01 0.  1.
</event>
<event>
 5    1  0.7702600E-002  0.6000000E+02  0.7546771E-02  0.1259629E+00
         11   -1    0    0    0    0  0.00000000000E+00  0.00000000000E+00  0.30000000000E+02  0.30000000000E+02  0.00000000000E+00 0.  1.
        -11   -1    0    0    0    0 -0.00000000000E+00 -0.00000000000E+00 -0.30000000000E+02  0.30000000000E+02  0.00000000000E+00 0. -1.
         23    2    1    2    0    0  0.00000000000E+00  0.00000000000E+00  0.00000000000E+00  0.60000000000E+02  0.60000000000E+02 0.  0.
          5    1    3    3  501    0  0.23816144481E+02 -0.12863210680E+02 -0.12051517459E+02  0.30000000000E+02  0.47000000000E+01 0. -1.
         -5    1    3    3    0  501 -0.23816144481E+02  0.12863210680E+02  0.12051517459E+02  0.30000000000E+02  0.47000000000E+01 0.  1.
</event>
<event>
 5    1  0.7702600E-002  0.6000000E+02  0.7546771E-02  0.1259629E+00
         11   -1    0    0    0    0  0.00000000000E+00  0.00000000000E+00  0.30000000000E+02  0.30000000000E+02  0.00000000000E+00 0.  1.
        -11   -1    0    0    0    0 -0.00000000000E+00 -0.00000000000E+00 -0.30000000000E+02  0.30000000000E+02  0.00000000000E+00 0. -1.
         23    2    1    2    0    0  0.00000000000E+00  0.00000000000E+00  0.00000000000E+00  0.60000000000E+02  0.60000000000E+02 0.  0.
          5    1    3    3  501    0  0.55437656144E+01 -0.25153093523E+02 -0.14645768981E+02  0.30000000000E+02  0.47000000000E+01 0. -1.
         -5    1    3    3    0  501 -0.55437656144E+01  0.25153093523E+02  0.14645768981E+02  0.30000000000E+02  0.47000000000E+01 0.  1.
</event>
<event>
 5    1  0.7702600E-002  0.6000000E+02  0.7546771E-02  0.1259629E+00
         11   -1    0    0    0    0  0.00000000000E+00  0.00000000000E+00  0.30000000000E+02  0.30000000000E+02  0.00000000000E+00 0. -1.
        -11   -1    0    0    0    0 -0.00000000000E+00 -0.00000000000E+00 -0.30000000000E+02  0.30000000000E+02  0.00000000000E+00 0.  1.
         23    2    1    2    0    0  0.00000000000E+00  0.00000000000E+00  0.00000000000E+00  0.60000000000E+02  0.60000000000E+02 0.  0.
          5    1    3    3  501    0 -0.57856703229E+01  0.22365688152E+02 -0.18552951582E+02  0.30000000000E+02  0.47000000000E+01 0.  1.
         -5    1    3    3    0  501  0.57856703229E+01 -0.22365688152E+02  0.18552951582E+02  0.30000000000E+02  0.47000000000E+01 0. -1.
</event>
<event>
 5    1  0.7702600E-002  0.6000000E+02  0.7546771E-02  0.1259629E+00
         11   -1    0    0    0    0  0.00000000000E+00  0.00000000000E+00  0.30000000000E+02  0.30000000000E+02  0.00000000000E+00 0.  1.
        -11   -1    0    0    0    0 -0.00000000000E+00 -0.00000000000E+00 -0.30000000000E+02  0.30000000000E+02  0.00000000000E+00 0. -1.
         23    2    1    2    0    0  0.00000000000E+00  0.00000000000E+00  0.00000000000E+00  0.60000000000E+02  0.60000000000E+02 0.  0.
          5    1    3    3  501    0 -0.18649569434E+02 -0.78154702900E+01 -0.21656915387E+02  0.30000000000E+02  0.47000000000E+01 0. -1.
         -5    1    3    3    0  501  0.18649569434E+02  0.78154702900E+01  0.21656915387E+02  0.30000000000E+02  0.47000000000E+01 0.  1.
</event>
<event>
 5    1  0.7702600E-002  0.6000000E+02  0.7546771E-02  0.1259629E+00
         11   -1    0    0    0    0  0.00000000000E+00  0.00000000000E+00  0.30000000000E+02  0.30000000000E+02  0.00000000000E+00 0.  1.
        -11   -1    0    0    0    0 -0.00000000000E+00 -0.00000000000E+00 -0.30000000000E+02  0.30000000000E+02  0.00000000000E+00 0. -1.
         23    2    1    2    0    0  0.00000000000E+00  0.00000000000E+00  0.00000000000E+00  0.60000000000E+02  0.60000000000E+02 0.  0.
          5    1    3    3  501    0 -0.67089419093E+01  0.28696228104E+02 -0.30702754078E+01  0.30000000000E+02  0.47000000000E+01 0. -1.
         -5    1    3    3    0  501  0.67089419093E+01 -0.28696228104E+02  0.30702754078E+01  0.30000000000E+02  0.47000000000E+01 0.  1.
</event>
<event>
 5    1  0.7702600E-002  0.6000000E+02  0.7546771E-02  0.1259629E+00
         11   -1    0    0    0    0  0.00000000000E+00  0.00000000000E+00  0.30000000000E+02  0.30000000000E+02  0.00000000000E+00 0.  1.
        -11   -1    0    0    0    0 -0.00000000000E+00 -0.00000000000E+00 -0.30000000000E+02  0.30000000000E+02  0.00000000000E+00 0. -1.
         23    2    1    2    0    0  0.00000000000E+00  0.00000000000E+00  0.00000000000E+00  0.60000000000E+02  0.60000000000E+02 0.  0.
          5    1    3    3  501    0 -0.33745879731E+01  0.22412871326E+02 -0.19083641030E+02  0.30000000000E+02  0.47000000000E+01 0. -1.
         -5    1    3    3    0  501  0.33745879731E+01 -0.22412871326E+02  0.19083641030E+02  0.30000000000E+02  0.47000000000E+01 0.  1.
</event>
<event>
 5    1  0.7702600E-002  0.6000000E+02  0.7546771E-02  0.1259629E+00
         11   -1    0    0    0    0  0.00000000000E+00  0.00000000000E+00  0.30000000000E+02  0.30000000000E+02  0.00000000000E+00 0.  1.
        -11   -1    0    0    0    0 -0.00000000000E+00 -0.00000000000E+00 -0.30000000000E+02  0.30000000000E+02  0.00000000000E+00 0. -1.
         23    2    1    2    0    0  0.00000000000E+00  0.00000000000E+00  0.00000000000E+00  0.60000000000E+02  0.60000000000E+02 0.  0.
          5    1    3    3  501    0 -0.53348676202E+01 -0.76662940458E+01  0.28118981544E+02  0.30000000000E+02  0.47000000000E+01 0.  1.
         -5    1    3    3    0  501  0.53348676202E+01  0.76662940458E+01 -0.28118981544E+02  0.30000000000E+02  0.47000000000E+01 0. -1.
</event>
<event>
 5    1  0.7702600E-002  0.6000000E+02  0.7546771E-02  0.1259629E+00
         11   -1    0    0    0    0  0.00000000000E+00  0.00000000000E+00  0.30000000000E+02  0.30000000000E+02  0.00000000000E+00 0.  1.
        -11   -1    0    0    0    0 -0.00000000000E+00 -0.00000000000E+00 -0.30000000000E+02  0.30000000000E+02  0.00000000000E+00 0. -1.
         23    2    1    2    0    0  0.00000000000E+00  0.00000000000E+00  0.00000000000E+00  0.60000000000E+02  0.60000000000E+02 0.  0.
          5    1    3    3  501    0 -0.58335092061E+01  0.63819371373E+01 -0.28339919702E+02  0.30000000000E+02  0.47000000000E+01 0. -1.
         -5    1    3    3    0  501  0.58335092061E+01 -0.63819371373E+01  0.28339919702E+02  0.30000000000E+02  0.47000000000E+01 0.  1.
</event>
<event>
 5    1  0.7702600E-002  0.6000000E+02  0.7546771E-02  0.1259629E+00
         11   -1    0    0    0    0  0.00000000000E+00  0.00000000000E+00  0.30000000000E+02  0.30000000000E+02  0.00000000000E+00 0.  1.
        -11   -1    0    0    0    0 -0.00000000000E+00 -0.00000000000E+00 -0.30000000000E+02  0.30000000000E+02  0.00000000000E+00 0. -1.
         23    2    1    2    0    0  0.00000000000E+00  0.00000000000E+00  0.00000000000E+00  0.60000000000E+02  0.60000000000E+02 0.  0.
          5    1    3    3  501    0  0.23339577500E+02 -0.16923411488E+02 -0.68390252037E+01  0.30000000000E+02  0.47000000000E+01 0.  1.
         -5    1    3    3    0  501 -0.23339577500E+02  0.16923411488E+02  0.68390252037E+01  0.30000000000E+02  0.47000000000E+01 0. -1.
</event>
<event>
 5    1  0.7702600E-002  0.6000000E+02  0.7546771E-02  0.1259629E+00
         11   -1    0    0    0    0  0.00000000000E+00  0.00000000000E+00  0.30000000000E+02  0.30000000000E+02  0.00000000000E+00 0.  1.
        -11   -1    0    0    0    0 -0.00000000000E+00 -0.00000000000E+00 -0.30000000000E+02  0.30000000000E+02  0.00000000000E+00 0. -1.
         23    2    1    2    0    0  0.00000000000E+00  0.00000000000E+00  0.00000000000E+00  0.60000000000E+02  0.60000000000E+02 0.  0.
          5    1    3    3  501    0 -0.18119860322E+02 -0.22878731171E+02 -0.51131518553E+01  0.30000000000E+02  0.47000000000E+01 0. -1.
         -5    1    3    3    0  501  0.18119860322E+02  0.22878731171E+02  0.51131518553E+01  0.30000000000E+02  0.47000000000E+01 0.  1.
</event>
<event>
 5    1  0.7702600E-002  0.6000000E+02  0.7546771E-02  0.1259629E+00
         11   -1    0    0    0    0  0.00000000000E+00  0.00000000000E+00  0.30000000000E+02  0.30000000000E+02  0.00000000000E+00 0.  1.
        -11   -1    0    0    0    0 -0.00000000000E+00 -0.00000000000E+00 -0.30000000000E+02  0.30000000000E+02  0.00000000000E+00 0. -1.
         23    2    1    2    0    0  0.00000000000E+00  0.00000000000E+00  0.00000000000E+00  0.60000000000E+02  0.60000000000E+02 0.  0.
          5    1    3    3  501    0  0.13610891778E+02 -0.16330617084E+02 -0.20638909144E+02  0.30000000000E+02  0.47000000000E+01 0. -1.
         -5    1    3    3    0  501 -0.13610891778E+02  0.16330617084E+02  0.20638909144E+02  0.30000000000E+02  0.47000000000E+01 0.  1.
</event>
<event>
 5    1  0.7702600E-002  0.6000000E+02  0.7546771E-02  0.1259629E+00
         11   -1    0    0    0    0  0.00000000000E+00  0.00000000000E+00  0.30000000000E+02  0.30000000000E+02  0.00000000000E+00 0.  1.
        -11   -1    0    0    0    0 -0.00000000000E+00 -0.00000000000E+00 -0.30000000000E+02  0.30000000000E+02  0.00000000000E+00 0. -1.
         23    2    1    2    0    0  0.00000000000E+00  0.00000000000E+00  0.00000000000E+00  0.60000000000E+02  0.60000000000E+02 0.  0.
          5    1    3    3  501    0  0.18127887565E+02  0.84346474756E+01 -0.21866559272E+02  0.30000000000E+02  0.47000000000E+01 0. -1.
         -5    1    3    3    0  501 -0.18127887565E+02 -0.84346474756E+01  0.21866559272E+02  0.30000000000E+02  0.47000000000E+01 0.  1.
</event>
<event>
 5    1  0.7702600E-002  0.6000000E+02  0.7546771E-02  0.1259629E+00
         11   -1    0    0    0    0  0.00000000000E+00  0.00000000000E+00  0.30000000000E+02  0.30000000000E+02  0.00000000000E+00 0.  1.
        -11   -1    0    0    0    0 -0.00000000000E+00 -0.00000000000E+00 -0.30000000000E+02  0.30000000000E+02  0.00000000000E+00 0. -1.
         23    2    1    2    0    0  0.00000000000E+00  0.00000000000E+00  0.00000000000E+00  0.60000000000E+02  0.60000000000E+02 0.  0.
          5    1    3    3  501    0 -0.12597036792E+02  0.16960887272E+02 -0.20773852965E+02  0.30000000000E+02  0.47000000000E+01 0. -1.
         -5    1    3    3    0  501  0.12597036792E+02 -0.16960887272E+02  0.20773852965E+02  0.30000000000E+02  0.47000000000E+01 0.  1.
</event>
<event>
 5    1  0.7702600E-002  0.6000000E+02  0.7546771E-02  0.1259629E+00
         11   -1    0    0    0    0  0.00000000000E+00  0.00000000000E+00  0.30000000000E+02  0.30000000000E+02  0.00000000000E+00 0.  1.
        -11   -1    0    0    0    0 -0.00000000000E+00 -0.00000000000E+00 -0.30000000000E+02  0.30000000000E+02  0.00000000000E+00 0. -1.
         23    2    1    2    0    0  0.00000000000E+00  0.00000000000E+00  0.00000000000E+00  0.60000000000E+02  0.60000000000E+02 0.  0.
          5    1    3    3  501    0  0.18801410343E+02  0.21773383030E+02 -0.70948404164E+01  0.30000000000E+02  0.47000000000E+01 0. -1.
         -5    1    3    3    0  501 -0.18801410343E+02 -0.21773383030E+02  0.70948404164E+01  0.30000000000E+02  0.47000000000E+01 0.  1.
</event>
<event>
 5    1  0.7702600E-002  0.6000000E+02  0.7546771E-02  0.1259629E+00
         11   -1    0    0    0    0  0.00000000000E+00  0.00000000000E+00  0.30000000000E+02  0.30000000000E+02  0.00000000000E+00 0.  1.
        -11   -1    0    0    0    0 -0.00000000000E+00 -0.00000000000E+00 -0.30000000000E+02  0.30000000000E+02  0.00000000000E+00 0. -1.
         23    2    1    2    0    0  0.00000000000E+00  0.00000000000E+00  0.00000000000E+00  0.60000000000E+02  0.60000000000E+02 0.  0.
          5    1    3    3  501    0  0.82060147158E+01 -0.13203313685E+02 -0.25223874211E+02  0.30000000000E+02  0.47000000000E+01 0. -1.
         -5    1    3    3    0  501 -0.82060147158E+01  0.13203313685E+02  0.25223874211E+02  0.30000000000E+02  0.47000000000E+01 0.  1.
</event>
<event>
 5    1  0.7702600E-002  0.6000000E+02  0.7546771E-02  0.1259629E+00
         11   -1    0    0    0    0  0.00000000000E+00  0.00000000000E+00  0.30000000000E+02  0.30000000000E+02  0.00000000000E+00 0.  1.
        -11   -1    0    0    0    0 -0.00000000000E+00 -0.00000000000E+00 -0.30000000000E+02  0.30000000000E+02  0.00000000000E+00 0. -1.
         23    2    1    2    0    0  0.00000000000E+00  0.00000000000E+00  0.00000000000E+00  0.60000000000E+02  0.60000000000E+02 0.  0.
          5    1    3    3  501    0  0.13615955698E+02  0.11009075563E+02 -0.23902217589E+02  0.30000000000E+02  0.47000000000E+01 0. -1.
         -5    1    3    3    0  501 -0.13615955698E+02 -0.11009075563E+02  0.23902217589E+02  0.30000000000E+02  0.47000000000E+01 0.  1.
</event>
<event>
 5    1  0.7702600E-002  0.6000000E+02  0.7546771E-02  0.1259629E+00
         11   -1    0    0    0    0  0.00000000000E+00  0.00000000000E+00  0.30000000000E+02  0.30000000000E+02  0.00000000000E+00 0.  1.
        -11   -1    0    0    0    0 -0.00000000000E+00 -0.00000000000E+00 -0.30000000000E+02  0.30000000000E+02  0.00000000000E+00 0. -1.
         23    2    1    2    0    0  0.00000000000E+00  0.00000000000E+00  0.00000000000E+00  0.60000000000E+02  0.60000000000E+02 0.  0.
          5    1    3    3  501    0 -0.66740062123E+01  0.12920408803E+02 -0.25815318659E+02  0.30000000000E+02  0.47000000000E+01 0. -1.
         -5    1    3    3    0  501  0.66740062123E+01 -0.12920408803E+02  0.25815318659E+02  0.30000000000E+02  0.47000000000E+01 0.  1.
</event>
<event>
 5    1  0.7702600E-002  0.6000000E+02  0.7546771E-02  0.1259629E+00
         11   -1    0    0    0    0  0.00000000000E+00  0.00000000000E+00  0.30000000000E+02  0.30000000000E+02  0.00000000000E+00 0. -1.
        -11   -1    0    0    0    0 -0.00000000000E+00 -0.00000000000E+00 -0.30000000000E+02  0.30000000000E+02  0.00000000000E+00 0.  1.
         23    2    1    2    0    0  0.00000000000E+00  0.00000000000E+00  0.00000000000E+00  0.60000000000E+02  0.60000000000E+02 0.  0.
          5    1    3    3  501    0  0.10523103390E+02  0.23451518697E+02 -0.14737725939E+02  0.30000000000E+02  0.47000000000E+01 0.  1.
         -5    1    3    3    0  501 -0.10523103390E+02 -0.23451518697E+02  0.14737725939E+02  0.30000000000E+02  0.47000000000E+01 0. -1.
</event>
<event>
 5    1  0.7702600E-002  0.6000000E+02  0.7546771E-02  0.1259629E+00
         11   -1    0    0    0    0  0.00000000000E+00  0.00000000000E+00  0.30000000000E+02  0.30000000000E+02  0.00000000000E+00 0.  1.
        -11   -1    0    0    0    0 -0.00000000000E+00 -0.00000000000E+00 -0.30000000000E+02  0.30000000000E+02  0.00000000000E+00 0. -1.
         23    2    1    2    0    0  0.00000000000E+00  0.00000000000E+00  0.00000000000E+00  0.60000000000E+02  0.60000000000E+02 0.  0.
          5    1    3    3  501    0  0.13812611202E+02 -0.98109044132E+01 -0.24307775019E+02  0.30000000000E+02  0.47000000000E+01 0. -1.
         -5    1    3    3    0  501 -0.13812611202E+02  0.98109044132E+01  0.24307775019E+02  0.30000000000E+02  0.47000000000E+01 0.  1.
</event>
<event>
 5    1  0.7702600E-002  0.6000000E+02  0.7546771E-02  0.1259629E+00
         11   -1    0    0    0    0  0.00000000000E+00  0.00000000000E+00  0.30000000000E+02  0.30000000000E+02  0.00000000000E+00 0.  1.
        -11   -1    0    0    0    0 -0.00000000000E+00 -0.00000000000E+00 -0.30000000000E+02  0.30000000000E+02  0.00000000000E+00 0. -1.
         23    2    1    2    0    0  0.00000000000E+00  0.00000000000E+00  0.00000000000E+00  0.60000000000E+02  0.60000000000E+02 0.  0.
          5    1    3    3  501    0 -0.19566899707E+01  0.93638546494E+01 -0.28042817092E+02  0.30000000000E+02  0.47000000000E+01 0. -1.
         -5    1    3    3    0  501  0.19566899707E+01 -0.93638546494E+01  0.28042817092E+02  0.30000000000E+02  0.47000000000E+01 0.  1.
</event>
<event>
 5    1  0.7702600E-002  0.6000000E+02  0.7546771E-02  0.1259629E+00
         11   -1    0    0    0    0  0.00000000000E+00  0.00000000000E+00  0.30000000000E+02  0.30000000000E+02  0.00000000000E+00 0.  1.
        -11   -1    0    0    0    0 -0.00000000000E+00 -0.00000000000E+00 -0.30000000000E+02  0.30000000000E+02  0.00000000000E+00 0. -1.
         23    2    1    2    0    0  0.00000000000E+00  0.00000000000E+00  0.00000000000E+00  0.60000000000E+02  0.60000000000E+02 0.  0.
          5    1    3    3  501    0  0.22298303798E+01  0.20709071154E+02 -0.21073021341E+02  0.30000000000E+02  0.47000000000E+01 0. -1.
         -5    1    3    3    0  501 -0.22298303798E+01 -0.20709071154E+02  0.21073021341E+02  0.30000000000E+02  0.47000000000E+01 0.  1.
</event>
<event>
 5    1  0.7702600E-002  0.6000000E+02  0.7546771E-02  0.1259629E+00
         11   -1    0    0    0    0  0.00000000000E+00  0.00000000000E+00  0.30000000000E+02  0.30000000000E+02  0.00000000000E+00 0. -1.
        -11   -1    0    0    0    0 -0.00000000000E+00 -0.00000000000E+00 -0.30000000000E+02  0.30000000000E+02  0.00000000000E+00 0.  1.
         23    2    1    2    0    0  0.00000000000E+00  0.00000000000E+00  0.00000000000E+00  0.60000000000E+02  0.60000000000E+02 0.  0.
          5    1    3    3  501    0 -0.37339754826E+01  0.11420221566E+02 -0.27084053731E+02  0.30000000000E+02  0.47000000000E+01 0.  1.
         -5    1    3    3    0  501  0.37339754826E+01 -0.11420221566E+02  0.27084053731E+02  0.30000000000E+02  0.47000000000E+01 0. -1.
</event>
<event>
 5    1  0.7702600E-002  0.6000000E+02  0.7546771E-02  0.1259629E+00
         11   -1    0    0    0    0  0.00000000000E+00  0.00000000000E+00  0.30000000000E+02  0.30000000000E+02  0.00000000000E+00 0. -1.
        -11   -1    0    0    0    0 -0.00000000000E+00 -0.00000000000E+00 -0.30000000000E+02  0.30000000000E+02  0.00000000000E+00 0.  1.
         23    2    1    2    0    0  0.00000000000E+00  0.00000000000E+00  0.00000000000E+00  0.60000000000E+02  0.60000000000E+02 0.  0.
          5    1    3    3  501    0 -0.28356425535E+02 -0.76705095096E+01 -0.38712290979E+01  0.30000000000E+02  0.47000000000E+01 0.  1.
         -5    1    3    3    0  501  0.28356425535E+02  0.76705095096E+01  0.38712290979E+01  0.30000000000E+02  0.47000000000E+01 0. -1.
</event>
<event>
 5    1  0.7702600E-002  0.6000000E+02  0.7546771E-02  0.1259629E+00
         11   -1    0    0    0    0  0.00000000000E+00  0.00000000000E+00  0.30000000000E+02  0.30000000000E+02  0.00000000000E+00 0.  1.
        -11   -1    0    0    0    0 -0.00000000000E+00 -0.00000000000E+00 -0.30000000000E+02  0.30000000000E+02  0.00000000000E+00 0. -1.
         23    2    1    2    0    0  0.00000000000E+00  0.00000000000E+00  0.00000000000E+00  0.60000000000E+02  0.60000000000E+02 0.  0.
          5    1    3    3  501    0 -0.11812610750E+02 -0.24988780213E+02 -0.10673944477E+02  0.30000000000E+02  0.47000000000E+01 0. -1.
         -5    1    3    3    0  501  0.11812610750E+02  0.24988780213E+02  0.10673944477E+02  0.30000000000E+02  0.47000000000E+01 0.  1.
</event>
<event>
 5    1  0.7702600E-002  0.6000000E+02  0.7546771E-02  0.1259629E+00
         11   -1    0    0    0    0  0.00000000000E+00  0.00000000000E+00  0.30000000000E+02  0.30000000000E+02  0.00000000000E+00 0. -1.
        -11   -1    0    0    0    0 -0.00000000000E+00 -0.00000000000E+00 -0.30000000000E+02  0.30000000000E+02  0.00000000000E+00 0.  1.
         23    2    1    2    0    0  0.00000000000E+00  0.00000000000E+00  0.00000000000E+00  0.60000000000E+02  0.60000000000E+02 0.  0.
          5    1    3    3  501    0 -0.22349337333E+02  0.39362274928E+01 -0.19050544190E+02  0.30000000000E+02  0.47000000000E+01 0.  1.
         -5    1    3    3    0  501  0.22349337333E+02 -0.39362274928E+01  0.19050544190E+02  0.30000000000E+02  0.47000000000E+01 0. -1.
</event>
<event>
 5    1  0.7702600E-002  0.6000000E+02  0.7546771E-02  0.1259629E+00
         11   -1    0    0    0    0  0.00000000000E+00  0.00000000000E+00  0.30000000000E+02  0.30000000000E+02  0.00000000000E+00 0.  1.
        -11   -1    0    0    0    0 -0.00000000000E+00 -0.00000000000E+00 -0.30000000000E+02  0.30000000000E+02  0.00000000000E+00 0. -1.
         23    2    1    2    0    0  0.00000000000E+00  0.00000000000E+00  0.00000000000E+00  0.60000000000E+02  0.60000000000E+02 0.  0.
          5    1    3    3  501    0 -0.42360829342E+01  0.29096827017E+02  0.36524319176E+01  0.30000000000E+02  0.47000000000E+01 0. -1.
         -5    1    3    3    0  501  0.42360829342E+01 -0.29096827017E+02 -0.36524319176E+01  0.30000000000E+02  0.47000000000E+01 0.  1.
</event>
<event>
 5    1  0.7702600E-002  0.6000000E+02  0.7546771E-02  0.1259629E+00
         11   -1    0    0    0    0  0.00000000000E+00  0.00000000000E+00  0.30000000000E+02  0.30000000000E+02  0.00000000000E+00 0. -1.
        -11   -1    0    0    0    0 -0.00000000000E+00 -0.00000000000E+00 -0.30000000000E+02  0.30000000000E+02  0.00000000000E+00 0.  1.
         23    2    1    2    0    0  0.00000000000E+00  0.00000000000E+00  0.00000000000E+00  0.60000000000E+02  0.60000000000E+02 0.  0.
          5    1    3    3  501    0 -0.56537526124E+01  0.21400990153E+02  0.19696261114E+02  0.30000000000E+02  0.47000000000E+01 0. -1.
         -5    1    3    3    0  501  0.56537526124E+01 -0.21400990153E+02 -0.19696261114E+02  0.30000000000E+02  0.47000000000E+01 0.  1.
</event>
<event>
 5    1  0.7702600E-002  0.6000000E+02  0.7546771E-02  0.1259629E+00
         11   -1    0    0    0    0  0.00000000000E+00  0.00000000000E+00  0.30000000000E+02  0.30000000000E+02  0.00000000000E+00 0.  1.
        -11   -1    0    0    0    0 -0.00000000000E+00 -0.00000000000E+00 -0.30000000000E+02  0.30000000000E+02  0.00000000000E+00 0. -1.
         23    2    1    2    0    0  0.00000000000E+00  0.00000000000E+00  0.00000000000E+00  0.60000000000E+02  0.60000000000E+02 0.  0.
          5    1    3    3  501    0 -0.22497001558E+02 -0.24009547131E+01 -0.19131919333E+02  0.30000000000E+02  0.47000000000E+01 0. -1.
         -5    1    3    3    0  501  0.22497001558E+02  0.24009547131E+01  0.19131919333E+02  0.30000000000E+02  0.47000000000E+01 0.  1.
</event>
<event>
 5    1  0.7702600E-002  0.6000000E+02  0.7546771E-02  0.1259629E+00
         11   -1    0    0    0    0  0.00000000000E+00  0.00000000000E+00  0.30000000000E+02  0.30000000000E+02  0.00000000000E+00 0.  1.
        -11   -1    0    0    0    0 -0.00000000000E+00 -0.00000000000E+00 -0.30000000000E+02  0.30000000000E+02  0.00000000000E+00 0. -1.
         23    2    1    2    0    0  0.00000000000E+00  0.00000000000E+00  0.00000000000E+00  0.60000000000E+02  0.60000000000E+02 0.  0.
          5    1    3    3  501    0  0.14813372987E+02  0.96364339621E+01 -0.23782622253E+02  0.30000000000E+02  0.47000000000E+01 0. -1.
         -5    1    3    3    0  501 -0.14813372987E+02 -0.96364339621E+01  0.23782622253E+02  0.30000000000E+02  0.47000000000E+01 0.  1.
</event>
<event>
 5    1  0.7702600E-002  0.6000000E+02  0.7546771E-02  0.1259629E+00
         11   -1    0    0    0    0  0.00000000000E+00  0.00000000000E+00  0.30000000000E+02  0.30000000000E+02  0.00000000000E+00 0.  1.
        -11   -1    0    0    0    0 -0.00000000000E+00 -0.00000000000E+00 -0.30000000000E+02  0.30000000000E+02  0.00000000000E+00 0. -1.
         23    2    1    2    0    0  0.00000000000E+00  0.00000000000E+00  0.00000000000E+00  0.60000000000E+02  0.60000000000E+02 0.  0.
          5    1    3    3  501    0 -0.16758734354E+02 -0.11928814716E+02 -0.21325060430E+02  0.30000000000E+02  0.47000000000E+01 0. -1.
         -5    1    3    3    0  501  0.16758734354E+02  0.11928814716E+02  0.21325060430E+02  0.30000000000E+02  0.47000000000E+01 0.  1.
</event>
<event>
 5    1  0.7702600E-002  0.6000000E+02  0.7546771E-02  0.1259629E+00
         11   -1    0    0    0    0  0.00000000000E+00  0.00000000000E+00  0.30000000000E+02  0.30000000000E+02  0.00000000000E+00 0.  1.
        -11   -1    0    0    0    0 -0.00000000000E+00 -0.00000000000E+00 -0.30000000000E+02  0.30000000000E+02  0.00000000000E+00 0. -1.
         23    2    1    2    0    0  0.00000000000E+00  0.00000000000E+00  0.00000000000E+00  0.60000000000E+02  0.60000000000E+02 0.  0.
          5    1    3    3  501    0 -0.19854606924E+02 -0.21323071349E+02 -0.53880620051E+01  0.30000000000E+02  0.47000000000E+01 0. -1.
         -5    1    3    3    0  501  0.19854606924E+02  0.21323071349E+02  0.53880620051E+01  0.30000000000E+02  0.47000000000E+01 0.  1.
</event>
<event>
 5    1  0.7702600E-002  0.6000000E+02  0.7546771E-02  0.1259629E+00
         11   -1    0    0    0    0  0.00000000000E+00  0.00000000000E+00  0.30000000000E+02  0.30000000000E+02  0.00000000000E+00 0. -1.
        -11   -1    0    0    0    0 -0.00000000000E+00 -0.00000000000E+00 -0.30000000000E+02  0.30000000000E+02  0.00000000000E+00 0.  1.
         23    2    1    2    0    0  0.00000000000E+00  0.00000000000E+00  0.00000000000E+00  0.60000000000E+02  0.60000000000E+02 0.  0.
          5    1    3    3  501    0  0.22397994082E+02  0.15067894846E+02 -0.12214679940E+02  0.30000000000E+02  0.47000000000E+01 0.  1.
         -5    1    3    3    0  501 -0.22397994082E+02 -0.15067894846E+02  0.12214679940E+02  0.30000000000E+02  0.47000000000E+01 0. -1.
</event>
<event>
 5    1  0.7702600E-002  0.6000000E+02  0.7546771E-02  0.1259629E+00
         11   -1    0    0    0    0  0.00000000000E+00  0.00000000000E+00  0.30000000000E+02  0.30000000000E+02  0.00000000000E+00 0.  1.
        -11   -1    0    0    0    0 -0.00000000000E+00 -0.00000000000E+00 -0.30000000000E+02  0.30000000000E+02  0.00000000000E+00 0. -1.
         23    2    1    2    0    0  0.00000000000E+00  0.00000000000E+00  0.00000000000E+00  0.60000000000E+02  0.60000000000E+02 0.  0.
          5    1    3    3  501    0  0.12377832667E+02  0.21337855816E+01 -0.26835540195E+02  0.30000000000E+02  0.47000000000E+01 0. -1.
         -5    1    3    3    0  501 -0.12377832667E+02 -0.21337855816E+01  0.26835540195E+02  0.30000000000E+02  0.47000000000E+01 0.  1.
</event>
<event>
 5    1  0.7702600E-002  0.6000000E+02  0.7546771E-02  0.1259629E+00
         11   -1    0    0    0    0  0.00000000000E+00  0.00000000000E+00  0.30000000000E+02  0.30000000000E+02  0.00000000000E+00 0. -1.
        -11   -1    0    0    0    0 -0.00000000000E+00 -0.00000000000E+00 -0.30000000000E+02  0.30000000000E+02  0.00000000000E+00 0.  1.
         23    2    1    2    0    0  0.00000000000E+00  0.00000000000E+00  0.00000000000E+00  0.60000000000E+02  0.60000000000E+02 0.  0.
          5    1    3    3  501    0  0.17445144815E+02  0.89391090160E+01 -0.22218669006E+02  0.30000000000E+02  0.47000000000E+01 0.  1.
         -5    1    3    3    0  501 -0.17445144815E+02 -0.89391090160E+01  0.22218669006E+02  0.30000000000E+02  0.47000000000E+01 0. -1.
</event>
<event>
 5    1  0.7702600E-002  0.6000000E+02  0.7546771E-02  0.1259629E+00
         11   -1    0    0    0    0  0.00000000000E+00  0.00000000000E+00  0.30000000000E+02  0.30000000000E+02  0.00000000000E+00 0.  1.
        -11   -1    0    0    0    0 -0.00000000000E+00 -0.00000000000E+00 -0.30000000000E+02  0.30000000000E+02  0.00000000000E+00 0. -1.
         23    2    1    2    0    0  0.00000000000E+00  0.00000000000E+00  0.00000000000E+00  0.60000000000E+02  0.60000000000E+02 0.  0.
          5    1    3    3  501    0  0.29456764214E+02 -0.29882642477E+01  0.11310697625E+01  0.30000000000E+02  0.47000000000E+01 0. -1.
         -5    1    3    3    0  501 -0.29456764214E+02  0.29882642477E+01 -0.11310697625E+01  0.30000000000E+02  0.47000000000E+01 0.  1.
</event>
<event>
 5    1  0.7702600E-002  0.6000000E+02  0.7546771E-02  0.1259629E+00
         11   -1    0    0    0    0  0.00000000000E+00  0.00000000000E+00  0.30000000000E+02  0.30000000000E+02  0.00000000000E+00 0.  1.
        -11   -1    0    0    0    0 -0.00000000000E+00 -0.00000000000E+00 -0.30000000000E+02  0.30000000000E+02  0.00000000000E+00 0. -1.
         23    2    1    2    0    0  0.00000000000E+00  0.00000000000E+00  0.00000000000E+00  0.60000000000E+02  0.60000000000E+02 0.  0.
          5    1    3    3  501    0  0.33335400546E+01 -0.29087770337E+02 -0.45496293854E+01  0.30000000000E+02  0.47000000000E+01 0. -1.
         -5    1    3    3    0  501 -0.33335400546E+01  0.29087770337E+02  0.45496293854E+01  0.30000000000E+02  0.47000000000E+01 0.  1.
</event>
<event>
 5    1  0.7702600E-002  0.6000000E+02  0.7546771E-02  0.1259629E+00
         11   -1    0    0    0    0  0.00000000000E+00  0.00000000000E+00  0.30000000000E+02  0.30000000000E+02  0.00000000000E+00 0.  1.
        -11   -1    0    0    0    0 -0.00000000000E+00 -0.00000000000E+00 -0.30000000000E+02  0.30000000000E+02  0.00000000000E+00 0. -1.
         23    2    1    2    0    0  0.00000000000E+00  0.00000000000E+00  0.00000000000E+00  0.60000000000E+02  0.60000000000E+02 0.  0.
          5    1    3    3  501    0  0.10969768341E+02 -0.11824718995E+02 -0.24854581132E+02  0.30000000000E+02  0.47000000000E+01 0. -1.
         -5    1    3    3    0  501 -0.10969768341E+02  0.11824718995E+02  0.24854581132E+02  0.30000000000E+02  0.47000000000E+01 0.  1.
</event>
<event>
 5    1  0.7702600E-002  0.6000000E+02  0.7546771E-02  0.1259629E+00
         11   -1    0    0    0    0  0.00000000000E+00  0.00000000000E+00  0.30000000000E+02  0.30000000000E+02  0.00000000000E+00 0. -1.
        -11   -1    0    0    0    0 -0.00000000000E+00 -0.00000000000E+00 -0.30000000000E+02  0.30000000000E+02  0.00000000000E+00 0.  1.
         23    2    1    2    0    0  0.00000000000E+00  0.00000000000E+00  0.00000000000E+00  0.60000000000E+02  0.60000000000E+02 0.  0.
          5    1    3    3  501    0 -0.52367850371E+01  0.11902728347E+02 -0.26623507289E+02  0.30000000000E+02  0.47000000000E+01 0.  1.
         -5    1    3    3    0  501  0.52367850371E+01 -0.11902728347E+02  0.26623507289E+02  0.30000000000E+02  0.47000000000E+01 0. -1.
</event>
<event>
 5    1  0.7702600E-002  0.6000000E+02  0.7546771E-02  0.1259629E+00
         11   -1    0    0    0    0  0.00000000000E+00  0.00000000000E+00  0.30000000000E+02  0.30000000000E+02  0.00000000000E+00 0.  1.
        -11   -1    0    0    0    0 -0.00000000000E+00 -0.00000000000E+00 -0.30000000000E+02  0.30000000000E+02  0.00000000000E+00 0. -1.
         23    2    1    2    0    0  0.00000000000E+00  0.00000000000E+00  0.00000000000E+00  0.60000000000E+02  0.60000000000E+02 0.  0.
          5    1    3    3  501    0 -0.10522272526E+02  0.20117614408E+02  0.19038733451E+02  0.30000000000E+02  0.47000000000E+01 0.  1.
         -5    1    3    3    0  501  0.10522272526E+02 -0.20117614408E+02 -0.19038733451E+02  0.30000000000E+02  0.47000000000E+01 0. -1.
</event>
<event>
 5    1  0.7702600E-002  0.6000000E+02  0.7546771E-02  0.1259629E+00
         11   -1    0    0    0    0  0.00000000000E+00  0.00000000000E+00  0.30000000000E+02  0.30000000000E+02  0.00000000000E+00 0.  1.
        -11   -1    0    0    0    0 -0.00000000000E+00 -0.00000000000E+00 -0.30000000000E+02  0.30000000000E+02  0.00000000000E+00 0. -1.
         23    2    1    2    0    0  0.00000000000E+00  0.00000000000E+00  0.00000000000E+00  0.60000000000E+02  0.60000000000E+02 0.  0.
          5    1    3    3  501    0 -0.15396813065E+02 -0.12928537944E+02 -0.21764674454E+02  0.30000000000E+02  0.47000000000E+01 0. -1.
         -5    1    3    3    0  501  0.15396813065E+02  0.12928537944E+02  0.21764674454E+02  0.30000000000E+02  0.47000000000E+01 0.  1.
</event>
<event>
 5    1  0.7702600E-002  0.6000000E+02  0.7546771E-02  0.1259629E+00
         11   -1    0    0    0    0  0.00000000000E+00  0.00000000000E+00  0.30000000000E+02  0.30000000000E+02  0.00000000000E+00 0.  1.
        -11   -1    0    0    0    0 -0.00000000000E+00 -0.00000000000E+00 -0.30000000000E+02  0.30000000000E+02  0.00000000000E+00 0. -1.
         23    2    1    2    0    0  0.00000000000E+00  0.00000000000E+00  0.00000000000E+00  0.60000000000E+02  0.60000000000E+02 0.  0.
          5    1    3    3  501    0  0.65779089253E+01 -0.73123587320E+01 -0.27949427972E+02  0.30000000000E+02  0.47000000000E+01 0. -1.
         -5    1    3    3    0  501 -0.65779089253E+01  0.73123587320E+01  0.27949427972E+02  0.30000000000E+02  0.47000000000E+01 0.  1.
</event>
<event>
 5    1  0.7702600E-002  0.6000000E+02  0.7546771E-02  0.1259629E+00
         11   -1    0    0    0    0  0.00000000000E+00  0.00000000000E+00  0.30000000000E+02  0.30000000000E+02  0.00000000000E+00 0.  1.
        -11   -1    0    0    0    0 -0.00000000000E+00 -0.00000000000E+00 -0.30000000000E+02  0.30000000000E+02  0.00000000000E+00 0. -1.
         23    2    1    2    0    0  0.00000000000E+00  0.00000000000E+00  0.00000000000E+00  0.60000000000E+02  0.60000000000E+02 0.  0.
          5    1    3    3  501    0  0.27426890033E+02  0.68791683991E+01 -0.88517086065E+01  0.30000000000E+02  0.47000000000E+01 0. -1.
         -5    1    3    3    0  501 -0.27426890033E+02 -0.68791683991E+01  0.88517086065E+01  0.30000000000E+02  0.47000000000E+01 0.  1.
</event>
<event>
 5    1  0.7702600E-002  0.6000000E+02  0.7546771E-02  0.1259629E+00
         11   -1    0    0    0    0  0.00000000000E+00  0.00000000000E+00  0.30000000000E+02  0.30000000000E+02  0.00000000000E+00 0.  1.
        -11   -1    0    0    0    0 -0.00000000000E+00 -0.00000000000E+00 -0.30000000000E+02  0.30000000000E+02  0.00000000000E+00 0. -1.
         23    2    1    2    0    0  0.00000000000E+00  0.00000000000E+00  0.00000000000E+00  0.60000000000E+02  0.60000000000E+02 0.  0.
          5    1    3    3  501    0 -0.10767332657E+01  0.93949835160E+01 -0.28079973828E+02  0.30000000000E+02  0.47000000000E+01 0. -1.
         -5    1    3    3    0  501  0.10767332657E+01 -0.93949835160E+01  0.28079973828E+02  0.30000000000E+02  0.47000000000E+01 0.  1.
</event>
<event>
 5    1  0.7702600E-002  0.6000000E+02  0.7546771E-02  0.1259629E+00
         11   -1    0    0    0    0  0.00000000000E+00  0.00000000000E+00  0.30000000000E+02  0.30000000000E+02  0.00000000000E+00 0.  1.
        -11   -1    0    0    0    0 -0.00000000000E+00 -0.00000000000E+00 -0.30000000000E+02  0.30000000000E+02  0.00000000000E+00 0. -1.
         23    2    1    2    0    0  0.00000000000E+00  0.00000000000E+00  0.00000000000E+00  0.60000000000E+02  0.60000000000E+02 0.  0.
          5    1    3    3  501    0 -0.18795993938E+02  0.17734500432E+02 -0.14495106288E+02  0.30000000000E+02  0.47000000000E+01 0. -1.
         -5    1    3    3    0  501  0.18795993938E+02 -0.17734500432E+02  0.14495106288E+02  0.30000000000E+02  0.47000000000E+01 0.  1.
</event>
<event>
 5    1  0.7702600E-002  0.6000000E+02  0.7546771E-02  0.1259629E+00
         11   -1    0    0    0    0  0.00000000000E+00  0.00000000000E+00  0.30000000000E+02  0.30000000000E+02  0.00000000000E+00 0.  1.
        -11   -1    0    0    0    0 -0.00000000000E+00 -0.00000000000E+00 -0.30000000000E+02  0.30000000000E+02  0.00000000000E+00 0. -1.
         23    2    1    2    0    0  0.00000000000E+00  0.00000000000E+00  0.00000000000E+00  0.60000000000E+02  0.60000000000E+02 0.  0.
          5    1    3    3  501    0  0.19494859374E+01  0.29255132156E+02 -0.42716211313E+01  0.30000000000E+02  0.47000000000E+01 0.  1.
         -5    1    3    3    0  501 -0.19494859374E+01 -0.29255132156E+02  0.42716211313E+01  0.30000000000E+02  0.47000000000E+01 0. -1.
</event>
<event>
 5    1  0.7702600E-002  0.6000000E+02  0.7546771E-02  0.1259629E+00
         11   -1    0    0    0    0  0.00000000000E+00  0.00000000000E+00  0.30000000000E+02  0.30000000000E+02  0.00000000000E+00 0.  1.
        -11   -1    0    0    0    0 -0.00000000000E+00 -0.00000000000E+00 -0.30000000000E+02  0.30000000000E+02  0.00000000000E+00 0. -1.
         23    2    1    2    0    0  0.00000000000E+00  0.00000000000E+00  0.00000000000E+00  0.60000000000E+02  0.60000000000E+02 0.  0.
          5    1    3    3  501    0 -0.52501525738E+01  0.28156358752E+01 -0.29024439574E+02  0.30000000000E+02  0.47000000000E+01 0. -1.
         -5    1    3    3    0  501  0.52501525738E+01 -0.28156358752E+01  0.29024439574E+02  0.30000000000E+02  0.47000000000E+01 0.  1.
</event>
<event>
 5    1  0.7702600E-002  0.6000000E+02  0.7546771E-02  0.1259629E+00
         11   -1    0    0    0    0  0.00000000000E+00  0.00000000000E+00  0.30000000000E+02  0.30000000000E+02  0.00000000000E+00 0.  1.
        -11   -1    0    0    0    0 -0.00000000000E+00 -0.00000000000E+00 -0.30000000000E+02  0.30000000000E+02  0.00000000000E+00 0. -1.
         23    2    1    2    0    0  0.00000000000E+00  0.00000000000E+00  0.00000000000E+00  0.60000000000E+02  0.60000000000E+02 0.  0.
          5    1    3    3  501    0 -0.29331047804E+02  0.25398785421E+01  0.33389596744E+01  0.30000000000E+02  0.47000000000E+01 0. -1.
         -5    1    3    3    0  501  0.29331047804E+02 -0.25398785421E+01 -0.33389596744E+01  0.30000000000E+02  0.47000000000E+01 0.  1.
</event>
<event>
 5    1  0.7702600E-002  0.6000000E+02  0.7546771E-02  0.1259629E+00
         11   -1    0    0    0    0  0.00000000000E+00  0.00000000000E+00  0.30000000000E+02  0.30000000000E+02  0.00000000000E+00 0. -1.
        -11   -1    0    0    0    0 -0.00000000000E+00 -0.00000000000E+00 -0.30000000000E+02  0.30000000000E+02  0.00000000000E+00 0.  1.
         23    2    1    2    0    0  0.00000000000E+00  0.00000000000E+00  0.00000000000E+00  0.60000000000E+02  0.60000000000E+02 0.  0.
          5    1    3    3  501    0  0.19439898628E+02  0.20472938216E+02  0.89921711590E+01  0.30000000000E+02  0.47000000000E+01 0.  1.
         -5    1    3    3    0  501 -0.19439898628E+02 -0.20472938216E+02 -0.89921711590E+01  0.30000000000E+02  0.47000000000E+01 0. -1.
</event>
<event>
 5    1  0.7702600E-002  0.6000000E+02  0.7546771E-02  0.1259629E+00
         11   -1    0    0    0    0  0.00000000000E+00  0.00000000000E+00  0.30000000000E+02  0.30000000000E+02  0.00000000000E+00 0.  1.
        -11   -1    0    0    0    0 -0.00000000000E+00 -0.00000000000E+00 -0.30000000000E+02  0.30000000000E+02  0.00000000000E+00 0. -1.
         23    2    1    2    0    0  0.00000000000E+00  0.00000000000E+00  0.00000000000E+00  0.60000000000E+02  0.60000000000E+02 0.  0.
          5    1    3    3  501    0 -0.27470100059E+02  0.14942444653E+01  0.11003219357E+02  0.30000000000E+02  0.47000000000E+01 0.  1.
         -5    1    3    3    0  501  0.27470100059E+02 -0.14942444653E+01 -0.11003219357E+02  0.30000000000E+02  0.47000000000E+01 0. -1.
</event>
<event>
 5    1  0.7702600E-002  0.6000000E+02  0.7546771E-02  0.1259629E+00
         11   -1    0    0    0    0  0.00000000000E+00  0.00000000000E+00  0.30000000000E+02  0.30000000000E+02  0.00000000000E+00 0.  1.
        -11   -1    0    0    0    0 -0.00000000000E+00 -0.00000000000E+00 -0.30000000000E+02  0.30000000000E+02  0.00000000000E+00 0. -1.
         23    2    1    2    0    0  0.00000000000E+00  0.00000000000E+00  0.00000000000E+00  0.60000000000E+02  0.60000000000E+02 0.  0.
          5    1    3    3  501    0  0.36748131526E+01  0.26775511926E+02 -0.12144040077E+02  0.30000000000E+02  0.47000000000E+01 0. -1.
         -5    1    3    3    0  501 -0.36748131526E+01 -0.26775511926E+02  0.12144040077E+02  0.30000000000E+02  0.47000000000E+01 0.  1.
</event>
<event>
 5    1  0.7702600E-002  0.6000000E+02  0.7546771E-02  0.1259629E+00
         11   -1    0    0    0    0  0.00000000000E+00  0.00000000000E+00  0.30000000000E+02  0.30000000000E+02  0.00000000000E+00 0. -1.
        -11   -1    0    0    0    0 -0.00000000000E+00 -0.00000000000E+00 -0.30000000000E+02  0.30000000000E+02  0.00000000000E+00 0.  1.
         23    2    1    2    0    0  0.00000000000E+00  0.00000000000E+00  0.00000000000E+00  0.60000000000E+02  0.60000000000E+02 0.  0.
          5    1    3    3  501    0  0.12972417609E+02  0.18748476325E+02  0.18924085628E+02  0.30000000000E+02  0.47000000000E+01 0. -1.
         -5    1    3    3    0  501 -0.12972417609E+02 -0.18748476325E+02 -0.18924085628E+02  0.30000000000E+02  0.47000000000E+01 0.  1.
</event>
<event>
 5    1  0.7702600E-002  0.6000000E+02  0.7546771E-02  0.1259629E+00
         11   -1    0    0    0    0  0.00000000000E+00  0.00000000000E+00  0.30000000000E+02  0.30000000000E+02  0.00000000000E+00 0.  1.
        -11   -1    0    0    0    0 -0.00000000000E+00 -0.00000000000E+00 -0.30000000000E+02  0.30000000000E+02  0.00000000000E+00 0. -1.
         23    2    1    2    0    0  0.00000000000E+00  0.00000000000E+00  0.00000000000E+00  0.60000000000E+02  0.60000000000E+02 0.  0.
          5    1    3    3  501    0  0.17747684764E+02  0.13762044188E+02  0.19327074929E+02  0.30000000000E+02  0.47000000000E+01 0.  1.
         -5    1    3    3    0  501 -0.17747684764E+02 -0.13762044188E+02 -0.19327074929E+02  0.30000000000E+02  0.47000000000E+01 0. -1.
</event>
<event>
 5    1  0.7702600E-002  0.6000000E+02  0.7546771E-02  0.1259629E+00
         11   -1    0    0    0    0  0.00000000000E+00  0.00000000000E+00  0.30000000000E+02  0.30000000000E+02  0.00000000000E+00 0.  1.
        -11   -1    0    0    0    0 -0.00000000000E+00 -0.00000000000E+00 -0.30000000000E+02  0.30000000000E+02  0.00000000000E+00 0. -1.
         23    2    1    2    0    0  0.00000000000E+00  0.00000000000E+00  0.00000000000E+00  0.60000000000E+02  0.60000000000E+02 0.  0.
          5    1    3    3  501    0  0.11806731021E+02  0.24555436768E+02 -0.11642234654E+02  0.30000000000E+02  0.47000000000E+01 0. -1.
         -5    1    3    3    0  501 -0.11806731021E+02 -0.24555436768E+02  0.11642234654E+02  0.30000000000E+02  0.47000000000E+01 0.  1.
</event>
<event>
 5    1  0.7702600E-002  0.6000000E+02  0.7546771E-02  0.1259629E+00
         11   -1    0    0    0    0  0.00000000000E+00  0.00000000000E+00  0.30000000000E+02  0.30000000000E+02  0.00000000000E+00 0.  1.
        -11   -1    0    0    0    0 -0.00000000000E+00 -0.00000000000E+00 -0.30000000000E+02  0.30000000000E+02  0.00000000000E+00 0. -1.
         23    2    1    2    0    0  0.00000000000E+00  0.00000000000E+00  0.00000000000E+00  0.60000000000E+02  0.60000000000E+02 0.  0.
          5    1    3    3  501    0  0.13285451911E+02  0.99370391829E+01 -0.24549175542E+02  0.30000000000E+02  0.47000000000E+01 0. -1.
         -5    1    3    3    0  501 -0.13285451911E+02 -0.99370391829E+01  0.24549175542E+02  0.30000000000E+02  0.47000000000E+01 0.  1.
</event>
<event>
 5    1  0.7702600E-002  0.6000000E+02  0.7546771E-02  0.1259629E+00
         11   -1    0    0    0    0  0.00000000000E+00  0.00000000000E+00  0.30000000000E+02  0.30000000000E+02  0.00000000000E+00 0.  1.
        -11   -1    0    0    0    0 -0.00000000000E+00 -0.00000000000E+00 -0.30000000000E+02  0.30000000000E+02  0.00000000000E+00 0. -1.
         23    2    1    2    0    0  0.00000000000E+00  0.00000000000E+00  0.00000000000E+00  0.60000000000E+02  0.60000000000E+02 0.  0.
          5    1    3    3  501    0  0.20594663837E+02  0.24098168227E+01 -0.21165127080E+02  0.30000000000E+02  0.47000000000E+01 0. -1.
         -5    1    3    3    0  501 -0.20594663837E+02 -0.24098168227E+01  0.21165127080E+02  0.30000000000E+02  0.47000000000E+01 0.  1.
</event>
<event>
 5    1  0.7702600E-002  0.6000000E+02  0.7546771E-02  0.1259629E+00
         11   -1    0    0    0    0  0.00000000000E+00  0.00000000000E+00  0.30000000000E+02  0.30000000000E+02  0.00000000000E+00 0.  1.
        -11   -1    0    0    0    0 -0.00000000000E+00 -0.00000000000E+00 -0.30000000000E+02  0.30000000000E+02  0.00000000000E+00 0. -1.
         23    2    1    2    0    0  0.00000000000E+00  0.00000000000E+00  0.00000000000E+00  0.60000000000E+02  0.60000000000E+02 0.  0.
          5    1    3    3  501    0  0.81546363688E+01  0.19440473245E+02 -0.20820180252E+02  0.30000000000E+02  0.47000000000E+01 0. -1.
         -5    1    3    3    0  501 -0.81546363688E+01 -0.19440473245E+02  0.20820180252E+02  0.30000000000E+02  0.47000000000E+01 0.  1.
</event>
<event>
 5    1  0.7702600E-002  0.6000000E+02  0.7546771E-02  0.1259629E+00
         11   -1    0    0    0    0  0.00000000000E+00  0.00000000000E+00  0.30000000000E+02  0.30000000000E+02  0.00000000000E+00 0. -1.
        -11   -1    0    0    0    0 -0.00000000000E+00 -0.00000000000E+00 -0.30000000000E+02  0.30000000000E+02  0.00000000000E+00 0.  1.
         23    2    1    2    0    0  0.00000000000E+00  0.00000000000E+00  0.00000000000E+00  0.60000000000E+02  0.60000000000E+02 0.  0.
          5    1    3    3  501    0 -0.18927042283E+02  0.21152710910E+02 -0.84994053659E+01  0.30000000000E+02  0.47000000000E+01 0.  1.
         -5    1    3    3    0  501  0.18927042283E+02 -0.21152710910E+02  0.84994053659E+01  0.30000000000E+02  0.47000000000E+01 0. -1.
</event>
<event>
 5    1  0.7702600E-002  0.6000000E+02  0.7546771E-02  0.1259629E+00
         11   -1    0    0    0    0  0.00000000000E+00  0.00000000000E+00  0.30000000000E+02  0.30000000000E+02  0.00000000000E+00 0.  1.
        -11   -1    0    0    0    0 -0.00000000000E+00 -0.00000000000E+00 -0.30000000000E+02  0.30000000000E+02  0.00000000000E+00 0. -1.
         23    2    1    2    0    0  0.00000000000E+00  0.00000000000E+00  0.00000000000E+00  0.60000000000E+02  0.60000000000E+02 0.  0.
          5    1    3    3  501    0  0.79197278203E+01  0.28542231853E+02  0.72726343397E+00  0.30000000000E+02  0.47000000000E+01 0. -1.
         -5    1    3    3    0  501 -0.79197278203E+01 -0.28542231853E+02 -0.72726343397E+00  0.30000000000E+02  0.47000000000E+01 0.  1.
</event>
<event>
 5    1  0.7702600E-002  0.6000000E+02  0.7546771E-02  0.1259629E+00
         11   -1    0    0    0    0  0.00000000000E+00  0.00000000000E+00  0.30000000000E+02  0.30000000000E+02  0.00000000000E+00 0.  1.
        -11   -1    0    0    0    0 -0.00000000000E+00 -0.00000000000E+00 -0.30000000000E+02  0.30000000000E+02  0.00000000000E+00 0. -1.
         23    2    1    2    0    0  0.00000000000E+00  0.00000000000E+00  0.00000000000E+00  0.60000000000E+02  0.60000000000E+02 0.  0.
          5    1    3    3  501    0  0.23911209965E+02  0.12176945543E+02  0.12565270997E+02  0.30000000000E+02  0.47000000000E+01 0. -1.
         -5    1    3    3    0  501 -0.23911209965E+02 -0.12176945543E+02 -0.12565270997E+02  0.30000000000E+02  0.47000000000E+01 0.  1.
</event>
<event>
 5    1  0.7702600E-002  0.6000000E+02  0.7546771E-02  0.1259629E+00
         11   -1    0    0    0    0  0.00000000000E+00  0.00000000000E+00  0.30000000000E+02  0.30000000000E+02  0.00000000000E+00 0.  1.
        -11   -1    0    0    0    0 -0.00000000000E+00 -0.00000000000E+00 -0.30000000000E+02  0.30000000000E+02  0.00000000000E+00 0. -1.
         23    2    1    2    0    0  0.00000000000E+00  0.00000000000E+00  0.00000000000E+00  0.60000000000E+02  0.60000000000E+02 0.  0.
          5    1    3    3  501    0  0.60521777726E+01 -0.18817945142E+02 -0.22071839182E+02  0.30000000000E+02  0.47000000000E+01 0. -1.
         -5    1    3    3    0  501 -0.60521777726E+01  0.18817945142E+02  0.22071839182E+02  0.30000000000E+02  0.47000000000E+01 0.  1.
</event>
<event>
 5    1  0.7702600E-002  0.6000000E+02  0.7546771E-02  0.1259629E+00
         11   -1    0    0    0    0  0.00000000000E+00  0.00000000000E+00  0.30000000000E+02  0.30000000000E+02  0.00000000000E+00 0. -1.
        -11   -1    0    0    0    0 -0.00000000000E+00 -0.00000000000E+00 -0.30000000000E+02  0.30000000000E+02  0.00000000000E+00 0.  1.
         23    2    1    2    0    0  0.00000000000E+00  0.00000000000E+00  0.00000000000E+00  0.60000000000E+02  0.60000000000E+02 0.  0.
          5    1    3    3  501    0  0.20892597854E+01  0.20887419944E+02 -0.20910779078E+02  0.30000000000E+02  0.47000000000E+01 0.  1.
         -5    1    3    3    0  501 -0.20892597854E+01 -0.20887419944E+02  0.20910779078E+02  0.30000000000E+02  0.47000000000E+01 0. -1.
</event>
<event>
 5    1  0.7702600E-002  0.6000000E+02  0.7546771E-02  0.1259629E+00
         11   -1    0    0    0    0  0.00000000000E+00  0.00000000000E+00  0.30000000000E+02  0.30000000000E+02  0.00000000000E+00 0.  1.
        -11   -1    0    0    0    0 -0.00000000000E+00 -0.00000000000E+00 -0.30000000000E+02  0.30000000000E+02  0.00000000000E+00 0. -1.
         23    2    1    2    0    0  0.00000000000E+00  0.00000000000E+00  0.00000000000E+00  0.60000000000E+02  0.60000000000E+02 0.  0.
          5    1    3    3  501    0  0.91408030663E+01  0.81784873596E+01 -0.26971615892E+02  0.30000000000E+02  0.47000000000E+01 0. -1.
         -5    1    3    3    0  501 -0.91408030663E+01 -0.81784873596E+01  0.26971615892E+02  0.30000000000E+02  0.47000000000E+01 0.  1.
</event>
<event>
 5    1  0.7702600E-002  0.6000000E+02  0.7546771E-02  0.1259629E+00
         11   -1    0    0    0    0  0.00000000000E+00  0.00000000000E+00  0.30000000000E+02  0.30000000000E+02  0.00000000000E+00 0.  1.
        -11   -1    0    0    0    0 -0.00000000000E+00 -0.00000000000E+00 -0.30000000000E+02  0.30000000000E+02  0.00000000000E+00 0. -1.
         23    2    1    2    0    0  0.00000000000E+00  0.00000000000E+00  0.00000000000E+00  0.60000000000E+02  0.60000000000E+02 0.  0.
          5    1    3    3  501    0  0.24245586134E+02 -0.15894272841E+02 -0.61183040042E+01  0.30000000000E+02  0.47000000000E+01 0.  1.
         -5    1    3    3    0  501 -0.24245586134E+02  0.15894272841E+02  0.61183040042E+01  0.30000000000E+02  0.47000000000E+01 0. -1.
</event>
<event>
 5    1  0.7702600E-002  0.6000000E+02  0.7546771E-02  0.1259629E+00
         11   -1    0    0    0    0  0.00000000000E+00  0.00000000000E+00  0.30000000000E+02  0.30000000000E+02  0.00000000000E+00 0.  1.
        -11   -1    0    0    0    0 -0.00000000000E+00 -0.00000000000E+00 -0.30000000000E+02  0.30000000000E+02  0.00000000000E+00 0. -1.
         23    2    1    2    0    0  0.00000000000E+00  0.00000000000E+00  0.00000000000E+00  0.60000000000E+02  0.60000000000E+02 0.  0.
          5    1    3    3  501    0 -0.73568313597E+00  0.29399021857E+01 -0.29474153855E+02  0.30000000000E+02  0.47000000000E+01 0. -1.
         -5    1    3    3    0  501  0.73568313597E+00 -0.29399021857E+01  0.29474153855E+02  0.30000000000E+02  0.47000000000E+01 0.  1.
</event>
<event>
 5    1  0.7702600E-002  0.6000000E+02  0.7546771E-02  0.1259629E+00
         11   -1    0    0    0    0  0.00000000000E+00  0.00000000000E+00  0.30000000000E+02  0.30000000000E+02  0.00000000000E+00 0.  1.
        -11   -1    0    0    0    0 -0.00000000000E+00 -0.00000000000E+00 -0.30000000000E+02  0.30000000000E+02  0.00000000000E+00 0. -1.
         23    2    1    2    0    0  0.00000000000E+00  0.00000000000E+00  0.00000000000E+00  0.60000000000E+02  0.60000000000E+02 0.  0.
          5    1    3    3  501    0 -0.23299527139E+02  0.92659877345E+01 -0.15785547390E+02  0.30000000000E+02  0.47000000000E+01 0. -1.
         -5    1    3    3    0  501  0.23299527139E+02 -0.92659877345E+01  0.15785547390E+02  0.30000000000E+02  0.47000000000E+01 0.  1.
</event>
<event>
 5    1  0.7702600E-002  0.6000000E+02  0.7546771E-02  0.1259629E+00
         11   -1    0    0    0    0  0.00000000000E+00  0.00000000000E+00  0.30000000000E+02  0.30000000000E+02  0.00000000000E+00 0.  1.
        -11   -1    0    0    0    0 -0.00000000000E+00 -0.00000000000E+00 -0.30000000000E+02  0.30000000000E+02  0.00000000000E+00 0. -1.
         23    2    1    2    0    0  0.00000000000E+00  0.00000000000E+00  0.00000000000E+00  0.60000000000E+02  0.60000000000E+02 0.  0.
          5    1    3    3  501    0  0.76992410948E+00  0.28621257182E+02 -0.76250150290E+01  0.30000000000E+02  0.47000000000E+01 0. -1.
         -5    1    3    3    0  501 -0.76992410948E+00 -0.28621257182E+02  0.76250150290E+01  0.30000000000E+02  0.47000000000E+01 0.  1.
</event>
<event>
 5    1  0.7702600E-002  0.6000000E+02  0.7546771E-02  0.1259629E+00
         11   -1    0    0    0    0  0.00000000000E+00  0.00000000000E+00  0.30000000000E+02  0.30000000000E+02  0.00000000000E+00 0.  1.
        -11   -1    0    0    0    0 -0.00000000000E+00 -0.00000000000E+00 -0.30000000000E+02  0.30000000000E+02  0.00000000000E+00 0. -1.
         23    2    1    2    0    0  0.00000000000E+00  0.00000000000E+00  0.00000000000E+00  0.60000000000E+02  0.60000000000E+02 0.  0.
          5    1    3    3  501    0  0.14967005842E+01 -0.14222294459E+02 -0.25949879146E+02  0.30000000000E+02  0.47000000000E+01 0. -1.
         -5    1    3    3    0  501 -0.14967005842E+01  0.14222294459E+02  0.25949879146E+02  0.30000000000E+02  0.47000000000E+01 0.  1.
</event>
<event>
 5    1  0.7702600E-002  0.6000000E+02  0.7546771E-02  0.1259629E+00
         11   -1    0    0    0    0  0.00000000000E+00  0.00000000000E+00  0.30000000000E+02  0.30000000000E+02  0.00000000000E+00 0.  1.
        -11   -1    0    0    0    0 -0.00000000000E+00 -0.00000000000E+00 -0.30000000000E+02  0.30000000000E+02  0.00000000000E+00 0. -1.
         23    2    1    2    0    0  0.00000000000E+00  0.00000000000E+00  0.00000000000E+00  0.60000000000E+02  0.60000000000E+02 0.  0.
          5    1    3    3  501    0 -0.21401912828E+02  0.97550403180E+01 -0.18019636946E+02  0.30000000000E+02  0.47000000000E+01 0. -1.
         -5    1    3    3    0  501  0.21401912828E+02 -0.97550403180E+01  0.18019636946E+02  0.30000000000E+02  0.47000000000E+01 0.  1.
</event>
<event>
 5    1  0.7702600E-002  0.6000000E+02  0.7546771E-02  0.1259629E+00
         11   -1    0    0    0    0  0.00000000000E+00  0.00000000000E+00  0.30000000000E+02  0.30000000000E+02  0.00000000000E+00 0.  1.
        -11   -1    0    0    0    0 -0.00000000000E+00 -0.00000000000E+00 -0.30000000000E+02  0.30000000000E+02  0.00000000000E+00 0. -1.
         23    2    1    2    0    0  0.00000000000E+00  0.00000000000E+00  0.00000000000E+00  0.60000000000E+02  0.60000000000E+02 0.  0.
          5    1    3    3  501    0  0.19656221165E+02  0.19672318985E+02 -0.10224619078E+02  0.30000000000E+02  0.47000000000E+01 0. -1.
         -5    1    3    3    0  501 -0.19656221165E+02 -0.19672318985E+02  0.10224619078E+02  0.30000000000E+02  0.47000000000E+01 0.  1.
</event>
<event>
 5    1  0.7702600E-002  0.6000000E+02  0.7546771E-02  0.1259629E+00
         11   -1    0    0    0    0  0.00000000000E+00  0.00000000000E+00  0.30000000000E+02  0.30000000000E+02  0.00000000000E+00 0.  1.
        -11   -1    0    0    0    0 -0.00000000000E+00 -0.00000000000E+00 -0.30000000000E+02  0.30000000000E+02  0.00000000000E+00 0. -1.
         23    2    1    2    0    0  0.00000000000E+00  0.00000000000E+00  0.00000000000E+00  0.60000000000E+02  0.60000000000E+02 0.  0.
          5    1    3    3  501    0  0.19572554306E+02  0.21960511177E+02  0.35441595283E+01  0.30000000000E+02  0.47000000000E+01 0. -1.
         -5    1    3    3    0  501 -0.19572554306E+02 -0.21960511177E+02 -0.35441595283E+01  0.30000000000E+02  0.47000000000E+01 0.  1.
</event>
<event>
 5    1  0.7702600E-002  0.6000000E+02  0.7546771E-02  0.1259629E+00
         11   -1    0    0    0    0  0.00000000000E+00  0.00000000000E+00  0.30000000000E+02  0.30000000000E+02  0.00000000000E+00 0.  1.
        -11   -1    0    0    0    0 -0.00000000000E+00 -0.00000000000E+00 -0.30000000000E+02  0.30000000000E+02  0.00000000000E+00 0. -1.
         23    2    1    2    0    0  0.00000000000E+00  0.00000000000E+00  0.00000000000E+00  0.60000000000E+02  0.60000000000E+02 0.  0.
          5    1    3    3  501    0  0.23912205749E+02 -0.10117912143E+02 -0.14273901712E+02  0.30000000000E+02  0.47000000000E+01 0. -1.
         -5    1    3    3    0  501 -0.23912205749E+02  0.10117912143E+02  0.14273901712E+02  0.30000000000E+02  0.47000000000E+01 0.  1.
</event>
<event>
 5    1  0.7702600E-002  0.6000000E+02  0.7546771E-02  0.1259629E+00
         11   -1    0    0    0    0  0.00000000000E+00  0.00000000000E+00  0.30000000000E+02  0.30000000000E+02  0.00000000000E+00 0. -1.
        -11   -1    0    0    0    0 -0.00000000000E+00 -0.00000000000E+00 -0.30000000000E+02  0.30000000000E+02  0.00000000000E+00 0.  1.
         23    2    1    2    0    0  0.00000000000E+00  0.00000000000E+00  0.00000000000E+00  0.60000000000E+02  0.60000000000E+02 0.  0.
          5    1    3    3  501    0 -0.12091169744E+02 -0.20836285105E+01 -0.26969836975E+02  0.30000000000E+02  0.47000000000E+01 0.  1.
         -5    1    3    3    0  501  0.12091169744E+02  0.20836285105E+01  0.26969836975E+02  0.30000000000E+02  0.47000000000E+01 0. -1.
</event>
<event>
 5    1  0.7702600E-002  0.6000000E+02  0.7546771E-02  0.1259629E+00
         11   -1    0    0    0    0  0.00000000000E+00  0.00000000000E+00  0.30000000000E+02  0.30000000000E+02  0.00000000000E+00 0.  1.
        -11   -1    0    0    0    0 -0.00000000000E+00 -0.00000000000E+00 -0.30000000000E+02  0.30000000000E+02  0.00000000000E+00 0. -1.
         23    2    1    2    0    0  0.00000000000E+00  0.00000000000E+00  0.00000000000E+00  0.60000000000E+02  0.60000000000E+02 0.  0.
          5    1    3    3  501    0 -0.46074429834E+01  0.28523290614E+02 -0.65653150480E+01  0.30000000000E+02  0.47000000000E+01 0. -1.
         -5    1    3    3    0  501  0.46074429834E+01 -0.28523290614E+02  0.65653150480E+01  0.30000000000E+02  0.47000000000E+01 0.  1.
</event>
<event>
 5    1  0.7702600E-002  0.6000000E+02  0.7546771E-02  0.1259629E+00
         11   -1    0    0    0    0  0.00000000000E+00  0.00000000000E+00  0.30000000000E+02  0.30000000000E+02  0.00000000000E+00 0.  1.
        -11   -1    0    0    0    0 -0.00000000000E+00 -0.00000000000E+00 -0.30000000000E+02  0.30000000000E+02  0.00000000000E+00 0. -1.
         23    2    1    2    0    0  0.00000000000E+00  0.00000000000E+00  0.00000000000E+00  0.60000000000E+02  0.60000000000E+02 0.  0.
          5    1    3    3  501    0 -0.96144526325E+01 -0.27748085079E+02 -0.39390449378E+01  0.30000000000E+02  0.47000000000E+01 0. -1.
         -5    1    3    3    0  501  0.96144526325E+01  0.27748085079E+02  0.39390449378E+01  0.30000000000E+02  0.47000000000E+01 0.  1.
</event>
<event>
 5    1  0.7702600E-002  0.6000000E+02  0.7546771E-02  0.1259629E+00
         11   -1    0    0    0    0  0.00000000000E+00  0.00000000000E+00  0.30000000000E+02  0.30000000000E+02  0.00000000000E+00 0. -1.
        -11   -1    0    0    0    0 -0.00000000000E+00 -0.00000000000E+00 -0.30000000000E+02  0.30000000000E+02  0.00000000000E+00 0.  1.
         23    2    1    2    0    0  0.00000000000E+00  0.00000000000E+00  0.00000000000E+00  0.60000000000E+02  0.60000000000E+02 0.  0.
          5    1    3    3  501    0  0.29234963517E+02 -0.37086429181E+01  0.30778037388E+01  0.30000000000E+02  0.47000000000E+01 0.  1.
         -5    1    3    3    0  501 -0.29234963517E+02  0.37086429181E+01 -0.30778037388E+01  0.30000000000E+02  0.47000000000E+01 0. -1.
</event>
<event>
 5    1  0.7702600E-002  0.6000000E+02  0.7546771E-02  0.1259629E+00
         11   -1    0    0    0    0  0.00000000000E+00  0.00000000000E+00  0.30000000000E+02  0.30000000000E+02  0.00000000000E+00 0.  1.
        -11   -1    0    0    0    0 -0.00000000000E+00 -0.00000000000E+00 -0.30000000000E+02  0.30000000000E+02  0.00000000000E+00 0. -1.
         23    2    1    2    0    0  0.00000000000E+00  0.00000000000E+00  0.00000000000E+00  0.60000000000E+02  0.60000000000E+02 0.  0.
          5    1    3    3  501    0  0.34641269759E+01 -0.97368695030E+01 -0.27768744959E+02  0.30000000000E+02  0.47000000000E+01 0. -1.
         -5    1    3    3    0  501 -0.34641269759E+01  0.97368695030E+01  0.27768744959E+02  0.30000000000E+02  0.47000000000E+01 0.  1.
</event>
<event>
 5    1  0.7702600E-002  0.6000000E+02  0.7546771E-02  0.1259629E+00
         11   -1    0    0    0    0  0.00000000000E+00  0.00000000000E+00  0.30000000000E+02  0.30000000000E+02  0.00000000000E+00 0.  1.
        -11   -1    0    0    0    0 -0.00000000000E+00 -0.00000000000E+00 -0.30000000000E+02  0.30000000000E+02  0.00000000000E+00 0. -1.
         23    2    1    2    0    0  0.00000000000E+00  0.00000000000E+00  0.00000000000E+00  0.60000000000E+02  0.60000000000E+02 0.  0.
          5    1    3    3  501    0  0.37127334255E+01 -0.74085381488E+01  0.28447129434E+02  0.30000000000E+02  0.47000000000E+01 0.  1.
         -5    1    3    3    0  501 -0.37127334255E+01  0.74085381488E+01 -0.28447129434E+02  0.30000000000E+02  0.47000000000E+01 0. -1.
</event>
<event>
 5    1  0.7702600E-002  0.6000000E+02  0.7546771E-02  0.1259629E+00
         11   -1    0    0    0    0  0.00000000000E+00  0.00000000000E+00  0.30000000000E+02  0.30000000000E+02  0.00000000000E+00 0.  1.
        -11   -1    0    0    0    0 -0.00000000000E+00 -0.00000000000E+00 -0.30000000000E+02  0.30000000000E+02  0.00000000000E+00 0. -1.
         23    2    1    2    0    0  0.00000000000E+00  0.00000000000E+00  0.00000000000E+00  0.60000000000E+02  0.60000000000E+02 0.  0.
          5    1    3    3  501    0  0.12475026680E+02  0.25361372272E+02  0.88929469685E+01  0.30000000000E+02  0.47000000000E+01 0. -1.
         -5    1    3    3    0  501 -0.12475026680E+02 -0.25361372272E+02 -0.88929469685E+01  0.30000000000E+02  0.47000000000E+01 0.  1.
</event>
<event>
 5    1  0.7702600E-002  0.6000000E+02  0.7546771E-02  0.1259629E+00
         11   -1    0    0    0    0  0.00000000000E+00  0.00000000000E+00  0.30000000000E+02  0.30000000000E+02  0.00000000000E+00 0.  1.
        -11   -1    0    0    0    0 -0.00000000000E+00 -0.00000000000E+00 -0.30000000000E+02  0.30000000000E+02  0.00000000000E+00 0. -1.
         23    2    1    2    0    0  0.00000000000E+00  0.00000000000E+00  0.00000000000E+00  0.60000000000E+02  0.60000000000E+02 0.  0.
          5    1    3    3  501    0  0.21820999681E+02  0.44030038685E+01 -0.19554220257E+02  0.30000000000E+02  0.47000000000E+01 0. -1.
         -5    1    3    3    0  501 -0.21820999681E+02 -0.44030038685E+01  0.19554220257E+02  0.30000000000E+02  0.47000000000E+01 0.  1.
</event>
<event>
 5    1  0.7702600E-002  0.6000000E+02  0.7546771E-02  0.1259629E+00
         11   -1    0    0    0    0  0.00000000000E+00  0.00000000000E+00  0.30000000000E+02  0.30000000000E+02  0.00000000000E+00 0.  1.
        -11   -1    0    0    0    0 -0.00000000000E+00 -0.00000000000E+00 -0.30000000000E+02  0.30000000000E+02  0.00000000000E+00 0. -1.
         23    2    1    2    0    0  0.00000000000E+00  0.00000000000E+00  0.00000000000E+00  0.60000000000E+02  0.60000000000E+02 0.  0.
          5    1    3    3  501    0  0.22466632431E+02 -0.78478935630E+01 -0.17651373710E+02  0.30000000000E+02  0.47000000000E+01 0. -1.
         -5    1    3    3    0  501 -0.22466632431E+02  0.78478935630E+01  0.17651373710E+02  0.30000000000E+02  0.47000000000E+01 0.  1.
</event>
<event>
 5    1  0.7702600E-002  0.6000000E+02  0.7546771E-02  0.1259629E+00
         11   -1    0    0    0    0  0.00000000000E+00  0.00000000000E+00  0.30000000000E+02  0.30000000000E+02  0.00000000000E+00 0.  1.
        -11   -1    0    0    0    0 -0.00000000000E+00 -0.00000000000E+00 -0.30000000000E+02  0.30000000000E+02  0.00000000000E+00 0. -1.
         23    2    1    2    0    0  0.00000000000E+00  0.00000000000E+00  0.00000000000E+00  0.60000000000E+02  0.60000000000E+02 0.  0.
          5    1    3    3  501    0  0.45688590587E+01  0.28664560341E+02 -0.59479834711E+01  0.30000000000E+02  0.47000000000E+01 0. -1.
         -5    1    3    3    0  501 -0.45688590587E+01 -0.28664560341E+02  0.59479834711E+01  0.30000000000E+02  0.47000000000E+01 0.  1.
</event>
<event>
 5    1  0.7702600E-002  0.6000000E+02  0.7546771E-02  0.1259629E+00
         11   -1    0    0    0    0  0.00000000000E+00  0.00000000000E+00  0.30000000000E+02  0.30000000000E+02  0.00000000000E+00 0.  1.
        -11   -1    0    0    0    0 -0.00000000000E+00 -0.00000000000E+00 -0.30000000000E+02  0.30000000000E+02  0.00000000000E+00 0. -1.
         23    2    1    2    0    0  0.00000000000E+00  0.00000000000E+00  0.00000000000E+00  0.60000000000E+02  0.60000000000E+02 0.  0.
          5    1    3    3  501    0 -0.15737989770E+02  0.22696939588E+02 -0.10727283503E+02  0.30000000000E+02  0.47000000000E+01 0. -1.
         -5    1    3    3    0  501  0.15737989770E+02 -0.22696939588E+02  0.10727283503E+02  0.30000000000E+02  0.47000000000E+01 0.  1.
</event>
<event>
 5    1  0.7702600E-002  0.6000000E+02  0.7546771E-02  0.1259629E+00
         11   -1    0    0    0    0  0.00000000000E+00  0.00000000000E+00  0.30000000000E+02  0.30000000000E+02  0.00000000000E+00 0. -1.
        -11   -1    0    0    0    0 -0.00000000000E+00 -0.00000000000E+00 -0.30000000000E+02  0.30000000000E+02  0.00000000000E+00 0.  1.
         23    2    1    2    0    0  0.00000000000E+00  0.00000000000E+00  0.00000000000E+00  0.60000000000E+02  0.60000000000E+02 0.  0.
          5    1    3    3  501    0 -0.21637546667E+02  0.14946461461E+02 -0.13650269741E+02  0.30000000000E+02  0.47000000000E+01 0.  1.
         -5    1    3    3    0  501  0.21637546667E+02 -0.14946461461E+02  0.13650269741E+02  0.30000000000E+02  0.47000000000E+01 0. -1.
</event>
<event>
 5    1  0.7702600E-002  0.6000000E+02  0.7546771E-02  0.1259629E+00
         11   -1    0    0    0    0  0.00000000000E+00  0.00000000000E+00  0.30000000000E+02  0.30000000000E+02  0.00000000000E+00 0. -1.
        -11   -1    0    0    0    0 -0.00000000000E+00 -0.00000000000E+00 -0.30000000000E+02  0.30000000000E+02  0.00000000000E+00 0.  1.
         23    2    1    2    0    0  0.00000000000E+00  0.00000000000E+00  0.00000000000E+00  0.60000000000E+02  0.60000000000E+02 0.  0.
          5    1    3    3  501    0 -0.18148701663E+00  0.29468559837E+02 -0.30791303344E+01  0.30000000000E+02  0.47000000000E+01 0.  1.
         -5    1    3    3    0  501  0.18148701663E+00 -0.29468559837E+02  0.30791303344E+01  0.30000000000E+02  0.47000000000E+01 0. -1.
</event>
<event>
 5    1  0.7702600E-002  0.6000000E+02  0.7546771E-02  0.1259629E+00
         11   -1    0    0    0    0  0.00000000000E+00  0.00000000000E+00  0.30000000000E+02  0.30000000000E+02  0.00000000000E+00 0. -1.
        -11   -1    0    0    0    0 -0.00000000000E+00 -0.00000000000E+00 -0.30000000000E+02  0.30000000000E+02  0.00000000000E+00 0.  1.
         23    2    1    2    0    0  0.00000000000E+00  0.00000000000E+00  0.00000000000E+00  0.60000000000E+02  0.60000000000E+02 0.  0.
          5    1    3    3  501    0  0.27186297079E+02  0.42570538220E+01 -0.10986024935E+02  0.30000000000E+02  0.47000000000E+01 0.  1.
         -5    1    3    3    0  501 -0.27186297079E+02 -0.42570538220E+01  0.10986024935E+02  0.30000000000E+02  0.47000000000E+01 0. -1.
</event>
<event>
 5    1  0.7702600E-002  0.6000000E+02  0.7546771E-02  0.1259629E+00
         11   -1    0    0    0    0  0.00000000000E+00  0.00000000000E+00  0.30000000000E+02  0.30000000000E+02  0.00000000000E+00 0.  1.
        -11   -1    0    0    0    0 -0.00000000000E+00 -0.00000000000E+00 -0.30000000000E+02  0.30000000000E+02  0.00000000000E+00 0. -1.
         23    2    1    2    0    0  0.00000000000E+00  0.00000000000E+00  0.00000000000E+00  0.60000000000E+02  0.60000000000E+02 0.  0.
          5    1    3    3  501    0 -0.44506003149E+01  0.11148265103E+02 -0.27089081602E+02  0.30000000000E+02  0.47000000000E+01 0. -1.
         -5    1    3    3    0  501  0.44506003149E+01 -0.11148265103E+02  0.27089081602E+02  0.30000000000E+02  0.47000000000E+01 0.  1.
</event>
<event>
 5    1  0.7702600E-002  0.6000000E+02  0.7546771E-02  0.1259629E+00
         11   -1    0    0    0    0  0.00000000000E+00  0.00000000000E+00  0.30000000000E+02  0.30000000000E+02  0.00000000000E+00 0.  1.
        -11   -1    0    0    0    0 -0.00000000000E+00 -0.00000000000E+00 -0.30000000000E+02  0.30000000000E+02  0.00000000000E+00 0. -1.
         23    2    1    2    0    0  0.00000000000E+00  0.00000000000E+00  0.00000000000E+00  0.60000000000E+02  0.60000000000E+02 0.  0.
          5    1    3    3  501    0  0.50159983324E+01  0.10084489926E+02 -0.27405342977E+02  0.30000000000E+02  0.47000000000E+01 0. -1.
         -5    1    3    3    0  501 -0.50159983324E+01 -0.10084489926E+02  0.27405342977E+02  0.30000000000E+02  0.47000000000E+01 0.  1.
</event>
<event>
 5    1  0.7702600E-002  0.6000000E+02  0.7546771E-02  0.1259629E+00
         11   -1    0    0    0    0  0.00000000000E+00  0.00000000000E+00  0.30000000000E+02  0.30000000000E+02  0.00000000000E+00 0.  1.
        -11   -1    0    0    0    0 -0.00000000000E+00 -0.00000000000E+00 -0.30000000000E+02  0.30000000000E+02  0.00000000000E+00 0. -1.
         23    2    1    2    0    0  0.00000000000E+00  0.00000000000E+00  0.00000000000E+00  0.60000000000E+02  0.60000000000E+02 0.  0.
          5    1    3    3  501    0  0.27891679254E+02 -0.84500957680E+01  0.53441659664E+01  0.30000000000E+02  0.47000000000E+01 0. -1.
         -5    1    3    3    0  501 -0.27891679254E+02  0.84500957680E+01 -0.53441659664E+01  0.30000000000E+02  0.47000000000E+01 0.  1.
</event>
<event>
 5    1  0.7702600E-002  0.6000000E+02  0.7546771E-02  0.1259629E+00
         11   -1    0    0    0    0  0.00000000000E+00  0.00000000000E+00  0.30000000000E+02  0.30000000000E+02  0.00000000000E+00 0. -1.
        -11   -1    0    0    0    0 -0.00000000000E+00 -0.00000000000E+00 -0.30000000000E+02  0.30000000000E+02  0.00000000000E+00 0.  1.
         23    2    1    2    0    0  0.00000000000E+00  0.00000000000E+00  0.00000000000E+00  0.60000000000E+02  0.60000000000E+02 0.  0.
          5    1    3    3  501    0 -0.27776997841E+02 -0.92607187449E+01  0.45373427521E+01  0.30000000000E+02  0.47000000000E+01 0. -1.
         -5    1    3    3    0  501  0.27776997841E+02  0.92607187449E+01 -0.45373427521E+01  0.30000000000E+02  0.47000000000E+01 0.  1.
</event>
<event>
 5    1  0.7702600E-002  0.6000000E+02  0.7546771E-02  0.1259629E+00
         11   -1    0    0    0    0  0.00000000000E+00  0.00000000000E+00  0.30000000000E+02  0.30000000000E+02  0.00000000000E+00 0.  1.
        -11   -1    0    0    0    0 -0.00000000000E+00 -0.00000000000E+00 -0.30000000000E+02  0.30000000000E+02  0.00000000000E+00 0. -1.
         23    2    1    2    0    0  0.00000000000E+00  0.00000000000E+00  0.00000000000E+00  0.60000000000E+02  0.60000000000E+02 0.  0.
          5    1    3    3  501    0 -0.28797080057E+02 -0.56834372211E+01 -0.40418710468E+01  0.30000000000E+02  0.47000000000E+01 0. -1.
         -5    1    3    3    0  501  0.28797080057E+02  0.56834372211E+01  0.40418710468E+01  0.30000000000E+02  0.47000000000E+01 0.  1.
</event>
<event>
 5    1  0.7702600E-002  0.6000000E+02  0.7546771E-02  0.1259629E+00
         11   -1    0    0    0    0  0.00000000000E+00  0.00000000000E+00  0.30000000000E+02  0.30000000000E+02  0.00000000000E+00 0.  1.
        -11   -1    0    0    0    0 -0.00000000000E+00 -0.00000000000E+00 -0.30000000000E+02  0.30000000000E+02  0.00000000000E+00 0. -1.
         23    2    1    2    0    0  0.00000000000E+00  0.00000000000E+00  0.00000000000E+00  0.60000000000E+02  0.60000000000E+02 0.  0.
          5    1    3    3  501    0 -0.85729842000E+00 -0.11706641380E+02 -0.27205322770E+02  0.30000000000E+02  0.47000000000E+01 0. -1.
         -5    1    3    3    0  501  0.85729842000E+00  0.11706641380E+02  0.27205322770E+02  0.30000000000E+02  0.47000000000E+01 0.  1.
</event>
<event>
 5    1  0.7702600E-002  0.6000000E+02  0.7546771E-02  0.1259629E+00
         11   -1    0    0    0    0  0.00000000000E+00  0.00000000000E+00  0.30000000000E+02  0.30000000000E+02  0.00000000000E+00 0.  1.
        -11   -1    0    0    0    0 -0.00000000000E+00 -0.00000000000E+00 -0.30000000000E+02  0.30000000000E+02  0.00000000000E+00 0. -1.
         23    2    1    2    0    0  0.00000000000E+00  0.00000000000E+00  0.00000000000E+00  0.60000000000E+02  0.60000000000E+02 0.  0.
          5    1    3    3  501    0  0.23148301804E+02  0.41213112551E+01  0.18030000475E+02  0.30000000000E+02  0.47000000000E+01 0. -1.
         -5    1    3    3    0  501 -0.23148301804E+02 -0.41213112551E+01 -0.18030000475E+02  0.30000000000E+02  0.47000000000E+01 0.  1.
</event>
<event>
 5    1  0.7702600E-002  0.6000000E+02  0.7546771E-02  0.1259629E+00
         11   -1    0    0    0    0  0.00000000000E+00  0.00000000000E+00  0.30000000000E+02  0.30000000000E+02  0.00000000000E+00 0. -1.
        -11   -1    0    0    0    0 -0.00000000000E+00 -0.00000000000E+00 -0.30000000000E+02  0.30000000000E+02  0.00000000000E+00 0.  1.
         23    2    1    2    0    0  0.00000000000E+00  0.00000000000E+00  0.00000000000E+00  0.60000000000E+02  0.60000000000E+02 0.  0.
          5    1    3    3  501    0  0.26950482223E+02  0.80166857037E+01 -0.93442098801E+01  0.30000000000E+02  0.47000000000E+01 0.  1.
         -5    1    3    3    0  501 -0.26950482223E+02 -0.80166857037E+01  0.93442098801E+01  0.30000000000E+02  0.47000000000E+01 0. -1.
</event>
<event>
 5    1  0.7702600E-002  0.6000000E+02  0.7546771E-02  0.1259629E+00
         11   -1    0    0    0    0  0.00000000000E+00  0.00000000000E+00  0.30000000000E+02  0.30000000000E+02  0.00000000000E+00 0. -1.
        -11   -1    0    0    0    0 -0.00000000000E+00 -0.00000000000E+00 -0.30000000000E+02  0.30000000000E+02  0.00000000000E+00 0.  1.
         23    2    1    2    0    0  0.00000000000E+00  0.00000000000E+00  0.00000000000E+00  0.60000000000E+02  0.60000000000E+02 0.  0.
          5    1    3    3  501    0 -0.17863830411E+02  0.10809763555E+02 -0.21022430281E+02  0.30000000000E+02  0.47000000000E+01 0.  1.
         -5    1    3    3    0  501  0.17863830411E+02 -0.10809763555E+02  0.21022430281E+02  0.30000000000E+02  0.47000000000E+01 0. -1.
</event>
<event>
 5    1  0.7702600E-002  0.6000000E+02  0.7546771E-02  0.1259629E+00
         11   -1    0    0    0    0  0.00000000000E+00  0.00000000000E+00  0.30000000000E+02  0.30000000000E+02  0.00000000000E+00 0.  1.
        -11   -1    0    0    0    0 -0.00000000000E+00 -0.00000000000E+00 -0.30000000000E+02  0.30000000000E+02  0.00000000000E+00 0. -1.
         23    2    1    2    0    0  0.00000000000E+00  0.00000000000E+00  0.00000000000E+00  0.60000000000E+02  0.60000000000E+02 0.  0.
          5    1    3    3  501    0 -0.19932117282E+02 -0.18831795510E+02  0.11224267394E+02  0.30000000000E+02  0.47000000000E+01 0. -1.
         -5    1    3    3    0  501  0.19932117282E+02  0.18831795510E+02 -0.11224267394E+02  0.30000000000E+02  0.47000000000E+01 0.  1.
</event>
<event>
 5    1  0.7702600E-002  0.6000000E+02  0.7546771E-02  0.1259629E+00
         11   -1    0    0    0    0  0.00000000000E+00  0.00000000000E+00  0.30000000000E+02  0.30000000000E+02  0.00000000000E+00 0.  1.
        -11   -1    0    0    0    0 -0.00000000000E+00 -0.00000000000E+00 -0.30000000000E+02  0.30000000000E+02  0.00000000000E+00 0. -1.
         23    2    1    2    0    0  0.00000000000E+00  0.00000000000E+00  0.00000000000E+00  0.60000000000E+02  0.60000000000E+02 0.  0.
          5    1    3    3  501    0  0.24461964484E+02 -0.15242397572E+02  0.68696149698E+01  0.30000000000E+02  0.47000000000E+01 0.  1.
         -5    1    3    3    0  501 -0.24461964484E+02  0.15242397572E+02 -0.68696149698E+01  0.30000000000E+02  0.47000000000E+01 0. -1.
</event>
<event>
 5    1  0.7702600E-002  0.6000000E+02  0.7546771E-02  0.1259629E+00
         11   -1    0    0    0    0  0.00000000000E+00  0.00000000000E+00  0.30000000000E+02  0.30000000000E+02  0.00000000000E+00 0.  1.
        -11   -1    0    0    0    0 -0.00000000000E+00 -0.00000000000E+00 -0.30000000000E+02  0.30000000000E+02  0.00000000000E+00 0. -1.
         23    2    1    2    0    0  0.00000000000E+00  0.00000000000E+00  0.00000000000E+00  0.60000000000E+02  0.60000000000E+02 0.  0.
          5    1    3    3  501    0 -0.24583648503E+02  0.34465238672E+01 -0.16176393278E+02  0.30000000000E+02  0.47000000000E+01 0. -1.
         -5    1    3    3    0  501  0.24583648503E+02 -0.34465238672E+01  0.16176393278E+02  0.30000000000E+02  0.47000000000E+01 0.  1.
</event>
<event>
 5    1  0.7702600E-002  0.6000000E+02  0.7546771E-02  0.1259629E+00
         11   -1    0    0    0    0  0.00000000000E+00  0.00000000000E+00  0.30000000000E+02  0.30000000000E+02  0.00000000000E+00 0. -1.
        -11   -1    0    0    0    0 -0.00000000000E+00 -0.00000000000E+00 -0.30000000000E+02  0.30000000000E+02  0.00000000000E+00 0.  1.
         23    2    1    2    0    0  0.00000000000E+00  0.00000000000E+00  0.00000000000E+00  0.60000000000E+02  0.60000000000E+02 0.  0.
          5    1    3    3  501    0  0.20968621061E+02  0.11506615073E+02 -0.17487845504E+02  0.30000000000E+02  0.47000000000E+01 0.  1.
         -5    1    3    3    0  501 -0.20968621061E+02 -0.11506615073E+02  0.17487845504E+02  0.30000000000E+02  0.47000000000E+01 0. -1.
</event>
<event>
 5    1  0.7702600E-002  0.6000000E+02  0.7546771E-02  0.1259629E+00
         11   -1    0    0    0    0  0.00000000000E+00  0.00000000000E+00  0.30000000000E+02  0.30000000000E+02  0.00000000000E+00 0.  1.
        -11   -1    0    0    0    0 -0.00000000000E+00 -0.00000000000E+00 -0.30000000000E+02  0.30000000000E+02  0.00000000000E+00 0. -1.
         23    2    1    2    0    0  0.00000000000E+00  0.00000000000E+00  0.00000000000E+00  0.60000000000E+02  0.60000000000E+02 0.  0.
          5    1    3    3  501    0 -0.20526673249E+01 -0.13345789632E+02 -0.26373973079E+02  0.30000000000E+02  0.47000000000E+01 0. -1.
         -5    1    3    3    0  501  0.20526673249E+01  0.13345789632E+02  0.26373973079E+02  0.30000000000E+02  0.47000000000E+01 0.  1.
</event>
<event>
 5    1  0.7702600E-002  0.6000000E+02  0.7546771E-02  0.1259629E+00
         11   -1    0    0    0    0  0.00000000000E+00  0.00000000000E+00  0.30000000000E+02  0.30000000000E+02  0.00000000000E+00 0.  1.
        -11   -1    0    0    0    0 -0.00000000000E+00 -0.00000000000E+00 -0.30000000000E+02  0.30000000000E+02  0.00000000000E+00 0. -1.
         23    2    1    2    0    0  0.00000000000E+00  0.00000000000E+00  0.00000000000E+00  0.60000000000E+02  0.60000000000E+02 0.  0.
          5    1    3    3  501    0  0.11682436721E+02 -0.14173956628E+02 -0.23249293016E+02  0.30000000000E+02  0.47000000000E+01 0. -1.
         -5    1    3    3    0  501 -0.11682436721E+02  0.14173956628E+02  0.23249293016E+02  0.30000000000E+02  0.47000000000E+01 0.  1.
</event>
<event>
 5    1  0.7702600E-002  0.6000000E+02  0.7546771E-02  0.1259629E+00
         11   -1    0    0    0    0  0.00000000000E+00  0.00000000000E+00  0.30000000000E+02  0.30000000000E+02  0.00000000000E+00 0.  1.
        -11   -1    0    0    0    0 -0.00000000000E+00 -0.00000000000E+00 -0.30000000000E+02  0.30000000000E+02  0.00000000000E+00 0. -1.
         23    2    1    2    0    0  0.00000000000E+00  0.00000000000E+00  0.00000000000E+00  0.60000000000E+02  0.60000000000E+02 0.  0.
          5    1    3    3  501    0  0.19886166637E+02  0.13114007805E+02 -0.17620249026E+02  0.30000000000E+02  0.47000000000E+01 0. -1.
         -5    1    3    3    0  501 -0.19886166637E+02 -0.13114007805E+02  0.17620249026E+02  0.30000000000E+02  0.47000000000E+01 0.  1.
</event>
<event>
 5    1  0.7702600E-002  0.6000000E+02  0.7546771E-02  0.1259629E+00
         11   -1    0    0    0    0  0.00000000000E+00  0.00000000000E+00  0.30000000000E+02  0.30000000000E+02  0.00000000000E+00 0.  1.
        -11   -1    0    0    0    0 -0.00000000000E+00 -0.00000000000E+00 -0.30000000000E+02  0.30000000000E+02  0.00000000000E+00 0. -1.
         23    2    1    2    0    0  0.00000000000E+00  0.00000000000E+00  0.00000000000E+00  0.60000000000E+02  0.60000000000E+02 0.  0.
          5    1    3    3  501    0  0.52213950864E+01 -0.56196888599E+01 -0.28619331412E+02  0.30000000000E+02  0.47000000000E+01 0. -1.
         -5    1    3    3    0  501 -0.52213950864E+01  0.56196888599E+01  0.28619331412E+02  0.30000000000E+02  0.47000000000E+01 0.  1.
</event>
<event>
 5    1  0.7702600E-002  0.6000000E+02  0.7546771E-02  0.1259629E+00
         11   -1    0    0    0    0  0.00000000000E+00  0.00000000000E+00  0.30000000000E+02  0.30000000000E+02  0.00000000000E+00 0.  1.
        -11   -1    0    0    0    0 -0.00000000000E+00 -0.00000000000E+00 -0.30000000000E+02  0.30000000000E+02  0.00000000000E+00 0. -1.
         23    2    1    2    0    0  0.00000000000E+00  0.00000000000E+00  0.00000000000E+00  0.60000000000E+02  0.60000000000E+02 0.  0.
          5    1    3    3  501    0 -0.28270605970E+02 -0.84104942654E+01  0.28189402830E+01  0.30000000000E+02  0.47000000000E+01 0. -1.
         -5    1    3    3    0  501  0.28270605970E+02  0.84104942654E+01 -0.28189402830E+01  0.30000000000E+02  0.47000000000E+01 0.  1.
</event>
<event>
 5    1  0.7702600E-002  0.6000000E+02  0.7546771E-02  0.1259629E+00
         11   -1    0    0    0    0  0.00000000000E+00  0.00000000000E+00  0.30000000000E+02  0.30000000000E+02  0.00000000000E+00 0. -1.
        -11   -1    0    0    0    0 -0.00000000000E+00 -0.00000000000E+00 -0.30000000000E+02  0.30000000000E+02  0.00000000000E+00 0.  1.
         23    2    1    2    0    0  0.00000000000E+00  0.00000000000E+00  0.00000000000E+00  0.60000000000E+02  0.60000000000E+02 0.  0.
          5    1    3    3  501    0  0.18799989636E+02  0.72843952703E+01  0.21711931633E+02  0.30000000000E+02  0.47000000000E+01 0. -1.
         -5    1    3    3    0  501 -0.18799989636E+02 -0.72843952703E+01 -0.21711931633E+02  0.30000000000E+02  0.47000000000E+01 0.  1.
</event>
<event>
 5    1  0.7702600E-002  0.6000000E+02  0.7546771E-02  0.1259629E+00
         11   -1    0    0    0    0  0.00000000000E+00  0.00000000000E+00  0.30000000000E+02  0.30000000000E+02  0.00000000000E+00 0.  1.
        -11   -1    0    0    0    0 -0.00000000000E+00 -0.00000000000E+00 -0.30000000000E+02  0.30000000000E+02  0.00000000000E+00 0. -1.
         23    2    1    2    0    0  0.00000000000E+00  0.00000000000E+00  0.00000000000E+00  0.60000000000E+02  0.60000000000E+02 0.  0.
          5    1    3    3  501    0  0.18828916034E+02  0.85039375424E+01 -0.21238290121E+02  0.30000000000E+02  0.47000000000E+01 0. -1.
         -5    1    3    3    0  501 -0.18828916034E+02 -0.85039375424E+01  0.21238290121E+02  0.30000000000E+02  0.47000000000E+01 0.  1.
</event>
<event>
 5    1  0.7702600E-002  0.6000000E+02  0.7546771E-02  0.1259629E+00
         11   -1    0    0    0    0  0.00000000000E+00  0.00000000000E+00  0.30000000000E+02  0.30000000000E+02  0.00000000000E+00 0. -1.
        -11   -1    0    0    0    0 -0.00000000000E+00 -0.00000000000E+00 -0.30000000000E+02  0.30000000000E+02  0.00000000000E+00 0.  1.
         23    2    1    2    0    0  0.00000000000E+00  0.00000000000E+00  0.00000000000E+00  0.60000000000E+02  0.60000000000E+02 0.  0.
          5    1    3    3  501    0 -0.20072466225E+02 -0.18992690522E+02  0.10690360442E+02  0.30000000000E+02  0.47000000000E+01 0. -1.
         -5    1    3    3    0  501  0.20072466225E+02  0.18992690522E+02 -0.10690360442E+02  0.30000000000E+02  0.47000000000E+01 0.  1.
</event>
<event>
 5    1  0.7702600E-002  0.6000000E+02  0.7546771E-02  0.1259629E+00
         11   -1    0    0    0    0  0.00000000000E+00  0.00000000000E+00  0.30000000000E+02  0.30000000000E+02  0.00000000000E+00 0.  1.
        -11   -1    0    0    0    0 -0.00000000000E+00 -0.00000000000E+00 -0.30000000000E+02  0.30000000000E+02  0.00000000000E+00 0. -1.
         23    2    1    2    0    0  0.00000000000E+00  0.00000000000E+00  0.00000000000E+00  0.60000000000E+02  0.60000000000E+02 0.  0.
          5    1    3    3  501    0  0.14185436985E+02 -0.24438662176E+02  0.89126409428E+01  0.30000000000E+02  0.47000000000E+01 0. -1.
         -5    1    3    3    0  501 -0.14185436985E+02  0.24438662176E+02 -0.89126409428E+01  0.30000000000E+02  0.47000000000E+01 0.  1.
</event>
<event>
 5    1  0.7702600E-002  0.6000000E+02  0.7546771E-02  0.1259629E+00
         11   -1    0    0    0    0  0.00000000000E+00  0.00000000000E+00  0.30000000000E+02  0.30000000000E+02  0.00000000000E+00 0.  1.
        -11   -1    0    0    0    0 -0.00000000000E+00 -0.00000000000E+00 -0.30000000000E+02  0.30000000000E+02  0.00000000000E+00 0. -1.
         23    2    1    2    0    0  0.00000000000E+00  0.00000000000E+00  0.00000000000E+00  0.60000000000E+02  0.60000000000E+02 0.  0.
          5    1    3    3  501    0 -0.24419990399E+02 -0.85155171965E+01 -0.14458908526E+02  0.30000000000E+02  0.47000000000E+01 0. -1.
         -5    1    3    3    0  501  0.24419990399E+02  0.85155171965E+01  0.14458908526E+02  0.30000000000E+02  0.47000000000E+01 0.  1.
</event>
<event>
 5    1  0.7702600E-002  0.6000000E+02  0.7546771E-02  0.1259629E+00
         11   -1    0    0    0    0  0.00000000000E+00  0.00000000000E+00  0.30000000000E+02  0.30000000000E+02  0.00000000000E+00 0.  1.
        -11   -1    0    0    0    0 -0.00000000000E+00 -0.00000000000E+00 -0.30000000000E+02  0.30000000000E+02  0.00000000000E+00 0. -1.
         23    2    1    2    0    0  0.00000000000E+00  0.00000000000E+00  0.00000000000E+00  0.60000000000E+02  0.60000000000E+02 0.  0.
          5    1    3    3  501    0 -0.25460600538E+01  0.15206922419E+02 -0.25301721063E+02  0.30000000000E+02  0.47000000000E+01 0. -1.
         -5    1    3    3    0  501  0.25460600538E+01 -0.15206922419E+02  0.25301721063E+02  0.30000000000E+02  0.47000000000E+01 0.  1.
</event>
<event>
 5    1  0.7702600E-002  0.6000000E+02  0.7546771E-02  0.1259629E+00
         11   -1    0    0    0    0  0.00000000000E+00  0.00000000000E+00  0.30000000000E+02  0.30000000000E+02  0.00000000000E+00 0.  1.
        -11   -1    0    0    0    0 -0.00000000000E+00 -0.00000000000E+00 -0.30000000000E+02  0.30000000000E+02  0.00000000000E+00 0. -1.
         23    2    1    2    0    0  0.00000000000E+00  0.00000000000E+00  0.00000000000E+00  0.60000000000E+02  0.60000000000E+02 0.  0.
          5    1    3    3  501    0  0.15700584361E+02 -0.37161125989E+01 -0.24851401527E+02  0.30000000000E+02  0.47000000000E+01 0. -1.
         -5    1    3    3    0  501 -0.15700584361E+02  0.37161125989E+01  0.24851401527E+02  0.30000000000E+02  0.47000000000E+01 0.  1.
</event>
<event>
 5    1  0.7702600E-002  0.6000000E+02  0.7546771E-02  0.1259629E+00
         11   -1    0    0    0    0  0.00000000000E+00  0.00000000000E+00  0.30000000000E+02  0.30000000000E+02  0.00000000000E+00 0. -1.
        -11   -1    0    0    0    0 -0.00000000000E+00 -0.00000000000E+00 -0.30000000000E+02  0.30000000000E+02  0.00000000000E+00 0.  1.
         23    2    1    2    0    0  0.00000000000E+00  0.00000000000E+00  0.00000000000E+00  0.60000000000E+02  0.60000000000E+02 0.  0.
          5    1    3    3  501    0 -0.28434182562E+02  0.32917582842E+01  0.76532077881E+01  0.30000000000E+02  0.47000000000E+01 0.  1.
         -5    1    3    3    0  501  0.28434182562E+02 -0.32917582842E+01 -0.76532077881E+01  0.30000000000E+02  0.47000000000E+01 0. -1.
</event>
<event>
 5    1  0.7702600E-002  0.6000000E+02  0.7546771E-02  0.1259629E+00
         11   -1    0    0    0    0  0.00000000000E+00  0.00000000000E+00  0.30000000000E+02  0.30000000000E+02  0.00000000000E+00 0. -1.
        -11   -1    0    0    0    0 -0.00000000000E+00 -0.00000000000E+00 -0.30000000000E+02  0.30000000000E+02  0.00000000000E+00 0.  1.
         23    2    1    2    0    0  0.00000000000E+00  0.00000000000E+00  0.00000000000E+00  0.60000000000E+02  0.60000000000E+02 0.  0.
          5    1    3    3  501    0 -0.15324572538E+02  0.90959457802E+01 -0.23671316966E+02  0.30000000000E+02  0.47000000000E+01 0.  1.
         -5    1    3    3    0  501  0.15324572538E+02 -0.90959457802E+01  0.23671316966E+02  0.30000000000E+02  0.47000000000E+01 0. -1.
</event>
<event>
 5    1  0.7702600E-002  0.6000000E+02  0.7546771E-02  0.1259629E+00
         11   -1    0    0    0    0  0.00000000000E+00  0.00000000000E+00  0.30000000000E+02  0.30000000000E+02  0.00000000000E+00 0.  1.
        -11   -1    0    0    0    0 -0.00000000000E+00 -0.00000000000E+00 -0.30000000000E+02  0.30000000000E+02  0.00000000000E+00 0. -1.
         23    2    1    2    0    0  0.00000000000E+00  0.00000000000E+00  0.00000000000E+00  0.60000000000E+02  0.60000000000E+02 0.  0.
          5    1    3    3  501    0 -0.70732291301E+01  0.42489426445E+01 -0.28457440434E+02  0.30000000000E+02  0.47000000000E+01 0. -1.
         -5    1    3    3    0  501  0.70732291301E+01 -0.42489426445E+01  0.28457440434E+02  0.30000000000E+02  0.47000000000E+01 0.  1.
</event>
<event>
 5    1  0.7702600E-002  0.6000000E+02  0.7546771E-02  0.1259629E+00
         11   -1    0    0    0    0  0.00000000000E+00  0.00000000000E+00  0.30000000000E+02  0.30000000000E+02  0.00000000000E+00 0. -1.
        -11   -1    0    0    0    0 -0.00000000000E+00 -0.00000000000E+00 -0.30000000000E+02  0.30000000000E+02  0.00000000000E+00 0.  1.
         23    2    1    2    0    0  0.00000000000E+00  0.00000000000E+00  0.00000000000E+00  0.60000000000E+02  0.60000000000E+02 0.  0.
          5    1    3    3  501    0 -0.22218465203E+02 -0.19181020899E+02 -0.40420590443E+01  0.30000000000E+02  0.47000000000E+01 0.  1.
         -5    1    3    3    0  501  0.22218465203E+02  0.19181020899E+02  0.40420590443E+01  0.30000000000E+02  0.47000000000E+01 0. -1.
</event>
<event>
 5    1  0.7702600E-002  0.6000000E+02  0.7546771E-02  0.1259629E+00
         11   -1    0    0    0    0  0.00000000000E+00  0.00000000000E+00  0.30000000000E+02  0.30000000000E+02  0.00000000000E+00 0.  1.
        -11   -1    0    0    0    0 -0.00000000000E+00 -0.00000000000E+00 -0.30000000000E+02  0.30000000000E+02  0.00000000000E+00 0. -1.
         23    2    1    2    0    0  0.00000000000E+00  0.00000000000E+00  0.00000000000E+00  0.60000000000E+02  0.60000000000E+02 0.  0.
          5    1    3    3  501    0  0.37415922368E+01 -0.16241767647E+02 -0.24497254361E+02  0.30000000000E+02  0.47000000000E+01 0. -1.
         -5    1    3    3    0  501 -0.37415922368E+01  0.16241767647E+02  0.24497254361E+02  0.30000000000E+02  0.47000000000E+01 0.  1.
</event>
<event>
 5    1  0.7702600E-002  0.6000000E+02  0.7546771E-02  0.1259629E+00
         11   -1    0    0    0    0  0.00000000000E+00  0.00000000000E+00  0.30000000000E+02  0.30000000000E+02  0.00000000000E+00 0.  1.
        -11   -1    0    0    0    0 -0.00000000000E+00 -0.00000000000E+00 -0.30000000000E+02  0.30000000000E+02  0.00000000000E+00 0. -1.
         23    2    1    2    0    0  0.00000000000E+00  0.00000000000E+00  0.00000000000E+00  0.60000000000E+02  0.60000000000E+02 0.  0.
          5    1    3    3  501    0  0.70954715014E+01 -0.18679355113E+02 -0.21877979266E+02  0.30000000000E+02  0.47000000000E+01 0. -1.
         -5    1    3    3    0  501 -0.70954715014E+01  0.18679355113E+02  0.21877979266E+02  0.30000000000E+02  0.47000000000E+01 0.  1.
</event>
<event>
 5    1  0.7702600E-002  0.6000000E+02  0.7546771E-02  0.1259629E+00
         11   -1    0    0    0    0  0.00000000000E+00  0.00000000000E+00  0.30000000000E+02  0.30000000000E+02  0.00000000000E+00 0.  1.
        -11   -1    0    0    0    0 -0.00000000000E+00 -0.00000000000E+00 -0.30000000000E+02  0.30000000000E+02  0.00000000000E+00 0. -1.
         23    2    1    2    0    0  0.00000000000E+00  0.00000000000E+00  0.00000000000E+00  0.60000000000E+02  0.60000000000E+02 0.  0.
          5    1    3    3  501    0 -0.93644968566E+01 -0.14770433686E+02 -0.23917576954E+02  0.30000000000E+02  0.47000000000E+01 0. -1.
         -5    1    3    3    0  501  0.93644968566E+01  0.14770433686E+02  0.23917576954E+02  0.30000000000E+02  0.47000000000E+01 0.  1.
</event>
<event>
 5    1  0.7702600E-002  0.6000000E+02  0.7546771E-02  0.1259629E+00
         11   -1    0    0    0    0  0.00000000000E+00  0.00000000000E+00  0.30000000000E+02  0.30000000000E+02  0.00000000000E+00 0. -1.
        -11   -1    0    0    0    0 -0.00000000000E+00 -0.00000000000E+00 -0.30000000000E+02  0.30000000000E+02  0.00000000000E+00 0.  1.
         23    2    1    2    0    0  0.00000000000E+00  0.00000000000E+00  0.00000000000E+00  0.60000000000E+02  0.60000000000E+02 0.  0.
          5    1    3    3  501    0  0.21710590315E+00  0.20320956750E+01 -0.29558982597E+02  0.30000000000E+02  0.47000000000E+01 0.  1.
         -5    1    3    3    0  501 -0.21710590315E+00 -0.20320956750E+01  0.29558982597E+02  0.30000000000E+02  0.47000000000E+01 0. -1.
</event>
<event>
 5    1  0.7702600E-002  0.6000000E+02  0.7546771E-02  0.1259629E+00
         11   -1    0    0    0    0  0.00000000000E+00  0.00000000000E+00  0.30000000000E+02  0.30000000000E+02  0.00000000000E+00 0.  1.
        -11   -1    0    0    0    0 -0.00000000000E+00 -0.00000000000E+00 -0.30000000000E+02  0.30000000000E+02  0.00000000000E+00 0. -1.
         23    2    1    2    0    0  0.00000000000E+00  0.00000000000E+00  0.00000000000E+00  0.60000000000E+02  0.60000000000E+02 0.  0.
          5    1    3    3  501    0  0.10100196150E+02 -0.27484924784E+02 -0.45249251212E+01  0.30000000000E+02  0.47000000000E+01 0. -1.
         -5    1    3    3    0  501 -0.10100196150E+02  0.27484924784E+02  0.45249251212E+01  0.30000000000E+02  0.47000000000E+01 0.  1.
</event>
<event>
 5    1  0.7702600E-002  0.6000000E+02  0.7546771E-02  0.1259629E+00
         11   -1    0    0    0    0  0.00000000000E+00  0.00000000000E+00  0.30000000000E+02  0.30000000000E+02  0.00000000000E+00 0.  1.
        -11   -1    0    0    0    0 -0.00000000000E+00 -0.00000000000E+00 -0.30000000000E+02  0.30000000000E+02  0.00000000000E+00 0. -1.
         23    2    1    2    0    0  0.00000000000E+00  0.00000000000E+00  0.00000000000E+00  0.60000000000E+02  0.60000000000E+02 0.  0.
          5    1    3    3  501    0 -0.10075599352E+02 -0.59536333865E+01 -0.27220333341E+02  0.30000000000E+02  0.47000000000E+01 0. -1.
         -5    1    3    3    0  501  0.10075599352E+02  0.59536333865E+01  0.27220333341E+02  0.30000000000E+02  0.47000000000E+01 0.  1.
</event>
<event>
 5    1  0.7702600E-002  0.6000000E+02  0.7546771E-02  0.1259629E+00
         11   -1    0    0    0    0  0.00000000000E+00  0.00000000000E+00  0.30000000000E+02  0.30000000000E+02  0.00000000000E+00 0.  1.
        -11   -1    0    0    0    0 -0.00000000000E+00 -0.00000000000E+00 -0.30000000000E+02  0.30000000000E+02  0.00000000000E+00 0. -1.
         23    2    1    2    0    0  0.00000000000E+00  0.00000000000E+00  0.00000000000E+00  0.60000000000E+02  0.60000000000E+02 0.  0.
          5    1    3    3  501    0  0.73700592407E+01  0.70108526317E+01 -0.27828765193E+02  0.30000000000E+02  0.47000000000E+01 0. -1.
         -5    1    3    3    0  501 -0.73700592407E+01 -0.70108526317E+01  0.27828765193E+02  0.30000000000E+02  0.47000000000E+01 0.  1.
</event>
<event>
 5    1  0.7702600E-002  0.6000000E+02  0.7546771E-02  0.1259629E+00
         11   -1    0    0    0    0  0.00000000000E+00  0.00000000000E+00  0.30000000000E+02  0.30000000000E+02  0.00000000000E+00 0. -1.
        -11   -1    0    0    0    0 -0.00000000000E+00 -0.00000000000E+00 -0.30000000000E+02  0.30000000000E+02  0.00000000000E+00 0.  1.
         23    2    1    2    0    0  0.00000000000E+00  0.00000000000E+00  0.00000000000E+00  0.60000000000E+02  0.60000000000E+02 0.  0.
          5    1    3    3  501    0  0.69955134151E+00 -0.28263268461E+02 -0.88661312780E+01  0.30000000000E+02  0.47000000000E+01 0.  1.
         -5    1    3    3    0  501 -0.69955134151E+00  0.28263268461E+02  0.88661312780E+01  0.30000000000E+02  0.47000000000E+01 0. -1.
</event>
<event>
 5    1  0.7702600E-002  0.6000000E+02  0.7546771E-02  0.1259629E+00
         11   -1    0    0    0    0  0.00000000000E+00  0.00000000000E+00  0.30000000000E+02  0.30000000000E+02  0.00000000000E+00 0.  1.
        -11   -1    0    0    0    0 -0.00000000000E+00 -0.00000000000E+00 -0.30000000000E+02  0.30000000000E+02  0.00000000000E+00 0. -1.
         23    2    1    2    0    0  0.00000000000E+00  0.00000000000E+00  0.00000000000E+00  0.60000000000E+02  0.60000000000E+02 0.  0.
          5    1    3    3  501    0 -0.26104787559E+02 -0.72986728313E+01 -0.11965761212E+02  0.30000000000E+02  0.47000000000E+01 0. -1.
         -5    1    3    3    0  501  0.26104787559E+02  0.72986728313E+01  0.11965761212E+02  0.30000000000E+02  0.47000000000E+01 0.  1.
</event>
<event>
 5    1  0.7702600E-002  0.6000000E+02  0.7546771E-02  0.1259629E+00
         11   -1    0    0    0    0  0.00000000000E+00  0.00000000000E+00  0.30000000000E+02  0.30000000000E+02  0.00000000000E+00 0.  1.
        -11   -1    0    0    0    0 -0.00000000000E+00 -0.00000000000E+00 -0.30000000000E+02  0.30000000000E+02  0.00000000000E+00 0. -1.
         23    2    1    2    0    0  0.00000000000E+00  0.00000000000E+00  0.00000000000E+00  0.60000000000E+02  0.60000000000E+02 0.  0.
          5    1    3    3  501    0  0.86720576489E+00  0.21103942802E+02 -0.20779353993E+02  0.30000000000E+02  0.47000000000E+01 0. -1.
         -5    1    3    3    0  501 -0.86720576489E+00 -0.21103942802E+02  0.20779353993E+02  0.30000000000E+02  0.47000000000E+01 0.  1.
</event>
<event>
 5    1  0.7702600E-002  0.6000000E+02  0.7546771E-02  0.1259629E+00
         11   -1    0    0    0    0  0.00000000000E+00  0.00000000000E+00  0.30000000000E+02  0.30000000000E+02  0.00000000000E+00 0.  1.
        -11   -1    0    0    0    0 -0.00000000000E+00 -0.00000000000E+00 -0.30000000000E+02  0.30000000000E+02  0.00000000000E+00 0. -1.
         23    2    1    2    0    0  0.00000000000E+00  0.00000000000E+00  0.00000000000E+00  0.60000000000E+02  0.60000000000E+02 0.  0.
          5    1    3    3  501    0  0.19163125322E+02  0.19122433259E+02 -0.12042307675E+02  0.30000000000E+02  0.47000000000E+01 0. -1.
         -5    1    3    3    0  501 -0.19163125322E+02 -0.19122433259E+02  0.12042307675E+02  0.30000000000E+02  0.47000000000E+01 0.  1.
</event>
<event>
 5    1  0.7702600E-002  0.6000000E+02  0.7546771E-02  0.1259629E+00
         11   -1    0    0    0    0  0.00000000000E+00  0.00000000000E+00  0.30000000000E+02  0.30000000000E+02  0.00000000000E+00 0. -1.
        -11   -1    0    0    0    0 -0.00000000000E+00 -0.00000000000E+00 -0.30000000000E+02  0.30000000000E+02  0.00000000000E+00 0.  1.
         23    2    1    2    0    0  0.00000000000E+00  0.00000000000E+00  0.00000000000E+00  0.60000000000E+02  0.60000000000E+02 0.  0.
          5    1    3    3  501    0  0.30279463441E+01 -0.26772957977E+02  0.12326810703E+02  0.30000000000E+02  0.47000000000E+01 0. -1.
         -5    1    3    3    0  501 -0.30279463441E+01  0.26772957977E+02 -0.12326810703E+02  0.30000000000E+02  0.47000000000E+01 0.  1.
</event>
<event>
 5    1  0.7702600E-002  0.6000000E+02  0.7546771E-02  0.1259629E+00
         11   -1    0    0    0    0  0.00000000000E+00  0.00000000000E+00  0.30000000000E+02  0.30000000000E+02  0.00000000000E+00 0.  1.
        -11   -1    0    0    0    0 -0.00000000000E+00 -0.00000000000E+00 -0.30000000000E+02  0.30000000000E+02  0.00000000000E+00 0. -1.
         23    2    1    2    0    0  0.00000000000E+00  0.00000000000E+00  0.00000000000E+00  0.60000000000E+02  0.60000000000E+02 0.  0.
          5    1    3    3  501    0 -0.28365313352E+02 -0.80816093899E+01 -0.28295915060E+01  0.30000000000E+02  0.47000000000E+01 0. -1.
         -5    1    3    3    0  501  0.28365313352E+02  0.80816093899E+01  0.28295915060E+01  0.30000000000E+02  0.47000000000E+01 0.  1.
</event>
<event>
 5    1  0.7702600E-002  0.6000000E+02  0.7546771E-02  0.1259629E+00
         11   -1    0    0    0    0  0.00000000000E+00  0.00000000000E+00  0.30000000000E+02  0.30000000000E+02  0.00000000000E+00 0.  1.
        -11   -1    0    0    0    0 -0.00000000000E+00 -0.00000000000E+00 -0.30000000000E+02  0.30000000000E+02  0.00000000000E+00 0. -1.
         23    2    1    2    0    0  0.00000000000E+00  0.00000000000E+00  0.00000000000E+00  0.60000000000E+02  0.60000000000E+02 0.  0.
          5    1    3    3  501    0 -0.56121211597E+00  0.26225291081E+02 -0.13777849930E+02  0.30000000000E+02  0.47000000000E+01 0. -1.
         -5    1    3    3    0  501  0.56121211597E+00 -0.26225291081E+02  0.13777849930E+02  0.30000000000E+02  0.47000000000E+01 0.  1.
</event>
<event>
 5    1  0.7702600E-002  0.6000000E+02  0.7546771E-02  0.1259629E+00
         11   -1    0    0    0    0  0.00000000000E+00  0.00000000000E+00  0.30000000000E+02  0.30000000000E+02  0.00000000000E+00 0.  1.
        -11   -1    0    0    0    0 -0.00000000000E+00 -0.00000000000E+00 -0.30000000000E+02  0.30000000000E+02  0.00000000000E+00 0. -1.
         23    2    1    2    0    0  0.00000000000E+00  0.00000000000E+00  0.00000000000E+00  0.60000000000E+02  0.60000000000E+02 0.  0.
          5    1    3    3  501    0  0.62746536362E+01  0.10693073366E+02 -0.26910906780E+02  0.30000000000E+02  0.47000000000E+01 0. -1.
         -5    1    3    3    0  501 -0.62746536362E+01 -0.10693073366E+02  0.26910906780E+02  0.30000000000E+02  0.47000000000E+01 0.  1.
</event>
<event>
 5    1  0.7702600E-002  0.6000000E+02  0.7546771E-02  0.1259629E+00
         11   -1    0    0    0    0  0.00000000000E+00  0.00000000000E+00  0.30000000000E+02  0.30000000000E+02  0.00000000000E+00 0. -1.
        -11   -1    0    0    0    0 -0.00000000000E+00 -0.00000000000E+00 -0.30000000000E+02  0.30000000000E+02  0.00000000000E+00 0.  1.
         23    2    1    2    0    0  0.00000000000E+00  0.00000000000E+00  0.00000000000E+00  0.60000000000E+02  0.60000000000E+02 0.  0.
          5    1    3    3  501    0 -0.20461723951E+01 -0.29555478772E+02 -0.44368129973E+00  0.30000000000E+02  0.47000000000E+01 0.  1.
         -5    1    3    3    0  501  0.20461723951E+01  0.29555478772E+02  0.44368129973E+00  0.30000000000E+02  0.47000000000E+01 0. -1.
</event>
<event>
 5    1  0.7702600E-002  0.6000000E+02  0.7546771E-02  0.1259629E+00
         11   -1    0    0    0    0  0.00000000000E+00  0.00000000000E+00  0.30000000000E+02  0.30000000000E+02  0.00000000000E+00 0.  1.
        -11   -1    0    0    0    0 -0.00000000000E+00 -0.00000000000E+00 -0.30000000000E+02  0.30000000000E+02  0.00000000000E+00 0. -1.
         23    2    1    2    0    0  0.00000000000E+00  0.00000000000E+00  0.00000000000E+00  0.60000000000E+02  0.60000000000E+02 0.  0.
          5    1    3    3  501    0  0.15472805314E+02  0.15487834190E+02 -0.19965702788E+02  0.30000000000E+02  0.47000000000E+01 0. -1.
         -5    1    3    3    0  501 -0.15472805314E+02 -0.15487834190E+02  0.19965702788E+02  0.30000000000E+02  0.47000000000E+01 0.  1.
</event>
<event>
 5    1  0.7702600E-002  0.6000000E+02  0.7546771E-02  0.1259629E+00
         11   -1    0    0    0    0  0.00000000000E+00  0.00000000000E+00  0.30000000000E+02  0.30000000000E+02  0.00000000000E+00 0.  1.
        -11   -1    0    0    0    0 -0.00000000000E+00 -0.00000000000E+00 -0.30000000000E+02  0.30000000000E+02  0.00000000000E+00 0. -1.
         23    2    1    2    0    0  0.00000000000E+00  0.00000000000E+00  0.00000000000E+00  0.60000000000E+02  0.60000000000E+02 0.  0.
          5    1    3    3  501    0  0.92665763560E+01  0.11651235037E+02 -0.25618143663E+02  0.30000000000E+02  0.47000000000E+01 0. -1.
         -5    1    3    3    0  501 -0.92665763560E+01 -0.11651235037E+02  0.25618143663E+02  0.30000000000E+02  0.47000000000E+01 0.  1.
</event>
<event>
 5    1  0.7702600E-002  0.6000000E+02  0.7546771E-02  0.1259629E+00
         11   -1    0    0    0    0  0.00000000000E+00  0.00000000000E+00  0.30000000000E+02  0.30000000000E+02  0.00000000000E+00 0.  1.
        -11   -1    0    0    0    0 -0.00000000000E+00 -0.00000000000E+00 -0.30000000000E+02  0.30000000000E+02  0.00000000000E+00 0. -1.
         23    2    1    2    0    0  0.00000000000E+00  0.00000000000E+00  0.00000000000E+00  0.60000000000E+02  0.60000000000E+02 0.  0.
          5    1    3    3  501    0  0.72421947579E+01  0.11360034100E+02 -0.26389585831E+02  0.30000000000E+02  0.47000000000E+01 0. -1.
         -5    1    3    3    0  501 -0.72421947579E+01 -0.11360034100E+02  0.26389585831E+02  0.30000000000E+02  0.47000000000E+01 0.  1.
</event>
<event>
 5    1  0.7702600E-002  0.6000000E+02  0.7546771E-02  0.1259629E+00
         11   -1    0    0    0    0  0.00000000000E+00  0.00000000000E+00  0.30000000000E+02  0.30000000000E+02  0.00000000000E+00 0.  1.
        -11   -1    0    0    0    0 -0.00000000000E+00 -0.00000000000E+00 -0.30000000000E+02  0.30000000000E+02  0.00000000000E+00 0. -1.
         23    2    1    2    0    0  0.00000000000E+00  0.00000000000E+00  0.00000000000E+00  0.60000000000E+02  0.60000000000E+02 0.  0.
          5    1    3    3  501    0  0.34692802305E+01 -0.25195579157E+02 -0.15200555439E+02  0.30000000000E+02  0.47000000000E+01 0. -1.
         -5    1    3    3    0  501 -0.34692802305E+01  0.25195579157E+02  0.15200555439E+02  0.30000000000E+02  0.47000000000E+01 0.  1.
</event>
<event>
 5    1  0.7702600E-002  0.6000000E+02  0.7546771E-02  0.1259629E+00
         11   -1    0    0    0    0  0.00000000000E+00  0.00000000000E+00  0.30000000000E+02  0.30000000000E+02  0.00000000000E+00 0.  1.
        -11   -1    0    0    0    0 -0.00000000000E+00 -0.00000000000E+00 -0.30000000000E+02  0.30000000000E+02  0.00000000000E+00 0. -1.
         23    2    1    2    0    0  0.00000000000E+00  0.00000000000E+00  0.00000000000E+00  0.60000000000E+02  0.60000000000E+02 0.  0.
          5    1    3    3  501    0 -0.34611050825E+01  0.29235594713E+02  0.33482463186E+01  0.30000000000E+02  0.47000000000E+01 0. -1.
         -5    1    3    3    0  501  0.34611050825E+01 -0.29235594713E+02 -0.33482463186E+01  0.30000000000E+02  0.47000000000E+01 0.  1.
</event>
<event>
 5    1  0.7702600E-002  0.6000000E+02  0.7546771E-02  0.1259629E+00
         11   -1    0    0    0    0  0.00000000000E+00  0.00000000000E+00  0.30000000000E+02  0.30000000000E+02  0.00000000000E+00 0.  1.
        -11   -1    0    0    0    0 -0.00000000000E+00 -0.00000000000E+00 -0.30000000000E+02  0.30000000000E+02  0.00000000000E+00 0. -1.
         23    2    1    2    0    0  0.00000000000E+00  0.00000000000E+00  0.00000000000E+00  0.60000000000E+02  0.60000000000E+02 0.  0.
          5    1    3    3  501    0 -0.23612138573E+02  0.84091618031E+01 -0.15800724976E+02  0.30000000000E+02  0.47000000000E+01 0. -1.
         -5    1    3    3    0  501  0.23612138573E+02 -0.84091618031E+01  0.15800724976E+02  0.30000000000E+02  0.47000000000E+01 0.  1.
</event>
<event>
 5    1  0.7702600E-002  0.6000000E+02  0.7546771E-02  0.1259629E+00
         11   -1    0    0    0    0  0.00000000000E+00  0.00000000000E+00  0.30000000000E+02  0.30000000000E+02  0.00000000000E+00 0.  1.
        -11   -1    0    0    0    0 -0.00000000000E+00 -0.00000000000E+00 -0.30000000000E+02  0.30000000000E+02  0.00000000000E+00 0. -1.
         23    2    1    2    0    0  0.00000000000E+00  0.00000000000E+00  0.00000000000E+00  0.60000000000E+02  0.60000000000E+02 0.  0.
          5    1    3    3  501    0  0.61663662689E+01  0.21845116928E+02 -0.19044075022E+02  0.30000000000E+02  0.47000000000E+01 0. -1.
         -5    1    3    3    0  501 -0.61663662689E+01 -0.21845116928E+02  0.19044075022E+02  0.30000000000E+02  0.47000000000E+01 0.  1.
</event>
<event>
 5    1  0.7702600E-002  0.6000000E+02  0.7546771E-02  0.1259629E+00
         11   -1    0    0    0    0  0.00000000000E+00  0.00000000000E+00  0.30000000000E+02  0.30000000000E+02  0.00000000000E+00 0.  1.
        -11   -1    0    0    0    0 -0.00000000000E+00 -0.00000000000E+00 -0.30000000000E+02  0.30000000000E+02  0.00000000000E+00 0. -1.
         23    2    1    2    0    0  0.00000000000E+00  0.00000000000E+00  0.00000000000E+00  0.60000000000E+02  0.60000000000E+02 0.  0.
          5    1    3    3  501    0 -0.16636069306E+02  0.43904487323E+01 -0.24122088591E+02  0.30000000000E+02  0.47000000000E+01 0. -1.
         -5    1    3    3    0  501  0.16636069306E+02 -0.43904487323E+01  0.24122088591E+02  0.30000000000E+02  0.47000000000E+01 0.  1.
</event>
<event>
 5    1  0.7702600E-002  0.6000000E+02  0.7546771E-02  0.1259629E+00
         11   -1    0    0    0    0  0.00000000000E+00  0.00000000000E+00  0.30000000000E+02  0.30000000000E+02  0.00000000000E+00 0. -1.
        -11   -1    0    0    0    0 -0.00000000000E+00 -0.00000000000E+00 -0.30000000000E+02  0.30000000000E+02  0.00000000000E+00 0.  1.
         23    2    1    2    0    0  0.00000000000E+00  0.00000000000E+00  0.00000000000E+00  0.60000000000E+02  0.60000000000E+02 0.  0.
          5    1    3    3  501    0  0.43257942115E+01 -0.22082564291E+02  0.19275836137E+02  0.30000000000E+02  0.47000000000E+01 0. -1.
         -5    1    3    3    0  501 -0.43257942115E+01  0.22082564291E+02 -0.19275836137E+02  0.30000000000E+02  0.47000000000E+01 0.  1.
</event>
<event>
 5    1  0.7702600E-002  0.6000000E+02  0.7546771E-02  0.1259629E+00
         11   -1    0    0    0    0  0.00000000000E+00  0.00000000000E+00  0.30000000000E+02  0.30000000000E+02  0.00000000000E+00 0.  1.
        -11   -1    0    0    0    0 -0.00000000000E+00 -0.00000000000E+00 -0.30000000000E+02  0.30000000000E+02  0.00000000000E+00 0. -1.
         23    2    1    2    0    0  0.00000000000E+00  0.00000000000E+00  0.00000000000E+00  0.60000000000E+02  0.60000000000E+02 0.  0.
          5    1    3    3  501    0 -0.20924062219E+02 -0.14160557591E+02  0.15478120977E+02  0.30000000000E+02  0.47000000000E+01 0.  1.
         -5    1    3    3    0  501  0.20924062219E+02  0.14160557591E+02 -0.15478120977E+02  0.30000000000E+02  0.47000000000E+01 0. -1.
</event>
<event>
 5    1  0.7702600E-002  0.6000000E+02  0.7546771E-02  0.1259629E+00
         11   -1    0    0    0    0  0.00000000000E+00  0.00000000000E+00  0.30000000000E+02  0.30000000000E+02  0.00000000000E+00 0.  1.
        -11   -1    0    0    0    0 -0.00000000000E+00 -0.00000000000E+00 -0.30000000000E+02  0.30000000000E+02  0.00000000000E+00 0. -1.
         23    2    1    2    0    0  0.00000000000E+00  0.00000000000E+00  0.00000000000E+00  0.60000000000E+02  0.60000000000E+02 0.  0.
          5    1    3    3  501    0  0.28875675040E+02 -0.55625102445E+01 -0.36282048951E+01  0.30000000000E+02  0.47000000000E+01 0. -1.
         -5    1    3    3    0  501 -0.28875675040E+02  0.55625102445E+01  0.36282048951E+01  0.30000000000E+02  0.47000000000E+01 0.  1.
</event>
<event>
 5    1  0.7702600E-002  0.6000000E+02  0.7546771E-02  0.1259629E+00
         11   -1    0    0    0    0  0.00000000000E+00  0.00000000000E+00  0.30000000000E+02  0.30000000000E+02  0.00000000000E+00 0.  1.
        -11   -1    0    0    0    0 -0.00000000000E+00 -0.00000000000E+00 -0.30000000000E+02  0.30000000000E+02  0.00000000000E+00 0. -1.
         23    2    1    2    0    0  0.00000000000E+00  0.00000000000E+00  0.00000000000E+00  0.60000000000E+02  0.60000000000E+02 0.  0.
          5    1    3    3  501    0  0.30426033499E+01  0.29443725016E+02 -0.13113436011E+01  0.30000000000E+02  0.47000000000E+01 0.  1.
         -5    1    3    3    0  501 -0.30426033499E+01 -0.29443725016E+02  0.13113436011E+01  0.30000000000E+02  0.47000000000E+01 0. -1.
</event>
<event>
 5    1  0.7702600E-002  0.6000000E+02  0.7546771E-02  0.1259629E+00
         11   -1    0    0    0    0  0.00000000000E+00  0.00000000000E+00  0.30000000000E+02  0.30000000000E+02  0.00000000000E+00 0. -1.
        -11   -1    0    0    0    0 -0.00000000000E+00 -0.00000000000E+00 -0.30000000000E+02  0.30000000000E+02  0.00000000000E+00 0.  1.
         23    2    1    2    0    0  0.00000000000E+00  0.00000000000E+00  0.00000000000E+00  0.60000000000E+02  0.60000000000E+02 0.  0.
          5    1    3    3  501    0 -0.25906714377E+02 -0.23918870584E+01 -0.14178541056E+02  0.30000000000E+02  0.47000000000E+01 0.  1.
         -5    1    3    3    0  501  0.25906714377E+02  0.23918870584E+01  0.14178541056E+02  0.30000000000E+02  0.47000000000E+01 0. -1.
</event>
<event>
 5    1  0.7702600E-002  0.6000000E+02  0.7546771E-02  0.1259629E+00
         11   -1    0    0    0    0  0.00000000000E+00  0.00000000000E+00  0.30000000000E+02  0.30000000000E+02  0.00000000000E+00 0. -1.
        -11   -1    0    0    0    0 -0.00000000000E+00 -0.00000000000E+00 -0.30000000000E+02  0.30000000000E+02  0.00000000000E+00 0.  1.
         23    2    1    2    0    0  0.00000000000E+00  0.00000000000E+00  0.00000000000E+00  0.60000000000E+02  0.60000000000E+02 0.  0.
          5    1    3    3  501    0 -0.20566726410E+02  0.19390566058E+02 -0.88840144489E+01  0.30000000000E+02  0.47000000000E+01 0.  1.
         -5    1    3    3    0  501  0.20566726410E+02 -0.19390566058E+02  0.88840144489E+01  0.30000000000E+02  0.47000000000E+01 0. -1.
</event>
<event>
 5    1  0.7702600E-002  0.6000000E+02  0.7546771E-02  0.1259629E+00
         11   -1    0    0    0    0  0.00000000000E+00  0.00000000000E+00  0.30000000000E+02  0.30000000000E+02  0.00000000000E+00 0. -1.
        -11   -1    0    0    0    0 -0.00000000000E+00 -0.00000000000E+00 -0.30000000000E+02  0.30000000000E+02  0.00000000000E+00 0.  1.
         23    2    1    2    0    0  0.00000000000E+00  0.00000000000E+00  0.00000000000E+00  0.60000000000E+02  0.60000000000E+02 0.  0.
          5    1    3    3  501    0  0.44211261830E+01 -0.64367425498E+01 -0.28582022123E+02  0.30000000000E+02  0.47000000000E+01 0.  1.
         -5    1    3    3    0  501 -0.44211261830E+01  0.64367425498E+01  0.28582022123E+02  0.30000000000E+02  0.47000000000E+01 0. -1.
</event>
<event>
 5    1  0.7702600E-002  0.6000000E+02  0.7546771E-02  0.1259629E+00
         11   -1    0    0    0    0  0.00000000000E+00  0.00000000000E+00  0.30000000000E+02  0.30000000000E+02  0.00000000000E+00 0.  1.
        -11   -1    0    0    0    0 -0.00000000000E+00 -0.00000000000E+00 -0.30000000000E+02  0.30000000000E+02  0.00000000000E+00 0. -1.
         23    2    1    2    0    0  0.00000000000E+00  0.00000000000E+00  0.00000000000E+00  0.60000000000E+02  0.60000000000E+02 0.  0.
          5    1    3    3  501    0 -0.16063979037E+02 -0.63498415256E+01 -0.24073597365E+02  0.30000000000E+02  0.47000000000E+01 0. -1.
         -5    1    3    3    0  501  0.16063979037E+02  0.63498415256E+01  0.24073597365E+02  0.30000000000E+02  0.47000000000E+01 0.  1.
</event>
<event>
 5    1  0.7702600E-002  0.6000000E+02  0.7546771E-02  0.1259629E+00
         11   -1    0    0    0    0  0.00000000000E+00  0.00000000000E+00  0.30000000000E+02  0.30000000000E+02  0.00000000000E+00 0.  1.
        -11   -1    0    0    0    0 -0.00000000000E+00 -0.00000000000E+00 -0.30000000000E+02  0.30000000000E+02  0.00000000000E+00 0. -1.
         23    2    1    2    0    0  0.00000000000E+00  0.00000000000E+00  0.00000000000E+00  0.60000000000E+02  0.60000000000E+02 0.  0.
          5    1    3    3  501    0 -0.13588591470E+02  0.16578415797E+02  0.20455226997E+02  0.30000000000E+02  0.47000000000E+01 0.  1.
         -5    1    3    3    0  501  0.13588591470E+02 -0.16578415797E+02 -0.20455226997E+02  0.30000000000E+02  0.47000000000E+01 0. -1.
</event>
<event>
 5    1  0.7702600E-002  0.6000000E+02  0.7546771E-02  0.1259629E+00
         11   -1    0    0    0    0  0.00000000000E+00  0.00000000000E+00  0.30000000000E+02  0.30000000000E+02  0.00000000000E+00 0.  1.
        -11   -1    0    0    0    0 -0.00000000000E+00 -0.00000000000E+00 -0.30000000000E+02  0.30000000000E+02  0.00000000000E+00 0. -1.
         23    2    1    2    0    0  0.00000000000E+00  0.00000000000E+00  0.00000000000E+00  0.60000000000E+02  0.60000000000E+02 0.  0.
          5    1    3    3  501    0  0.19604649239E+02 -0.22128009931E+02 -0.19796223590E+01  0.30000000000E+02  0.47000000000E+01 0. -1.
         -5    1    3    3    0  501 -0.19604649239E+02  0.22128009931E+02  0.19796223590E+01  0.30000000000E+02  0.47000000000E+01 0.  1.
</event>
<event>
 5    1  0.7702600E-002  0.6000000E+02  0.7546771E-02  0.1259629E+00
         11   -1    0    0    0    0  0.00000000000E+00  0.00000000000E+00  0.30000000000E+02  0.30000000000E+02  0.00000000000E+00 0.  1.
        -11   -1    0    0    0    0 -0.00000000000E+00 -0.00000000000E+00 -0.30000000000E+02  0.30000000000E+02  0.00000000000E+00 0. -1.
         23    2    1    2    0    0  0.00000000000E+00  0.00000000000E+00  0.00000000000E+00  0.60000000000E+02  0.60000000000E+02 0.  0.
          5    1    3    3  501    0  0.22620541609E+02 -0.34137083964E+01 -0.18829967932E+02  0.30000000000E+02  0.47000000000E+01 0. -1.
         -5    1    3    3    0  501 -0.22620541609E+02  0.34137083964E+01  0.18829967932E+02  0.30000000000E+02  0.47000000000E+01 0.  1.
</event>
<event>
 5    1  0.7702600E-002  0.6000000E+02  0.7546771E-02  0.1259629E+00
         11   -1    0    0    0    0  0.00000000000E+00  0.00000000000E+00  0.30000000000E+02  0.30000000000E+02  0.00000000000E+00 0.  1.
        -11   -1    0    0    0    0 -0.00000000000E+00 -0.00000000000E+00 -0.30000000000E+02  0.30000000000E+02  0.00000000000E+00 0. -1.
         23    2    1    2    0    0  0.00000000000E+00  0.00000000000E+00  0.00000000000E+00  0.60000000000E+02  0.60000000000E+02 0.  0.
          5    1    3    3  501    0 -0.17724292880E+02  0.63511825085E+01 -0.22878416087E+02  0.30000000000E+02  0.47000000000E+01 0. -1.
         -5    1    3    3    0  501  0.17724292880E+02 -0.63511825085E+01  0.22878416087E+02  0.30000000000E+02  0.47000000000E+01 0.  1.
</event>
<event>
 5    1  0.7702600E-002  0.6000000E+02  0.7546771E-02  0.1259629E+00
         11   -1    0    0    0    0  0.00000000000E+00  0.00000000000E+00  0.30000000000E+02  0.30000000000E+02  0.00000000000E+00 0.  1.
        -11   -1    0    0    0    0 -0.00000000000E+00 -0.00000000000E+00 -0.30000000000E+02  0.30000000000E+02  0.00000000000E+00 0. -1.
         23    2    1    2    0    0  0.00000000000E+00  0.00000000000E+00  0.00000000000E+00  0.60000000000E+02  0.60000000000E+02 0.  0.
          5    1    3    3  501    0 -0.17623530831E+02 -0.20374201446E+02 -0.12337466373E+02  0.30000000000E+02  0.47000000000E+01 0. -1.
         -5    1    3    3    0  501  0.17623530831E+02  0.20374201446E+02  0.12337466373E+02  0.30000000000E+02  0.47000000000E+01 0.  1.
</event>
<event>
 5    1  0.7702600E-002  0.6000000E+02  0.7546771E-02  0.1259629E+00
         11   -1    0    0    0    0  0.00000000000E+00  0.00000000000E+00  0.30000000000E+02  0.30000000000E+02  0.00000000000E+00 0.  1.
        -11   -1    0    0    0    0 -0.00000000000E+00 -0.00000000000E+00 -0.30000000000E+02  0.30000000000E+02  0.00000000000E+00 0. -1.
         23    2    1    2    0    0  0.00000000000E+00  0.00000000000E+00  0.00000000000E+00  0.60000000000E+02  0.60000000000E+02 0.  0.
          5    1    3    3  501    0  0.17560842735E+02 -0.48245201142E+01 -0.23372009073E+02  0.30000000000E+02  0.47000000000E+01 0. -1.
         -5    1    3    3    0  501 -0.17560842735E+02  0.48245201142E+01  0.23372009073E+02  0.30000000000E+02  0.47000000000E+01 0.  1.
</event>
<event>
 5    1  0.7702600E-002  0.6000000E+02  0.7546771E-02  0.1259629E+00
         11   -1    0    0    0    0  0.00000000000E+00  0.00000000000E+00  0.30000000000E+02  0.30000000000E+02  0.00000000000E+00 0.  1.
        -11   -1    0    0    0    0 -0.00000000000E+00 -0.00000000000E+00 -0.30000000000E+02  0.30000000000E+02  0.00000000000E+00 0. -1.
         23    2    1    2    0    0  0.00000000000E+00  0.00000000000E+00  0.00000000000E+00  0.60000000000E+02  0.60000000000E+02 0.  0.
          5    1    3    3  501    0  0.20264751797E+02  0.87351375982E+01 -0.19772384928E+02  0.30000000000E+02  0.47000000000E+01 0. -1.
         -5    1    3    3    0  501 -0.20264751797E+02 -0.87351375982E+01  0.19772384928E+02  0.30000000000E+02  0.47000000000E+01 0.  1.
</event>
<event>
 5    1  0.7702600E-002  0.6000000E+02  0.7546771E-02  0.1259629E+00
         11   -1    0    0    0    0  0.00000000000E+00  0.00000000000E+00  0.30000000000E+02  0.30000000000E+02  0.00000000000E+00 0.  1.
        -11   -1    0    0    0    0 -0.00000000000E+00 -0.00000000000E+00 -0.30000000000E+02  0.30000000000E+02  0.00000000000E+00 0. -1.
         23    2    1    2    0    0  0.00000000000E+00  0.00000000000E+00  0.00000000000E+00  0.60000000000E+02  0.60000000000E+02 0.  0.
          5    1    3    3  501    0 -0.24417677034E+02 -0.51005143596E+01 -0.15989740508E+02  0.30000000000E+02  0.47000000000E+01 0. -1.
         -5    1    3    3    0  501  0.24417677034E+02  0.51005143596E+01  0.15989740508E+02  0.30000000000E+02  0.47000000000E+01 0.  1.
</event>
<event>
 5    1  0.7702600E-002  0.6000000E+02  0.7546771E-02  0.1259629E+00
         11   -1    0    0    0    0  0.00000000000E+00  0.00000000000E+00  0.30000000000E+02  0.30000000000E+02  0.00000000000E+00 0. -1.
        -11   -1    0    0    0    0 -0.00000000000E+00 -0.00000000000E+00 -0.30000000000E+02  0.30000000000E+02  0.00000000000E+00 0.  1.
         23    2    1    2    0    0  0.00000000000E+00  0.00000000000E+00  0.00000000000E+00  0.60000000000E+02  0.60000000000E+02 0.  0.
          5    1    3    3  501    0  0.20464346632E+01  0.24766534072E+02 -0.16135082746E+02  0.30000000000E+02  0.47000000000E+01 0.  1.
         -5    1    3    3    0  501 -0.20464346632E+01 -0.24766534072E+02  0.16135082746E+02  0.30000000000E+02  0.47000000000E+01 0. -1.
</event>
<event>
 5    1  0.7702600E-002  0.6000000E+02  0.7546771E-02  0.1259629E+00
         11   -1    0    0    0    0  0.00000000000E+00  0.00000000000E+00  0.30000000000E+02  0.30000000000E+02  0.00000000000E+00 0.  1.
        -11   -1    0    0    0    0 -0.00000000000E+00 -0.00000000000E+00 -0.30000000000E+02  0.30000000000E+02  0.00000000000E+00 0. -1.
         23    2    1    2    0    0  0.00000000000E+00  0.00000000000E+00  0.00000000000E+00  0.60000000000E+02  0.60000000000E+02 0.  0.
          5    1    3    3  501    0 -0.17527489795E-01 -0.43147889737E+01 -0.29313687740E+02  0.30000000000E+02  0.47000000000E+01 0. -1.
         -5    1    3    3    0  501  0.17527489795E-01  0.43147889737E+01  0.29313687740E+02  0.30000000000E+02  0.47000000000E+01 0.  1.
</event>
<event>
 5    1  0.7702600E-002  0.6000000E+02  0.7546771E-02  0.1259629E+00
         11   -1    0    0    0    0  0.00000000000E+00  0.00000000000E+00  0.30000000000E+02  0.30000000000E+02  0.00000000000E+00 0. -1.
        -11   -1    0    0    0    0 -0.00000000000E+00 -0.00000000000E+00 -0.30000000000E+02  0.30000000000E+02  0.00000000000E+00 0.  1.
         23    2    1    2    0    0  0.00000000000E+00  0.00000000000E+00  0.00000000000E+00  0.60000000000E+02  0.60000000000E+02 0.  0.
          5    1    3    3  501    0 -0.24441430591E+02  0.15543933554E+02 -0.62379964992E+01  0.30000000000E+02  0.47000000000E+01 0. -1.
         -5    1    3    3    0  501  0.24441430591E+02 -0.15543933554E+02  0.62379964992E+01  0.30000000000E+02  0.47000000000E+01 0.  1.
</event>
<event>
 5    1  0.7702600E-002  0.6000000E+02  0.7546771E-02  0.1259629E+00
         11   -1    0    0    0    0  0.00000000000E+00  0.00000000000E+00  0.30000000000E+02  0.30000000000E+02  0.00000000000E+00 0.  1.
        -11   -1    0    0    0    0 -0.00000000000E+00 -0.00000000000E+00 -0.30000000000E+02  0.30000000000E+02  0.00000000000E+00 0. -1.
         23    2    1    2    0    0  0.00000000000E+00  0.00000000000E+00  0.00000000000E+00  0.60000000000E+02  0.60000000000E+02 0.  0.
          5    1    3    3  501    0  0.13834309146E+02 -0.35916983333E+01 -0.25954221112E+02  0.30000000000E+02  0.47000000000E+01 0. -1.
         -5    1    3    3    0  501 -0.13834309146E+02  0.35916983333E+01  0.25954221112E+02  0.30000000000E+02  0.47000000000E+01 0.  1.
</event>
<event>
 5    1  0.7702600E-002  0.6000000E+02  0.7546771E-02  0.1259629E+00
         11   -1    0    0    0    0  0.00000000000E+00  0.00000000000E+00  0.30000000000E+02  0.30000000000E+02  0.00000000000E+00 0.  1.
        -11   -1    0    0    0    0 -0.00000000000E+00 -0.00000000000E+00 -0.30000000000E+02  0.30000000000E+02  0.00000000000E+00 0. -1.
         23    2    1    2    0    0  0.00000000000E+00  0.00000000000E+00  0.00000000000E+00  0.60000000000E+02  0.60000000000E+02 0.  0.
          5    1    3    3  501    0 -0.90647680455E+01 -0.16394533376E+02  0.22955593124E+02  0.30000000000E+02  0.47000000000E+01 0.  1.
         -5    1    3    3    0  501  0.90647680455E+01  0.16394533376E+02 -0.22955593124E+02  0.30000000000E+02  0.47000000000E+01 0. -1.
</event>
<event>
 5    1  0.7702600E-002  0.6000000E+02  0.7546771E-02  0.1259629E+00
         11   -1    0    0    0    0  0.00000000000E+00  0.00000000000E+00  0.30000000000E+02  0.30000000000E+02  0.00000000000E+00 0. -1.
        -11   -1    0    0    0    0 -0.00000000000E+00 -0.00000000000E+00 -0.30000000000E+02  0.30000000000E+02  0.00000000000E+00 0.  1.
         23    2    1    2    0    0  0.00000000000E+00  0.00000000000E+00  0.00000000000E+00  0.60000000000E+02  0.60000000000E+02 0.  0.
          5    1    3    3  501    0  0.13982106871E+01  0.21209533276E+02 -0.20642449106E+02  0.30000000000E+02  0.47000000000E+01 0.  1.
         -5    1    3    3    0  501 -0.13982106871E+01 -0.21209533276E+02  0.20642449106E+02  0.30000000000E+02  0.47000000000E+01 0. -1.
</event>
<event>
 5    1  0.7702600E-002  0.6000000E+02  0.7546771E-02  0.1259629E+00
         11   -1    0    0    0    0  0.00000000000E+00  0.00000000000E+00  0.30000000000E+02  0.30000000000E+02  0.00000000000E+00 0. -1.
        -11   -1    0    0    0    0 -0.00000000000E+00 -0.00000000000E+00 -0.30000000000E+02  0.30000000000E+02  0.00000000000E+00 0.  1.
         23    2    1    2    0    0  0.00000000000E+00  0.00000000000E+00  0.00000000000E+00  0.60000000000E+02  0.60000000000E+02 0.  0.
          5    1    3    3  501    0  0.20426182026E+02 -0.16445824970E+02 -0.13791879091E+02  0.30000000000E+02  0.47000000000E+01 0.  1.
         -5    1    3    3    0  501 -0.20426182026E+02  0.16445824970E+02  0.13791879091E+02  0.30000000000E+02  0.47000000000E+01 0. -1.
</event>
<event>
 5    1  0.7702600E-002  0.6000000E+02  0.7546771E-02  0.1259629E+00
         11   -1    0    0    0    0  0.00000000000E+00  0.00000000000E+00  0.30000000000E+02  0.30000000000E+02  0.00000000000E+00 0. -1.
        -11   -1    0    0    0    0 -0.00000000000E+00 -0.00000000000E+00 -0.30000000000E+02  0.30000000000E+02  0.00000000000E+00 0.  1.
         23    2    1    2    0    0  0.00000000000E+00  0.00000000000E+00  0.00000000000E+00  0.60000000000E+02  0.60000000000E+02 0.  0.
          5    1    3    3  501    0 -0.27959532101E+02 -0.76104785318E+01 -0.61850773013E+01  0.30000000000E+02  0.47000000000E+01 0.  1.
         -5    1    3    3    0  501  0.27959532101E+02  0.76104785318E+01  0.61850773013E+01  0.30000000000E+02  0.47000000000E+01 0. -1.
</event>
<event>
 5    1  0.7702600E-002  0.6000000E+02  0.7546771E-02  0.1259629E+00
         11   -1    0    0    0    0  0.00000000000E+00  0.00000000000E+00  0.30000000000E+02  0.30000000000E+02  0.00000000000E+00 0. -1.
        -11   -1    0    0    0    0 -0.00000000000E+00 -0.00000000000E+00 -0.30000000000E+02  0.30000000000E+02  0.00000000000E+00 0.  1.
         23    2    1    2    0    0  0.00000000000E+00  0.00000000000E+00  0.00000000000E+00  0.60000000000E+02  0.60000000000E+02 0.  0.
          5    1    3    3  501    0  0.20595797509E+02 -0.19211769541E+02  0.91995128179E+01  0.30000000000E+02  0.47000000000E+01 0. -1.
         -5    1    3    3    0  501 -0.20595797509E+02  0.19211769541E+02 -0.91995128179E+01  0.30000000000E+02  0.47000000000E+01 0.  1.
</event>
<event>
 5    1  0.7702600E-002  0.6000000E+02  0.7546771E-02  0.1259629E+00
         11   -1    0    0    0    0  0.00000000000E+00  0.00000000000E+00  0.30000000000E+02  0.30000000000E+02  0.00000000000E+00 0. -1.
        -11   -1    0    0    0    0 -0.00000000000E+00 -0.00000000000E+00 -0.30000000000E+02  0.30000000000E+02  0.00000000000E+00 0.  1.
         23    2    1    2    0    0  0.00000000000E+00  0.00000000000E+00  0.00000000000E+00  0.60000000000E+02  0.60000000000E+02 0.  0.
          5    1    3    3  501    0  0.28821471218E+01  0.82596514208E+01 -0.28308680407E+02  0.30000000000E+02  0.47000000000E+01 0.  1.
         -5    1    3    3    0  501 -0.28821471218E+01 -0.82596514208E+01  0.28308680407E+02  0.30000000000E+02  0.47000000000E+01 0. -1.
</event>
<event>
 5    1  0.7702600E-002  0.6000000E+02  0.7546771E-02  0.1259629E+00
         11   -1    0    0    0    0  0.00000000000E+00  0.00000000000E+00  0.30000000000E+02  0.30000000000E+02  0.00000000000E+00 0.  1.
        -11   -1    0    0    0    0 -0.00000000000E+00 -0.00000000000E+00 -0.30000000000E+02  0.30000000000E+02  0.00000000000E+00 0. -1.
         23    2    1    2    0    0  0.00000000000E+00  0.00000000000E+00  0.00000000000E+00  0.60000000000E+02  0.60000000000E+02 0.  0.
          5    1    3    3  501    0 -0.23314857462E+02  0.18026963436E+02 -0.30587596837E+01  0.30000000000E+02  0.47000000000E+01 0. -1.
         -5    1    3    3    0  501  0.23314857462E+02 -0.18026963436E+02  0.30587596837E+01  0.30000000000E+02  0.47000000000E+01 0.  1.
</event>
<event>
 5    1  0.7702600E-002  0.6000000E+02  0.7546771E-02  0.1259629E+00
         11   -1    0    0    0    0  0.00000000000E+00  0.00000000000E+00  0.30000000000E+02  0.30000000000E+02  0.00000000000E+00 0. -1.
        -11   -1    0    0    0    0 -0.00000000000E+00 -0.00000000000E+00 -0.30000000000E+02  0.30000000000E+02  0.00000000000E+00 0.  1.
         23    2    1    2    0    0  0.00000000000E+00  0.00000000000E+00  0.00000000000E+00  0.60000000000E+02  0.60000000000E+02 0.  0.
          5    1    3    3  501    0 -0.21093747054E+01 -0.15525563997E+02 -0.25147910468E+02  0.30000000000E+02  0.47000000000E+01 0.  1.
         -5    1    3    3    0  501  0.21093747054E+01  0.15525563997E+02  0.25147910468E+02  0.30000000000E+02  0.47000000000E+01 0. -1.
</event>
<event>
 5    1  0.7702600E-002  0.6000000E+02  0.7546771E-02  0.1259629E+00
         11   -1    0    0    0    0  0.00000000000E+00  0.00000000000E+00  0.30000000000E+02  0.30000000000E+02  0.00000000000E+00 0. -1.
        -11   -1    0    0    0    0 -0.00000000000E+00 -0.00000000000E+00 -0.30000000000E+02  0.30000000000E+02  0.00000000000E+00 0.  1.
         23    2    1    2    0    0  0.00000000000E+00  0.00000000000E+00  0.00000000000E+00  0.60000000000E+02  0.60000000000E+02 0.  0.
          5    1    3    3  501    0 -0.18331483227E+02 -0.16417706631E+02 -0.16502291710E+02  0.30000000000E+02  0.47000000000E+01 0.  1.
         -5    1    3    3    0  501  0.18331483227E+02  0.16417706631E+02  0.16502291710E+02  0.30000000000E+02  0.47000000000E+01 0. -1.
</event>
<event>
 5    1  0.7702600E-002  0.6000000E+02  0.7546771E-02  0.1259629E+00
         11   -1    0    0    0    0  0.00000000000E+00  0.00000000000E+00  0.30000000000E+02  0.30000000000E+02  0.00000000000E+00 0.  1.
        -11   -1    0    0    0    0 -0.00000000000E+00 -0.00000000000E+00 -0.30000000000E+02  0.30000000000E+02  0.00000000000E+00 0. -1.
         23    2    1    2    0    0  0.00000000000E+00  0.00000000000E+00  0.00000000000E+00  0.60000000000E+02  0.60000000000E+02 0.  0.
          5    1    3    3  501    0  0.14896826326E+02  0.22231639394E+02 -0.12718049192E+02  0.30000000000E+02  0.47000000000E+01 0.  1.
         -5    1    3    3    0  501 -0.14896826326E+02 -0.22231639394E+02  0.12718049192E+02  0.30000000000E+02  0.47000000000E+01 0. -1.
</event>
<event>
 5    1  0.7702600E-002  0.6000000E+02  0.7546771E-02  0.1259629E+00
         11   -1    0    0    0    0  0.00000000000E+00  0.00000000000E+00  0.30000000000E+02  0.30000000000E+02  0.00000000000E+00 0. -1.
        -11   -1    0    0    0    0 -0.00000000000E+00 -0.00000000000E+00 -0.30000000000E+02  0.30000000000E+02  0.00000000000E+00 0.  1.
         23    2    1    2    0    0  0.00000000000E+00  0.00000000000E+00  0.00000000000E+00  0.60000000000E+02  0.60000000000E+02 0.  0.
          5    1    3    3  501    0  0.17474935050E+02  0.36571393674E+01  0.23646606028E+02  0.30000000000E+02  0.47000000000E+01 0. -1.
         -5    1    3    3    0  501 -0.17474935050E+02 -0.36571393674E+01 -0.23646606028E+02  0.30000000000E+02  0.47000000000E+01 0.  1.
</event>
<event>
 5    1  0.7702600E-002  0.6000000E+02  0.7546771E-02  0.1259629E+00
         11   -1    0    0    0    0  0.00000000000E+00  0.00000000000E+00  0.30000000000E+02  0.30000000000E+02  0.00000000000E+00 0.  1.
        -11   -1    0    0    0    0 -0.00000000000E+00 -0.00000000000E+00 -0.30000000000E+02  0.30000000000E+02  0.00000000000E+00 0. -1.
         23    2    1    2    0    0  0.00000000000E+00  0.00000000000E+00  0.00000000000E+00  0.60000000000E+02  0.60000000000E+02 0.  0.
          5    1    3    3  501    0  0.93823473355E+01  0.22390950870E+02 -0.16986078936E+02  0.30000000000E+02  0.47000000000E+01 0. -1.
         -5    1    3    3    0  501 -0.93823473355E+01 -0.22390950870E+02  0.16986078936E+02  0.30000000000E+02  0.47000000000E+01 0.  1.
</event>
<event>
 5    1  0.7702600E-002  0.6000000E+02  0.7546771E-02  0.1259629E+00
         11   -1    0    0    0    0  0.00000000000E+00  0.00000000000E+00  0.30000000000E+02  0.30000000000E+02  0.00000000000E+00 0. -1.
        -11   -1    0    0    0    0 -0.00000000000E+00 -0.00000000000E+00 -0.30000000000E+02  0.30000000000E+02  0.00000000000E+00 0.  1.
         23    2    1    2    0    0  0.00000000000E+00  0.00000000000E+00  0.00000000000E+00  0.60000000000E+02  0.60000000000E+02 0.  0.
          5    1    3    3  501    0  0.74898418570E+01  0.27302969891E+02  0.87384268645E+01  0.30000000000E+02  0.47000000000E+01 0. -1.
         -5    1    3    3    0  501 -0.74898418570E+01 -0.27302969891E+02 -0.87384268645E+01  0.30000000000E+02  0.47000000000E+01 0.  1.
</event>
<event>
 5    1  0.7702600E-002  0.6000000E+02  0.7546771E-02  0.1259629E+00
         11   -1    0    0    0    0  0.00000000000E+00  0.00000000000E+00  0.30000000000E+02  0.30000000000E+02  0.00000000000E+00 0. -1.
        -11   -1    0    0    0    0 -0.00000000000E+00 -0.00000000000E+00 -0.30000000000E+02  0.30000000000E+02  0.00000000000E+00 0.  1.
         23    2    1    2    0    0  0.00000000000E+00  0.00000000000E+00  0.00000000000E+00  0.60000000000E+02  0.60000000000E+02 0.  0.
          5    1    3    3  501    0  0.22797464756E+02  0.11713758234E+02 -0.14865176378E+02  0.30000000000E+02  0.47000000000E+01 0.  1.
         -5    1    3    3    0  501 -0.22797464756E+02 -0.11713758234E+02  0.14865176378E+02  0.30000000000E+02  0.47000000000E+01 0. -1.
</event>
<event>
 5    1  0.7702600E-002  0.6000000E+02  0.7546771E-02  0.1259629E+00
         11   -1    0    0    0    0  0.00000000000E+00  0.00000000000E+00  0.30000000000E+02  0.30000000000E+02  0.00000000000E+00 0.  1.
        -11   -1    0    0    0    0 -0.00000000000E+00 -0.00000000000E+00 -0.30000000000E+02  0.30000000000E+02  0.00000000000E+00 0. -1.
         23    2    1    2    0    0  0.00000000000E+00  0.00000000000E+00  0.00000000000E+00  0.60000000000E+02  0.60000000000E+02 0.  0.
          5    1    3    3  501    0 -0.78532392409E+01  0.26287874005E+02 -0.11188579612E+02  0.30000000000E+02  0.47000000000E+01 0. -1.
         -5    1    3    3    0  501  0.78532392409E+01 -0.26287874005E+02  0.11188579612E+02  0.30000000000E+02  0.47000000000E+01 0.  1.
</event>
<event>
 5    1  0.7702600E-002  0.6000000E+02  0.7546771E-02  0.1259629E+00
         11   -1    0    0    0    0  0.00000000000E+00  0.00000000000E+00  0.30000000000E+02  0.30000000000E+02  0.00000000000E+00 0.  1.
        -11   -1    0    0    0    0 -0.00000000000E+00 -0.00000000000E+00 -0.30000000000E+02  0.30000000000E+02  0.00000000000E+00 0. -1.
         23    2    1    2    0    0  0.00000000000E+00  0.00000000000E+00  0.00000000000E+00  0.60000000000E+02  0.60000000000E+02 0.  0.
          5    1    3    3  501    0 -0.16297723623E+02  0.37714659062E+01 -0.24455474839E+02  0.30000000000E+02  0.47000000000E+01 0. -1.
         -5    1    3    3    0  501  0.16297723623E+02 -0.37714659062E+01  0.24455474839E+02  0.30000000000E+02  0.47000000000E+01 0.  1.
</event>
<event>
 5    1  0.7702600E-002  0.6000000E+02  0.7546771E-02  0.1259629E+00
         11   -1    0    0    0    0  0.00000000000E+00  0.00000000000E+00  0.30000000000E+02  0.30000000000E+02  0.00000000000E+00 0.  1.
        -11   -1    0    0    0    0 -0.00000000000E+00 -0.00000000000E+00 -0.30000000000E+02  0.30000000000E+02  0.00000000000E+00 0. -1.
         23    2    1    2    0    0  0.00000000000E+00  0.00000000000E+00  0.00000000000E+00  0.60000000000E+02  0.60000000000E+02 0.  0.
          5    1    3    3  501    0  0.26952540762E+02 -0.10303175589E+02 -0.67316505579E+01  0.30000000000E+02  0.47000000000E+01 0. -1.
         -5    1    3    3    0  501 -0.26952540762E+02  0.10303175589E+02  0.67316505579E+01  0.30000000000E+02  0.47000000000E+01 0.  1.
</event>
<event>
 5    1  0.7702600E-002  0.6000000E+02  0.7546771E-02  0.1259629E+00
         11   -1    0    0    0    0  0.00000000000E+00  0.00000000000E+00  0.30000000000E+02  0.30000000000E+02  0.00000000000E+00 0.  1.
        -11   -1    0    0    0    0 -0.00000000000E+00 -0.00000000000E+00 -0.30000000000E+02  0.30000000000E+02  0.00000000000E+00 0. -1.
         23    2    1    2    0    0  0.00000000000E+00  0.00000000000E+00  0.00000000000E+00  0.60000000000E+02  0.60000000000E+02 0.  0.
          5    1    3    3  501    0 -0.26574047856E+02  0.10604124027E+02  0.76995151906E+01  0.30000000000E+02  0.47000000000E+01 0. -1.
         -5    1    3    3    0  501  0.26574047856E+02 -0.10604124027E+02 -0.76995151906E+01  0.30000000000E+02  0.47000000000E+01 0.  1.
</event>
<event>
 5    1  0.7702600E-002  0.6000000E+02  0.7546771E-02  0.1259629E+00
         11   -1    0    0    0    0  0.00000000000E+00  0.00000000000E+00  0.30000000000E+02  0.30000000000E+02  0.00000000000E+00 0.  1.
        -11   -1    0    0    0    0 -0.00000000000E+00 -0.00000000000E+00 -0.30000000000E+02  0.30000000000E+02  0.00000000000E+00 0. -1.
         23    2    1    2    0    0  0.00000000000E+00  0.00000000000E+00  0.00000000000E+00  0.60000000000E+02  0.60000000000E+02 0.  0.
          5    1    3    3  501    0 -0.25019532462E+02  0.14788505426E+02 -0.57648159249E+01  0.30000000000E+02  0.47000000000E+01 0. -1.
         -5    1    3    3    0  501  0.25019532462E+02 -0.14788505426E+02  0.57648159249E+01  0.30000000000E+02  0.47000000000E+01 0.  1.
</event>
<event>
 5    1  0.7702600E-002  0.6000000E+02  0.7546771E-02  0.1259629E+00
         11   -1    0    0    0    0  0.00000000000E+00  0.00000000000E+00  0.30000000000E+02  0.30000000000E+02  0.00000000000E+00 0.  1.
        -11   -1    0    0    0    0 -0.00000000000E+00 -0.00000000000E+00 -0.30000000000E+02  0.30000000000E+02  0.00000000000E+00 0. -1.
         23    2    1    2    0    0  0.00000000000E+00  0.00000000000E+00  0.00000000000E+00  0.60000000000E+02  0.60000000000E+02 0.  0.
          5    1    3    3  501    0  0.14458081754E+02 -0.11735432401E+02 -0.23046767634E+02  0.30000000000E+02  0.47000000000E+01 0. -1.
         -5    1    3    3    0  501 -0.14458081754E+02  0.11735432401E+02  0.23046767634E+02  0.30000000000E+02  0.47000000000E+01 0.  1.
</event>
<event>
 5    1  0.7702600E-002  0.6000000E+02  0.7546771E-02  0.1259629E+00
         11   -1    0    0    0    0  0.00000000000E+00  0.00000000000E+00  0.30000000000E+02  0.30000000000E+02  0.00000000000E+00 0.  1.
        -11   -1    0    0    0    0 -0.00000000000E+00 -0.00000000000E+00 -0.30000000000E+02  0.30000000000E+02  0.00000000000E+00 0. -1.
         23    2    1    2    0    0  0.00000000000E+00  0.00000000000E+00  0.00000000000E+00  0.60000000000E+02  0.60000000000E+02 0.  0.
          5    1    3    3  501    0  0.19476275959E+02  0.10322209080E+02 -0.19799916022E+02  0.30000000000E+02  0.47000000000E+01 0. -1.
         -5    1    3    3    0  501 -0.19476275959E+02 -0.10322209080E+02  0.19799916022E+02  0.30000000000E+02  0.47000000000E+01 0.  1.
</event>
<event>
 5    1  0.7702600E-002  0.6000000E+02  0.7546771E-02  0.1259629E+00
         11   -1    0    0    0    0  0.00000000000E+00  0.00000000000E+00  0.30000000000E+02  0.30000000000E+02  0.00000000000E+00 0.  1.
        -11   -1    0    0    0    0 -0.00000000000E+00 -0.00000000000E+00 -0.30000000000E+02  0.30000000000E+02  0.00000000000E+00 0. -1.
         23    2    1    2    0    0  0.00000000000E+00  0.00000000000E+00  0.00000000000E+00  0.60000000000E+02  0.60000000000E+02 0.  0.
          5    1    3    3  501    0 -0.14749879729E+02 -0.69004304609E+01 -0.24753486773E+02  0.30000000000E+02  0.47000000000E+01 0. -1.
         -5    1    3    3    0  501  0.14749879729E+02  0.69004304609E+01  0.24753486773E+02  0.30000000000E+02  0.47000000000E+01 0.  1.
</event>
<event>
 5    1  0.7702600E-002  0.6000000E+02  0.7546771E-02  0.1259629E+00
         11   -1    0    0    0    0  0.00000000000E+00  0.00000000000E+00  0.30000000000E+02  0.30000000000E+02  0.00000000000E+00 0.  1.
        -11   -1    0    0    0    0 -0.00000000000E+00 -0.00000000000E+00 -0.30000000000E+02  0.30000000000E+02  0.00000000000E+00 0. -1.
         23    2    1    2    0    0  0.00000000000E+00  0.00000000000E+00  0.00000000000E+00  0.60000000000E+02  0.60000000000E+02 0.  0.
          5    1    3    3  501    0 -0.10603882662E+02  0.56450605133E+01 -0.27085069029E+02  0.30000000000E+02  0.47000000000E+01 0. -1.
         -5    1    3    3    0  501  0.10603882662E+02 -0.56450605133E+01  0.27085069029E+02  0.30000000000E+02  0.47000000000E+01 0.  1.
</event>
<event>
 5    1  0.7702600E-002  0.6000000E+02  0.7546771E-02  0.1259629E+00
         11   -1    0    0    0    0  0.00000000000E+00  0.00000000000E+00  0.30000000000E+02  0.30000000000E+02  0.00000000000E+00 0. -1.
        -11   -1    0    0    0    0 -0.00000000000E+00 -0.00000000000E+00 -0.30000000000E+02  0.30000000000E+02  0.00000000000E+00 0.  1.
         23    2    1    2    0    0  0.00000000000E+00  0.00000000000E+00  0.00000000000E+00  0.60000000000E+02  0.60000000000E+02 0.  0.
          5    1    3    3  501    0  0.15034016347E+01 -0.23412339248E+02 -0.18097296883E+02  0.30000000000E+02  0.47000000000E+01 0.  1.
         -5    1    3    3    0  501 -0.15034016347E+01  0.23412339248E+02  0.18097296883E+02  0.30000000000E+02  0.47000000000E+01 0. -1.
</event>
<event>
 5    1  0.7702600E-002  0.6000000E+02  0.7546771E-02  0.1259629E+00
         11   -1    0    0    0    0  0.00000000000E+00  0.00000000000E+00  0.30000000000E+02  0.30000000000E+02  0.00000000000E+00 0. -1.
        -11   -1    0    0    0    0 -0.00000000000E+00 -0.00000000000E+00 -0.30000000000E+02  0.30000000000E+02  0.00000000000E+00 0.  1.
         23    2    1    2    0    0  0.00000000000E+00  0.00000000000E+00  0.00000000000E+00  0.60000000000E+02  0.60000000000E+02 0.  0.
          5    1    3    3  501    0  0.24591663365E+02  0.11810539807E+01 -0.16485302680E+02  0.30000000000E+02  0.47000000000E+01 0.  1.
         -5    1    3    3    0  501 -0.24591663365E+02 -0.11810539807E+01  0.16485302680E+02  0.30000000000E+02  0.47000000000E+01 0. -1.
</event>
<event>
 5    1  0.7702600E-002  0.6000000E+02  0.7546771E-02  0.1259629E+00
         11   -1    0    0    0    0  0.00000000000E+00  0.00000000000E+00  0.30000000000E+02  0.30000000000E+02  0.00000000000E+00 0.  1.
        -11   -1    0    0    0    0 -0.00000000000E+00 -0.00000000000E+00 -0.30000000000E+02  0.30000000000E+02  0.00000000000E+00 0. -1.
         23    2    1    2    0    0  0.00000000000E+00  0.00000000000E+00  0.00000000000E+00  0.60000000000E+02  0.60000000000E+02 0.  0.
          5    1    3    3  501    0 -0.12301916632E+02 -0.24472184191E+02 -0.11299780887E+02  0.30000000000E+02  0.47000000000E+01 0. -1.
         -5    1    3    3    0  501  0.12301916632E+02  0.24472184191E+02  0.11299780887E+02  0.30000000000E+02  0.47000000000E+01 0.  1.
</event>
<event>
 5    1  0.7702600E-002  0.6000000E+02  0.7546771E-02  0.1259629E+00
         11   -1    0    0    0    0  0.00000000000E+00  0.00000000000E+00  0.30000000000E+02  0.30000000000E+02  0.00000000000E+00 0.  1.
        -11   -1    0    0    0    0 -0.00000000000E+00 -0.00000000000E+00 -0.30000000000E+02  0.30000000000E+02  0.00000000000E+00 0. -1.
         23    2    1    2    0    0  0.00000000000E+00  0.00000000000E+00  0.00000000000E+00  0.60000000000E+02  0.60000000000E+02 0.  0.
          5    1    3    3  501    0 -0.26959288280E+02 -0.44793524741E+01 -0.11447365499E+02  0.30000000000E+02  0.47000000000E+01 0. -1.
         -5    1    3    3    0  501  0.26959288280E+02  0.44793524741E+01  0.11447365499E+02  0.30000000000E+02  0.47000000000E+01 0.  1.
</event>
<event>
 5    1  0.7702600E-002  0.6000000E+02  0.7546771E-02  0.1259629E+00
         11   -1    0    0    0    0  0.00000000000E+00  0.00000000000E+00  0.30000000000E+02  0.30000000000E+02  0.00000000000E+00 0.  1.
        -11   -1    0    0    0    0 -0.00000000000E+00 -0.00000000000E+00 -0.30000000000E+02  0.30000000000E+02  0.00000000000E+00 0. -1.
         23    2    1    2    0    0  0.00000000000E+00  0.00000000000E+00  0.00000000000E+00  0.60000000000E+02  0.60000000000E+02 0.  0.
          5    1    3    3  501    0  0.22601849088E+02  0.17433799056E+02  0.79453803091E+01  0.30000000000E+02  0.47000000000E+01 0.  1.
         -5    1    3    3    0  501 -0.22601849088E+02 -0.17433799056E+02 -0.79453803091E+01  0.30000000000E+02  0.47000000000E+01 0. -1.
</event>
<event>
 5    1  0.7702600E-002  0.6000000E+02  0.7546771E-02  0.1259629E+00
         11   -1    0    0    0    0  0.00000000000E+00  0.00000000000E+00  0.30000000000E+02  0.30000000000E+02  0.00000000000E+00 0. -1.
        -11   -1    0    0    0    0 -0.00000000000E+00 -0.00000000000E+00 -0.30000000000E+02  0.30000000000E+02  0.00000000000E+00 0.  1.
         23    2    1    2    0    0  0.00000000000E+00  0.00000000000E+00  0.00000000000E+00  0.60000000000E+02  0.60000000000E+02 0.  0.
          5    1    3    3  501    0 -0.19644865590E+02 -0.17341959123E+02 -0.13829161569E+02  0.30000000000E+02  0.47000000000E+01 0.  1.
         -5    1    3    3    0  501  0.19644865590E+02  0.17341959123E+02  0.13829161569E+02  0.30000000000E+02  0.47000000000E+01 0. -1.
</event>
<event>
 5    1  0.7702600E-002  0.6000000E+02  0.7546771E-02  0.1259629E+00
         11   -1    0    0    0    0  0.00000000000E+00  0.00000000000E+00  0.30000000000E+02  0.30000000000E+02  0.00000000000E+00 0. -1.
        -11   -1    0    0    0    0 -0.00000000000E+00 -0.00000000000E+00 -0.30000000000E+02  0.30000000000E+02  0.00000000000E+00 0.  1.
         23    2    1    2    0    0  0.00000000000E+00  0.00000000000E+00  0.00000000000E+00  0.60000000000E+02  0.60000000000E+02 0.  0.
          5    1    3    3  501    0 -0.11209315923E+02 -0.14050106590E+01 -0.27391370568E+02  0.30000000000E+02  0.47000000000E+01 0.  1.
         -5    1    3    3    0  501  0.11209315923E+02  0.14050106590E+01  0.27391370568E+02  0.30000000000E+02  0.47000000000E+01 0. -1.
</event>
<event>
 5    1  0.7702600E-002  0.6000000E+02  0.7546771E-02  0.1259629E+00
         11   -1    0    0    0    0  0.00000000000E+00  0.00000000000E+00  0.30000000000E+02  0.30000000000E+02  0.00000000000E+00 0.  1.
        -11   -1    0    0    0    0 -0.00000000000E+00 -0.00000000000E+00 -0.30000000000E+02  0.30000000000E+02  0.00000000000E+00 0. -1.
         23    2    1    2    0    0  0.00000000000E+00  0.00000000000E+00  0.00000000000E+00  0.60000000000E+02  0.60000000000E+02 0.  0.
          5    1    3    3  501    0  0.12473771710E+02  0.25030927945E+02  0.97860955200E+01  0.30000000000E+02  0.47000000000E+01 0.  1.
         -5    1    3    3    0  501 -0.12473771710E+02 -0.25030927945E+02 -0.97860955200E+01  0.30000000000E+02  0.47000000000E+01 0. -1.
</event>
<event>
 5    1  0.7702600E-002  0.6000000E+02  0.7546771E-02  0.1259629E+00
         11   -1    0    0    0    0  0.00000000000E+00  0.00000000000E+00  0.30000000000E+02  0.30000000000E+02  0.00000000000E+00 0. -1.
        -11   -1    0    0    0    0 -0.00000000000E+00 -0.00000000000E+00 -0.30000000000E+02  0.30000000000E+02  0.00000000000E+00 0.  1.
         23    2    1    2    0    0  0.00000000000E+00  0.00000000000E+00  0.00000000000E+00  0.60000000000E+02  0.60000000000E+02 0.  0.
          5    1    3    3  501    0 -0.51202013307E+01 -0.26319011087E+02 -0.12609646851E+02  0.30000000000E+02  0.47000000000E+01 0.  1.
         -5    1    3    3    0  501  0.51202013307E+01  0.26319011087E+02  0.12609646851E+02  0.30000000000E+02  0.47000000000E+01 0. -1.
</event>
<event>
 5    1  0.7702600E-002  0.6000000E+02  0.7546771E-02  0.1259629E+00
         11   -1    0    0    0    0  0.00000000000E+00  0.00000000000E+00  0.30000000000E+02  0.30000000000E+02  0.00000000000E+00 0.  1.
        -11   -1    0    0    0    0 -0.00000000000E+00 -0.00000000000E+00 -0.30000000000E+02  0.30000000000E+02  0.00000000000E+00 0. -1.
         23    2    1    2    0    0  0.00000000000E+00  0.00000000000E+00  0.00000000000E+00  0.60000000000E+02  0.60000000000E+02 0.  0.
          5    1    3    3  501    0  0.52062885893E+01  0.26071579726E+02 -0.13079651742E+02  0.30000000000E+02  0.47000000000E+01 0. -1.
         -5    1    3    3    0  501 -0.52062885893E+01 -0.26071579726E+02  0.13079651742E+02  0.30000000000E+02  0.47000000000E+01 0.  1.
</event>
<event>
 5    1  0.7702600E-002  0.6000000E+02  0.7546771E-02  0.1259629E+00
         11   -1    0    0    0    0  0.00000000000E+00  0.00000000000E+00  0.30000000000E+02  0.30000000000E+02  0.00000000000E+00 0. -1.
        -11   -1    0    0    0    0 -0.00000000000E+00 -0.00000000000E+00 -0.30000000000E+02  0.30000000000E+02  0.00000000000E+00 0.  1.
         23    2    1    2    0    0  0.00000000000E+00  0.00000000000E+00  0.00000000000E+00  0.60000000000E+02  0.60000000000E+02 0.  0.
          5    1    3    3  501    0  0.27090634233E+02 -0.11715271705E+02  0.25999895593E+01  0.30000000000E+02  0.47000000000E+01 0.  1.
         -5    1    3    3    0  501 -0.27090634233E+02  0.11715271705E+02 -0.25999895593E+01  0.30000000000E+02  0.47000000000E+01 0. -1.
</event>
<event>
 5    1  0.7702600E-002  0.6000000E+02  0.7546771E-02  0.1259629E+00
         11   -1    0    0    0    0  0.00000000000E+00  0.00000000000E+00  0.30000000000E+02  0.30000000000E+02  0.00000000000E+00 0.  1.
        -11   -1    0    0    0    0 -0.00000000000E+00 -0.00000000000E+00 -0.30000000000E+02  0.30000000000E+02  0.00000000000E+00 0. -1.
         23    2    1    2    0    0  0.00000000000E+00  0.00000000000E+00  0.00000000000E+00  0.60000000000E+02  0.60000000000E+02 0.  0.
          5    1    3    3  501    0  0.10738718096E+02 -0.25263960128E+02  0.11149988893E+02  0.30000000000E+02  0.47000000000E+01 0. -1.
         -5    1    3    3    0  501 -0.10738718096E+02  0.25263960128E+02 -0.11149988893E+02  0.30000000000E+02  0.47000000000E+01 0. -1.
</event>
<event>
 5    1  0.7702600E-002  0.6000000E+02  0.7546771E-02  0.1259629E+00
         11   -1    0    0    0    0  0.00000000000E+00  0.00000000000E+00  0.30000000000E+02  0.30000000000E+02  0.00000000000E+00 0.  1.
        -11   -1    0    0    0    0 -0.00000000000E+00 -0.00000000000E+00 -0.30000000000E+02  0.30000000000E+02  0.00000000000E+00 0. -1.
         23    2    1    2    0    0  0.00000000000E+00  0.00000000000E+00  0.00000000000E+00  0.60000000000E+02  0.60000000000E+02 0.  0.
          5    1    3    3  501    0  0.28062988105E+02 -0.94841032363E+01  0.65611310483E+00  0.30000000000E+02  0.47000000000E+01 0. -1.
         -5    1    3    3    0  501 -0.28062988105E+02  0.94841032363E+01 -0.65611310483E+00  0.30000000000E+02  0.47000000000E+01 0.  1.
</event>
<event>
 5    1  0.7702600E-002  0.6000000E+02  0.7546771E-02  0.1259629E+00
         11   -1    0    0    0    0  0.00000000000E+00  0.00000000000E+00  0.30000000000E+02  0.30000000000E+02  0.00000000000E+00 0.  1.
        -11   -1    0    0    0    0 -0.00000000000E+00 -0.00000000000E+00 -0.30000000000E+02  0.30000000000E+02  0.00000000000E+00 0. -1.
         23    2    1    2    0    0  0.00000000000E+00  0.00000000000E+00  0.00000000000E+00  0.60000000000E+02  0.60000000000E+02 0.  0.
          5    1    3    3  501    0 -0.24696780749E+02  0.12720987118E+02 -0.10303179480E+02  0.30000000000E+02  0.47000000000E+01 0. -1.
         -5    1    3    3    0  501  0.24696780749E+02 -0.12720987118E+02  0.10303179480E+02  0.30000000000E+02  0.47000000000E+01 0.  1.
</event>
<event>
 5    1  0.7702600E-002  0.6000000E+02  0.7546771E-02  0.1259629E+00
         11   -1    0    0    0    0  0.00000000000E+00  0.00000000000E+00  0.30000000000E+02  0.30000000000E+02  0.00000000000E+00 0.  1.
        -11   -1    0    0    0    0 -0.00000000000E+00 -0.00000000000E+00 -0.30000000000E+02  0.30000000000E+02  0.00000000000E+00 0. -1.
         23    2    1    2    0    0  0.00000000000E+00  0.00000000000E+00  0.00000000000E+00  0.60000000000E+02  0.60000000000E+02 0.  0.
          5    1    3    3  501    0 -0.47515556381E+01 -0.16095086371E+00 -0.29245628970E+02  0.30000000000E+02  0.47000000000E+01 0. -1.
         -5    1    3    3    0  501  0.47515556381E+01  0.16095086371E+00  0.29245628970E+02  0.30000000000E+02  0.47000000000E+01 0.  1.
</event>
<event>
 5    1  0.7702600E-002  0.6000000E+02  0.7546771E-02  0.1259629E+00
         11   -1    0    0    0    0  0.00000000000E+00  0.00000000000E+00  0.30000000000E+02  0.30000000000E+02  0.00000000000E+00 0. -1.
        -11   -1    0    0    0    0 -0.00000000000E+00 -0.00000000000E+00 -0.30000000000E+02  0.30000000000E+02  0.00000000000E+00 0.  1.
         23    2    1    2    0    0  0.00000000000E+00  0.00000000000E+00  0.00000000000E+00  0.60000000000E+02  0.60000000000E+02 0.  0.
          5    1    3    3  501    0 -0.64786393902E+01  0.25542025270E+02 -0.13547773867E+02  0.30000000000E+02  0.47000000000E+01 0.  1.
         -5    1    3    3    0  501  0.64786393902E+01 -0.25542025270E+02  0.13547773867E+02  0.30000000000E+02  0.47000000000E+01 0. -1.
</event>
<event>
 5    1  0.7702600E-002  0.6000000E+02  0.7546771E-02  0.1259629E+00
         11   -1    0    0    0    0  0.00000000000E+00  0.00000000000E+00  0.30000000000E+02  0.30000000000E+02  0.00000000000E+00 0.  1.
        -11   -1    0    0    0    0 -0.00000000000E+00 -0.00000000000E+00 -0.30000000000E+02  0.30000000000E+02  0.00000000000E+00 0. -1.
         23    2    1    2    0    0  0.00000000000E+00  0.00000000000E+00  0.00000000000E+00  0.60000000000E+02  0.60000000000E+02 0.  0.
          5    1    3    3  501    0  0.21435774375E+02 -0.20430136183E+02  0.10134655761E+01  0.30000000000E+02  0.47000000000E+01 0.  1.
         -5    1    3    3    0  501 -0.21435774375E+02  0.20430136183E+02 -0.10134655761E+01  0.30000000000E+02  0.47000000000E+01 0. -1.
</event>
<event>
 5    1  0.7702600E-002  0.6000000E+02  0.7546771E-02  0.1259629E+00
         11   -1    0    0    0    0  0.00000000000E+00  0.00000000000E+00  0.30000000000E+02  0.30000000000E+02  0.00000000000E+00 0.  1.
        -11   -1    0    0    0    0 -0.00000000000E+00 -0.00000000000E+00 -0.30000000000E+02  0.30000000000E+02  0.00000000000E+00 0. -1.
         23    2    1    2    0    0  0.00000000000E+00  0.00000000000E+00  0.00000000000E+00  0.60000000000E+02  0.60000000000E+02 0.  0.
          5    1    3    3  501    0  0.89956388746E+01  0.18562381404E+02 -0.21270319176E+02  0.30000000000E+02  0.47000000000E+01 0. -1.
         -5    1    3    3    0  501 -0.89956388746E+01 -0.18562381404E+02  0.21270319176E+02  0.30000000000E+02  0.47000000000E+01 0.  1.
</event>
<event>
 5    1  0.7702600E-002  0.6000000E+02  0.7546771E-02  0.1259629E+00
         11   -1    0    0    0    0  0.00000000000E+00  0.00000000000E+00  0.30000000000E+02  0.30000000000E+02  0.00000000000E+00 0.  1.
        -11   -1    0    0    0    0 -0.00000000000E+00 -0.00000000000E+00 -0.30000000000E+02  0.30000000000E+02  0.00000000000E+00 0. -1.
         23    2    1    2    0    0  0.00000000000E+00  0.00000000000E+00  0.00000000000E+00  0.60000000000E+02  0.60000000000E+02 0.  0.
          5    1    3    3  501    0  0.26021886275E+02 -0.83041647375E+01 -0.11480953040E+02  0.30000000000E+02  0.47000000000E+01 0. -1.
         -5    1    3    3    0  501 -0.26021886275E+02  0.83041647375E+01  0.11480953040E+02  0.30000000000E+02  0.47000000000E+01 0.  1.
</event>
<event>
 5    1  0.7702600E-002  0.6000000E+02  0.7546771E-02  0.1259629E+00
         11   -1    0    0    0    0  0.00000000000E+00  0.00000000000E+00  0.30000000000E+02  0.30000000000E+02  0.00000000000E+00 0. -1.
        -11   -1    0    0    0    0 -0.00000000000E+00 -0.00000000000E+00 -0.30000000000E+02  0.30000000000E+02  0.00000000000E+00 0.  1.
         23    2    1    2    0    0  0.00000000000E+00  0.00000000000E+00  0.00000000000E+00  0.60000000000E+02  0.60000000000E+02 0.  0.
          5    1    3    3  501    0 -0.90632131299E+01  0.27660815847E+02 -0.55360125017E+01  0.30000000000E+02  0.47000000000E+01 0.  1.
         -5    1    3    3    0  501  0.90632131299E+01 -0.27660815847E+02  0.55360125017E+01  0.30000000000E+02  0.47000000000E+01 0. -1.
</event>
<event>
 5    1  0.7702600E-002  0.6000000E+02  0.7546771E-02  0.1259629E+00
         11   -1    0    0    0    0  0.00000000000E+00  0.00000000000E+00  0.30000000000E+02  0.30000000000E+02  0.00000000000E+00 0.  1.
        -11   -1    0    0    0    0 -0.00000000000E+00 -0.00000000000E+00 -0.30000000000E+02  0.30000000000E+02  0.00000000000E+00 0. -1.
         23    2    1    2    0    0  0.00000000000E+00  0.00000000000E+00  0.00000000000E+00  0.60000000000E+02  0.60000000000E+02 0.  0.
          5    1    3    3  501    0 -0.10932337741E+02  0.27479143492E+02 -0.18140188669E+01  0.30000000000E+02  0.47000000000E+01 0. -1.
         -5    1    3    3    0  501  0.10932337741E+02 -0.27479143492E+02  0.18140188669E+01  0.30000000000E+02  0.47000000000E+01 0.  1.
</event>
<event>
 5    1  0.7702600E-002  0.6000000E+02  0.7546771E-02  0.1259629E+00
         11   -1    0    0    0    0  0.00000000000E+00  0.00000000000E+00  0.30000000000E+02  0.30000000000E+02  0.00000000000E+00 0.  1.
        -11   -1    0    0    0    0 -0.00000000000E+00 -0.00000000000E+00 -0.30000000000E+02  0.30000000000E+02  0.00000000000E+00 0. -1.
         23    2    1    2    0    0  0.00000000000E+00  0.00000000000E+00  0.00000000000E+00  0.60000000000E+02  0.60000000000E+02 0.  0.
          5    1    3    3  501    0 -0.28871386590E+02 -0.13439542456E+01 -0.65227926058E+01  0.30000000000E+02  0.47000000000E+01 0. -1.
         -5    1    3    3    0  501  0.28871386590E+02  0.13439542456E+01  0.65227926058E+01  0.30000000000E+02  0.47000000000E+01 0.  1.
</event>
<event>
 5    1  0.7702600E-002  0.6000000E+02  0.7546771E-02  0.1259629E+00
         11   -1    0    0    0    0  0.00000000000E+00  0.00000000000E+00  0.30000000000E+02  0.30000000000E+02  0.00000000000E+00 0.  1.
        -11   -1    0    0    0    0 -0.00000000000E+00 -0.00000000000E+00 -0.30000000000E+02  0.30000000000E+02  0.00000000000E+00 0. -1.
         23    2    1    2    0    0  0.00000000000E+00  0.00000000000E+00  0.00000000000E+00  0.60000000000E+02  0.60000000000E+02 0.  0.
          5    1    3    3  501    0 -0.24862294712E+02  0.14552133601E+02 -0.69290482242E+01  0.30000000000E+02  0.47000000000E+01 0. -1.
         -5    1    3    3    0  501  0.24862294712E+02 -0.14552133601E+02  0.69290482242E+01  0.30000000000E+02  0.47000000000E+01 0.  1.
</event>
<event>
 5    1  0.7702600E-002  0.6000000E+02  0.7546771E-02  0.1259629E+00
         11   -1    0    0    0    0  0.00000000000E+00  0.00000000000E+00  0.30000000000E+02  0.30000000000E+02  0.00000000000E+00 0.  1.
        -11   -1    0    0    0    0 -0.00000000000E+00 -0.00000000000E+00 -0.30000000000E+02  0.30000000000E+02  0.00000000000E+00 0. -1.
         23    2    1    2    0    0  0.00000000000E+00  0.00000000000E+00  0.00000000000E+00  0.60000000000E+02  0.60000000000E+02 0.  0.
          5    1    3    3  501    0  0.24241804656E+01  0.92448733550E+01 -0.28045778037E+02  0.30000000000E+02  0.47000000000E+01 0. -1.
         -5    1    3    3    0  501 -0.24241804656E+01 -0.92448733550E+01  0.28045778037E+02  0.30000000000E+02  0.47000000000E+01 0.  1.
</event>
<event>
 5    1  0.7702600E-002  0.6000000E+02  0.7546771E-02  0.1259629E+00
         11   -1    0    0    0    0  0.00000000000E+00  0.00000000000E+00  0.30000000000E+02  0.30000000000E+02  0.00000000000E+00 0.  1.
        -11   -1    0    0    0    0 -0.00000000000E+00 -0.00000000000E+00 -0.30000000000E+02  0.30000000000E+02  0.00000000000E+00 0. -1.
         23    2    1    2    0    0  0.00000000000E+00  0.00000000000E+00  0.00000000000E+00  0.60000000000E+02  0.60000000000E+02 0.  0.
          5    1    3    3  501    0 -0.15446972855E+02 -0.22854441048E+02 -0.10815523751E+02  0.30000000000E+02  0.47000000000E+01 0. -1.
         -5    1    3    3    0  501  0.15446972855E+02  0.22854441048E+02  0.10815523751E+02  0.30000000000E+02  0.47000000000E+01 0.  1.
</event>
<event>
 5    1  0.7702600E-002  0.6000000E+02  0.7546771E-02  0.1259629E+00
         11   -1    0    0    0    0  0.00000000000E+00  0.00000000000E+00  0.30000000000E+02  0.30000000000E+02  0.00000000000E+00 0.  1.
        -11   -1    0    0    0    0 -0.00000000000E+00 -0.00000000000E+00 -0.30000000000E+02  0.30000000000E+02  0.00000000000E+00 0. -1.
         23    2    1    2    0    0  0.00000000000E+00  0.00000000000E+00  0.00000000000E+00  0.60000000000E+02  0.60000000000E+02 0.  0.
          5    1    3    3  501    0 -0.20768320445E+02  0.88470090334E+01 -0.19191594438E+02  0.30000000000E+02  0.47000000000E+01 0. -1.
         -5    1    3    3    0  501  0.20768320445E+02 -0.88470090334E+01  0.19191594438E+02  0.30000000000E+02  0.47000000000E+01 0.  1.
</event>
<event>
 5    1  0.7702600E-002  0.6000000E+02  0.7546771E-02  0.1259629E+00
         11   -1    0    0    0    0  0.00000000000E+00  0.00000000000E+00  0.30000000000E+02  0.30000000000E+02  0.00000000000E+00 0. -1.
        -11   -1    0    0    0    0 -0.00000000000E+00 -0.00000000000E+00 -0.30000000000E+02  0.30000000000E+02  0.00000000000E+00 0.  1.
         23    2    1    2    0    0  0.00000000000E+00  0.00000000000E+00  0.00000000000E+00  0.60000000000E+02  0.60000000000E+02 0.  0.
          5    1    3    3  501    0 -0.11830267688E+02 -0.25767049500E+02  0.86031346904E+01  0.30000000000E+02  0.47000000000E+01 0. -1.
         -5    1    3    3    0  501  0.11830267688E+02  0.25767049500E+02 -0.86031346904E+01  0.30000000000E+02  0.47000000000E+01 0.  1.
</event>
<event>
 5    1  0.7702600E-002  0.6000000E+02  0.7546771E-02  0.1259629E+00
         11   -1    0    0    0    0  0.00000000000E+00  0.00000000000E+00  0.30000000000E+02  0.30000000000E+02  0.00000000000E+00 0. -1.
        -11   -1    0    0    0    0 -0.00000000000E+00 -0.00000000000E+00 -0.30000000000E+02  0.30000000000E+02  0.00000000000E+00 0.  1.
         23    2    1    2    0    0  0.00000000000E+00  0.00000000000E+00  0.00000000000E+00  0.60000000000E+02  0.60000000000E+02 0.  0.
          5    1    3    3  501    0  0.25460639994E+02  0.42626139132E-01  0.15154669053E+02  0.30000000000E+02  0.47000000000E+01 0. -1.
         -5    1    3    3    0  501 -0.25460639994E+02 -0.42626139132E-01 -0.15154669053E+02  0.30000000000E+02  0.47000000000E+01 0.  1.
</event>
<event>
 5    1  0.7702600E-002  0.6000000E+02  0.7546771E-02  0.1259629E+00
         11   -1    0    0    0    0  0.00000000000E+00  0.00000000000E+00  0.30000000000E+02  0.30000000000E+02  0.00000000000E+00 0. -1.
        -11   -1    0    0    0    0 -0.00000000000E+00 -0.00000000000E+00 -0.30000000000E+02  0.30000000000E+02  0.00000000000E+00 0.  1.
         23    2    1    2    0    0  0.00000000000E+00  0.00000000000E+00  0.00000000000E+00  0.60000000000E+02  0.60000000000E+02 0.  0.
          5    1    3    3  501    0 -0.23870126499E+02 -0.16886163981E+02 -0.47942180731E+01  0.30000000000E+02  0.47000000000E+01 0.  1.
         -5    1    3    3    0  501  0.23870126499E+02  0.16886163981E+02  0.47942180731E+01  0.30000000000E+02  0.47000000000E+01 0. -1.
</event>
<event>
 5    1  0.7702600E-002  0.6000000E+02  0.7546771E-02  0.1259629E+00
         11   -1    0    0    0    0  0.00000000000E+00  0.00000000000E+00  0.30000000000E+02  0.30000000000E+02  0.00000000000E+00 0.  1.
        -11   -1    0    0    0    0 -0.00000000000E+00 -0.00000000000E+00 -0.30000000000E+02  0.30000000000E+02  0.00000000000E+00 0. -1.
         23    2    1    2    0    0  0.00000000000E+00  0.00000000000E+00  0.00000000000E+00  0.60000000000E+02  0.60000000000E+02 0.  0.
          5    1    3    3  501    0 -0.11550413545E+02  0.81554501501E+01 -0.26038175431E+02  0.30000000000E+02  0.47000000000E+01 0. -1.
         -5    1    3    3    0  501  0.11550413545E+02 -0.81554501501E+01  0.26038175431E+02  0.30000000000E+02  0.47000000000E+01 0.  1.
</event>
<event>
 5    1  0.7702600E-002  0.6000000E+02  0.7546771E-02  0.1259629E+00
         11   -1    0    0    0    0  0.00000000000E+00  0.00000000000E+00  0.30000000000E+02  0.30000000000E+02  0.00000000000E+00 0.  1.
        -11   -1    0    0    0    0 -0.00000000000E+00 -0.00000000000E+00 -0.30000000000E+02  0.30000000000E+02  0.00000000000E+00 0. -1.
         23    2    1    2    0    0  0.00000000000E+00  0.00000000000E+00  0.00000000000E+00  0.60000000000E+02  0.60000000000E+02 0.  0.
          5    1    3    3  501    0  0.28084337862E+02  0.28757335848E+01 -0.89950054591E+01  0.30000000000E+02  0.47000000000E+01 0. -1.
         -5    1    3    3    0  501 -0.28084337862E+02 -0.28757335848E+01  0.89950054591E+01  0.30000000000E+02  0.47000000000E+01 0.  1.
</event>
<event>
 5    1  0.7702600E-002  0.6000000E+02  0.7546771E-02  0.1259629E+00
         11   -1    0    0    0    0  0.00000000000E+00  0.00000000000E+00  0.30000000000E+02  0.30000000000E+02  0.00000000000E+00 0.  1.
        -11   -1    0    0    0    0 -0.00000000000E+00 -0.00000000000E+00 -0.30000000000E+02  0.30000000000E+02  0.00000000000E+00 0. -1.
         23    2    1    2    0    0  0.00000000000E+00  0.00000000000E+00  0.00000000000E+00  0.60000000000E+02  0.60000000000E+02 0.  0.
          5    1    3    3  501    0 -0.53500978892E+01  0.28742316977E+02 -0.48130725500E+01  0.30000000000E+02  0.47000000000E+01 0. -1.
         -5    1    3    3    0  501  0.53500978892E+01 -0.28742316977E+02  0.48130725500E+01  0.30000000000E+02  0.47000000000E+01 0.  1.
</event>
<event>
 5    1  0.7702600E-002  0.6000000E+02  0.7546771E-02  0.1259629E+00
         11   -1    0    0    0    0  0.00000000000E+00  0.00000000000E+00  0.30000000000E+02  0.30000000000E+02  0.00000000000E+00 0. -1.
        -11   -1    0    0    0    0 -0.00000000000E+00 -0.00000000000E+00 -0.30000000000E+02  0.30000000000E+02  0.00000000000E+00 0.  1.
         23    2    1    2    0    0  0.00000000000E+00  0.00000000000E+00  0.00000000000E+00  0.60000000000E+02  0.60000000000E+02 0.  0.
          5    1    3    3  501    0  0.94159902988E+01  0.13931179543E+02 -0.24396134186E+02  0.30000000000E+02  0.47000000000E+01 0.  1.
         -5    1    3    3    0  501 -0.94159902988E+01 -0.13931179543E+02  0.24396134186E+02  0.30000000000E+02  0.47000000000E+01 0. -1.
</event>
<event>
 5    1  0.7702600E-002  0.6000000E+02  0.7546771E-02  0.1259629E+00
         11   -1    0    0    0    0  0.00000000000E+00  0.00000000000E+00  0.30000000000E+02  0.30000000000E+02  0.00000000000E+00 0.  1.
        -11   -1    0    0    0    0 -0.00000000000E+00 -0.00000000000E+00 -0.30000000000E+02  0.30000000000E+02  0.00000000000E+00 0. -1.
         23    2    1    2    0    0  0.00000000000E+00  0.00000000000E+00  0.00000000000E+00  0.60000000000E+02  0.60000000000E+02 0.  0.
          5    1    3    3  501    0 -0.91988741149E+01  0.21095451211E+02 -0.18662064549E+02  0.30000000000E+02  0.47000000000E+01 0. -1.
         -5    1    3    3    0  501  0.91988741149E+01 -0.21095451211E+02  0.18662064549E+02  0.30000000000E+02  0.47000000000E+01 0.  1.
</event>
<event>
 5    1  0.7702600E-002  0.6000000E+02  0.7546771E-02  0.1259629E+00
         11   -1    0    0    0    0  0.00000000000E+00  0.00000000000E+00  0.30000000000E+02  0.30000000000E+02  0.00000000000E+00 0.  1.
        -11   -1    0    0    0    0 -0.00000000000E+00 -0.00000000000E+00 -0.30000000000E+02  0.30000000000E+02  0.00000000000E+00 0. -1.
         23    2    1    2    0    0  0.00000000000E+00  0.00000000000E+00  0.00000000000E+00  0.60000000000E+02  0.60000000000E+02 0.  0.
          5    1    3    3  501    0  0.37877814505E+01 -0.91818717228E+00 -0.29372089541E+02  0.30000000000E+02  0.47000000000E+01 0. -1.
         -5    1    3    3    0  501 -0.37877814505E+01  0.91818717228E+00  0.29372089541E+02  0.30000000000E+02  0.47000000000E+01 0.  1.
</event>
<event>
 5    1  0.7702600E-002  0.6000000E+02  0.7546771E-02  0.1259629E+00
         11   -1    0    0    0    0  0.00000000000E+00  0.00000000000E+00  0.30000000000E+02  0.30000000000E+02  0.00000000000E+00 0. -1.
        -11   -1    0    0    0    0 -0.00000000000E+00 -0.00000000000E+00 -0.30000000000E+02  0.30000000000E+02  0.00000000000E+00 0.  1.
         23    2    1    2    0    0  0.00000000000E+00  0.00000000000E+00  0.00000000000E+00  0.60000000000E+02  0.60000000000E+02 0.  0.
          5    1    3    3  501    0 -0.13035335694E+02 -0.19878158373E+02  0.17687533549E+02  0.30000000000E+02  0.47000000000E+01 0. -1.
         -5    1    3    3    0  501  0.13035335694E+02  0.19878158373E+02 -0.17687533549E+02  0.30000000000E+02  0.47000000000E+01 0.  1.
</event>
<event>
 5    1  0.7702600E-002  0.6000000E+02  0.7546771E-02  0.1259629E+00
         11   -1    0    0    0    0  0.00000000000E+00  0.00000000000E+00  0.30000000000E+02  0.30000000000E+02  0.00000000000E+00 0.  1.
        -11   -1    0    0    0    0 -0.00000000000E+00 -0.00000000000E+00 -0.30000000000E+02  0.30000000000E+02  0.00000000000E+00 0. -1.
         23    2    1    2    0    0  0.00000000000E+00  0.00000000000E+00  0.00000000000E+00  0.60000000000E+02  0.60000000000E+02 0.  0.
          5    1    3    3  501    0  0.89270291485E+01  0.22270328815E+02 -0.17385356052E+02  0.30000000000E+02  0.47000000000E+01 0. -1.
         -5    1    3    3    0  501 -0.89270291485E+01 -0.22270328815E+02  0.17385356052E+02  0.30000000000E+02  0.47000000000E+01 0.  1.
</event>
<event>
 5    1  0.7702600E-002  0.6000000E+02  0.7546771E-02  0.1259629E+00
         11   -1    0    0    0    0  0.00000000000E+00  0.00000000000E+00  0.30000000000E+02  0.30000000000E+02  0.00000000000E+00 0.  1.
        -11   -1    0    0    0    0 -0.00000000000E+00 -0.00000000000E+00 -0.30000000000E+02  0.30000000000E+02  0.00000000000E+00 0. -1.
         23    2    1    2    0    0  0.00000000000E+00  0.00000000000E+00  0.00000000000E+00  0.60000000000E+02  0.60000000000E+02 0.  0.
          5    1    3    3  501    0  0.13947113275E+02 -0.19279188899E+02 -0.17655053290E+02  0.30000000000E+02  0.47000000000E+01 0. -1.
         -5    1    3    3    0  501 -0.13947113275E+02  0.19279188899E+02  0.17655053290E+02  0.30000000000E+02  0.47000000000E+01 0.  1.
</event>
<event>
 5    1  0.7702600E-002  0.6000000E+02  0.7546771E-02  0.1259629E+00
         11   -1    0    0    0    0  0.00000000000E+00  0.00000000000E+00  0.30000000000E+02  0.30000000000E+02  0.00000000000E+00 0.  1.
        -11   -1    0    0    0    0 -0.00000000000E+00 -0.00000000000E+00 -0.30000000000E+02  0.30000000000E+02  0.00000000000E+00 0. -1.
         23    2    1    2    0    0  0.00000000000E+00  0.00000000000E+00  0.00000000000E+00  0.60000000000E+02  0.60000000000E+02 0.  0.
          5    1    3    3  501    0  0.17481462012E+02 -0.28618751161E+01 -0.23751171692E+02  0.30000000000E+02  0.47000000000E+01 0. -1.
         -5    1    3    3    0  501 -0.17481462012E+02  0.28618751161E+01  0.23751171692E+02  0.30000000000E+02  0.47000000000E+01 0.  1.
</event>
<event>
 5    1  0.7702600E-002  0.6000000E+02  0.7546771E-02  0.1259629E+00
         11   -1    0    0    0    0  0.00000000000E+00  0.00000000000E+00  0.30000000000E+02  0.30000000000E+02  0.00000000000E+00 0.  1.
        -11   -1    0    0    0    0 -0.00000000000E+00 -0.00000000000E+00 -0.30000000000E+02  0.30000000000E+02  0.00000000000E+00 0. -1.
         23    2    1    2    0    0  0.00000000000E+00  0.00000000000E+00  0.00000000000E+00  0.60000000000E+02  0.60000000000E+02 0.  0.
          5    1    3    3  501    0  0.14592910608E+02 -0.21619450011E+02 -0.14055473710E+02  0.30000000000E+02  0.47000000000E+01 0. -1.
         -5    1    3    3    0  501 -0.14592910608E+02  0.21619450011E+02  0.14055473710E+02  0.30000000000E+02  0.47000000000E+01 0.  1.
</event>
<event>
 5    1  0.7702600E-002  0.6000000E+02  0.7546771E-02  0.1259629E+00
         11   -1    0    0    0    0  0.00000000000E+00  0.00000000000E+00  0.30000000000E+02  0.30000000000E+02  0.00000000000E+00 0.  1.
        -11   -1    0    0    0    0 -0.00000000000E+00 -0.00000000000E+00 -0.30000000000E+02  0.30000000000E+02  0.00000000000E+00 0. -1.
         23    2    1    2    0    0  0.00000000000E+00  0.00000000000E+00  0.00000000000E+00  0.60000000000E+02  0.60000000000E+02 0.  0.
          5    1    3    3  501    0  0.26189333738E+02 -0.97003107235E+01  0.98960987376E+01  0.30000000000E+02  0.47000000000E+01 0. -1.
         -5    1    3    3    0  501 -0.26189333738E+02  0.97003107235E+01 -0.98960987376E+01  0.30000000000E+02  0.47000000000E+01 0.  1.
</event>
<event>
 5    1  0.7702600E-002  0.6000000E+02  0.7546771E-02  0.1259629E+00
         11   -1    0    0    0    0  0.00000000000E+00  0.00000000000E+00  0.30000000000E+02  0.30000000000E+02  0.00000000000E+00 0.  1.
        -11   -1    0    0    0    0 -0.00000000000E+00 -0.00000000000E+00 -0.30000000000E+02  0.30000000000E+02  0.00000000000E+00 0. -1.
         23    2    1    2    0    0  0.00000000000E+00  0.00000000000E+00  0.00000000000E+00  0.60000000000E+02  0.60000000000E+02 0.  0.
          5    1    3    3  501    0 -0.97606943631E+01 -0.25940643600E+02 -0.10474820054E+02  0.30000000000E+02  0.47000000000E+01 0. -1.
         -5    1    3    3    0  501  0.97606943631E+01  0.25940643600E+02  0.10474820054E+02  0.30000000000E+02  0.47000000000E+01 0.  1.
</event>
<event>
 5    1  0.7702600E-002  0.6000000E+02  0.7546771E-02  0.1259629E+00
         11   -1    0    0    0    0  0.00000000000E+00  0.00000000000E+00  0.30000000000E+02  0.30000000000E+02  0.00000000000E+00 0. -1.
        -11   -1    0    0    0    0 -0.00000000000E+00 -0.00000000000E+00 -0.30000000000E+02  0.30000000000E+02  0.00000000000E+00 0.  1.
         23    2    1    2    0    0  0.00000000000E+00  0.00000000000E+00  0.00000000000E+00  0.60000000000E+02  0.60000000000E+02 0.  0.
          5    1    3    3  501    0 -0.15248716395E+02 -0.21698417697E+02  0.13212316896E+02  0.30000000000E+02  0.47000000000E+01 0. -1.
         -5    1    3    3    0  501  0.15248716395E+02  0.21698417697E+02 -0.13212316896E+02  0.30000000000E+02  0.47000000000E+01 0.  1.
</event>
<event>
 5    1  0.7702600E-002  0.6000000E+02  0.7546771E-02  0.1259629E+00
         11   -1    0    0    0    0  0.00000000000E+00  0.00000000000E+00  0.30000000000E+02  0.30000000000E+02  0.00000000000E+00 0.  1.
        -11   -1    0    0    0    0 -0.00000000000E+00 -0.00000000000E+00 -0.30000000000E+02  0.30000000000E+02  0.00000000000E+00 0. -1.
         23    2    1    2    0    0  0.00000000000E+00  0.00000000000E+00  0.00000000000E+00  0.60000000000E+02  0.60000000000E+02 0.  0.
          5    1    3    3  501    0 -0.15803292968E+02  0.14903451986E+02 -0.20150758057E+02  0.30000000000E+02  0.47000000000E+01 0. -1.
         -5    1    3    3    0  501  0.15803292968E+02 -0.14903451986E+02  0.20150758057E+02  0.30000000000E+02  0.47000000000E+01 0.  1.
</event>
<event>
 5    1  0.7702600E-002  0.6000000E+02  0.7546771E-02  0.1259629E+00
         11   -1    0    0    0    0  0.00000000000E+00  0.00000000000E+00  0.30000000000E+02  0.30000000000E+02  0.00000000000E+00 0. -1.
        -11   -1    0    0    0    0 -0.00000000000E+00 -0.00000000000E+00 -0.30000000000E+02  0.30000000000E+02  0.00000000000E+00 0.  1.
         23    2    1    2    0    0  0.00000000000E+00  0.00000000000E+00  0.00000000000E+00  0.60000000000E+02  0.60000000000E+02 0.  0.
          5    1    3    3  501    0 -0.24266139102E+01  0.18137168549E+02 -0.23303747809E+02  0.30000000000E+02  0.47000000000E+01 0.  1.
         -5    1    3    3    0  501  0.24266139102E+01 -0.18137168549E+02  0.23303747809E+02  0.30000000000E+02  0.47000000000E+01 0. -1.
</event>
