<event>
 4    1  0.7643770E-002  0.6000000E+02  0.7546771E-02  0.1259629E+00
         11   -1    0    0    0    0  0.00000000000E+00  0.00000000000E+00  0.30000000000E+02  0.30000000000E+02  0.00000000000E+00 0.  1.
        -11   -1    0    0    0    0 -0.00000000000E+00 -0.00000000000E+00 -0.30000000000E+02  0.30000000000E+02  0.00000000000E+00 0. -1.
          5    1    1    2  501    0  0.23838262078E+02 -0.14553669929E+01 -0.17536509573E+02  0.30000000000E+02  0.47000000000E+01 0. -1.
         -5    1    1    2    0  501 -0.23838262078E+02  0.14553669929E+01  0.17536509573E+02  0.30000000000E+02  0.47000000000E+01 0.  1.
</event>
<event>
 4    1  0.7643770E-002  0.6000000E+02  0.7546771E-02  0.1259629E+00
         11   -1    0    0    0    0  0.00000000000E+00  0.00000000000E+00  0.30000000000E+02  0.30000000000E+02  0.00000000000E+00 0.  1.
        -11   -1    0    0    0    0 -0.00000000000E+00 -0.00000000000E+00 -0.30000000000E+02  0.30000000000E+02  0.00000000000E+00 0. -1.
          5    1    1    2  501    0  0.94681192789E+01  0.23111770166E+02 -0.15940853086E+02  0.30000000000E+02  0.47000000000E+01 0. -1.
         -5    1    1    2    0  501 -0.94681192789E+01 -0.23111770166E+02  0.15940853086E+02  0.30000000000E+02  0.47000000000E+01 0.  1.
</event>
<event>
 4    1  0.7643770E-002  0.6000000E+02  0.7546771E-02  0.1259629E+00
         11   -1    0    0    0    0  0.00000000000E+00  0.00000000000E+00  0.30000000000E+02  0.30000000000E+02  0.00000000000E+00 0.  1.
        -11   -1    0    0    0    0 -0.00000000000E+00 -0.00000000000E+00 -0.30000000000E+02  0.30000000000E+02  0.00000000000E+00 0. -1.
          5    1    1    2  501    0  0.23021209963E+02 -0.16148139970E+02 -0.93365661432E+01  0.30000000000E+02  0.47000000000E+01 0. -1.
         -5    1    1    2    0  501 -0.23021209963E+02  0.16148139970E+02  0.93365661432E+01  0.30000000000E+02  0.47000000000E+01 0.  1.
</event>
<event>
 4    1  0.7643770E-002  0.6000000E+02  0.7546771E-02  0.1259629E+00
         11   -1    0    0    0    0  0.00000000000E+00  0.00000000000E+00  0.30000000000E+02  0.30000000000E+02  0.00000000000E+00 0.  1.
        -11   -1    0    0    0    0 -0.00000000000E+00 -0.00000000000E+00 -0.30000000000E+02  0.30000000000E+02  0.00000000000E+00 0. -1.
          5    1    1    2  501    0 -0.25067383940E+02  0.96221582624E+01 -0.12527981991E+02  0.30000000000E+02  0.47000000000E+01 0. -1.
         -5    1    1    2    0  501  0.25067383940E+02 -0.96221582624E+01  0.12527981991E+02  0.30000000000E+02  0.47000000000E+01 0.  1.
</event>
<event>
 4    1  0.7643770E-002  0.6000000E+02  0.7546771E-02  0.1259629E+00
         11   -1    0    0    0    0  0.00000000000E+00  0.00000000000E+00  0.30000000000E+02  0.30000000000E+02  0.00000000000E+00 0.  1.
        -11   -1    0    0    0    0 -0.00000000000E+00 -0.00000000000E+00 -0.30000000000E+02  0.30000000000E+02  0.00000000000E+00 0. -1.
          5    1    1    2  501    0  0.20857517200E+02 -0.12284682401E+02  0.17086853267E+02  0.30000000000E+02  0.47000000000E+01 0. -1.
         -5    1    1    2    0  501 -0.20857517200E+02  0.12284682401E+02 -0.17086853267E+02  0.30000000000E+02  0.47000000000E+01 0.  1.
</event>
<event>
 4    1  0.7643770E-002  0.6000000E+02  0.7546771E-02  0.1259629E+00
         11   -1    0    0    0    0  0.00000000000E+00  0.00000000000E+00  0.30000000000E+02  0.30000000000E+02  0.00000000000E+00 0. -1.
        -11   -1    0    0    0    0 -0.00000000000E+00 -0.00000000000E+00 -0.30000000000E+02  0.30000000000E+02  0.00000000000E+00 0.  1.
          5    1    1    2  501    0 -0.48045250534E+01  0.26884347562E+02 -0.11491666336E+02  0.30000000000E+02  0.47000000000E+01 0.  1.
         -5    1    1    2    0  501  0.48045250534E+01 -0.26884347562E+02  0.11491666336E+02  0.30000000000E+02  0.47000000000E+01 0. -1.
</event>
<event>
 4    1  0.7643770E-002  0.6000000E+02  0.7546771E-02  0.1259629E+00
         11   -1    0    0    0    0  0.00000000000E+00  0.00000000000E+00  0.30000000000E+02  0.30000000000E+02  0.00000000000E+00 0.  1.
        -11   -1    0    0    0    0 -0.00000000000E+00 -0.00000000000E+00 -0.30000000000E+02  0.30000000000E+02  0.00000000000E+00 0. -1.
          5    1    1    2  501    0  0.15122635817E+02  0.60980598382E+01 -0.24739231034E+02  0.30000000000E+02  0.47000000000E+01 0. -1.
         -5    1    1    2    0  501 -0.15122635817E+02 -0.60980598382E+01  0.24739231034E+02  0.30000000000E+02  0.47000000000E+01 0.  1.
</event>
<event>
 4    1  0.7643770E-002  0.6000000E+02  0.7546771E-02  0.1259629E+00
         11   -1    0    0    0    0  0.00000000000E+00  0.00000000000E+00  0.30000000000E+02  0.30000000000E+02  0.00000000000E+00 0.  1.
        -11   -1    0    0    0    0 -0.00000000000E+00 -0.00000000000E+00 -0.30000000000E+02  0.30000000000E+02  0.00000000000E+00 0. -1.
          5    1    1    2  501    0  0.28167176615E+02 -0.53846739027E+01 -0.74515400092E+01  0.30000000000E+02  0.47000000000E+01 0. -1.
         -5    1    1    2    0  501 -0.28167176615E+02  0.53846739027E+01  0.74515400092E+01  0.30000000000E+02  0.47000000000E+01 0.  1.
</event>
<event>
 4    1  0.7643770E-002  0.6000000E+02  0.7546771E-02  0.1259629E+00
         11   -1    0    0    0    0  0.00000000000E+00  0.00000000000E+00  0.30000000000E+02  0.30000000000E+02  0.00000000000E+00 0.  1.
        -11   -1    0    0    0    0 -0.00000000000E+00 -0.00000000000E+00 -0.30000000000E+02  0.30000000000E+02  0.00000000000E+00 0. -1.
          5    1    1    2  501    0  0.24852232935E+01  0.52161481361E+01  0.29060720291E+02  0.30000000000E+02  0.47000000000E+01 0.  1.
         -5    1    1    2    0  501 -0.24852232935E+01 -0.52161481361E+01 -0.29060720291E+02  0.30000000000E+02  0.47000000000E+01 0. -1.
</event>
<event>
 4    1  0.7643770E-002  0.6000000E+02  0.7546771E-02  0.1259629E+00
         11   -1    0    0    0    0  0.00000000000E+00  0.00000000000E+00  0.30000000000E+02  0.30000000000E+02  0.00000000000E+00 0. -1.
        -11   -1    0    0    0    0 -0.00000000000E+00 -0.00000000000E+00 -0.30000000000E+02  0.30000000000E+02  0.00000000000E+00 0.  1.
          5    1    1    2  501    0  0.10225407726E+02 -0.80334603239E+01 -0.26623571362E+02  0.30000000000E+02  0.47000000000E+01 0.  1.
         -5    1    1    2    0  501 -0.10225407726E+02  0.80334603239E+01  0.26623571362E+02  0.30000000000E+02  0.47000000000E+01 0. -1.
</event>
<event>
 4    1  0.7643770E-002  0.6000000E+02  0.7546771E-02  0.1259629E+00
         11   -1    0    0    0    0  0.00000000000E+00  0.00000000000E+00  0.30000000000E+02  0.30000000000E+02  0.00000000000E+00 0.  1.
        -11   -1    0    0    0    0 -0.00000000000E+00 -0.00000000000E+00 -0.30000000000E+02  0.30000000000E+02  0.00000000000E+00 0. -1.
          5    1    1    2  501    0  0.70804405598E+01 -0.24459952221E+02 -0.15148864605E+02  0.30000000000E+02  0.47000000000E+01 0. -1.
         -5    1    1    2    0  501 -0.70804405598E+01  0.24459952221E+02  0.15148864605E+02  0.30000000000E+02  0.47000000000E+01 0.  1.
</event>
<event>
 4    1  0.7643770E-002  0.6000000E+02  0.7546771E-02  0.1259629E+00
         11   -1    0    0    0    0  0.00000000000E+00  0.00000000000E+00  0.30000000000E+02  0.30000000000E+02  0.00000000000E+00 0. -1.
        -11   -1    0    0    0    0 -0.00000000000E+00 -0.00000000000E+00 -0.30000000000E+02  0.30000000000E+02  0.00000000000E+00 0.  1.
          5    1    1    2  501    0 -0.16152260002E+02  0.23916235908E+01 -0.24724373266E+02  0.30000000000E+02  0.47000000000E+01 0.  1.
         -5    1    1    2    0  501  0.16152260002E+02 -0.23916235908E+01  0.24724373266E+02  0.30000000000E+02  0.47000000000E+01 0. -1.
</event>
<event>
 4    1  0.7643770E-002  0.6000000E+02  0.7546771E-02  0.1259629E+00
         11   -1    0    0    0    0  0.00000000000E+00  0.00000000000E+00  0.30000000000E+02  0.30000000000E+02  0.00000000000E+00 0.  1.
        -11   -1    0    0    0    0 -0.00000000000E+00 -0.00000000000E+00 -0.30000000000E+02  0.30000000000E+02  0.00000000000E+00 0. -1.
          5    1    1    2  501    0  0.15888205875E+02  0.71783562884E+01 -0.23957172519E+02  0.30000000000E+02  0.47000000000E+01 0. -1.
         -5    1    1    2    0  501 -0.15888205875E+02 -0.71783562884E+01  0.23957172519E+02  0.30000000000E+02  0.47000000000E+01 0.  1.
</event>
<event>
 4    1  0.7643770E-002  0.6000000E+02  0.7546771E-02  0.1259629E+00
         11   -1    0    0    0    0  0.00000000000E+00  0.00000000000E+00  0.30000000000E+02  0.30000000000E+02  0.00000000000E+00 0.  1.
        -11   -1    0    0    0    0 -0.00000000000E+00 -0.00000000000E+00 -0.30000000000E+02  0.30000000000E+02  0.00000000000E+00 0. -1.
          5    1    1    2  501    0 -0.18788342199E+02  0.22421910138E+02 -0.47080933712E+01  0.30000000000E+02  0.47000000000E+01 0. -1.
         -5    1    1    2    0  501  0.18788342199E+02 -0.22421910138E+02  0.47080933712E+01  0.30000000000E+02  0.47000000000E+01 0.  1.
</event>
<event>
 4    1  0.7643770E-002  0.6000000E+02  0.7546771E-02  0.1259629E+00
         11   -1    0    0    0    0  0.00000000000E+00  0.00000000000E+00  0.30000000000E+02  0.30000000000E+02  0.00000000000E+00 0.  1.
        -11   -1    0    0    0    0 -0.00000000000E+00 -0.00000000000E+00 -0.30000000000E+02  0.30000000000E+02  0.00000000000E+00 0. -1.
          5    1    1    2  501    0  0.98733764936E+01 -0.49200364541E+01 -0.27499448684E+02  0.30000000000E+02  0.47000000000E+01 0. -1.
         -5    1    1    2    0  501 -0.98733764936E+01  0.49200364541E+01  0.27499448684E+02  0.30000000000E+02  0.47000000000E+01 0.  1.
</event>
<event>
 4    1  0.7643770E-002  0.6000000E+02  0.7546771E-02  0.1259629E+00
         11   -1    0    0    0    0  0.00000000000E+00  0.00000000000E+00  0.30000000000E+02  0.30000000000E+02  0.00000000000E+00 0.  1.
        -11   -1    0    0    0    0 -0.00000000000E+00 -0.00000000000E+00 -0.30000000000E+02  0.30000000000E+02  0.00000000000E+00 0. -1.
          5    1    1    2  501    0  0.69917270831E+00  0.93629097471E+01 -0.28102616935E+02  0.30000000000E+02  0.47000000000E+01 0. -1.
         -5    1    1    2    0  501 -0.69917270831E+00 -0.93629097471E+01  0.28102616935E+02  0.30000000000E+02  0.47000000000E+01 0.  1.
</event>
<event>
 4    1  0.7643770E-002  0.6000000E+02  0.7546771E-02  0.1259629E+00
         11   -1    0    0    0    0  0.00000000000E+00  0.00000000000E+00  0.30000000000E+02  0.30000000000E+02  0.00000000000E+00 0.  1.
        -11   -1    0    0    0    0 -0.00000000000E+00 -0.00000000000E+00 -0.30000000000E+02  0.30000000000E+02  0.00000000000E+00 0. -1.
          5    1    1    2  501    0 -0.20872498630E+02  0.75722069563E+01 -0.19619135626E+02  0.30000000000E+02  0.47000000000E+01 0. -1.
         -5    1    1    2    0  501  0.20872498630E+02 -0.75722069563E+01  0.19619135626E+02  0.30000000000E+02  0.47000000000E+01 0.  1.
</event>
<event>
 4    1  0.7643770E-002  0.6000000E+02  0.7546771E-02  0.1259629E+00
         11   -1    0    0    0    0  0.00000000000E+00  0.00000000000E+00  0.30000000000E+02  0.30000000000E+02  0.00000000000E+00 0. -1.
        -11   -1    0    0    0    0 -0.00000000000E+00 -0.00000000000E+00 -0.30000000000E+02  0.30000000000E+02  0.00000000000E+00 0.  1.
          5    1    1    2  501    0  0.23162345352E+02 -0.14151458901E+02 -0.11880739403E+02  0.30000000000E+02  0.47000000000E+01 0.  1.
         -5    1    1    2    0  501 -0.23162345352E+02  0.14151458901E+02  0.11880739403E+02  0.30000000000E+02  0.47000000000E+01 0. -1.
</event>
<event>
 4    1  0.7643770E-002  0.6000000E+02  0.7546771E-02  0.1259629E+00
         11   -1    0    0    0    0  0.00000000000E+00  0.00000000000E+00  0.30000000000E+02  0.30000000000E+02  0.00000000000E+00 0.  1.
        -11   -1    0    0    0    0 -0.00000000000E+00 -0.00000000000E+00 -0.30000000000E+02  0.30000000000E+02  0.00000000000E+00 0. -1.
          5    1    1    2  501    0  0.94729226772E+01 -0.14005042742E+02 -0.24331718266E+02  0.30000000000E+02  0.47000000000E+01 0. -1.
         -5    1    1    2    0  501 -0.94729226772E+01  0.14005042742E+02  0.24331718266E+02  0.30000000000E+02  0.47000000000E+01 0.  1.
</event>
<event>
 4    1  0.7643770E-002  0.6000000E+02  0.7546771E-02  0.1259629E+00
         11   -1    0    0    0    0  0.00000000000E+00  0.00000000000E+00  0.30000000000E+02  0.30000000000E+02  0.00000000000E+00 0.  1.
        -11   -1    0    0    0    0 -0.00000000000E+00 -0.00000000000E+00 -0.30000000000E+02  0.30000000000E+02  0.00000000000E+00 0. -1.
          5    1    1    2  501    0  0.99362921939E+01  0.22139279182E+02 -0.17000953349E+02  0.30000000000E+02  0.47000000000E+01 0. -1.
         -5    1    1    2    0  501 -0.99362921939E+01 -0.22139279182E+02  0.17000953349E+02  0.30000000000E+02  0.47000000000E+01 0.  1.
</event>
<event>
 4    1  0.7643770E-002  0.6000000E+02  0.7546771E-02  0.1259629E+00
         11   -1    0    0    0    0  0.00000000000E+00  0.00000000000E+00  0.30000000000E+02  0.30000000000E+02  0.00000000000E+00 0. -1.
        -11   -1    0    0    0    0 -0.00000000000E+00 -0.00000000000E+00 -0.30000000000E+02  0.30000000000E+02  0.00000000000E+00 0.  1.
          5    1    1    2  501    0 -0.49020230021E+01 -0.11115023395E+02 -0.27024737287E+02  0.30000000000E+02  0.47000000000E+01 0.  1.
         -5    1    1    2    0  501  0.49020230021E+01  0.11115023395E+02  0.27024737287E+02  0.30000000000E+02  0.47000000000E+01 0. -1.
</event>
<event>
 4    1  0.7643770E-002  0.6000000E+02  0.7546771E-02  0.1259629E+00
         11   -1    0    0    0    0  0.00000000000E+00  0.00000000000E+00  0.30000000000E+02  0.30000000000E+02  0.00000000000E+00 0.  1.
        -11   -1    0    0    0    0 -0.00000000000E+00 -0.00000000000E+00 -0.30000000000E+02  0.30000000000E+02  0.00000000000E+00 0. -1.
          5    1    1    2  501    0 -0.69026091705E+01 -0.49742600904E+01 -0.28381696975E+02  0.30000000000E+02  0.47000000000E+01 0. -1.
         -5    1    1    2    0  501  0.69026091705E+01  0.49742600904E+01  0.28381696975E+02  0.30000000000E+02  0.47000000000E+01 0.  1.
</event>
<event>
 4    1  0.7643770E-002  0.6000000E+02  0.7546771E-02  0.1259629E+00
         11   -1    0    0    0    0  0.00000000000E+00  0.00000000000E+00  0.30000000000E+02  0.30000000000E+02  0.00000000000E+00 0.  1.
        -11   -1    0    0    0    0 -0.00000000000E+00 -0.00000000000E+00 -0.30000000000E+02  0.30000000000E+02  0.00000000000E+00 0. -1.
          5    1    1    2  501    0 -0.21479604988E+02  0.99782005779E+01 -0.17803709804E+02  0.30000000000E+02  0.47000000000E+01 0. -1.
         -5    1    1    2    0  501  0.21479604988E+02 -0.99782005779E+01  0.17803709804E+02  0.30000000000E+02  0.47000000000E+01 0.  1.
</event>
<event>
 4    1  0.7643770E-002  0.6000000E+02  0.7546771E-02  0.1259629E+00
         11   -1    0    0    0    0  0.00000000000E+00  0.00000000000E+00  0.30000000000E+02  0.30000000000E+02  0.00000000000E+00 0. -1.
        -11   -1    0    0    0    0 -0.00000000000E+00 -0.00000000000E+00 -0.30000000000E+02  0.30000000000E+02  0.00000000000E+00 0.  1.
          5    1    1    2  501    0 -0.14424856029E+02 -0.23439002732E+02 -0.10974820248E+02  0.30000000000E+02  0.47000000000E+01 0.  1.
         -5    1    1    2    0  501  0.14424856029E+02  0.23439002732E+02  0.10974820248E+02  0.30000000000E+02  0.47000000000E+01 0. -1.
</event>
<event>
 4    1  0.7643770E-002  0.6000000E+02  0.7546771E-02  0.1259629E+00
         11   -1    0    0    0    0  0.00000000000E+00  0.00000000000E+00  0.30000000000E+02  0.30000000000E+02  0.00000000000E+00 0.  1.
        -11   -1    0    0    0    0 -0.00000000000E+00 -0.00000000000E+00 -0.30000000000E+02  0.30000000000E+02  0.00000000000E+00 0. -1.
          5    1    1    2  501    0 -0.10578953836E+02 -0.37696132481E+01 -0.27418711707E+02  0.30000000000E+02  0.47000000000E+01 0. -1.
         -5    1    1    2    0  501  0.10578953836E+02  0.37696132481E+01  0.27418711707E+02  0.30000000000E+02  0.47000000000E+01 0.  1.
</event>
<event>
 4    1  0.7643770E-002  0.6000000E+02  0.7546771E-02  0.1259629E+00
         11   -1    0    0    0    0  0.00000000000E+00  0.00000000000E+00  0.30000000000E+02  0.30000000000E+02  0.00000000000E+00 0. -1.
        -11   -1    0    0    0    0 -0.00000000000E+00 -0.00000000000E+00 -0.30000000000E+02  0.30000000000E+02  0.00000000000E+00 0.  1.
          5    1    1    2  501    0 -0.15748655510E+02 -0.11169039171E+02 -0.22475373493E+02  0.30000000000E+02  0.47000000000E+01 0.  1.
         -5    1    1    2    0  501  0.15748655510E+02  0.11169039171E+02  0.22475373493E+02  0.30000000000E+02  0.47000000000E+01 0. -1.
</event>
<event>
 4    1  0.7643770E-002  0.6000000E+02  0.7546771E-02  0.1259629E+00
         11   -1    0    0    0    0  0.00000000000E+00  0.00000000000E+00  0.30000000000E+02  0.30000000000E+02  0.00000000000E+00 0.  1.
        -11   -1    0    0    0    0 -0.00000000000E+00 -0.00000000000E+00 -0.30000000000E+02  0.30000000000E+02  0.00000000000E+00 0. -1.
          5    1    1    2  501    0  0.14646196327E+02  0.19358225034E+02 -0.16989939867E+02  0.30000000000E+02  0.47000000000E+01 0. -1.
         -5    1    1    2    0  501 -0.14646196327E+02 -0.19358225034E+02  0.16989939867E+02  0.30000000000E+02  0.47000000000E+01 0.  1.
</event>
<event>
 4    1  0.7643770E-002  0.6000000E+02  0.7546771E-02  0.1259629E+00
         11   -1    0    0    0    0  0.00000000000E+00  0.00000000000E+00  0.30000000000E+02  0.30000000000E+02  0.00000000000E+00 0. -1.
        -11   -1    0    0    0    0 -0.00000000000E+00 -0.00000000000E+00 -0.30000000000E+02  0.30000000000E+02  0.00000000000E+00 0.  1.
          5    1    1    2  501    0 -0.29997458760E+00 -0.84561717183E+01 -0.28395654159E+02  0.30000000000E+02  0.47000000000E+01 0.  1.
         -5    1    1    2    0  501  0.29997458760E+00  0.84561717183E+01  0.28395654159E+02  0.30000000000E+02  0.47000000000E+01 0. -1.
</event>
<event>
 4    1  0.7643770E-002  0.6000000E+02  0.7546771E-02  0.1259629E+00
         11   -1    0    0    0    0  0.00000000000E+00  0.00000000000E+00  0.30000000000E+02  0.30000000000E+02  0.00000000000E+00 0.  1.
        -11   -1    0    0    0    0 -0.00000000000E+00 -0.00000000000E+00 -0.30000000000E+02  0.30000000000E+02  0.00000000000E+00 0. -1.
          5    1    1    2  501    0  0.16450624005E+02 -0.13705755286E+02 -0.20480215865E+02  0.30000000000E+02  0.47000000000E+01 0. -1.
         -5    1    1    2    0  501 -0.16450624005E+02  0.13705755286E+02  0.20480215865E+02  0.30000000000E+02  0.47000000000E+01 0.  1.
</event>
<event>
 4    1  0.7643770E-002  0.6000000E+02  0.7546771E-02  0.1259629E+00
         11   -1    0    0    0    0  0.00000000000E+00  0.00000000000E+00  0.30000000000E+02  0.30000000000E+02  0.00000000000E+00 0.  1.
        -11   -1    0    0    0    0 -0.00000000000E+00 -0.00000000000E+00 -0.30000000000E+02  0.30000000000E+02  0.00000000000E+00 0. -1.
          5    1    1    2  501    0 -0.11093208381E+02 -0.26385334069E+02 -0.76592998282E+01  0.30000000000E+02  0.47000000000E+01 0. -1.
         -5    1    1    2    0  501  0.11093208381E+02  0.26385334069E+02  0.76592998282E+01  0.30000000000E+02  0.47000000000E+01 0.  1.
</event>
<event>
 4    1  0.7643770E-002  0.6000000E+02  0.7546771E-02  0.1259629E+00
         11   -1    0    0    0    0  0.00000000000E+00  0.00000000000E+00  0.30000000000E+02  0.30000000000E+02  0.00000000000E+00 0.  1.
        -11   -1    0    0    0    0 -0.00000000000E+00 -0.00000000000E+00 -0.30000000000E+02  0.30000000000E+02  0.00000000000E+00 0. -1.
          5    1    1    2  501    0  0.26811599921E+02 -0.40849136755E+01  0.11931537619E+02  0.30000000000E+02  0.47000000000E+01 0. -1.
         -5    1    1    2    0  501 -0.26811599921E+02  0.40849136755E+01 -0.11931537619E+02  0.30000000000E+02  0.47000000000E+01 0.  1.
</event>
<event>
 4    1  0.7643770E-002  0.6000000E+02  0.7546771E-02  0.1259629E+00
         11   -1    0    0    0    0  0.00000000000E+00  0.00000000000E+00  0.30000000000E+02  0.30000000000E+02  0.00000000000E+00 0.  1.
        -11   -1    0    0    0    0 -0.00000000000E+00 -0.00000000000E+00 -0.30000000000E+02  0.30000000000E+02  0.00000000000E+00 0. -1.
          5    1    1    2  501    0 -0.84253083941E+01  0.27559749916E+02  0.68836300765E+01  0.30000000000E+02  0.47000000000E+01 0. -1.
         -5    1    1    2    0  501  0.84253083941E+01 -0.27559749916E+02 -0.68836300765E+01  0.30000000000E+02  0.47000000000E+01 0.  1.
</event>
<event>
 4    1  0.7643770E-002  0.6000000E+02  0.7546771E-02  0.1259629E+00
         11   -1    0    0    0    0  0.00000000000E+00  0.00000000000E+00  0.30000000000E+02  0.30000000000E+02  0.00000000000E+00 0. -1.
        -11   -1    0    0    0    0 -0.00000000000E+00 -0.00000000000E+00 -0.30000000000E+02  0.30000000000E+02  0.00000000000E+00 0.  1.
          5    1    1    2  501    0  0.35888407926E+01 -0.84515070532E+00  0.29399250706E+02  0.30000000000E+02  0.47000000000E+01 0. -1.
         -5    1    1    2    0  501 -0.35888407926E+01  0.84515070532E+00 -0.29399250706E+02  0.30000000000E+02  0.47000000000E+01 0.  1.
</event>
<event>
 4    1  0.7643770E-002  0.6000000E+02  0.7546771E-02  0.1259629E+00
         11   -1    0    0    0    0  0.00000000000E+00  0.00000000000E+00  0.30000000000E+02  0.30000000000E+02  0.00000000000E+00 0. -1.
        -11   -1    0    0    0    0 -0.00000000000E+00 -0.00000000000E+00 -0.30000000000E+02  0.30000000000E+02  0.00000000000E+00 0.  1.
          5    1    1    2  501    0 -0.26425232954E+01  0.18236056417E+02 -0.23202873033E+02  0.30000000000E+02  0.47000000000E+01 0.  1.
         -5    1    1    2    0  501  0.26425232954E+01 -0.18236056417E+02  0.23202873033E+02  0.30000000000E+02  0.47000000000E+01 0. -1.
</event>
<event>
 4    1  0.7643770E-002  0.6000000E+02  0.7546771E-02  0.1259629E+00
         11   -1    0    0    0    0  0.00000000000E+00  0.00000000000E+00  0.30000000000E+02  0.30000000000E+02  0.00000000000E+00 0.  1.
        -11   -1    0    0    0    0 -0.00000000000E+00 -0.00000000000E+00 -0.30000000000E+02  0.30000000000E+02  0.00000000000E+00 0. -1.
          5    1    1    2  501    0 -0.10114396111E+02  0.80939879143E+01 -0.26647633121E+02  0.30000000000E+02  0.47000000000E+01 0. -1.
         -5    1    1    2    0  501  0.10114396111E+02 -0.80939879143E+01  0.26647633121E+02  0.30000000000E+02  0.47000000000E+01 0.  1.
</event>
<event>
 4    1  0.7643770E-002  0.6000000E+02  0.7546771E-02  0.1259629E+00
         11   -1    0    0    0    0  0.00000000000E+00  0.00000000000E+00  0.30000000000E+02  0.30000000000E+02  0.00000000000E+00 0.  1.
        -11   -1    0    0    0    0 -0.00000000000E+00 -0.00000000000E+00 -0.30000000000E+02  0.30000000000E+02  0.00000000000E+00 0. -1.
          5    1    1    2  501    0  0.24515005765E+02  0.23182892748E+01 -0.16478775052E+02  0.30000000000E+02  0.47000000000E+01 0. -1.
         -5    1    1    2    0  501 -0.24515005765E+02 -0.23182892748E+01  0.16478775052E+02  0.30000000000E+02  0.47000000000E+01 0.  1.
</event>
<event>
 4    1  0.7643770E-002  0.6000000E+02  0.7546771E-02  0.1259629E+00
         11   -1    0    0    0    0  0.00000000000E+00  0.00000000000E+00  0.30000000000E+02  0.30000000000E+02  0.00000000000E+00 0.  1.
        -11   -1    0    0    0    0 -0.00000000000E+00 -0.00000000000E+00 -0.30000000000E+02  0.30000000000E+02  0.00000000000E+00 0. -1.
          5    1    1    2  501    0  0.17553648523E+02 -0.54474279094E+01 -0.23240158190E+02  0.30000000000E+02  0.47000000000E+01 0. -1.
         -5    1    1    2    0  501 -0.17553648523E+02  0.54474279094E+01  0.23240158190E+02  0.30000000000E+02  0.47000000000E+01 0.  1.
</event>
<event>
 4    1  0.7643770E-002  0.6000000E+02  0.7546771E-02  0.1259629E+00
         11   -1    0    0    0    0  0.00000000000E+00  0.00000000000E+00  0.30000000000E+02  0.30000000000E+02  0.00000000000E+00 0. -1.
        -11   -1    0    0    0    0 -0.00000000000E+00 -0.00000000000E+00 -0.30000000000E+02  0.30000000000E+02  0.00000000000E+00 0.  1.
          5    1    1    2  501    0 -0.24305748705E+02 -0.10197910469E+02 -0.13533041120E+02  0.30000000000E+02  0.47000000000E+01 0.  1.
         -5    1    1    2    0  501  0.24305748705E+02  0.10197910469E+02  0.13533041120E+02  0.30000000000E+02  0.47000000000E+01 0. -1.
</event>
<event>
 4    1  0.7643770E-002  0.6000000E+02  0.7546771E-02  0.1259629E+00
         11   -1    0    0    0    0  0.00000000000E+00  0.00000000000E+00  0.30000000000E+02  0.30000000000E+02  0.00000000000E+00 0.  1.
        -11   -1    0    0    0    0 -0.00000000000E+00 -0.00000000000E+00 -0.30000000000E+02  0.30000000000E+02  0.00000000000E+00 0. -1.
          5    1    1    2  501    0 -0.30743658698E+01 -0.29207652209E+02 -0.39206283867E+01  0.30000000000E+02  0.47000000000E+01 0. -1.
         -5    1    1    2    0  501  0.30743658698E+01  0.29207652209E+02  0.39206283867E+01  0.30000000000E+02  0.47000000000E+01 0.  1.
</event>
<event>
 4    1  0.7643770E-002  0.6000000E+02  0.7546771E-02  0.1259629E+00
         11   -1    0    0    0    0  0.00000000000E+00  0.00000000000E+00  0.30000000000E+02  0.30000000000E+02  0.00000000000E+00 0.  1.
        -11   -1    0    0    0    0 -0.00000000000E+00 -0.00000000000E+00 -0.30000000000E+02  0.30000000000E+02  0.00000000000E+00 0. -1.
          5    1    1    2  501    0  0.36490114096E+01 -0.29398397092E+02 -0.57355398378E+00  0.30000000000E+02  0.47000000000E+01 0.  1.
         -5    1    1    2    0  501 -0.36490114096E+01  0.29398397092E+02  0.57355398378E+00  0.30000000000E+02  0.47000000000E+01 0. -1.
</event>
<event>
 4    1  0.7643770E-002  0.6000000E+02  0.7546771E-02  0.1259629E+00
         11   -1    0    0    0    0  0.00000000000E+00  0.00000000000E+00  0.30000000000E+02  0.30000000000E+02  0.00000000000E+00 0.  1.
        -11   -1    0    0    0    0 -0.00000000000E+00 -0.00000000000E+00 -0.30000000000E+02  0.30000000000E+02  0.00000000000E+00 0. -1.
          5    1    1    2  501    0  0.14935885884E+02 -0.22819578285E+02  0.11579989627E+02  0.30000000000E+02  0.47000000000E+01 0. -1.
         -5    1    1    2    0  501 -0.14935885884E+02  0.22819578285E+02 -0.11579989627E+02  0.30000000000E+02  0.47000000000E+01 0.  1.
</event>
<event>
 4    1  0.7643770E-002  0.6000000E+02  0.7546771E-02  0.1259629E+00
         11   -1    0    0    0    0  0.00000000000E+00  0.00000000000E+00  0.30000000000E+02  0.30000000000E+02  0.00000000000E+00 0. -1.
        -11   -1    0    0    0    0 -0.00000000000E+00 -0.00000000000E+00 -0.30000000000E+02  0.30000000000E+02  0.00000000000E+00 0.  1.
          5    1    1    2  501    0 -0.12340617689E+02 -0.93098871363E+01 -0.25277364510E+02  0.30000000000E+02  0.47000000000E+01 0.  1.
         -5    1    1    2    0  501  0.12340617689E+02  0.93098871363E+01  0.25277364510E+02  0.30000000000E+02  0.47000000000E+01 0. -1.
</event>
<event>
 4    1  0.7643770E-002  0.6000000E+02  0.7546771E-02  0.1259629E+00
         11   -1    0    0    0    0  0.00000000000E+00  0.00000000000E+00  0.30000000000E+02  0.30000000000E+02  0.00000000000E+00 0.  1.
        -11   -1    0    0    0    0 -0.00000000000E+00 -0.00000000000E+00 -0.30000000000E+02  0.30000000000E+02  0.00000000000E+00 0. -1.
          5    1    1    2  501    0 -0.44487464521E+01 -0.28760842006E+02  0.55617103567E+01  0.30000000000E+02  0.47000000000E+01 0. -1.
         -5    1    1    2    0  501  0.44487464521E+01  0.28760842006E+02 -0.55617103567E+01  0.30000000000E+02  0.47000000000E+01 0.  1.
</event>
<event>
 4    1  0.7643770E-002  0.6000000E+02  0.7546771E-02  0.1259629E+00
         11   -1    0    0    0    0  0.00000000000E+00  0.00000000000E+00  0.30000000000E+02  0.30000000000E+02  0.00000000000E+00 0.  1.
        -11   -1    0    0    0    0 -0.00000000000E+00 -0.00000000000E+00 -0.30000000000E+02  0.30000000000E+02  0.00000000000E+00 0. -1.
          5    1    1    2  501    0 -0.21699391199E+02  0.52753291771E+01  0.19473503118E+02  0.30000000000E+02  0.47000000000E+01 0.  1.
         -5    1    1    2    0  501  0.21699391199E+02 -0.52753291771E+01 -0.19473503118E+02  0.30000000000E+02  0.47000000000E+01 0. -1.
</event>
<event>
 4    1  0.7643770E-002  0.6000000E+02  0.7546771E-02  0.1259629E+00
         11   -1    0    0    0    0  0.00000000000E+00  0.00000000000E+00  0.30000000000E+02  0.30000000000E+02  0.00000000000E+00 0.  1.
        -11   -1    0    0    0    0 -0.00000000000E+00 -0.00000000000E+00 -0.30000000000E+02  0.30000000000E+02  0.00000000000E+00 0. -1.
          5    1    1    2  501    0  0.11119196657E+02 -0.67513467028E+01 -0.26621284406E+02  0.30000000000E+02  0.47000000000E+01 0. -1.
         -5    1    1    2    0  501 -0.11119196657E+02  0.67513467028E+01  0.26621284406E+02  0.30000000000E+02  0.47000000000E+01 0.  1.
</event>
<event>
 4    1  0.7643770E-002  0.6000000E+02  0.7546771E-02  0.1259629E+00
         11   -1    0    0    0    0  0.00000000000E+00  0.00000000000E+00  0.30000000000E+02  0.30000000000E+02  0.00000000000E+00 0. -1.
        -11   -1    0    0    0    0 -0.00000000000E+00 -0.00000000000E+00 -0.30000000000E+02  0.30000000000E+02  0.00000000000E+00 0.  1.
          5    1    1    2  501    0  0.44408362448E+01  0.13263340367E+02 -0.26120351754E+02  0.30000000000E+02  0.47000000000E+01 0.  1.
         -5    1    1    2    0  501 -0.44408362448E+01 -0.13263340367E+02  0.26120351754E+02  0.30000000000E+02  0.47000000000E+01 0. -1.
</event>
<event>
 4    1  0.7643770E-002  0.6000000E+02  0.7546771E-02  0.1259629E+00
         11   -1    0    0    0    0  0.00000000000E+00  0.00000000000E+00  0.30000000000E+02  0.30000000000E+02  0.00000000000E+00 0.  1.
        -11   -1    0    0    0    0 -0.00000000000E+00 -0.00000000000E+00 -0.30000000000E+02  0.30000000000E+02  0.00000000000E+00 0. -1.
          5    1    1    2  501    0 -0.22957913269E+02 -0.92569335481E+00 -0.18707947781E+02  0.30000000000E+02  0.47000000000E+01 0. -1.
         -5    1    1    2    0  501  0.22957913269E+02  0.92569335481E+00  0.18707947781E+02  0.30000000000E+02  0.47000000000E+01 0.  1.
</event>
<event>
 4    1  0.7643770E-002  0.6000000E+02  0.7546771E-02  0.1259629E+00
         11   -1    0    0    0    0  0.00000000000E+00  0.00000000000E+00  0.30000000000E+02  0.30000000000E+02  0.00000000000E+00 0.  1.
        -11   -1    0    0    0    0 -0.00000000000E+00 -0.00000000000E+00 -0.30000000000E+02  0.30000000000E+02  0.00000000000E+00 0. -1.
          5    1    1    2  501    0  0.13114693568E+02 -0.83936579670E+01 -0.25208358109E+02  0.30000000000E+02  0.47000000000E+01 0. -1.
         -5    1    1    2    0  501 -0.13114693568E+02  0.83936579670E+01  0.25208358109E+02  0.30000000000E+02  0.47000000000E+01 0.  1.
</event>
<event>
 4    1  0.7643770E-002  0.6000000E+02  0.7546771E-02  0.1259629E+00
         11   -1    0    0    0    0  0.00000000000E+00  0.00000000000E+00  0.30000000000E+02  0.30000000000E+02  0.00000000000E+00 0.  1.
        -11   -1    0    0    0    0 -0.00000000000E+00 -0.00000000000E+00 -0.30000000000E+02  0.30000000000E+02  0.00000000000E+00 0. -1.
          5    1    1    2  501    0 -0.29283509560E+02 -0.45149406226E+01 -0.37134816783E-01  0.30000000000E+02  0.47000000000E+01 0. -1.
         -5    1    1    2    0  501  0.29283509560E+02  0.45149406226E+01  0.37134816783E-01  0.30000000000E+02  0.47000000000E+01 0.  1.
</event>
<event>
 4    1  0.7643770E-002  0.6000000E+02  0.7546771E-02  0.1259629E+00
         11   -1    0    0    0    0  0.00000000000E+00  0.00000000000E+00  0.30000000000E+02  0.30000000000E+02  0.00000000000E+00 0.  1.
        -11   -1    0    0    0    0 -0.00000000000E+00 -0.00000000000E+00 -0.30000000000E+02  0.30000000000E+02  0.00000000000E+00 0. -1.
          5    1    1    2  501    0  0.36810782599E+00  0.25988471952E+02  0.14225815346E+02  0.30000000000E+02  0.47000000000E+01 0. -1.
         -5    1    1    2    0  501 -0.36810782599E+00 -0.25988471952E+02 -0.14225815346E+02  0.30000000000E+02  0.47000000000E+01 0. -1.
</event>
<event>
 4    1  0.7643770E-002  0.6000000E+02  0.7546771E-02  0.1259629E+00
         11   -1    0    0    0    0  0.00000000000E+00  0.00000000000E+00  0.30000000000E+02  0.30000000000E+02  0.00000000000E+00 0. -1.
        -11   -1    0    0    0    0 -0.00000000000E+00 -0.00000000000E+00 -0.30000000000E+02  0.30000000000E+02  0.00000000000E+00 0.  1.
          5    1    1    2  501    0  0.53664089939E+01 -0.17300776677E+01  0.29088115886E+02  0.30000000000E+02  0.47000000000E+01 0. -1.
         -5    1    1    2    0  501 -0.53664089939E+01  0.17300776677E+01 -0.29088115886E+02  0.30000000000E+02  0.47000000000E+01 0.  1.
</event>
<event>
 4    1  0.7643770E-002  0.6000000E+02  0.7546771E-02  0.1259629E+00
         11   -1    0    0    0    0  0.00000000000E+00  0.00000000000E+00  0.30000000000E+02  0.30000000000E+02  0.00000000000E+00 0.  1.
        -11   -1    0    0    0    0 -0.00000000000E+00 -0.00000000000E+00 -0.30000000000E+02  0.30000000000E+02  0.00000000000E+00 0. -1.
          5    1    1    2  501    0 -0.36076727972E+01  0.82779313750E+01 -0.28220038078E+02  0.30000000000E+02  0.47000000000E+01 0. -1.
         -5    1    1    2    0  501  0.36076727972E+01 -0.82779313750E+01  0.28220038078E+02  0.30000000000E+02  0.47000000000E+01 0.  1.
</event>
<event>
 4    1  0.7643770E-002  0.6000000E+02  0.7546771E-02  0.1259629E+00
         11   -1    0    0    0    0  0.00000000000E+00  0.00000000000E+00  0.30000000000E+02  0.30000000000E+02  0.00000000000E+00 0.  1.
        -11   -1    0    0    0    0 -0.00000000000E+00 -0.00000000000E+00 -0.30000000000E+02  0.30000000000E+02  0.00000000000E+00 0. -1.
          5    1    1    2  501    0  0.26641757606E+02  0.11571071011E+02 -0.58512449364E+01  0.30000000000E+02  0.47000000000E+01 0. -1.
         -5    1    1    2    0  501 -0.26641757606E+02 -0.11571071011E+02  0.58512449364E+01  0.30000000000E+02  0.47000000000E+01 0.  1.
</event>
<event>
 4    1  0.7643770E-002  0.6000000E+02  0.7546771E-02  0.1259629E+00
         11   -1    0    0    0    0  0.00000000000E+00  0.00000000000E+00  0.30000000000E+02  0.30000000000E+02  0.00000000000E+00 0. -1.
        -11   -1    0    0    0    0 -0.00000000000E+00 -0.00000000000E+00 -0.30000000000E+02  0.30000000000E+02  0.00000000000E+00 0.  1.
          5    1    1    2  501    0 -0.19011184887E+02 -0.10499973610E+02 -0.20155282270E+02  0.30000000000E+02  0.47000000000E+01 0.  1.
         -5    1    1    2    0  501  0.19011184887E+02  0.10499973610E+02  0.20155282270E+02  0.30000000000E+02  0.47000000000E+01 0. -1.
</event>
<event>
 4    1  0.7643770E-002  0.6000000E+02  0.7546771E-02  0.1259629E+00
         11   -1    0    0    0    0  0.00000000000E+00  0.00000000000E+00  0.30000000000E+02  0.30000000000E+02  0.00000000000E+00 0. -1.
        -11   -1    0    0    0    0 -0.00000000000E+00 -0.00000000000E+00 -0.30000000000E+02  0.30000000000E+02  0.00000000000E+00 0.  1.
          5    1    1    2  501    0  0.12313225986E+02  0.14203739114E+02 -0.22903018600E+02  0.30000000000E+02  0.47000000000E+01 0.  1.
         -5    1    1    2    0  501 -0.12313225986E+02 -0.14203739114E+02  0.22903018600E+02  0.30000000000E+02  0.47000000000E+01 0. -1.
</event>
<event>
 4    1  0.7643770E-002  0.6000000E+02  0.7546771E-02  0.1259629E+00
         11   -1    0    0    0    0  0.00000000000E+00  0.00000000000E+00  0.30000000000E+02  0.30000000000E+02  0.00000000000E+00 0.  1.
        -11   -1    0    0    0    0 -0.00000000000E+00 -0.00000000000E+00 -0.30000000000E+02  0.30000000000E+02  0.00000000000E+00 0. -1.
          5    1    1    2  501    0  0.29249413199E+02 -0.46281238619E+01 -0.98096739382E+00  0.30000000000E+02  0.47000000000E+01 0. -1.
         -5    1    1    2    0  501 -0.29249413199E+02  0.46281238619E+01  0.98096739382E+00  0.30000000000E+02  0.47000000000E+01 0.  1.
</event>
<event>
 4    1  0.7643770E-002  0.6000000E+02  0.7546771E-02  0.1259629E+00
         11   -1    0    0    0    0  0.00000000000E+00  0.00000000000E+00  0.30000000000E+02  0.30000000000E+02  0.00000000000E+00 0.  1.
        -11   -1    0    0    0    0 -0.00000000000E+00 -0.00000000000E+00 -0.30000000000E+02  0.30000000000E+02  0.00000000000E+00 0. -1.
          5    1    1    2  501    0  0.32953461966E+01 -0.47588104488E+01 -0.29058637555E+02  0.30000000000E+02  0.47000000000E+01 0. -1.
         -5    1    1    2    0  501 -0.32953461966E+01  0.47588104488E+01  0.29058637555E+02  0.30000000000E+02  0.47000000000E+01 0.  1.
</event>
<event>
 4    1  0.7643770E-002  0.6000000E+02  0.7546771E-02  0.1259629E+00
         11   -1    0    0    0    0  0.00000000000E+00  0.00000000000E+00  0.30000000000E+02  0.30000000000E+02  0.00000000000E+00 0. -1.
        -11   -1    0    0    0    0 -0.00000000000E+00 -0.00000000000E+00 -0.30000000000E+02  0.30000000000E+02  0.00000000000E+00 0.  1.
          5    1    1    2  501    0  0.28416554387E+02 -0.54448444586E+01 -0.63845990948E+01  0.30000000000E+02  0.47000000000E+01 0.  1.
         -5    1    1    2    0  501 -0.28416554387E+02  0.54448444586E+01  0.63845990948E+01  0.30000000000E+02  0.47000000000E+01 0. -1.
</event>
<event>
 4    1  0.7643770E-002  0.6000000E+02  0.7546771E-02  0.1259629E+00
         11   -1    0    0    0    0  0.00000000000E+00  0.00000000000E+00  0.30000000000E+02  0.30000000000E+02  0.00000000000E+00 0.  1.
        -11   -1    0    0    0    0 -0.00000000000E+00 -0.00000000000E+00 -0.30000000000E+02  0.30000000000E+02  0.00000000000E+00 0. -1.
          5    1    1    2  501    0 -0.24495536570E+02  0.90570358457E+00 -0.16645071017E+02  0.30000000000E+02  0.47000000000E+01 0. -1.
         -5    1    1    2    0  501  0.24495536570E+02 -0.90570358457E+00  0.16645071017E+02  0.30000000000E+02  0.47000000000E+01 0.  1.
</event>
<event>
 4    1  0.7643770E-002  0.6000000E+02  0.7546771E-02  0.1259629E+00
         11   -1    0    0    0    0  0.00000000000E+00  0.00000000000E+00  0.30000000000E+02  0.30000000000E+02  0.00000000000E+00 0.  1.
        -11   -1    0    0    0    0 -0.00000000000E+00 -0.00000000000E+00 -0.30000000000E+02  0.30000000000E+02  0.00000000000E+00 0. -1.
          5    1    1    2  501    0 -0.42953845895E+01  0.14571027214E+02  0.25439041593E+02  0.30000000000E+02  0.47000000000E+01 0. -1.
         -5    1    1    2    0  501  0.42953845895E+01 -0.14571027214E+02 -0.25439041593E+02  0.30000000000E+02  0.47000000000E+01 0.  1.
</event>
<event>
 4    1  0.7643770E-002  0.6000000E+02  0.7546771E-02  0.1259629E+00
         11   -1    0    0    0    0  0.00000000000E+00  0.00000000000E+00  0.30000000000E+02  0.30000000000E+02  0.00000000000E+00 0.  1.
        -11   -1    0    0    0    0 -0.00000000000E+00 -0.00000000000E+00 -0.30000000000E+02  0.30000000000E+02  0.00000000000E+00 0. -1.
          5    1    1    2  501    0  0.13320060255E+02 -0.12207691829E+02 -0.23483148320E+02  0.30000000000E+02  0.47000000000E+01 0. -1.
         -5    1    1    2    0  501 -0.13320060255E+02  0.12207691829E+02  0.23483148320E+02  0.30000000000E+02  0.47000000000E+01 0.  1.
</event>
<event>
 4    1  0.7643770E-002  0.6000000E+02  0.7546771E-02  0.1259629E+00
         11   -1    0    0    0    0  0.00000000000E+00  0.00000000000E+00  0.30000000000E+02  0.30000000000E+02  0.00000000000E+00 0. -1.
        -11   -1    0    0    0    0 -0.00000000000E+00 -0.00000000000E+00 -0.30000000000E+02  0.30000000000E+02  0.00000000000E+00 0.  1.
          5    1    1    2  501    0 -0.56535901660E+00 -0.25833952236E+02 -0.14498181991E+02  0.30000000000E+02  0.47000000000E+01 0.  1.
         -5    1    1    2    0  501  0.56535901660E+00  0.25833952236E+02  0.14498181991E+02  0.30000000000E+02  0.47000000000E+01 0. -1.
</event>
<event>
 4    1  0.7643770E-002  0.6000000E+02  0.7546771E-02  0.1259629E+00
         11   -1    0    0    0    0  0.00000000000E+00  0.00000000000E+00  0.30000000000E+02  0.30000000000E+02  0.00000000000E+00 0.  1.
        -11   -1    0    0    0    0 -0.00000000000E+00 -0.00000000000E+00 -0.30000000000E+02  0.30000000000E+02  0.00000000000E+00 0. -1.
          5    1    1    2  501    0  0.16444712039E+02 -0.24021962906E+02  0.55160442420E+01  0.30000000000E+02  0.47000000000E+01 0. -1.
         -5    1    1    2    0  501 -0.16444712039E+02  0.24021962906E+02 -0.55160442420E+01  0.30000000000E+02  0.47000000000E+01 0.  1.
</event>
<event>
 4    1  0.7643770E-002  0.6000000E+02  0.7546771E-02  0.1259629E+00
         11   -1    0    0    0    0  0.00000000000E+00  0.00000000000E+00  0.30000000000E+02  0.30000000000E+02  0.00000000000E+00 0.  1.
        -11   -1    0    0    0    0 -0.00000000000E+00 -0.00000000000E+00 -0.30000000000E+02  0.30000000000E+02  0.00000000000E+00 0. -1.
          5    1    1    2  501    0  0.24397070611E+02  0.11833831400E+02 -0.11943759041E+02  0.30000000000E+02  0.47000000000E+01 0. -1.
         -5    1    1    2    0  501 -0.24397070611E+02 -0.11833831400E+02  0.11943759041E+02  0.30000000000E+02  0.47000000000E+01 0.  1.
</event>
<event>
 4    1  0.7643770E-002  0.6000000E+02  0.7546771E-02  0.1259629E+00
         11   -1    0    0    0    0  0.00000000000E+00  0.00000000000E+00  0.30000000000E+02  0.30000000000E+02  0.00000000000E+00 0.  1.
        -11   -1    0    0    0    0 -0.00000000000E+00 -0.00000000000E+00 -0.30000000000E+02  0.30000000000E+02  0.00000000000E+00 0. -1.
          5    1    1    2  501    0  0.13001556911E+02  0.21066679069E+02 -0.16280803140E+02  0.30000000000E+02  0.47000000000E+01 0. -1.
         -5    1    1    2    0  501 -0.13001556911E+02 -0.21066679069E+02  0.16280803140E+02  0.30000000000E+02  0.47000000000E+01 0.  1.
</event>
<event>
 4    1  0.7643770E-002  0.6000000E+02  0.7546771E-02  0.1259629E+00
         11   -1    0    0    0    0  0.00000000000E+00  0.00000000000E+00  0.30000000000E+02  0.30000000000E+02  0.00000000000E+00 0.  1.
        -11   -1    0    0    0    0 -0.00000000000E+00 -0.00000000000E+00 -0.30000000000E+02  0.30000000000E+02  0.00000000000E+00 0. -1.
          5    1    1    2  501    0 -0.47941709311E+01  0.11479670342E+02 -0.26891320048E+02  0.30000000000E+02  0.47000000000E+01 0. -1.
         -5    1    1    2    0  501  0.47941709311E+01 -0.11479670342E+02  0.26891320048E+02  0.30000000000E+02  0.47000000000E+01 0.  1.
</event>
<event>
 4    1  0.7643770E-002  0.6000000E+02  0.7546771E-02  0.1259629E+00
         11   -1    0    0    0    0  0.00000000000E+00  0.00000000000E+00  0.30000000000E+02  0.30000000000E+02  0.00000000000E+00 0.  1.
        -11   -1    0    0    0    0 -0.00000000000E+00 -0.00000000000E+00 -0.30000000000E+02  0.30000000000E+02  0.00000000000E+00 0. -1.
          5    1    1    2  501    0 -0.57440687650E+00 -0.53442495492E+00 -0.29619156752E+02  0.30000000000E+02  0.47000000000E+01 0. -1.
         -5    1    1    2    0  501  0.57440687650E+00  0.53442495492E+00  0.29619156752E+02  0.30000000000E+02  0.47000000000E+01 0.  1.
</event>
<event>
 4    1  0.7643770E-002  0.6000000E+02  0.7546771E-02  0.1259629E+00
         11   -1    0    0    0    0  0.00000000000E+00  0.00000000000E+00  0.30000000000E+02  0.30000000000E+02  0.00000000000E+00 0.  1.
        -11   -1    0    0    0    0 -0.00000000000E+00 -0.00000000000E+00 -0.30000000000E+02  0.30000000000E+02  0.00000000000E+00 0. -1.
          5    1    1    2  501    0  0.59216206655E+01  0.27348435028E+02 -0.97420485646E+01  0.30000000000E+02  0.47000000000E+01 0. -1.
         -5    1    1    2    0  501 -0.59216206655E+01 -0.27348435028E+02  0.97420485646E+01  0.30000000000E+02  0.47000000000E+01 0.  1.
</event>
<event>
 4    1  0.7643770E-002  0.6000000E+02  0.7546771E-02  0.1259629E+00
         11   -1    0    0    0    0  0.00000000000E+00  0.00000000000E+00  0.30000000000E+02  0.30000000000E+02  0.00000000000E+00 0.  1.
        -11   -1    0    0    0    0 -0.00000000000E+00 -0.00000000000E+00 -0.30000000000E+02  0.30000000000E+02  0.00000000000E+00 0. -1.
          5    1    1    2  501    0  0.18872677654E+02  0.19956783579E+02 -0.11111202787E+02  0.30000000000E+02  0.47000000000E+01 0. -1.
         -5    1    1    2    0  501 -0.18872677654E+02 -0.19956783579E+02  0.11111202787E+02  0.30000000000E+02  0.47000000000E+01 0.  1.
</event>
<event>
 4    1  0.7643770E-002  0.6000000E+02  0.7546771E-02  0.1259629E+00
         11   -1    0    0    0    0  0.00000000000E+00  0.00000000000E+00  0.30000000000E+02  0.30000000000E+02  0.00000000000E+00 0.  1.
        -11   -1    0    0    0    0 -0.00000000000E+00 -0.00000000000E+00 -0.30000000000E+02  0.30000000000E+02  0.00000000000E+00 0. -1.
          5    1    1    2  501    0  0.16647797179E+02 -0.36984404031E+01  0.24229783071E+02  0.30000000000E+02  0.47000000000E+01 0.  1.
         -5    1    1    2    0  501 -0.16647797179E+02  0.36984404031E+01 -0.24229783071E+02  0.30000000000E+02  0.47000000000E+01 0. -1.
</event>
<event>
 4    1  0.7643770E-002  0.6000000E+02  0.7546771E-02  0.1259629E+00
         11   -1    0    0    0    0  0.00000000000E+00  0.00000000000E+00  0.30000000000E+02  0.30000000000E+02  0.00000000000E+00 0.  1.
        -11   -1    0    0    0    0 -0.00000000000E+00 -0.00000000000E+00 -0.30000000000E+02  0.30000000000E+02  0.00000000000E+00 0. -1.
          5    1    1    2  501    0  0.14796793826E+02  0.19507145488E+02 -0.16686406665E+02  0.30000000000E+02  0.47000000000E+01 0. -1.
         -5    1    1    2    0  501 -0.14796793826E+02 -0.19507145488E+02  0.16686406665E+02  0.30000000000E+02  0.47000000000E+01 0.  1.
</event>
<event>
 4    1  0.7643770E-002  0.6000000E+02  0.7546771E-02  0.1259629E+00
         11   -1    0    0    0    0  0.00000000000E+00  0.00000000000E+00  0.30000000000E+02  0.30000000000E+02  0.00000000000E+00 0. -1.
        -11   -1    0    0    0    0 -0.00000000000E+00 -0.00000000000E+00 -0.30000000000E+02  0.30000000000E+02  0.00000000000E+00 0.  1.
          5    1    1    2  501    0 -0.10222911226E+02  0.69518153862E-01 -0.27810020735E+02  0.30000000000E+02  0.47000000000E+01 0.  1.
         -5    1    1    2    0  501  0.10222911226E+02 -0.69518153862E-01  0.27810020735E+02  0.30000000000E+02  0.47000000000E+01 0. -1.
</event>
<event>
 4    1  0.7643770E-002  0.6000000E+02  0.7546771E-02  0.1259629E+00
         11   -1    0    0    0    0  0.00000000000E+00  0.00000000000E+00  0.30000000000E+02  0.30000000000E+02  0.00000000000E+00 0.  1.
        -11   -1    0    0    0    0 -0.00000000000E+00 -0.00000000000E+00 -0.30000000000E+02  0.30000000000E+02  0.00000000000E+00 0. -1.
          5    1    1    2  501    0 -0.17386232517E+02  0.16683791050E+02  0.17241810666E+02  0.30000000000E+02  0.47000000000E+01 0. -1.
         -5    1    1    2    0  501  0.17386232517E+02 -0.16683791050E+02 -0.17241810666E+02  0.30000000000E+02  0.47000000000E+01 0.  1.
</event>
<event>
 4    1  0.7643770E-002  0.6000000E+02  0.7546771E-02  0.1259629E+00
         11   -1    0    0    0    0  0.00000000000E+00  0.00000000000E+00  0.30000000000E+02  0.30000000000E+02  0.00000000000E+00 0.  1.
        -11   -1    0    0    0    0 -0.00000000000E+00 -0.00000000000E+00 -0.30000000000E+02  0.30000000000E+02  0.00000000000E+00 0. -1.
          5    1    1    2  501    0 -0.24196228983E+02 -0.15957725605E+02  0.61484548065E+01  0.30000000000E+02  0.47000000000E+01 0. -1.
         -5    1    1    2    0  501  0.24196228983E+02  0.15957725605E+02 -0.61484548065E+01  0.30000000000E+02  0.47000000000E+01 0.  1.
</event>
<event>
 4    1  0.7643770E-002  0.6000000E+02  0.7546771E-02  0.1259629E+00
         11   -1    0    0    0    0  0.00000000000E+00  0.00000000000E+00  0.30000000000E+02  0.30000000000E+02  0.00000000000E+00 0. -1.
        -11   -1    0    0    0    0 -0.00000000000E+00 -0.00000000000E+00 -0.30000000000E+02  0.30000000000E+02  0.00000000000E+00 0.  1.
          5    1    1    2  501    0  0.56491747418E+00 -0.16345080318E+02 -0.24706865800E+02  0.30000000000E+02  0.47000000000E+01 0.  1.
         -5    1    1    2    0  501 -0.56491747418E+00  0.16345080318E+02  0.24706865800E+02  0.30000000000E+02  0.47000000000E+01 0. -1.
</event>
<event>
 4    1  0.7643770E-002  0.6000000E+02  0.7546771E-02  0.1259629E+00
         11   -1    0    0    0    0  0.00000000000E+00  0.00000000000E+00  0.30000000000E+02  0.30000000000E+02  0.00000000000E+00 0.  1.
        -11   -1    0    0    0    0 -0.00000000000E+00 -0.00000000000E+00 -0.30000000000E+02  0.30000000000E+02  0.00000000000E+00 0. -1.
          5    1    1    2  501    0  0.28722746610E+02 -0.50660142278E+01 -0.52200887942E+01  0.30000000000E+02  0.47000000000E+01 0. -1.
         -5    1    1    2    0  501 -0.28722746610E+02  0.50660142278E+01  0.52200887942E+01  0.30000000000E+02  0.47000000000E+01 0.  1.
</event>
<event>
 4    1  0.7643770E-002  0.6000000E+02  0.7546771E-02  0.1259629E+00
         11   -1    0    0    0    0  0.00000000000E+00  0.00000000000E+00  0.30000000000E+02  0.30000000000E+02  0.00000000000E+00 0. -1.
        -11   -1    0    0    0    0 -0.00000000000E+00 -0.00000000000E+00 -0.30000000000E+02  0.30000000000E+02  0.00000000000E+00 0.  1.
          5    1    1    2  501    0 -0.24237121514E+02 -0.14932446859E+02 -0.82154714743E+01  0.30000000000E+02  0.47000000000E+01 0.  1.
         -5    1    1    2    0  501  0.24237121514E+02  0.14932446859E+02  0.82154714743E+01  0.30000000000E+02  0.47000000000E+01 0. -1.
</event>
<event>
 4    1  0.7643770E-002  0.6000000E+02  0.7546771E-02  0.1259629E+00
         11   -1    0    0    0    0  0.00000000000E+00  0.00000000000E+00  0.30000000000E+02  0.30000000000E+02  0.00000000000E+00 0.  1.
        -11   -1    0    0    0    0 -0.00000000000E+00 -0.00000000000E+00 -0.30000000000E+02  0.30000000000E+02  0.00000000000E+00 0. -1.
          5    1    1    2  501    0 -0.99925180330E+01 -0.16617382988E+02 -0.22403619484E+02  0.30000000000E+02  0.47000000000E+01 0. -1.
         -5    1    1    2    0  501  0.99925180330E+01  0.16617382988E+02  0.22403619484E+02  0.30000000000E+02  0.47000000000E+01 0.  1.
</event>
<event>
 4    1  0.7643770E-002  0.6000000E+02  0.7546771E-02  0.1259629E+00
         11   -1    0    0    0    0  0.00000000000E+00  0.00000000000E+00  0.30000000000E+02  0.30000000000E+02  0.00000000000E+00 0. -1.
        -11   -1    0    0    0    0 -0.00000000000E+00 -0.00000000000E+00 -0.30000000000E+02  0.30000000000E+02  0.00000000000E+00 0.  1.
          5    1    1    2  501    0  0.13854311451E+01  0.13174213051E+02 -0.26503409046E+02  0.30000000000E+02  0.47000000000E+01 0.  1.
         -5    1    1    2    0  501 -0.13854311451E+01 -0.13174213051E+02  0.26503409046E+02  0.30000000000E+02  0.47000000000E+01 0. -1.
</event>
<event>
 4    1  0.7643770E-002  0.6000000E+02  0.7546771E-02  0.1259629E+00
         11   -1    0    0    0    0  0.00000000000E+00  0.00000000000E+00  0.30000000000E+02  0.30000000000E+02  0.00000000000E+00 0.  1.
        -11   -1    0    0    0    0 -0.00000000000E+00 -0.00000000000E+00 -0.30000000000E+02  0.30000000000E+02  0.00000000000E+00 0. -1.
          5    1    1    2  501    0  0.17879560375E+02 -0.19300924390E+02  0.13627385608E+02  0.30000000000E+02  0.47000000000E+01 0.  1.
         -5    1    1    2    0  501 -0.17879560375E+02  0.19300924390E+02 -0.13627385608E+02  0.30000000000E+02  0.47000000000E+01 0. -1.
</event>
<event>
 4    1  0.7643770E-002  0.6000000E+02  0.7546771E-02  0.1259629E+00
         11   -1    0    0    0    0  0.00000000000E+00  0.00000000000E+00  0.30000000000E+02  0.30000000000E+02  0.00000000000E+00 0. -1.
        -11   -1    0    0    0    0 -0.00000000000E+00 -0.00000000000E+00 -0.30000000000E+02  0.30000000000E+02  0.00000000000E+00 0.  1.
          5    1    1    2  501    0 -0.22119293975E+02  0.80406208875E+01 -0.17999868049E+02  0.30000000000E+02  0.47000000000E+01 0.  1.
         -5    1    1    2    0  501  0.22119293975E+02 -0.80406208875E+01  0.17999868049E+02  0.30000000000E+02  0.47000000000E+01 0. -1.
</event>
<event>
 4    1  0.7643770E-002  0.6000000E+02  0.7546771E-02  0.1259629E+00
         11   -1    0    0    0    0  0.00000000000E+00  0.00000000000E+00  0.30000000000E+02  0.30000000000E+02  0.00000000000E+00 0.  1.
        -11   -1    0    0    0    0 -0.00000000000E+00 -0.00000000000E+00 -0.30000000000E+02  0.30000000000E+02  0.00000000000E+00 0. -1.
          5    1    1    2  501    0 -0.12123068324E+02  0.16274349278E+02 -0.21589042823E+02  0.30000000000E+02  0.47000000000E+01 0. -1.
         -5    1    1    2    0  501  0.12123068324E+02 -0.16274349278E+02  0.21589042823E+02  0.30000000000E+02  0.47000000000E+01 0.  1.
</event>
<event>
 4    1  0.7643770E-002  0.6000000E+02  0.7546771E-02  0.1259629E+00
         11   -1    0    0    0    0  0.00000000000E+00  0.00000000000E+00  0.30000000000E+02  0.30000000000E+02  0.00000000000E+00 0.  1.
        -11   -1    0    0    0    0 -0.00000000000E+00 -0.00000000000E+00 -0.30000000000E+02  0.30000000000E+02  0.00000000000E+00 0. -1.
          5    1    1    2  501    0  0.19575489773E+02 -0.41879585962E+01 -0.21844248738E+02  0.30000000000E+02  0.47000000000E+01 0. -1.
         -5    1    1    2    0  501 -0.19575489773E+02  0.41879585962E+01  0.21844248738E+02  0.30000000000E+02  0.47000000000E+01 0.  1.
</event>
<event>
 4    1  0.7643770E-002  0.6000000E+02  0.7546771E-02  0.1259629E+00
         11   -1    0    0    0    0  0.00000000000E+00  0.00000000000E+00  0.30000000000E+02  0.30000000000E+02  0.00000000000E+00 0.  1.
        -11   -1    0    0    0    0 -0.00000000000E+00 -0.00000000000E+00 -0.30000000000E+02  0.30000000000E+02  0.00000000000E+00 0. -1.
          5    1    1    2  501    0  0.27832303639E+02  0.60264005430E+01  0.81826261459E+01  0.30000000000E+02  0.47000000000E+01 0. -1.
         -5    1    1    2    0  501 -0.27832303639E+02 -0.60264005430E+01 -0.81826261459E+01  0.30000000000E+02  0.47000000000E+01 0.  1.
</event>
<event>
 4    1  0.7643770E-002  0.6000000E+02  0.7546771E-02  0.1259629E+00
         11   -1    0    0    0    0  0.00000000000E+00  0.00000000000E+00  0.30000000000E+02  0.30000000000E+02  0.00000000000E+00 0.  1.
        -11   -1    0    0    0    0 -0.00000000000E+00 -0.00000000000E+00 -0.30000000000E+02  0.30000000000E+02  0.00000000000E+00 0. -1.
          5    1    1    2  501    0 -0.26530102415E+02  0.38242286936E+01 -0.12626913349E+02  0.30000000000E+02  0.47000000000E+01 0. -1.
         -5    1    1    2    0  501  0.26530102415E+02 -0.38242286936E+01  0.12626913349E+02  0.30000000000E+02  0.47000000000E+01 0.  1.
</event>
<event>
 4    1  0.7643770E-002  0.6000000E+02  0.7546771E-02  0.1259629E+00
         11   -1    0    0    0    0  0.00000000000E+00  0.00000000000E+00  0.30000000000E+02  0.30000000000E+02  0.00000000000E+00 0.  1.
        -11   -1    0    0    0    0 -0.00000000000E+00 -0.00000000000E+00 -0.30000000000E+02  0.30000000000E+02  0.00000000000E+00 0. -1.
          5    1    1    2  501    0 -0.47680231096E+01  0.10942082393E+02 -0.27119122193E+02  0.30000000000E+02  0.47000000000E+01 0. -1.
         -5    1    1    2    0  501  0.47680231096E+01 -0.10942082393E+02  0.27119122193E+02  0.30000000000E+02  0.47000000000E+01 0.  1.
</event>
<event>
 4    1  0.7643770E-002  0.6000000E+02  0.7546771E-02  0.1259629E+00
         11   -1    0    0    0    0  0.00000000000E+00  0.00000000000E+00  0.30000000000E+02  0.30000000000E+02  0.00000000000E+00 0.  1.
        -11   -1    0    0    0    0 -0.00000000000E+00 -0.00000000000E+00 -0.30000000000E+02  0.30000000000E+02  0.00000000000E+00 0. -1.
          5    1    1    2  501    0 -0.20118529927E+02 -0.90872382900E+01 -0.19763017326E+02  0.30000000000E+02  0.47000000000E+01 0. -1.
         -5    1    1    2    0  501  0.20118529927E+02  0.90872382900E+01  0.19763017326E+02  0.30000000000E+02  0.47000000000E+01 0.  1.
</event>
<event>
 4    1  0.7643770E-002  0.6000000E+02  0.7546771E-02  0.1259629E+00
         11   -1    0    0    0    0  0.00000000000E+00  0.00000000000E+00  0.30000000000E+02  0.30000000000E+02  0.00000000000E+00 0. -1.
        -11   -1    0    0    0    0 -0.00000000000E+00 -0.00000000000E+00 -0.30000000000E+02  0.30000000000E+02  0.00000000000E+00 0.  1.
          5    1    1    2  501    0 -0.21274312972E+02 -0.11300391710E+02 -0.17251514565E+02  0.30000000000E+02  0.47000000000E+01 0.  1.
         -5    1    1    2    0  501  0.21274312972E+02  0.11300391710E+02  0.17251514565E+02  0.30000000000E+02  0.47000000000E+01 0. -1.
</event>
<event>
 4    1  0.7643770E-002  0.6000000E+02  0.7546771E-02  0.1259629E+00
         11   -1    0    0    0    0  0.00000000000E+00  0.00000000000E+00  0.30000000000E+02  0.30000000000E+02  0.00000000000E+00 0.  1.
        -11   -1    0    0    0    0 -0.00000000000E+00 -0.00000000000E+00 -0.30000000000E+02  0.30000000000E+02  0.00000000000E+00 0. -1.
          5    1    1    2  501    0 -0.26503832911E+02  0.13206568164E+02 -0.10214687105E+01  0.30000000000E+02  0.47000000000E+01 0. -1.
         -5    1    1    2    0  501  0.26503832911E+02 -0.13206568164E+02  0.10214687105E+01  0.30000000000E+02  0.47000000000E+01 0.  1.
</event>
<event>
 4    1  0.7643770E-002  0.6000000E+02  0.7546771E-02  0.1259629E+00
         11   -1    0    0    0    0  0.00000000000E+00  0.00000000000E+00  0.30000000000E+02  0.30000000000E+02  0.00000000000E+00 0. -1.
        -11   -1    0    0    0    0 -0.00000000000E+00 -0.00000000000E+00 -0.30000000000E+02  0.30000000000E+02  0.00000000000E+00 0.  1.
          5    1    1    2  501    0 -0.21661305287E+02 -0.13567815552E+02 -0.14987068905E+02  0.30000000000E+02  0.47000000000E+01 0.  1.
         -5    1    1    2    0  501  0.21661305287E+02  0.13567815552E+02  0.14987068905E+02  0.30000000000E+02  0.47000000000E+01 0. -1.
</event>
<event>
 4    1  0.7643770E-002  0.6000000E+02  0.7546771E-02  0.1259629E+00
         11   -1    0    0    0    0  0.00000000000E+00  0.00000000000E+00  0.30000000000E+02  0.30000000000E+02  0.00000000000E+00 0. -1.
        -11   -1    0    0    0    0 -0.00000000000E+00 -0.00000000000E+00 -0.30000000000E+02  0.30000000000E+02  0.00000000000E+00 0.  1.
          5    1    1    2  501    0 -0.13676940264E+02 -0.18060195293E+02 -0.19096613600E+02  0.30000000000E+02  0.47000000000E+01 0.  1.
         -5    1    1    2    0  501  0.13676940264E+02  0.18060195293E+02  0.19096613600E+02  0.30000000000E+02  0.47000000000E+01 0. -1.
</event>
<event>
 4    1  0.7643770E-002  0.6000000E+02  0.7546771E-02  0.1259629E+00
         11   -1    0    0    0    0  0.00000000000E+00  0.00000000000E+00  0.30000000000E+02  0.30000000000E+02  0.00000000000E+00 0.  1.
        -11   -1    0    0    0    0 -0.00000000000E+00 -0.00000000000E+00 -0.30000000000E+02  0.30000000000E+02  0.00000000000E+00 0. -1.
          5    1    1    2  501    0 -0.20425838558E+02 -0.31740994138E+01 -0.21227816942E+02  0.30000000000E+02  0.47000000000E+01 0. -1.
         -5    1    1    2    0  501  0.20425838558E+02  0.31740994138E+01  0.21227816942E+02  0.30000000000E+02  0.47000000000E+01 0.  1.
</event>
<event>
 4    1  0.7643770E-002  0.6000000E+02  0.7546771E-02  0.1259629E+00
         11   -1    0    0    0    0  0.00000000000E+00  0.00000000000E+00  0.30000000000E+02  0.30000000000E+02  0.00000000000E+00 0.  1.
        -11   -1    0    0    0    0 -0.00000000000E+00 -0.00000000000E+00 -0.30000000000E+02  0.30000000000E+02  0.00000000000E+00 0. -1.
          5    1    1    2  501    0 -0.17761037943E+02  0.12911543822E+02 -0.19893405121E+02  0.30000000000E+02  0.47000000000E+01 0. -1.
         -5    1    1    2    0  501  0.17761037943E+02 -0.12911543822E+02  0.19893405121E+02  0.30000000000E+02  0.47000000000E+01 0.  1.
</event>
<event>
 4    1  0.7643770E-002  0.6000000E+02  0.7546771E-02  0.1259629E+00
         11   -1    0    0    0    0  0.00000000000E+00  0.00000000000E+00  0.30000000000E+02  0.30000000000E+02  0.00000000000E+00 0.  1.
        -11   -1    0    0    0    0 -0.00000000000E+00 -0.00000000000E+00 -0.30000000000E+02  0.30000000000E+02  0.00000000000E+00 0. -1.
          5    1    1    2  501    0  0.21234306633E+02 -0.79839785697E+01 -0.19059651309E+02  0.30000000000E+02  0.47000000000E+01 0. -1.
         -5    1    1    2    0  501 -0.21234306633E+02  0.79839785697E+01  0.19059651309E+02  0.30000000000E+02  0.47000000000E+01 0.  1.
</event>
<event>
 4    1  0.7643770E-002  0.6000000E+02  0.7546771E-02  0.1259629E+00
         11   -1    0    0    0    0  0.00000000000E+00  0.00000000000E+00  0.30000000000E+02  0.30000000000E+02  0.00000000000E+00 0. -1.
        -11   -1    0    0    0    0 -0.00000000000E+00 -0.00000000000E+00 -0.30000000000E+02  0.30000000000E+02  0.00000000000E+00 0.  1.
          5    1    1    2  501    0 -0.34589565999E+01 -0.26279908901E+02 -0.13240544075E+02  0.30000000000E+02  0.47000000000E+01 0. -1.
         -5    1    1    2    0  501  0.34589565999E+01  0.26279908901E+02  0.13240544075E+02  0.30000000000E+02  0.47000000000E+01 0.  1.
</event>
<event>
 4    1  0.7643770E-002  0.6000000E+02  0.7546771E-02  0.1259629E+00
         11   -1    0    0    0    0  0.00000000000E+00  0.00000000000E+00  0.30000000000E+02  0.30000000000E+02  0.00000000000E+00 0. -1.
        -11   -1    0    0    0    0 -0.00000000000E+00 -0.00000000000E+00 -0.30000000000E+02  0.30000000000E+02  0.00000000000E+00 0.  1.
          5    1    1    2  501    0  0.23323281095E+02 -0.13509875123E+02  0.12305195372E+02  0.30000000000E+02  0.47000000000E+01 0. -1.
         -5    1    1    2    0  501 -0.23323281095E+02  0.13509875123E+02 -0.12305195372E+02  0.30000000000E+02  0.47000000000E+01 0.  1.
</event>
<event>
 4    1  0.7643770E-002  0.6000000E+02  0.7546771E-02  0.1259629E+00
         11   -1    0    0    0    0  0.00000000000E+00  0.00000000000E+00  0.30000000000E+02  0.30000000000E+02  0.00000000000E+00 0. -1.
        -11   -1    0    0    0    0 -0.00000000000E+00 -0.00000000000E+00 -0.30000000000E+02  0.30000000000E+02  0.00000000000E+00 0.  1.
          5    1    1    2  501    0  0.11565725945E+02  0.21122474374E+02  0.17262243761E+02  0.30000000000E+02  0.47000000000E+01 0.  1.
         -5    1    1    2    0  501 -0.11565725945E+02 -0.21122474374E+02 -0.17262243761E+02  0.30000000000E+02  0.47000000000E+01 0. -1.
</event>
<event>
 4    1  0.7643770E-002  0.6000000E+02  0.7546771E-02  0.1259629E+00
         11   -1    0    0    0    0  0.00000000000E+00  0.00000000000E+00  0.30000000000E+02  0.30000000000E+02  0.00000000000E+00 0. -1.
        -11   -1    0    0    0    0 -0.00000000000E+00 -0.00000000000E+00 -0.30000000000E+02  0.30000000000E+02  0.00000000000E+00 0.  1.
          5    1    1    2  501    0  0.11577443650E+02 -0.27171414120E+02 -0.23636948307E+01  0.30000000000E+02  0.47000000000E+01 0.  1.
         -5    1    1    2    0  501 -0.11577443650E+02  0.27171414120E+02  0.23636948307E+01  0.30000000000E+02  0.47000000000E+01 0. -1.
</event>
<event>
 4    1  0.7643770E-002  0.6000000E+02  0.7546771E-02  0.1259629E+00
         11   -1    0    0    0    0  0.00000000000E+00  0.00000000000E+00  0.30000000000E+02  0.30000000000E+02  0.00000000000E+00 0.  1.
        -11   -1    0    0    0    0 -0.00000000000E+00 -0.00000000000E+00 -0.30000000000E+02  0.30000000000E+02  0.00000000000E+00 0. -1.
          5    1    1    2  501    0 -0.25414047373E+02  0.12408086992E+02 -0.88360383264E+01  0.30000000000E+02  0.47000000000E+01 0. -1.
         -5    1    1    2    0  501  0.25414047373E+02 -0.12408086992E+02  0.88360383264E+01  0.30000000000E+02  0.47000000000E+01 0.  1.
</event>
<event>
 4    1  0.7643770E-002  0.6000000E+02  0.7546771E-02  0.1259629E+00
         11   -1    0    0    0    0  0.00000000000E+00  0.00000000000E+00  0.30000000000E+02  0.30000000000E+02  0.00000000000E+00 0.  1.
        -11   -1    0    0    0    0 -0.00000000000E+00 -0.00000000000E+00 -0.30000000000E+02  0.30000000000E+02  0.00000000000E+00 0. -1.
          5    1    1    2  501    0 -0.19663861545E+02  0.11520987685E+00 -0.22163692739E+02  0.30000000000E+02  0.47000000000E+01 0. -1.
         -5    1    1    2    0  501  0.19663861545E+02 -0.11520987685E+00  0.22163692739E+02  0.30000000000E+02  0.47000000000E+01 0.  1.
</event>
<event>
 4    1  0.7643770E-002  0.6000000E+02  0.7546771E-02  0.1259629E+00
         11   -1    0    0    0    0  0.00000000000E+00  0.00000000000E+00  0.30000000000E+02  0.30000000000E+02  0.00000000000E+00 0.  1.
        -11   -1    0    0    0    0 -0.00000000000E+00 -0.00000000000E+00 -0.30000000000E+02  0.30000000000E+02  0.00000000000E+00 0. -1.
          5    1    1    2  501    0 -0.22455983960E+02 -0.70986376201E+01 -0.17979102545E+02  0.30000000000E+02  0.47000000000E+01 0. -1.
         -5    1    1    2    0  501  0.22455983960E+02  0.70986376201E+01  0.17979102545E+02  0.30000000000E+02  0.47000000000E+01 0.  1.
</event>
<event>
 4    1  0.7643770E-002  0.6000000E+02  0.7546771E-02  0.1259629E+00
         11   -1    0    0    0    0  0.00000000000E+00  0.00000000000E+00  0.30000000000E+02  0.30000000000E+02  0.00000000000E+00 0.  1.
        -11   -1    0    0    0    0 -0.00000000000E+00 -0.00000000000E+00 -0.30000000000E+02  0.30000000000E+02  0.00000000000E+00 0. -1.
          5    1    1    2  501    0 -0.46627387834E+01 -0.10479332025E+02 -0.27319452179E+02  0.30000000000E+02  0.47000000000E+01 0. -1.
         -5    1    1    2    0  501  0.46627387834E+01  0.10479332025E+02  0.27319452179E+02  0.30000000000E+02  0.47000000000E+01 0.  1.
</event>
<event>
 4    1  0.7643770E-002  0.6000000E+02  0.7546771E-02  0.1259629E+00
         11   -1    0    0    0    0  0.00000000000E+00  0.00000000000E+00  0.30000000000E+02  0.30000000000E+02  0.00000000000E+00 0.  1.
        -11   -1    0    0    0    0 -0.00000000000E+00 -0.00000000000E+00 -0.30000000000E+02  0.30000000000E+02  0.00000000000E+00 0. -1.
          5    1    1    2  501    0 -0.28571737394E+02 -0.24505891896E+01 -0.74538872366E+01  0.30000000000E+02  0.47000000000E+01 0. -1.
         -5    1    1    2    0  501  0.28571737394E+02  0.24505891896E+01  0.74538872366E+01  0.30000000000E+02  0.47000000000E+01 0.  1.
</event>
<event>
 4    1  0.7643770E-002  0.6000000E+02  0.7546771E-02  0.1259629E+00
         11   -1    0    0    0    0  0.00000000000E+00  0.00000000000E+00  0.30000000000E+02  0.30000000000E+02  0.00000000000E+00 0.  1.
        -11   -1    0    0    0    0 -0.00000000000E+00 -0.00000000000E+00 -0.30000000000E+02  0.30000000000E+02  0.00000000000E+00 0. -1.
          5    1    1    2  501    0 -0.19352041044E+02  0.12940711530E+02 -0.18328843185E+02  0.30000000000E+02  0.47000000000E+01 0. -1.
         -5    1    1    2    0  501  0.19352041044E+02 -0.12940711530E+02  0.18328843185E+02  0.30000000000E+02  0.47000000000E+01 0.  1.
</event>
<event>
 4    1  0.7643770E-002  0.6000000E+02  0.7546771E-02  0.1259629E+00
         11   -1    0    0    0    0  0.00000000000E+00  0.00000000000E+00  0.30000000000E+02  0.30000000000E+02  0.00000000000E+00 0.  1.
        -11   -1    0    0    0    0 -0.00000000000E+00 -0.00000000000E+00 -0.30000000000E+02  0.30000000000E+02  0.00000000000E+00 0. -1.
          5    1    1    2  501    0 -0.25182264517E+02  0.26617281668E+01 -0.15384367292E+02  0.30000000000E+02  0.47000000000E+01 0. -1.
         -5    1    1    2    0  501  0.25182264517E+02 -0.26617281668E+01  0.15384367292E+02  0.30000000000E+02  0.47000000000E+01 0.  1.
</event>
<event>
 4    1  0.7643770E-002  0.6000000E+02  0.7546771E-02  0.1259629E+00
         11   -1    0    0    0    0  0.00000000000E+00  0.00000000000E+00  0.30000000000E+02  0.30000000000E+02  0.00000000000E+00 0.  1.
        -11   -1    0    0    0    0 -0.00000000000E+00 -0.00000000000E+00 -0.30000000000E+02  0.30000000000E+02  0.00000000000E+00 0. -1.
          5    1    1    2  501    0 -0.19179135003E+02 -0.20905058006E+02 -0.85468900969E+01  0.30000000000E+02  0.47000000000E+01 0. -1.
         -5    1    1    2    0  501  0.19179135003E+02  0.20905058006E+02  0.85468900969E+01  0.30000000000E+02  0.47000000000E+01 0.  1.
</event>
<event>
 4    1  0.7643770E-002  0.6000000E+02  0.7546771E-02  0.1259629E+00
         11   -1    0    0    0    0  0.00000000000E+00  0.00000000000E+00  0.30000000000E+02  0.30000000000E+02  0.00000000000E+00 0.  1.
        -11   -1    0    0    0    0 -0.00000000000E+00 -0.00000000000E+00 -0.30000000000E+02  0.30000000000E+02  0.00000000000E+00 0. -1.
          5    1    1    2  501    0  0.14565331644E+02 -0.25025329056E+02 -0.62844267630E+01  0.30000000000E+02  0.47000000000E+01 0. -1.
         -5    1    1    2    0  501 -0.14565331644E+02  0.25025329056E+02  0.62844267630E+01  0.30000000000E+02  0.47000000000E+01 0.  1.
</event>
<event>
 4    1  0.7643770E-002  0.6000000E+02  0.7546771E-02  0.1259629E+00
         11   -1    0    0    0    0  0.00000000000E+00  0.00000000000E+00  0.30000000000E+02  0.30000000000E+02  0.00000000000E+00 0. -1.
        -11   -1    0    0    0    0 -0.00000000000E+00 -0.00000000000E+00 -0.30000000000E+02  0.30000000000E+02  0.00000000000E+00 0.  1.
          5    1    1    2  501    0 -0.23316623514E+02 -0.10821514098E+02 -0.14735667630E+02  0.30000000000E+02  0.47000000000E+01 0.  1.
         -5    1    1    2    0  501  0.23316623514E+02  0.10821514098E+02  0.14735667630E+02  0.30000000000E+02  0.47000000000E+01 0. -1.
</event>
<event>
 4    1  0.7643770E-002  0.6000000E+02  0.7546771E-02  0.1259629E+00
         11   -1    0    0    0    0  0.00000000000E+00  0.00000000000E+00  0.30000000000E+02  0.30000000000E+02  0.00000000000E+00 0.  1.
        -11   -1    0    0    0    0 -0.00000000000E+00 -0.00000000000E+00 -0.30000000000E+02  0.30000000000E+02  0.00000000000E+00 0. -1.
          5    1    1    2  501    0 -0.10294875127E+02 -0.26252950575E+02 -0.90944011485E+01  0.30000000000E+02  0.47000000000E+01 0. -1.
         -5    1    1    2    0  501  0.10294875127E+02  0.26252950575E+02  0.90944011485E+01  0.30000000000E+02  0.47000000000E+01 0.  1.
</event>
<event>
 4    1  0.7643770E-002  0.6000000E+02  0.7546771E-02  0.1259629E+00
         11   -1    0    0    0    0  0.00000000000E+00  0.00000000000E+00  0.30000000000E+02  0.30000000000E+02  0.00000000000E+00 0.  1.
        -11   -1    0    0    0    0 -0.00000000000E+00 -0.00000000000E+00 -0.30000000000E+02  0.30000000000E+02  0.00000000000E+00 0. -1.
          5    1    1    2  501    0 -0.72907488498E+01 -0.18547986414E+02 -0.21925491584E+02  0.30000000000E+02  0.47000000000E+01 0. -1.
         -5    1    1    2    0  501  0.72907488498E+01  0.18547986414E+02  0.21925491584E+02  0.30000000000E+02  0.47000000000E+01 0.  1.
</event>
<event>
 4    1  0.7643770E-002  0.6000000E+02  0.7546771E-02  0.1259629E+00
         11   -1    0    0    0    0  0.00000000000E+00  0.00000000000E+00  0.30000000000E+02  0.30000000000E+02  0.00000000000E+00 0.  1.
        -11   -1    0    0    0    0 -0.00000000000E+00 -0.00000000000E+00 -0.30000000000E+02  0.30000000000E+02  0.00000000000E+00 0. -1.
          5    1    1    2  501    0 -0.24192509648E+02 -0.17043004873E+02  0.14725698062E+01  0.30000000000E+02  0.47000000000E+01 0.  1.
         -5    1    1    2    0  501  0.24192509648E+02  0.17043004873E+02 -0.14725698062E+01  0.30000000000E+02  0.47000000000E+01 0. -1.
</event>
<event>
 4    1  0.7643770E-002  0.6000000E+02  0.7546771E-02  0.1259629E+00
         11   -1    0    0    0    0  0.00000000000E+00  0.00000000000E+00  0.30000000000E+02  0.30000000000E+02  0.00000000000E+00 0.  1.
        -11   -1    0    0    0    0 -0.00000000000E+00 -0.00000000000E+00 -0.30000000000E+02  0.30000000000E+02  0.00000000000E+00 0. -1.
          5    1    1    2  501    0  0.20175376659E+01 -0.17173619423E+02  0.24060472516E+02  0.30000000000E+02  0.47000000000E+01 0.  1.
         -5    1    1    2    0  501 -0.20175376659E+01  0.17173619423E+02 -0.24060472516E+02  0.30000000000E+02  0.47000000000E+01 0. -1.
</event>
<event>
 4    1  0.7643770E-002  0.6000000E+02  0.7546771E-02  0.1259629E+00
         11   -1    0    0    0    0  0.00000000000E+00  0.00000000000E+00  0.30000000000E+02  0.30000000000E+02  0.00000000000E+00 0.  1.
        -11   -1    0    0    0    0 -0.00000000000E+00 -0.00000000000E+00 -0.30000000000E+02  0.30000000000E+02  0.00000000000E+00 0. -1.
          5    1    1    2  501    0 -0.25237237841E+02 -0.15135205436E+02  0.34521562192E+01  0.30000000000E+02  0.47000000000E+01 0. -1.
         -5    1    1    2    0  501  0.25237237841E+02  0.15135205436E+02 -0.34521562192E+01  0.30000000000E+02  0.47000000000E+01 0.  1.
</event>
<event>
 4    1  0.7643770E-002  0.6000000E+02  0.7546771E-02  0.1259629E+00
         11   -1    0    0    0    0  0.00000000000E+00  0.00000000000E+00  0.30000000000E+02  0.30000000000E+02  0.00000000000E+00 0.  1.
        -11   -1    0    0    0    0 -0.00000000000E+00 -0.00000000000E+00 -0.30000000000E+02  0.30000000000E+02  0.00000000000E+00 0. -1.
          5    1    1    2  501    0  0.16549087444E+02 -0.21638622783E+02 -0.11653656457E+02  0.30000000000E+02  0.47000000000E+01 0. -1.
         -5    1    1    2    0  501 -0.16549087444E+02  0.21638622783E+02  0.11653656457E+02  0.30000000000E+02  0.47000000000E+01 0.  1.
</event>
<event>
 4    1  0.7643770E-002  0.6000000E+02  0.7546771E-02  0.1259629E+00
         11   -1    0    0    0    0  0.00000000000E+00  0.00000000000E+00  0.30000000000E+02  0.30000000000E+02  0.00000000000E+00 0.  1.
        -11   -1    0    0    0    0 -0.00000000000E+00 -0.00000000000E+00 -0.30000000000E+02  0.30000000000E+02  0.00000000000E+00 0. -1.
          5    1    1    2  501    0  0.12986264245E+02 -0.92221633599E+01 -0.24984367991E+02  0.30000000000E+02  0.47000000000E+01 0. -1.
         -5    1    1    2    0  501 -0.12986264245E+02  0.92221633599E+01  0.24984367991E+02  0.30000000000E+02  0.47000000000E+01 0.  1.
</event>
<event>
 4    1  0.7643770E-002  0.6000000E+02  0.7546771E-02  0.1259629E+00
         11   -1    0    0    0    0  0.00000000000E+00  0.00000000000E+00  0.30000000000E+02  0.30000000000E+02  0.00000000000E+00 0.  1.
        -11   -1    0    0    0    0 -0.00000000000E+00 -0.00000000000E+00 -0.30000000000E+02  0.30000000000E+02  0.00000000000E+00 0. -1.
          5    1    1    2  501    0 -0.27427849474E+02  0.98787917497E+01  0.52945771131E+01  0.30000000000E+02  0.47000000000E+01 0. -1.
         -5    1    1    2    0  501  0.27427849474E+02 -0.98787917497E+01 -0.52945771131E+01  0.30000000000E+02  0.47000000000E+01 0.  1.
</event>
<event>
 4    1  0.7643770E-002  0.6000000E+02  0.7546771E-02  0.1259629E+00
         11   -1    0    0    0    0  0.00000000000E+00  0.00000000000E+00  0.30000000000E+02  0.30000000000E+02  0.00000000000E+00 0.  1.
        -11   -1    0    0    0    0 -0.00000000000E+00 -0.00000000000E+00 -0.30000000000E+02  0.30000000000E+02  0.00000000000E+00 0. -1.
          5    1    1    2  501    0  0.79431339264E+01  0.28544001508E+02 -0.23791032360E+00  0.30000000000E+02  0.47000000000E+01 0. -1.
         -5    1    1    2    0  501 -0.79431339264E+01 -0.28544001508E+02  0.23791032360E+00  0.30000000000E+02  0.47000000000E+01 0.  1.
</event>
<event>
 4    1  0.7643770E-002  0.6000000E+02  0.7546771E-02  0.1259629E+00
         11   -1    0    0    0    0  0.00000000000E+00  0.00000000000E+00  0.30000000000E+02  0.30000000000E+02  0.00000000000E+00 0. -1.
        -11   -1    0    0    0    0 -0.00000000000E+00 -0.00000000000E+00 -0.30000000000E+02  0.30000000000E+02  0.00000000000E+00 0.  1.
          5    1    1    2  501    0 -0.14643234042E+02 -0.16258910974E+02 -0.19978326025E+02  0.30000000000E+02  0.47000000000E+01 0.  1.
         -5    1    1    2    0  501  0.14643234042E+02  0.16258910974E+02  0.19978326025E+02  0.30000000000E+02  0.47000000000E+01 0. -1.
</event>
<event>
 4    1  0.7643770E-002  0.6000000E+02  0.7546771E-02  0.1259629E+00
         11   -1    0    0    0    0  0.00000000000E+00  0.00000000000E+00  0.30000000000E+02  0.30000000000E+02  0.00000000000E+00 0.  1.
        -11   -1    0    0    0    0 -0.00000000000E+00 -0.00000000000E+00 -0.30000000000E+02  0.30000000000E+02  0.00000000000E+00 0. -1.
          5    1    1    2  501    0  0.83380712270E+01  0.23515075692E+02 -0.15982108228E+02  0.30000000000E+02  0.47000000000E+01 0. -1.
         -5    1    1    2    0  501 -0.83380712270E+01 -0.23515075692E+02  0.15982108228E+02  0.30000000000E+02  0.47000000000E+01 0.  1.
</event>
<event>
 4    1  0.7643770E-002  0.6000000E+02  0.7546771E-02  0.1259629E+00
         11   -1    0    0    0    0  0.00000000000E+00  0.00000000000E+00  0.30000000000E+02  0.30000000000E+02  0.00000000000E+00 0.  1.
        -11   -1    0    0    0    0 -0.00000000000E+00 -0.00000000000E+00 -0.30000000000E+02  0.30000000000E+02  0.00000000000E+00 0. -1.
          5    1    1    2  501    0  0.26613488976E+02  0.52532374143E+00  0.13013694306E+02  0.30000000000E+02  0.47000000000E+01 0.  1.
         -5    1    1    2    0  501 -0.26613488976E+02 -0.52532374143E+00 -0.13013694306E+02  0.30000000000E+02  0.47000000000E+01 0. -1.
</event>
<event>
 4    1  0.7643770E-002  0.6000000E+02  0.7546771E-02  0.1259629E+00
         11   -1    0    0    0    0  0.00000000000E+00  0.00000000000E+00  0.30000000000E+02  0.30000000000E+02  0.00000000000E+00 0.  1.
        -11   -1    0    0    0    0 -0.00000000000E+00 -0.00000000000E+00 -0.30000000000E+02  0.30000000000E+02  0.00000000000E+00 0. -1.
          5    1    1    2  501    0 -0.15608652504E+02 -0.17399636975E+02 -0.18208036692E+02  0.30000000000E+02  0.47000000000E+01 0. -1.
         -5    1    1    2    0  501  0.15608652504E+02  0.17399636975E+02  0.18208036692E+02  0.30000000000E+02  0.47000000000E+01 0.  1.
</event>
<event>
 4    1  0.7643770E-002  0.6000000E+02  0.7546771E-02  0.1259629E+00
         11   -1    0    0    0    0  0.00000000000E+00  0.00000000000E+00  0.30000000000E+02  0.30000000000E+02  0.00000000000E+00 0.  1.
        -11   -1    0    0    0    0 -0.00000000000E+00 -0.00000000000E+00 -0.30000000000E+02  0.30000000000E+02  0.00000000000E+00 0. -1.
          5    1    1    2  501    0 -0.15823790943E+02  0.24233121690E+02  0.63461368862E+01  0.30000000000E+02  0.47000000000E+01 0. -1.
         -5    1    1    2    0  501  0.15823790943E+02 -0.24233121690E+02 -0.63461368862E+01  0.30000000000E+02  0.47000000000E+01 0.  1.
</event>
<event>
 4    1  0.7643770E-002  0.6000000E+02  0.7546771E-02  0.1259629E+00
         11   -1    0    0    0    0  0.00000000000E+00  0.00000000000E+00  0.30000000000E+02  0.30000000000E+02  0.00000000000E+00 0. -1.
        -11   -1    0    0    0    0 -0.00000000000E+00 -0.00000000000E+00 -0.30000000000E+02  0.30000000000E+02  0.00000000000E+00 0.  1.
          5    1    1    2  501    0 -0.78013717038E+01 -0.19247024641E+02 -0.21132927909E+02  0.30000000000E+02  0.47000000000E+01 0.  1.
         -5    1    1    2    0  501  0.78013717038E+01  0.19247024641E+02  0.21132927909E+02  0.30000000000E+02  0.47000000000E+01 0. -1.
</event>
<event>
 4    1  0.7643770E-002  0.6000000E+02  0.7546771E-02  0.1259629E+00
         11   -1    0    0    0    0  0.00000000000E+00  0.00000000000E+00  0.30000000000E+02  0.30000000000E+02  0.00000000000E+00 0.  1.
        -11   -1    0    0    0    0 -0.00000000000E+00 -0.00000000000E+00 -0.30000000000E+02  0.30000000000E+02  0.00000000000E+00 0. -1.
          5    1    1    2  501    0 -0.14087292229E+02  0.11626692493E+02 -0.23329771095E+02  0.30000000000E+02  0.47000000000E+01 0. -1.
         -5    1    1    2    0  501  0.14087292229E+02 -0.11626692493E+02  0.23329771095E+02  0.30000000000E+02  0.47000000000E+01 0.  1.
</event>
<event>
 4    1  0.7643770E-002  0.6000000E+02  0.7546771E-02  0.1259629E+00
         11   -1    0    0    0    0  0.00000000000E+00  0.00000000000E+00  0.30000000000E+02  0.30000000000E+02  0.00000000000E+00 0.  1.
        -11   -1    0    0    0    0 -0.00000000000E+00 -0.00000000000E+00 -0.30000000000E+02  0.30000000000E+02  0.00000000000E+00 0. -1.
          5    1    1    2  501    0  0.39254881804E+01 -0.10205331772E+02 -0.27538187049E+02  0.30000000000E+02  0.47000000000E+01 0. -1.
         -5    1    1    2    0  501 -0.39254881804E+01  0.10205331772E+02  0.27538187049E+02  0.30000000000E+02  0.47000000000E+01 0.  1.
</event>
<event>
 4    1  0.7643770E-002  0.6000000E+02  0.7546771E-02  0.1259629E+00
         11   -1    0    0    0    0  0.00000000000E+00  0.00000000000E+00  0.30000000000E+02  0.30000000000E+02  0.00000000000E+00 0.  1.
        -11   -1    0    0    0    0 -0.00000000000E+00 -0.00000000000E+00 -0.30000000000E+02  0.30000000000E+02  0.00000000000E+00 0. -1.
          5    1    1    2  501    0 -0.19361600449E+02  0.16484233711E+02 -0.15208828588E+02  0.30000000000E+02  0.47000000000E+01 0. -1.
         -5    1    1    2    0  501  0.19361600449E+02 -0.16484233711E+02  0.15208828588E+02  0.30000000000E+02  0.47000000000E+01 0.  1.
</event>
<event>
 4    1  0.7643770E-002  0.6000000E+02  0.7546771E-02  0.1259629E+00
         11   -1    0    0    0    0  0.00000000000E+00  0.00000000000E+00  0.30000000000E+02  0.30000000000E+02  0.00000000000E+00 0.  1.
        -11   -1    0    0    0    0 -0.00000000000E+00 -0.00000000000E+00 -0.30000000000E+02  0.30000000000E+02  0.00000000000E+00 0. -1.
          5    1    1    2  501    0  0.20032115941E+00 -0.13956140836E+02 -0.26136105379E+02  0.30000000000E+02  0.47000000000E+01 0. -1.
         -5    1    1    2    0  501 -0.20032115941E+00  0.13956140836E+02  0.26136105379E+02  0.30000000000E+02  0.47000000000E+01 0.  1.
</event>
<event>
 4    1  0.7643770E-002  0.6000000E+02  0.7546771E-02  0.1259629E+00
         11   -1    0    0    0    0  0.00000000000E+00  0.00000000000E+00  0.30000000000E+02  0.30000000000E+02  0.00000000000E+00 0.  1.
        -11   -1    0    0    0    0 -0.00000000000E+00 -0.00000000000E+00 -0.30000000000E+02  0.30000000000E+02  0.00000000000E+00 0. -1.
          5    1    1    2  501    0  0.21855891892E+02  0.33506136965E+01 -0.19723168546E+02  0.30000000000E+02  0.47000000000E+01 0. -1.
         -5    1    1    2    0  501 -0.21855891892E+02 -0.33506136965E+01  0.19723168546E+02  0.30000000000E+02  0.47000000000E+01 0.  1.
</event>
<event>
 4    1  0.7643770E-002  0.6000000E+02  0.7546771E-02  0.1259629E+00
         11   -1    0    0    0    0  0.00000000000E+00  0.00000000000E+00  0.30000000000E+02  0.30000000000E+02  0.00000000000E+00 0. -1.
        -11   -1    0    0    0    0 -0.00000000000E+00 -0.00000000000E+00 -0.30000000000E+02  0.30000000000E+02  0.00000000000E+00 0.  1.
          5    1    1    2  501    0  0.22600311336E+02 -0.73929059960E+01 -0.17677128400E+02  0.30000000000E+02  0.47000000000E+01 0.  1.
         -5    1    1    2    0  501 -0.22600311336E+02  0.73929059960E+01  0.17677128400E+02  0.30000000000E+02  0.47000000000E+01 0. -1.
</event>
<event>
 4    1  0.7643770E-002  0.6000000E+02  0.7546771E-02  0.1259629E+00
         11   -1    0    0    0    0  0.00000000000E+00  0.00000000000E+00  0.30000000000E+02  0.30000000000E+02  0.00000000000E+00 0.  1.
        -11   -1    0    0    0    0 -0.00000000000E+00 -0.00000000000E+00 -0.30000000000E+02  0.30000000000E+02  0.00000000000E+00 0. -1.
          5    1    1    2  501    0  0.67550503326E+00 -0.57787907082E+01 -0.29052698169E+02  0.30000000000E+02  0.47000000000E+01 0. -1.
         -5    1    1    2    0  501 -0.67550503326E+00  0.57787907082E+01  0.29052698169E+02  0.30000000000E+02  0.47000000000E+01 0.  1.
</event>
<event>
 4    1  0.7643770E-002  0.6000000E+02  0.7546771E-02  0.1259629E+00
         11   -1    0    0    0    0  0.00000000000E+00  0.00000000000E+00  0.30000000000E+02  0.30000000000E+02  0.00000000000E+00 0.  1.
        -11   -1    0    0    0    0 -0.00000000000E+00 -0.00000000000E+00 -0.30000000000E+02  0.30000000000E+02  0.00000000000E+00 0. -1.
          5    1    1    2  501    0 -0.21309103768E+01  0.28394298232E+02  0.81934759963E+01  0.30000000000E+02  0.47000000000E+01 0. -1.
         -5    1    1    2    0  501  0.21309103768E+01 -0.28394298232E+02 -0.81934759963E+01  0.30000000000E+02  0.47000000000E+01 0.  1.
</event>
<event>
 4    1  0.7643770E-002  0.6000000E+02  0.7546771E-02  0.1259629E+00
         11   -1    0    0    0    0  0.00000000000E+00  0.00000000000E+00  0.30000000000E+02  0.30000000000E+02  0.00000000000E+00 0.  1.
        -11   -1    0    0    0    0 -0.00000000000E+00 -0.00000000000E+00 -0.30000000000E+02  0.30000000000E+02  0.00000000000E+00 0. -1.
          5    1    1    2  501    0 -0.20125193688E+02  0.10725141206E+02 -0.18917133111E+02  0.30000000000E+02  0.47000000000E+01 0. -1.
         -5    1    1    2    0  501  0.20125193688E+02 -0.10725141206E+02  0.18917133111E+02  0.30000000000E+02  0.47000000000E+01 0.  1.
</event>
<event>
 4    1  0.7643770E-002  0.6000000E+02  0.7546771E-02  0.1259629E+00
         11   -1    0    0    0    0  0.00000000000E+00  0.00000000000E+00  0.30000000000E+02  0.30000000000E+02  0.00000000000E+00 0.  1.
        -11   -1    0    0    0    0 -0.00000000000E+00 -0.00000000000E+00 -0.30000000000E+02  0.30000000000E+02  0.00000000000E+00 0. -1.
          5    1    1    2  501    0  0.24239856937E+02  0.13774155218E+02  0.10030552512E+02  0.30000000000E+02  0.47000000000E+01 0. -1.
         -5    1    1    2    0  501 -0.24239856937E+02 -0.13774155218E+02 -0.10030552512E+02  0.30000000000E+02  0.47000000000E+01 0.  1.
</event>
<event>
 4    1  0.7643770E-002  0.6000000E+02  0.7546771E-02  0.1259629E+00
         11   -1    0    0    0    0  0.00000000000E+00  0.00000000000E+00  0.30000000000E+02  0.30000000000E+02  0.00000000000E+00 0.  1.
        -11   -1    0    0    0    0 -0.00000000000E+00 -0.00000000000E+00 -0.30000000000E+02  0.30000000000E+02  0.00000000000E+00 0. -1.
          5    1    1    2  501    0 -0.23228651187E+02  0.44583164833E+01 -0.17845536646E+02  0.30000000000E+02  0.47000000000E+01 0. -1.
         -5    1    1    2    0  501  0.23228651187E+02 -0.44583164833E+01  0.17845536646E+02  0.30000000000E+02  0.47000000000E+01 0.  1.
</event>
<event>
 4    1  0.7643770E-002  0.6000000E+02  0.7546771E-02  0.1259629E+00
         11   -1    0    0    0    0  0.00000000000E+00  0.00000000000E+00  0.30000000000E+02  0.30000000000E+02  0.00000000000E+00 0.  1.
        -11   -1    0    0    0    0 -0.00000000000E+00 -0.00000000000E+00 -0.30000000000E+02  0.30000000000E+02  0.00000000000E+00 0. -1.
          5    1    1    2  501    0 -0.15920988930E+02  0.22217786284E+02  0.11436873878E+02  0.30000000000E+02  0.47000000000E+01 0.  1.
         -5    1    1    2    0  501  0.15920988930E+02 -0.22217786284E+02 -0.11436873878E+02  0.30000000000E+02  0.47000000000E+01 0. -1.
</event>
<event>
 4    1  0.7643770E-002  0.6000000E+02  0.7546771E-02  0.1259629E+00
         11   -1    0    0    0    0  0.00000000000E+00  0.00000000000E+00  0.30000000000E+02  0.30000000000E+02  0.00000000000E+00 0.  1.
        -11   -1    0    0    0    0 -0.00000000000E+00 -0.00000000000E+00 -0.30000000000E+02  0.30000000000E+02  0.00000000000E+00 0. -1.
          5    1    1    2  501    0 -0.63251913371E+01  0.12913797590E+02 -0.25906288548E+02  0.30000000000E+02  0.47000000000E+01 0. -1.
         -5    1    1    2    0  501  0.63251913371E+01 -0.12913797590E+02  0.25906288548E+02  0.30000000000E+02  0.47000000000E+01 0.  1.
</event>
<event>
 4    1  0.7643770E-002  0.6000000E+02  0.7546771E-02  0.1259629E+00
         11   -1    0    0    0    0  0.00000000000E+00  0.00000000000E+00  0.30000000000E+02  0.30000000000E+02  0.00000000000E+00 0.  1.
        -11   -1    0    0    0    0 -0.00000000000E+00 -0.00000000000E+00 -0.30000000000E+02  0.30000000000E+02  0.00000000000E+00 0. -1.
          5    1    1    2  501    0  0.19772623991E+02 -0.71986980733E+00 -0.22055274380E+02  0.30000000000E+02  0.47000000000E+01 0. -1.
         -5    1    1    2    0  501 -0.19772623991E+02  0.71986980733E+00  0.22055274380E+02  0.30000000000E+02  0.47000000000E+01 0.  1.
</event>
<event>
 4    1  0.7643770E-002  0.6000000E+02  0.7546771E-02  0.1259629E+00
         11   -1    0    0    0    0  0.00000000000E+00  0.00000000000E+00  0.30000000000E+02  0.30000000000E+02  0.00000000000E+00 0. -1.
        -11   -1    0    0    0    0 -0.00000000000E+00 -0.00000000000E+00 -0.30000000000E+02  0.30000000000E+02  0.00000000000E+00 0.  1.
          5    1    1    2  501    0  0.90338970308E+01 -0.18528941475E+02  0.21283257088E+02  0.30000000000E+02  0.47000000000E+01 0. -1.
         -5    1    1    2    0  501 -0.90338970308E+01  0.18528941475E+02 -0.21283257088E+02  0.30000000000E+02  0.47000000000E+01 0.  1.
</event>
<event>
 4    1  0.7643770E-002  0.6000000E+02  0.7546771E-02  0.1259629E+00
         11   -1    0    0    0    0  0.00000000000E+00  0.00000000000E+00  0.30000000000E+02  0.30000000000E+02  0.00000000000E+00 0.  1.
        -11   -1    0    0    0    0 -0.00000000000E+00 -0.00000000000E+00 -0.30000000000E+02  0.30000000000E+02  0.00000000000E+00 0. -1.
          5    1    1    2  501    0  0.18844241572E+02  0.17953017281E+02 -0.14159580857E+02  0.30000000000E+02  0.47000000000E+01 0. -1.
         -5    1    1    2    0  501 -0.18844241572E+02 -0.17953017281E+02  0.14159580857E+02  0.30000000000E+02  0.47000000000E+01 0.  1.
</event>
<event>
 4    1  0.7643770E-002  0.6000000E+02  0.7546771E-02  0.1259629E+00
         11   -1    0    0    0    0  0.00000000000E+00  0.00000000000E+00  0.30000000000E+02  0.30000000000E+02  0.00000000000E+00 0.  1.
        -11   -1    0    0    0    0 -0.00000000000E+00 -0.00000000000E+00 -0.30000000000E+02  0.30000000000E+02  0.00000000000E+00 0. -1.
          5    1    1    2  501    0 -0.24393515743E+02  0.16789135270E+02 -0.99565385259E+00  0.30000000000E+02  0.47000000000E+01 0.  1.
         -5    1    1    2    0  501  0.24393515743E+02 -0.16789135270E+02  0.99565385259E+00  0.30000000000E+02  0.47000000000E+01 0. -1.
</event>
<event>
 4    1  0.7643770E-002  0.6000000E+02  0.7546771E-02  0.1259629E+00
         11   -1    0    0    0    0  0.00000000000E+00  0.00000000000E+00  0.30000000000E+02  0.30000000000E+02  0.00000000000E+00 0. -1.
        -11   -1    0    0    0    0 -0.00000000000E+00 -0.00000000000E+00 -0.30000000000E+02  0.30000000000E+02  0.00000000000E+00 0.  1.
          5    1    1    2  501    0  0.27412189052E+02  0.72946446480E+01 -0.85597926873E+01  0.30000000000E+02  0.47000000000E+01 0.  1.
         -5    1    1    2    0  501 -0.27412189052E+02 -0.72946446480E+01  0.85597926873E+01  0.30000000000E+02  0.47000000000E+01 0. -1.
</event>
<event>
 4    1  0.7643770E-002  0.6000000E+02  0.7546771E-02  0.1259629E+00
         11   -1    0    0    0    0  0.00000000000E+00  0.00000000000E+00  0.30000000000E+02  0.30000000000E+02  0.00000000000E+00 0.  1.
        -11   -1    0    0    0    0 -0.00000000000E+00 -0.00000000000E+00 -0.30000000000E+02  0.30000000000E+02  0.00000000000E+00 0. -1.
          5    1    1    2  501    0  0.16467570974E+01  0.29577094318E+02 -0.62744144211E+00  0.30000000000E+02  0.47000000000E+01 0. -1.
         -5    1    1    2    0  501 -0.16467570974E+01 -0.29577094318E+02  0.62744144211E+00  0.30000000000E+02  0.47000000000E+01 0.  1.
</event>
<event>
 4    1  0.7643770E-002  0.6000000E+02  0.7546771E-02  0.1259629E+00
         11   -1    0    0    0    0  0.00000000000E+00  0.00000000000E+00  0.30000000000E+02  0.30000000000E+02  0.00000000000E+00 0.  1.
        -11   -1    0    0    0    0 -0.00000000000E+00 -0.00000000000E+00 -0.30000000000E+02  0.30000000000E+02  0.00000000000E+00 0. -1.
          5    1    1    2  501    0  0.85729671767E+01  0.45182749361E+01 -0.27999989739E+02  0.30000000000E+02  0.47000000000E+01 0. -1.
         -5    1    1    2    0  501 -0.85729671767E+01 -0.45182749361E+01  0.27999989739E+02  0.30000000000E+02  0.47000000000E+01 0.  1.
</event>
<event>
 4    1  0.7643770E-002  0.6000000E+02  0.7546771E-02  0.1259629E+00
         11   -1    0    0    0    0  0.00000000000E+00  0.00000000000E+00  0.30000000000E+02  0.30000000000E+02  0.00000000000E+00 0.  1.
        -11   -1    0    0    0    0 -0.00000000000E+00 -0.00000000000E+00 -0.30000000000E+02  0.30000000000E+02  0.00000000000E+00 0. -1.
          5    1    1    2  501    0 -0.25102968521E+02 -0.15352516560E+02 -0.34714847957E+01  0.30000000000E+02  0.47000000000E+01 0. -1.
         -5    1    1    2    0  501  0.25102968521E+02  0.15352516560E+02  0.34714847957E+01  0.30000000000E+02  0.47000000000E+01 0.  1.
</event>
<event>
 4    1  0.7643770E-002  0.6000000E+02  0.7546771E-02  0.1259629E+00
         11   -1    0    0    0    0  0.00000000000E+00  0.00000000000E+00  0.30000000000E+02  0.30000000000E+02  0.00000000000E+00 0.  1.
        -11   -1    0    0    0    0 -0.00000000000E+00 -0.00000000000E+00 -0.30000000000E+02  0.30000000000E+02  0.00000000000E+00 0. -1.
          5    1    1    2  501    0 -0.27575098006E+02  0.10729188127E+02  0.15519317298E+01  0.30000000000E+02  0.47000000000E+01 0.  1.
         -5    1    1    2    0  501  0.27575098006E+02 -0.10729188127E+02 -0.15519317298E+01  0.30000000000E+02  0.47000000000E+01 0. -1.
</event>
<event>
 4    1  0.7643770E-002  0.6000000E+02  0.7546771E-02  0.1259629E+00
         11   -1    0    0    0    0  0.00000000000E+00  0.00000000000E+00  0.30000000000E+02  0.30000000000E+02  0.00000000000E+00 0.  1.
        -11   -1    0    0    0    0 -0.00000000000E+00 -0.00000000000E+00 -0.30000000000E+02  0.30000000000E+02  0.00000000000E+00 0. -1.
          5    1    1    2  501    0  0.89987817557E+01  0.27652273882E+02 -0.56818725837E+01  0.30000000000E+02  0.47000000000E+01 0.  1.
         -5    1    1    2    0  501 -0.89987817557E+01 -0.27652273882E+02  0.56818725837E+01  0.30000000000E+02  0.47000000000E+01 0. -1.
</event>
<event>
 4    1  0.7643770E-002  0.6000000E+02  0.7546771E-02  0.1259629E+00
         11   -1    0    0    0    0  0.00000000000E+00  0.00000000000E+00  0.30000000000E+02  0.30000000000E+02  0.00000000000E+00 0.  1.
        -11   -1    0    0    0    0 -0.00000000000E+00 -0.00000000000E+00 -0.30000000000E+02  0.30000000000E+02  0.00000000000E+00 0. -1.
          5    1    1    2  501    0  0.18826011733E+02 -0.94660125911E+01 -0.20829927697E+02  0.30000000000E+02  0.47000000000E+01 0. -1.
         -5    1    1    2    0  501 -0.18826011733E+02  0.94660125911E+01  0.20829927697E+02  0.30000000000E+02  0.47000000000E+01 0.  1.
</event>
<event>
 4    1  0.7643770E-002  0.6000000E+02  0.7546771E-02  0.1259629E+00
         11   -1    0    0    0    0  0.00000000000E+00  0.00000000000E+00  0.30000000000E+02  0.30000000000E+02  0.00000000000E+00 0.  1.
        -11   -1    0    0    0    0 -0.00000000000E+00 -0.00000000000E+00 -0.30000000000E+02  0.30000000000E+02  0.00000000000E+00 0. -1.
          5    1    1    2  501    0  0.17293300988E+02 -0.23814624239E+02  0.34227785922E+01  0.30000000000E+02  0.47000000000E+01 0. -1.
         -5    1    1    2    0  501 -0.17293300988E+02  0.23814624239E+02 -0.34227785922E+01  0.30000000000E+02  0.47000000000E+01 0.  1.
</event>
<event>
 4    1  0.7643770E-002  0.6000000E+02  0.7546771E-02  0.1259629E+00
         11   -1    0    0    0    0  0.00000000000E+00  0.00000000000E+00  0.30000000000E+02  0.30000000000E+02  0.00000000000E+00 0. -1.
        -11   -1    0    0    0    0 -0.00000000000E+00 -0.00000000000E+00 -0.30000000000E+02  0.30000000000E+02  0.00000000000E+00 0.  1.
          5    1    1    2  501    0 -0.22189650754E+02  0.21590359020E+01 -0.19515838782E+02  0.30000000000E+02  0.47000000000E+01 0.  1.
         -5    1    1    2    0  501  0.22189650754E+02 -0.21590359020E+01  0.19515838782E+02  0.30000000000E+02  0.47000000000E+01 0. -1.
</event>
<event>
 4    1  0.7643770E-002  0.6000000E+02  0.7546771E-02  0.1259629E+00
         11   -1    0    0    0    0  0.00000000000E+00  0.00000000000E+00  0.30000000000E+02  0.30000000000E+02  0.00000000000E+00 0. -1.
        -11   -1    0    0    0    0 -0.00000000000E+00 -0.00000000000E+00 -0.30000000000E+02  0.30000000000E+02  0.00000000000E+00 0.  1.
          5    1    1    2  501    0  0.26235047973E+02  0.47993991911E+01 -0.12907285744E+02  0.30000000000E+02  0.47000000000E+01 0.  1.
         -5    1    1    2    0  501 -0.26235047973E+02 -0.47993991911E+01  0.12907285744E+02  0.30000000000E+02  0.47000000000E+01 0. -1.
</event>
<event>
 4    1  0.7643770E-002  0.6000000E+02  0.7546771E-02  0.1259629E+00
         11   -1    0    0    0    0  0.00000000000E+00  0.00000000000E+00  0.30000000000E+02  0.30000000000E+02  0.00000000000E+00 0.  1.
        -11   -1    0    0    0    0 -0.00000000000E+00 -0.00000000000E+00 -0.30000000000E+02  0.30000000000E+02  0.00000000000E+00 0. -1.
          5    1    1    2  501    0  0.11926963732E+02  0.44305232421E+01 -0.26758699519E+02  0.30000000000E+02  0.47000000000E+01 0. -1.
         -5    1    1    2    0  501 -0.11926963732E+02 -0.44305232421E+01  0.26758699519E+02  0.30000000000E+02  0.47000000000E+01 0.  1.
</event>
<event>
 4    1  0.7643770E-002  0.6000000E+02  0.7546771E-02  0.1259629E+00
         11   -1    0    0    0    0  0.00000000000E+00  0.00000000000E+00  0.30000000000E+02  0.30000000000E+02  0.00000000000E+00 0.  1.
        -11   -1    0    0    0    0 -0.00000000000E+00 -0.00000000000E+00 -0.30000000000E+02  0.30000000000E+02  0.00000000000E+00 0. -1.
          5    1    1    2  501    0  0.54086893378E+01 -0.28771277381E+02 -0.45683342188E+01  0.30000000000E+02  0.47000000000E+01 0. -1.
         -5    1    1    2    0  501 -0.54086893378E+01  0.28771277381E+02  0.45683342188E+01  0.30000000000E+02  0.47000000000E+01 0.  1.
</event>
<event>
 4    1  0.7643770E-002  0.6000000E+02  0.7546771E-02  0.1259629E+00
         11   -1    0    0    0    0  0.00000000000E+00  0.00000000000E+00  0.30000000000E+02  0.30000000000E+02  0.00000000000E+00 0. -1.
        -11   -1    0    0    0    0 -0.00000000000E+00 -0.00000000000E+00 -0.30000000000E+02  0.30000000000E+02  0.00000000000E+00 0.  1.
          5    1    1    2  501    0  0.16758510043E+02  0.31291584219E+01 -0.24233668907E+02  0.30000000000E+02  0.47000000000E+01 0.  1.
         -5    1    1    2    0  501 -0.16758510043E+02 -0.31291584219E+01  0.24233668907E+02  0.30000000000E+02  0.47000000000E+01 0. -1.
</event>
<event>
 4    1  0.7643770E-002  0.6000000E+02  0.7546771E-02  0.1259629E+00
         11   -1    0    0    0    0  0.00000000000E+00  0.00000000000E+00  0.30000000000E+02  0.30000000000E+02  0.00000000000E+00 0.  1.
        -11   -1    0    0    0    0 -0.00000000000E+00 -0.00000000000E+00 -0.30000000000E+02  0.30000000000E+02  0.00000000000E+00 0. -1.
          5    1    1    2  501    0 -0.25588924989E+01 -0.16194818975E+02 -0.24679746910E+02  0.30000000000E+02  0.47000000000E+01 0. -1.
         -5    1    1    2    0  501  0.25588924989E+01  0.16194818975E+02  0.24679746910E+02  0.30000000000E+02  0.47000000000E+01 0.  1.
</event>
<event>
 4    1  0.7643770E-002  0.6000000E+02  0.7546771E-02  0.1259629E+00
         11   -1    0    0    0    0  0.00000000000E+00  0.00000000000E+00  0.30000000000E+02  0.30000000000E+02  0.00000000000E+00 0.  1.
        -11   -1    0    0    0    0 -0.00000000000E+00 -0.00000000000E+00 -0.30000000000E+02  0.30000000000E+02  0.00000000000E+00 0. -1.
          5    1    1    2  501    0 -0.10943185429E+02 -0.27109965247E+02 -0.48173101386E+01  0.30000000000E+02  0.47000000000E+01 0. -1.
         -5    1    1    2    0  501  0.10943185429E+02  0.27109965247E+02  0.48173101386E+01  0.30000000000E+02  0.47000000000E+01 0.  1.
</event>
<event>
 4    1  0.7643770E-002  0.6000000E+02  0.7546771E-02  0.1259629E+00
         11   -1    0    0    0    0  0.00000000000E+00  0.00000000000E+00  0.30000000000E+02  0.30000000000E+02  0.00000000000E+00 0.  1.
        -11   -1    0    0    0    0 -0.00000000000E+00 -0.00000000000E+00 -0.30000000000E+02  0.30000000000E+02  0.00000000000E+00 0. -1.
          5    1    1    2  501    0  0.20280846493E+02  0.20933115981E+02  0.53293452547E+01  0.30000000000E+02  0.47000000000E+01 0. -1.
         -5    1    1    2    0  501 -0.20280846493E+02 -0.20933115981E+02 -0.53293452547E+01  0.30000000000E+02  0.47000000000E+01 0.  1.
</event>
<event>
 4    1  0.7643770E-002  0.6000000E+02  0.7546771E-02  0.1259629E+00
         11   -1    0    0    0    0  0.00000000000E+00  0.00000000000E+00  0.30000000000E+02  0.30000000000E+02  0.00000000000E+00 0.  1.
        -11   -1    0    0    0    0 -0.00000000000E+00 -0.00000000000E+00 -0.30000000000E+02  0.30000000000E+02  0.00000000000E+00 0. -1.
          5    1    1    2  501    0  0.21469107581E+02  0.58220637373E+01 -0.19572710428E+02  0.30000000000E+02  0.47000000000E+01 0. -1.
         -5    1    1    2    0  501 -0.21469107581E+02 -0.58220637373E+01  0.19572710428E+02  0.30000000000E+02  0.47000000000E+01 0.  1.
</event>
<event>
 4    1  0.7643770E-002  0.6000000E+02  0.7546771E-02  0.1259629E+00
         11   -1    0    0    0    0  0.00000000000E+00  0.00000000000E+00  0.30000000000E+02  0.30000000000E+02  0.00000000000E+00 0.  1.
        -11   -1    0    0    0    0 -0.00000000000E+00 -0.00000000000E+00 -0.30000000000E+02  0.30000000000E+02  0.00000000000E+00 0. -1.
          5    1    1    2  501    0 -0.83233054615E+01 -0.18278141851E+02 -0.21783987621E+02  0.30000000000E+02  0.47000000000E+01 0. -1.
         -5    1    1    2    0  501  0.83233054615E+01  0.18278141851E+02  0.21783987621E+02  0.30000000000E+02  0.47000000000E+01 0.  1.
</event>
<event>
 4    1  0.7643770E-002  0.6000000E+02  0.7546771E-02  0.1259629E+00
         11   -1    0    0    0    0  0.00000000000E+00  0.00000000000E+00  0.30000000000E+02  0.30000000000E+02  0.00000000000E+00 0.  1.
        -11   -1    0    0    0    0 -0.00000000000E+00 -0.00000000000E+00 -0.30000000000E+02  0.30000000000E+02  0.00000000000E+00 0. -1.
          5    1    1    2  501    0  0.23603434499E+02  0.27629163054E+01  0.17696162673E+02  0.30000000000E+02  0.47000000000E+01 0.  1.
         -5    1    1    2    0  501 -0.23603434499E+02 -0.27629163054E+01 -0.17696162673E+02  0.30000000000E+02  0.47000000000E+01 0. -1.
</event>
<event>
 4    1  0.7643770E-002  0.6000000E+02  0.7546771E-02  0.1259629E+00
         11   -1    0    0    0    0  0.00000000000E+00  0.00000000000E+00  0.30000000000E+02  0.30000000000E+02  0.00000000000E+00 0.  1.
        -11   -1    0    0    0    0 -0.00000000000E+00 -0.00000000000E+00 -0.30000000000E+02  0.30000000000E+02  0.00000000000E+00 0. -1.
          5    1    1    2  501    0 -0.19214665831E+02 -0.15563676337E+02 -0.16324172135E+02  0.30000000000E+02  0.47000000000E+01 0. -1.
         -5    1    1    2    0  501  0.19214665831E+02  0.15563676337E+02  0.16324172135E+02  0.30000000000E+02  0.47000000000E+01 0.  1.
</event>
<event>
 4    1  0.7643770E-002  0.6000000E+02  0.7546771E-02  0.1259629E+00
         11   -1    0    0    0    0  0.00000000000E+00  0.00000000000E+00  0.30000000000E+02  0.30000000000E+02  0.00000000000E+00 0. -1.
        -11   -1    0    0    0    0 -0.00000000000E+00 -0.00000000000E+00 -0.30000000000E+02  0.30000000000E+02  0.00000000000E+00 0.  1.
          5    1    1    2  501    0 -0.10801669811E+02 -0.25737110096E+02  0.99415840379E+01  0.30000000000E+02  0.47000000000E+01 0.  1.
         -5    1    1    2    0  501  0.10801669811E+02  0.25737110096E+02 -0.99415840379E+01  0.30000000000E+02  0.47000000000E+01 0. -1.
</event>
<event>
 4    1  0.7643770E-002  0.6000000E+02  0.7546771E-02  0.1259629E+00
         11   -1    0    0    0    0  0.00000000000E+00  0.00000000000E+00  0.30000000000E+02  0.30000000000E+02  0.00000000000E+00 0.  1.
        -11   -1    0    0    0    0 -0.00000000000E+00 -0.00000000000E+00 -0.30000000000E+02  0.30000000000E+02  0.00000000000E+00 0. -1.
          5    1    1    2  501    0  0.26314673751E+02 -0.70735655625E+01  0.11636692641E+02  0.30000000000E+02  0.47000000000E+01 0.  1.
         -5    1    1    2    0  501 -0.26314673751E+02  0.70735655625E+01 -0.11636692641E+02  0.30000000000E+02  0.47000000000E+01 0. -1.
</event>
<event>
 4    1  0.7643770E-002  0.6000000E+02  0.7546771E-02  0.1259629E+00
         11   -1    0    0    0    0  0.00000000000E+00  0.00000000000E+00  0.30000000000E+02  0.30000000000E+02  0.00000000000E+00 0.  1.
        -11   -1    0    0    0    0 -0.00000000000E+00 -0.00000000000E+00 -0.30000000000E+02  0.30000000000E+02  0.00000000000E+00 0. -1.
          5    1    1    2  501    0 -0.55501525406E+01 -0.12578775922E+02 -0.26246527448E+02  0.30000000000E+02  0.47000000000E+01 0. -1.
         -5    1    1    2    0  501  0.55501525406E+01  0.12578775922E+02  0.26246527448E+02  0.30000000000E+02  0.47000000000E+01 0.  1.
</event>
<event>
 4    1  0.7643770E-002  0.6000000E+02  0.7546771E-02  0.1259629E+00
         11   -1    0    0    0    0  0.00000000000E+00  0.00000000000E+00  0.30000000000E+02  0.30000000000E+02  0.00000000000E+00 0.  1.
        -11   -1    0    0    0    0 -0.00000000000E+00 -0.00000000000E+00 -0.30000000000E+02  0.30000000000E+02  0.00000000000E+00 0. -1.
          5    1    1    2  501    0  0.25529307517E+02 -0.15015041229E+02  0.84439006939E+00  0.30000000000E+02  0.47000000000E+01 0. -1.
         -5    1    1    2    0  501 -0.25529307517E+02  0.15015041229E+02 -0.84439006939E+00  0.30000000000E+02  0.47000000000E+01 0.  1.
</event>
<event>
 4    1  0.7643770E-002  0.6000000E+02  0.7546771E-02  0.1259629E+00
         11   -1    0    0    0    0  0.00000000000E+00  0.00000000000E+00  0.30000000000E+02  0.30000000000E+02  0.00000000000E+00 0.  1.
        -11   -1    0    0    0    0 -0.00000000000E+00 -0.00000000000E+00 -0.30000000000E+02  0.30000000000E+02  0.00000000000E+00 0. -1.
          5    1    1    2  501    0 -0.23059696835E+02 -0.67895742637E+01 -0.17322299593E+02  0.30000000000E+02  0.47000000000E+01 0. -1.
         -5    1    1    2    0  501  0.23059696835E+02  0.67895742637E+01  0.17322299593E+02  0.30000000000E+02  0.47000000000E+01 0.  1.
</event>
<event>
 4    1  0.7643770E-002  0.6000000E+02  0.7546771E-02  0.1259629E+00
         11   -1    0    0    0    0  0.00000000000E+00  0.00000000000E+00  0.30000000000E+02  0.30000000000E+02  0.00000000000E+00 0.  1.
        -11   -1    0    0    0    0 -0.00000000000E+00 -0.00000000000E+00 -0.30000000000E+02  0.30000000000E+02  0.00000000000E+00 0. -1.
          5    1    1    2  501    0 -0.15272603119E+02  0.23908901055E+02 -0.85452936949E+01  0.30000000000E+02  0.47000000000E+01 0. -1.
         -5    1    1    2    0  501  0.15272603119E+02 -0.23908901055E+02  0.85452936949E+01  0.30000000000E+02  0.47000000000E+01 0.  1.
</event>
<event>
 4    1  0.7643770E-002  0.6000000E+02  0.7546771E-02  0.1259629E+00
         11   -1    0    0    0    0  0.00000000000E+00  0.00000000000E+00  0.30000000000E+02  0.30000000000E+02  0.00000000000E+00 0.  1.
        -11   -1    0    0    0    0 -0.00000000000E+00 -0.00000000000E+00 -0.30000000000E+02  0.30000000000E+02  0.00000000000E+00 0. -1.
          5    1    1    2  501    0  0.15770166307E+02 -0.15879318299E+02 -0.19418009810E+02  0.30000000000E+02  0.47000000000E+01 0. -1.
         -5    1    1    2    0  501 -0.15770166307E+02  0.15879318299E+02  0.19418009810E+02  0.30000000000E+02  0.47000000000E+01 0.  1.
</event>
<event>
 4    1  0.7643770E-002  0.6000000E+02  0.7546771E-02  0.1259629E+00
         11   -1    0    0    0    0  0.00000000000E+00  0.00000000000E+00  0.30000000000E+02  0.30000000000E+02  0.00000000000E+00 0.  1.
        -11   -1    0    0    0    0 -0.00000000000E+00 -0.00000000000E+00 -0.30000000000E+02  0.30000000000E+02  0.00000000000E+00 0. -1.
          5    1    1    2  501    0 -0.13207673376E+02  0.16968380556E+02 -0.20384833218E+02  0.30000000000E+02  0.47000000000E+01 0. -1.
         -5    1    1    2    0  501  0.13207673376E+02 -0.16968380556E+02  0.20384833218E+02  0.30000000000E+02  0.47000000000E+01 0.  1.
</event>
<event>
 4    1  0.7643770E-002  0.6000000E+02  0.7546771E-02  0.1259629E+00
         11   -1    0    0    0    0  0.00000000000E+00  0.00000000000E+00  0.30000000000E+02  0.30000000000E+02  0.00000000000E+00 0.  1.
        -11   -1    0    0    0    0 -0.00000000000E+00 -0.00000000000E+00 -0.30000000000E+02  0.30000000000E+02  0.00000000000E+00 0. -1.
          5    1    1    2  501    0  0.74014830507E+01 -0.27227079630E+02 -0.90451193174E+01  0.30000000000E+02  0.47000000000E+01 0. -1.
         -5    1    1    2    0  501 -0.74014830507E+01  0.27227079630E+02  0.90451193174E+01  0.30000000000E+02  0.47000000000E+01 0.  1.
</event>
<event>
 4    1  0.7643770E-002  0.6000000E+02  0.7546771E-02  0.1259629E+00
         11   -1    0    0    0    0  0.00000000000E+00  0.00000000000E+00  0.30000000000E+02  0.30000000000E+02  0.00000000000E+00 0.  1.
        -11   -1    0    0    0    0 -0.00000000000E+00 -0.00000000000E+00 -0.30000000000E+02  0.30000000000E+02  0.00000000000E+00 0. -1.
          5    1    1    2  501    0  0.66323319257E+01  0.28826332610E+02 -0.17218366550E+01  0.30000000000E+02  0.47000000000E+01 0. -1.
         -5    1    1    2    0  501 -0.66323319257E+01 -0.28826332610E+02  0.17218366550E+01  0.30000000000E+02  0.47000000000E+01 0.  1.
</event>
<event>
 4    1  0.7643770E-002  0.6000000E+02  0.7546771E-02  0.1259629E+00
         11   -1    0    0    0    0  0.00000000000E+00  0.00000000000E+00  0.30000000000E+02  0.30000000000E+02  0.00000000000E+00 0.  1.
        -11   -1    0    0    0    0 -0.00000000000E+00 -0.00000000000E+00 -0.30000000000E+02  0.30000000000E+02  0.00000000000E+00 0. -1.
          5    1    1    2  501    0 -0.23606957759E+02 -0.16756677611E+02 -0.63115212759E+01  0.30000000000E+02  0.47000000000E+01 0. -1.
         -5    1    1    2    0  501  0.23606957759E+02  0.16756677611E+02  0.63115212759E+01  0.30000000000E+02  0.47000000000E+01 0.  1.
</event>
<event>
 4    1  0.7643770E-002  0.6000000E+02  0.7546771E-02  0.1259629E+00
         11   -1    0    0    0    0  0.00000000000E+00  0.00000000000E+00  0.30000000000E+02  0.30000000000E+02  0.00000000000E+00 0.  1.
        -11   -1    0    0    0    0 -0.00000000000E+00 -0.00000000000E+00 -0.30000000000E+02  0.30000000000E+02  0.00000000000E+00 0. -1.
          5    1    1    2  501    0  0.13022229590E+02 -0.82950098039E+01  0.25288818653E+02  0.30000000000E+02  0.47000000000E+01 0.  1.
         -5    1    1    2    0  501 -0.13022229590E+02  0.82950098039E+01 -0.25288818653E+02  0.30000000000E+02  0.47000000000E+01 0. -1.
</event>
<event>
 4    1  0.7643770E-002  0.6000000E+02  0.7546771E-02  0.1259629E+00
         11   -1    0    0    0    0  0.00000000000E+00  0.00000000000E+00  0.30000000000E+02  0.30000000000E+02  0.00000000000E+00 0.  1.
        -11   -1    0    0    0    0 -0.00000000000E+00 -0.00000000000E+00 -0.30000000000E+02  0.30000000000E+02  0.00000000000E+00 0. -1.
          5    1    1    2  501    0 -0.13955122344E+01  0.74420281461E+00 -0.29587306531E+02  0.30000000000E+02  0.47000000000E+01 0. -1.
         -5    1    1    2    0  501  0.13955122344E+01 -0.74420281461E+00  0.29587306531E+02  0.30000000000E+02  0.47000000000E+01 0.  1.
</event>
<event>
 4    1  0.7643770E-002  0.6000000E+02  0.7546771E-02  0.1259629E+00
         11   -1    0    0    0    0  0.00000000000E+00  0.00000000000E+00  0.30000000000E+02  0.30000000000E+02  0.00000000000E+00 0.  1.
        -11   -1    0    0    0    0 -0.00000000000E+00 -0.00000000000E+00 -0.30000000000E+02  0.30000000000E+02  0.00000000000E+00 0. -1.
          5    1    1    2  501    0 -0.10702645079E+02 -0.10714531233E+02 -0.25466884552E+02  0.30000000000E+02  0.47000000000E+01 0. -1.
         -5    1    1    2    0  501  0.10702645079E+02  0.10714531233E+02  0.25466884552E+02  0.30000000000E+02  0.47000000000E+01 0.  1.
</event>
<event>
 4    1  0.7643770E-002  0.6000000E+02  0.7546771E-02  0.1259629E+00
         11   -1    0    0    0    0  0.00000000000E+00  0.00000000000E+00  0.30000000000E+02  0.30000000000E+02  0.00000000000E+00 0.  1.
        -11   -1    0    0    0    0 -0.00000000000E+00 -0.00000000000E+00 -0.30000000000E+02  0.30000000000E+02  0.00000000000E+00 0. -1.
          5    1    1    2  501    0  0.15250028171E+02 -0.25218659591E+02  0.30603674956E+01  0.30000000000E+02  0.47000000000E+01 0. -1.
         -5    1    1    2    0  501 -0.15250028171E+02  0.25218659591E+02 -0.30603674956E+01  0.30000000000E+02  0.47000000000E+01 0.  1.
</event>
<event>
 4    1  0.7643770E-002  0.6000000E+02  0.7546771E-02  0.1259629E+00
         11   -1    0    0    0    0  0.00000000000E+00  0.00000000000E+00  0.30000000000E+02  0.30000000000E+02  0.00000000000E+00 0. -1.
        -11   -1    0    0    0    0 -0.00000000000E+00 -0.00000000000E+00 -0.30000000000E+02  0.30000000000E+02  0.00000000000E+00 0.  1.
          5    1    1    2  501    0  0.36069431291E+01 -0.14451710064E+02 -0.25613434707E+02  0.30000000000E+02  0.47000000000E+01 0.  1.
         -5    1    1    2    0  501 -0.36069431291E+01  0.14451710064E+02  0.25613434707E+02  0.30000000000E+02  0.47000000000E+01 0. -1.
</event>
<event>
 4    1  0.7643770E-002  0.6000000E+02  0.7546771E-02  0.1259629E+00
         11   -1    0    0    0    0  0.00000000000E+00  0.00000000000E+00  0.30000000000E+02  0.30000000000E+02  0.00000000000E+00 0.  1.
        -11   -1    0    0    0    0 -0.00000000000E+00 -0.00000000000E+00 -0.30000000000E+02  0.30000000000E+02  0.00000000000E+00 0. -1.
          5    1    1    2  501    0  0.10119697555E+02  0.23959318409E+02 -0.14193406313E+02  0.30000000000E+02  0.47000000000E+01 0. -1.
         -5    1    1    2    0  501 -0.10119697555E+02 -0.23959318409E+02  0.14193406313E+02  0.30000000000E+02  0.47000000000E+01 0.  1.
</event>
<event>
 4    1  0.7643770E-002  0.6000000E+02  0.7546771E-02  0.1259629E+00
         11   -1    0    0    0    0  0.00000000000E+00  0.00000000000E+00  0.30000000000E+02  0.30000000000E+02  0.00000000000E+00 0.  1.
        -11   -1    0    0    0    0 -0.00000000000E+00 -0.00000000000E+00 -0.30000000000E+02  0.30000000000E+02  0.00000000000E+00 0. -1.
          5    1    1    2  501    0 -0.24878417786E+02  0.48490269410E+01 -0.15344747185E+02  0.30000000000E+02  0.47000000000E+01 0. -1.
         -5    1    1    2    0  501  0.24878417786E+02 -0.48490269410E+01  0.15344747185E+02  0.30000000000E+02  0.47000000000E+01 0.  1.
</event>
<event>
 4    1  0.7643770E-002  0.6000000E+02  0.7546771E-02  0.1259629E+00
         11   -1    0    0    0    0  0.00000000000E+00  0.00000000000E+00  0.30000000000E+02  0.30000000000E+02  0.00000000000E+00 0.  1.
        -11   -1    0    0    0    0 -0.00000000000E+00 -0.00000000000E+00 -0.30000000000E+02  0.30000000000E+02  0.00000000000E+00 0. -1.
          5    1    1    2  501    0  0.19194928334E+02  0.21360936264E+01 -0.22470020701E+02  0.30000000000E+02  0.47000000000E+01 0. -1.
         -5    1    1    2    0  501 -0.19194928334E+02 -0.21360936264E+01  0.22470020701E+02  0.30000000000E+02  0.47000000000E+01 0.  1.
</event>
<event>
 4    1  0.7643770E-002  0.6000000E+02  0.7546771E-02  0.1259629E+00
         11   -1    0    0    0    0  0.00000000000E+00  0.00000000000E+00  0.30000000000E+02  0.30000000000E+02  0.00000000000E+00 0.  1.
        -11   -1    0    0    0    0 -0.00000000000E+00 -0.00000000000E+00 -0.30000000000E+02  0.30000000000E+02  0.00000000000E+00 0. -1.
          5    1    1    2  501    0 -0.23232017120E+02 -0.98455707539E+01 -0.15532163953E+02  0.30000000000E+02  0.47000000000E+01 0. -1.
         -5    1    1    2    0  501  0.23232017120E+02  0.98455707539E+01  0.15532163953E+02  0.30000000000E+02  0.47000000000E+01 0.  1.
</event>
<event>
 4    1  0.7643770E-002  0.6000000E+02  0.7546771E-02  0.1259629E+00
         11   -1    0    0    0    0  0.00000000000E+00  0.00000000000E+00  0.30000000000E+02  0.30000000000E+02  0.00000000000E+00 0.  1.
        -11   -1    0    0    0    0 -0.00000000000E+00 -0.00000000000E+00 -0.30000000000E+02  0.30000000000E+02  0.00000000000E+00 0. -1.
          5    1    1    2  501    0  0.13466915374E+02  0.25917511244E+02  0.49834527404E+01  0.30000000000E+02  0.47000000000E+01 0. -1.
         -5    1    1    2    0  501 -0.13466915374E+02 -0.25917511244E+02 -0.49834527404E+01  0.30000000000E+02  0.47000000000E+01 0.  1.
</event>
<event>
 4    1  0.7643770E-002  0.6000000E+02  0.7546771E-02  0.1259629E+00
         11   -1    0    0    0    0  0.00000000000E+00  0.00000000000E+00  0.30000000000E+02  0.30000000000E+02  0.00000000000E+00 0.  1.
        -11   -1    0    0    0    0 -0.00000000000E+00 -0.00000000000E+00 -0.30000000000E+02  0.30000000000E+02  0.00000000000E+00 0. -1.
          5    1    1    2  501    0 -0.17522916775E+02  0.19381908011E+02 -0.13971364628E+02  0.30000000000E+02  0.47000000000E+01 0. -1.
         -5    1    1    2    0  501  0.17522916775E+02 -0.19381908011E+02  0.13971364628E+02  0.30000000000E+02  0.47000000000E+01 0.  1.
</event>
<event>
 4    1  0.7643770E-002  0.6000000E+02  0.7546771E-02  0.1259629E+00
         11   -1    0    0    0    0  0.00000000000E+00  0.00000000000E+00  0.30000000000E+02  0.30000000000E+02  0.00000000000E+00 0. -1.
        -11   -1    0    0    0    0 -0.00000000000E+00 -0.00000000000E+00 -0.30000000000E+02  0.30000000000E+02  0.00000000000E+00 0.  1.
          5    1    1    2  501    0 -0.18717645007E+02  0.22334523496E+02 -0.53599277587E+01  0.30000000000E+02  0.47000000000E+01 0.  1.
         -5    1    1    2    0  501  0.18717645007E+02 -0.22334523496E+02  0.53599277587E+01  0.30000000000E+02  0.47000000000E+01 0. -1.
</event>
<event>
 4    1  0.7643770E-002  0.6000000E+02  0.7546771E-02  0.1259629E+00
         11   -1    0    0    0    0  0.00000000000E+00  0.00000000000E+00  0.30000000000E+02  0.30000000000E+02  0.00000000000E+00 0.  1.
        -11   -1    0    0    0    0 -0.00000000000E+00 -0.00000000000E+00 -0.30000000000E+02  0.30000000000E+02  0.00000000000E+00 0. -1.
          5    1    1    2  501    0 -0.16403150503E+02  0.72814142346E+01 -0.23575997547E+02  0.30000000000E+02  0.47000000000E+01 0. -1.
         -5    1    1    2    0  501  0.16403150503E+02 -0.72814142346E+01  0.23575997547E+02  0.30000000000E+02  0.47000000000E+01 0.  1.
</event>
<event>
 4    1  0.7643770E-002  0.6000000E+02  0.7546771E-02  0.1259629E+00
         11   -1    0    0    0    0  0.00000000000E+00  0.00000000000E+00  0.30000000000E+02  0.30000000000E+02  0.00000000000E+00 0. -1.
        -11   -1    0    0    0    0 -0.00000000000E+00 -0.00000000000E+00 -0.30000000000E+02  0.30000000000E+02  0.00000000000E+00 0.  1.
          5    1    1    2  501    0  0.21440271018E+02  0.19879598490E+02 -0.47985771382E+01  0.30000000000E+02  0.47000000000E+01 0.  1.
         -5    1    1    2    0  501 -0.21440271018E+02 -0.19879598490E+02  0.47985771382E+01  0.30000000000E+02  0.47000000000E+01 0. -1.
</event>
<event>
 4    1  0.7643770E-002  0.6000000E+02  0.7546771E-02  0.1259629E+00
         11   -1    0    0    0    0  0.00000000000E+00  0.00000000000E+00  0.30000000000E+02  0.30000000000E+02  0.00000000000E+00 0.  1.
        -11   -1    0    0    0    0 -0.00000000000E+00 -0.00000000000E+00 -0.30000000000E+02  0.30000000000E+02  0.00000000000E+00 0. -1.
          5    1    1    2  501    0  0.16069844193E+02 -0.10797956500E+02 -0.22429316597E+02  0.30000000000E+02  0.47000000000E+01 0. -1.
         -5    1    1    2    0  501 -0.16069844193E+02  0.10797956500E+02  0.22429316597E+02  0.30000000000E+02  0.47000000000E+01 0.  1.
</event>
<event>
 4    1  0.7643770E-002  0.6000000E+02  0.7546771E-02  0.1259629E+00
         11   -1    0    0    0    0  0.00000000000E+00  0.00000000000E+00  0.30000000000E+02  0.30000000000E+02  0.00000000000E+00 0. -1.
        -11   -1    0    0    0    0 -0.00000000000E+00 -0.00000000000E+00 -0.30000000000E+02  0.30000000000E+02  0.00000000000E+00 0.  1.
          5    1    1    2  501    0 -0.11567468571E+02 -0.81513491248E+01 -0.26031887721E+02  0.30000000000E+02  0.47000000000E+01 0.  1.
         -5    1    1    2    0  501  0.11567468571E+02  0.81513491248E+01  0.26031887721E+02  0.30000000000E+02  0.47000000000E+01 0. -1.
</event>
<event>
 4    1  0.7643770E-002  0.6000000E+02  0.7546771E-02  0.1259629E+00
         11   -1    0    0    0    0  0.00000000000E+00  0.00000000000E+00  0.30000000000E+02  0.30000000000E+02  0.00000000000E+00 0.  1.
        -11   -1    0    0    0    0 -0.00000000000E+00 -0.00000000000E+00 -0.30000000000E+02  0.30000000000E+02  0.00000000000E+00 0. -1.
          5    1    1    2  501    0 -0.19395579148E+01  0.26083435900E+02 -0.13921296158E+02  0.30000000000E+02  0.47000000000E+01 0. -1.
         -5    1    1    2    0  501  0.19395579148E+01 -0.26083435900E+02  0.13921296158E+02  0.30000000000E+02  0.47000000000E+01 0.  1.
</event>
<event>
 4    1  0.7643770E-002  0.6000000E+02  0.7546771E-02  0.1259629E+00
         11   -1    0    0    0    0  0.00000000000E+00  0.00000000000E+00  0.30000000000E+02  0.30000000000E+02  0.00000000000E+00 0.  1.
        -11   -1    0    0    0    0 -0.00000000000E+00 -0.00000000000E+00 -0.30000000000E+02  0.30000000000E+02  0.00000000000E+00 0. -1.
          5    1    1    2  501    0 -0.96643362527E+01 -0.73806630066E+01 -0.27019186116E+02  0.30000000000E+02  0.47000000000E+01 0. -1.
         -5    1    1    2    0  501  0.96643362527E+01  0.73806630066E+01  0.27019186116E+02  0.30000000000E+02  0.47000000000E+01 0.  1.
</event>
<event>
 4    1  0.7643770E-002  0.6000000E+02  0.7546771E-02  0.1259629E+00
         11   -1    0    0    0    0  0.00000000000E+00  0.00000000000E+00  0.30000000000E+02  0.30000000000E+02  0.00000000000E+00 0.  1.
        -11   -1    0    0    0    0 -0.00000000000E+00 -0.00000000000E+00 -0.30000000000E+02  0.30000000000E+02  0.00000000000E+00 0. -1.
          5    1    1    2  501    0  0.95932073677E+01  0.44389666065E+00  0.28030043313E+02  0.30000000000E+02  0.47000000000E+01 0.  1.
         -5    1    1    2    0  501 -0.95932073677E+01 -0.44389666065E+00 -0.28030043313E+02  0.30000000000E+02  0.47000000000E+01 0. -1.
</event>
<event>
 4    1  0.7643770E-002  0.6000000E+02  0.7546771E-02  0.1259629E+00
         11   -1    0    0    0    0  0.00000000000E+00  0.00000000000E+00  0.30000000000E+02  0.30000000000E+02  0.00000000000E+00 0.  1.
        -11   -1    0    0    0    0 -0.00000000000E+00 -0.00000000000E+00 -0.30000000000E+02  0.30000000000E+02  0.00000000000E+00 0. -1.
          5    1    1    2  501    0 -0.16327254865E+02  0.36576348380E+01 -0.24453066392E+02  0.30000000000E+02  0.47000000000E+01 0. -1.
         -5    1    1    2    0  501  0.16327254865E+02 -0.36576348380E+01  0.24453066392E+02  0.30000000000E+02  0.47000000000E+01 0.  1.
</event>
<event>
 4    1  0.7643770E-002  0.6000000E+02  0.7546771E-02  0.1259629E+00
         11   -1    0    0    0    0  0.00000000000E+00  0.00000000000E+00  0.30000000000E+02  0.30000000000E+02  0.00000000000E+00 0.  1.
        -11   -1    0    0    0    0 -0.00000000000E+00 -0.00000000000E+00 -0.30000000000E+02  0.30000000000E+02  0.00000000000E+00 0. -1.
          5    1    1    2  501    0 -0.37706386565E+01 -0.97767886865E+01 -0.27714737724E+02  0.30000000000E+02  0.47000000000E+01 0. -1.
         -5    1    1    2    0  501  0.37706386565E+01  0.97767886865E+01  0.27714737724E+02  0.30000000000E+02  0.47000000000E+01 0.  1.
</event>
<event>
 4    1  0.7643770E-002  0.6000000E+02  0.7546771E-02  0.1259629E+00
         11   -1    0    0    0    0  0.00000000000E+00  0.00000000000E+00  0.30000000000E+02  0.30000000000E+02  0.00000000000E+00 0.  1.
        -11   -1    0    0    0    0 -0.00000000000E+00 -0.00000000000E+00 -0.30000000000E+02  0.30000000000E+02  0.00000000000E+00 0. -1.
          5    1    1    2  501    0 -0.66934834487E+01  0.20136357348E+02 -0.20679322815E+02  0.30000000000E+02  0.47000000000E+01 0. -1.
         -5    1    1    2    0  501  0.66934834487E+01 -0.20136357348E+02  0.20679322815E+02  0.30000000000E+02  0.47000000000E+01 0.  1.
</event>
<event>
 4    1  0.7643770E-002  0.6000000E+02  0.7546771E-02  0.1259629E+00
         11   -1    0    0    0    0  0.00000000000E+00  0.00000000000E+00  0.30000000000E+02  0.30000000000E+02  0.00000000000E+00 0.  1.
        -11   -1    0    0    0    0 -0.00000000000E+00 -0.00000000000E+00 -0.30000000000E+02  0.30000000000E+02  0.00000000000E+00 0. -1.
          5    1    1    2  501    0  0.17034301013E+02  0.14602810120E+02 -0.19352016060E+02  0.30000000000E+02  0.47000000000E+01 0. -1.
         -5    1    1    2    0  501 -0.17034301013E+02 -0.14602810120E+02  0.19352016060E+02  0.30000000000E+02  0.47000000000E+01 0.  1.
</event>
<event>
 4    1  0.7643770E-002  0.6000000E+02  0.7546771E-02  0.1259629E+00
         11   -1    0    0    0    0  0.00000000000E+00  0.00000000000E+00  0.30000000000E+02  0.30000000000E+02  0.00000000000E+00 0.  1.
        -11   -1    0    0    0    0 -0.00000000000E+00 -0.00000000000E+00 -0.30000000000E+02  0.30000000000E+02  0.00000000000E+00 0. -1.
          5    1    1    2  501    0  0.13200141296E+02  0.16318696377E+02  0.20913307206E+02  0.30000000000E+02  0.47000000000E+01 0.  1.
         -5    1    1    2    0  501 -0.13200141296E+02 -0.16318696377E+02 -0.20913307206E+02  0.30000000000E+02  0.47000000000E+01 0. -1.
</event>
<event>
 4    1  0.7643770E-002  0.6000000E+02  0.7546771E-02  0.1259629E+00
         11   -1    0    0    0    0  0.00000000000E+00  0.00000000000E+00  0.30000000000E+02  0.30000000000E+02  0.00000000000E+00 0.  1.
        -11   -1    0    0    0    0 -0.00000000000E+00 -0.00000000000E+00 -0.30000000000E+02  0.30000000000E+02  0.00000000000E+00 0. -1.
          5    1    1    2  501    0 -0.72477910251E+01  0.12654070449E+02 -0.25792518806E+02  0.30000000000E+02  0.47000000000E+01 0. -1.
         -5    1    1    2    0  501  0.72477910251E+01 -0.12654070449E+02  0.25792518806E+02  0.30000000000E+02  0.47000000000E+01 0.  1.
</event>
<event>
 4    1  0.7643770E-002  0.6000000E+02  0.7546771E-02  0.1259629E+00
         11   -1    0    0    0    0  0.00000000000E+00  0.00000000000E+00  0.30000000000E+02  0.30000000000E+02  0.00000000000E+00 0.  1.
        -11   -1    0    0    0    0 -0.00000000000E+00 -0.00000000000E+00 -0.30000000000E+02  0.30000000000E+02  0.00000000000E+00 0. -1.
          5    1    1    2  501    0  0.22515919203E+02 -0.16988752505E+02 -0.90733494796E+01  0.30000000000E+02  0.47000000000E+01 0. -1.
         -5    1    1    2    0  501 -0.22515919203E+02  0.16988752505E+02  0.90733494796E+01  0.30000000000E+02  0.47000000000E+01 0. -1.
</event>
<event>
 4    1  0.7643770E-002  0.6000000E+02  0.7546771E-02  0.1259629E+00
         11   -1    0    0    0    0  0.00000000000E+00  0.00000000000E+00  0.30000000000E+02  0.30000000000E+02  0.00000000000E+00 0.  1.
        -11   -1    0    0    0    0 -0.00000000000E+00 -0.00000000000E+00 -0.30000000000E+02  0.30000000000E+02  0.00000000000E+00 0. -1.
          5    1    1    2  501    0  0.16129012800E+02  0.12832404982E+02 -0.21286012508E+02  0.30000000000E+02  0.47000000000E+01 0. -1.
         -5    1    1    2    0  501 -0.16129012800E+02 -0.12832404982E+02  0.21286012508E+02  0.30000000000E+02  0.47000000000E+01 0.  1.
</event>
<event>
 4    1  0.7643770E-002  0.6000000E+02  0.7546771E-02  0.1259629E+00
         11   -1    0    0    0    0  0.00000000000E+00  0.00000000000E+00  0.30000000000E+02  0.30000000000E+02  0.00000000000E+00 0.  1.
        -11   -1    0    0    0    0 -0.00000000000E+00 -0.00000000000E+00 -0.30000000000E+02  0.30000000000E+02  0.00000000000E+00 0. -1.
          5    1    1    2  501    0  0.13261498328E+02  0.19919709216E+02 -0.17471343591E+02  0.30000000000E+02  0.47000000000E+01 0. -1.
         -5    1    1    2    0  501 -0.13261498328E+02 -0.19919709216E+02  0.17471343591E+02  0.30000000000E+02  0.47000000000E+01 0.  1.
</event>
<event>
 4    1  0.7643770E-002  0.6000000E+02  0.7546771E-02  0.1259629E+00
         11   -1    0    0    0    0  0.00000000000E+00  0.00000000000E+00  0.30000000000E+02  0.30000000000E+02  0.00000000000E+00 0.  1.
        -11   -1    0    0    0    0 -0.00000000000E+00 -0.00000000000E+00 -0.30000000000E+02  0.30000000000E+02  0.00000000000E+00 0. -1.
          5    1    1    2  501    0 -0.24571709842E+02 -0.37922773537E+01 -0.16117062632E+02  0.30000000000E+02  0.47000000000E+01 0. -1.
         -5    1    1    2    0  501  0.24571709842E+02  0.37922773537E+01  0.16117062632E+02  0.30000000000E+02  0.47000000000E+01 0.  1.
</event>
<event>
 4    1  0.7643770E-002  0.6000000E+02  0.7546771E-02  0.1259629E+00
         11   -1    0    0    0    0  0.00000000000E+00  0.00000000000E+00  0.30000000000E+02  0.30000000000E+02  0.00000000000E+00 0.  1.
        -11   -1    0    0    0    0 -0.00000000000E+00 -0.00000000000E+00 -0.30000000000E+02  0.30000000000E+02  0.00000000000E+00 0. -1.
          5    1    1    2  501    0 -0.12183099791E+02  0.97019657250E+01 -0.25206228209E+02  0.30000000000E+02  0.47000000000E+01 0. -1.
         -5    1    1    2    0  501  0.12183099791E+02 -0.97019657250E+01  0.25206228209E+02  0.30000000000E+02  0.47000000000E+01 0.  1.
</event>
<event>
 4    1  0.7643770E-002  0.6000000E+02  0.7546771E-02  0.1259629E+00
         11   -1    0    0    0    0  0.00000000000E+00  0.00000000000E+00  0.30000000000E+02  0.30000000000E+02  0.00000000000E+00 0. -1.
        -11   -1    0    0    0    0 -0.00000000000E+00 -0.00000000000E+00 -0.30000000000E+02  0.30000000000E+02  0.00000000000E+00 0.  1.
          5    1    1    2  501    0 -0.25309492152E+02 -0.14944301556E+02  0.37426538717E+01  0.30000000000E+02  0.47000000000E+01 0.  1.
         -5    1    1    2    0  501  0.25309492152E+02  0.14944301556E+02 -0.37426538717E+01  0.30000000000E+02  0.47000000000E+01 0. -1.
</event>
<event>
 4    1  0.7643770E-002  0.6000000E+02  0.7546771E-02  0.1259629E+00
         11   -1    0    0    0    0  0.00000000000E+00  0.00000000000E+00  0.30000000000E+02  0.30000000000E+02  0.00000000000E+00 0.  1.
        -11   -1    0    0    0    0 -0.00000000000E+00 -0.00000000000E+00 -0.30000000000E+02  0.30000000000E+02  0.00000000000E+00 0. -1.
          5    1    1    2  501    0  0.99539519779E+01 -0.18363673325E+02 -0.21014384170E+02  0.30000000000E+02  0.47000000000E+01 0. -1.
         -5    1    1    2    0  501 -0.99539519779E+01  0.18363673325E+02  0.21014384170E+02  0.30000000000E+02  0.47000000000E+01 0.  1.
</event>
<event>
 4    1  0.7643770E-002  0.6000000E+02  0.7546771E-02  0.1259629E+00
         11   -1    0    0    0    0  0.00000000000E+00  0.00000000000E+00  0.30000000000E+02  0.30000000000E+02  0.00000000000E+00 0.  1.
        -11   -1    0    0    0    0 -0.00000000000E+00 -0.00000000000E+00 -0.30000000000E+02  0.30000000000E+02  0.00000000000E+00 0. -1.
          5    1    1    2  501    0 -0.24712954519E+02 -0.16249988278E+02 -0.17657179557E+01  0.30000000000E+02  0.47000000000E+01 0. -1.
         -5    1    1    2    0  501  0.24712954519E+02  0.16249988278E+02  0.17657179557E+01  0.30000000000E+02  0.47000000000E+01 0.  1.
</event>
<event>
 4    1  0.7643770E-002  0.6000000E+02  0.7546771E-02  0.1259629E+00
         11   -1    0    0    0    0  0.00000000000E+00  0.00000000000E+00  0.30000000000E+02  0.30000000000E+02  0.00000000000E+00 0.  1.
        -11   -1    0    0    0    0 -0.00000000000E+00 -0.00000000000E+00 -0.30000000000E+02  0.30000000000E+02  0.00000000000E+00 0. -1.
          5    1    1    2  501    0 -0.20106286945E+02  0.93669773794E+01  0.19644514757E+02  0.30000000000E+02  0.47000000000E+01 0.  1.
         -5    1    1    2    0  501  0.20106286945E+02 -0.93669773794E+01 -0.19644514757E+02  0.30000000000E+02  0.47000000000E+01 0. -1.
</event>
<event>
 4    1  0.7643770E-002  0.6000000E+02  0.7546771E-02  0.1259629E+00
         11   -1    0    0    0    0  0.00000000000E+00  0.00000000000E+00  0.30000000000E+02  0.30000000000E+02  0.00000000000E+00 0.  1.
        -11   -1    0    0    0    0 -0.00000000000E+00 -0.00000000000E+00 -0.30000000000E+02  0.30000000000E+02  0.00000000000E+00 0. -1.
          5    1    1    2  501    0  0.20149114783E+02  0.13489122489E+02 -0.17028410024E+02  0.30000000000E+02  0.47000000000E+01 0. -1.
         -5    1    1    2    0  501 -0.20149114783E+02 -0.13489122489E+02  0.17028410024E+02  0.30000000000E+02  0.47000000000E+01 0.  1.
</event>
<event>
 4    1  0.7643770E-002  0.6000000E+02  0.7546771E-02  0.1259629E+00
         11   -1    0    0    0    0  0.00000000000E+00  0.00000000000E+00  0.30000000000E+02  0.30000000000E+02  0.00000000000E+00 0.  1.
        -11   -1    0    0    0    0 -0.00000000000E+00 -0.00000000000E+00 -0.30000000000E+02  0.30000000000E+02  0.00000000000E+00 0. -1.
          5    1    1    2  501    0 -0.12933582755E+02 -0.18650993602E+02  0.19046597460E+02  0.30000000000E+02  0.47000000000E+01 0.  1.
         -5    1    1    2    0  501  0.12933582755E+02  0.18650993602E+02 -0.19046597460E+02  0.30000000000E+02  0.47000000000E+01 0. -1.
</event>
<event>
 4    1  0.7643770E-002  0.6000000E+02  0.7546771E-02  0.1259629E+00
         11   -1    0    0    0    0  0.00000000000E+00  0.00000000000E+00  0.30000000000E+02  0.30000000000E+02  0.00000000000E+00 0.  1.
        -11   -1    0    0    0    0 -0.00000000000E+00 -0.00000000000E+00 -0.30000000000E+02  0.30000000000E+02  0.00000000000E+00 0. -1.
          5    1    1    2  501    0  0.85351222245E+00 -0.14784464606E+02 -0.25663225113E+02  0.30000000000E+02  0.47000000000E+01 0. -1.
         -5    1    1    2    0  501 -0.85351222245E+00  0.14784464606E+02  0.25663225113E+02  0.30000000000E+02  0.47000000000E+01 0.  1.
</event>
<event>
 4    1  0.7643770E-002  0.6000000E+02  0.7546771E-02  0.1259629E+00
         11   -1    0    0    0    0  0.00000000000E+00  0.00000000000E+00  0.30000000000E+02  0.30000000000E+02  0.00000000000E+00 0.  1.
        -11   -1    0    0    0    0 -0.00000000000E+00 -0.00000000000E+00 -0.30000000000E+02  0.30000000000E+02  0.00000000000E+00 0. -1.
          5    1    1    2  501    0 -0.21999257450E+02  0.47733881484E+00 -0.19842248343E+02  0.30000000000E+02  0.47000000000E+01 0. -1.
         -5    1    1    2    0  501  0.21999257450E+02 -0.47733881484E+00  0.19842248343E+02  0.30000000000E+02  0.47000000000E+01 0.  1.
</event>
<event>
 4    1  0.7643770E-002  0.6000000E+02  0.7546771E-02  0.1259629E+00
         11   -1    0    0    0    0  0.00000000000E+00  0.00000000000E+00  0.30000000000E+02  0.30000000000E+02  0.00000000000E+00 0.  1.
        -11   -1    0    0    0    0 -0.00000000000E+00 -0.00000000000E+00 -0.30000000000E+02  0.30000000000E+02  0.00000000000E+00 0. -1.
          5    1    1    2  501    0 -0.23102928991E+02 -0.16300890128E+02  0.88569550658E+01  0.30000000000E+02  0.47000000000E+01 0. -1.
         -5    1    1    2    0  501  0.23102928991E+02  0.16300890128E+02 -0.88569550658E+01  0.30000000000E+02  0.47000000000E+01 0.  1.
</event>
<event>
 4    1  0.7643770E-002  0.6000000E+02  0.7546771E-02  0.1259629E+00
         11   -1    0    0    0    0  0.00000000000E+00  0.00000000000E+00  0.30000000000E+02  0.30000000000E+02  0.00000000000E+00 0. -1.
        -11   -1    0    0    0    0 -0.00000000000E+00 -0.00000000000E+00 -0.30000000000E+02  0.30000000000E+02  0.00000000000E+00 0.  1.
          5    1    1    2  501    0 -0.18746387613E+02 -0.10589730501E+02 -0.20355357019E+02  0.30000000000E+02  0.47000000000E+01 0.  1.
         -5    1    1    2    0  501  0.18746387613E+02  0.10589730501E+02  0.20355357019E+02  0.30000000000E+02  0.47000000000E+01 0. -1.
</event>
<event>
 4    1  0.7643770E-002  0.6000000E+02  0.7546771E-02  0.1259629E+00
         11   -1    0    0    0    0  0.00000000000E+00  0.00000000000E+00  0.30000000000E+02  0.30000000000E+02  0.00000000000E+00 0.  1.
        -11   -1    0    0    0    0 -0.00000000000E+00 -0.00000000000E+00 -0.30000000000E+02  0.30000000000E+02  0.00000000000E+00 0. -1.
          5    1    1    2  501    0  0.24533229907E+02  0.76630972071E+01 -0.14741355823E+02  0.30000000000E+02  0.47000000000E+01 0. -1.
         -5    1    1    2    0  501 -0.24533229907E+02 -0.76630972071E+01  0.14741355823E+02  0.30000000000E+02  0.47000000000E+01 0.  1.
</event>
<event>
 4    1  0.7643770E-002  0.6000000E+02  0.7546771E-02  0.1259629E+00
         11   -1    0    0    0    0  0.00000000000E+00  0.00000000000E+00  0.30000000000E+02  0.30000000000E+02  0.00000000000E+00 0.  1.
        -11   -1    0    0    0    0 -0.00000000000E+00 -0.00000000000E+00 -0.30000000000E+02  0.30000000000E+02  0.00000000000E+00 0. -1.
          5    1    1    2  501    0  0.71372047301E+01  0.26117695544E+02  0.12034794893E+02  0.30000000000E+02  0.47000000000E+01 0. -1.
         -5    1    1    2    0  501 -0.71372047301E+01 -0.26117695544E+02 -0.12034794893E+02  0.30000000000E+02  0.47000000000E+01 0.  1.
</event>
<event>
 4    1  0.7643770E-002  0.6000000E+02  0.7546771E-02  0.1259629E+00
         11   -1    0    0    0    0  0.00000000000E+00  0.00000000000E+00  0.30000000000E+02  0.30000000000E+02  0.00000000000E+00 0. -1.
        -11   -1    0    0    0    0 -0.00000000000E+00 -0.00000000000E+00 -0.30000000000E+02  0.30000000000E+02  0.00000000000E+00 0.  1.
          5    1    1    2  501    0  0.22506906763E+02 -0.46928804170E+01  0.18690265417E+02  0.30000000000E+02  0.47000000000E+01 0. -1.
         -5    1    1    2    0  501 -0.22506906763E+02  0.46928804170E+01 -0.18690265417E+02  0.30000000000E+02  0.47000000000E+01 0.  1.
</event>
<event>
 4    1  0.7643770E-002  0.6000000E+02  0.7546771E-02  0.1259629E+00
         11   -1    0    0    0    0  0.00000000000E+00  0.00000000000E+00  0.30000000000E+02  0.30000000000E+02  0.00000000000E+00 0.  1.
        -11   -1    0    0    0    0 -0.00000000000E+00 -0.00000000000E+00 -0.30000000000E+02  0.30000000000E+02  0.00000000000E+00 0. -1.
          5    1    1    2  501    0  0.27720537011E+02  0.15115688878E+01  0.10353597795E+02  0.30000000000E+02  0.47000000000E+01 0.  1.
         -5    1    1    2    0  501 -0.27720537011E+02 -0.15115688878E+01 -0.10353597795E+02  0.30000000000E+02  0.47000000000E+01 0. -1.
</event>
<event>
 4    1  0.7643770E-002  0.6000000E+02  0.7546771E-02  0.1259629E+00
         11   -1    0    0    0    0  0.00000000000E+00  0.00000000000E+00  0.30000000000E+02  0.30000000000E+02  0.00000000000E+00 0.  1.
        -11   -1    0    0    0    0 -0.00000000000E+00 -0.00000000000E+00 -0.30000000000E+02  0.30000000000E+02  0.00000000000E+00 0. -1.
          5    1    1    2  501    0  0.23740050243E+02  0.72146069231E+01 -0.16194735608E+02  0.30000000000E+02  0.47000000000E+01 0. -1.
         -5    1    1    2    0  501 -0.23740050243E+02 -0.72146069231E+01  0.16194735608E+02  0.30000000000E+02  0.47000000000E+01 0.  1.
</event>
<event>
 4    1  0.7643770E-002  0.6000000E+02  0.7546771E-02  0.1259629E+00
         11   -1    0    0    0    0  0.00000000000E+00  0.00000000000E+00  0.30000000000E+02  0.30000000000E+02  0.00000000000E+00 0.  1.
        -11   -1    0    0    0    0 -0.00000000000E+00 -0.00000000000E+00 -0.30000000000E+02  0.30000000000E+02  0.00000000000E+00 0. -1.
          5    1    1    2  501    0  0.14011378296E+02  0.26059213204E+02 -0.15838830234E+01  0.30000000000E+02  0.47000000000E+01 0. -1.
         -5    1    1    2    0  501 -0.14011378296E+02 -0.26059213204E+02  0.15838830234E+01  0.30000000000E+02  0.47000000000E+01 0. -1.
</event>
<event>
 4    1  0.7643770E-002  0.6000000E+02  0.7546771E-02  0.1259629E+00
         11   -1    0    0    0    0  0.00000000000E+00  0.00000000000E+00  0.30000000000E+02  0.30000000000E+02  0.00000000000E+00 0. -1.
        -11   -1    0    0    0    0 -0.00000000000E+00 -0.00000000000E+00 -0.30000000000E+02  0.30000000000E+02  0.00000000000E+00 0.  1.
          5    1    1    2  501    0  0.16211688814E+02  0.22297501493E+02 -0.10858755590E+02  0.30000000000E+02  0.47000000000E+01 0.  1.
         -5    1    1    2    0  501 -0.16211688814E+02 -0.22297501493E+02  0.10858755590E+02  0.30000000000E+02  0.47000000000E+01 0. -1.
</event>
<event>
 4    1  0.7643770E-002  0.6000000E+02  0.7546771E-02  0.1259629E+00
         11   -1    0    0    0    0  0.00000000000E+00  0.00000000000E+00  0.30000000000E+02  0.30000000000E+02  0.00000000000E+00 0.  1.
        -11   -1    0    0    0    0 -0.00000000000E+00 -0.00000000000E+00 -0.30000000000E+02  0.30000000000E+02  0.00000000000E+00 0. -1.
          5    1    1    2  501    0  0.34404309400E+01  0.21771390611E+02 -0.19801009716E+02  0.30000000000E+02  0.47000000000E+01 0. -1.
         -5    1    1    2    0  501 -0.34404309400E+01 -0.21771390611E+02  0.19801009716E+02  0.30000000000E+02  0.47000000000E+01 0.  1.
</event>
<event>
 4    1  0.7643770E-002  0.6000000E+02  0.7546771E-02  0.1259629E+00
         11   -1    0    0    0    0  0.00000000000E+00  0.00000000000E+00  0.30000000000E+02  0.30000000000E+02  0.00000000000E+00 0.  1.
        -11   -1    0    0    0    0 -0.00000000000E+00 -0.00000000000E+00 -0.30000000000E+02  0.30000000000E+02  0.00000000000E+00 0. -1.
          5    1    1    2  501    0 -0.43322937968E+00  0.24888861859E+02 -0.16070683485E+02  0.30000000000E+02  0.47000000000E+01 0. -1.
         -5    1    1    2    0  501  0.43322937968E+00 -0.24888861859E+02  0.16070683485E+02  0.30000000000E+02  0.47000000000E+01 0.  1.
</event>
<event>
 4    1  0.7643770E-002  0.6000000E+02  0.7546771E-02  0.1259629E+00
         11   -1    0    0    0    0  0.00000000000E+00  0.00000000000E+00  0.30000000000E+02  0.30000000000E+02  0.00000000000E+00 0. -1.
        -11   -1    0    0    0    0 -0.00000000000E+00 -0.00000000000E+00 -0.30000000000E+02  0.30000000000E+02  0.00000000000E+00 0.  1.
          5    1    1    2  501    0 -0.79236754061E+01 -0.23889075453E+02 -0.15634495261E+02  0.30000000000E+02  0.47000000000E+01 0.  1.
         -5    1    1    2    0  501  0.79236754061E+01  0.23889075453E+02  0.15634495261E+02  0.30000000000E+02  0.47000000000E+01 0. -1.
</event>
<event>
 4    1  0.7643770E-002  0.6000000E+02  0.7546771E-02  0.1259629E+00
         11   -1    0    0    0    0  0.00000000000E+00  0.00000000000E+00  0.30000000000E+02  0.30000000000E+02  0.00000000000E+00 0.  1.
        -11   -1    0    0    0    0 -0.00000000000E+00 -0.00000000000E+00 -0.30000000000E+02  0.30000000000E+02  0.00000000000E+00 0. -1.
          5    1    1    2  501    0  0.25707955809E+02  0.95216985645E+01  0.11240474393E+02  0.30000000000E+02  0.47000000000E+01 0. -1.
         -5    1    1    2    0  501 -0.25707955809E+02 -0.95216985645E+01 -0.11240474393E+02  0.30000000000E+02  0.47000000000E+01 0.  1.
</event>
<event>
 4    1  0.7643770E-002  0.6000000E+02  0.7546771E-02  0.1259629E+00
         11   -1    0    0    0    0  0.00000000000E+00  0.00000000000E+00  0.30000000000E+02  0.30000000000E+02  0.00000000000E+00 0.  1.
        -11   -1    0    0    0    0 -0.00000000000E+00 -0.00000000000E+00 -0.30000000000E+02  0.30000000000E+02  0.00000000000E+00 0. -1.
          5    1    1    2  501    0 -0.29540922417E+02  0.20304043062E+01  0.10589433795E+01  0.30000000000E+02  0.47000000000E+01 0. -1.
         -5    1    1    2    0  501  0.29540922417E+02 -0.20304043062E+01 -0.10589433795E+01  0.30000000000E+02  0.47000000000E+01 0.  1.
</event>
<event>
 4    1  0.7643770E-002  0.6000000E+02  0.7546771E-02  0.1259629E+00
         11   -1    0    0    0    0  0.00000000000E+00  0.00000000000E+00  0.30000000000E+02  0.30000000000E+02  0.00000000000E+00 0.  1.
        -11   -1    0    0    0    0 -0.00000000000E+00 -0.00000000000E+00 -0.30000000000E+02  0.30000000000E+02  0.00000000000E+00 0. -1.
          5    1    1    2  501    0 -0.26171740985E+02  0.13574903748E+02 -0.29448195228E+01  0.30000000000E+02  0.47000000000E+01 0. -1.
         -5    1    1    2    0  501  0.26171740985E+02 -0.13574903748E+02  0.29448195228E+01  0.30000000000E+02  0.47000000000E+01 0.  1.
</event>
<event>
 4    1  0.7643770E-002  0.6000000E+02  0.7546771E-02  0.1259629E+00
         11   -1    0    0    0    0  0.00000000000E+00  0.00000000000E+00  0.30000000000E+02  0.30000000000E+02  0.00000000000E+00 0.  1.
        -11   -1    0    0    0    0 -0.00000000000E+00 -0.00000000000E+00 -0.30000000000E+02  0.30000000000E+02  0.00000000000E+00 0. -1.
          5    1    1    2  501    0  0.24733030731E+02 -0.80123265175E+01  0.14212312079E+02  0.30000000000E+02  0.47000000000E+01 0.  1.
         -5    1    1    2    0  501 -0.24733030731E+02  0.80123265175E+01 -0.14212312079E+02  0.30000000000E+02  0.47000000000E+01 0. -1.
</event>
<event>
 4    1  0.7643770E-002  0.6000000E+02  0.7546771E-02  0.1259629E+00
         11   -1    0    0    0    0  0.00000000000E+00  0.00000000000E+00  0.30000000000E+02  0.30000000000E+02  0.00000000000E+00 0.  1.
        -11   -1    0    0    0    0 -0.00000000000E+00 -0.00000000000E+00 -0.30000000000E+02  0.30000000000E+02  0.00000000000E+00 0. -1.
          5    1    1    2  501    0  0.20569843815E+02  0.10923948188E+02 -0.18315536613E+02  0.30000000000E+02  0.47000000000E+01 0. -1.
         -5    1    1    2    0  501 -0.20569843815E+02 -0.10923948188E+02  0.18315536613E+02  0.30000000000E+02  0.47000000000E+01 0.  1.
</event>
<event>
 4    1  0.7643770E-002  0.6000000E+02  0.7546771E-02  0.1259629E+00
         11   -1    0    0    0    0  0.00000000000E+00  0.00000000000E+00  0.30000000000E+02  0.30000000000E+02  0.00000000000E+00 0.  1.
        -11   -1    0    0    0    0 -0.00000000000E+00 -0.00000000000E+00 -0.30000000000E+02  0.30000000000E+02  0.00000000000E+00 0. -1.
          5    1    1    2  501    0  0.13117269208E+02  0.97574511224E+01 -0.24711118876E+02  0.30000000000E+02  0.47000000000E+01 0. -1.
         -5    1    1    2    0  501 -0.13117269208E+02 -0.97574511224E+01  0.24711118876E+02  0.30000000000E+02  0.47000000000E+01 0.  1.
</event>
<event>
 4    1  0.7643770E-002  0.6000000E+02  0.7546771E-02  0.1259629E+00
         11   -1    0    0    0    0  0.00000000000E+00  0.00000000000E+00  0.30000000000E+02  0.30000000000E+02  0.00000000000E+00 0. -1.
        -11   -1    0    0    0    0 -0.00000000000E+00 -0.00000000000E+00 -0.30000000000E+02  0.30000000000E+02  0.00000000000E+00 0.  1.
          5    1    1    2  501    0 -0.25332212788E+02 -0.11413237463E+02  0.10292084623E+02  0.30000000000E+02  0.47000000000E+01 0. -1.
         -5    1    1    2    0  501  0.25332212788E+02  0.11413237463E+02 -0.10292084623E+02  0.30000000000E+02  0.47000000000E+01 0.  1.
</event>
<event>
 4    1  0.7643770E-002  0.6000000E+02  0.7546771E-02  0.1259629E+00
         11   -1    0    0    0    0  0.00000000000E+00  0.00000000000E+00  0.30000000000E+02  0.30000000000E+02  0.00000000000E+00 0. -1.
        -11   -1    0    0    0    0 -0.00000000000E+00 -0.00000000000E+00 -0.30000000000E+02  0.30000000000E+02  0.00000000000E+00 0.  1.
          5    1    1    2  501    0  0.30071104820E+01  0.19451384172E+02 -0.22147481580E+02  0.30000000000E+02  0.47000000000E+01 0.  1.
         -5    1    1    2    0  501 -0.30071104820E+01 -0.19451384172E+02  0.22147481580E+02  0.30000000000E+02  0.47000000000E+01 0. -1.
</event>
<event>
 4    1  0.7643770E-002  0.6000000E+02  0.7546771E-02  0.1259629E+00
         11   -1    0    0    0    0  0.00000000000E+00  0.00000000000E+00  0.30000000000E+02  0.30000000000E+02  0.00000000000E+00 0.  1.
        -11   -1    0    0    0    0 -0.00000000000E+00 -0.00000000000E+00 -0.30000000000E+02  0.30000000000E+02  0.00000000000E+00 0. -1.
          5    1    1    2  501    0  0.13891889920E+02 -0.11085178522E+02 -0.23707471640E+02  0.30000000000E+02  0.47000000000E+01 0. -1.
         -5    1    1    2    0  501 -0.13891889920E+02  0.11085178522E+02  0.23707471640E+02  0.30000000000E+02  0.47000000000E+01 0.  1.
</event>
<event>
 4    1  0.7643770E-002  0.6000000E+02  0.7546771E-02  0.1259629E+00
         11   -1    0    0    0    0  0.00000000000E+00  0.00000000000E+00  0.30000000000E+02  0.30000000000E+02  0.00000000000E+00 0.  1.
        -11   -1    0    0    0    0 -0.00000000000E+00 -0.00000000000E+00 -0.30000000000E+02  0.30000000000E+02  0.00000000000E+00 0. -1.
          5    1    1    2  501    0 -0.47429007330E+01  0.25860445903E+02 -0.13662072696E+02  0.30000000000E+02  0.47000000000E+01 0. -1.
         -5    1    1    2    0  501  0.47429007330E+01 -0.25860445903E+02  0.13662072696E+02  0.30000000000E+02  0.47000000000E+01 0.  1.
</event>
<event>
 4    1  0.7643770E-002  0.6000000E+02  0.7546771E-02  0.1259629E+00
         11   -1    0    0    0    0  0.00000000000E+00  0.00000000000E+00  0.30000000000E+02  0.30000000000E+02  0.00000000000E+00 0.  1.
        -11   -1    0    0    0    0 -0.00000000000E+00 -0.00000000000E+00 -0.30000000000E+02  0.30000000000E+02  0.00000000000E+00 0. -1.
          5    1    1    2  501    0 -0.87565725603E+01  0.26836255053E+02 -0.90026580381E+01  0.30000000000E+02  0.47000000000E+01 0. -1.
         -5    1    1    2    0  501  0.87565725603E+01 -0.26836255053E+02  0.90026580381E+01  0.30000000000E+02  0.47000000000E+01 0.  1.
</event>
<event>
 4    1  0.7643770E-002  0.6000000E+02  0.7546771E-02  0.1259629E+00
         11   -1    0    0    0    0  0.00000000000E+00  0.00000000000E+00  0.30000000000E+02  0.30000000000E+02  0.00000000000E+00 0.  1.
        -11   -1    0    0    0    0 -0.00000000000E+00 -0.00000000000E+00 -0.30000000000E+02  0.30000000000E+02  0.00000000000E+00 0. -1.
          5    1    1    2  501    0  0.16855320054E+02  0.94228020382E+01 -0.22472627520E+02  0.30000000000E+02  0.47000000000E+01 0. -1.
         -5    1    1    2    0  501 -0.16855320054E+02 -0.94228020382E+01  0.22472627520E+02  0.30000000000E+02  0.47000000000E+01 0.  1.
</event>
<event>
 4    1  0.7643770E-002  0.6000000E+02  0.7546771E-02  0.1259629E+00
         11   -1    0    0    0    0  0.00000000000E+00  0.00000000000E+00  0.30000000000E+02  0.30000000000E+02  0.00000000000E+00 0.  1.
        -11   -1    0    0    0    0 -0.00000000000E+00 -0.00000000000E+00 -0.30000000000E+02  0.30000000000E+02  0.00000000000E+00 0. -1.
          5    1    1    2  501    0 -0.19995269008E+02  0.17068544697E+02  0.13666162564E+02  0.30000000000E+02  0.47000000000E+01 0. -1.
         -5    1    1    2    0  501  0.19995269008E+02 -0.17068544697E+02 -0.13666162564E+02  0.30000000000E+02  0.47000000000E+01 0.  1.
</event>
<event>
 4    1  0.7643770E-002  0.6000000E+02  0.7546771E-02  0.1259629E+00
         11   -1    0    0    0    0  0.00000000000E+00  0.00000000000E+00  0.30000000000E+02  0.30000000000E+02  0.00000000000E+00 0.  1.
        -11   -1    0    0    0    0 -0.00000000000E+00 -0.00000000000E+00 -0.30000000000E+02  0.30000000000E+02  0.00000000000E+00 0. -1.
          5    1    1    2  501    0  0.11351331679E+02  0.22674465204E+02 -0.15327292547E+02  0.30000000000E+02  0.47000000000E+01 0. -1.
         -5    1    1    2    0  501 -0.11351331679E+02 -0.22674465204E+02  0.15327292547E+02  0.30000000000E+02  0.47000000000E+01 0.  1.
</event>
<event>
 4    1  0.7643770E-002  0.6000000E+02  0.7546771E-02  0.1259629E+00
         11   -1    0    0    0    0  0.00000000000E+00  0.00000000000E+00  0.30000000000E+02  0.30000000000E+02  0.00000000000E+00 0. -1.
        -11   -1    0    0    0    0 -0.00000000000E+00 -0.00000000000E+00 -0.30000000000E+02  0.30000000000E+02  0.00000000000E+00 0.  1.
          5    1    1    2  501    0  0.12867117900E+02  0.24152580466E+02 -0.11357822580E+02  0.30000000000E+02  0.47000000000E+01 0.  1.
         -5    1    1    2    0  501 -0.12867117900E+02 -0.24152580466E+02  0.11357822580E+02  0.30000000000E+02  0.47000000000E+01 0. -1.
</event>
<event>
 4    1  0.7643770E-002  0.6000000E+02  0.7546771E-02  0.1259629E+00
         11   -1    0    0    0    0  0.00000000000E+00  0.00000000000E+00  0.30000000000E+02  0.30000000000E+02  0.00000000000E+00 0.  1.
        -11   -1    0    0    0    0 -0.00000000000E+00 -0.00000000000E+00 -0.30000000000E+02  0.30000000000E+02  0.00000000000E+00 0. -1.
          5    1    1    2  501    0 -0.19094073409E+02  0.16776171069E+02 -0.15227818128E+02  0.30000000000E+02  0.47000000000E+01 0. -1.
         -5    1    1    2    0  501  0.19094073409E+02 -0.16776171069E+02  0.15227818128E+02  0.30000000000E+02  0.47000000000E+01 0.  1.
</event>
<event>
 4    1  0.7643770E-002  0.6000000E+02  0.7546771E-02  0.1259629E+00
         11   -1    0    0    0    0  0.00000000000E+00  0.00000000000E+00  0.30000000000E+02  0.30000000000E+02  0.00000000000E+00 0.  1.
        -11   -1    0    0    0    0 -0.00000000000E+00 -0.00000000000E+00 -0.30000000000E+02  0.30000000000E+02  0.00000000000E+00 0. -1.
          5    1    1    2  501    0  0.92658078508E+01  0.18242003620E+02 -0.21430914792E+02  0.30000000000E+02  0.47000000000E+01 0. -1.
         -5    1    1    2    0  501 -0.92658078508E+01 -0.18242003620E+02  0.21430914792E+02  0.30000000000E+02  0.47000000000E+01 0.  1.
</event>
<event>
 4    1  0.7643770E-002  0.6000000E+02  0.7546771E-02  0.1259629E+00
         11   -1    0    0    0    0  0.00000000000E+00  0.00000000000E+00  0.30000000000E+02  0.30000000000E+02  0.00000000000E+00 0.  1.
        -11   -1    0    0    0    0 -0.00000000000E+00 -0.00000000000E+00 -0.30000000000E+02  0.30000000000E+02  0.00000000000E+00 0. -1.
          5    1    1    2  501    0 -0.16256586642E+02 -0.22382295764E+02 -0.10614434845E+02  0.30000000000E+02  0.47000000000E+01 0. -1.
         -5    1    1    2    0  501  0.16256586642E+02  0.22382295764E+02  0.10614434845E+02  0.30000000000E+02  0.47000000000E+01 0.  1.
</event>
<event>
 4    1  0.7643770E-002  0.6000000E+02  0.7546771E-02  0.1259629E+00
         11   -1    0    0    0    0  0.00000000000E+00  0.00000000000E+00  0.30000000000E+02  0.30000000000E+02  0.00000000000E+00 0.  1.
        -11   -1    0    0    0    0 -0.00000000000E+00 -0.00000000000E+00 -0.30000000000E+02  0.30000000000E+02  0.00000000000E+00 0. -1.
          5    1    1    2  501    0 -0.10355964611E+02  0.27470522662E+02 -0.40042954030E+01  0.30000000000E+02  0.47000000000E+01 0. -1.
         -5    1    1    2    0  501  0.10355964611E+02 -0.27470522662E+02  0.40042954030E+01  0.30000000000E+02  0.47000000000E+01 0.  1.
</event>
<event>
 4    1  0.7643770E-002  0.6000000E+02  0.7546771E-02  0.1259629E+00
         11   -1    0    0    0    0  0.00000000000E+00  0.00000000000E+00  0.30000000000E+02  0.30000000000E+02  0.00000000000E+00 0. -1.
        -11   -1    0    0    0    0 -0.00000000000E+00 -0.00000000000E+00 -0.30000000000E+02  0.30000000000E+02  0.00000000000E+00 0.  1.
          5    1    1    2  501    0  0.23935949104E+02 -0.17410165661E+02  0.13661889074E+01  0.30000000000E+02  0.47000000000E+01 0.  1.
         -5    1    1    2    0  501 -0.23935949104E+02  0.17410165661E+02 -0.13661889074E+01  0.30000000000E+02  0.47000000000E+01 0. -1.
</event>
<event>
 4    1  0.7643770E-002  0.6000000E+02  0.7546771E-02  0.1259629E+00
         11   -1    0    0    0    0  0.00000000000E+00  0.00000000000E+00  0.30000000000E+02  0.30000000000E+02  0.00000000000E+00 0. -1.
        -11   -1    0    0    0    0 -0.00000000000E+00 -0.00000000000E+00 -0.30000000000E+02  0.30000000000E+02  0.00000000000E+00 0.  1.
          5    1    1    2  501    0  0.22112122821E+02  0.60503194955E+01 -0.18771192247E+02  0.30000000000E+02  0.47000000000E+01 0.  1.
         -5    1    1    2    0  501 -0.22112122821E+02 -0.60503194955E+01  0.18771192247E+02  0.30000000000E+02  0.47000000000E+01 0. -1.
</event>
<event>
 4    1  0.7643770E-002  0.6000000E+02  0.7546771E-02  0.1259629E+00
         11   -1    0    0    0    0  0.00000000000E+00  0.00000000000E+00  0.30000000000E+02  0.30000000000E+02  0.00000000000E+00 0.  1.
        -11   -1    0    0    0    0 -0.00000000000E+00 -0.00000000000E+00 -0.30000000000E+02  0.30000000000E+02  0.00000000000E+00 0. -1.
          5    1    1    2  501    0 -0.10583506866E+02  0.86186444412E+01 -0.26298637805E+02  0.30000000000E+02  0.47000000000E+01 0. -1.
         -5    1    1    2    0  501  0.10583506866E+02 -0.86186444412E+01  0.26298637805E+02  0.30000000000E+02  0.47000000000E+01 0.  1.
</event>
<event>
 4    1  0.7643770E-002  0.6000000E+02  0.7546771E-02  0.1259629E+00
         11   -1    0    0    0    0  0.00000000000E+00  0.00000000000E+00  0.30000000000E+02  0.30000000000E+02  0.00000000000E+00 0. -1.
        -11   -1    0    0    0    0 -0.00000000000E+00 -0.00000000000E+00 -0.30000000000E+02  0.30000000000E+02  0.00000000000E+00 0.  1.
          5    1    1    2  501    0 -0.29005320332E+02 -0.59101457216E+01 -0.12928921030E+01  0.30000000000E+02  0.47000000000E+01 0.  1.
         -5    1    1    2    0  501  0.29005320332E+02  0.59101457216E+01  0.12928921030E+01  0.30000000000E+02  0.47000000000E+01 0. -1.
</event>
<event>
 4    1  0.7643770E-002  0.6000000E+02  0.7546771E-02  0.1259629E+00
         11   -1    0    0    0    0  0.00000000000E+00  0.00000000000E+00  0.30000000000E+02  0.30000000000E+02  0.00000000000E+00 0.  1.
        -11   -1    0    0    0    0 -0.00000000000E+00 -0.00000000000E+00 -0.30000000000E+02  0.30000000000E+02  0.00000000000E+00 0. -1.
          5    1    1    2  501    0  0.23197169070E+02 -0.13492235883E+02  0.12560291319E+02  0.30000000000E+02  0.47000000000E+01 0.  1.
         -5    1    1    2    0  501 -0.23197169070E+02  0.13492235883E+02 -0.12560291319E+02  0.30000000000E+02  0.47000000000E+01 0. -1.
</event>
<event>
 4    1  0.7643770E-002  0.6000000E+02  0.7546771E-02  0.1259629E+00
         11   -1    0    0    0    0  0.00000000000E+00  0.00000000000E+00  0.30000000000E+02  0.30000000000E+02  0.00000000000E+00 0.  1.
        -11   -1    0    0    0    0 -0.00000000000E+00 -0.00000000000E+00 -0.30000000000E+02  0.30000000000E+02  0.00000000000E+00 0. -1.
          5    1    1    2  501    0 -0.15293957993E+02  0.47597527299E+01 -0.24926885142E+02  0.30000000000E+02  0.47000000000E+01 0. -1.
         -5    1    1    2    0  501  0.15293957993E+02 -0.47597527299E+01  0.24926885142E+02  0.30000000000E+02  0.47000000000E+01 0.  1.
</event>
<event>
 4    1  0.7643770E-002  0.6000000E+02  0.7546771E-02  0.1259629E+00
         11   -1    0    0    0    0  0.00000000000E+00  0.00000000000E+00  0.30000000000E+02  0.30000000000E+02  0.00000000000E+00 0. -1.
        -11   -1    0    0    0    0 -0.00000000000E+00 -0.00000000000E+00 -0.30000000000E+02  0.30000000000E+02  0.00000000000E+00 0.  1.
          5    1    1    2  501    0  0.12463424306E+02 -0.14304233357E+02 -0.22758777706E+02  0.30000000000E+02  0.47000000000E+01 0.  1.
         -5    1    1    2    0  501 -0.12463424306E+02  0.14304233357E+02  0.22758777706E+02  0.30000000000E+02  0.47000000000E+01 0. -1.
</event>
<event>
 4    1  0.7643770E-002  0.6000000E+02  0.7546771E-02  0.1259629E+00
         11   -1    0    0    0    0  0.00000000000E+00  0.00000000000E+00  0.30000000000E+02  0.30000000000E+02  0.00000000000E+00 0.  1.
        -11   -1    0    0    0    0 -0.00000000000E+00 -0.00000000000E+00 -0.30000000000E+02  0.30000000000E+02  0.00000000000E+00 0. -1.
          5    1    1    2  501    0  0.14257013411E+02  0.12346714664E+02 -0.22851831559E+02  0.30000000000E+02  0.47000000000E+01 0. -1.
         -5    1    1    2    0  501 -0.14257013411E+02 -0.12346714664E+02  0.22851831559E+02  0.30000000000E+02  0.47000000000E+01 0.  1.
</event>
<event>
 4    1  0.7643770E-002  0.6000000E+02  0.7546771E-02  0.1259629E+00
         11   -1    0    0    0    0  0.00000000000E+00  0.00000000000E+00  0.30000000000E+02  0.30000000000E+02  0.00000000000E+00 0. -1.
        -11   -1    0    0    0    0 -0.00000000000E+00 -0.00000000000E+00 -0.30000000000E+02  0.30000000000E+02  0.00000000000E+00 0.  1.
          5    1    1    2  501    0 -0.82376048979E+01  0.25203596388E+02  0.13222352086E+02  0.30000000000E+02  0.47000000000E+01 0. -1.
         -5    1    1    2    0  501  0.82376048979E+01 -0.25203596388E+02 -0.13222352086E+02  0.30000000000E+02  0.47000000000E+01 0.  1.
</event>
<event>
 4    1  0.7643770E-002  0.6000000E+02  0.7546771E-02  0.1259629E+00
         11   -1    0    0    0    0  0.00000000000E+00  0.00000000000E+00  0.30000000000E+02  0.30000000000E+02  0.00000000000E+00 0.  1.
        -11   -1    0    0    0    0 -0.00000000000E+00 -0.00000000000E+00 -0.30000000000E+02  0.30000000000E+02  0.00000000000E+00 0. -1.
          5    1    1    2  501    0 -0.13848149957E+02 -0.89589380477E+01  0.24614552034E+02  0.30000000000E+02  0.47000000000E+01 0.  1.
         -5    1    1    2    0  501  0.13848149957E+02  0.89589380477E+01 -0.24614552034E+02  0.30000000000E+02  0.47000000000E+01 0. -1.
</event>
<event>
 4    1  0.7643770E-002  0.6000000E+02  0.7546771E-02  0.1259629E+00
         11   -1    0    0    0    0  0.00000000000E+00  0.00000000000E+00  0.30000000000E+02  0.30000000000E+02  0.00000000000E+00 0.  1.
        -11   -1    0    0    0    0 -0.00000000000E+00 -0.00000000000E+00 -0.30000000000E+02  0.30000000000E+02  0.00000000000E+00 0. -1.
          5    1    1    2  501    0  0.26477023876E+02  0.11783796522E+02  0.61659829855E+01  0.30000000000E+02  0.47000000000E+01 0. -1.
         -5    1    1    2    0  501 -0.26477023876E+02 -0.11783796522E+02 -0.61659829855E+01  0.30000000000E+02  0.47000000000E+01 0.  1.
</event>
<event>
 4    1  0.7643770E-002  0.6000000E+02  0.7546771E-02  0.1259629E+00
         11   -1    0    0    0    0  0.00000000000E+00  0.00000000000E+00  0.30000000000E+02  0.30000000000E+02  0.00000000000E+00 0.  1.
        -11   -1    0    0    0    0 -0.00000000000E+00 -0.00000000000E+00 -0.30000000000E+02  0.30000000000E+02  0.00000000000E+00 0. -1.
          5    1    1    2  501    0  0.75356049927E+01 -0.28509590029E+02 -0.28858159665E+01  0.30000000000E+02  0.47000000000E+01 0. -1.
         -5    1    1    2    0  501 -0.75356049927E+01  0.28509590029E+02  0.28858159665E+01  0.30000000000E+02  0.47000000000E+01 0.  1.
</event>
<event>
 4    1  0.7643770E-002  0.6000000E+02  0.7546771E-02  0.1259629E+00
         11   -1    0    0    0    0  0.00000000000E+00  0.00000000000E+00  0.30000000000E+02  0.30000000000E+02  0.00000000000E+00 0.  1.
        -11   -1    0    0    0    0 -0.00000000000E+00 -0.00000000000E+00 -0.30000000000E+02  0.30000000000E+02  0.00000000000E+00 0. -1.
          5    1    1    2  501    0  0.10872115867E+02  0.19804599607E+02 -0.19169896478E+02  0.30000000000E+02  0.47000000000E+01 0. -1.
         -5    1    1    2    0  501 -0.10872115867E+02 -0.19804599607E+02  0.19169896478E+02  0.30000000000E+02  0.47000000000E+01 0.  1.
</event>
<event>
 4    1  0.7643770E-002  0.6000000E+02  0.7546771E-02  0.1259629E+00
         11   -1    0    0    0    0  0.00000000000E+00  0.00000000000E+00  0.30000000000E+02  0.30000000000E+02  0.00000000000E+00 0.  1.
        -11   -1    0    0    0    0 -0.00000000000E+00 -0.00000000000E+00 -0.30000000000E+02  0.30000000000E+02  0.00000000000E+00 0. -1.
          5    1    1    2  501    0  0.10548026703E+02  0.42715413144E+01 -0.27356956473E+02  0.30000000000E+02  0.47000000000E+01 0. -1.
         -5    1    1    2    0  501 -0.10548026703E+02 -0.42715413144E+01  0.27356956473E+02  0.30000000000E+02  0.47000000000E+01 0.  1.
</event>
<event>
 4    1  0.7643770E-002  0.6000000E+02  0.7546771E-02  0.1259629E+00
         11   -1    0    0    0    0  0.00000000000E+00  0.00000000000E+00  0.30000000000E+02  0.30000000000E+02  0.00000000000E+00 0.  1.
        -11   -1    0    0    0    0 -0.00000000000E+00 -0.00000000000E+00 -0.30000000000E+02  0.30000000000E+02  0.00000000000E+00 0. -1.
          5    1    1    2  501    0  0.25912955648E+02 -0.14333312838E+02 -0.99240751286E+00  0.30000000000E+02  0.47000000000E+01 0. -1.
         -5    1    1    2    0  501 -0.25912955648E+02  0.14333312838E+02  0.99240751286E+00  0.30000000000E+02  0.47000000000E+01 0.  1.
</event>
<event>
 4    1  0.7643770E-002  0.6000000E+02  0.7546771E-02  0.1259629E+00
         11   -1    0    0    0    0  0.00000000000E+00  0.00000000000E+00  0.30000000000E+02  0.30000000000E+02  0.00000000000E+00 0. -1.
        -11   -1    0    0    0    0 -0.00000000000E+00 -0.00000000000E+00 -0.30000000000E+02  0.30000000000E+02  0.00000000000E+00 0.  1.
          5    1    1    2  501    0  0.65719920931E+01  0.19216556349E+02  0.21574125289E+02  0.30000000000E+02  0.47000000000E+01 0. -1.
         -5    1    1    2    0  501 -0.65719920931E+01 -0.19216556349E+02 -0.21574125289E+02  0.30000000000E+02  0.47000000000E+01 0.  1.
</event>
<event>
 4    1  0.7643770E-002  0.6000000E+02  0.7546771E-02  0.1259629E+00
         11   -1    0    0    0    0  0.00000000000E+00  0.00000000000E+00  0.30000000000E+02  0.30000000000E+02  0.00000000000E+00 0.  1.
        -11   -1    0    0    0    0 -0.00000000000E+00 -0.00000000000E+00 -0.30000000000E+02  0.30000000000E+02  0.00000000000E+00 0. -1.
          5    1    1    2  501    0 -0.30831501925E+01  0.21788317873E+02 -0.19841204328E+02  0.30000000000E+02  0.47000000000E+01 0. -1.
         -5    1    1    2    0  501  0.30831501925E+01 -0.21788317873E+02  0.19841204328E+02  0.30000000000E+02  0.47000000000E+01 0.  1.
</event>
<event>
 4    1  0.7643770E-002  0.6000000E+02  0.7546771E-02  0.1259629E+00
         11   -1    0    0    0    0  0.00000000000E+00  0.00000000000E+00  0.30000000000E+02  0.30000000000E+02  0.00000000000E+00 0.  1.
        -11   -1    0    0    0    0 -0.00000000000E+00 -0.00000000000E+00 -0.30000000000E+02  0.30000000000E+02  0.00000000000E+00 0. -1.
          5    1    1    2  501    0  0.10484225606E+02 -0.22233439992E+02 -0.16542828041E+02  0.30000000000E+02  0.47000000000E+01 0. -1.
         -5    1    1    2    0  501 -0.10484225606E+02  0.22233439992E+02  0.16542828041E+02  0.30000000000E+02  0.47000000000E+01 0.  1.
</event>
<event>
 4    1  0.7643770E-002  0.6000000E+02  0.7546771E-02  0.1259629E+00
         11   -1    0    0    0    0  0.00000000000E+00  0.00000000000E+00  0.30000000000E+02  0.30000000000E+02  0.00000000000E+00 0.  1.
        -11   -1    0    0    0    0 -0.00000000000E+00 -0.00000000000E+00 -0.30000000000E+02  0.30000000000E+02  0.00000000000E+00 0. -1.
          5    1    1    2  501    0  0.19705896612E+02  0.61474147604E+01 -0.21255515295E+02  0.30000000000E+02  0.47000000000E+01 0. -1.
         -5    1    1    2    0  501 -0.19705896612E+02 -0.61474147604E+01  0.21255515295E+02  0.30000000000E+02  0.47000000000E+01 0.  1.
</event>
<event>
 4    1  0.7643770E-002  0.6000000E+02  0.7546771E-02  0.1259629E+00
         11   -1    0    0    0    0  0.00000000000E+00  0.00000000000E+00  0.30000000000E+02  0.30000000000E+02  0.00000000000E+00 0. -1.
        -11   -1    0    0    0    0 -0.00000000000E+00 -0.00000000000E+00 -0.30000000000E+02  0.30000000000E+02  0.00000000000E+00 0.  1.
          5    1    1    2  501    0 -0.18435017706E+02  0.14771329881E+02 -0.17884852130E+02  0.30000000000E+02  0.47000000000E+01 0.  1.
         -5    1    1    2    0  501  0.18435017706E+02 -0.14771329881E+02  0.17884852130E+02  0.30000000000E+02  0.47000000000E+01 0. -1.
</event>
<event>
 4    1  0.7643770E-002  0.6000000E+02  0.7546771E-02  0.1259629E+00
         11   -1    0    0    0    0  0.00000000000E+00  0.00000000000E+00  0.30000000000E+02  0.30000000000E+02  0.00000000000E+00 0.  1.
        -11   -1    0    0    0    0 -0.00000000000E+00 -0.00000000000E+00 -0.30000000000E+02  0.30000000000E+02  0.00000000000E+00 0. -1.
          5    1    1    2  501    0 -0.48849799475E+01  0.34966731238E+01 -0.29014138760E+02  0.30000000000E+02  0.47000000000E+01 0. -1.
         -5    1    1    2    0  501  0.48849799475E+01 -0.34966731238E+01  0.29014138760E+02  0.30000000000E+02  0.47000000000E+01 0.  1.
</event>
<event>
 4    1  0.7643770E-002  0.6000000E+02  0.7546771E-02  0.1259629E+00
         11   -1    0    0    0    0  0.00000000000E+00  0.00000000000E+00  0.30000000000E+02  0.30000000000E+02  0.00000000000E+00 0.  1.
        -11   -1    0    0    0    0 -0.00000000000E+00 -0.00000000000E+00 -0.30000000000E+02  0.30000000000E+02  0.00000000000E+00 0. -1.
          5    1    1    2  501    0  0.26803695059E+02 -0.10176962969E+02  0.74767209324E+01  0.30000000000E+02  0.47000000000E+01 0. -1.
         -5    1    1    2    0  501 -0.26803695059E+02  0.10176962969E+02 -0.74767209324E+01  0.30000000000E+02  0.47000000000E+01 0.  1.
</event>
<event>
 4    1  0.7643770E-002  0.6000000E+02  0.7546771E-02  0.1259629E+00
         11   -1    0    0    0    0  0.00000000000E+00  0.00000000000E+00  0.30000000000E+02  0.30000000000E+02  0.00000000000E+00 0. -1.
        -11   -1    0    0    0    0 -0.00000000000E+00 -0.00000000000E+00 -0.30000000000E+02  0.30000000000E+02  0.00000000000E+00 0.  1.
          5    1    1    2  501    0  0.16475769711E+02  0.20091108662E+02  0.14241009977E+02  0.30000000000E+02  0.47000000000E+01 0. -1.
         -5    1    1    2    0  501 -0.16475769711E+02 -0.20091108662E+02 -0.14241009977E+02  0.30000000000E+02  0.47000000000E+01 0.  1.
</event>
<event>
 4    1  0.7643770E-002  0.6000000E+02  0.7546771E-02  0.1259629E+00
         11   -1    0    0    0    0  0.00000000000E+00  0.00000000000E+00  0.30000000000E+02  0.30000000000E+02  0.00000000000E+00 0.  1.
        -11   -1    0    0    0    0 -0.00000000000E+00 -0.00000000000E+00 -0.30000000000E+02  0.30000000000E+02  0.00000000000E+00 0. -1.
          5    1    1    2  501    0 -0.21346080521E+02 -0.20302536161E+02  0.31720453719E+01  0.30000000000E+02  0.47000000000E+01 0. -1.
         -5    1    1    2    0  501  0.21346080521E+02  0.20302536161E+02 -0.31720453719E+01  0.30000000000E+02  0.47000000000E+01 0.  1.
</event>
<event>
 4    1  0.7643770E-002  0.6000000E+02  0.7546771E-02  0.1259629E+00
         11   -1    0    0    0    0  0.00000000000E+00  0.00000000000E+00  0.30000000000E+02  0.30000000000E+02  0.00000000000E+00 0. -1.
        -11   -1    0    0    0    0 -0.00000000000E+00 -0.00000000000E+00 -0.30000000000E+02  0.30000000000E+02  0.00000000000E+00 0.  1.
          5    1    1    2  501    0  0.16964234171E+02  0.23688956240E+02 -0.53812741276E+01  0.30000000000E+02  0.47000000000E+01 0.  1.
         -5    1    1    2    0  501 -0.16964234171E+02 -0.23688956240E+02  0.53812741276E+01  0.30000000000E+02  0.47000000000E+01 0. -1.
</event>
<event>
 4    1  0.7643770E-002  0.6000000E+02  0.7546771E-02  0.1259629E+00
         11   -1    0    0    0    0  0.00000000000E+00  0.00000000000E+00  0.30000000000E+02  0.30000000000E+02  0.00000000000E+00 0.  1.
        -11   -1    0    0    0    0 -0.00000000000E+00 -0.00000000000E+00 -0.30000000000E+02  0.30000000000E+02  0.00000000000E+00 0. -1.
          5    1    1    2  501    0 -0.76979831801E+01  0.24312877159E+01 -0.28508593354E+02  0.30000000000E+02  0.47000000000E+01 0. -1.
         -5    1    1    2    0  501  0.76979831801E+01 -0.24312877159E+01  0.28508593354E+02  0.30000000000E+02  0.47000000000E+01 0.  1.
</event>
<event>
 4    1  0.7643770E-002  0.6000000E+02  0.7546771E-02  0.1259629E+00
         11   -1    0    0    0    0  0.00000000000E+00  0.00000000000E+00  0.30000000000E+02  0.30000000000E+02  0.00000000000E+00 0. -1.
        -11   -1    0    0    0    0 -0.00000000000E+00 -0.00000000000E+00 -0.30000000000E+02  0.30000000000E+02  0.00000000000E+00 0.  1.
          5    1    1    2  501    0  0.29018305874E+02  0.29276269716E+01 -0.52227315189E+01  0.30000000000E+02  0.47000000000E+01 0.  1.
         -5    1    1    2    0  501 -0.29018305874E+02 -0.29276269716E+01  0.52227315189E+01  0.30000000000E+02  0.47000000000E+01 0. -1.
</event>
<event>
 4    1  0.7643770E-002  0.6000000E+02  0.7546771E-02  0.1259629E+00
         11   -1    0    0    0    0  0.00000000000E+00  0.00000000000E+00  0.30000000000E+02  0.30000000000E+02  0.00000000000E+00 0.  1.
        -11   -1    0    0    0    0 -0.00000000000E+00 -0.00000000000E+00 -0.30000000000E+02  0.30000000000E+02  0.00000000000E+00 0. -1.
          5    1    1    2  501    0  0.28816779740E+02  0.64518781093E+01 -0.24241440254E+01  0.30000000000E+02  0.47000000000E+01 0. -1.
         -5    1    1    2    0  501 -0.28816779740E+02 -0.64518781093E+01  0.24241440254E+01  0.30000000000E+02  0.47000000000E+01 0.  1.
</event>
<event>
 4    1  0.7643770E-002  0.6000000E+02  0.7546771E-02  0.1259629E+00
         11   -1    0    0    0    0  0.00000000000E+00  0.00000000000E+00  0.30000000000E+02  0.30000000000E+02  0.00000000000E+00 0. -1.
        -11   -1    0    0    0    0 -0.00000000000E+00 -0.00000000000E+00 -0.30000000000E+02  0.30000000000E+02  0.00000000000E+00 0.  1.
          5    1    1    2  501    0  0.92795313764E+01 -0.52468646321E+01 -0.27645446442E+02  0.30000000000E+02  0.47000000000E+01 0.  1.
         -5    1    1    2    0  501 -0.92795313764E+01  0.52468646321E+01  0.27645446442E+02  0.30000000000E+02  0.47000000000E+01 0. -1.
</event>
<event>
 4    1  0.7643770E-002  0.6000000E+02  0.7546771E-02  0.1259629E+00
         11   -1    0    0    0    0  0.00000000000E+00  0.00000000000E+00  0.30000000000E+02  0.30000000000E+02  0.00000000000E+00 0.  1.
        -11   -1    0    0    0    0 -0.00000000000E+00 -0.00000000000E+00 -0.30000000000E+02  0.30000000000E+02  0.00000000000E+00 0. -1.
          5    1    1    2  501    0  0.21603246294E+02  0.15151467289E+02  0.13477491924E+02  0.30000000000E+02  0.47000000000E+01 0. -1.
         -5    1    1    2    0  501 -0.21603246294E+02 -0.15151467289E+02 -0.13477491924E+02  0.30000000000E+02  0.47000000000E+01 0.  1.
</event>
<event>
 4    1  0.7643770E-002  0.6000000E+02  0.7546771E-02  0.1259629E+00
         11   -1    0    0    0    0  0.00000000000E+00  0.00000000000E+00  0.30000000000E+02  0.30000000000E+02  0.00000000000E+00 0.  1.
        -11   -1    0    0    0    0 -0.00000000000E+00 -0.00000000000E+00 -0.30000000000E+02  0.30000000000E+02  0.00000000000E+00 0. -1.
          5    1    1    2  501    0 -0.29896471281E+01 -0.17309266490E+02 -0.23861293000E+02  0.30000000000E+02  0.47000000000E+01 0. -1.
         -5    1    1    2    0  501  0.29896471281E+01  0.17309266490E+02  0.23861293000E+02  0.30000000000E+02  0.47000000000E+01 0.  1.
</event>
<event>
 4    1  0.7643770E-002  0.6000000E+02  0.7546771E-02  0.1259629E+00
         11   -1    0    0    0    0  0.00000000000E+00  0.00000000000E+00  0.30000000000E+02  0.30000000000E+02  0.00000000000E+00 0.  1.
        -11   -1    0    0    0    0 -0.00000000000E+00 -0.00000000000E+00 -0.30000000000E+02  0.30000000000E+02  0.00000000000E+00 0. -1.
          5    1    1    2  501    0 -0.82087199104E+01  0.97137394106E+01 -0.26761356171E+02  0.30000000000E+02  0.47000000000E+01 0. -1.
         -5    1    1    2    0  501  0.82087199104E+01 -0.97137394106E+01  0.26761356171E+02  0.30000000000E+02  0.47000000000E+01 0.  1.
</event>
<event>
 4    1  0.7643770E-002  0.6000000E+02  0.7546771E-02  0.1259629E+00
         11   -1    0    0    0    0  0.00000000000E+00  0.00000000000E+00  0.30000000000E+02  0.30000000000E+02  0.00000000000E+00 0.  1.
        -11   -1    0    0    0    0 -0.00000000000E+00 -0.00000000000E+00 -0.30000000000E+02  0.30000000000E+02  0.00000000000E+00 0. -1.
          5    1    1    2  501    0 -0.19665061177E+01  0.17692878437E+02 -0.23685542137E+02  0.30000000000E+02  0.47000000000E+01 0. -1.
         -5    1    1    2    0  501  0.19665061177E+01 -0.17692878437E+02  0.23685542137E+02  0.30000000000E+02  0.47000000000E+01 0.  1.
</event>
<event>
 4    1  0.7643770E-002  0.6000000E+02  0.7546771E-02  0.1259629E+00
         11   -1    0    0    0    0  0.00000000000E+00  0.00000000000E+00  0.30000000000E+02  0.30000000000E+02  0.00000000000E+00 0.  1.
        -11   -1    0    0    0    0 -0.00000000000E+00 -0.00000000000E+00 -0.30000000000E+02  0.30000000000E+02  0.00000000000E+00 0. -1.
          5    1    1    2  501    0  0.13211273687E+02 -0.14037940420E+02 -0.22501299437E+02  0.30000000000E+02  0.47000000000E+01 0. -1.
         -5    1    1    2    0  501 -0.13211273687E+02  0.14037940420E+02  0.22501299437E+02  0.30000000000E+02  0.47000000000E+01 0.  1.
</event>
<event>
 4    1  0.7643770E-002  0.6000000E+02  0.7546771E-02  0.1259629E+00
         11   -1    0    0    0    0  0.00000000000E+00  0.00000000000E+00  0.30000000000E+02  0.30000000000E+02  0.00000000000E+00 0.  1.
        -11   -1    0    0    0    0 -0.00000000000E+00 -0.00000000000E+00 -0.30000000000E+02  0.30000000000E+02  0.00000000000E+00 0. -1.
          5    1    1    2  501    0 -0.32670402807E+01 -0.51199865354E+00 -0.29444427405E+02  0.30000000000E+02  0.47000000000E+01 0. -1.
         -5    1    1    2    0  501  0.32670402807E+01  0.51199865354E+00  0.29444427405E+02  0.30000000000E+02  0.47000000000E+01 0.  1.
</event>
<event>
 4    1  0.7643770E-002  0.6000000E+02  0.7546771E-02  0.1259629E+00
         11   -1    0    0    0    0  0.00000000000E+00  0.00000000000E+00  0.30000000000E+02  0.30000000000E+02  0.00000000000E+00 0.  1.
        -11   -1    0    0    0    0 -0.00000000000E+00 -0.00000000000E+00 -0.30000000000E+02  0.30000000000E+02  0.00000000000E+00 0. -1.
          5    1    1    2  501    0  0.40486616127E+01 -0.27516491408E+02  0.10215725121E+02  0.30000000000E+02  0.47000000000E+01 0.  1.
         -5    1    1    2    0  501 -0.40486616127E+01  0.27516491408E+02 -0.10215725121E+02  0.30000000000E+02  0.47000000000E+01 0. -1.
</event>
<event>
 4    1  0.7643770E-002  0.6000000E+02  0.7546771E-02  0.1259629E+00
         11   -1    0    0    0    0  0.00000000000E+00  0.00000000000E+00  0.30000000000E+02  0.30000000000E+02  0.00000000000E+00 0. -1.
        -11   -1    0    0    0    0 -0.00000000000E+00 -0.00000000000E+00 -0.30000000000E+02  0.30000000000E+02  0.00000000000E+00 0.  1.
          5    1    1    2  501    0  0.17912960825E+02  0.47012991348E+01  0.23128632059E+02  0.30000000000E+02  0.47000000000E+01 0. -1.
         -5    1    1    2    0  501 -0.17912960825E+02 -0.47012991348E+01 -0.23128632059E+02  0.30000000000E+02  0.47000000000E+01 0.  1.
</event>
<event>
 4    1  0.7643770E-002  0.6000000E+02  0.7546771E-02  0.1259629E+00
         11   -1    0    0    0    0  0.00000000000E+00  0.00000000000E+00  0.30000000000E+02  0.30000000000E+02  0.00000000000E+00 0. -1.
        -11   -1    0    0    0    0 -0.00000000000E+00 -0.00000000000E+00 -0.30000000000E+02  0.30000000000E+02  0.00000000000E+00 0.  1.
          5    1    1    2  501    0 -0.15151009406E+02  0.11188817930E+02 -0.22872850004E+02  0.30000000000E+02  0.47000000000E+01 0.  1.
         -5    1    1    2    0  501  0.15151009406E+02 -0.11188817930E+02  0.22872850004E+02  0.30000000000E+02  0.47000000000E+01 0. -1.
</event>
<event>
 4    1  0.7643770E-002  0.6000000E+02  0.7546771E-02  0.1259629E+00
         11   -1    0    0    0    0  0.00000000000E+00  0.00000000000E+00  0.30000000000E+02  0.30000000000E+02  0.00000000000E+00 0. -1.
        -11   -1    0    0    0    0 -0.00000000000E+00 -0.00000000000E+00 -0.30000000000E+02  0.30000000000E+02  0.00000000000E+00 0.  1.
          5    1    1    2  501    0  0.10743942381E+02  0.21340403259E+02  0.17523267128E+02  0.30000000000E+02  0.47000000000E+01 0. -1.
         -5    1    1    2    0  501 -0.10743942381E+02 -0.21340403259E+02 -0.17523267128E+02  0.30000000000E+02  0.47000000000E+01 0.  1.
</event>
<event>
 4    1  0.7643770E-002  0.6000000E+02  0.7546771E-02  0.1259629E+00
         11   -1    0    0    0    0  0.00000000000E+00  0.00000000000E+00  0.30000000000E+02  0.30000000000E+02  0.00000000000E+00 0.  1.
        -11   -1    0    0    0    0 -0.00000000000E+00 -0.00000000000E+00 -0.30000000000E+02  0.30000000000E+02  0.00000000000E+00 0. -1.
          5    1    1    2  501    0  0.24247874602E+02 -0.17024149891E+02 -0.35902337781E+00  0.30000000000E+02  0.47000000000E+01 0. -1.
         -5    1    1    2    0  501 -0.24247874602E+02  0.17024149891E+02  0.35902337781E+00  0.30000000000E+02  0.47000000000E+01 0.  1.
</event>
<event>
 4    1  0.7643770E-002  0.6000000E+02  0.7546771E-02  0.1259629E+00
         11   -1    0    0    0    0  0.00000000000E+00  0.00000000000E+00  0.30000000000E+02  0.30000000000E+02  0.00000000000E+00 0. -1.
        -11   -1    0    0    0    0 -0.00000000000E+00 -0.00000000000E+00 -0.30000000000E+02  0.30000000000E+02  0.00000000000E+00 0.  1.
          5    1    1    2  501    0  0.20222731647E+02  0.20283255241E+02 -0.75855574325E+01  0.30000000000E+02  0.47000000000E+01 0.  1.
         -5    1    1    2    0  501 -0.20222731647E+02 -0.20283255241E+02  0.75855574325E+01  0.30000000000E+02  0.47000000000E+01 0. -1.
</event>
<event>
 4    1  0.7643770E-002  0.6000000E+02  0.7546771E-02  0.1259629E+00
         11   -1    0    0    0    0  0.00000000000E+00  0.00000000000E+00  0.30000000000E+02  0.30000000000E+02  0.00000000000E+00 0. -1.
        -11   -1    0    0    0    0 -0.00000000000E+00 -0.00000000000E+00 -0.30000000000E+02  0.30000000000E+02  0.00000000000E+00 0.  1.
          5    1    1    2  501    0 -0.22284800155E+02  0.18465307228E+02 -0.63505992671E+01  0.30000000000E+02  0.47000000000E+01 0.  1.
         -5    1    1    2    0  501  0.22284800155E+02 -0.18465307228E+02  0.63505992671E+01  0.30000000000E+02  0.47000000000E+01 0. -1.
</event>
<event>
 4    1  0.7643770E-002  0.6000000E+02  0.7546771E-02  0.1259629E+00
         11   -1    0    0    0    0  0.00000000000E+00  0.00000000000E+00  0.30000000000E+02  0.30000000000E+02  0.00000000000E+00 0.  1.
        -11   -1    0    0    0    0 -0.00000000000E+00 -0.00000000000E+00 -0.30000000000E+02  0.30000000000E+02  0.00000000000E+00 0. -1.
          5    1    1    2  501    0 -0.15846009907E+02 -0.78914536380E+01 -0.23760027978E+02  0.30000000000E+02  0.47000000000E+01 0. -1.
         -5    1    1    2    0  501  0.15846009907E+02  0.78914536380E+01  0.23760027978E+02  0.30000000000E+02  0.47000000000E+01 0.  1.
</event>
<event>
 4    1  0.7643770E-002  0.6000000E+02  0.7546771E-02  0.1259629E+00
         11   -1    0    0    0    0  0.00000000000E+00  0.00000000000E+00  0.30000000000E+02  0.30000000000E+02  0.00000000000E+00 0.  1.
        -11   -1    0    0    0    0 -0.00000000000E+00 -0.00000000000E+00 -0.30000000000E+02  0.30000000000E+02  0.00000000000E+00 0. -1.
          5    1    1    2  501    0  0.24144454744E+02  0.73495014410E+01 -0.15522246412E+02  0.30000000000E+02  0.47000000000E+01 0. -1.
         -5    1    1    2    0  501 -0.24144454744E+02 -0.73495014410E+01  0.15522246412E+02  0.30000000000E+02  0.47000000000E+01 0.  1.
</event>
<event>
 4    1  0.7643770E-002  0.6000000E+02  0.7546771E-02  0.1259629E+00
         11   -1    0    0    0    0  0.00000000000E+00  0.00000000000E+00  0.30000000000E+02  0.30000000000E+02  0.00000000000E+00 0.  1.
        -11   -1    0    0    0    0 -0.00000000000E+00 -0.00000000000E+00 -0.30000000000E+02  0.30000000000E+02  0.00000000000E+00 0. -1.
          5    1    1    2  501    0 -0.95993399975E+00 -0.10764602285E+02 -0.27588255914E+02  0.30000000000E+02  0.47000000000E+01 0. -1.
         -5    1    1    2    0  501  0.95993399975E+00  0.10764602285E+02  0.27588255914E+02  0.30000000000E+02  0.47000000000E+01 0.  1.
</event>
<event>
 4    1  0.7643770E-002  0.6000000E+02  0.7546771E-02  0.1259629E+00
         11   -1    0    0    0    0  0.00000000000E+00  0.00000000000E+00  0.30000000000E+02  0.30000000000E+02  0.00000000000E+00 0.  1.
        -11   -1    0    0    0    0 -0.00000000000E+00 -0.00000000000E+00 -0.30000000000E+02  0.30000000000E+02  0.00000000000E+00 0. -1.
          5    1    1    2  501    0  0.50682245648E+01 -0.11220997861E+02 -0.26950181943E+02  0.30000000000E+02  0.47000000000E+01 0. -1.
         -5    1    1    2    0  501 -0.50682245648E+01  0.11220997861E+02  0.26950181943E+02  0.30000000000E+02  0.47000000000E+01 0.  1.
</event>
<event>
 4    1  0.7643770E-002  0.6000000E+02  0.7546771E-02  0.1259629E+00
         11   -1    0    0    0    0  0.00000000000E+00  0.00000000000E+00  0.30000000000E+02  0.30000000000E+02  0.00000000000E+00 0.  1.
        -11   -1    0    0    0    0 -0.00000000000E+00 -0.00000000000E+00 -0.30000000000E+02  0.30000000000E+02  0.00000000000E+00 0. -1.
          5    1    1    2  501    0  0.14333745350E+02 -0.17683209022E+02  0.18967284015E+02  0.30000000000E+02  0.47000000000E+01 0. -1.
         -5    1    1    2    0  501 -0.14333745350E+02  0.17683209022E+02 -0.18967284015E+02  0.30000000000E+02  0.47000000000E+01 0.  1.
</event>
<event>
 4    1  0.7643770E-002  0.6000000E+02  0.7546771E-02  0.1259629E+00
         11   -1    0    0    0    0  0.00000000000E+00  0.00000000000E+00  0.30000000000E+02  0.30000000000E+02  0.00000000000E+00 0.  1.
        -11   -1    0    0    0    0 -0.00000000000E+00 -0.00000000000E+00 -0.30000000000E+02  0.30000000000E+02  0.00000000000E+00 0. -1.
          5    1    1    2  501    0 -0.67689552413E+01 -0.18435907023E+02 -0.22185774208E+02  0.30000000000E+02  0.47000000000E+01 0. -1.
         -5    1    1    2    0  501  0.67689552413E+01  0.18435907023E+02  0.22185774208E+02  0.30000000000E+02  0.47000000000E+01 0.  1.
</event>
<event>
 4    1  0.7643770E-002  0.6000000E+02  0.7546771E-02  0.1259629E+00
         11   -1    0    0    0    0  0.00000000000E+00  0.00000000000E+00  0.30000000000E+02  0.30000000000E+02  0.00000000000E+00 0.  1.
        -11   -1    0    0    0    0 -0.00000000000E+00 -0.00000000000E+00 -0.30000000000E+02  0.30000000000E+02  0.00000000000E+00 0. -1.
          5    1    1    2  501    0  0.17069400804E+02 -0.93820498224E+01 -0.22327621847E+02  0.30000000000E+02  0.47000000000E+01 0. -1.
         -5    1    1    2    0  501 -0.17069400804E+02  0.93820498224E+01  0.22327621847E+02  0.30000000000E+02  0.47000000000E+01 0.  1.
</event>
<event>
 4    1  0.7643770E-002  0.6000000E+02  0.7546771E-02  0.1259629E+00
         11   -1    0    0    0    0  0.00000000000E+00  0.00000000000E+00  0.30000000000E+02  0.30000000000E+02  0.00000000000E+00 0.  1.
        -11   -1    0    0    0    0 -0.00000000000E+00 -0.00000000000E+00 -0.30000000000E+02  0.30000000000E+02  0.00000000000E+00 0. -1.
          5    1    1    2  501    0 -0.14140126943E+02 -0.18933273210E+02 -0.17874506304E+02  0.30000000000E+02  0.47000000000E+01 0. -1.
         -5    1    1    2    0  501  0.14140126943E+02  0.18933273210E+02  0.17874506304E+02  0.30000000000E+02  0.47000000000E+01 0.  1.
</event>
<event>
 4    1  0.7643770E-002  0.6000000E+02  0.7546771E-02  0.1259629E+00
         11   -1    0    0    0    0  0.00000000000E+00  0.00000000000E+00  0.30000000000E+02  0.30000000000E+02  0.00000000000E+00 0.  1.
        -11   -1    0    0    0    0 -0.00000000000E+00 -0.00000000000E+00 -0.30000000000E+02  0.30000000000E+02  0.00000000000E+00 0. -1.
          5    1    1    2  501    0 -0.59634313032E+01  0.18944496187E+02 -0.21987577204E+02  0.30000000000E+02  0.47000000000E+01 0. -1.
         -5    1    1    2    0  501  0.59634313032E+01 -0.18944496187E+02  0.21987577204E+02  0.30000000000E+02  0.47000000000E+01 0.  1.
</event>
<event>
 4    1  0.7643770E-002  0.6000000E+02  0.7546771E-02  0.1259629E+00
         11   -1    0    0    0    0  0.00000000000E+00  0.00000000000E+00  0.30000000000E+02  0.30000000000E+02  0.00000000000E+00 0.  1.
        -11   -1    0    0    0    0 -0.00000000000E+00 -0.00000000000E+00 -0.30000000000E+02  0.30000000000E+02  0.00000000000E+00 0. -1.
          5    1    1    2  501    0 -0.19072153953E+02 -0.10944956477E+02 -0.19858773157E+02  0.30000000000E+02  0.47000000000E+01 0. -1.
         -5    1    1    2    0  501  0.19072153953E+02  0.10944956477E+02  0.19858773157E+02  0.30000000000E+02  0.47000000000E+01 0. -1.
</event>
<event>
 4    1  0.7643770E-002  0.6000000E+02  0.7546771E-02  0.1259629E+00
         11   -1    0    0    0    0  0.00000000000E+00  0.00000000000E+00  0.30000000000E+02  0.30000000000E+02  0.00000000000E+00 0. -1.
        -11   -1    0    0    0    0 -0.00000000000E+00 -0.00000000000E+00 -0.30000000000E+02  0.30000000000E+02  0.00000000000E+00 0.  1.
          5    1    1    2  501    0 -0.10262125840E+02 -0.19813153369E+01 -0.27724955596E+02  0.30000000000E+02  0.47000000000E+01 0.  1.
         -5    1    1    2    0  501  0.10262125840E+02  0.19813153369E+01  0.27724955596E+02  0.30000000000E+02  0.47000000000E+01 0. -1.
</event>
<event>
 4    1  0.7643770E-002  0.6000000E+02  0.7546771E-02  0.1259629E+00
         11   -1    0    0    0    0  0.00000000000E+00  0.00000000000E+00  0.30000000000E+02  0.30000000000E+02  0.00000000000E+00 0.  1.
        -11   -1    0    0    0    0 -0.00000000000E+00 -0.00000000000E+00 -0.30000000000E+02  0.30000000000E+02  0.00000000000E+00 0. -1.
          5    1    1    2  501    0  0.57142647683E+01  0.95440482981E+01 -0.27462125195E+02  0.30000000000E+02  0.47000000000E+01 0. -1.
         -5    1    1    2    0  501 -0.57142647683E+01 -0.95440482981E+01  0.27462125195E+02  0.30000000000E+02  0.47000000000E+01 0.  1.
</event>
<event>
 4    1  0.7643770E-002  0.6000000E+02  0.7546771E-02  0.1259629E+00
         11   -1    0    0    0    0  0.00000000000E+00  0.00000000000E+00  0.30000000000E+02  0.30000000000E+02  0.00000000000E+00 0.  1.
        -11   -1    0    0    0    0 -0.00000000000E+00 -0.00000000000E+00 -0.30000000000E+02  0.30000000000E+02  0.00000000000E+00 0. -1.
          5    1    1    2  501    0 -0.86627169857E+01 -0.72238668955E+01 -0.27398596342E+02  0.30000000000E+02  0.47000000000E+01 0. -1.
         -5    1    1    2    0  501  0.86627169857E+01  0.72238668955E+01  0.27398596342E+02  0.30000000000E+02  0.47000000000E+01 0.  1.
</event>
<event>
 4    1  0.7643770E-002  0.6000000E+02  0.7546771E-02  0.1259629E+00
         11   -1    0    0    0    0  0.00000000000E+00  0.00000000000E+00  0.30000000000E+02  0.30000000000E+02  0.00000000000E+00 0.  1.
        -11   -1    0    0    0    0 -0.00000000000E+00 -0.00000000000E+00 -0.30000000000E+02  0.30000000000E+02  0.00000000000E+00 0. -1.
          5    1    1    2  501    0 -0.75553105945E+01  0.14527166692E+02 -0.24693900253E+02  0.30000000000E+02  0.47000000000E+01 0. -1.
         -5    1    1    2    0  501  0.75553105945E+01 -0.14527166692E+02  0.24693900253E+02  0.30000000000E+02  0.47000000000E+01 0.  1.
</event>
<event>
 4    1  0.7643770E-002  0.6000000E+02  0.7546771E-02  0.1259629E+00
         11   -1    0    0    0    0  0.00000000000E+00  0.00000000000E+00  0.30000000000E+02  0.30000000000E+02  0.00000000000E+00 0. -1.
        -11   -1    0    0    0    0 -0.00000000000E+00 -0.00000000000E+00 -0.30000000000E+02  0.30000000000E+02  0.00000000000E+00 0.  1.
          5    1    1    2  501    0  0.12187759966E+02  0.24953878423E+02 -0.10328235991E+02  0.30000000000E+02  0.47000000000E+01 0.  1.
         -5    1    1    2    0  501 -0.12187759966E+02 -0.24953878423E+02  0.10328235991E+02  0.30000000000E+02  0.47000000000E+01 0. -1.
</event>
<event>
 4    1  0.7643770E-002  0.6000000E+02  0.7546771E-02  0.1259629E+00
         11   -1    0    0    0    0  0.00000000000E+00  0.00000000000E+00  0.30000000000E+02  0.30000000000E+02  0.00000000000E+00 0.  1.
        -11   -1    0    0    0    0 -0.00000000000E+00 -0.00000000000E+00 -0.30000000000E+02  0.30000000000E+02  0.00000000000E+00 0. -1.
          5    1    1    2  501    0  0.99673924011E+01 -0.11515247320E+02 -0.25415746455E+02  0.30000000000E+02  0.47000000000E+01 0. -1.
         -5    1    1    2    0  501 -0.99673924011E+01  0.11515247320E+02  0.25415746455E+02  0.30000000000E+02  0.47000000000E+01 0.  1.
</event>
<event>
 4    1  0.7643770E-002  0.6000000E+02  0.7546771E-02  0.1259629E+00
         11   -1    0    0    0    0  0.00000000000E+00  0.00000000000E+00  0.30000000000E+02  0.30000000000E+02  0.00000000000E+00 0.  1.
        -11   -1    0    0    0    0 -0.00000000000E+00 -0.00000000000E+00 -0.30000000000E+02  0.30000000000E+02  0.00000000000E+00 0. -1.
          5    1    1    2  501    0 -0.27030242598E+02 -0.11878847384E+02  0.24837411153E+01  0.30000000000E+02  0.47000000000E+01 0. -1.
         -5    1    1    2    0  501  0.27030242598E+02  0.11878847384E+02 -0.24837411153E+01  0.30000000000E+02  0.47000000000E+01 0.  1.
</event>
<event>
 4    1  0.7643770E-002  0.6000000E+02  0.7546771E-02  0.1259629E+00
         11   -1    0    0    0    0  0.00000000000E+00  0.00000000000E+00  0.30000000000E+02  0.30000000000E+02  0.00000000000E+00 0. -1.
        -11   -1    0    0    0    0 -0.00000000000E+00 -0.00000000000E+00 -0.30000000000E+02  0.30000000000E+02  0.00000000000E+00 0.  1.
          5    1    1    2  501    0  0.89795704701E+01 -0.91194451026E+01 -0.26722893466E+02  0.30000000000E+02  0.47000000000E+01 0.  1.
         -5    1    1    2    0  501 -0.89795704701E+01  0.91194451026E+01  0.26722893466E+02  0.30000000000E+02  0.47000000000E+01 0. -1.
</event>
<event>
 4    1  0.7643770E-002  0.6000000E+02  0.7546771E-02  0.1259629E+00
         11   -1    0    0    0    0  0.00000000000E+00  0.00000000000E+00  0.30000000000E+02  0.30000000000E+02  0.00000000000E+00 0.  1.
        -11   -1    0    0    0    0 -0.00000000000E+00 -0.00000000000E+00 -0.30000000000E+02  0.30000000000E+02  0.00000000000E+00 0. -1.
          5    1    1    2  501    0  0.15612549518E+02 -0.45383262119E+01 -0.24770181524E+02  0.30000000000E+02  0.47000000000E+01 0. -1.
         -5    1    1    2    0  501 -0.15612549518E+02  0.45383262119E+01  0.24770181524E+02  0.30000000000E+02  0.47000000000E+01 0.  1.
</event>
<event>
 4    1  0.7643770E-002  0.6000000E+02  0.7546771E-02  0.1259629E+00
         11   -1    0    0    0    0  0.00000000000E+00  0.00000000000E+00  0.30000000000E+02  0.30000000000E+02  0.00000000000E+00 0.  1.
        -11   -1    0    0    0    0 -0.00000000000E+00 -0.00000000000E+00 -0.30000000000E+02  0.30000000000E+02  0.00000000000E+00 0. -1.
          5    1    1    2  501    0 -0.18146458374E+02 -0.11427067629E+02  0.20445981852E+02  0.30000000000E+02  0.47000000000E+01 0. -1.
         -5    1    1    2    0  501  0.18146458374E+02  0.11427067629E+02 -0.20445981852E+02  0.30000000000E+02  0.47000000000E+01 0.  1.
</event>
<event>
 4    1  0.7643770E-002  0.6000000E+02  0.7546771E-02  0.1259629E+00
         11   -1    0    0    0    0  0.00000000000E+00  0.00000000000E+00  0.30000000000E+02  0.30000000000E+02  0.00000000000E+00 0. -1.
        -11   -1    0    0    0    0 -0.00000000000E+00 -0.00000000000E+00 -0.30000000000E+02  0.30000000000E+02  0.00000000000E+00 0.  1.
          5    1    1    2  501    0 -0.97443494012E+01 -0.27251675546E+02  0.63485301202E+01  0.30000000000E+02  0.47000000000E+01 0. -1.
         -5    1    1    2    0  501  0.97443494012E+01  0.27251675546E+02 -0.63485301202E+01  0.30000000000E+02  0.47000000000E+01 0.  1.
</event>
<event>
 4    1  0.7643770E-002  0.6000000E+02  0.7546771E-02  0.1259629E+00
         11   -1    0    0    0    0  0.00000000000E+00  0.00000000000E+00  0.30000000000E+02  0.30000000000E+02  0.00000000000E+00 0. -1.
        -11   -1    0    0    0    0 -0.00000000000E+00 -0.00000000000E+00 -0.30000000000E+02  0.30000000000E+02  0.00000000000E+00 0.  1.
          5    1    1    2  501    0 -0.19970163968E+01 -0.14817307452E+01  0.29525013116E+02  0.30000000000E+02  0.47000000000E+01 0. -1.
         -5    1    1    2    0  501  0.19970163968E+01  0.14817307452E+01 -0.29525013116E+02  0.30000000000E+02  0.47000000000E+01 0.  1.
</event>
<event>
 4    1  0.7643770E-002  0.6000000E+02  0.7546771E-02  0.1259629E+00
         11   -1    0    0    0    0  0.00000000000E+00  0.00000000000E+00  0.30000000000E+02  0.30000000000E+02  0.00000000000E+00 0.  1.
        -11   -1    0    0    0    0 -0.00000000000E+00 -0.00000000000E+00 -0.30000000000E+02  0.30000000000E+02  0.00000000000E+00 0. -1.
          5    1    1    2  501    0  0.44554218531E+01  0.20583926913E+02  0.20841333185E+02  0.30000000000E+02  0.47000000000E+01 0.  1.
         -5    1    1    2    0  501 -0.44554218531E+01 -0.20583926913E+02 -0.20841333185E+02  0.30000000000E+02  0.47000000000E+01 0. -1.
</event>
<event>
 4    1  0.7643770E-002  0.6000000E+02  0.7546771E-02  0.1259629E+00
         11   -1    0    0    0    0  0.00000000000E+00  0.00000000000E+00  0.30000000000E+02  0.30000000000E+02  0.00000000000E+00 0. -1.
        -11   -1    0    0    0    0 -0.00000000000E+00 -0.00000000000E+00 -0.30000000000E+02  0.30000000000E+02  0.00000000000E+00 0.  1.
          5    1    1    2  501    0  0.22329000066E+02 -0.19081355702E+02 -0.39022584002E+01  0.30000000000E+02  0.47000000000E+01 0.  1.
         -5    1    1    2    0  501 -0.22329000066E+02  0.19081355702E+02  0.39022584002E+01  0.30000000000E+02  0.47000000000E+01 0. -1.
</event>
<event>
 4    1  0.7643770E-002  0.6000000E+02  0.7546771E-02  0.1259629E+00
         11   -1    0    0    0    0  0.00000000000E+00  0.00000000000E+00  0.30000000000E+02  0.30000000000E+02  0.00000000000E+00 0.  1.
        -11   -1    0    0    0    0 -0.00000000000E+00 -0.00000000000E+00 -0.30000000000E+02  0.30000000000E+02  0.00000000000E+00 0. -1.
          5    1    1    2  501    0  0.22539472041E+02 -0.28605278609E+01 -0.19018401101E+02  0.30000000000E+02  0.47000000000E+01 0. -1.
         -5    1    1    2    0  501 -0.22539472041E+02  0.28605278609E+01  0.19018401101E+02  0.30000000000E+02  0.47000000000E+01 0.  1.
</event>
<event>
 4    1  0.7643770E-002  0.6000000E+02  0.7546771E-02  0.1259629E+00
         11   -1    0    0    0    0  0.00000000000E+00  0.00000000000E+00  0.30000000000E+02  0.30000000000E+02  0.00000000000E+00 0.  1.
        -11   -1    0    0    0    0 -0.00000000000E+00 -0.00000000000E+00 -0.30000000000E+02  0.30000000000E+02  0.00000000000E+00 0. -1.
          5    1    1    2  501    0 -0.15876635423E+01 -0.11080930570E+02 -0.27433598054E+02  0.30000000000E+02  0.47000000000E+01 0. -1.
         -5    1    1    2    0  501  0.15876635423E+01  0.11080930570E+02  0.27433598054E+02  0.30000000000E+02  0.47000000000E+01 0.  1.
</event>
<event>
 4    1  0.7643770E-002  0.6000000E+02  0.7546771E-02  0.1259629E+00
         11   -1    0    0    0    0  0.00000000000E+00  0.00000000000E+00  0.30000000000E+02  0.30000000000E+02  0.00000000000E+00 0.  1.
        -11   -1    0    0    0    0 -0.00000000000E+00 -0.00000000000E+00 -0.30000000000E+02  0.30000000000E+02  0.00000000000E+00 0. -1.
          5    1    1    2  501    0  0.31154292251E+01 -0.28993294274E+02  0.52529028082E+01  0.30000000000E+02  0.47000000000E+01 0. -1.
         -5    1    1    2    0  501 -0.31154292251E+01  0.28993294274E+02 -0.52529028082E+01  0.30000000000E+02  0.47000000000E+01 0.  1.
</event>
<event>
 4    1  0.7643770E-002  0.6000000E+02  0.7546771E-02  0.1259629E+00
         11   -1    0    0    0    0  0.00000000000E+00  0.00000000000E+00  0.30000000000E+02  0.30000000000E+02  0.00000000000E+00 0.  1.
        -11   -1    0    0    0    0 -0.00000000000E+00 -0.00000000000E+00 -0.30000000000E+02  0.30000000000E+02  0.00000000000E+00 0. -1.
          5    1    1    2  501    0  0.96407682691E+01 -0.27783151758E+02  0.36141479764E+01  0.30000000000E+02  0.47000000000E+01 0. -1.
         -5    1    1    2    0  501 -0.96407682691E+01  0.27783151758E+02 -0.36141479764E+01  0.30000000000E+02  0.47000000000E+01 0.  1.
</event>
<event>
 4    1  0.7643770E-002  0.6000000E+02  0.7546771E-02  0.1259629E+00
         11   -1    0    0    0    0  0.00000000000E+00  0.00000000000E+00  0.30000000000E+02  0.30000000000E+02  0.00000000000E+00 0.  1.
        -11   -1    0    0    0    0 -0.00000000000E+00 -0.00000000000E+00 -0.30000000000E+02  0.30000000000E+02  0.00000000000E+00 0. -1.
          5    1    1    2  501    0  0.19584136625E+02 -0.20148817052E+02 -0.94019553331E+01  0.30000000000E+02  0.47000000000E+01 0. -1.
         -5    1    1    2    0  501 -0.19584136625E+02  0.20148817052E+02  0.94019553331E+01  0.30000000000E+02  0.47000000000E+01 0.  1.
</event>
<event>
 4    1  0.7643770E-002  0.6000000E+02  0.7546771E-02  0.1259629E+00
         11   -1    0    0    0    0  0.00000000000E+00  0.00000000000E+00  0.30000000000E+02  0.30000000000E+02  0.00000000000E+00 0. -1.
        -11   -1    0    0    0    0 -0.00000000000E+00 -0.00000000000E+00 -0.30000000000E+02  0.30000000000E+02  0.00000000000E+00 0.  1.
          5    1    1    2  501    0  0.32797267866E+01 -0.18901922216E+02 -0.22580317286E+02  0.30000000000E+02  0.47000000000E+01 0.  1.
         -5    1    1    2    0  501 -0.32797267866E+01  0.18901922216E+02  0.22580317286E+02  0.30000000000E+02  0.47000000000E+01 0. -1.
</event>
<event>
 4    1  0.7643770E-002  0.6000000E+02  0.7546771E-02  0.1259629E+00
         11   -1    0    0    0    0  0.00000000000E+00  0.00000000000E+00  0.30000000000E+02  0.30000000000E+02  0.00000000000E+00 0.  1.
        -11   -1    0    0    0    0 -0.00000000000E+00 -0.00000000000E+00 -0.30000000000E+02  0.30000000000E+02  0.00000000000E+00 0. -1.
          5    1    1    2  501    0  0.11021732475E+02  0.26954531429E+02  0.54666853472E+01  0.30000000000E+02  0.47000000000E+01 0. -1.
         -5    1    1    2    0  501 -0.11021732475E+02 -0.26954531429E+02 -0.54666853472E+01  0.30000000000E+02  0.47000000000E+01 0.  1.
</event>
<event>
 4    1  0.7643770E-002  0.6000000E+02  0.7546771E-02  0.1259629E+00
         11   -1    0    0    0    0  0.00000000000E+00  0.00000000000E+00  0.30000000000E+02  0.30000000000E+02  0.00000000000E+00 0.  1.
        -11   -1    0    0    0    0 -0.00000000000E+00 -0.00000000000E+00 -0.30000000000E+02  0.30000000000E+02  0.00000000000E+00 0. -1.
          5    1    1    2  501    0 -0.81432106635E+01  0.24453865089E+02 -0.14615286597E+02  0.30000000000E+02  0.47000000000E+01 0. -1.
         -5    1    1    2    0  501  0.81432106635E+01 -0.24453865089E+02  0.14615286597E+02  0.30000000000E+02  0.47000000000E+01 0.  1.
</event>
<event>
 4    1  0.7643770E-002  0.6000000E+02  0.7546771E-02  0.1259629E+00
         11   -1    0    0    0    0  0.00000000000E+00  0.00000000000E+00  0.30000000000E+02  0.30000000000E+02  0.00000000000E+00 0.  1.
        -11   -1    0    0    0    0 -0.00000000000E+00 -0.00000000000E+00 -0.30000000000E+02  0.30000000000E+02  0.00000000000E+00 0. -1.
          5    1    1    2  501    0  0.28761325416E+02 -0.31484382751E+01 -0.63861957945E+01  0.30000000000E+02  0.47000000000E+01 0. -1.
         -5    1    1    2    0  501 -0.28761325416E+02  0.31484382751E+01  0.63861957945E+01  0.30000000000E+02  0.47000000000E+01 0.  1.
</event>
<event>
 4    1  0.7643770E-002  0.6000000E+02  0.7546771E-02  0.1259629E+00
         11   -1    0    0    0    0  0.00000000000E+00  0.00000000000E+00  0.30000000000E+02  0.30000000000E+02  0.00000000000E+00 0.  1.
        -11   -1    0    0    0    0 -0.00000000000E+00 -0.00000000000E+00 -0.30000000000E+02  0.30000000000E+02  0.00000000000E+00 0. -1.
          5    1    1    2  501    0  0.10887797086E+02  0.20565925133E+02 -0.18341444819E+02  0.30000000000E+02  0.47000000000E+01 0. -1.
         -5    1    1    2    0  501 -0.10887797086E+02 -0.20565925133E+02  0.18341444819E+02  0.30000000000E+02  0.47000000000E+01 0.  1.
</event>
<event>
 4    1  0.7643770E-002  0.6000000E+02  0.7546771E-02  0.1259629E+00
         11   -1    0    0    0    0  0.00000000000E+00  0.00000000000E+00  0.30000000000E+02  0.30000000000E+02  0.00000000000E+00 0.  1.
        -11   -1    0    0    0    0 -0.00000000000E+00 -0.00000000000E+00 -0.30000000000E+02  0.30000000000E+02  0.00000000000E+00 0. -1.
          5    1    1    2  501    0 -0.11680737394E+02 -0.18621717296E+02 -0.19867108971E+02  0.30000000000E+02  0.47000000000E+01 0. -1.
         -5    1    1    2    0  501  0.11680737394E+02  0.18621717296E+02  0.19867108971E+02  0.30000000000E+02  0.47000000000E+01 0.  1.
</event>
<event>
 4    1  0.7643770E-002  0.6000000E+02  0.7546771E-02  0.1259629E+00
         11   -1    0    0    0    0  0.00000000000E+00  0.00000000000E+00  0.30000000000E+02  0.30000000000E+02  0.00000000000E+00 0. -1.
        -11   -1    0    0    0    0 -0.00000000000E+00 -0.00000000000E+00 -0.30000000000E+02  0.30000000000E+02  0.00000000000E+00 0.  1.
          5    1    1    2  501    0  0.10222287982E+02 -0.17009207928E+02 -0.22002310653E+02  0.30000000000E+02  0.47000000000E+01 0.  1.
         -5    1    1    2    0  501 -0.10222287982E+02  0.17009207928E+02  0.22002310653E+02  0.30000000000E+02  0.47000000000E+01 0. -1.
</event>
<event>
 4    1  0.7643770E-002  0.6000000E+02  0.7546771E-02  0.1259629E+00
         11   -1    0    0    0    0  0.00000000000E+00  0.00000000000E+00  0.30000000000E+02  0.30000000000E+02  0.00000000000E+00 0. -1.
        -11   -1    0    0    0    0 -0.00000000000E+00 -0.00000000000E+00 -0.30000000000E+02  0.30000000000E+02  0.00000000000E+00 0.  1.
          5    1    1    2  501    0  0.23779667039E+02  0.10543796199E+02 -0.14186817727E+02  0.30000000000E+02  0.47000000000E+01 0.  1.
         -5    1    1    2    0  501 -0.23779667039E+02 -0.10543796199E+02  0.14186817727E+02  0.30000000000E+02  0.47000000000E+01 0. -1.
</event>
<event>
 4    1  0.7643770E-002  0.6000000E+02  0.7546771E-02  0.1259629E+00
         11   -1    0    0    0    0  0.00000000000E+00  0.00000000000E+00  0.30000000000E+02  0.30000000000E+02  0.00000000000E+00 0.  1.
        -11   -1    0    0    0    0 -0.00000000000E+00 -0.00000000000E+00 -0.30000000000E+02  0.30000000000E+02  0.00000000000E+00 0. -1.
          5    1    1    2  501    0 -0.87383601957E+01 -0.11650089354E+01 -0.28287697242E+02  0.30000000000E+02  0.47000000000E+01 0. -1.
         -5    1    1    2    0  501  0.87383601957E+01  0.11650089354E+01  0.28287697242E+02  0.30000000000E+02  0.47000000000E+01 0.  1.
</event>
<event>
 4    1  0.7643770E-002  0.6000000E+02  0.7546771E-02  0.1259629E+00
         11   -1    0    0    0    0  0.00000000000E+00  0.00000000000E+00  0.30000000000E+02  0.30000000000E+02  0.00000000000E+00 0.  1.
        -11   -1    0    0    0    0 -0.00000000000E+00 -0.00000000000E+00 -0.30000000000E+02  0.30000000000E+02  0.00000000000E+00 0. -1.
          5    1    1    2  501    0 -0.12198794606E+02  0.11542584605E+02 -0.24410410705E+02  0.30000000000E+02  0.47000000000E+01 0. -1.
         -5    1    1    2    0  501  0.12198794606E+02 -0.11542584605E+02  0.24410410705E+02  0.30000000000E+02  0.47000000000E+01 0.  1.
</event>
<event>
 4    1  0.7643770E-002  0.6000000E+02  0.7546771E-02  0.1259629E+00
         11   -1    0    0    0    0  0.00000000000E+00  0.00000000000E+00  0.30000000000E+02  0.30000000000E+02  0.00000000000E+00 0. -1.
        -11   -1    0    0    0    0 -0.00000000000E+00 -0.00000000000E+00 -0.30000000000E+02  0.30000000000E+02  0.00000000000E+00 0.  1.
          5    1    1    2  501    0  0.12620801104E+02 -0.11657290269E+02 -0.24139862532E+02  0.30000000000E+02  0.47000000000E+01 0.  1.
         -5    1    1    2    0  501 -0.12620801104E+02  0.11657290269E+02  0.24139862532E+02  0.30000000000E+02  0.47000000000E+01 0. -1.
</event>
<event>
 4    1  0.7643770E-002  0.6000000E+02  0.7546771E-02  0.1259629E+00
         11   -1    0    0    0    0  0.00000000000E+00  0.00000000000E+00  0.30000000000E+02  0.30000000000E+02  0.00000000000E+00 0.  1.
        -11   -1    0    0    0    0 -0.00000000000E+00 -0.00000000000E+00 -0.30000000000E+02  0.30000000000E+02  0.00000000000E+00 0. -1.
          5    1    1    2  501    0  0.16428274651E+02  0.23432509821E+02 -0.76771919011E+01  0.30000000000E+02  0.47000000000E+01 0. -1.
         -5    1    1    2    0  501 -0.16428274651E+02 -0.23432509821E+02  0.76771919011E+01  0.30000000000E+02  0.47000000000E+01 0.  1.
</event>
<event>
 4    1  0.7643770E-002  0.6000000E+02  0.7546771E-02  0.1259629E+00
         11   -1    0    0    0    0  0.00000000000E+00  0.00000000000E+00  0.30000000000E+02  0.30000000000E+02  0.00000000000E+00 0.  1.
        -11   -1    0    0    0    0 -0.00000000000E+00 -0.00000000000E+00 -0.30000000000E+02  0.30000000000E+02  0.00000000000E+00 0. -1.
          5    1    1    2  501    0 -0.20443846808E+02 -0.13271354194E+02  0.16847263443E+02  0.30000000000E+02  0.47000000000E+01 0.  1.
         -5    1    1    2    0  501  0.20443846808E+02  0.13271354194E+02 -0.16847263443E+02  0.30000000000E+02  0.47000000000E+01 0. -1.
</event>
<event>
 4    1  0.7643770E-002  0.6000000E+02  0.7546771E-02  0.1259629E+00
         11   -1    0    0    0    0  0.00000000000E+00  0.00000000000E+00  0.30000000000E+02  0.30000000000E+02  0.00000000000E+00 0.  1.
        -11   -1    0    0    0    0 -0.00000000000E+00 -0.00000000000E+00 -0.30000000000E+02  0.30000000000E+02  0.00000000000E+00 0. -1.
          5    1    1    2  501    0  0.91814335984E+01 -0.27296675638E+02 -0.69643934538E+01  0.30000000000E+02  0.47000000000E+01 0. -1.
         -5    1    1    2    0  501 -0.91814335984E+01  0.27296675638E+02  0.69643934538E+01  0.30000000000E+02  0.47000000000E+01 0.  1.
</event>
<event>
 4    1  0.7643770E-002  0.6000000E+02  0.7546771E-02  0.1259629E+00
         11   -1    0    0    0    0  0.00000000000E+00  0.00000000000E+00  0.30000000000E+02  0.30000000000E+02  0.00000000000E+00 0.  1.
        -11   -1    0    0    0    0 -0.00000000000E+00 -0.00000000000E+00 -0.30000000000E+02  0.30000000000E+02  0.00000000000E+00 0. -1.
          5    1    1    2  501    0 -0.82516525182E+01  0.73558095095E+01 -0.27490221847E+02  0.30000000000E+02  0.47000000000E+01 0. -1.
         -5    1    1    2    0  501  0.82516525182E+01 -0.73558095095E+01  0.27490221847E+02  0.30000000000E+02  0.47000000000E+01 0.  1.
</event>
<event>
 4    1  0.7643770E-002  0.6000000E+02  0.7546771E-02  0.1259629E+00
         11   -1    0    0    0    0  0.00000000000E+00  0.00000000000E+00  0.30000000000E+02  0.30000000000E+02  0.00000000000E+00 0. -1.
        -11   -1    0    0    0    0 -0.00000000000E+00 -0.00000000000E+00 -0.30000000000E+02  0.30000000000E+02  0.00000000000E+00 0.  1.
          5    1    1    2  501    0  0.76833746084E+01  0.28615998564E+02  0.19514038413E-01  0.30000000000E+02  0.47000000000E+01 0.  1.
         -5    1    1    2    0  501 -0.76833746084E+01 -0.28615998564E+02 -0.19514038413E-01  0.30000000000E+02  0.47000000000E+01 0. -1.
</event>
<event>
 4    1  0.7643770E-002  0.6000000E+02  0.7546771E-02  0.1259629E+00
         11   -1    0    0    0    0  0.00000000000E+00  0.00000000000E+00  0.30000000000E+02  0.30000000000E+02  0.00000000000E+00 0.  1.
        -11   -1    0    0    0    0 -0.00000000000E+00 -0.00000000000E+00 -0.30000000000E+02  0.30000000000E+02  0.00000000000E+00 0. -1.
          5    1    1    2  501    0  0.22663617343E+02  0.18148054278E+02 -0.59091940966E+01  0.30000000000E+02  0.47000000000E+01 0. -1.
         -5    1    1    2    0  501 -0.22663617343E+02 -0.18148054278E+02  0.59091940966E+01  0.30000000000E+02  0.47000000000E+01 0.  1.
</event>
<event>
 4    1  0.7643770E-002  0.6000000E+02  0.7546771E-02  0.1259629E+00
         11   -1    0    0    0    0  0.00000000000E+00  0.00000000000E+00  0.30000000000E+02  0.30000000000E+02  0.00000000000E+00 0.  1.
        -11   -1    0    0    0    0 -0.00000000000E+00 -0.00000000000E+00 -0.30000000000E+02  0.30000000000E+02  0.00000000000E+00 0. -1.
          5    1    1    2  501    0 -0.14777816939E+02 -0.22263926700E+02 -0.12800144312E+02  0.30000000000E+02  0.47000000000E+01 0. -1.
         -5    1    1    2    0  501  0.14777816939E+02  0.22263926700E+02  0.12800144312E+02  0.30000000000E+02  0.47000000000E+01 0.  1.
</event>
<event>
 4    1  0.7643770E-002  0.6000000E+02  0.7546771E-02  0.1259629E+00
         11   -1    0    0    0    0  0.00000000000E+00  0.00000000000E+00  0.30000000000E+02  0.30000000000E+02  0.00000000000E+00 0.  1.
        -11   -1    0    0    0    0 -0.00000000000E+00 -0.00000000000E+00 -0.30000000000E+02  0.30000000000E+02  0.00000000000E+00 0. -1.
          5    1    1    2  501    0 -0.22785880844E+02  0.18843284748E+02 -0.19089929395E+01  0.30000000000E+02  0.47000000000E+01 0.  1.
         -5    1    1    2    0  501  0.22785880844E+02 -0.18843284748E+02  0.19089929395E+01  0.30000000000E+02  0.47000000000E+01 0. -1.
</event>
<event>
 4    1  0.7643770E-002  0.6000000E+02  0.7546771E-02  0.1259629E+00
         11   -1    0    0    0    0  0.00000000000E+00  0.00000000000E+00  0.30000000000E+02  0.30000000000E+02  0.00000000000E+00 0.  1.
        -11   -1    0    0    0    0 -0.00000000000E+00 -0.00000000000E+00 -0.30000000000E+02  0.30000000000E+02  0.00000000000E+00 0. -1.
          5    1    1    2  501    0  0.19398557197E+02  0.12774760491E+02 -0.18395963499E+02  0.30000000000E+02  0.47000000000E+01 0. -1.
         -5    1    1    2    0  501 -0.19398557197E+02 -0.12774760491E+02  0.18395963499E+02  0.30000000000E+02  0.47000000000E+01 0.  1.
</event>
<event>
 4    1  0.7643770E-002  0.6000000E+02  0.7546771E-02  0.1259629E+00
         11   -1    0    0    0    0  0.00000000000E+00  0.00000000000E+00  0.30000000000E+02  0.30000000000E+02  0.00000000000E+00 0. -1.
        -11   -1    0    0    0    0 -0.00000000000E+00 -0.00000000000E+00 -0.30000000000E+02  0.30000000000E+02  0.00000000000E+00 0.  1.
          5    1    1    2  501    0 -0.27301505963E+02 -0.44500882251E+01 -0.10617649784E+02  0.30000000000E+02  0.47000000000E+01 0.  1.
         -5    1    1    2    0  501  0.27301505963E+02  0.44500882251E+01  0.10617649784E+02  0.30000000000E+02  0.47000000000E+01 0. -1.
</event>
<event>
 4    1  0.7643770E-002  0.6000000E+02  0.7546771E-02  0.1259629E+00
         11   -1    0    0    0    0  0.00000000000E+00  0.00000000000E+00  0.30000000000E+02  0.30000000000E+02  0.00000000000E+00 0.  1.
        -11   -1    0    0    0    0 -0.00000000000E+00 -0.00000000000E+00 -0.30000000000E+02  0.30000000000E+02  0.00000000000E+00 0. -1.
          5    1    1    2  501    0  0.20617116098E+02  0.13542088048E+02 -0.16415126411E+02  0.30000000000E+02  0.47000000000E+01 0. -1.
         -5    1    1    2    0  501 -0.20617116098E+02 -0.13542088048E+02  0.16415126411E+02  0.30000000000E+02  0.47000000000E+01 0.  1.
</event>
<event>
 4    1  0.7643770E-002  0.6000000E+02  0.7546771E-02  0.1259629E+00
         11   -1    0    0    0    0  0.00000000000E+00  0.00000000000E+00  0.30000000000E+02  0.30000000000E+02  0.00000000000E+00 0. -1.
        -11   -1    0    0    0    0 -0.00000000000E+00 -0.00000000000E+00 -0.30000000000E+02  0.30000000000E+02  0.00000000000E+00 0.  1.
          5    1    1    2  501    0 -0.27076937935E+02 -0.46616500547E+01 -0.11091368302E+02  0.30000000000E+02  0.47000000000E+01 0. -1.
         -5    1    1    2    0  501  0.27076937935E+02  0.46616500547E+01  0.11091368302E+02  0.30000000000E+02  0.47000000000E+01 0. -1.
</event>
<event>
 4    1  0.7643770E-002  0.6000000E+02  0.7546771E-02  0.1259629E+00
         11   -1    0    0    0    0  0.00000000000E+00  0.00000000000E+00  0.30000000000E+02  0.30000000000E+02  0.00000000000E+00 0.  1.
        -11   -1    0    0    0    0 -0.00000000000E+00 -0.00000000000E+00 -0.30000000000E+02  0.30000000000E+02  0.00000000000E+00 0. -1.
          5    1    1    2  501    0  0.20189388137E+02 -0.85608594835E+01 -0.19925117103E+02  0.30000000000E+02  0.47000000000E+01 0. -1.
         -5    1    1    2    0  501 -0.20189388137E+02  0.85608594835E+01  0.19925117103E+02  0.30000000000E+02  0.47000000000E+01 0.  1.
</event>
<event>
 4    1  0.7643770E-002  0.6000000E+02  0.7546771E-02  0.1259629E+00
         11   -1    0    0    0    0  0.00000000000E+00  0.00000000000E+00  0.30000000000E+02  0.30000000000E+02  0.00000000000E+00 0.  1.
        -11   -1    0    0    0    0 -0.00000000000E+00 -0.00000000000E+00 -0.30000000000E+02  0.30000000000E+02  0.00000000000E+00 0. -1.
          5    1    1    2  501    0  0.16556879601E+02 -0.24396338637E+02 -0.29323026717E+01  0.30000000000E+02  0.47000000000E+01 0. -1.
         -5    1    1    2    0  501 -0.16556879601E+02  0.24396338637E+02  0.29323026717E+01  0.30000000000E+02  0.47000000000E+01 0.  1.
</event>
<event>
 4    1  0.7643770E-002  0.6000000E+02  0.7546771E-02  0.1259629E+00
         11   -1    0    0    0    0  0.00000000000E+00  0.00000000000E+00  0.30000000000E+02  0.30000000000E+02  0.00000000000E+00 0.  1.
        -11   -1    0    0    0    0 -0.00000000000E+00 -0.00000000000E+00 -0.30000000000E+02  0.30000000000E+02  0.00000000000E+00 0. -1.
          5    1    1    2  501    0 -0.13683113146E+02 -0.10938819273E+02  0.23896122019E+02  0.30000000000E+02  0.47000000000E+01 0.  1.
         -5    1    1    2    0  501  0.13683113146E+02  0.10938819273E+02 -0.23896122019E+02  0.30000000000E+02  0.47000000000E+01 0. -1.
</event>
<event>
 4    1  0.7643770E-002  0.6000000E+02  0.7546771E-02  0.1259629E+00
         11   -1    0    0    0    0  0.00000000000E+00  0.00000000000E+00  0.30000000000E+02  0.30000000000E+02  0.00000000000E+00 0.  1.
        -11   -1    0    0    0    0 -0.00000000000E+00 -0.00000000000E+00 -0.30000000000E+02  0.30000000000E+02  0.00000000000E+00 0. -1.
          5    1    1    2  501    0 -0.20770740196E+02  0.20662841810E+02 -0.44196515764E+01  0.30000000000E+02  0.47000000000E+01 0. -1.
         -5    1    1    2    0  501  0.20770740196E+02 -0.20662841810E+02  0.44196515764E+01  0.30000000000E+02  0.47000000000E+01 0.  1.
</event>
<event>
 4    1  0.7643770E-002  0.6000000E+02  0.7546771E-02  0.1259629E+00
         11   -1    0    0    0    0  0.00000000000E+00  0.00000000000E+00  0.30000000000E+02  0.30000000000E+02  0.00000000000E+00 0.  1.
        -11   -1    0    0    0    0 -0.00000000000E+00 -0.00000000000E+00 -0.30000000000E+02  0.30000000000E+02  0.00000000000E+00 0. -1.
          5    1    1    2  501    0  0.17429522636E+02  0.12667119684E+02 -0.20338776256E+02  0.30000000000E+02  0.47000000000E+01 0. -1.
         -5    1    1    2    0  501 -0.17429522636E+02 -0.12667119684E+02  0.20338776256E+02  0.30000000000E+02  0.47000000000E+01 0.  1.
</event>
<event>
 4    1  0.7643770E-002  0.6000000E+02  0.7546771E-02  0.1259629E+00
         11   -1    0    0    0    0  0.00000000000E+00  0.00000000000E+00  0.30000000000E+02  0.30000000000E+02  0.00000000000E+00 0.  1.
        -11   -1    0    0    0    0 -0.00000000000E+00 -0.00000000000E+00 -0.30000000000E+02  0.30000000000E+02  0.00000000000E+00 0. -1.
          5    1    1    2  501    0 -0.23411596076E+02  0.17634692545E+02  0.43387542004E+01  0.30000000000E+02  0.47000000000E+01 0. -1.
         -5    1    1    2    0  501  0.23411596076E+02 -0.17634692545E+02 -0.43387542004E+01  0.30000000000E+02  0.47000000000E+01 0.  1.
</event>
<event>
 4    1  0.7643770E-002  0.6000000E+02  0.7546771E-02  0.1259629E+00
         11   -1    0    0    0    0  0.00000000000E+00  0.00000000000E+00  0.30000000000E+02  0.30000000000E+02  0.00000000000E+00 0. -1.
        -11   -1    0    0    0    0 -0.00000000000E+00 -0.00000000000E+00 -0.30000000000E+02  0.30000000000E+02  0.00000000000E+00 0.  1.
          5    1    1    2  501    0 -0.23763576225E+01 -0.20955711588E+02  0.20811561120E+02  0.30000000000E+02  0.47000000000E+01 0. -1.
         -5    1    1    2    0  501  0.23763576225E+01  0.20955711588E+02 -0.20811561120E+02  0.30000000000E+02  0.47000000000E+01 0.  1.
</event>
<event>
 4    1  0.7643770E-002  0.6000000E+02  0.7546771E-02  0.1259629E+00
         11   -1    0    0    0    0  0.00000000000E+00  0.00000000000E+00  0.30000000000E+02  0.30000000000E+02  0.00000000000E+00 0.  1.
        -11   -1    0    0    0    0 -0.00000000000E+00 -0.00000000000E+00 -0.30000000000E+02  0.30000000000E+02  0.00000000000E+00 0. -1.
          5    1    1    2  501    0  0.18072591348E+02  0.14477940167E+02 -0.18484606853E+02  0.30000000000E+02  0.47000000000E+01 0. -1.
         -5    1    1    2    0  501 -0.18072591348E+02 -0.14477940167E+02  0.18484606853E+02  0.30000000000E+02  0.47000000000E+01 0.  1.
</event>
<event>
 4    1  0.7643770E-002  0.6000000E+02  0.7546771E-02  0.1259629E+00
         11   -1    0    0    0    0  0.00000000000E+00  0.00000000000E+00  0.30000000000E+02  0.30000000000E+02  0.00000000000E+00 0.  1.
        -11   -1    0    0    0    0 -0.00000000000E+00 -0.00000000000E+00 -0.30000000000E+02  0.30000000000E+02  0.00000000000E+00 0. -1.
          5    1    1    2  501    0 -0.20100390106E+02 -0.16402757018E+02 -0.14312018718E+02  0.30000000000E+02  0.47000000000E+01 0. -1.
         -5    1    1    2    0  501  0.20100390106E+02  0.16402757018E+02  0.14312018718E+02  0.30000000000E+02  0.47000000000E+01 0.  1.
</event>
<event>
 4    1  0.7643770E-002  0.6000000E+02  0.7546771E-02  0.1259629E+00
         11   -1    0    0    0    0  0.00000000000E+00  0.00000000000E+00  0.30000000000E+02  0.30000000000E+02  0.00000000000E+00 0.  1.
        -11   -1    0    0    0    0 -0.00000000000E+00 -0.00000000000E+00 -0.30000000000E+02  0.30000000000E+02  0.00000000000E+00 0. -1.
          5    1    1    2  501    0  0.32188701562E+01  0.24031305700E+02 -0.17030714056E+02  0.30000000000E+02  0.47000000000E+01 0. -1.
         -5    1    1    2    0  501 -0.32188701562E+01 -0.24031305700E+02  0.17030714056E+02  0.30000000000E+02  0.47000000000E+01 0.  1.
</event>
<event>
 4    1  0.7643770E-002  0.6000000E+02  0.7546771E-02  0.1259629E+00
         11   -1    0    0    0    0  0.00000000000E+00  0.00000000000E+00  0.30000000000E+02  0.30000000000E+02  0.00000000000E+00 0.  1.
        -11   -1    0    0    0    0 -0.00000000000E+00 -0.00000000000E+00 -0.30000000000E+02  0.30000000000E+02  0.00000000000E+00 0. -1.
          5    1    1    2  501    0 -0.42247541848E+01 -0.14599491501E+02 -0.25434549337E+02  0.30000000000E+02  0.47000000000E+01 0. -1.
         -5    1    1    2    0  501  0.42247541848E+01  0.14599491501E+02  0.25434549337E+02  0.30000000000E+02  0.47000000000E+01 0.  1.
</event>
<event>
 4    1  0.7643770E-002  0.6000000E+02  0.7546771E-02  0.1259629E+00
         11   -1    0    0    0    0  0.00000000000E+00  0.00000000000E+00  0.30000000000E+02  0.30000000000E+02  0.00000000000E+00 0.  1.
        -11   -1    0    0    0    0 -0.00000000000E+00 -0.00000000000E+00 -0.30000000000E+02  0.30000000000E+02  0.00000000000E+00 0. -1.
          5    1    1    2  501    0 -0.40857338489E+01 -0.77117664537E+01 -0.28315109696E+02  0.30000000000E+02  0.47000000000E+01 0. -1.
         -5    1    1    2    0  501  0.40857338489E+01  0.77117664537E+01  0.28315109696E+02  0.30000000000E+02  0.47000000000E+01 0.  1.
</event>
<event>
 4    1  0.7643770E-002  0.6000000E+02  0.7546771E-02  0.1259629E+00
         11   -1    0    0    0    0  0.00000000000E+00  0.00000000000E+00  0.30000000000E+02  0.30000000000E+02  0.00000000000E+00 0.  1.
        -11   -1    0    0    0    0 -0.00000000000E+00 -0.00000000000E+00 -0.30000000000E+02  0.30000000000E+02  0.00000000000E+00 0. -1.
          5    1    1    2  501    0 -0.17495339045E+02 -0.36374285862E+01  0.23634555739E+02  0.30000000000E+02  0.47000000000E+01 0.  1.
         -5    1    1    2    0  501  0.17495339045E+02  0.36374285862E+01 -0.23634555739E+02  0.30000000000E+02  0.47000000000E+01 0. -1.
</event>
<event>
 4    1  0.7643770E-002  0.6000000E+02  0.7546771E-02  0.1259629E+00
         11   -1    0    0    0    0  0.00000000000E+00  0.00000000000E+00  0.30000000000E+02  0.30000000000E+02  0.00000000000E+00 0.  1.
        -11   -1    0    0    0    0 -0.00000000000E+00 -0.00000000000E+00 -0.30000000000E+02  0.30000000000E+02  0.00000000000E+00 0. -1.
          5    1    1    2  501    0 -0.91981940929E+01  0.25248419268E+02 -0.12482810176E+02  0.30000000000E+02  0.47000000000E+01 0. -1.
         -5    1    1    2    0  501  0.91981940929E+01 -0.25248419268E+02  0.12482810176E+02  0.30000000000E+02  0.47000000000E+01 0.  1.
</event>
<event>
 4    1  0.7643770E-002  0.6000000E+02  0.7546771E-02  0.1259629E+00
         11   -1    0    0    0    0  0.00000000000E+00  0.00000000000E+00  0.30000000000E+02  0.30000000000E+02  0.00000000000E+00 0.  1.
        -11   -1    0    0    0    0 -0.00000000000E+00 -0.00000000000E+00 -0.30000000000E+02  0.30000000000E+02  0.00000000000E+00 0. -1.
          5    1    1    2  501    0 -0.27294217948E+02  0.34600385102E+01 -0.10998354429E+02  0.30000000000E+02  0.47000000000E+01 0. -1.
         -5    1    1    2    0  501  0.27294217948E+02 -0.34600385102E+01  0.10998354429E+02  0.30000000000E+02  0.47000000000E+01 0.  1.
</event>
<event>
 4    1  0.7643770E-002  0.6000000E+02  0.7546771E-02  0.1259629E+00
         11   -1    0    0    0    0  0.00000000000E+00  0.00000000000E+00  0.30000000000E+02  0.30000000000E+02  0.00000000000E+00 0.  1.
        -11   -1    0    0    0    0 -0.00000000000E+00 -0.00000000000E+00 -0.30000000000E+02  0.30000000000E+02  0.00000000000E+00 0. -1.
          5    1    1    2  501    0  0.89721487835E+00  0.11603498126E+01 -0.29593218713E+02  0.30000000000E+02  0.47000000000E+01 0. -1.
         -5    1    1    2    0  501 -0.89721487835E+00 -0.11603498126E+01  0.29593218713E+02  0.30000000000E+02  0.47000000000E+01 0.  1.
</event>
<event>
 4    1  0.7643770E-002  0.6000000E+02  0.7546771E-02  0.1259629E+00
         11   -1    0    0    0    0  0.00000000000E+00  0.00000000000E+00  0.30000000000E+02  0.30000000000E+02  0.00000000000E+00 0.  1.
        -11   -1    0    0    0    0 -0.00000000000E+00 -0.00000000000E+00 -0.30000000000E+02  0.30000000000E+02  0.00000000000E+00 0. -1.
          5    1    1    2  501    0  0.25148553354E+02 -0.94835630923E+01 -0.12470857841E+02  0.30000000000E+02  0.47000000000E+01 0. -1.
         -5    1    1    2    0  501 -0.25148553354E+02  0.94835630923E+01  0.12470857841E+02  0.30000000000E+02  0.47000000000E+01 0.  1.
</event>
<event>
 4    1  0.7643770E-002  0.6000000E+02  0.7546771E-02  0.1259629E+00
         11   -1    0    0    0    0  0.00000000000E+00  0.00000000000E+00  0.30000000000E+02  0.30000000000E+02  0.00000000000E+00 0.  1.
        -11   -1    0    0    0    0 -0.00000000000E+00 -0.00000000000E+00 -0.30000000000E+02  0.30000000000E+02  0.00000000000E+00 0. -1.
          5    1    1    2  501    0  0.58823261703E+01  0.17455419034E+02 -0.23208114640E+02  0.30000000000E+02  0.47000000000E+01 0. -1.
         -5    1    1    2    0  501 -0.58823261703E+01 -0.17455419034E+02  0.23208114640E+02  0.30000000000E+02  0.47000000000E+01 0.  1.
</event>
<event>
 4    1  0.7643770E-002  0.6000000E+02  0.7546771E-02  0.1259629E+00
         11   -1    0    0    0    0  0.00000000000E+00  0.00000000000E+00  0.30000000000E+02  0.30000000000E+02  0.00000000000E+00 0.  1.
        -11   -1    0    0    0    0 -0.00000000000E+00 -0.00000000000E+00 -0.30000000000E+02  0.30000000000E+02  0.00000000000E+00 0. -1.
          5    1    1    2  501    0 -0.18226800674E+02  0.16503290175E+02 -0.16532850649E+02  0.30000000000E+02  0.47000000000E+01 0. -1.
         -5    1    1    2    0  501  0.18226800674E+02 -0.16503290175E+02  0.16532850649E+02  0.30000000000E+02  0.47000000000E+01 0.  1.
</event>
<event>
 4    1  0.7643770E-002  0.6000000E+02  0.7546771E-02  0.1259629E+00
         11   -1    0    0    0    0  0.00000000000E+00  0.00000000000E+00  0.30000000000E+02  0.30000000000E+02  0.00000000000E+00 0.  1.
        -11   -1    0    0    0    0 -0.00000000000E+00 -0.00000000000E+00 -0.30000000000E+02  0.30000000000E+02  0.00000000000E+00 0. -1.
          5    1    1    2  501    0  0.16534980344E+02 -0.12063117193E+02 -0.21423949884E+02  0.30000000000E+02  0.47000000000E+01 0. -1.
         -5    1    1    2    0  501 -0.16534980344E+02  0.12063117193E+02  0.21423949884E+02  0.30000000000E+02  0.47000000000E+01 0.  1.
</event>
<event>
 4    1  0.7643770E-002  0.6000000E+02  0.7546771E-02  0.1259629E+00
         11   -1    0    0    0    0  0.00000000000E+00  0.00000000000E+00  0.30000000000E+02  0.30000000000E+02  0.00000000000E+00 0.  1.
        -11   -1    0    0    0    0 -0.00000000000E+00 -0.00000000000E+00 -0.30000000000E+02  0.30000000000E+02  0.00000000000E+00 0. -1.
          5    1    1    2  501    0 -0.45365473288E+01  0.28177884162E+02 -0.79584283919E+01  0.30000000000E+02  0.47000000000E+01 0.  1.
         -5    1    1    2    0  501  0.45365473288E+01 -0.28177884162E+02  0.79584283919E+01  0.30000000000E+02  0.47000000000E+01 0. -1.
</event>
<event>
 4    1  0.7643770E-002  0.6000000E+02  0.7546771E-02  0.1259629E+00
         11   -1    0    0    0    0  0.00000000000E+00  0.00000000000E+00  0.30000000000E+02  0.30000000000E+02  0.00000000000E+00 0.  1.
        -11   -1    0    0    0    0 -0.00000000000E+00 -0.00000000000E+00 -0.30000000000E+02  0.30000000000E+02  0.00000000000E+00 0. -1.
          5    1    1    2  501    0  0.74315164021E+01  0.48605871573E+01 -0.28267600826E+02  0.30000000000E+02  0.47000000000E+01 0. -1.
         -5    1    1    2    0  501 -0.74315164021E+01 -0.48605871573E+01  0.28267600826E+02  0.30000000000E+02  0.47000000000E+01 0.  1.
</event>
<event>
 4    1  0.7643770E-002  0.6000000E+02  0.7546771E-02  0.1259629E+00
         11   -1    0    0    0    0  0.00000000000E+00  0.00000000000E+00  0.30000000000E+02  0.30000000000E+02  0.00000000000E+00 0. -1.
        -11   -1    0    0    0    0 -0.00000000000E+00 -0.00000000000E+00 -0.30000000000E+02  0.30000000000E+02  0.00000000000E+00 0.  1.
          5    1    1    2  501    0  0.85946893171E+01 -0.64890700745E+00 -0.28348196331E+02  0.30000000000E+02  0.47000000000E+01 0.  1.
         -5    1    1    2    0  501 -0.85946893171E+01  0.64890700745E+00  0.28348196331E+02  0.30000000000E+02  0.47000000000E+01 0. -1.
</event>
<event>
 4    1  0.7643770E-002  0.6000000E+02  0.7546771E-02  0.1259629E+00
         11   -1    0    0    0    0  0.00000000000E+00  0.00000000000E+00  0.30000000000E+02  0.30000000000E+02  0.00000000000E+00 0. -1.
        -11   -1    0    0    0    0 -0.00000000000E+00 -0.00000000000E+00 -0.30000000000E+02  0.30000000000E+02  0.00000000000E+00 0.  1.
          5    1    1    2  501    0  0.14794007824E+02  0.13158903938E+02 -0.22042925841E+02  0.30000000000E+02  0.47000000000E+01 0.  1.
         -5    1    1    2    0  501 -0.14794007824E+02 -0.13158903938E+02  0.22042925841E+02  0.30000000000E+02  0.47000000000E+01 0. -1.
</event>
<event>
 4    1  0.7643770E-002  0.6000000E+02  0.7546771E-02  0.1259629E+00
         11   -1    0    0    0    0  0.00000000000E+00  0.00000000000E+00  0.30000000000E+02  0.30000000000E+02  0.00000000000E+00 0.  1.
        -11   -1    0    0    0    0 -0.00000000000E+00 -0.00000000000E+00 -0.30000000000E+02  0.30000000000E+02  0.00000000000E+00 0. -1.
          5    1    1    2  501    0 -0.10062610662E+02 -0.27827063756E+02 -0.15193384617E+01  0.30000000000E+02  0.47000000000E+01 0. -1.
         -5    1    1    2    0  501  0.10062610662E+02  0.27827063756E+02  0.15193384617E+01  0.30000000000E+02  0.47000000000E+01 0.  1.
</event>
<event>
 4    1  0.7643770E-002  0.6000000E+02  0.7546771E-02  0.1259629E+00
         11   -1    0    0    0    0  0.00000000000E+00  0.00000000000E+00  0.30000000000E+02  0.30000000000E+02  0.00000000000E+00 0. -1.
        -11   -1    0    0    0    0 -0.00000000000E+00 -0.00000000000E+00 -0.30000000000E+02  0.30000000000E+02  0.00000000000E+00 0.  1.
          5    1    1    2  501    0 -0.15673741796E+02  0.22289345757E+02 -0.11637391625E+02  0.30000000000E+02  0.47000000000E+01 0.  1.
         -5    1    1    2    0  501  0.15673741796E+02 -0.22289345757E+02  0.11637391625E+02  0.30000000000E+02  0.47000000000E+01 0. -1.
</event>
<event>
 4    1  0.7643770E-002  0.6000000E+02  0.7546771E-02  0.1259629E+00
         11   -1    0    0    0    0  0.00000000000E+00  0.00000000000E+00  0.30000000000E+02  0.30000000000E+02  0.00000000000E+00 0.  1.
        -11   -1    0    0    0    0 -0.00000000000E+00 -0.00000000000E+00 -0.30000000000E+02  0.30000000000E+02  0.00000000000E+00 0. -1.
          5    1    1    2  501    0  0.24952380057E+02 -0.10323610263E+02 -0.12194744795E+02  0.30000000000E+02  0.47000000000E+01 0. -1.
         -5    1    1    2    0  501 -0.24952380057E+02  0.10323610263E+02  0.12194744795E+02  0.30000000000E+02  0.47000000000E+01 0.  1.
</event>
<event>
 4    1  0.7643770E-002  0.6000000E+02  0.7546771E-02  0.1259629E+00
         11   -1    0    0    0    0  0.00000000000E+00  0.00000000000E+00  0.30000000000E+02  0.30000000000E+02  0.00000000000E+00 0.  1.
        -11   -1    0    0    0    0 -0.00000000000E+00 -0.00000000000E+00 -0.30000000000E+02  0.30000000000E+02  0.00000000000E+00 0. -1.
          5    1    1    2  501    0  0.24555812971E+02  0.11890330649E+02 -0.11556041122E+02  0.30000000000E+02  0.47000000000E+01 0. -1.
         -5    1    1    2    0  501 -0.24555812971E+02 -0.11890330649E+02  0.11556041122E+02  0.30000000000E+02  0.47000000000E+01 0.  1.
</event>
<event>
 4    1  0.7643770E-002  0.6000000E+02  0.7546771E-02  0.1259629E+00
         11   -1    0    0    0    0  0.00000000000E+00  0.00000000000E+00  0.30000000000E+02  0.30000000000E+02  0.00000000000E+00 0. -1.
        -11   -1    0    0    0    0 -0.00000000000E+00 -0.00000000000E+00 -0.30000000000E+02  0.30000000000E+02  0.00000000000E+00 0.  1.
          5    1    1    2  501    0  0.13684579360E+02  0.23761118523E+02 -0.11227267444E+02  0.30000000000E+02  0.47000000000E+01 0.  1.
         -5    1    1    2    0  501 -0.13684579360E+02 -0.23761118523E+02  0.11227267444E+02  0.30000000000E+02  0.47000000000E+01 0. -1.
</event>
<event>
 4    1  0.7643770E-002  0.6000000E+02  0.7546771E-02  0.1259629E+00
         11   -1    0    0    0    0  0.00000000000E+00  0.00000000000E+00  0.30000000000E+02  0.30000000000E+02  0.00000000000E+00 0.  1.
        -11   -1    0    0    0    0 -0.00000000000E+00 -0.00000000000E+00 -0.30000000000E+02  0.30000000000E+02  0.00000000000E+00 0. -1.
          5    1    1    2  501    0 -0.10399378257E+02  0.16125762686E+02 -0.22577039435E+02  0.30000000000E+02  0.47000000000E+01 0. -1.
         -5    1    1    2    0  501  0.10399378257E+02 -0.16125762686E+02  0.22577039435E+02  0.30000000000E+02  0.47000000000E+01 0.  1.
</event>
<event>
 4    1  0.7643770E-002  0.6000000E+02  0.7546771E-02  0.1259629E+00
         11   -1    0    0    0    0  0.00000000000E+00  0.00000000000E+00  0.30000000000E+02  0.30000000000E+02  0.00000000000E+00 0.  1.
        -11   -1    0    0    0    0 -0.00000000000E+00 -0.00000000000E+00 -0.30000000000E+02  0.30000000000E+02  0.00000000000E+00 0. -1.
          5    1    1    2  501    0 -0.19521803950E+02 -0.21217911097E+02 -0.68271091420E+01  0.30000000000E+02  0.47000000000E+01 0. -1.
         -5    1    1    2    0  501  0.19521803950E+02  0.21217911097E+02  0.68271091420E+01  0.30000000000E+02  0.47000000000E+01 0.  1.
</event>
<event>
 4    1  0.7643770E-002  0.6000000E+02  0.7546771E-02  0.1259629E+00
         11   -1    0    0    0    0  0.00000000000E+00  0.00000000000E+00  0.30000000000E+02  0.30000000000E+02  0.00000000000E+00 0.  1.
        -11   -1    0    0    0    0 -0.00000000000E+00 -0.00000000000E+00 -0.30000000000E+02  0.30000000000E+02  0.00000000000E+00 0. -1.
          5    1    1    2  501    0 -0.79142390570E+01 -0.60755942569E+01 -0.27899139316E+02  0.30000000000E+02  0.47000000000E+01 0. -1.
         -5    1    1    2    0  501  0.79142390570E+01  0.60755942569E+01  0.27899139316E+02  0.30000000000E+02  0.47000000000E+01 0.  1.
</event>
<event>
 4    1  0.7643770E-002  0.6000000E+02  0.7546771E-02  0.1259629E+00
         11   -1    0    0    0    0  0.00000000000E+00  0.00000000000E+00  0.30000000000E+02  0.30000000000E+02  0.00000000000E+00 0.  1.
        -11   -1    0    0    0    0 -0.00000000000E+00 -0.00000000000E+00 -0.30000000000E+02  0.30000000000E+02  0.00000000000E+00 0. -1.
          5    1    1    2  501    0 -0.16600811448E+02  0.24288084196E+02 -0.35230704399E+01  0.30000000000E+02  0.47000000000E+01 0. -1.
         -5    1    1    2    0  501  0.16600811448E+02 -0.24288084196E+02  0.35230704399E+01  0.30000000000E+02  0.47000000000E+01 0.  1.
</event>
<event>
 4    1  0.7643770E-002  0.6000000E+02  0.7546771E-02  0.1259629E+00
         11   -1    0    0    0    0  0.00000000000E+00  0.00000000000E+00  0.30000000000E+02  0.30000000000E+02  0.00000000000E+00 0.  1.
        -11   -1    0    0    0    0 -0.00000000000E+00 -0.00000000000E+00 -0.30000000000E+02  0.30000000000E+02  0.00000000000E+00 0. -1.
          5    1    1    2  501    0 -0.10855348956E+02 -0.27563112354E+02 -0.58841856819E+00  0.30000000000E+02  0.47000000000E+01 0. -1.
         -5    1    1    2    0  501  0.10855348956E+02  0.27563112354E+02  0.58841856819E+00  0.30000000000E+02  0.47000000000E+01 0.  1.
</event>
<event>
 4    1  0.7643770E-002  0.6000000E+02  0.7546771E-02  0.1259629E+00
         11   -1    0    0    0    0  0.00000000000E+00  0.00000000000E+00  0.30000000000E+02  0.30000000000E+02  0.00000000000E+00 0. -1.
        -11   -1    0    0    0    0 -0.00000000000E+00 -0.00000000000E+00 -0.30000000000E+02  0.30000000000E+02  0.00000000000E+00 0.  1.
          5    1    1    2  501    0  0.23773878244E+02  0.17039908936E+02 -0.47280246085E+01  0.30000000000E+02  0.47000000000E+01 0. -1.
         -5    1    1    2    0  501 -0.23773878244E+02 -0.17039908936E+02  0.47280246085E+01  0.30000000000E+02  0.47000000000E+01 0.  1.
</event>
<event>
 4    1  0.7643770E-002  0.6000000E+02  0.7546771E-02  0.1259629E+00
         11   -1    0    0    0    0  0.00000000000E+00  0.00000000000E+00  0.30000000000E+02  0.30000000000E+02  0.00000000000E+00 0.  1.
        -11   -1    0    0    0    0 -0.00000000000E+00 -0.00000000000E+00 -0.30000000000E+02  0.30000000000E+02  0.00000000000E+00 0. -1.
          5    1    1    2  501    0  0.16046291318E+02 -0.50885005708E+01 -0.24383061680E+02  0.30000000000E+02  0.47000000000E+01 0. -1.
         -5    1    1    2    0  501 -0.16046291318E+02  0.50885005708E+01  0.24383061680E+02  0.30000000000E+02  0.47000000000E+01 0.  1.
</event>
<event>
 4    1  0.7643770E-002  0.6000000E+02  0.7546771E-02  0.1259629E+00
         11   -1    0    0    0    0  0.00000000000E+00  0.00000000000E+00  0.30000000000E+02  0.30000000000E+02  0.00000000000E+00 0.  1.
        -11   -1    0    0    0    0 -0.00000000000E+00 -0.00000000000E+00 -0.30000000000E+02  0.30000000000E+02  0.00000000000E+00 0. -1.
          5    1    1    2  501    0 -0.11598840789E+02  0.13776496717E+02 -0.23528387759E+02  0.30000000000E+02  0.47000000000E+01 0. -1.
         -5    1    1    2    0  501  0.11598840789E+02 -0.13776496717E+02  0.23528387759E+02  0.30000000000E+02  0.47000000000E+01 0.  1.
</event>
<event>
 4    1  0.7643770E-002  0.6000000E+02  0.7546771E-02  0.1259629E+00
         11   -1    0    0    0    0  0.00000000000E+00  0.00000000000E+00  0.30000000000E+02  0.30000000000E+02  0.00000000000E+00 0.  1.
        -11   -1    0    0    0    0 -0.00000000000E+00 -0.00000000000E+00 -0.30000000000E+02  0.30000000000E+02  0.00000000000E+00 0. -1.
          5    1    1    2  501    0  0.44101114670E+01  0.29197380492E+02 -0.24441541010E+01  0.30000000000E+02  0.47000000000E+01 0. -1.
         -5    1    1    2    0  501 -0.44101114670E+01 -0.29197380492E+02  0.24441541010E+01  0.30000000000E+02  0.47000000000E+01 0.  1.
</event>
<event>
 4    1  0.7643770E-002  0.6000000E+02  0.7546771E-02  0.1259629E+00
         11   -1    0    0    0    0  0.00000000000E+00  0.00000000000E+00  0.30000000000E+02  0.30000000000E+02  0.00000000000E+00 0.  1.
        -11   -1    0    0    0    0 -0.00000000000E+00 -0.00000000000E+00 -0.30000000000E+02  0.30000000000E+02  0.00000000000E+00 0. -1.
          5    1    1    2  501    0 -0.15397359258E+02  0.24728563086E+02 -0.54156712982E+01  0.30000000000E+02  0.47000000000E+01 0. -1.
         -5    1    1    2    0  501  0.15397359258E+02 -0.24728563086E+02  0.54156712982E+01  0.30000000000E+02  0.47000000000E+01 0.  1.
</event>
<event>
 4    1  0.7643770E-002  0.6000000E+02  0.7546771E-02  0.1259629E+00
         11   -1    0    0    0    0  0.00000000000E+00  0.00000000000E+00  0.30000000000E+02  0.30000000000E+02  0.00000000000E+00 0.  1.
        -11   -1    0    0    0    0 -0.00000000000E+00 -0.00000000000E+00 -0.30000000000E+02  0.30000000000E+02  0.00000000000E+00 0. -1.
          5    1    1    2  501    0 -0.12343679005E+02  0.11223480561E+02  0.24486262939E+02  0.30000000000E+02  0.47000000000E+01 0.  1.
         -5    1    1    2    0  501  0.12343679005E+02 -0.11223480561E+02 -0.24486262939E+02  0.30000000000E+02  0.47000000000E+01 0. -1.
</event>
<event>
 4    1  0.7643770E-002  0.6000000E+02  0.7546771E-02  0.1259629E+00
         11   -1    0    0    0    0  0.00000000000E+00  0.00000000000E+00  0.30000000000E+02  0.30000000000E+02  0.00000000000E+00 0. -1.
        -11   -1    0    0    0    0 -0.00000000000E+00 -0.00000000000E+00 -0.30000000000E+02  0.30000000000E+02  0.00000000000E+00 0.  1.
          5    1    1    2  501    0  0.12695164494E+02  0.98380386282E+01 -0.24898911511E+02  0.30000000000E+02  0.47000000000E+01 0.  1.
         -5    1    1    2    0  501 -0.12695164494E+02 -0.98380386282E+01  0.24898911511E+02  0.30000000000E+02  0.47000000000E+01 0. -1.
</event>
<event>
 4    1  0.7643770E-002  0.6000000E+02  0.7546771E-02  0.1259629E+00
         11   -1    0    0    0    0  0.00000000000E+00  0.00000000000E+00  0.30000000000E+02  0.30000000000E+02  0.00000000000E+00 0. -1.
        -11   -1    0    0    0    0 -0.00000000000E+00 -0.00000000000E+00 -0.30000000000E+02  0.30000000000E+02  0.00000000000E+00 0.  1.
          5    1    1    2  501    0 -0.29179390345E+01  0.28309790596E+02 -0.82432632003E+01  0.30000000000E+02  0.47000000000E+01 0. -1.
         -5    1    1    2    0  501  0.29179390345E+01 -0.28309790596E+02  0.82432632003E+01  0.30000000000E+02  0.47000000000E+01 0.  1.
</event>
<event>
 4    1  0.7643770E-002  0.6000000E+02  0.7546771E-02  0.1259629E+00
         11   -1    0    0    0    0  0.00000000000E+00  0.00000000000E+00  0.30000000000E+02  0.30000000000E+02  0.00000000000E+00 0. -1.
        -11   -1    0    0    0    0 -0.00000000000E+00 -0.00000000000E+00 -0.30000000000E+02  0.30000000000E+02  0.00000000000E+00 0.  1.
          5    1    1    2  501    0 -0.29266947462E+02  0.35089101232E+01 -0.30072139984E+01  0.30000000000E+02  0.47000000000E+01 0.  1.
         -5    1    1    2    0  501  0.29266947462E+02 -0.35089101232E+01  0.30072139984E+01  0.30000000000E+02  0.47000000000E+01 0. -1.
</event>
<event>
 4    1  0.7643770E-002  0.6000000E+02  0.7546771E-02  0.1259629E+00
         11   -1    0    0    0    0  0.00000000000E+00  0.00000000000E+00  0.30000000000E+02  0.30000000000E+02  0.00000000000E+00 0.  1.
        -11   -1    0    0    0    0 -0.00000000000E+00 -0.00000000000E+00 -0.30000000000E+02  0.30000000000E+02  0.00000000000E+00 0. -1.
          5    1    1    2  501    0 -0.12470331650E+02  0.36547930640E+01 -0.26627867286E+02  0.30000000000E+02  0.47000000000E+01 0. -1.
         -5    1    1    2    0  501  0.12470331650E+02 -0.36547930640E+01  0.26627867286E+02  0.30000000000E+02  0.47000000000E+01 0.  1.
</event>
<event>
 4    1  0.7643770E-002  0.6000000E+02  0.7546771E-02  0.1259629E+00
         11   -1    0    0    0    0  0.00000000000E+00  0.00000000000E+00  0.30000000000E+02  0.30000000000E+02  0.00000000000E+00 0.  1.
        -11   -1    0    0    0    0 -0.00000000000E+00 -0.00000000000E+00 -0.30000000000E+02  0.30000000000E+02  0.00000000000E+00 0. -1.
          5    1    1    2  501    0 -0.79142516043E+01 -0.17408147034E+02 -0.22632521698E+02  0.30000000000E+02  0.47000000000E+01 0. -1.
         -5    1    1    2    0  501  0.79142516043E+01  0.17408147034E+02  0.22632521698E+02  0.30000000000E+02  0.47000000000E+01 0.  1.
</event>
<event>
 4    1  0.7643770E-002  0.6000000E+02  0.7546771E-02  0.1259629E+00
         11   -1    0    0    0    0  0.00000000000E+00  0.00000000000E+00  0.30000000000E+02  0.30000000000E+02  0.00000000000E+00 0.  1.
        -11   -1    0    0    0    0 -0.00000000000E+00 -0.00000000000E+00 -0.30000000000E+02  0.30000000000E+02  0.00000000000E+00 0. -1.
          5    1    1    2  501    0 -0.22007842554E+02  0.15113257484E+02 -0.12851237852E+02  0.30000000000E+02  0.47000000000E+01 0. -1.
         -5    1    1    2    0  501  0.22007842554E+02 -0.15113257484E+02  0.12851237852E+02  0.30000000000E+02  0.47000000000E+01 0.  1.
</event>
<event>
 4    1  0.7643770E-002  0.6000000E+02  0.7546771E-02  0.1259629E+00
         11   -1    0    0    0    0  0.00000000000E+00  0.00000000000E+00  0.30000000000E+02  0.30000000000E+02  0.00000000000E+00 0. -1.
        -11   -1    0    0    0    0 -0.00000000000E+00 -0.00000000000E+00 -0.30000000000E+02  0.30000000000E+02  0.00000000000E+00 0.  1.
          5    1    1    2  501    0 -0.25339754164E+02 -0.51952991675E+01 -0.14450457621E+02  0.30000000000E+02  0.47000000000E+01 0.  1.
         -5    1    1    2    0  501  0.25339754164E+02  0.51952991675E+01  0.14450457621E+02  0.30000000000E+02  0.47000000000E+01 0. -1.
</event>
<event>
 4    1  0.7643770E-002  0.6000000E+02  0.7546771E-02  0.1259629E+00
         11   -1    0    0    0    0  0.00000000000E+00  0.00000000000E+00  0.30000000000E+02  0.30000000000E+02  0.00000000000E+00 0.  1.
        -11   -1    0    0    0    0 -0.00000000000E+00 -0.00000000000E+00 -0.30000000000E+02  0.30000000000E+02  0.00000000000E+00 0. -1.
          5    1    1    2  501    0  0.20313377683E+02  0.21563983962E+02  0.52084813826E+00  0.30000000000E+02  0.47000000000E+01 0. -1.
         -5    1    1    2    0  501 -0.20313377683E+02 -0.21563983962E+02 -0.52084813826E+00  0.30000000000E+02  0.47000000000E+01 0.  1.
</event>
<event>
 4    1  0.7643770E-002  0.6000000E+02  0.7546771E-02  0.1259629E+00
         11   -1    0    0    0    0  0.00000000000E+00  0.00000000000E+00  0.30000000000E+02  0.30000000000E+02  0.00000000000E+00 0. -1.
        -11   -1    0    0    0    0 -0.00000000000E+00 -0.00000000000E+00 -0.30000000000E+02  0.30000000000E+02  0.00000000000E+00 0.  1.
          5    1    1    2  501    0  0.94726261669E+01  0.16786059362E+02 -0.22503501163E+02  0.30000000000E+02  0.47000000000E+01 0.  1.
         -5    1    1    2    0  501 -0.94726261669E+01 -0.16786059362E+02  0.22503501163E+02  0.30000000000E+02  0.47000000000E+01 0. -1.
</event>
<event>
 4    1  0.7643770E-002  0.6000000E+02  0.7546771E-02  0.1259629E+00
         11   -1    0    0    0    0  0.00000000000E+00  0.00000000000E+00  0.30000000000E+02  0.30000000000E+02  0.00000000000E+00 0.  1.
        -11   -1    0    0    0    0 -0.00000000000E+00 -0.00000000000E+00 -0.30000000000E+02  0.30000000000E+02  0.00000000000E+00 0. -1.
          5    1    1    2  501    0 -0.54391034793E+01 -0.26852520436E+02  0.11281325258E+02  0.30000000000E+02  0.47000000000E+01 0. -1.
         -5    1    1    2    0  501  0.54391034793E+01  0.26852520436E+02 -0.11281325258E+02  0.30000000000E+02  0.47000000000E+01 0.  1.
</event>
<event>
 4    1  0.7643770E-002  0.6000000E+02  0.7546771E-02  0.1259629E+00
         11   -1    0    0    0    0  0.00000000000E+00  0.00000000000E+00  0.30000000000E+02  0.30000000000E+02  0.00000000000E+00 0.  1.
        -11   -1    0    0    0    0 -0.00000000000E+00 -0.00000000000E+00 -0.30000000000E+02  0.30000000000E+02  0.00000000000E+00 0. -1.
          5    1    1    2  501    0  0.27142770725E+02 -0.77669412048E+01 -0.89919197989E+01  0.30000000000E+02  0.47000000000E+01 0. -1.
         -5    1    1    2    0  501 -0.27142770725E+02  0.77669412048E+01  0.89919197989E+01  0.30000000000E+02  0.47000000000E+01 0.  1.
</event>
<event>
 4    1  0.7643770E-002  0.6000000E+02  0.7546771E-02  0.1259629E+00
         11   -1    0    0    0    0  0.00000000000E+00  0.00000000000E+00  0.30000000000E+02  0.30000000000E+02  0.00000000000E+00 0.  1.
        -11   -1    0    0    0    0 -0.00000000000E+00 -0.00000000000E+00 -0.30000000000E+02  0.30000000000E+02  0.00000000000E+00 0. -1.
          5    1    1    2  501    0 -0.28383915154E+02 -0.10231230141E+01 -0.84389916365E+01  0.30000000000E+02  0.47000000000E+01 0. -1.
         -5    1    1    2    0  501  0.28383915154E+02  0.10231230141E+01  0.84389916365E+01  0.30000000000E+02  0.47000000000E+01 0.  1.
</event>
<event>
 4    1  0.7643770E-002  0.6000000E+02  0.7546771E-02  0.1259629E+00
         11   -1    0    0    0    0  0.00000000000E+00  0.00000000000E+00  0.30000000000E+02  0.30000000000E+02  0.00000000000E+00 0.  1.
        -11   -1    0    0    0    0 -0.00000000000E+00 -0.00000000000E+00 -0.30000000000E+02  0.30000000000E+02  0.00000000000E+00 0. -1.
          5    1    1    2  501    0 -0.11632315802E+02 -0.24935456027E+02 -0.10991918022E+02  0.30000000000E+02  0.47000000000E+01 0. -1.
         -5    1    1    2    0  501  0.11632315802E+02  0.24935456027E+02  0.10991918022E+02  0.30000000000E+02  0.47000000000E+01 0.  1.
</event>
<event>
 4    1  0.7643770E-002  0.6000000E+02  0.7546771E-02  0.1259629E+00
         11   -1    0    0    0    0  0.00000000000E+00  0.00000000000E+00  0.30000000000E+02  0.30000000000E+02  0.00000000000E+00 0.  1.
        -11   -1    0    0    0    0 -0.00000000000E+00 -0.00000000000E+00 -0.30000000000E+02  0.30000000000E+02  0.00000000000E+00 0. -1.
          5    1    1    2  501    0 -0.80160367301E+01 -0.26629117837E+02 -0.10224638789E+02  0.30000000000E+02  0.47000000000E+01 0. -1.
         -5    1    1    2    0  501  0.80160367301E+01  0.26629117837E+02  0.10224638789E+02  0.30000000000E+02  0.47000000000E+01 0.  1.
</event>
<event>
 4    1  0.7643770E-002  0.6000000E+02  0.7546771E-02  0.1259629E+00
         11   -1    0    0    0    0  0.00000000000E+00  0.00000000000E+00  0.30000000000E+02  0.30000000000E+02  0.00000000000E+00 0.  1.
        -11   -1    0    0    0    0 -0.00000000000E+00 -0.00000000000E+00 -0.30000000000E+02  0.30000000000E+02  0.00000000000E+00 0. -1.
          5    1    1    2  501    0  0.26551606476E+00 -0.20340826900E+02 -0.21542754286E+02  0.30000000000E+02  0.47000000000E+01 0. -1.
         -5    1    1    2    0  501 -0.26551606476E+00  0.20340826900E+02  0.21542754286E+02  0.30000000000E+02  0.47000000000E+01 0.  1.
</event>
<event>
 4    1  0.7643770E-002  0.6000000E+02  0.7546771E-02  0.1259629E+00
         11   -1    0    0    0    0  0.00000000000E+00  0.00000000000E+00  0.30000000000E+02  0.30000000000E+02  0.00000000000E+00 0.  1.
        -11   -1    0    0    0    0 -0.00000000000E+00 -0.00000000000E+00 -0.30000000000E+02  0.30000000000E+02  0.00000000000E+00 0. -1.
          5    1    1    2  501    0 -0.27033131162E+02 -0.10317712038E+02 -0.63768830845E+01  0.30000000000E+02  0.47000000000E+01 0. -1.
         -5    1    1    2    0  501  0.27033131162E+02  0.10317712038E+02  0.63768830845E+01  0.30000000000E+02  0.47000000000E+01 0.  1.
</event>
<event>
 4    1  0.7643770E-002  0.6000000E+02  0.7546771E-02  0.1259629E+00
         11   -1    0    0    0    0  0.00000000000E+00  0.00000000000E+00  0.30000000000E+02  0.30000000000E+02  0.00000000000E+00 0. -1.
        -11   -1    0    0    0    0 -0.00000000000E+00 -0.00000000000E+00 -0.30000000000E+02  0.30000000000E+02  0.00000000000E+00 0.  1.
          5    1    1    2  501    0 -0.27914601753E+02 -0.12566944807E+01 -0.98542238645E+01  0.30000000000E+02  0.47000000000E+01 0.  1.
         -5    1    1    2    0  501  0.27914601753E+02  0.12566944807E+01  0.98542238645E+01  0.30000000000E+02  0.47000000000E+01 0. -1.
</event>
<event>
 4    1  0.7643770E-002  0.6000000E+02  0.7546771E-02  0.1259629E+00
         11   -1    0    0    0    0  0.00000000000E+00  0.00000000000E+00  0.30000000000E+02  0.30000000000E+02  0.00000000000E+00 0.  1.
        -11   -1    0    0    0    0 -0.00000000000E+00 -0.00000000000E+00 -0.30000000000E+02  0.30000000000E+02  0.00000000000E+00 0. -1.
          5    1    1    2  501    0 -0.22233172770E+02  0.21209184249E+01 -0.19470432292E+02  0.30000000000E+02  0.47000000000E+01 0. -1.
         -5    1    1    2    0  501  0.22233172770E+02 -0.21209184249E+01  0.19470432292E+02  0.30000000000E+02  0.47000000000E+01 0.  1.
</event>
<event>
 4    1  0.7643770E-002  0.6000000E+02  0.7546771E-02  0.1259629E+00
         11   -1    0    0    0    0  0.00000000000E+00  0.00000000000E+00  0.30000000000E+02  0.30000000000E+02  0.00000000000E+00 0. -1.
        -11   -1    0    0    0    0 -0.00000000000E+00 -0.00000000000E+00 -0.30000000000E+02  0.30000000000E+02  0.00000000000E+00 0.  1.
          5    1    1    2  501    0  0.18692935955E+02 -0.22187410662E+02 -0.60168890241E+01  0.30000000000E+02  0.47000000000E+01 0.  1.
         -5    1    1    2    0  501 -0.18692935955E+02  0.22187410662E+02  0.60168890241E+01  0.30000000000E+02  0.47000000000E+01 0. -1.
</event>
<event>
 4    1  0.7643770E-002  0.6000000E+02  0.7546771E-02  0.1259629E+00
         11   -1    0    0    0    0  0.00000000000E+00  0.00000000000E+00  0.30000000000E+02  0.30000000000E+02  0.00000000000E+00 0. -1.
        -11   -1    0    0    0    0 -0.00000000000E+00 -0.00000000000E+00 -0.30000000000E+02  0.30000000000E+02  0.00000000000E+00 0.  1.
          5    1    1    2  501    0  0.24202975506E+02 -0.10398224240E+02 -0.13564767205E+02  0.30000000000E+02  0.47000000000E+01 0.  1.
         -5    1    1    2    0  501 -0.24202975506E+02  0.10398224240E+02  0.13564767205E+02  0.30000000000E+02  0.47000000000E+01 0. -1.
</event>
<event>
 4    1  0.7643770E-002  0.6000000E+02  0.7546771E-02  0.1259629E+00
         11   -1    0    0    0    0  0.00000000000E+00  0.00000000000E+00  0.30000000000E+02  0.30000000000E+02  0.00000000000E+00 0. -1.
        -11   -1    0    0    0    0 -0.00000000000E+00 -0.00000000000E+00 -0.30000000000E+02  0.30000000000E+02  0.00000000000E+00 0.  1.
          5    1    1    2  501    0 -0.28435437217E+02 -0.23379889186E+01 -0.79918532318E+01  0.30000000000E+02  0.47000000000E+01 0.  1.
         -5    1    1    2    0  501  0.28435437217E+02  0.23379889186E+01  0.79918532318E+01  0.30000000000E+02  0.47000000000E+01 0. -1.
</event>
<event>
 4    1  0.7643770E-002  0.6000000E+02  0.7546771E-02  0.1259629E+00
         11   -1    0    0    0    0  0.00000000000E+00  0.00000000000E+00  0.30000000000E+02  0.30000000000E+02  0.00000000000E+00 0.  1.
        -11   -1    0    0    0    0 -0.00000000000E+00 -0.00000000000E+00 -0.30000000000E+02  0.30000000000E+02  0.00000000000E+00 0. -1.
          5    1    1    2  501    0  0.11986876690E+02 -0.19778726398E+02 -0.18520981867E+02  0.30000000000E+02  0.47000000000E+01 0. -1.
         -5    1    1    2    0  501 -0.11986876690E+02  0.19778726398E+02  0.18520981867E+02  0.30000000000E+02  0.47000000000E+01 0.  1.
</event>
<event>
 4    1  0.7643770E-002  0.6000000E+02  0.7546771E-02  0.1259629E+00
         11   -1    0    0    0    0  0.00000000000E+00  0.00000000000E+00  0.30000000000E+02  0.30000000000E+02  0.00000000000E+00 0.  1.
        -11   -1    0    0    0    0 -0.00000000000E+00 -0.00000000000E+00 -0.30000000000E+02  0.30000000000E+02  0.00000000000E+00 0. -1.
          5    1    1    2  501    0  0.88733651218E+00  0.23345765862E+02 -0.18223552075E+02  0.30000000000E+02  0.47000000000E+01 0. -1.
         -5    1    1    2    0  501 -0.88733651218E+00 -0.23345765862E+02  0.18223552075E+02  0.30000000000E+02  0.47000000000E+01 0.  1.
</event>
<event>
 4    1  0.7643770E-002  0.6000000E+02  0.7546771E-02  0.1259629E+00
         11   -1    0    0    0    0  0.00000000000E+00  0.00000000000E+00  0.30000000000E+02  0.30000000000E+02  0.00000000000E+00 0.  1.
        -11   -1    0    0    0    0 -0.00000000000E+00 -0.00000000000E+00 -0.30000000000E+02  0.30000000000E+02  0.00000000000E+00 0. -1.
          5    1    1    2  501    0  0.25088647319E+02  0.84901421575E+01 -0.13281086621E+02  0.30000000000E+02  0.47000000000E+01 0. -1.
         -5    1    1    2    0  501 -0.25088647319E+02 -0.84901421575E+01  0.13281086621E+02  0.30000000000E+02  0.47000000000E+01 0.  1.
</event>
<event>
 4    1  0.7643770E-002  0.6000000E+02  0.7546771E-02  0.1259629E+00
         11   -1    0    0    0    0  0.00000000000E+00  0.00000000000E+00  0.30000000000E+02  0.30000000000E+02  0.00000000000E+00 0.  1.
        -11   -1    0    0    0    0 -0.00000000000E+00 -0.00000000000E+00 -0.30000000000E+02  0.30000000000E+02  0.00000000000E+00 0. -1.
          5    1    1    2  501    0 -0.14431940825E+02  0.67788778915E+01 -0.24973503930E+02  0.30000000000E+02  0.47000000000E+01 0. -1.
         -5    1    1    2    0  501  0.14431940825E+02 -0.67788778915E+01  0.24973503930E+02  0.30000000000E+02  0.47000000000E+01 0.  1.
</event>
<event>
 4    1  0.7643770E-002  0.6000000E+02  0.7546771E-02  0.1259629E+00
         11   -1    0    0    0    0  0.00000000000E+00  0.00000000000E+00  0.30000000000E+02  0.30000000000E+02  0.00000000000E+00 0.  1.
        -11   -1    0    0    0    0 -0.00000000000E+00 -0.00000000000E+00 -0.30000000000E+02  0.30000000000E+02  0.00000000000E+00 0. -1.
          5    1    1    2  501    0 -0.15809707018E+02  0.51245774706E+00 -0.25053952803E+02  0.30000000000E+02  0.47000000000E+01 0. -1.
         -5    1    1    2    0  501  0.15809707018E+02 -0.51245774706E+00  0.25053952803E+02  0.30000000000E+02  0.47000000000E+01 0.  1.
</event>
<event>
 4    1  0.7643770E-002  0.6000000E+02  0.7546771E-02  0.1259629E+00
         11   -1    0    0    0    0  0.00000000000E+00  0.00000000000E+00  0.30000000000E+02  0.30000000000E+02  0.00000000000E+00 0.  1.
        -11   -1    0    0    0    0 -0.00000000000E+00 -0.00000000000E+00 -0.30000000000E+02  0.30000000000E+02  0.00000000000E+00 0. -1.
          5    1    1    2  501    0  0.25748327300E+02  0.14434560692E+02 -0.25645855158E+01  0.30000000000E+02  0.47000000000E+01 0. -1.
         -5    1    1    2    0  501 -0.25748327300E+02 -0.14434560692E+02  0.25645855158E+01  0.30000000000E+02  0.47000000000E+01 0.  1.
</event>
<event>
 4    1  0.7643770E-002  0.6000000E+02  0.7546771E-02  0.1259629E+00
         11   -1    0    0    0    0  0.00000000000E+00  0.00000000000E+00  0.30000000000E+02  0.30000000000E+02  0.00000000000E+00 0.  1.
        -11   -1    0    0    0    0 -0.00000000000E+00 -0.00000000000E+00 -0.30000000000E+02  0.30000000000E+02  0.00000000000E+00 0. -1.
          5    1    1    2  501    0  0.13305095901E+02 -0.25813533510E+01  0.26348074653E+02  0.30000000000E+02  0.47000000000E+01 0.  1.
         -5    1    1    2    0  501 -0.13305095901E+02  0.25813533510E+01 -0.26348074653E+02  0.30000000000E+02  0.47000000000E+01 0. -1.
</event>
<event>
 4    1  0.7643770E-002  0.6000000E+02  0.7546771E-02  0.1259629E+00
         11   -1    0    0    0    0  0.00000000000E+00  0.00000000000E+00  0.30000000000E+02  0.30000000000E+02  0.00000000000E+00 0.  1.
        -11   -1    0    0    0    0 -0.00000000000E+00 -0.00000000000E+00 -0.30000000000E+02  0.30000000000E+02  0.00000000000E+00 0. -1.
          5    1    1    2  501    0 -0.24188667129E+02  0.17111582446E+02 -0.11013057843E+00  0.30000000000E+02  0.47000000000E+01 0. -1.
         -5    1    1    2    0  501  0.24188667129E+02 -0.17111582446E+02  0.11013057843E+00  0.30000000000E+02  0.47000000000E+01 0.  1.
</event>
<event>
 4    1  0.7643770E-002  0.6000000E+02  0.7546771E-02  0.1259629E+00
         11   -1    0    0    0    0  0.00000000000E+00  0.00000000000E+00  0.30000000000E+02  0.30000000000E+02  0.00000000000E+00 0.  1.
        -11   -1    0    0    0    0 -0.00000000000E+00 -0.00000000000E+00 -0.30000000000E+02  0.30000000000E+02  0.00000000000E+00 0. -1.
          5    1    1    2  501    0 -0.23764525134E+02 -0.17020160138E+02 -0.48447387952E+01  0.30000000000E+02  0.47000000000E+01 0. -1.
         -5    1    1    2    0  501  0.23764525134E+02  0.17020160138E+02  0.48447387952E+01  0.30000000000E+02  0.47000000000E+01 0.  1.
</event>
<event>
 4    1  0.7643770E-002  0.6000000E+02  0.7546771E-02  0.1259629E+00
         11   -1    0    0    0    0  0.00000000000E+00  0.00000000000E+00  0.30000000000E+02  0.30000000000E+02  0.00000000000E+00 0.  1.
        -11   -1    0    0    0    0 -0.00000000000E+00 -0.00000000000E+00 -0.30000000000E+02  0.30000000000E+02  0.00000000000E+00 0. -1.
          5    1    1    2  501    0  0.27284821654E+02  0.60511201257E+01 -0.98403481907E+01  0.30000000000E+02  0.47000000000E+01 0. -1.
         -5    1    1    2    0  501 -0.27284821654E+02 -0.60511201257E+01  0.98403481907E+01  0.30000000000E+02  0.47000000000E+01 0.  1.
</event>
<event>
 4    1  0.7643770E-002  0.6000000E+02  0.7546771E-02  0.1259629E+00
         11   -1    0    0    0    0  0.00000000000E+00  0.00000000000E+00  0.30000000000E+02  0.30000000000E+02  0.00000000000E+00 0.  1.
        -11   -1    0    0    0    0 -0.00000000000E+00 -0.00000000000E+00 -0.30000000000E+02  0.30000000000E+02  0.00000000000E+00 0. -1.
          5    1    1    2  501    0 -0.17458986840E+02 -0.19444094904E+02 -0.13964990221E+02  0.30000000000E+02  0.47000000000E+01 0. -1.
         -5    1    1    2    0  501  0.17458986840E+02  0.19444094904E+02  0.13964990221E+02  0.30000000000E+02  0.47000000000E+01 0.  1.
</event>
<event>
 4    1  0.7643770E-002  0.6000000E+02  0.7546771E-02  0.1259629E+00
         11   -1    0    0    0    0  0.00000000000E+00  0.00000000000E+00  0.30000000000E+02  0.30000000000E+02  0.00000000000E+00 0.  1.
        -11   -1    0    0    0    0 -0.00000000000E+00 -0.00000000000E+00 -0.30000000000E+02  0.30000000000E+02  0.00000000000E+00 0. -1.
          5    1    1    2  501    0  0.22867318478E+02  0.17344457411E+02 -0.73597243653E+01  0.30000000000E+02  0.47000000000E+01 0. -1.
         -5    1    1    2    0  501 -0.22867318478E+02 -0.17344457411E+02  0.73597243653E+01  0.30000000000E+02  0.47000000000E+01 0.  1.
</event>
<event>
 4    1  0.7643770E-002  0.6000000E+02  0.7546771E-02  0.1259629E+00
         11   -1    0    0    0    0  0.00000000000E+00  0.00000000000E+00  0.30000000000E+02  0.30000000000E+02  0.00000000000E+00 0.  1.
        -11   -1    0    0    0    0 -0.00000000000E+00 -0.00000000000E+00 -0.30000000000E+02  0.30000000000E+02  0.00000000000E+00 0. -1.
          5    1    1    2  501    0 -0.27516971602E+02 -0.55770070737E+01 -0.94669565305E+01  0.30000000000E+02  0.47000000000E+01 0. -1.
         -5    1    1    2    0  501  0.27516971602E+02  0.55770070737E+01  0.94669565305E+01  0.30000000000E+02  0.47000000000E+01 0.  1.
</event>
<event>
 4    1  0.7643770E-002  0.6000000E+02  0.7546771E-02  0.1259629E+00
         11   -1    0    0    0    0  0.00000000000E+00  0.00000000000E+00  0.30000000000E+02  0.30000000000E+02  0.00000000000E+00 0. -1.
        -11   -1    0    0    0    0 -0.00000000000E+00 -0.00000000000E+00 -0.30000000000E+02  0.30000000000E+02  0.00000000000E+00 0.  1.
          5    1    1    2  501    0  0.14897810542E+02  0.96756830390E+01 -0.23713844032E+02  0.30000000000E+02  0.47000000000E+01 0.  1.
         -5    1    1    2    0  501 -0.14897810542E+02 -0.96756830390E+01  0.23713844032E+02  0.30000000000E+02  0.47000000000E+01 0. -1.
</event>
<event>
 4    1  0.7643770E-002  0.6000000E+02  0.7546771E-02  0.1259629E+00
         11   -1    0    0    0    0  0.00000000000E+00  0.00000000000E+00  0.30000000000E+02  0.30000000000E+02  0.00000000000E+00 0.  1.
        -11   -1    0    0    0    0 -0.00000000000E+00 -0.00000000000E+00 -0.30000000000E+02  0.30000000000E+02  0.00000000000E+00 0. -1.
          5    1    1    2  501    0  0.72322997327E+01  0.26202262760E+02 -0.11791745708E+02  0.30000000000E+02  0.47000000000E+01 0. -1.
         -5    1    1    2    0  501 -0.72322997327E+01 -0.26202262760E+02  0.11791745708E+02  0.30000000000E+02  0.47000000000E+01 0. -1.
</event>
<event>
 4    1  0.7643770E-002  0.6000000E+02  0.7546771E-02  0.1259629E+00
         11   -1    0    0    0    0  0.00000000000E+00  0.00000000000E+00  0.30000000000E+02  0.30000000000E+02  0.00000000000E+00 0.  1.
        -11   -1    0    0    0    0 -0.00000000000E+00 -0.00000000000E+00 -0.30000000000E+02  0.30000000000E+02  0.00000000000E+00 0. -1.
          5    1    1    2  501    0  0.23346524214E+02 -0.37390128865E+01  0.17856919940E+02  0.30000000000E+02  0.47000000000E+01 0. -1.
         -5    1    1    2    0  501 -0.23346524214E+02  0.37390128865E+01 -0.17856919940E+02  0.30000000000E+02  0.47000000000E+01 0.  1.
</event>
<event>
 4    1  0.7643770E-002  0.6000000E+02  0.7546771E-02  0.1259629E+00
         11   -1    0    0    0    0  0.00000000000E+00  0.00000000000E+00  0.30000000000E+02  0.30000000000E+02  0.00000000000E+00 0. -1.
        -11   -1    0    0    0    0 -0.00000000000E+00 -0.00000000000E+00 -0.30000000000E+02  0.30000000000E+02  0.00000000000E+00 0.  1.
          5    1    1    2  501    0 -0.27038801183E+02  0.64455177003E+01 -0.10260045428E+02  0.30000000000E+02  0.47000000000E+01 0.  1.
         -5    1    1    2    0  501  0.27038801183E+02 -0.64455177003E+01  0.10260045428E+02  0.30000000000E+02  0.47000000000E+01 0. -1.
</event>
<event>
 4    1  0.7643770E-002  0.6000000E+02  0.7546771E-02  0.1259629E+00
         11   -1    0    0    0    0  0.00000000000E+00  0.00000000000E+00  0.30000000000E+02  0.30000000000E+02  0.00000000000E+00 0.  1.
        -11   -1    0    0    0    0 -0.00000000000E+00 -0.00000000000E+00 -0.30000000000E+02  0.30000000000E+02  0.00000000000E+00 0. -1.
          5    1    1    2  501    0  0.20045875236E+02  0.48835962384E+01  0.21265544286E+02  0.30000000000E+02  0.47000000000E+01 0.  1.
         -5    1    1    2    0  501 -0.20045875236E+02 -0.48835962384E+01 -0.21265544286E+02  0.30000000000E+02  0.47000000000E+01 0. -1.
</event>
<event>
 4    1  0.7643770E-002  0.6000000E+02  0.7546771E-02  0.1259629E+00
         11   -1    0    0    0    0  0.00000000000E+00  0.00000000000E+00  0.30000000000E+02  0.30000000000E+02  0.00000000000E+00 0.  1.
        -11   -1    0    0    0    0 -0.00000000000E+00 -0.00000000000E+00 -0.30000000000E+02  0.30000000000E+02  0.00000000000E+00 0. -1.
          5    1    1    2  501    0  0.29270575146E+02 -0.13187146367E+01 -0.44050451027E+01  0.30000000000E+02  0.47000000000E+01 0. -1.
         -5    1    1    2    0  501 -0.29270575146E+02  0.13187146367E+01  0.44050451027E+01  0.30000000000E+02  0.47000000000E+01 0.  1.
</event>
<event>
 4    1  0.7643770E-002  0.6000000E+02  0.7546771E-02  0.1259629E+00
         11   -1    0    0    0    0  0.00000000000E+00  0.00000000000E+00  0.30000000000E+02  0.30000000000E+02  0.00000000000E+00 0. -1.
        -11   -1    0    0    0    0 -0.00000000000E+00 -0.00000000000E+00 -0.30000000000E+02  0.30000000000E+02  0.00000000000E+00 0.  1.
          5    1    1    2  501    0  0.93988535530E+01 -0.21307207352E+02  0.18318691731E+02  0.30000000000E+02  0.47000000000E+01 0. -1.
         -5    1    1    2    0  501 -0.93988535530E+01  0.21307207352E+02 -0.18318691731E+02  0.30000000000E+02  0.47000000000E+01 0.  1.
</event>
<event>
 4    1  0.7643770E-002  0.6000000E+02  0.7546771E-02  0.1259629E+00
         11   -1    0    0    0    0  0.00000000000E+00  0.00000000000E+00  0.30000000000E+02  0.30000000000E+02  0.00000000000E+00 0.  1.
        -11   -1    0    0    0    0 -0.00000000000E+00 -0.00000000000E+00 -0.30000000000E+02  0.30000000000E+02  0.00000000000E+00 0. -1.
          5    1    1    2  501    0  0.14290927920E+02  0.19803127557E+02 -0.16778424185E+02  0.30000000000E+02  0.47000000000E+01 0. -1.
         -5    1    1    2    0  501 -0.14290927920E+02 -0.19803127557E+02  0.16778424185E+02  0.30000000000E+02  0.47000000000E+01 0.  1.
</event>
<event>
 4    1  0.7643770E-002  0.6000000E+02  0.7546771E-02  0.1259629E+00
         11   -1    0    0    0    0  0.00000000000E+00  0.00000000000E+00  0.30000000000E+02  0.30000000000E+02  0.00000000000E+00 0. -1.
        -11   -1    0    0    0    0 -0.00000000000E+00 -0.00000000000E+00 -0.30000000000E+02  0.30000000000E+02  0.00000000000E+00 0.  1.
          5    1    1    2  501    0 -0.47708932275E+01 -0.13083627470E+02 -0.26152767923E+02  0.30000000000E+02  0.47000000000E+01 0.  1.
         -5    1    1    2    0  501  0.47708932275E+01  0.13083627470E+02  0.26152767923E+02  0.30000000000E+02  0.47000000000E+01 0. -1.
</event>
<event>
 4    1  0.7643770E-002  0.6000000E+02  0.7546771E-02  0.1259629E+00
         11   -1    0    0    0    0  0.00000000000E+00  0.00000000000E+00  0.30000000000E+02  0.30000000000E+02  0.00000000000E+00 0. -1.
        -11   -1    0    0    0    0 -0.00000000000E+00 -0.00000000000E+00 -0.30000000000E+02  0.30000000000E+02  0.00000000000E+00 0.  1.
          5    1    1    2  501    0 -0.14556035854E+01 -0.26966756298E+02  0.12189555898E+02  0.30000000000E+02  0.47000000000E+01 0.  1.
         -5    1    1    2    0  501  0.14556035854E+01  0.26966756298E+02 -0.12189555898E+02  0.30000000000E+02  0.47000000000E+01 0. -1.
</event>
<event>
 4    1  0.7643770E-002  0.6000000E+02  0.7546771E-02  0.1259629E+00
         11   -1    0    0    0    0  0.00000000000E+00  0.00000000000E+00  0.30000000000E+02  0.30000000000E+02  0.00000000000E+00 0.  1.
        -11   -1    0    0    0    0 -0.00000000000E+00 -0.00000000000E+00 -0.30000000000E+02  0.30000000000E+02  0.00000000000E+00 0. -1.
          5    1    1    2  501    0  0.14474789005E+02 -0.84761506701E+01 -0.24424277944E+02  0.30000000000E+02  0.47000000000E+01 0. -1.
         -5    1    1    2    0  501 -0.14474789005E+02  0.84761506701E+01  0.24424277944E+02  0.30000000000E+02  0.47000000000E+01 0.  1.
</event>
<event>
 4    1  0.7643770E-002  0.6000000E+02  0.7546771E-02  0.1259629E+00
         11   -1    0    0    0    0  0.00000000000E+00  0.00000000000E+00  0.30000000000E+02  0.30000000000E+02  0.00000000000E+00 0.  1.
        -11   -1    0    0    0    0 -0.00000000000E+00 -0.00000000000E+00 -0.30000000000E+02  0.30000000000E+02  0.00000000000E+00 0. -1.
          5    1    1    2  501    0  0.13169695647E+02 -0.58675719191E+00 -0.26535350621E+02  0.30000000000E+02  0.47000000000E+01 0. -1.
         -5    1    1    2    0  501 -0.13169695647E+02  0.58675719191E+00  0.26535350621E+02  0.30000000000E+02  0.47000000000E+01 0.  1.
</event>
<event>
 4    1  0.7643770E-002  0.6000000E+02  0.7546771E-02  0.1259629E+00
         11   -1    0    0    0    0  0.00000000000E+00  0.00000000000E+00  0.30000000000E+02  0.30000000000E+02  0.00000000000E+00 0.  1.
        -11   -1    0    0    0    0 -0.00000000000E+00 -0.00000000000E+00 -0.30000000000E+02  0.30000000000E+02  0.00000000000E+00 0. -1.
          5    1    1    2  501    0  0.20830881560E+02  0.12072936579E+02 -0.17269295753E+02  0.30000000000E+02  0.47000000000E+01 0. -1.
         -5    1    1    2    0  501 -0.20830881560E+02 -0.12072936579E+02  0.17269295753E+02  0.30000000000E+02  0.47000000000E+01 0.  1.
</event>
<event>
 4    1  0.7643770E-002  0.6000000E+02  0.7546771E-02  0.1259629E+00
         11   -1    0    0    0    0  0.00000000000E+00  0.00000000000E+00  0.30000000000E+02  0.30000000000E+02  0.00000000000E+00 0. -1.
        -11   -1    0    0    0    0 -0.00000000000E+00 -0.00000000000E+00 -0.30000000000E+02  0.30000000000E+02  0.00000000000E+00 0.  1.
          5    1    1    2  501    0  0.55943613867E+01 -0.28959176608E+02  0.28247496960E+01  0.30000000000E+02  0.47000000000E+01 0.  1.
         -5    1    1    2    0  501 -0.55943613867E+01  0.28959176608E+02 -0.28247496960E+01  0.30000000000E+02  0.47000000000E+01 0. -1.
</event>
<event>
 4    1  0.7643770E-002  0.6000000E+02  0.7546771E-02  0.1259629E+00
         11   -1    0    0    0    0  0.00000000000E+00  0.00000000000E+00  0.30000000000E+02  0.30000000000E+02  0.00000000000E+00 0.  1.
        -11   -1    0    0    0    0 -0.00000000000E+00 -0.00000000000E+00 -0.30000000000E+02  0.30000000000E+02  0.00000000000E+00 0. -1.
          5    1    1    2  501    0 -0.52237332120E+01  0.21406401537E+02 -0.19808800685E+02  0.30000000000E+02  0.47000000000E+01 0. -1.
         -5    1    1    2    0  501  0.52237332120E+01 -0.21406401537E+02  0.19808800685E+02  0.30000000000E+02  0.47000000000E+01 0.  1.
</event>
<event>
 4    1  0.7643770E-002  0.6000000E+02  0.7546771E-02  0.1259629E+00
         11   -1    0    0    0    0  0.00000000000E+00  0.00000000000E+00  0.30000000000E+02  0.30000000000E+02  0.00000000000E+00 0. -1.
        -11   -1    0    0    0    0 -0.00000000000E+00 -0.00000000000E+00 -0.30000000000E+02  0.30000000000E+02  0.00000000000E+00 0.  1.
          5    1    1    2  501    0  0.60135729671E+01 -0.77301725775E+01 -0.27964108641E+02  0.30000000000E+02  0.47000000000E+01 0.  1.
         -5    1    1    2    0  501 -0.60135729671E+01  0.77301725775E+01  0.27964108641E+02  0.30000000000E+02  0.47000000000E+01 0. -1.
</event>
<event>
 4    1  0.7643770E-002  0.6000000E+02  0.7546771E-02  0.1259629E+00
         11   -1    0    0    0    0  0.00000000000E+00  0.00000000000E+00  0.30000000000E+02  0.30000000000E+02  0.00000000000E+00 0.  1.
        -11   -1    0    0    0    0 -0.00000000000E+00 -0.00000000000E+00 -0.30000000000E+02  0.30000000000E+02  0.00000000000E+00 0. -1.
          5    1    1    2  501    0  0.10578610030E+02 -0.26632381064E+02 -0.75312209304E+01  0.30000000000E+02  0.47000000000E+01 0. -1.
         -5    1    1    2    0  501 -0.10578610030E+02  0.26632381064E+02  0.75312209304E+01  0.30000000000E+02  0.47000000000E+01 0.  1.
</event>
<event>
 4    1  0.7643770E-002  0.6000000E+02  0.7546771E-02  0.1259629E+00
         11   -1    0    0    0    0  0.00000000000E+00  0.00000000000E+00  0.30000000000E+02  0.30000000000E+02  0.00000000000E+00 0. -1.
        -11   -1    0    0    0    0 -0.00000000000E+00 -0.00000000000E+00 -0.30000000000E+02  0.30000000000E+02  0.00000000000E+00 0.  1.
          5    1    1    2  501    0  0.16883542481E+02  0.59670886307E+01 -0.23606140018E+02  0.30000000000E+02  0.47000000000E+01 0.  1.
         -5    1    1    2    0  501 -0.16883542481E+02 -0.59670886307E+01  0.23606140018E+02  0.30000000000E+02  0.47000000000E+01 0. -1.
</event>
<event>
 4    1  0.7643770E-002  0.6000000E+02  0.7546771E-02  0.1259629E+00
         11   -1    0    0    0    0  0.00000000000E+00  0.00000000000E+00  0.30000000000E+02  0.30000000000E+02  0.00000000000E+00 0.  1.
        -11   -1    0    0    0    0 -0.00000000000E+00 -0.00000000000E+00 -0.30000000000E+02  0.30000000000E+02  0.00000000000E+00 0. -1.
          5    1    1    2  501    0  0.99576972615E+01 -0.19632983410E+02 -0.19831798397E+02  0.30000000000E+02  0.47000000000E+01 0. -1.
         -5    1    1    2    0  501 -0.99576972615E+01  0.19632983410E+02  0.19831798397E+02  0.30000000000E+02  0.47000000000E+01 0.  1.
</event>
<event>
 4    1  0.7643770E-002  0.6000000E+02  0.7546771E-02  0.1259629E+00
         11   -1    0    0    0    0  0.00000000000E+00  0.00000000000E+00  0.30000000000E+02  0.30000000000E+02  0.00000000000E+00 0.  1.
        -11   -1    0    0    0    0 -0.00000000000E+00 -0.00000000000E+00 -0.30000000000E+02  0.30000000000E+02  0.00000000000E+00 0. -1.
          5    1    1    2  501    0 -0.13578722086E+02 -0.45953652583E+00 -0.26330915910E+02  0.30000000000E+02  0.47000000000E+01 0. -1.
         -5    1    1    2    0  501  0.13578722086E+02  0.45953652583E+00  0.26330915910E+02  0.30000000000E+02  0.47000000000E+01 0.  1.
</event>
<event>
 4    1  0.7643770E-002  0.6000000E+02  0.7546771E-02  0.1259629E+00
         11   -1    0    0    0    0  0.00000000000E+00  0.00000000000E+00  0.30000000000E+02  0.30000000000E+02  0.00000000000E+00 0.  1.
        -11   -1    0    0    0    0 -0.00000000000E+00 -0.00000000000E+00 -0.30000000000E+02  0.30000000000E+02  0.00000000000E+00 0. -1.
          5    1    1    2  501    0 -0.10856085488E+02  0.26056694213E+02 -0.90057811744E+01  0.30000000000E+02  0.47000000000E+01 0. -1.
         -5    1    1    2    0  501  0.10856085488E+02 -0.26056694213E+02  0.90057811744E+01  0.30000000000E+02  0.47000000000E+01 0.  1.
</event>
<event>
 4    1  0.7643770E-002  0.6000000E+02  0.7546771E-02  0.1259629E+00
         11   -1    0    0    0    0  0.00000000000E+00  0.00000000000E+00  0.30000000000E+02  0.30000000000E+02  0.00000000000E+00 0.  1.
        -11   -1    0    0    0    0 -0.00000000000E+00 -0.00000000000E+00 -0.30000000000E+02  0.30000000000E+02  0.00000000000E+00 0. -1.
          5    1    1    2  501    0  0.98690720227E+01  0.19593672237E+02 -0.19914804184E+02  0.30000000000E+02  0.47000000000E+01 0. -1.
         -5    1    1    2    0  501 -0.98690720227E+01 -0.19593672237E+02  0.19914804184E+02  0.30000000000E+02  0.47000000000E+01 0.  1.
</event>
<event>
 4    1  0.7643770E-002  0.6000000E+02  0.7546771E-02  0.1259629E+00
         11   -1    0    0    0    0  0.00000000000E+00  0.00000000000E+00  0.30000000000E+02  0.30000000000E+02  0.00000000000E+00 0.  1.
        -11   -1    0    0    0    0 -0.00000000000E+00 -0.00000000000E+00 -0.30000000000E+02  0.30000000000E+02  0.00000000000E+00 0. -1.
          5    1    1    2  501    0  0.16185504614E+02  0.38819627419E+01 -0.24512645831E+02  0.30000000000E+02  0.47000000000E+01 0. -1.
         -5    1    1    2    0  501 -0.16185504614E+02 -0.38819627419E+01  0.24512645831E+02  0.30000000000E+02  0.47000000000E+01 0.  1.
</event>
<event>
 4    1  0.7643770E-002  0.6000000E+02  0.7546771E-02  0.1259629E+00
         11   -1    0    0    0    0  0.00000000000E+00  0.00000000000E+00  0.30000000000E+02  0.30000000000E+02  0.00000000000E+00 0.  1.
        -11   -1    0    0    0    0 -0.00000000000E+00 -0.00000000000E+00 -0.30000000000E+02  0.30000000000E+02  0.00000000000E+00 0. -1.
          5    1    1    2  501    0  0.27850892865E+02 -0.43101812100E+01 -0.91465897778E+01  0.30000000000E+02  0.47000000000E+01 0. -1.
         -5    1    1    2    0  501 -0.27850892865E+02  0.43101812100E+01  0.91465897778E+01  0.30000000000E+02  0.47000000000E+01 0.  1.
</event>
<event>
 4    1  0.7643770E-002  0.6000000E+02  0.7546771E-02  0.1259629E+00
         11   -1    0    0    0    0  0.00000000000E+00  0.00000000000E+00  0.30000000000E+02  0.30000000000E+02  0.00000000000E+00 0.  1.
        -11   -1    0    0    0    0 -0.00000000000E+00 -0.00000000000E+00 -0.30000000000E+02  0.30000000000E+02  0.00000000000E+00 0. -1.
          5    1    1    2  501    0 -0.18729847332E+02 -0.15351475802E+02 -0.17071467705E+02  0.30000000000E+02  0.47000000000E+01 0. -1.
         -5    1    1    2    0  501  0.18729847332E+02  0.15351475802E+02  0.17071467705E+02  0.30000000000E+02  0.47000000000E+01 0.  1.
</event>
<event>
 4    1  0.7643770E-002  0.6000000E+02  0.7546771E-02  0.1259629E+00
         11   -1    0    0    0    0  0.00000000000E+00  0.00000000000E+00  0.30000000000E+02  0.30000000000E+02  0.00000000000E+00 0.  1.
        -11   -1    0    0    0    0 -0.00000000000E+00 -0.00000000000E+00 -0.30000000000E+02  0.30000000000E+02  0.00000000000E+00 0. -1.
          5    1    1    2  501    0 -0.43740390544E+01  0.11305644767E+02 -0.27036275238E+02  0.30000000000E+02  0.47000000000E+01 0. -1.
         -5    1    1    2    0  501  0.43740390544E+01 -0.11305644767E+02  0.27036275238E+02  0.30000000000E+02  0.47000000000E+01 0.  1.
</event>
<event>
 4    1  0.7643770E-002  0.6000000E+02  0.7546771E-02  0.1259629E+00
         11   -1    0    0    0    0  0.00000000000E+00  0.00000000000E+00  0.30000000000E+02  0.30000000000E+02  0.00000000000E+00 0.  1.
        -11   -1    0    0    0    0 -0.00000000000E+00 -0.00000000000E+00 -0.30000000000E+02  0.30000000000E+02  0.00000000000E+00 0. -1.
          5    1    1    2  501    0 -0.53643370159E+01  0.62577014400E+01 -0.28460060806E+02  0.30000000000E+02  0.47000000000E+01 0. -1.
         -5    1    1    2    0  501  0.53643370159E+01 -0.62577014400E+01  0.28460060806E+02  0.30000000000E+02  0.47000000000E+01 0.  1.
</event>
<event>
 4    1  0.7643770E-002  0.6000000E+02  0.7546771E-02  0.1259629E+00
         11   -1    0    0    0    0  0.00000000000E+00  0.00000000000E+00  0.30000000000E+02  0.30000000000E+02  0.00000000000E+00 0. -1.
        -11   -1    0    0    0    0 -0.00000000000E+00 -0.00000000000E+00 -0.30000000000E+02  0.30000000000E+02  0.00000000000E+00 0.  1.
          5    1    1    2  501    0  0.24919864913E+01 -0.26627640045E+02 -0.12754167513E+02  0.30000000000E+02  0.47000000000E+01 0.  1.
         -5    1    1    2    0  501 -0.24919864913E+01  0.26627640045E+02  0.12754167513E+02  0.30000000000E+02  0.47000000000E+01 0. -1.
</event>
<event>
 4    1  0.7643770E-002  0.6000000E+02  0.7546771E-02  0.1259629E+00
         11   -1    0    0    0    0  0.00000000000E+00  0.00000000000E+00  0.30000000000E+02  0.30000000000E+02  0.00000000000E+00 0.  1.
        -11   -1    0    0    0    0 -0.00000000000E+00 -0.00000000000E+00 -0.30000000000E+02  0.30000000000E+02  0.00000000000E+00 0. -1.
          5    1    1    2  501    0  0.17147403687E+02 -0.22097585148E+02 -0.97761586243E+01  0.30000000000E+02  0.47000000000E+01 0. -1.
         -5    1    1    2    0  501 -0.17147403687E+02  0.22097585148E+02  0.97761586243E+01  0.30000000000E+02  0.47000000000E+01 0.  1.
</event>
<event>
 4    1  0.7643770E-002  0.6000000E+02  0.7546771E-02  0.1259629E+00
         11   -1    0    0    0    0  0.00000000000E+00  0.00000000000E+00  0.30000000000E+02  0.30000000000E+02  0.00000000000E+00 0.  1.
        -11   -1    0    0    0    0 -0.00000000000E+00 -0.00000000000E+00 -0.30000000000E+02  0.30000000000E+02  0.00000000000E+00 0. -1.
          5    1    1    2  501    0  0.23142058376E+02  0.95501633484E+01  0.15847697440E+02  0.30000000000E+02  0.47000000000E+01 0.  1.
         -5    1    1    2    0  501 -0.23142058376E+02 -0.95501633484E+01 -0.15847697440E+02  0.30000000000E+02  0.47000000000E+01 0. -1.
</event>
<event>
 4    1  0.7643770E-002  0.6000000E+02  0.7546771E-02  0.1259629E+00
         11   -1    0    0    0    0  0.00000000000E+00  0.00000000000E+00  0.30000000000E+02  0.30000000000E+02  0.00000000000E+00 0. -1.
        -11   -1    0    0    0    0 -0.00000000000E+00 -0.00000000000E+00 -0.30000000000E+02  0.30000000000E+02  0.00000000000E+00 0.  1.
          5    1    1    2  501    0  0.21327930438E+01  0.29310252676E+02  0.37776026625E+01  0.30000000000E+02  0.47000000000E+01 0.  1.
         -5    1    1    2    0  501 -0.21327930438E+01 -0.29310252676E+02 -0.37776026625E+01  0.30000000000E+02  0.47000000000E+01 0. -1.
</event>
<event>
 4    1  0.7643770E-002  0.6000000E+02  0.7546771E-02  0.1259629E+00
         11   -1    0    0    0    0  0.00000000000E+00  0.00000000000E+00  0.30000000000E+02  0.30000000000E+02  0.00000000000E+00 0.  1.
        -11   -1    0    0    0    0 -0.00000000000E+00 -0.00000000000E+00 -0.30000000000E+02  0.30000000000E+02  0.00000000000E+00 0. -1.
          5    1    1    2  501    0  0.27396947578E+02  0.16905817335E+01 -0.11156128217E+02  0.30000000000E+02  0.47000000000E+01 0. -1.
         -5    1    1    2    0  501 -0.27396947578E+02 -0.16905817335E+01  0.11156128217E+02  0.30000000000E+02  0.47000000000E+01 0.  1.
</event>
<event>
 4    1  0.7643770E-002  0.6000000E+02  0.7546771E-02  0.1259629E+00
         11   -1    0    0    0    0  0.00000000000E+00  0.00000000000E+00  0.30000000000E+02  0.30000000000E+02  0.00000000000E+00 0.  1.
        -11   -1    0    0    0    0 -0.00000000000E+00 -0.00000000000E+00 -0.30000000000E+02  0.30000000000E+02  0.00000000000E+00 0. -1.
          5    1    1    2  501    0  0.20089818834E+01 -0.15551224598E+02 -0.25140274567E+02  0.30000000000E+02  0.47000000000E+01 0. -1.
         -5    1    1    2    0  501 -0.20089818834E+01  0.15551224598E+02  0.25140274567E+02  0.30000000000E+02  0.47000000000E+01 0.  1.
</event>
<event>
 4    1  0.7643770E-002  0.6000000E+02  0.7546771E-02  0.1259629E+00
         11   -1    0    0    0    0  0.00000000000E+00  0.00000000000E+00  0.30000000000E+02  0.30000000000E+02  0.00000000000E+00 0.  1.
        -11   -1    0    0    0    0 -0.00000000000E+00 -0.00000000000E+00 -0.30000000000E+02  0.30000000000E+02  0.00000000000E+00 0. -1.
          5    1    1    2  501    0  0.71391094759E+01  0.28166644750E+02 -0.57951047794E+01  0.30000000000E+02  0.47000000000E+01 0. -1.
         -5    1    1    2    0  501 -0.71391094759E+01 -0.28166644750E+02  0.57951047794E+01  0.30000000000E+02  0.47000000000E+01 0.  1.
</event>
<event>
 4    1  0.7643770E-002  0.6000000E+02  0.7546771E-02  0.1259629E+00
         11   -1    0    0    0    0  0.00000000000E+00  0.00000000000E+00  0.30000000000E+02  0.30000000000E+02  0.00000000000E+00 0. -1.
        -11   -1    0    0    0    0 -0.00000000000E+00 -0.00000000000E+00 -0.30000000000E+02  0.30000000000E+02  0.00000000000E+00 0.  1.
          5    1    1    2  501    0  0.23500471805E+02 -0.10651382892E+02 -0.14566601094E+02  0.30000000000E+02  0.47000000000E+01 0.  1.
         -5    1    1    2    0  501 -0.23500471805E+02  0.10651382892E+02  0.14566601094E+02  0.30000000000E+02  0.47000000000E+01 0. -1.
</event>
<event>
 4    1  0.7643770E-002  0.6000000E+02  0.7546771E-02  0.1259629E+00
         11   -1    0    0    0    0  0.00000000000E+00  0.00000000000E+00  0.30000000000E+02  0.30000000000E+02  0.00000000000E+00 0.  1.
        -11   -1    0    0    0    0 -0.00000000000E+00 -0.00000000000E+00 -0.30000000000E+02  0.30000000000E+02  0.00000000000E+00 0. -1.
          5    1    1    2  501    0  0.98133877892E+01 -0.13678960482E+02 -0.24382236571E+02  0.30000000000E+02  0.47000000000E+01 0. -1.
         -5    1    1    2    0  501 -0.98133877892E+01  0.13678960482E+02  0.24382236571E+02  0.30000000000E+02  0.47000000000E+01 0.  1.
</event>
<event>
 4    1  0.7643770E-002  0.6000000E+02  0.7546771E-02  0.1259629E+00
         11   -1    0    0    0    0  0.00000000000E+00  0.00000000000E+00  0.30000000000E+02  0.30000000000E+02  0.00000000000E+00 0. -1.
        -11   -1    0    0    0    0 -0.00000000000E+00 -0.00000000000E+00 -0.30000000000E+02  0.30000000000E+02  0.00000000000E+00 0.  1.
          5    1    1    2  501    0  0.18418565268E+01 -0.27286175068E+02 -0.11400974288E+02  0.30000000000E+02  0.47000000000E+01 0.  1.
         -5    1    1    2    0  501 -0.18418565268E+01  0.27286175068E+02  0.11400974288E+02  0.30000000000E+02  0.47000000000E+01 0. -1.
</event>
<event>
 4    1  0.7643770E-002  0.6000000E+02  0.7546771E-02  0.1259629E+00
         11   -1    0    0    0    0  0.00000000000E+00  0.00000000000E+00  0.30000000000E+02  0.30000000000E+02  0.00000000000E+00 0.  1.
        -11   -1    0    0    0    0 -0.00000000000E+00 -0.00000000000E+00 -0.30000000000E+02  0.30000000000E+02  0.00000000000E+00 0. -1.
          5    1    1    2  501    0 -0.17082424130E+02 -0.19232406222E+02  0.14704262536E+02  0.30000000000E+02  0.47000000000E+01 0.  1.
         -5    1    1    2    0  501  0.17082424130E+02  0.19232406222E+02 -0.14704262536E+02  0.30000000000E+02  0.47000000000E+01 0. -1.
</event>
<event>
 4    1  0.7643770E-002  0.6000000E+02  0.7546771E-02  0.1259629E+00
         11   -1    0    0    0    0  0.00000000000E+00  0.00000000000E+00  0.30000000000E+02  0.30000000000E+02  0.00000000000E+00 0.  1.
        -11   -1    0    0    0    0 -0.00000000000E+00 -0.00000000000E+00 -0.30000000000E+02  0.30000000000E+02  0.00000000000E+00 0. -1.
          5    1    1    2  501    0  0.51329786824E+01  0.26279753720E+02  0.12686097677E+02  0.30000000000E+02  0.47000000000E+01 0. -1.
         -5    1    1    2    0  501 -0.51329786824E+01 -0.26279753720E+02 -0.12686097677E+02  0.30000000000E+02  0.47000000000E+01 0.  1.
</event>
<event>
 4    1  0.7643770E-002  0.6000000E+02  0.7546771E-02  0.1259629E+00
         11   -1    0    0    0    0  0.00000000000E+00  0.00000000000E+00  0.30000000000E+02  0.30000000000E+02  0.00000000000E+00 0.  1.
        -11   -1    0    0    0    0 -0.00000000000E+00 -0.00000000000E+00 -0.30000000000E+02  0.30000000000E+02  0.00000000000E+00 0. -1.
          5    1    1    2  501    0  0.34122745539E+01  0.26068385244E+02 -0.13664028438E+02  0.30000000000E+02  0.47000000000E+01 0. -1.
         -5    1    1    2    0  501 -0.34122745539E+01 -0.26068385244E+02  0.13664028438E+02  0.30000000000E+02  0.47000000000E+01 0.  1.
</event>
<event>
 4    1  0.7643770E-002  0.6000000E+02  0.7546771E-02  0.1259629E+00
         11   -1    0    0    0    0  0.00000000000E+00  0.00000000000E+00  0.30000000000E+02  0.30000000000E+02  0.00000000000E+00 0.  1.
        -11   -1    0    0    0    0 -0.00000000000E+00 -0.00000000000E+00 -0.30000000000E+02  0.30000000000E+02  0.00000000000E+00 0. -1.
          5    1    1    2  501    0  0.72254047042E+00  0.13226364605E+02  0.26503796230E+02  0.30000000000E+02  0.47000000000E+01 0.  1.
         -5    1    1    2    0  501 -0.72254047042E+00 -0.13226364605E+02 -0.26503796230E+02  0.30000000000E+02  0.47000000000E+01 0. -1.
</event>
<event>
 4    1  0.7643770E-002  0.6000000E+02  0.7546771E-02  0.1259629E+00
         11   -1    0    0    0    0  0.00000000000E+00  0.00000000000E+00  0.30000000000E+02  0.30000000000E+02  0.00000000000E+00 0.  1.
        -11   -1    0    0    0    0 -0.00000000000E+00 -0.00000000000E+00 -0.30000000000E+02  0.30000000000E+02  0.00000000000E+00 0. -1.
          5    1    1    2  501    0  0.50519760145E+01  0.23786003700E+02 -0.16929665275E+02  0.30000000000E+02  0.47000000000E+01 0. -1.
         -5    1    1    2    0  501 -0.50519760145E+01 -0.23786003700E+02  0.16929665275E+02  0.30000000000E+02  0.47000000000E+01 0.  1.
</event>
<event>
 4    1  0.7643770E-002  0.6000000E+02  0.7546771E-02  0.1259629E+00
         11   -1    0    0    0    0  0.00000000000E+00  0.00000000000E+00  0.30000000000E+02  0.30000000000E+02  0.00000000000E+00 0. -1.
        -11   -1    0    0    0    0 -0.00000000000E+00 -0.00000000000E+00 -0.30000000000E+02  0.30000000000E+02  0.00000000000E+00 0.  1.
          5    1    1    2  501    0  0.25864890052E+02 -0.31575490780E+01 -0.14104869600E+02  0.30000000000E+02  0.47000000000E+01 0.  1.
         -5    1    1    2    0  501 -0.25864890052E+02  0.31575490780E+01  0.14104869600E+02  0.30000000000E+02  0.47000000000E+01 0. -1.
</event>
<event>
 4    1  0.7643770E-002  0.6000000E+02  0.7546771E-02  0.1259629E+00
         11   -1    0    0    0    0  0.00000000000E+00  0.00000000000E+00  0.30000000000E+02  0.30000000000E+02  0.00000000000E+00 0. -1.
        -11   -1    0    0    0    0 -0.00000000000E+00 -0.00000000000E+00 -0.30000000000E+02  0.30000000000E+02  0.00000000000E+00 0.  1.
          5    1    1    2  501    0 -0.10568667140E+02 -0.17096247684E+02  0.21769969913E+02  0.30000000000E+02  0.47000000000E+01 0. -1.
         -5    1    1    2    0  501  0.10568667140E+02  0.17096247684E+02 -0.21769969913E+02  0.30000000000E+02  0.47000000000E+01 0.  1.
</event>
<event>
 4    1  0.7643770E-002  0.6000000E+02  0.7546771E-02  0.1259629E+00
         11   -1    0    0    0    0  0.00000000000E+00  0.00000000000E+00  0.30000000000E+02  0.30000000000E+02  0.00000000000E+00 0.  1.
        -11   -1    0    0    0    0 -0.00000000000E+00 -0.00000000000E+00 -0.30000000000E+02  0.30000000000E+02  0.00000000000E+00 0. -1.
          5    1    1    2  501    0 -0.24772880514E+02  0.91529873151E+01 -0.13432691996E+02  0.30000000000E+02  0.47000000000E+01 0. -1.
         -5    1    1    2    0  501  0.24772880514E+02 -0.91529873151E+01  0.13432691996E+02  0.30000000000E+02  0.47000000000E+01 0.  1.
</event>
<event>
 4    1  0.7643770E-002  0.6000000E+02  0.7546771E-02  0.1259629E+00
         11   -1    0    0    0    0  0.00000000000E+00  0.00000000000E+00  0.30000000000E+02  0.30000000000E+02  0.00000000000E+00 0.  1.
        -11   -1    0    0    0    0 -0.00000000000E+00 -0.00000000000E+00 -0.30000000000E+02  0.30000000000E+02  0.00000000000E+00 0. -1.
          5    1    1    2  501    0 -0.23362598288E+02 -0.16639593673E+02  0.74312127976E+01  0.30000000000E+02  0.47000000000E+01 0.  1.
         -5    1    1    2    0  501  0.23362598288E+02  0.16639593673E+02 -0.74312127976E+01  0.30000000000E+02  0.47000000000E+01 0. -1.
</event>
<event>
 4    1  0.7643770E-002  0.6000000E+02  0.7546771E-02  0.1259629E+00
         11   -1    0    0    0    0  0.00000000000E+00  0.00000000000E+00  0.30000000000E+02  0.30000000000E+02  0.00000000000E+00 0. -1.
        -11   -1    0    0    0    0 -0.00000000000E+00 -0.00000000000E+00 -0.30000000000E+02  0.30000000000E+02  0.00000000000E+00 0.  1.
          5    1    1    2  501    0 -0.18589679154E+02 -0.46274274305E+01 -0.22603556011E+02  0.30000000000E+02  0.47000000000E+01 0.  1.
         -5    1    1    2    0  501  0.18589679154E+02  0.46274274305E+01  0.22603556011E+02  0.30000000000E+02  0.47000000000E+01 0. -1.
</event>
<event>
 4    1  0.7643770E-002  0.6000000E+02  0.7546771E-02  0.1259629E+00
         11   -1    0    0    0    0  0.00000000000E+00  0.00000000000E+00  0.30000000000E+02  0.30000000000E+02  0.00000000000E+00 0.  1.
        -11   -1    0    0    0    0 -0.00000000000E+00 -0.00000000000E+00 -0.30000000000E+02  0.30000000000E+02  0.00000000000E+00 0. -1.
          5    1    1    2  501    0 -0.24023247990E+02  0.77190020377E+01 -0.15530955011E+02  0.30000000000E+02  0.47000000000E+01 0. -1.
         -5    1    1    2    0  501  0.24023247990E+02 -0.77190020377E+01  0.15530955011E+02  0.30000000000E+02  0.47000000000E+01 0.  1.
</event>
<event>
 4    1  0.7643770E-002  0.6000000E+02  0.7546771E-02  0.1259629E+00
         11   -1    0    0    0    0  0.00000000000E+00  0.00000000000E+00  0.30000000000E+02  0.30000000000E+02  0.00000000000E+00 0. -1.
        -11   -1    0    0    0    0 -0.00000000000E+00 -0.00000000000E+00 -0.30000000000E+02  0.30000000000E+02  0.00000000000E+00 0.  1.
          5    1    1    2  501    0 -0.66412381734E+01 -0.12605339184E+02 -0.25979018064E+02  0.30000000000E+02  0.47000000000E+01 0.  1.
         -5    1    1    2    0  501  0.66412381734E+01  0.12605339184E+02  0.25979018064E+02  0.30000000000E+02  0.47000000000E+01 0. -1.
</event>
<event>
 4    1  0.7643770E-002  0.6000000E+02  0.7546771E-02  0.1259629E+00
         11   -1    0    0    0    0  0.00000000000E+00  0.00000000000E+00  0.30000000000E+02  0.30000000000E+02  0.00000000000E+00 0.  1.
        -11   -1    0    0    0    0 -0.00000000000E+00 -0.00000000000E+00 -0.30000000000E+02  0.30000000000E+02  0.00000000000E+00 0. -1.
          5    1    1    2  501    0 -0.31365083765E+01 -0.10879699297E+01 -0.29442972619E+02  0.30000000000E+02  0.47000000000E+01 0. -1.
         -5    1    1    2    0  501  0.31365083765E+01  0.10879699297E+01  0.29442972619E+02  0.30000000000E+02  0.47000000000E+01 0.  1.
</event>
<event>
 4    1  0.7643770E-002  0.6000000E+02  0.7546771E-02  0.1259629E+00
         11   -1    0    0    0    0  0.00000000000E+00  0.00000000000E+00  0.30000000000E+02  0.30000000000E+02  0.00000000000E+00 0.  1.
        -11   -1    0    0    0    0 -0.00000000000E+00 -0.00000000000E+00 -0.30000000000E+02  0.30000000000E+02  0.00000000000E+00 0. -1.
          5    1    1    2  501    0 -0.55288541846E+01 -0.19238743104E+02  0.21845194785E+02  0.30000000000E+02  0.47000000000E+01 0.  1.
         -5    1    1    2    0  501  0.55288541846E+01  0.19238743104E+02 -0.21845194785E+02  0.30000000000E+02  0.47000000000E+01 0. -1.
</event>
<event>
 4    1  0.7643770E-002  0.6000000E+02  0.7546771E-02  0.1259629E+00
         11   -1    0    0    0    0  0.00000000000E+00  0.00000000000E+00  0.30000000000E+02  0.30000000000E+02  0.00000000000E+00 0. -1.
        -11   -1    0    0    0    0 -0.00000000000E+00 -0.00000000000E+00 -0.30000000000E+02  0.30000000000E+02  0.00000000000E+00 0.  1.
          5    1    1    2  501    0  0.43802803485E+01  0.20855259011E+02 -0.20585949472E+02  0.30000000000E+02  0.47000000000E+01 0.  1.
         -5    1    1    2    0  501 -0.43802803485E+01 -0.20855259011E+02  0.20585949472E+02  0.30000000000E+02  0.47000000000E+01 0. -1.
</event>
<event>
 4    1  0.7643770E-002  0.6000000E+02  0.7546771E-02  0.1259629E+00
         11   -1    0    0    0    0  0.00000000000E+00  0.00000000000E+00  0.30000000000E+02  0.30000000000E+02  0.00000000000E+00 0.  1.
        -11   -1    0    0    0    0 -0.00000000000E+00 -0.00000000000E+00 -0.30000000000E+02  0.30000000000E+02  0.00000000000E+00 0. -1.
          5    1    1    2  501    0  0.21663983512E+02  0.17362658194E+02 -0.10349875304E+02  0.30000000000E+02  0.47000000000E+01 0. -1.
         -5    1    1    2    0  501 -0.21663983512E+02 -0.17362658194E+02  0.10349875304E+02  0.30000000000E+02  0.47000000000E+01 0.  1.
</event>
<event>
 4    1  0.7643770E-002  0.6000000E+02  0.7546771E-02  0.1259629E+00
         11   -1    0    0    0    0  0.00000000000E+00  0.00000000000E+00  0.30000000000E+02  0.30000000000E+02  0.00000000000E+00 0. -1.
        -11   -1    0    0    0    0 -0.00000000000E+00 -0.00000000000E+00 -0.30000000000E+02  0.30000000000E+02  0.00000000000E+00 0.  1.
          5    1    1    2  501    0 -0.13516412391E+02  0.20263510931E+02 -0.16870291071E+02  0.30000000000E+02  0.47000000000E+01 0.  1.
         -5    1    1    2    0  501  0.13516412391E+02 -0.20263510931E+02  0.16870291071E+02  0.30000000000E+02  0.47000000000E+01 0. -1.
</event>
<event>
 4    1  0.7643770E-002  0.6000000E+02  0.7546771E-02  0.1259629E+00
         11   -1    0    0    0    0  0.00000000000E+00  0.00000000000E+00  0.30000000000E+02  0.30000000000E+02  0.00000000000E+00 0.  1.
        -11   -1    0    0    0    0 -0.00000000000E+00 -0.00000000000E+00 -0.30000000000E+02  0.30000000000E+02  0.00000000000E+00 0. -1.
          5    1    1    2  501    0 -0.85074728069E+01 -0.64555932269E+01 -0.27637985139E+02  0.30000000000E+02  0.47000000000E+01 0. -1.
         -5    1    1    2    0  501  0.85074728069E+01  0.64555932269E+01  0.27637985139E+02  0.30000000000E+02  0.47000000000E+01 0.  1.
</event>
<event>
 4    1  0.7643770E-002  0.6000000E+02  0.7546771E-02  0.1259629E+00
         11   -1    0    0    0    0  0.00000000000E+00  0.00000000000E+00  0.30000000000E+02  0.30000000000E+02  0.00000000000E+00 0.  1.
        -11   -1    0    0    0    0 -0.00000000000E+00 -0.00000000000E+00 -0.30000000000E+02  0.30000000000E+02  0.00000000000E+00 0. -1.
          5    1    1    2  501    0 -0.29326118056E+01  0.23107496776E+02  0.18312656300E+02  0.30000000000E+02  0.47000000000E+01 0. -1.
         -5    1    1    2    0  501  0.29326118056E+01 -0.23107496776E+02 -0.18312656300E+02  0.30000000000E+02  0.47000000000E+01 0.  1.
</event>
<event>
 4    1  0.7643770E-002  0.6000000E+02  0.7546771E-02  0.1259629E+00
         11   -1    0    0    0    0  0.00000000000E+00  0.00000000000E+00  0.30000000000E+02  0.30000000000E+02  0.00000000000E+00 0.  1.
        -11   -1    0    0    0    0 -0.00000000000E+00 -0.00000000000E+00 -0.30000000000E+02  0.30000000000E+02  0.00000000000E+00 0. -1.
          5    1    1    2  501    0 -0.12069456958E+02  0.91300586311E+01 -0.25473127765E+02  0.30000000000E+02  0.47000000000E+01 0. -1.
         -5    1    1    2    0  501  0.12069456958E+02 -0.91300586311E+01  0.25473127765E+02  0.30000000000E+02  0.47000000000E+01 0.  1.
</event>
<event>
 4    1  0.7643770E-002  0.6000000E+02  0.7546771E-02  0.1259629E+00
         11   -1    0    0    0    0  0.00000000000E+00  0.00000000000E+00  0.30000000000E+02  0.30000000000E+02  0.00000000000E+00 0.  1.
        -11   -1    0    0    0    0 -0.00000000000E+00 -0.00000000000E+00 -0.30000000000E+02  0.30000000000E+02  0.00000000000E+00 0. -1.
          5    1    1    2  501    0  0.26105378200E+01 -0.36716443474E+01 -0.29285049429E+02  0.30000000000E+02  0.47000000000E+01 0. -1.
         -5    1    1    2    0  501 -0.26105378200E+01  0.36716443474E+01  0.29285049429E+02  0.30000000000E+02  0.47000000000E+01 0.  1.
</event>
<event>
 4    1  0.7643770E-002  0.6000000E+02  0.7546771E-02  0.1259629E+00
         11   -1    0    0    0    0  0.00000000000E+00  0.00000000000E+00  0.30000000000E+02  0.30000000000E+02  0.00000000000E+00 0.  1.
        -11   -1    0    0    0    0 -0.00000000000E+00 -0.00000000000E+00 -0.30000000000E+02  0.30000000000E+02  0.00000000000E+00 0. -1.
          5    1    1    2  501    0 -0.76779282798E+01 -0.80077180531E+01 -0.27474276495E+02  0.30000000000E+02  0.47000000000E+01 0. -1.
         -5    1    1    2    0  501  0.76779282798E+01  0.80077180531E+01  0.27474276495E+02  0.30000000000E+02  0.47000000000E+01 0.  1.
</event>
<event>
 4    1  0.7643770E-002  0.6000000E+02  0.7546771E-02  0.1259629E+00
         11   -1    0    0    0    0  0.00000000000E+00  0.00000000000E+00  0.30000000000E+02  0.30000000000E+02  0.00000000000E+00 0.  1.
        -11   -1    0    0    0    0 -0.00000000000E+00 -0.00000000000E+00 -0.30000000000E+02  0.30000000000E+02  0.00000000000E+00 0. -1.
          5    1    1    2  501    0  0.14720642028E+01 -0.26352916181E+02 -0.13463537268E+02  0.30000000000E+02  0.47000000000E+01 0. -1.
         -5    1    1    2    0  501 -0.14720642028E+01  0.26352916181E+02  0.13463537268E+02  0.30000000000E+02  0.47000000000E+01 0.  1.
</event>
<event>
 4    1  0.7643770E-002  0.6000000E+02  0.7546771E-02  0.1259629E+00
         11   -1    0    0    0    0  0.00000000000E+00  0.00000000000E+00  0.30000000000E+02  0.30000000000E+02  0.00000000000E+00 0.  1.
        -11   -1    0    0    0    0 -0.00000000000E+00 -0.00000000000E+00 -0.30000000000E+02  0.30000000000E+02  0.00000000000E+00 0. -1.
          5    1    1    2  501    0 -0.78773111438E+00  0.18253162532E+02 -0.23326198517E+02  0.30000000000E+02  0.47000000000E+01 0. -1.
         -5    1    1    2    0  501  0.78773111438E+00 -0.18253162532E+02  0.23326198517E+02  0.30000000000E+02  0.47000000000E+01 0.  1.
</event>
<event>
 4    1  0.7643770E-002  0.6000000E+02  0.7546771E-02  0.1259629E+00
         11   -1    0    0    0    0  0.00000000000E+00  0.00000000000E+00  0.30000000000E+02  0.30000000000E+02  0.00000000000E+00 0.  1.
        -11   -1    0    0    0    0 -0.00000000000E+00 -0.00000000000E+00 -0.30000000000E+02  0.30000000000E+02  0.00000000000E+00 0. -1.
          5    1    1    2  501    0 -0.34197289929E+01 -0.54087072790E+01 -0.28930284119E+02  0.30000000000E+02  0.47000000000E+01 0. -1.
         -5    1    1    2    0  501  0.34197289929E+01  0.54087072790E+01  0.28930284119E+02  0.30000000000E+02  0.47000000000E+01 0.  1.
</event>
<event>
 4    1  0.7643770E-002  0.6000000E+02  0.7546771E-02  0.1259629E+00
         11   -1    0    0    0    0  0.00000000000E+00  0.00000000000E+00  0.30000000000E+02  0.30000000000E+02  0.00000000000E+00 0.  1.
        -11   -1    0    0    0    0 -0.00000000000E+00 -0.00000000000E+00 -0.30000000000E+02  0.30000000000E+02  0.00000000000E+00 0. -1.
          5    1    1    2  501    0 -0.11361425162E+02 -0.62198806069E+01 -0.26648472818E+02  0.30000000000E+02  0.47000000000E+01 0. -1.
         -5    1    1    2    0  501  0.11361425162E+02  0.62198806069E+01  0.26648472818E+02  0.30000000000E+02  0.47000000000E+01 0.  1.
</event>
<event>
 4    1  0.7643770E-002  0.6000000E+02  0.7546771E-02  0.1259629E+00
         11   -1    0    0    0    0  0.00000000000E+00  0.00000000000E+00  0.30000000000E+02  0.30000000000E+02  0.00000000000E+00 0. -1.
        -11   -1    0    0    0    0 -0.00000000000E+00 -0.00000000000E+00 -0.30000000000E+02  0.30000000000E+02  0.00000000000E+00 0.  1.
          5    1    1    2  501    0 -0.35211601030E+01 -0.24643004373E+02 -0.16069653605E+02  0.30000000000E+02  0.47000000000E+01 0.  1.
         -5    1    1    2    0  501  0.35211601030E+01  0.24643004373E+02  0.16069653605E+02  0.30000000000E+02  0.47000000000E+01 0. -1.
</event>
<event>
 4    1  0.7643770E-002  0.6000000E+02  0.7546771E-02  0.1259629E+00
         11   -1    0    0    0    0  0.00000000000E+00  0.00000000000E+00  0.30000000000E+02  0.30000000000E+02  0.00000000000E+00 0.  1.
        -11   -1    0    0    0    0 -0.00000000000E+00 -0.00000000000E+00 -0.30000000000E+02  0.30000000000E+02  0.00000000000E+00 0. -1.
          5    1    1    2  501    0  0.20879039836E+02  0.15035874109E+02 -0.14693474242E+02  0.30000000000E+02  0.47000000000E+01 0. -1.
         -5    1    1    2    0  501 -0.20879039836E+02 -0.15035874109E+02  0.14693474242E+02  0.30000000000E+02  0.47000000000E+01 0.  1.
</event>
<event>
 4    1  0.7643770E-002  0.6000000E+02  0.7546771E-02  0.1259629E+00
         11   -1    0    0    0    0  0.00000000000E+00  0.00000000000E+00  0.30000000000E+02  0.30000000000E+02  0.00000000000E+00 0.  1.
        -11   -1    0    0    0    0 -0.00000000000E+00 -0.00000000000E+00 -0.30000000000E+02  0.30000000000E+02  0.00000000000E+00 0. -1.
          5    1    1    2  501    0 -0.10102250658E+02 -0.71157517878E+01 -0.26929920314E+02  0.30000000000E+02  0.47000000000E+01 0. -1.
         -5    1    1    2    0  501  0.10102250658E+02  0.71157517878E+01  0.26929920314E+02  0.30000000000E+02  0.47000000000E+01 0.  1.
</event>
<event>
 4    1  0.7643770E-002  0.6000000E+02  0.7546771E-02  0.1259629E+00
         11   -1    0    0    0    0  0.00000000000E+00  0.00000000000E+00  0.30000000000E+02  0.30000000000E+02  0.00000000000E+00 0.  1.
        -11   -1    0    0    0    0 -0.00000000000E+00 -0.00000000000E+00 -0.30000000000E+02  0.30000000000E+02  0.00000000000E+00 0. -1.
          5    1    1    2  501    0  0.63068456633E+01  0.28924742216E+02 -0.12218778647E+01  0.30000000000E+02  0.47000000000E+01 0. -1.
         -5    1    1    2    0  501 -0.63068456633E+01 -0.28924742216E+02  0.12218778647E+01  0.30000000000E+02  0.47000000000E+01 0.  1.
</event>
<event>
 4    1  0.7643770E-002  0.6000000E+02  0.7546771E-02  0.1259629E+00
         11   -1    0    0    0    0  0.00000000000E+00  0.00000000000E+00  0.30000000000E+02  0.30000000000E+02  0.00000000000E+00 0. -1.
        -11   -1    0    0    0    0 -0.00000000000E+00 -0.00000000000E+00 -0.30000000000E+02  0.30000000000E+02  0.00000000000E+00 0.  1.
          5    1    1    2  501    0 -0.22883972284E+02  0.23664045942E+01 -0.18671741799E+02  0.30000000000E+02  0.47000000000E+01 0.  1.
         -5    1    1    2    0  501  0.22883972284E+02 -0.23664045942E+01  0.18671741799E+02  0.30000000000E+02  0.47000000000E+01 0. -1.
</event>
<event>
 4    1  0.7643770E-002  0.6000000E+02  0.7546771E-02  0.1259629E+00
         11   -1    0    0    0    0  0.00000000000E+00  0.00000000000E+00  0.30000000000E+02  0.30000000000E+02  0.00000000000E+00 0. -1.
        -11   -1    0    0    0    0 -0.00000000000E+00 -0.00000000000E+00 -0.30000000000E+02  0.30000000000E+02  0.00000000000E+00 0.  1.
          5    1    1    2  501    0 -0.26499220203E+02  0.86326745530E+01 -0.10058740413E+02  0.30000000000E+02  0.47000000000E+01 0.  1.
         -5    1    1    2    0  501  0.26499220203E+02 -0.86326745530E+01  0.10058740413E+02  0.30000000000E+02  0.47000000000E+01 0. -1.
</event>
<event>
 4    1  0.7643770E-002  0.6000000E+02  0.7546771E-02  0.1259629E+00
         11   -1    0    0    0    0  0.00000000000E+00  0.00000000000E+00  0.30000000000E+02  0.30000000000E+02  0.00000000000E+00 0. -1.
        -11   -1    0    0    0    0 -0.00000000000E+00 -0.00000000000E+00 -0.30000000000E+02  0.30000000000E+02  0.00000000000E+00 0.  1.
          5    1    1    2  501    0 -0.52571234096E+01 -0.82240253162E+01 -0.27975669090E+02  0.30000000000E+02  0.47000000000E+01 0.  1.
         -5    1    1    2    0  501  0.52571234096E+01  0.82240253162E+01  0.27975669090E+02  0.30000000000E+02  0.47000000000E+01 0. -1.
</event>
<event>
 4    1  0.7643770E-002  0.6000000E+02  0.7546771E-02  0.1259629E+00
         11   -1    0    0    0    0  0.00000000000E+00  0.00000000000E+00  0.30000000000E+02  0.30000000000E+02  0.00000000000E+00 0. -1.
        -11   -1    0    0    0    0 -0.00000000000E+00 -0.00000000000E+00 -0.30000000000E+02  0.30000000000E+02  0.00000000000E+00 0.  1.
          5    1    1    2  501    0  0.32724964865E+01 -0.43861815521E+01  0.29119790146E+02  0.30000000000E+02  0.47000000000E+01 0. -1.
         -5    1    1    2    0  501 -0.32724964865E+01  0.43861815521E+01 -0.29119790146E+02  0.30000000000E+02  0.47000000000E+01 0.  1.
</event>
<event>
 4    1  0.7643770E-002  0.6000000E+02  0.7546771E-02  0.1259629E+00
         11   -1    0    0    0    0  0.00000000000E+00  0.00000000000E+00  0.30000000000E+02  0.30000000000E+02  0.00000000000E+00 0.  1.
        -11   -1    0    0    0    0 -0.00000000000E+00 -0.00000000000E+00 -0.30000000000E+02  0.30000000000E+02  0.00000000000E+00 0. -1.
          5    1    1    2  501    0  0.25938911717E+02 -0.89794583393E+01  0.11155814039E+02  0.30000000000E+02  0.47000000000E+01 0. -1.
         -5    1    1    2    0  501 -0.25938911717E+02  0.89794583393E+01 -0.11155814039E+02  0.30000000000E+02  0.47000000000E+01 0.  1.
</event>
<event>
 4    1  0.7643770E-002  0.6000000E+02  0.7546771E-02  0.1259629E+00
         11   -1    0    0    0    0  0.00000000000E+00  0.00000000000E+00  0.30000000000E+02  0.30000000000E+02  0.00000000000E+00 0.  1.
        -11   -1    0    0    0    0 -0.00000000000E+00 -0.00000000000E+00 -0.30000000000E+02  0.30000000000E+02  0.00000000000E+00 0. -1.
          5    1    1    2  501    0 -0.81081210305E+01 -0.55893908792E+01 -0.27945072606E+02  0.30000000000E+02  0.47000000000E+01 0. -1.
         -5    1    1    2    0  501  0.81081210305E+01  0.55893908792E+01  0.27945072606E+02  0.30000000000E+02  0.47000000000E+01 0.  1.
</event>
<event>
 4    1  0.7643770E-002  0.6000000E+02  0.7546771E-02  0.1259629E+00
         11   -1    0    0    0    0  0.00000000000E+00  0.00000000000E+00  0.30000000000E+02  0.30000000000E+02  0.00000000000E+00 0. -1.
        -11   -1    0    0    0    0 -0.00000000000E+00 -0.00000000000E+00 -0.30000000000E+02  0.30000000000E+02  0.00000000000E+00 0.  1.
          5    1    1    2  501    0  0.24015376290E+02 -0.17303331017E+02 -0.13290738730E+01  0.30000000000E+02  0.47000000000E+01 0.  1.
         -5    1    1    2    0  501 -0.24015376290E+02  0.17303331017E+02  0.13290738730E+01  0.30000000000E+02  0.47000000000E+01 0. -1.
</event>
<event>
 4    1  0.7643770E-002  0.6000000E+02  0.7546771E-02  0.1259629E+00
         11   -1    0    0    0    0  0.00000000000E+00  0.00000000000E+00  0.30000000000E+02  0.30000000000E+02  0.00000000000E+00 0.  1.
        -11   -1    0    0    0    0 -0.00000000000E+00 -0.00000000000E+00 -0.30000000000E+02  0.30000000000E+02  0.00000000000E+00 0. -1.
          5    1    1    2  501    0 -0.26039149991E+02 -0.23873413520E+01 -0.13934606884E+02  0.30000000000E+02  0.47000000000E+01 0. -1.
         -5    1    1    2    0  501  0.26039149991E+02  0.23873413520E+01  0.13934606884E+02  0.30000000000E+02  0.47000000000E+01 0.  1.
</event>
<event>
 4    1  0.7643770E-002  0.6000000E+02  0.7546771E-02  0.1259629E+00
         11   -1    0    0    0    0  0.00000000000E+00  0.00000000000E+00  0.30000000000E+02  0.30000000000E+02  0.00000000000E+00 0. -1.
        -11   -1    0    0    0    0 -0.00000000000E+00 -0.00000000000E+00 -0.30000000000E+02  0.30000000000E+02  0.00000000000E+00 0.  1.
          5    1    1    2  501    0  0.23450428606E+02  0.37528397908E+01 -0.17717324620E+02  0.30000000000E+02  0.47000000000E+01 0.  1.
         -5    1    1    2    0  501 -0.23450428606E+02 -0.37528397908E+01  0.17717324620E+02  0.30000000000E+02  0.47000000000E+01 0. -1.
</event>
<event>
 4    1  0.7643770E-002  0.6000000E+02  0.7546771E-02  0.1259629E+00
         11   -1    0    0    0    0  0.00000000000E+00  0.00000000000E+00  0.30000000000E+02  0.30000000000E+02  0.00000000000E+00 0.  1.
        -11   -1    0    0    0    0 -0.00000000000E+00 -0.00000000000E+00 -0.30000000000E+02  0.30000000000E+02  0.00000000000E+00 0. -1.
          5    1    1    2  501    0  0.10831773794E+02  0.75479712689E+01 -0.26525663162E+02  0.30000000000E+02  0.47000000000E+01 0. -1.
         -5    1    1    2    0  501 -0.10831773794E+02 -0.75479712689E+01  0.26525663162E+02  0.30000000000E+02  0.47000000000E+01 0.  1.
</event>
<event>
 4    1  0.7643770E-002  0.6000000E+02  0.7546771E-02  0.1259629E+00
         11   -1    0    0    0    0  0.00000000000E+00  0.00000000000E+00  0.30000000000E+02  0.30000000000E+02  0.00000000000E+00 0.  1.
        -11   -1    0    0    0    0 -0.00000000000E+00 -0.00000000000E+00 -0.30000000000E+02  0.30000000000E+02  0.00000000000E+00 0. -1.
          5    1    1    2  501    0  0.26213238061E+02  0.11946470616E+02 -0.69323870485E+01  0.30000000000E+02  0.47000000000E+01 0. -1.
         -5    1    1    2    0  501 -0.26213238061E+02 -0.11946470616E+02  0.69323870485E+01  0.30000000000E+02  0.47000000000E+01 0.  1.
</event>
<event>
 4    1  0.7643770E-002  0.6000000E+02  0.7546771E-02  0.1259629E+00
         11   -1    0    0    0    0  0.00000000000E+00  0.00000000000E+00  0.30000000000E+02  0.30000000000E+02  0.00000000000E+00 0.  1.
        -11   -1    0    0    0    0 -0.00000000000E+00 -0.00000000000E+00 -0.30000000000E+02  0.30000000000E+02  0.00000000000E+00 0. -1.
          5    1    1    2  501    0  0.15757696406E+02  0.18966732737E+02 -0.16427661223E+02  0.30000000000E+02  0.47000000000E+01 0. -1.
         -5    1    1    2    0  501 -0.15757696406E+02 -0.18966732737E+02  0.16427661223E+02  0.30000000000E+02  0.47000000000E+01 0.  1.
</event>
<event>
 4    1  0.7643770E-002  0.6000000E+02  0.7546771E-02  0.1259629E+00
         11   -1    0    0    0    0  0.00000000000E+00  0.00000000000E+00  0.30000000000E+02  0.30000000000E+02  0.00000000000E+00 0.  1.
        -11   -1    0    0    0    0 -0.00000000000E+00 -0.00000000000E+00 -0.30000000000E+02  0.30000000000E+02  0.00000000000E+00 0. -1.
          5    1    1    2  501    0  0.90176492511E+01 -0.71417814058E+01 -0.27305438292E+02  0.30000000000E+02  0.47000000000E+01 0. -1.
         -5    1    1    2    0  501 -0.90176492511E+01  0.71417814058E+01  0.27305438292E+02  0.30000000000E+02  0.47000000000E+01 0.  1.
</event>
<event>
 4    1  0.7643770E-002  0.6000000E+02  0.7546771E-02  0.1259629E+00
         11   -1    0    0    0    0  0.00000000000E+00  0.00000000000E+00  0.30000000000E+02  0.30000000000E+02  0.00000000000E+00 0.  1.
        -11   -1    0    0    0    0 -0.00000000000E+00 -0.00000000000E+00 -0.30000000000E+02  0.30000000000E+02  0.00000000000E+00 0. -1.
          5    1    1    2  501    0  0.90544883747E+01  0.16219482753E+02 -0.23083643982E+02  0.30000000000E+02  0.47000000000E+01 0. -1.
         -5    1    1    2    0  501 -0.90544883747E+01 -0.16219482753E+02  0.23083643982E+02  0.30000000000E+02  0.47000000000E+01 0.  1.
</event>
<event>
 4    1  0.7643770E-002  0.6000000E+02  0.7546771E-02  0.1259629E+00
         11   -1    0    0    0    0  0.00000000000E+00  0.00000000000E+00  0.30000000000E+02  0.30000000000E+02  0.00000000000E+00 0.  1.
        -11   -1    0    0    0    0 -0.00000000000E+00 -0.00000000000E+00 -0.30000000000E+02  0.30000000000E+02  0.00000000000E+00 0. -1.
          5    1    1    2  501    0  0.23503939481E+02  0.15268210110E+02 -0.96102335506E+01  0.30000000000E+02  0.47000000000E+01 0. -1.
         -5    1    1    2    0  501 -0.23503939481E+02 -0.15268210110E+02  0.96102335506E+01  0.30000000000E+02  0.47000000000E+01 0.  1.
</event>
<event>
 4    1  0.7643770E-002  0.6000000E+02  0.7546771E-02  0.1259629E+00
         11   -1    0    0    0    0  0.00000000000E+00  0.00000000000E+00  0.30000000000E+02  0.30000000000E+02  0.00000000000E+00 0.  1.
        -11   -1    0    0    0    0 -0.00000000000E+00 -0.00000000000E+00 -0.30000000000E+02  0.30000000000E+02  0.00000000000E+00 0. -1.
          5    1    1    2  501    0  0.23409073364E+02  0.24350173195E+01 -0.17999888191E+02  0.30000000000E+02  0.47000000000E+01 0. -1.
         -5    1    1    2    0  501 -0.23409073364E+02 -0.24350173195E+01  0.17999888191E+02  0.30000000000E+02  0.47000000000E+01 0.  1.
</event>
<event>
 4    1  0.7643770E-002  0.6000000E+02  0.7546771E-02  0.1259629E+00
         11   -1    0    0    0    0  0.00000000000E+00  0.00000000000E+00  0.30000000000E+02  0.30000000000E+02  0.00000000000E+00 0.  1.
        -11   -1    0    0    0    0 -0.00000000000E+00 -0.00000000000E+00 -0.30000000000E+02  0.30000000000E+02  0.00000000000E+00 0. -1.
          5    1    1    2  501    0  0.95508183987E+01 -0.27044670249E+02 -0.74348960333E+01  0.30000000000E+02  0.47000000000E+01 0. -1.
         -5    1    1    2    0  501 -0.95508183987E+01  0.27044670249E+02  0.74348960333E+01  0.30000000000E+02  0.47000000000E+01 0.  1.
</event>
<event>
 4    1  0.7643770E-002  0.6000000E+02  0.7546771E-02  0.1259629E+00
         11   -1    0    0    0    0  0.00000000000E+00  0.00000000000E+00  0.30000000000E+02  0.30000000000E+02  0.00000000000E+00 0.  1.
        -11   -1    0    0    0    0 -0.00000000000E+00 -0.00000000000E+00 -0.30000000000E+02  0.30000000000E+02  0.00000000000E+00 0. -1.
          5    1    1    2  501    0  0.14083429968E+02  0.21602078010E+02 -0.14591683453E+02  0.30000000000E+02  0.47000000000E+01 0. -1.
         -5    1    1    2    0  501 -0.14083429968E+02 -0.21602078010E+02  0.14591683453E+02  0.30000000000E+02  0.47000000000E+01 0.  1.
</event>
<event>
 4    1  0.7643770E-002  0.6000000E+02  0.7546771E-02  0.1259629E+00
         11   -1    0    0    0    0  0.00000000000E+00  0.00000000000E+00  0.30000000000E+02  0.30000000000E+02  0.00000000000E+00 0.  1.
        -11   -1    0    0    0    0 -0.00000000000E+00 -0.00000000000E+00 -0.30000000000E+02  0.30000000000E+02  0.00000000000E+00 0. -1.
          5    1    1    2  501    0  0.23960280918E+02 -0.17396892319E+02 -0.10784600081E+01  0.30000000000E+02  0.47000000000E+01 0. -1.
         -5    1    1    2    0  501 -0.23960280918E+02  0.17396892319E+02  0.10784600081E+01  0.30000000000E+02  0.47000000000E+01 0.  1.
</event>
<event>
 4    1  0.7643770E-002  0.6000000E+02  0.7546771E-02  0.1259629E+00
         11   -1    0    0    0    0  0.00000000000E+00  0.00000000000E+00  0.30000000000E+02  0.30000000000E+02  0.00000000000E+00 0.  1.
        -11   -1    0    0    0    0 -0.00000000000E+00 -0.00000000000E+00 -0.30000000000E+02  0.30000000000E+02  0.00000000000E+00 0. -1.
          5    1    1    2  501    0 -0.88958569821E+01  0.27324055982E+02  0.72228590788E+01  0.30000000000E+02  0.47000000000E+01 0. -1.
         -5    1    1    2    0  501  0.88958569821E+01 -0.27324055982E+02 -0.72228590788E+01  0.30000000000E+02  0.47000000000E+01 0. -1.
</event>
<event>
 4    1  0.7643770E-002  0.6000000E+02  0.7546771E-02  0.1259629E+00
         11   -1    0    0    0    0  0.00000000000E+00  0.00000000000E+00  0.30000000000E+02  0.30000000000E+02  0.00000000000E+00 0.  1.
        -11   -1    0    0    0    0 -0.00000000000E+00 -0.00000000000E+00 -0.30000000000E+02  0.30000000000E+02  0.00000000000E+00 0. -1.
          5    1    1    2  501    0 -0.82432955810E+01 -0.21208944749E+02 -0.18977321744E+02  0.30000000000E+02  0.47000000000E+01 0. -1.
         -5    1    1    2    0  501  0.82432955810E+01  0.21208944749E+02  0.18977321744E+02  0.30000000000E+02  0.47000000000E+01 0.  1.
</event>
<event>
 4    1  0.7643770E-002  0.6000000E+02  0.7546771E-02  0.1259629E+00
         11   -1    0    0    0    0  0.00000000000E+00  0.00000000000E+00  0.30000000000E+02  0.30000000000E+02  0.00000000000E+00 0.  1.
        -11   -1    0    0    0    0 -0.00000000000E+00 -0.00000000000E+00 -0.30000000000E+02  0.30000000000E+02  0.00000000000E+00 0. -1.
          5    1    1    2  501    0 -0.33320727046E+00  0.20475507672E+02 -0.21413840349E+02  0.30000000000E+02  0.47000000000E+01 0. -1.
         -5    1    1    2    0  501  0.33320727046E+00 -0.20475507672E+02  0.21413840349E+02  0.30000000000E+02  0.47000000000E+01 0.  1.
</event>
<event>
 4    1  0.7643770E-002  0.6000000E+02  0.7546771E-02  0.1259629E+00
         11   -1    0    0    0    0  0.00000000000E+00  0.00000000000E+00  0.30000000000E+02  0.30000000000E+02  0.00000000000E+00 0.  1.
        -11   -1    0    0    0    0 -0.00000000000E+00 -0.00000000000E+00 -0.30000000000E+02  0.30000000000E+02  0.00000000000E+00 0. -1.
          5    1    1    2  501    0 -0.25636008420E+02  0.14418438129E+02 -0.35796248685E+01  0.30000000000E+02  0.47000000000E+01 0. -1.
         -5    1    1    2    0  501  0.25636008420E+02 -0.14418438129E+02  0.35796248685E+01  0.30000000000E+02  0.47000000000E+01 0.  1.
</event>
<event>
 4    1  0.7643770E-002  0.6000000E+02  0.7546771E-02  0.1259629E+00
         11   -1    0    0    0    0  0.00000000000E+00  0.00000000000E+00  0.30000000000E+02  0.30000000000E+02  0.00000000000E+00 0.  1.
        -11   -1    0    0    0    0 -0.00000000000E+00 -0.00000000000E+00 -0.30000000000E+02  0.30000000000E+02  0.00000000000E+00 0. -1.
          5    1    1    2  501    0 -0.12838897131E+02  0.26056255250E+02  0.58433109443E+01  0.30000000000E+02  0.47000000000E+01 0.  1.
         -5    1    1    2    0  501  0.12838897131E+02 -0.26056255250E+02 -0.58433109443E+01  0.30000000000E+02  0.47000000000E+01 0. -1.
</event>
<event>
 4    1  0.7643770E-002  0.6000000E+02  0.7546771E-02  0.1259629E+00
         11   -1    0    0    0    0  0.00000000000E+00  0.00000000000E+00  0.30000000000E+02  0.30000000000E+02  0.00000000000E+00 0. -1.
        -11   -1    0    0    0    0 -0.00000000000E+00 -0.00000000000E+00 -0.30000000000E+02  0.30000000000E+02  0.00000000000E+00 0.  1.
          5    1    1    2  501    0  0.16432727304E+02  0.22871928836E+02  0.92059950390E+01  0.30000000000E+02  0.47000000000E+01 0. -1.
         -5    1    1    2    0  501 -0.16432727304E+02 -0.22871928836E+02 -0.92059950390E+01  0.30000000000E+02  0.47000000000E+01 0.  1.
</event>
<event>
 4    1  0.7643770E-002  0.6000000E+02  0.7546771E-02  0.1259629E+00
         11   -1    0    0    0    0  0.00000000000E+00  0.00000000000E+00  0.30000000000E+02  0.30000000000E+02  0.00000000000E+00 0.  1.
        -11   -1    0    0    0    0 -0.00000000000E+00 -0.00000000000E+00 -0.30000000000E+02  0.30000000000E+02  0.00000000000E+00 0. -1.
          5    1    1    2  501    0 -0.26737949122E+02  0.30456020744E-01 -0.12766798706E+02  0.30000000000E+02  0.47000000000E+01 0. -1.
         -5    1    1    2    0  501  0.26737949122E+02 -0.30456020744E-01  0.12766798706E+02  0.30000000000E+02  0.47000000000E+01 0.  1.
</event>
<event>
 4    1  0.7643770E-002  0.6000000E+02  0.7546771E-02  0.1259629E+00
         11   -1    0    0    0    0  0.00000000000E+00  0.00000000000E+00  0.30000000000E+02  0.30000000000E+02  0.00000000000E+00 0.  1.
        -11   -1    0    0    0    0 -0.00000000000E+00 -0.00000000000E+00 -0.30000000000E+02  0.30000000000E+02  0.00000000000E+00 0. -1.
          5    1    1    2  501    0  0.28376251247E+02  0.82106426812E+01 -0.22986326263E+01  0.30000000000E+02  0.47000000000E+01 0. -1.
         -5    1    1    2    0  501 -0.28376251247E+02 -0.82106426812E+01  0.22986326263E+01  0.30000000000E+02  0.47000000000E+01 0.  1.
</event>
<event>
 4    1  0.7643770E-002  0.6000000E+02  0.7546771E-02  0.1259629E+00
         11   -1    0    0    0    0  0.00000000000E+00  0.00000000000E+00  0.30000000000E+02  0.30000000000E+02  0.00000000000E+00 0.  1.
        -11   -1    0    0    0    0 -0.00000000000E+00 -0.00000000000E+00 -0.30000000000E+02  0.30000000000E+02  0.00000000000E+00 0. -1.
          5    1    1    2  501    0  0.22480721385E+02 -0.14959123391E+02 -0.12196384439E+02  0.30000000000E+02  0.47000000000E+01 0. -1.
         -5    1    1    2    0  501 -0.22480721385E+02  0.14959123391E+02  0.12196384439E+02  0.30000000000E+02  0.47000000000E+01 0.  1.
</event>
<event>
 4    1  0.7643770E-002  0.6000000E+02  0.7546771E-02  0.1259629E+00
         11   -1    0    0    0    0  0.00000000000E+00  0.00000000000E+00  0.30000000000E+02  0.30000000000E+02  0.00000000000E+00 0.  1.
        -11   -1    0    0    0    0 -0.00000000000E+00 -0.00000000000E+00 -0.30000000000E+02  0.30000000000E+02  0.00000000000E+00 0. -1.
          5    1    1    2  501    0  0.18214358304E+02  0.22006251009E+02 -0.78658799943E+01  0.30000000000E+02  0.47000000000E+01 0. -1.
         -5    1    1    2    0  501 -0.18214358304E+02 -0.22006251009E+02  0.78658799943E+01  0.30000000000E+02  0.47000000000E+01 0.  1.
</event>
<event>
 4    1  0.7643770E-002  0.6000000E+02  0.7546771E-02  0.1259629E+00
         11   -1    0    0    0    0  0.00000000000E+00  0.00000000000E+00  0.30000000000E+02  0.30000000000E+02  0.00000000000E+00 0.  1.
        -11   -1    0    0    0    0 -0.00000000000E+00 -0.00000000000E+00 -0.30000000000E+02  0.30000000000E+02  0.00000000000E+00 0. -1.
          5    1    1    2  501    0 -0.12505705701E+02  0.94866504536E+00 -0.26844317081E+02  0.30000000000E+02  0.47000000000E+01 0. -1.
         -5    1    1    2    0  501  0.12505705701E+02 -0.94866504536E+00  0.26844317081E+02  0.30000000000E+02  0.47000000000E+01 0.  1.
</event>
<event>
 4    1  0.7643770E-002  0.6000000E+02  0.7546771E-02  0.1259629E+00
         11   -1    0    0    0    0  0.00000000000E+00  0.00000000000E+00  0.30000000000E+02  0.30000000000E+02  0.00000000000E+00 0. -1.
        -11   -1    0    0    0    0 -0.00000000000E+00 -0.00000000000E+00 -0.30000000000E+02  0.30000000000E+02  0.00000000000E+00 0.  1.
          5    1    1    2  501    0 -0.31670855412E+01  0.15729737599E+02 -0.24908932620E+02  0.30000000000E+02  0.47000000000E+01 0.  1.
         -5    1    1    2    0  501  0.31670855412E+01 -0.15729737599E+02  0.24908932620E+02  0.30000000000E+02  0.47000000000E+01 0. -1.
</event>
<event>
 4    1  0.7643770E-002  0.6000000E+02  0.7546771E-02  0.1259629E+00
         11   -1    0    0    0    0  0.00000000000E+00  0.00000000000E+00  0.30000000000E+02  0.30000000000E+02  0.00000000000E+00 0. -1.
        -11   -1    0    0    0    0 -0.00000000000E+00 -0.00000000000E+00 -0.30000000000E+02  0.30000000000E+02  0.00000000000E+00 0.  1.
          5    1    1    2  501    0  0.13432148449E+02 -0.22591548299E+02 -0.13678791376E+02  0.30000000000E+02  0.47000000000E+01 0.  1.
         -5    1    1    2    0  501 -0.13432148449E+02  0.22591548299E+02  0.13678791376E+02  0.30000000000E+02  0.47000000000E+01 0. -1.
</event>
<event>
 4    1  0.7643770E-002  0.6000000E+02  0.7546771E-02  0.1259629E+00
         11   -1    0    0    0    0  0.00000000000E+00  0.00000000000E+00  0.30000000000E+02  0.30000000000E+02  0.00000000000E+00 0.  1.
        -11   -1    0    0    0    0 -0.00000000000E+00 -0.00000000000E+00 -0.30000000000E+02  0.30000000000E+02  0.00000000000E+00 0. -1.
          5    1    1    2  501    0  0.24052050481E+02 -0.10621795184E+02 -0.13659660857E+02  0.30000000000E+02  0.47000000000E+01 0. -1.
         -5    1    1    2    0  501 -0.24052050481E+02  0.10621795184E+02  0.13659660857E+02  0.30000000000E+02  0.47000000000E+01 0.  1.
</event>
<event>
 4    1  0.7643770E-002  0.6000000E+02  0.7546771E-02  0.1259629E+00
         11   -1    0    0    0    0  0.00000000000E+00  0.00000000000E+00  0.30000000000E+02  0.30000000000E+02  0.00000000000E+00 0.  1.
        -11   -1    0    0    0    0 -0.00000000000E+00 -0.00000000000E+00 -0.30000000000E+02  0.30000000000E+02  0.00000000000E+00 0. -1.
          5    1    1    2  501    0  0.26368116620E+02 -0.86504899613E+01 -0.10382747678E+02  0.30000000000E+02  0.47000000000E+01 0. -1.
         -5    1    1    2    0  501 -0.26368116620E+02  0.86504899613E+01  0.10382747678E+02  0.30000000000E+02  0.47000000000E+01 0.  1.
</event>
<event>
 4    1  0.7643770E-002  0.6000000E+02  0.7546771E-02  0.1259629E+00
         11   -1    0    0    0    0  0.00000000000E+00  0.00000000000E+00  0.30000000000E+02  0.30000000000E+02  0.00000000000E+00 0.  1.
        -11   -1    0    0    0    0 -0.00000000000E+00 -0.00000000000E+00 -0.30000000000E+02  0.30000000000E+02  0.00000000000E+00 0. -1.
          5    1    1    2  501    0 -0.18115931460E+02  0.22933275619E+02  0.48772837435E+01  0.30000000000E+02  0.47000000000E+01 0. -1.
         -5    1    1    2    0  501  0.18115931460E+02 -0.22933275619E+02 -0.48772837435E+01  0.30000000000E+02  0.47000000000E+01 0.  1.
</event>
<event>
 4    1  0.7643770E-002  0.6000000E+02  0.7546771E-02  0.1259629E+00
         11   -1    0    0    0    0  0.00000000000E+00  0.00000000000E+00  0.30000000000E+02  0.30000000000E+02  0.00000000000E+00 0.  1.
        -11   -1    0    0    0    0 -0.00000000000E+00 -0.00000000000E+00 -0.30000000000E+02  0.30000000000E+02  0.00000000000E+00 0. -1.
          5    1    1    2  501    0  0.92330704603E+01  0.65872508330E-01 -0.28154148374E+02  0.30000000000E+02  0.47000000000E+01 0. -1.
         -5    1    1    2    0  501 -0.92330704603E+01 -0.65872508330E-01  0.28154148374E+02  0.30000000000E+02  0.47000000000E+01 0.  1.
</event>
<event>
 4    1  0.7643770E-002  0.6000000E+02  0.7546771E-02  0.1259629E+00
         11   -1    0    0    0    0  0.00000000000E+00  0.00000000000E+00  0.30000000000E+02  0.30000000000E+02  0.00000000000E+00 0.  1.
        -11   -1    0    0    0    0 -0.00000000000E+00 -0.00000000000E+00 -0.30000000000E+02  0.30000000000E+02  0.00000000000E+00 0. -1.
          5    1    1    2  501    0 -0.25315085216E+02 -0.11099815955E+02 -0.10670077144E+02  0.30000000000E+02  0.47000000000E+01 0. -1.
         -5    1    1    2    0  501  0.25315085216E+02  0.11099815955E+02  0.10670077144E+02  0.30000000000E+02  0.47000000000E+01 0.  1.
</event>
<event>
 4    1  0.7643770E-002  0.6000000E+02  0.7546771E-02  0.1259629E+00
         11   -1    0    0    0    0  0.00000000000E+00  0.00000000000E+00  0.30000000000E+02  0.30000000000E+02  0.00000000000E+00 0.  1.
        -11   -1    0    0    0    0 -0.00000000000E+00 -0.00000000000E+00 -0.30000000000E+02  0.30000000000E+02  0.00000000000E+00 0. -1.
          5    1    1    2  501    0  0.90479459045E+00 -0.24998844968E+01 -0.29510030909E+02  0.30000000000E+02  0.47000000000E+01 0. -1.
         -5    1    1    2    0  501 -0.90479459045E+00  0.24998844968E+01  0.29510030909E+02  0.30000000000E+02  0.47000000000E+01 0.  1.
</event>
<event>
 4    1  0.7643770E-002  0.6000000E+02  0.7546771E-02  0.1259629E+00
         11   -1    0    0    0    0  0.00000000000E+00  0.00000000000E+00  0.30000000000E+02  0.30000000000E+02  0.00000000000E+00 0.  1.
        -11   -1    0    0    0    0 -0.00000000000E+00 -0.00000000000E+00 -0.30000000000E+02  0.30000000000E+02  0.00000000000E+00 0. -1.
          5    1    1    2  501    0 -0.36975254565E+01  0.15946442461E+02 -0.24697151219E+02  0.30000000000E+02  0.47000000000E+01 0. -1.
         -5    1    1    2    0  501  0.36975254565E+01 -0.15946442461E+02  0.24697151219E+02  0.30000000000E+02  0.47000000000E+01 0.  1.
</event>
<event>
 4    1  0.7643770E-002  0.6000000E+02  0.7546771E-02  0.1259629E+00
         11   -1    0    0    0    0  0.00000000000E+00  0.00000000000E+00  0.30000000000E+02  0.30000000000E+02  0.00000000000E+00 0. -1.
        -11   -1    0    0    0    0 -0.00000000000E+00 -0.00000000000E+00 -0.30000000000E+02  0.30000000000E+02  0.00000000000E+00 0.  1.
          5    1    1    2  501    0  0.72213290657E+01 -0.27729737444E+02 -0.75381740380E+01  0.30000000000E+02  0.47000000000E+01 0.  1.
         -5    1    1    2    0  501 -0.72213290657E+01  0.27729737444E+02  0.75381740380E+01  0.30000000000E+02  0.47000000000E+01 0. -1.
</event>
<event>
 4    1  0.7643770E-002  0.6000000E+02  0.7546771E-02  0.1259629E+00
         11   -1    0    0    0    0  0.00000000000E+00  0.00000000000E+00  0.30000000000E+02  0.30000000000E+02  0.00000000000E+00 0.  1.
        -11   -1    0    0    0    0 -0.00000000000E+00 -0.00000000000E+00 -0.30000000000E+02  0.30000000000E+02  0.00000000000E+00 0. -1.
          5    1    1    2  501    0 -0.16537637739E+02  0.12226746162E+02 -0.21328929094E+02  0.30000000000E+02  0.47000000000E+01 0. -1.
         -5    1    1    2    0  501  0.16537637739E+02 -0.12226746162E+02  0.21328929094E+02  0.30000000000E+02  0.47000000000E+01 0.  1.
</event>
<event>
 4    1  0.7643770E-002  0.6000000E+02  0.7546771E-02  0.1259629E+00
         11   -1    0    0    0    0  0.00000000000E+00  0.00000000000E+00  0.30000000000E+02  0.30000000000E+02  0.00000000000E+00 0.  1.
        -11   -1    0    0    0    0 -0.00000000000E+00 -0.00000000000E+00 -0.30000000000E+02  0.30000000000E+02  0.00000000000E+00 0. -1.
          5    1    1    2  501    0 -0.44330451381E+01 -0.19780254695E+02 -0.21610174340E+02  0.30000000000E+02  0.47000000000E+01 0. -1.
         -5    1    1    2    0  501  0.44330451381E+01  0.19780254695E+02  0.21610174340E+02  0.30000000000E+02  0.47000000000E+01 0.  1.
</event>
<event>
 4    1  0.7643770E-002  0.6000000E+02  0.7546771E-02  0.1259629E+00
         11   -1    0    0    0    0  0.00000000000E+00  0.00000000000E+00  0.30000000000E+02  0.30000000000E+02  0.00000000000E+00 0. -1.
        -11   -1    0    0    0    0 -0.00000000000E+00 -0.00000000000E+00 -0.30000000000E+02  0.30000000000E+02  0.00000000000E+00 0.  1.
          5    1    1    2  501    0  0.44368908772E+01 -0.28881003660E+02 -0.49103591453E+01  0.30000000000E+02  0.47000000000E+01 0.  1.
         -5    1    1    2    0  501 -0.44368908772E+01  0.28881003660E+02  0.49103591453E+01  0.30000000000E+02  0.47000000000E+01 0. -1.
</event>
<event>
 4    1  0.7643770E-002  0.6000000E+02  0.7546771E-02  0.1259629E+00
         11   -1    0    0    0    0  0.00000000000E+00  0.00000000000E+00  0.30000000000E+02  0.30000000000E+02  0.00000000000E+00 0.  1.
        -11   -1    0    0    0    0 -0.00000000000E+00 -0.00000000000E+00 -0.30000000000E+02  0.30000000000E+02  0.00000000000E+00 0. -1.
          5    1    1    2  501    0 -0.20725905574E+02 -0.21036393225E+02  0.24118453982E+01  0.30000000000E+02  0.47000000000E+01 0. -1.
         -5    1    1    2    0  501  0.20725905574E+02  0.21036393225E+02 -0.24118453982E+01  0.30000000000E+02  0.47000000000E+01 0.  1.
</event>
<event>
 4    1  0.7643770E-002  0.6000000E+02  0.7546771E-02  0.1259629E+00
         11   -1    0    0    0    0  0.00000000000E+00  0.00000000000E+00  0.30000000000E+02  0.30000000000E+02  0.00000000000E+00 0.  1.
        -11   -1    0    0    0    0 -0.00000000000E+00 -0.00000000000E+00 -0.30000000000E+02  0.30000000000E+02  0.00000000000E+00 0. -1.
          5    1    1    2  501    0  0.84765262255E+01  0.24278841405E+02 -0.14717213159E+02  0.30000000000E+02  0.47000000000E+01 0. -1.
         -5    1    1    2    0  501 -0.84765262255E+01 -0.24278841405E+02  0.14717213159E+02  0.30000000000E+02  0.47000000000E+01 0.  1.
</event>
<event>
 4    1  0.7643770E-002  0.6000000E+02  0.7546771E-02  0.1259629E+00
         11   -1    0    0    0    0  0.00000000000E+00  0.00000000000E+00  0.30000000000E+02  0.30000000000E+02  0.00000000000E+00 0.  1.
        -11   -1    0    0    0    0 -0.00000000000E+00 -0.00000000000E+00 -0.30000000000E+02  0.30000000000E+02  0.00000000000E+00 0. -1.
          5    1    1    2  501    0 -0.15794073374E+02 -0.95378357827E+01 -0.23183764466E+02  0.30000000000E+02  0.47000000000E+01 0. -1.
         -5    1    1    2    0  501  0.15794073374E+02  0.95378357827E+01  0.23183764466E+02  0.30000000000E+02  0.47000000000E+01 0.  1.
</event>
<event>
 4    1  0.7643770E-002  0.6000000E+02  0.7546771E-02  0.1259629E+00
         11   -1    0    0    0    0  0.00000000000E+00  0.00000000000E+00  0.30000000000E+02  0.30000000000E+02  0.00000000000E+00 0. -1.
        -11   -1    0    0    0    0 -0.00000000000E+00 -0.00000000000E+00 -0.30000000000E+02  0.30000000000E+02  0.00000000000E+00 0.  1.
          5    1    1    2  501    0 -0.22670899226E+02 -0.17524841924E+02 -0.75379203925E+01  0.30000000000E+02  0.47000000000E+01 0. -1.
         -5    1    1    2    0  501  0.22670899226E+02  0.17524841924E+02  0.75379203925E+01  0.30000000000E+02  0.47000000000E+01 0.  1.
</event>
<event>
 4    1  0.7643770E-002  0.6000000E+02  0.7546771E-02  0.1259629E+00
         11   -1    0    0    0    0  0.00000000000E+00  0.00000000000E+00  0.30000000000E+02  0.30000000000E+02  0.00000000000E+00 0.  1.
        -11   -1    0    0    0    0 -0.00000000000E+00 -0.00000000000E+00 -0.30000000000E+02  0.30000000000E+02  0.00000000000E+00 0. -1.
          5    1    1    2  501    0 -0.54597605259E+00  0.17438088806E+02 -0.23948381343E+02  0.30000000000E+02  0.47000000000E+01 0. -1.
         -5    1    1    2    0  501  0.54597605259E+00 -0.17438088806E+02  0.23948381343E+02  0.30000000000E+02  0.47000000000E+01 0.  1.
</event>
<event>
 4    1  0.7643770E-002  0.6000000E+02  0.7546771E-02  0.1259629E+00
         11   -1    0    0    0    0  0.00000000000E+00  0.00000000000E+00  0.30000000000E+02  0.30000000000E+02  0.00000000000E+00 0.  1.
        -11   -1    0    0    0    0 -0.00000000000E+00 -0.00000000000E+00 -0.30000000000E+02  0.30000000000E+02  0.00000000000E+00 0. -1.
          5    1    1    2  501    0 -0.20348305447E+02  0.13113808009E+02 -0.17084627737E+02  0.30000000000E+02  0.47000000000E+01 0. -1.
         -5    1    1    2    0  501  0.20348305447E+02 -0.13113808009E+02  0.17084627737E+02  0.30000000000E+02  0.47000000000E+01 0.  1.
</event>
<event>
 4    1  0.7643770E-002  0.6000000E+02  0.7546771E-02  0.1259629E+00
         11   -1    0    0    0    0  0.00000000000E+00  0.00000000000E+00  0.30000000000E+02  0.30000000000E+02  0.00000000000E+00 0.  1.
        -11   -1    0    0    0    0 -0.00000000000E+00 -0.00000000000E+00 -0.30000000000E+02  0.30000000000E+02  0.00000000000E+00 0. -1.
          5    1    1    2  501    0  0.81817128504E+01  0.28428383044E+02 -0.16723074845E+01  0.30000000000E+02  0.47000000000E+01 0. -1.
         -5    1    1    2    0  501 -0.81817128504E+01 -0.28428383044E+02  0.16723074845E+01  0.30000000000E+02  0.47000000000E+01 0.  1.
</event>
<event>
 4    1  0.7643770E-002  0.6000000E+02  0.7546771E-02  0.1259629E+00
         11   -1    0    0    0    0  0.00000000000E+00  0.00000000000E+00  0.30000000000E+02  0.30000000000E+02  0.00000000000E+00 0.  1.
        -11   -1    0    0    0    0 -0.00000000000E+00 -0.00000000000E+00 -0.30000000000E+02  0.30000000000E+02  0.00000000000E+00 0. -1.
          5    1    1    2  501    0  0.14073927782E+02  0.14402963107E+02 -0.21734516570E+02  0.30000000000E+02  0.47000000000E+01 0. -1.
         -5    1    1    2    0  501 -0.14073927782E+02 -0.14402963107E+02  0.21734516570E+02  0.30000000000E+02  0.47000000000E+01 0.  1.
</event>
<event>
 4    1  0.7643770E-002  0.6000000E+02  0.7546771E-02  0.1259629E+00
         11   -1    0    0    0    0  0.00000000000E+00  0.00000000000E+00  0.30000000000E+02  0.30000000000E+02  0.00000000000E+00 0.  1.
        -11   -1    0    0    0    0 -0.00000000000E+00 -0.00000000000E+00 -0.30000000000E+02  0.30000000000E+02  0.00000000000E+00 0. -1.
          5    1    1    2  501    0 -0.13932178594E+02  0.24125144656E+02  0.10088696395E+02  0.30000000000E+02  0.47000000000E+01 0. -1.
         -5    1    1    2    0  501  0.13932178594E+02 -0.24125144656E+02 -0.10088696395E+02  0.30000000000E+02  0.47000000000E+01 0.  1.
</event>
<event>
 4    1  0.7643770E-002  0.6000000E+02  0.7546771E-02  0.1259629E+00
         11   -1    0    0    0    0  0.00000000000E+00  0.00000000000E+00  0.30000000000E+02  0.30000000000E+02  0.00000000000E+00 0.  1.
        -11   -1    0    0    0    0 -0.00000000000E+00 -0.00000000000E+00 -0.30000000000E+02  0.30000000000E+02  0.00000000000E+00 0. -1.
          5    1    1    2  501    0 -0.11339420037E+02  0.11638452981E+02 -0.24776480086E+02  0.30000000000E+02  0.47000000000E+01 0. -1.
         -5    1    1    2    0  501  0.11339420037E+02 -0.11638452981E+02  0.24776480086E+02  0.30000000000E+02  0.47000000000E+01 0.  1.
</event>
<event>
 4    1  0.7643770E-002  0.6000000E+02  0.7546771E-02  0.1259629E+00
         11   -1    0    0    0    0  0.00000000000E+00  0.00000000000E+00  0.30000000000E+02  0.30000000000E+02  0.00000000000E+00 0. -1.
        -11   -1    0    0    0    0 -0.00000000000E+00 -0.00000000000E+00 -0.30000000000E+02  0.30000000000E+02  0.00000000000E+00 0.  1.
          5    1    1    2  501    0 -0.10367721288E+02 -0.21736345556E+02  0.17261275652E+02  0.30000000000E+02  0.47000000000E+01 0. -1.
         -5    1    1    2    0  501  0.10367721288E+02  0.21736345556E+02 -0.17261275652E+02  0.30000000000E+02  0.47000000000E+01 0.  1.
</event>
<event>
 4    1  0.7643770E-002  0.6000000E+02  0.7546771E-02  0.1259629E+00
         11   -1    0    0    0    0  0.00000000000E+00  0.00000000000E+00  0.30000000000E+02  0.30000000000E+02  0.00000000000E+00 0. -1.
        -11   -1    0    0    0    0 -0.00000000000E+00 -0.00000000000E+00 -0.30000000000E+02  0.30000000000E+02  0.00000000000E+00 0.  1.
          5    1    1    2  501    0 -0.84774514751E+00 -0.17133975541E+01 -0.29567813531E+02  0.30000000000E+02  0.47000000000E+01 0.  1.
         -5    1    1    2    0  501  0.84774514751E+00  0.17133975541E+01  0.29567813531E+02  0.30000000000E+02  0.47000000000E+01 0. -1.
</event>
<event>
 4    1  0.7643770E-002  0.6000000E+02  0.7546771E-02  0.1259629E+00
         11   -1    0    0    0    0  0.00000000000E+00  0.00000000000E+00  0.30000000000E+02  0.30000000000E+02  0.00000000000E+00 0.  1.
        -11   -1    0    0    0    0 -0.00000000000E+00 -0.00000000000E+00 -0.30000000000E+02  0.30000000000E+02  0.00000000000E+00 0. -1.
          5    1    1    2  501    0  0.16406593615E+02 -0.23684609279E+02  0.69117992777E+01  0.30000000000E+02  0.47000000000E+01 0. -1.
         -5    1    1    2    0  501 -0.16406593615E+02  0.23684609279E+02 -0.69117992777E+01  0.30000000000E+02  0.47000000000E+01 0.  1.
</event>
<event>
 4    1  0.7643770E-002  0.6000000E+02  0.7546771E-02  0.1259629E+00
         11   -1    0    0    0    0  0.00000000000E+00  0.00000000000E+00  0.30000000000E+02  0.30000000000E+02  0.00000000000E+00 0.  1.
        -11   -1    0    0    0    0 -0.00000000000E+00 -0.00000000000E+00 -0.30000000000E+02  0.30000000000E+02  0.00000000000E+00 0. -1.
          5    1    1    2  501    0  0.17123399456E+02  0.18304897465E+02 -0.15799681005E+02  0.30000000000E+02  0.47000000000E+01 0. -1.
         -5    1    1    2    0  501 -0.17123399456E+02 -0.18304897465E+02  0.15799681005E+02  0.30000000000E+02  0.47000000000E+01 0.  1.
</event>
<event>
 4    1  0.7643770E-002  0.6000000E+02  0.7546771E-02  0.1259629E+00
         11   -1    0    0    0    0  0.00000000000E+00  0.00000000000E+00  0.30000000000E+02  0.30000000000E+02  0.00000000000E+00 0.  1.
        -11   -1    0    0    0    0 -0.00000000000E+00 -0.00000000000E+00 -0.30000000000E+02  0.30000000000E+02  0.00000000000E+00 0. -1.
          5    1    1    2  501    0 -0.15678874952E+02 -0.33797875101E+01  0.24913047117E+02  0.30000000000E+02  0.47000000000E+01 0.  1.
         -5    1    1    2    0  501  0.15678874952E+02  0.33797875101E+01 -0.24913047117E+02  0.30000000000E+02  0.47000000000E+01 0. -1.
</event>
<event>
 4    1  0.7643770E-002  0.6000000E+02  0.7546771E-02  0.1259629E+00
         11   -1    0    0    0    0  0.00000000000E+00  0.00000000000E+00  0.30000000000E+02  0.30000000000E+02  0.00000000000E+00 0.  1.
        -11   -1    0    0    0    0 -0.00000000000E+00 -0.00000000000E+00 -0.30000000000E+02  0.30000000000E+02  0.00000000000E+00 0. -1.
          5    1    1    2  501    0 -0.16506337475E+02 -0.20524177425E+02 -0.13572360302E+02  0.30000000000E+02  0.47000000000E+01 0.  1.
         -5    1    1    2    0  501  0.16506337475E+02  0.20524177425E+02  0.13572360302E+02  0.30000000000E+02  0.47000000000E+01 0.  1.
</event>
<event>
 4    1  0.7643770E-002  0.6000000E+02  0.7546771E-02  0.1259629E+00
         11   -1    0    0    0    0  0.00000000000E+00  0.00000000000E+00  0.30000000000E+02  0.30000000000E+02  0.00000000000E+00 0. -1.
        -11   -1    0    0    0    0 -0.00000000000E+00 -0.00000000000E+00 -0.30000000000E+02  0.30000000000E+02  0.00000000000E+00 0.  1.
          5    1    1    2  501    0 -0.19470086354E+02 -0.20509013532E+02 -0.88434213575E+01  0.30000000000E+02  0.47000000000E+01 0.  1.
         -5    1    1    2    0  501  0.19470086354E+02  0.20509013532E+02  0.88434213575E+01  0.30000000000E+02  0.47000000000E+01 0. -1.
</event>
<event>
 4    1  0.7643770E-002  0.6000000E+02  0.7546771E-02  0.1259629E+00
         11   -1    0    0    0    0  0.00000000000E+00  0.00000000000E+00  0.30000000000E+02  0.30000000000E+02  0.00000000000E+00 0.  1.
        -11   -1    0    0    0    0 -0.00000000000E+00 -0.00000000000E+00 -0.30000000000E+02  0.30000000000E+02  0.00000000000E+00 0. -1.
          5    1    1    2  501    0  0.84515256461E+01 -0.27952913327E+02  0.50116215703E+01  0.30000000000E+02  0.47000000000E+01 0. -1.
         -5    1    1    2    0  501 -0.84515256461E+01  0.27952913327E+02 -0.50116215703E+01  0.30000000000E+02  0.47000000000E+01 0.  1.
</event>
<event>
 4    1  0.7643770E-002  0.6000000E+02  0.7546771E-02  0.1259629E+00
         11   -1    0    0    0    0  0.00000000000E+00  0.00000000000E+00  0.30000000000E+02  0.30000000000E+02  0.00000000000E+00 0.  1.
        -11   -1    0    0    0    0 -0.00000000000E+00 -0.00000000000E+00 -0.30000000000E+02  0.30000000000E+02  0.00000000000E+00 0. -1.
          5    1    1    2  501    0  0.35810463227E+01 -0.15721103811E+02 -0.24858258230E+02  0.30000000000E+02  0.47000000000E+01 0. -1.
         -5    1    1    2    0  501 -0.35810463227E+01  0.15721103811E+02  0.24858258230E+02  0.30000000000E+02  0.47000000000E+01 0.  1.
</event>
<event>
 4    1  0.7643770E-002  0.6000000E+02  0.7546771E-02  0.1259629E+00
         11   -1    0    0    0    0  0.00000000000E+00  0.00000000000E+00  0.30000000000E+02  0.30000000000E+02  0.00000000000E+00 0.  1.
        -11   -1    0    0    0    0 -0.00000000000E+00 -0.00000000000E+00 -0.30000000000E+02  0.30000000000E+02  0.00000000000E+00 0. -1.
          5    1    1    2  501    0 -0.13182194521E+02 -0.33744909756E+01 -0.26320192976E+02  0.30000000000E+02  0.47000000000E+01 0. -1.
         -5    1    1    2    0  501  0.13182194521E+02  0.33744909756E+01  0.26320192976E+02  0.30000000000E+02  0.47000000000E+01 0.  1.
</event>
<event>
 4    1  0.7643770E-002  0.6000000E+02  0.7546771E-02  0.1259629E+00
         11   -1    0    0    0    0  0.00000000000E+00  0.00000000000E+00  0.30000000000E+02  0.30000000000E+02  0.00000000000E+00 0. -1.
        -11   -1    0    0    0    0 -0.00000000000E+00 -0.00000000000E+00 -0.30000000000E+02  0.30000000000E+02  0.00000000000E+00 0.  1.
          5    1    1    2  501    0  0.56491541405E+01 -0.65444491864E+01 -0.28340205404E+02  0.30000000000E+02  0.47000000000E+01 0.  1.
         -5    1    1    2    0  501 -0.56491541405E+01  0.65444491864E+01  0.28340205404E+02  0.30000000000E+02  0.47000000000E+01 0. -1.
</event>
<event>
 4    1  0.7643770E-002  0.6000000E+02  0.7546771E-02  0.1259629E+00
         11   -1    0    0    0    0  0.00000000000E+00  0.00000000000E+00  0.30000000000E+02  0.30000000000E+02  0.00000000000E+00 0.  1.
        -11   -1    0    0    0    0 -0.00000000000E+00 -0.00000000000E+00 -0.30000000000E+02  0.30000000000E+02  0.00000000000E+00 0. -1.
          5    1    1    2  501    0 -0.13378259176E+02  0.13315724419E+02 -0.22839081957E+02  0.30000000000E+02  0.47000000000E+01 0. -1.
         -5    1    1    2    0  501  0.13378259176E+02 -0.13315724419E+02  0.22839081957E+02  0.30000000000E+02  0.47000000000E+01 0.  1.
</event>
<event>
 4    1  0.7643770E-002  0.6000000E+02  0.7546771E-02  0.1259629E+00
         11   -1    0    0    0    0  0.00000000000E+00  0.00000000000E+00  0.30000000000E+02  0.30000000000E+02  0.00000000000E+00 0.  1.
        -11   -1    0    0    0    0 -0.00000000000E+00 -0.00000000000E+00 -0.30000000000E+02  0.30000000000E+02  0.00000000000E+00 0. -1.
          5    1    1    2  501    0  0.24698258716E+01  0.53182032953E+01 -0.29043530672E+02  0.30000000000E+02  0.47000000000E+01 0. -1.
         -5    1    1    2    0  501 -0.24698258716E+01 -0.53182032953E+01  0.29043530672E+02  0.30000000000E+02  0.47000000000E+01 0.  1.
</event>
<event>
 4    1  0.7643770E-002  0.6000000E+02  0.7546771E-02  0.1259629E+00
         11   -1    0    0    0    0  0.00000000000E+00  0.00000000000E+00  0.30000000000E+02  0.30000000000E+02  0.00000000000E+00 0.  1.
        -11   -1    0    0    0    0 -0.00000000000E+00 -0.00000000000E+00 -0.30000000000E+02  0.30000000000E+02  0.00000000000E+00 0. -1.
          5    1    1    2  501    0  0.12438476077E+02  0.25519945773E+02 -0.84809598898E+01  0.30000000000E+02  0.47000000000E+01 0. -1.
         -5    1    1    2    0  501 -0.12438476077E+02 -0.25519945773E+02  0.84809598898E+01  0.30000000000E+02  0.47000000000E+01 0.  1.
</event>
<event>
 4    1  0.7643770E-002  0.6000000E+02  0.7546771E-02  0.1259629E+00
         11   -1    0    0    0    0  0.00000000000E+00  0.00000000000E+00  0.30000000000E+02  0.30000000000E+02  0.00000000000E+00 0. -1.
        -11   -1    0    0    0    0 -0.00000000000E+00 -0.00000000000E+00 -0.30000000000E+02  0.30000000000E+02  0.00000000000E+00 0.  1.
          5    1    1    2  501    0 -0.23562245046E+02 -0.17253837569E+02 -0.50035684795E+01  0.30000000000E+02  0.47000000000E+01 0.  1.
         -5    1    1    2    0  501  0.23562245046E+02  0.17253837569E+02  0.50035684795E+01  0.30000000000E+02  0.47000000000E+01 0. -1.
</event>
<event>
 4    1  0.7643770E-002  0.6000000E+02  0.7546771E-02  0.1259629E+00
         11   -1    0    0    0    0  0.00000000000E+00  0.00000000000E+00  0.30000000000E+02  0.30000000000E+02  0.00000000000E+00 0.  1.
        -11   -1    0    0    0    0 -0.00000000000E+00 -0.00000000000E+00 -0.30000000000E+02  0.30000000000E+02  0.00000000000E+00 0. -1.
          5    1    1    2  501    0 -0.13421346216E+02  0.14251068548E+02  0.22241504243E+02  0.30000000000E+02  0.47000000000E+01 0.  1.
         -5    1    1    2    0  501  0.13421346216E+02 -0.14251068548E+02 -0.22241504243E+02  0.30000000000E+02  0.47000000000E+01 0. -1.
</event>
<event>
 4    1  0.7643770E-002  0.6000000E+02  0.7546771E-02  0.1259629E+00
         11   -1    0    0    0    0  0.00000000000E+00  0.00000000000E+00  0.30000000000E+02  0.30000000000E+02  0.00000000000E+00 0.  1.
        -11   -1    0    0    0    0 -0.00000000000E+00 -0.00000000000E+00 -0.30000000000E+02  0.30000000000E+02  0.00000000000E+00 0. -1.
          5    1    1    2  501    0 -0.12885040622E+02  0.20955137042E+02 -0.16515688291E+02  0.30000000000E+02  0.47000000000E+01 0. -1.
         -5    1    1    2    0  501  0.12885040622E+02 -0.20955137042E+02  0.16515688291E+02  0.30000000000E+02  0.47000000000E+01 0.  1.
</event>
<event>
 4    1  0.7643770E-002  0.6000000E+02  0.7546771E-02  0.1259629E+00
         11   -1    0    0    0    0  0.00000000000E+00  0.00000000000E+00  0.30000000000E+02  0.30000000000E+02  0.00000000000E+00 0.  1.
        -11   -1    0    0    0    0 -0.00000000000E+00 -0.00000000000E+00 -0.30000000000E+02  0.30000000000E+02  0.00000000000E+00 0. -1.
          5    1    1    2  501    0 -0.86834787280E+01  0.18678658427E+02 -0.21298237404E+02  0.30000000000E+02  0.47000000000E+01 0. -1.
         -5    1    1    2    0  501  0.86834787280E+01 -0.18678658427E+02  0.21298237404E+02  0.30000000000E+02  0.47000000000E+01 0.  1.
</event>
<event>
 4    1  0.7643770E-002  0.6000000E+02  0.7546771E-02  0.1259629E+00
         11   -1    0    0    0    0  0.00000000000E+00  0.00000000000E+00  0.30000000000E+02  0.30000000000E+02  0.00000000000E+00 0.  1.
        -11   -1    0    0    0    0 -0.00000000000E+00 -0.00000000000E+00 -0.30000000000E+02  0.30000000000E+02  0.00000000000E+00 0. -1.
          5    1    1    2  501    0  0.13092689918E+02  0.23423312895E+01 -0.26476498161E+02  0.30000000000E+02  0.47000000000E+01 0. -1.
         -5    1    1    2    0  501 -0.13092689918E+02 -0.23423312895E+01  0.26476498161E+02  0.30000000000E+02  0.47000000000E+01 0.  1.
</event>
<event>
 4    1  0.7643770E-002  0.6000000E+02  0.7546771E-02  0.1259629E+00
         11   -1    0    0    0    0  0.00000000000E+00  0.00000000000E+00  0.30000000000E+02  0.30000000000E+02  0.00000000000E+00 0.  1.
        -11   -1    0    0    0    0 -0.00000000000E+00 -0.00000000000E+00 -0.30000000000E+02  0.30000000000E+02  0.00000000000E+00 0. -1.
          5    1    1    2  501    0 -0.27923021414E+02 -0.98731618599E+01 -0.85764210906E+00  0.30000000000E+02  0.47000000000E+01 0. -1.
         -5    1    1    2    0  501  0.27923021414E+02  0.98731618599E+01  0.85764210906E+00  0.30000000000E+02  0.47000000000E+01 0.  1.
</event>
<event>
 4    1  0.7643770E-002  0.6000000E+02  0.7546771E-02  0.1259629E+00
         11   -1    0    0    0    0  0.00000000000E+00  0.00000000000E+00  0.30000000000E+02  0.30000000000E+02  0.00000000000E+00 0. -1.
        -11   -1    0    0    0    0 -0.00000000000E+00 -0.00000000000E+00 -0.30000000000E+02  0.30000000000E+02  0.00000000000E+00 0.  1.
          5    1    1    2  501    0 -0.48645132710E+01  0.28672787888E+02 -0.56672520118E+01  0.30000000000E+02  0.47000000000E+01 0.  1.
         -5    1    1    2    0  501  0.48645132710E+01 -0.28672787888E+02  0.56672520118E+01  0.30000000000E+02  0.47000000000E+01 0. -1.
</event>
<event>
 4    1  0.7643770E-002  0.6000000E+02  0.7546771E-02  0.1259629E+00
         11   -1    0    0    0    0  0.00000000000E+00  0.00000000000E+00  0.30000000000E+02  0.30000000000E+02  0.00000000000E+00 0.  1.
        -11   -1    0    0    0    0 -0.00000000000E+00 -0.00000000000E+00 -0.30000000000E+02  0.30000000000E+02  0.00000000000E+00 0. -1.
          5    1    1    2  501    0  0.29494478749E+02 -0.27197023322E+01 -0.76742592707E+00  0.30000000000E+02  0.47000000000E+01 0. -1.
         -5    1    1    2    0  501 -0.29494478749E+02  0.27197023322E+01  0.76742592707E+00  0.30000000000E+02  0.47000000000E+01 0.  1.
</event>
<event>
 4    1  0.7643770E-002  0.6000000E+02  0.7546771E-02  0.1259629E+00
         11   -1    0    0    0    0  0.00000000000E+00  0.00000000000E+00  0.30000000000E+02  0.30000000000E+02  0.00000000000E+00 0.  1.
        -11   -1    0    0    0    0 -0.00000000000E+00 -0.00000000000E+00 -0.30000000000E+02  0.30000000000E+02  0.00000000000E+00 0. -1.
          5    1    1    2  501    0  0.22743862336E+02  0.14314913861E+01 -0.18936144234E+02  0.30000000000E+02  0.47000000000E+01 0. -1.
         -5    1    1    2    0  501 -0.22743862336E+02 -0.14314913861E+01  0.18936144234E+02  0.30000000000E+02  0.47000000000E+01 0.  1.
</event>
<event>
 4    1  0.7643770E-002  0.6000000E+02  0.7546771E-02  0.1259629E+00
         11   -1    0    0    0    0  0.00000000000E+00  0.00000000000E+00  0.30000000000E+02  0.30000000000E+02  0.00000000000E+00 0.  1.
        -11   -1    0    0    0    0 -0.00000000000E+00 -0.00000000000E+00 -0.30000000000E+02  0.30000000000E+02  0.00000000000E+00 0. -1.
          5    1    1    2  501    0  0.27557236640E+02  0.91287458089E+01  0.59308269846E+01  0.30000000000E+02  0.47000000000E+01 0. -1.
         -5    1    1    2    0  501 -0.27557236640E+02 -0.91287458089E+01 -0.59308269846E+01  0.30000000000E+02  0.47000000000E+01 0.  1.
</event>
<event>
 4    1  0.7643770E-002  0.6000000E+02  0.7546771E-02  0.1259629E+00
         11   -1    0    0    0    0  0.00000000000E+00  0.00000000000E+00  0.30000000000E+02  0.30000000000E+02  0.00000000000E+00 0. -1.
        -11   -1    0    0    0    0 -0.00000000000E+00 -0.00000000000E+00 -0.30000000000E+02  0.30000000000E+02  0.00000000000E+00 0.  1.
          5    1    1    2  501    0  0.14037365256E+02  0.13089845895E+02 -0.22572512290E+02  0.30000000000E+02  0.47000000000E+01 0.  1.
         -5    1    1    2    0  501 -0.14037365256E+02 -0.13089845895E+02  0.22572512290E+02  0.30000000000E+02  0.47000000000E+01 0. -1.
</event>
<event>
 4    1  0.7643770E-002  0.6000000E+02  0.7546771E-02  0.1259629E+00
         11   -1    0    0    0    0  0.00000000000E+00  0.00000000000E+00  0.30000000000E+02  0.30000000000E+02  0.00000000000E+00 0.  1.
        -11   -1    0    0    0    0 -0.00000000000E+00 -0.00000000000E+00 -0.30000000000E+02  0.30000000000E+02  0.00000000000E+00 0. -1.
          5    1    1    2  501    0 -0.42232723079E+01 -0.14477378717E+02  0.25504499143E+02  0.30000000000E+02  0.47000000000E+01 0.  1.
         -5    1    1    2    0  501  0.42232723079E+01  0.14477378717E+02 -0.25504499143E+02  0.30000000000E+02  0.47000000000E+01 0. -1.
</event>
<event>
 4    1  0.7643770E-002  0.6000000E+02  0.7546771E-02  0.1259629E+00
         11   -1    0    0    0    0  0.00000000000E+00  0.00000000000E+00  0.30000000000E+02  0.30000000000E+02  0.00000000000E+00 0.  1.
        -11   -1    0    0    0    0 -0.00000000000E+00 -0.00000000000E+00 -0.30000000000E+02  0.30000000000E+02  0.00000000000E+00 0. -1.
          5    1    1    2  501    0 -0.34504869366E+01 -0.17870564574E+02 -0.23380484634E+02  0.30000000000E+02  0.47000000000E+01 0. -1.
         -5    1    1    2    0  501  0.34504869366E+01  0.17870564574E+02  0.23380484634E+02  0.30000000000E+02  0.47000000000E+01 0.  1.
</event>
<event>
 4    1  0.7643770E-002  0.6000000E+02  0.7546771E-02  0.1259629E+00
         11   -1    0    0    0    0  0.00000000000E+00  0.00000000000E+00  0.30000000000E+02  0.30000000000E+02  0.00000000000E+00 0.  1.
        -11   -1    0    0    0    0 -0.00000000000E+00 -0.00000000000E+00 -0.30000000000E+02  0.30000000000E+02  0.00000000000E+00 0. -1.
          5    1    1    2  501    0 -0.67202588513E+01  0.10116565126E+01 -0.28839637170E+02  0.30000000000E+02  0.47000000000E+01 0. -1.
         -5    1    1    2    0  501  0.67202588513E+01 -0.10116565126E+01  0.28839637170E+02  0.30000000000E+02  0.47000000000E+01 0.  1.
</event>
<event>
 4    1  0.7643770E-002  0.6000000E+02  0.7546771E-02  0.1259629E+00
         11   -1    0    0    0    0  0.00000000000E+00  0.00000000000E+00  0.30000000000E+02  0.30000000000E+02  0.00000000000E+00 0. -1.
        -11   -1    0    0    0    0 -0.00000000000E+00 -0.00000000000E+00 -0.30000000000E+02  0.30000000000E+02  0.00000000000E+00 0.  1.
          5    1    1    2  501    0 -0.22364317707E+02  0.17395538464E+02 -0.86684793961E+01  0.30000000000E+02  0.47000000000E+01 0.  1.
         -5    1    1    2    0  501  0.22364317707E+02 -0.17395538464E+02  0.86684793961E+01  0.30000000000E+02  0.47000000000E+01 0. -1.
</event>
<event>
 4    1  0.7643770E-002  0.6000000E+02  0.7546771E-02  0.1259629E+00
         11   -1    0    0    0    0  0.00000000000E+00  0.00000000000E+00  0.30000000000E+02  0.30000000000E+02  0.00000000000E+00 0. -1.
        -11   -1    0    0    0    0 -0.00000000000E+00 -0.00000000000E+00 -0.30000000000E+02  0.30000000000E+02  0.00000000000E+00 0.  1.
          5    1    1    2  501    0  0.16401561328E+02 -0.14322120765E+02 -0.20094169373E+02  0.30000000000E+02  0.47000000000E+01 0.  1.
         -5    1    1    2    0  501 -0.16401561328E+02  0.14322120765E+02  0.20094169373E+02  0.30000000000E+02  0.47000000000E+01 0. -1.
</event>
<event>
 4    1  0.7643770E-002  0.6000000E+02  0.7546771E-02  0.1259629E+00
         11   -1    0    0    0    0  0.00000000000E+00  0.00000000000E+00  0.30000000000E+02  0.30000000000E+02  0.00000000000E+00 0.  1.
        -11   -1    0    0    0    0 -0.00000000000E+00 -0.00000000000E+00 -0.30000000000E+02  0.30000000000E+02  0.00000000000E+00 0. -1.
          5    1    1    2  501    0  0.24453731522E+02 -0.13613896411E+02 -0.97255765463E+01  0.30000000000E+02  0.47000000000E+01 0. -1.
         -5    1    1    2    0  501 -0.24453731522E+02  0.13613896411E+02  0.97255765463E+01  0.30000000000E+02  0.47000000000E+01 0.  1.
</event>
<event>
 4    1  0.7643770E-002  0.6000000E+02  0.7546771E-02  0.1259629E+00
         11   -1    0    0    0    0  0.00000000000E+00  0.00000000000E+00  0.30000000000E+02  0.30000000000E+02  0.00000000000E+00 0.  1.
        -11   -1    0    0    0    0 -0.00000000000E+00 -0.00000000000E+00 -0.30000000000E+02  0.30000000000E+02  0.00000000000E+00 0. -1.
          5    1    1    2  501    0  0.14501874524E+02 -0.16458598984E+02 -0.19917835093E+02  0.30000000000E+02  0.47000000000E+01 0. -1.
         -5    1    1    2    0  501 -0.14501874524E+02  0.16458598984E+02  0.19917835093E+02  0.30000000000E+02  0.47000000000E+01 0.  1.
</event>
<event>
 4    1  0.7643770E-002  0.6000000E+02  0.7546771E-02  0.1259629E+00
         11   -1    0    0    0    0  0.00000000000E+00  0.00000000000E+00  0.30000000000E+02  0.30000000000E+02  0.00000000000E+00 0.  1.
        -11   -1    0    0    0    0 -0.00000000000E+00 -0.00000000000E+00 -0.30000000000E+02  0.30000000000E+02  0.00000000000E+00 0. -1.
          5    1    1    2  501    0 -0.17741992211E+02  0.23698856574E+02  0.12230737779E+01  0.30000000000E+02  0.47000000000E+01 0. -1.
         -5    1    1    2    0  501  0.17741992211E+02 -0.23698856574E+02 -0.12230737779E+01  0.30000000000E+02  0.47000000000E+01 0.  1.
</event>
<event>
 4    1  0.7643770E-002  0.6000000E+02  0.7546771E-02  0.1259629E+00
         11   -1    0    0    0    0  0.00000000000E+00  0.00000000000E+00  0.30000000000E+02  0.30000000000E+02  0.00000000000E+00 0.  1.
        -11   -1    0    0    0    0 -0.00000000000E+00 -0.00000000000E+00 -0.30000000000E+02  0.30000000000E+02  0.00000000000E+00 0. -1.
          5    1    1    2  501    0 -0.21614377702E+02 -0.61885425273E+01 -0.19298461543E+02  0.30000000000E+02  0.47000000000E+01 0. -1.
         -5    1    1    2    0  501  0.21614377702E+02  0.61885425273E+01  0.19298461543E+02  0.30000000000E+02  0.47000000000E+01 0.  1.
</event>
<event>
 4    1  0.7643770E-002  0.6000000E+02  0.7546771E-02  0.1259629E+00
         11   -1    0    0    0    0  0.00000000000E+00  0.00000000000E+00  0.30000000000E+02  0.30000000000E+02  0.00000000000E+00 0.  1.
        -11   -1    0    0    0    0 -0.00000000000E+00 -0.00000000000E+00 -0.30000000000E+02  0.30000000000E+02  0.00000000000E+00 0. -1.
          5    1    1    2  501    0 -0.67057314904E+01  0.12926619807E+02 -0.25803985458E+02  0.30000000000E+02  0.47000000000E+01 0. -1.
         -5    1    1    2    0  501  0.67057314904E+01 -0.12926619807E+02  0.25803985458E+02  0.30000000000E+02  0.47000000000E+01 0.  1.
</event>
<event>
 4    1  0.7643770E-002  0.6000000E+02  0.7546771E-02  0.1259629E+00
         11   -1    0    0    0    0  0.00000000000E+00  0.00000000000E+00  0.30000000000E+02  0.30000000000E+02  0.00000000000E+00 0.  1.
        -11   -1    0    0    0    0 -0.00000000000E+00 -0.00000000000E+00 -0.30000000000E+02  0.30000000000E+02  0.00000000000E+00 0. -1.
          5    1    1    2  501    0  0.50061455344E+01 -0.22230104676E+02 -0.18938610112E+02  0.30000000000E+02  0.47000000000E+01 0. -1.
         -5    1    1    2    0  501 -0.50061455344E+01  0.22230104676E+02  0.18938610112E+02  0.30000000000E+02  0.47000000000E+01 0.  1.
</event>
<event>
 4    1  0.7643770E-002  0.6000000E+02  0.7546771E-02  0.1259629E+00
         11   -1    0    0    0    0  0.00000000000E+00  0.00000000000E+00  0.30000000000E+02  0.30000000000E+02  0.00000000000E+00 0.  1.
        -11   -1    0    0    0    0 -0.00000000000E+00 -0.00000000000E+00 -0.30000000000E+02  0.30000000000E+02  0.00000000000E+00 0. -1.
          5    1    1    2  501    0 -0.10501710415E+02  0.20717527361E+02 -0.18395872864E+02  0.30000000000E+02  0.47000000000E+01 0. -1.
         -5    1    1    2    0  501  0.10501710415E+02 -0.20717527361E+02  0.18395872864E+02  0.30000000000E+02  0.47000000000E+01 0.  1.
</event>
<event>
 4    1  0.7643770E-002  0.6000000E+02  0.7546771E-02  0.1259629E+00
         11   -1    0    0    0    0  0.00000000000E+00  0.00000000000E+00  0.30000000000E+02  0.30000000000E+02  0.00000000000E+00 0.  1.
        -11   -1    0    0    0    0 -0.00000000000E+00 -0.00000000000E+00 -0.30000000000E+02  0.30000000000E+02  0.00000000000E+00 0. -1.
          5    1    1    2  501    0  0.25601551348E+02  0.66208976336E+01  0.13365413689E+02  0.30000000000E+02  0.47000000000E+01 0. -1.
         -5    1    1    2    0  501 -0.25601551348E+02 -0.66208976336E+01 -0.13365413689E+02  0.30000000000E+02  0.47000000000E+01 0.  1.
</event>
<event>
 4    1  0.7643770E-002  0.6000000E+02  0.7546771E-02  0.1259629E+00
         11   -1    0    0    0    0  0.00000000000E+00  0.00000000000E+00  0.30000000000E+02  0.30000000000E+02  0.00000000000E+00 0. -1.
        -11   -1    0    0    0    0 -0.00000000000E+00 -0.00000000000E+00 -0.30000000000E+02  0.30000000000E+02  0.00000000000E+00 0.  1.
          5    1    1    2  501    0  0.73313068831E+01 -0.75933211724E+01 -0.27685798037E+02  0.30000000000E+02  0.47000000000E+01 0.  1.
         -5    1    1    2    0  501 -0.73313068831E+01  0.75933211724E+01  0.27685798037E+02  0.30000000000E+02  0.47000000000E+01 0. -1.
</event>
<event>
 4    1  0.7643770E-002  0.6000000E+02  0.7546771E-02  0.1259629E+00
         11   -1    0    0    0    0  0.00000000000E+00  0.00000000000E+00  0.30000000000E+02  0.30000000000E+02  0.00000000000E+00 0.  1.
        -11   -1    0    0    0    0 -0.00000000000E+00 -0.00000000000E+00 -0.30000000000E+02  0.30000000000E+02  0.00000000000E+00 0. -1.
          5    1    1    2  501    0  0.28135674487E+02  0.30447655240E+01  0.87762876026E+01  0.30000000000E+02  0.47000000000E+01 0. -1.
         -5    1    1    2    0  501 -0.28135674487E+02 -0.30447655240E+01 -0.87762876026E+01  0.30000000000E+02  0.47000000000E+01 0.  1.
</event>
<event>
 4    1  0.7643770E-002  0.6000000E+02  0.7546771E-02  0.1259629E+00
         11   -1    0    0    0    0  0.00000000000E+00  0.00000000000E+00  0.30000000000E+02  0.30000000000E+02  0.00000000000E+00 0.  1.
        -11   -1    0    0    0    0 -0.00000000000E+00 -0.00000000000E+00 -0.30000000000E+02  0.30000000000E+02  0.00000000000E+00 0. -1.
          5    1    1    2  501    0  0.54585855877E+01  0.68850565872E+01 -0.28296816767E+02  0.30000000000E+02  0.47000000000E+01 0. -1.
         -5    1    1    2    0  501 -0.54585855877E+01 -0.68850565872E+01  0.28296816767E+02  0.30000000000E+02  0.47000000000E+01 0.  1.
</event>
<event>
 4    1  0.7643770E-002  0.6000000E+02  0.7546771E-02  0.1259629E+00
         11   -1    0    0    0    0  0.00000000000E+00  0.00000000000E+00  0.30000000000E+02  0.30000000000E+02  0.00000000000E+00 0. -1.
        -11   -1    0    0    0    0 -0.00000000000E+00 -0.00000000000E+00 -0.30000000000E+02  0.30000000000E+02  0.00000000000E+00 0.  1.
          5    1    1    2  501    0  0.58782367029E+01  0.18149694933E+02 -0.22670353043E+02  0.30000000000E+02  0.47000000000E+01 0.  1.
         -5    1    1    2    0  501 -0.58782367029E+01 -0.18149694933E+02  0.22670353043E+02  0.30000000000E+02  0.47000000000E+01 0. -1.
</event>
<event>
 4    1  0.7643770E-002  0.6000000E+02  0.7546771E-02  0.1259629E+00
         11   -1    0    0    0    0  0.00000000000E+00  0.00000000000E+00  0.30000000000E+02  0.30000000000E+02  0.00000000000E+00 0.  1.
        -11   -1    0    0    0    0 -0.00000000000E+00 -0.00000000000E+00 -0.30000000000E+02  0.30000000000E+02  0.00000000000E+00 0. -1.
          5    1    1    2  501    0  0.21296071210E+02  0.20014578303E+02 -0.48789349591E+01  0.30000000000E+02  0.47000000000E+01 0. -1.
         -5    1    1    2    0  501 -0.21296071210E+02 -0.20014578303E+02  0.48789349591E+01  0.30000000000E+02  0.47000000000E+01 0.  1.
</event>
<event>
 4    1  0.7643770E-002  0.6000000E+02  0.7546771E-02  0.1259629E+00
         11   -1    0    0    0    0  0.00000000000E+00  0.00000000000E+00  0.30000000000E+02  0.30000000000E+02  0.00000000000E+00 0.  1.
        -11   -1    0    0    0    0 -0.00000000000E+00 -0.00000000000E+00 -0.30000000000E+02  0.30000000000E+02  0.00000000000E+00 0. -1.
          5    1    1    2  501    0 -0.14993702080E+02  0.13535416179E+02 -0.21676978729E+02  0.30000000000E+02  0.47000000000E+01 0.  1.
         -5    1    1    2    0  501  0.14993702080E+02 -0.13535416179E+02  0.21676978729E+02  0.30000000000E+02  0.47000000000E+01 0. -1.
</event>
<event>
 4    1  0.7643770E-002  0.6000000E+02  0.7546771E-02  0.1259629E+00
         11   -1    0    0    0    0  0.00000000000E+00  0.00000000000E+00  0.30000000000E+02  0.30000000000E+02  0.00000000000E+00 0.  1.
        -11   -1    0    0    0    0 -0.00000000000E+00 -0.00000000000E+00 -0.30000000000E+02  0.30000000000E+02  0.00000000000E+00 0. -1.
          5    1    1    2  501    0  0.17114555781E+02 -0.18622526278E+02 -0.15433842536E+02  0.30000000000E+02  0.47000000000E+01 0. -1.
         -5    1    1    2    0  501 -0.17114555781E+02  0.18622526278E+02  0.15433842536E+02  0.30000000000E+02  0.47000000000E+01 0.  1.
</event>
<event>
 4    1  0.7643770E-002  0.6000000E+02  0.7546771E-02  0.1259629E+00
         11   -1    0    0    0    0  0.00000000000E+00  0.00000000000E+00  0.30000000000E+02  0.30000000000E+02  0.00000000000E+00 0.  1.
        -11   -1    0    0    0    0 -0.00000000000E+00 -0.00000000000E+00 -0.30000000000E+02  0.30000000000E+02  0.00000000000E+00 0. -1.
          5    1    1    2  501    0  0.11947086915E+02 -0.43837089023E+01 -0.26757432809E+02  0.30000000000E+02  0.47000000000E+01 0. -1.
         -5    1    1    2    0  501 -0.11947086915E+02  0.43837089023E+01  0.26757432809E+02  0.30000000000E+02  0.47000000000E+01 0.  1.
</event>
<event>
 4    1  0.7643770E-002  0.6000000E+02  0.7546771E-02  0.1259629E+00
         11   -1    0    0    0    0  0.00000000000E+00  0.00000000000E+00  0.30000000000E+02  0.30000000000E+02  0.00000000000E+00 0. -1.
        -11   -1    0    0    0    0 -0.00000000000E+00 -0.00000000000E+00 -0.30000000000E+02  0.30000000000E+02  0.00000000000E+00 0.  1.
          5    1    1    2  501    0 -0.21037012075E+02 -0.68828658741E+00 -0.20853785856E+02  0.30000000000E+02  0.47000000000E+01 0. -1.
         -5    1    1    2    0  501  0.21037012075E+02  0.68828658741E+00  0.20853785856E+02  0.30000000000E+02  0.47000000000E+01 0.  1.
</event>
<event>
 4    1  0.7643770E-002  0.6000000E+02  0.7546771E-02  0.1259629E+00
         11   -1    0    0    0    0  0.00000000000E+00  0.00000000000E+00  0.30000000000E+02  0.30000000000E+02  0.00000000000E+00 0.  1.
        -11   -1    0    0    0    0 -0.00000000000E+00 -0.00000000000E+00 -0.30000000000E+02  0.30000000000E+02  0.00000000000E+00 0. -1.
          5    1    1    2  501    0 -0.27353220917E+02  0.11978638090E+01 -0.11325918407E+02  0.30000000000E+02  0.47000000000E+01 0. -1.
         -5    1    1    2    0  501  0.27353220917E+02 -0.11978638090E+01  0.11325918407E+02  0.30000000000E+02  0.47000000000E+01 0.  1.
</event>
<event>
 4    1  0.7643770E-002  0.6000000E+02  0.7546771E-02  0.1259629E+00
         11   -1    0    0    0    0  0.00000000000E+00  0.00000000000E+00  0.30000000000E+02  0.30000000000E+02  0.00000000000E+00 0.  1.
        -11   -1    0    0    0    0 -0.00000000000E+00 -0.00000000000E+00 -0.30000000000E+02  0.30000000000E+02  0.00000000000E+00 0. -1.
          5    1    1    2  501    0  0.26141251241E+02  0.13351544692E+02 -0.40350015946E+01  0.30000000000E+02  0.47000000000E+01 0. -1.
         -5    1    1    2    0  501 -0.26141251241E+02 -0.13351544692E+02  0.40350015946E+01  0.30000000000E+02  0.47000000000E+01 0.  1.
</event>
<event>
 4    1  0.7643770E-002  0.6000000E+02  0.7546771E-02  0.1259629E+00
         11   -1    0    0    0    0  0.00000000000E+00  0.00000000000E+00  0.30000000000E+02  0.30000000000E+02  0.00000000000E+00 0.  1.
        -11   -1    0    0    0    0 -0.00000000000E+00 -0.00000000000E+00 -0.30000000000E+02  0.30000000000E+02  0.00000000000E+00 0. -1.
          5    1    1    2  501    0  0.46187364699E+01  0.29259724458E+02  0.66768110693E+00  0.30000000000E+02  0.47000000000E+01 0. -1.
         -5    1    1    2    0  501 -0.46187364699E+01 -0.29259724458E+02 -0.66768110693E+00  0.30000000000E+02  0.47000000000E+01 0.  1.
</event>
<event>
 4    1  0.7643770E-002  0.6000000E+02  0.7546771E-02  0.1259629E+00
         11   -1    0    0    0    0  0.00000000000E+00  0.00000000000E+00  0.30000000000E+02  0.30000000000E+02  0.00000000000E+00 0.  1.
        -11   -1    0    0    0    0 -0.00000000000E+00 -0.00000000000E+00 -0.30000000000E+02  0.30000000000E+02  0.00000000000E+00 0. -1.
          5    1    1    2  501    0  0.16345267379E+02  0.36111509304E+01 -0.24447941084E+02  0.30000000000E+02  0.47000000000E+01 0. -1.
         -5    1    1    2    0  501 -0.16345267379E+02 -0.36111509304E+01  0.24447941084E+02  0.30000000000E+02  0.47000000000E+01 0.  1.
</event>
<event>
 4    1  0.7643770E-002  0.6000000E+02  0.7546771E-02  0.1259629E+00
         11   -1    0    0    0    0  0.00000000000E+00  0.00000000000E+00  0.30000000000E+02  0.30000000000E+02  0.00000000000E+00 0.  1.
        -11   -1    0    0    0    0 -0.00000000000E+00 -0.00000000000E+00 -0.30000000000E+02  0.30000000000E+02  0.00000000000E+00 0. -1.
          5    1    1    2  501    0  0.15070431928E+02  0.78838963520E-01 -0.25510505011E+02  0.30000000000E+02  0.47000000000E+01 0. -1.
         -5    1    1    2    0  501 -0.15070431928E+02 -0.78838963520E-01  0.25510505011E+02  0.30000000000E+02  0.47000000000E+01 0.  1.
</event>
<event>
 4    1  0.7643770E-002  0.6000000E+02  0.7546771E-02  0.1259629E+00
         11   -1    0    0    0    0  0.00000000000E+00  0.00000000000E+00  0.30000000000E+02  0.30000000000E+02  0.00000000000E+00 0.  1.
        -11   -1    0    0    0    0 -0.00000000000E+00 -0.00000000000E+00 -0.30000000000E+02  0.30000000000E+02  0.00000000000E+00 0. -1.
          5    1    1    2  501    0  0.20415011363E+02  0.21385168623E+02 -0.19524021136E+01  0.30000000000E+02  0.47000000000E+01 0. -1.
         -5    1    1    2    0  501 -0.20415011363E+02 -0.21385168623E+02  0.19524021136E+01  0.30000000000E+02  0.47000000000E+01 0.  1.
</event>
<event>
 4    1  0.7643770E-002  0.6000000E+02  0.7546771E-02  0.1259629E+00
         11   -1    0    0    0    0  0.00000000000E+00  0.00000000000E+00  0.30000000000E+02  0.30000000000E+02  0.00000000000E+00 0.  1.
        -11   -1    0    0    0    0 -0.00000000000E+00 -0.00000000000E+00 -0.30000000000E+02  0.30000000000E+02  0.00000000000E+00 0. -1.
          5    1    1    2  501    0 -0.40303535848E+01 -0.17231429526E+02 -0.23764344857E+02  0.30000000000E+02  0.47000000000E+01 0. -1.
         -5    1    1    2    0  501  0.40303535848E+01  0.17231429526E+02  0.23764344857E+02  0.30000000000E+02  0.47000000000E+01 0.  1.
</event>
<event>
 4    1  0.7643770E-002  0.6000000E+02  0.7546771E-02  0.1259629E+00
         11   -1    0    0    0    0  0.00000000000E+00  0.00000000000E+00  0.30000000000E+02  0.30000000000E+02  0.00000000000E+00 0.  1.
        -11   -1    0    0    0    0 -0.00000000000E+00 -0.00000000000E+00 -0.30000000000E+02  0.30000000000E+02  0.00000000000E+00 0. -1.
          5    1    1    2  501    0  0.56849861023E+01  0.28677222923E+02 -0.48174493704E+01  0.30000000000E+02  0.47000000000E+01 0. -1.
         -5    1    1    2    0  501 -0.56849861023E+01 -0.28677222923E+02  0.48174493704E+01  0.30000000000E+02  0.47000000000E+01 0.  1.
</event>
<event>
 4    1  0.7643770E-002  0.6000000E+02  0.7546771E-02  0.1259629E+00
         11   -1    0    0    0    0  0.00000000000E+00  0.00000000000E+00  0.30000000000E+02  0.30000000000E+02  0.00000000000E+00 0.  1.
        -11   -1    0    0    0    0 -0.00000000000E+00 -0.00000000000E+00 -0.30000000000E+02  0.30000000000E+02  0.00000000000E+00 0. -1.
          5    1    1    2  501    0 -0.21887915925E+02  0.18633169800E+02  0.71856885309E+01  0.30000000000E+02  0.47000000000E+01 0.  1.
         -5    1    1    2    0  501  0.21887915925E+02 -0.18633169800E+02 -0.71856885309E+01  0.30000000000E+02  0.47000000000E+01 0. -1.
</event>
<event>
 4    1  0.7643770E-002  0.6000000E+02  0.7546771E-02  0.1259629E+00
         11   -1    0    0    0    0  0.00000000000E+00  0.00000000000E+00  0.30000000000E+02  0.30000000000E+02  0.00000000000E+00 0.  1.
        -11   -1    0    0    0    0 -0.00000000000E+00 -0.00000000000E+00 -0.30000000000E+02  0.30000000000E+02  0.00000000000E+00 0. -1.
          5    1    1    2  501    0  0.16697072121E+02  0.24236321362E+02  0.34232308427E+01  0.30000000000E+02  0.47000000000E+01 0. -1.
         -5    1    1    2    0  501 -0.16697072121E+02 -0.24236321362E+02 -0.34232308427E+01  0.30000000000E+02  0.47000000000E+01 0.  1.
</event>
<event>
 4    1  0.7643770E-002  0.6000000E+02  0.7546771E-02  0.1259629E+00
         11   -1    0    0    0    0  0.00000000000E+00  0.00000000000E+00  0.30000000000E+02  0.30000000000E+02  0.00000000000E+00 0.  1.
        -11   -1    0    0    0    0 -0.00000000000E+00 -0.00000000000E+00 -0.30000000000E+02  0.30000000000E+02  0.00000000000E+00 0. -1.
          5    1    1    2  501    0 -0.24453479191E+01 -0.20025902859E+02 -0.21700080374E+02  0.30000000000E+02  0.47000000000E+01 0. -1.
         -5    1    1    2    0  501  0.24453479191E+01  0.20025902859E+02  0.21700080374E+02  0.30000000000E+02  0.47000000000E+01 0.  1.
</event>
<event>
 4    1  0.7643770E-002  0.6000000E+02  0.7546771E-02  0.1259629E+00
         11   -1    0    0    0    0  0.00000000000E+00  0.00000000000E+00  0.30000000000E+02  0.30000000000E+02  0.00000000000E+00 0.  1.
        -11   -1    0    0    0    0 -0.00000000000E+00 -0.00000000000E+00 -0.30000000000E+02  0.30000000000E+02  0.00000000000E+00 0. -1.
          5    1    1    2  501    0 -0.21434855221E+02 -0.17662955787E+02 -0.10318768070E+02  0.30000000000E+02  0.47000000000E+01 0. -1.
         -5    1    1    2    0  501  0.21434855221E+02  0.17662955787E+02  0.10318768070E+02  0.30000000000E+02  0.47000000000E+01 0.  1.
</event>
<event>
 4    1  0.7643770E-002  0.6000000E+02  0.7546771E-02  0.1259629E+00
         11   -1    0    0    0    0  0.00000000000E+00  0.00000000000E+00  0.30000000000E+02  0.30000000000E+02  0.00000000000E+00 0.  1.
        -11   -1    0    0    0    0 -0.00000000000E+00 -0.00000000000E+00 -0.30000000000E+02  0.30000000000E+02  0.00000000000E+00 0. -1.
          5    1    1    2  501    0  0.33214281886E+01 -0.18444316117E+02  0.22949625656E+02  0.30000000000E+02  0.47000000000E+01 0.  1.
         -5    1    1    2    0  501 -0.33214281886E+01  0.18444316117E+02 -0.22949625656E+02  0.30000000000E+02  0.47000000000E+01 0. -1.
</event>
<event>
 4    1  0.7643770E-002  0.6000000E+02  0.7546771E-02  0.1259629E+00
         11   -1    0    0    0    0  0.00000000000E+00  0.00000000000E+00  0.30000000000E+02  0.30000000000E+02  0.00000000000E+00 0. -1.
        -11   -1    0    0    0    0 -0.00000000000E+00 -0.00000000000E+00 -0.30000000000E+02  0.30000000000E+02  0.00000000000E+00 0.  1.
          5    1    1    2  501    0  0.20616203484E+02  0.16276167755E+02  0.13710161091E+02  0.30000000000E+02  0.47000000000E+01 0.  1.
         -5    1    1    2    0  501 -0.20616203484E+02 -0.16276167755E+02 -0.13710161091E+02  0.30000000000E+02  0.47000000000E+01 0. -1.
</event>
<event>
 4    1  0.7643770E-002  0.6000000E+02  0.7546771E-02  0.1259629E+00
         11   -1    0    0    0    0  0.00000000000E+00  0.00000000000E+00  0.30000000000E+02  0.30000000000E+02  0.00000000000E+00 0.  1.
        -11   -1    0    0    0    0 -0.00000000000E+00 -0.00000000000E+00 -0.30000000000E+02  0.30000000000E+02  0.00000000000E+00 0. -1.
          5    1    1    2  501    0 -0.21027459703E+02  0.16158050890E+02 -0.13216403817E+02  0.30000000000E+02  0.47000000000E+01 0. -1.
         -5    1    1    2    0  501  0.21027459703E+02 -0.16158050890E+02  0.13216403817E+02  0.30000000000E+02  0.47000000000E+01 0.  1.
</event>
<event>
 4    1  0.7643770E-002  0.6000000E+02  0.7546771E-02  0.1259629E+00
         11   -1    0    0    0    0  0.00000000000E+00  0.00000000000E+00  0.30000000000E+02  0.30000000000E+02  0.00000000000E+00 0.  1.
        -11   -1    0    0    0    0 -0.00000000000E+00 -0.00000000000E+00 -0.30000000000E+02  0.30000000000E+02  0.00000000000E+00 0. -1.
          5    1    1    2  501    0  0.19261665035E+02 -0.66902437766E+01 -0.21497416084E+02  0.30000000000E+02  0.47000000000E+01 0. -1.
         -5    1    1    2    0  501 -0.19261665035E+02  0.66902437766E+01  0.21497416084E+02  0.30000000000E+02  0.47000000000E+01 0.  1.
</event>
<event>
 4    1  0.7643770E-002  0.6000000E+02  0.7546771E-02  0.1259629E+00
         11   -1    0    0    0    0  0.00000000000E+00  0.00000000000E+00  0.30000000000E+02  0.30000000000E+02  0.00000000000E+00 0.  1.
        -11   -1    0    0    0    0 -0.00000000000E+00 -0.00000000000E+00 -0.30000000000E+02  0.30000000000E+02  0.00000000000E+00 0. -1.
          5    1    1    2  501    0 -0.81736964989E+01 -0.91242857564E+01 -0.26978659992E+02  0.30000000000E+02  0.47000000000E+01 0. -1.
         -5    1    1    2    0  501  0.81736964989E+01  0.91242857564E+01  0.26978659992E+02  0.30000000000E+02  0.47000000000E+01 0.  1.
</event>
<event>
 4    1  0.7643770E-002  0.6000000E+02  0.7546771E-02  0.1259629E+00
         11   -1    0    0    0    0  0.00000000000E+00  0.00000000000E+00  0.30000000000E+02  0.30000000000E+02  0.00000000000E+00 0.  1.
        -11   -1    0    0    0    0 -0.00000000000E+00 -0.00000000000E+00 -0.30000000000E+02  0.30000000000E+02  0.00000000000E+00 0. -1.
          5    1    1    2  501    0 -0.11454688589E+02 -0.20501439643E+02 -0.18066296851E+02  0.30000000000E+02  0.47000000000E+01 0. -1.
         -5    1    1    2    0  501  0.11454688589E+02  0.20501439643E+02  0.18066296851E+02  0.30000000000E+02  0.47000000000E+01 0.  1.
</event>
<event>
 4    1  0.7643770E-002  0.6000000E+02  0.7546771E-02  0.1259629E+00
         11   -1    0    0    0    0  0.00000000000E+00  0.00000000000E+00  0.30000000000E+02  0.30000000000E+02  0.00000000000E+00 0.  1.
        -11   -1    0    0    0    0 -0.00000000000E+00 -0.00000000000E+00 -0.30000000000E+02  0.30000000000E+02  0.00000000000E+00 0. -1.
          5    1    1    2  501    0  0.24080152474E+02  0.41526947384E+01 -0.16757427703E+02  0.30000000000E+02  0.47000000000E+01 0. -1.
         -5    1    1    2    0  501 -0.24080152474E+02 -0.41526947384E+01  0.16757427703E+02  0.30000000000E+02  0.47000000000E+01 0.  1.
</event>
<event>
 4    1  0.7643770E-002  0.6000000E+02  0.7546771E-02  0.1259629E+00
         11   -1    0    0    0    0  0.00000000000E+00  0.00000000000E+00  0.30000000000E+02  0.30000000000E+02  0.00000000000E+00 0.  1.
        -11   -1    0    0    0    0 -0.00000000000E+00 -0.00000000000E+00 -0.30000000000E+02  0.30000000000E+02  0.00000000000E+00 0. -1.
          5    1    1    2  501    0  0.75403159924E+01 -0.11146418257E+02 -0.26397177781E+02  0.30000000000E+02  0.47000000000E+01 0. -1.
         -5    1    1    2    0  501 -0.75403159924E+01  0.11146418257E+02  0.26397177781E+02  0.30000000000E+02  0.47000000000E+01 0.  1.
</event>
<event>
 4    1  0.7643770E-002  0.6000000E+02  0.7546771E-02  0.1259629E+00
         11   -1    0    0    0    0  0.00000000000E+00  0.00000000000E+00  0.30000000000E+02  0.30000000000E+02  0.00000000000E+00 0.  1.
        -11   -1    0    0    0    0 -0.00000000000E+00 -0.00000000000E+00 -0.30000000000E+02  0.30000000000E+02  0.00000000000E+00 0. -1.
          5    1    1    2  501    0  0.18673723537E+02  0.13277595687E+02  0.18785832482E+02  0.30000000000E+02  0.47000000000E+01 0.  1.
         -5    1    1    2    0  501 -0.18673723537E+02 -0.13277595687E+02 -0.18785832482E+02  0.30000000000E+02  0.47000000000E+01 0. -1.
</event>
<event>
 4    1  0.7643770E-002  0.6000000E+02  0.7546771E-02  0.1259629E+00
         11   -1    0    0    0    0  0.00000000000E+00  0.00000000000E+00  0.30000000000E+02  0.30000000000E+02  0.00000000000E+00 0.  1.
        -11   -1    0    0    0    0 -0.00000000000E+00 -0.00000000000E+00 -0.30000000000E+02  0.30000000000E+02  0.00000000000E+00 0. -1.
          5    1    1    2  501    0 -0.28638117874E+02 -0.70504879839E+01  0.28388067577E+01  0.30000000000E+02  0.47000000000E+01 0. -1.
         -5    1    1    2    0  501  0.28638117874E+02  0.70504879839E+01 -0.28388067577E+01  0.30000000000E+02  0.47000000000E+01 0.  1.
</event>
<event>
 4    1  0.7643770E-002  0.6000000E+02  0.7546771E-02  0.1259629E+00
         11   -1    0    0    0    0  0.00000000000E+00  0.00000000000E+00  0.30000000000E+02  0.30000000000E+02  0.00000000000E+00 0.  1.
        -11   -1    0    0    0    0 -0.00000000000E+00 -0.00000000000E+00 -0.30000000000E+02  0.30000000000E+02  0.00000000000E+00 0. -1.
          5    1    1    2  501    0 -0.79992437319E+01 -0.30552195387E+01 -0.28365255742E+02  0.30000000000E+02  0.47000000000E+01 0. -1.
         -5    1    1    2    0  501  0.79992437319E+01  0.30552195387E+01  0.28365255742E+02  0.30000000000E+02  0.47000000000E+01 0.  1.
</event>
<event>
 4    1  0.7643770E-002  0.6000000E+02  0.7546771E-02  0.1259629E+00
         11   -1    0    0    0    0  0.00000000000E+00  0.00000000000E+00  0.30000000000E+02  0.30000000000E+02  0.00000000000E+00 0.  1.
        -11   -1    0    0    0    0 -0.00000000000E+00 -0.00000000000E+00 -0.30000000000E+02  0.30000000000E+02  0.00000000000E+00 0. -1.
          5    1    1    2  501    0  0.14380664509E+02 -0.46029500971E+01 -0.25493515620E+02  0.30000000000E+02  0.47000000000E+01 0. -1.
         -5    1    1    2    0  501 -0.14380664509E+02  0.46029500971E+01  0.25493515620E+02  0.30000000000E+02  0.47000000000E+01 0.  1.
</event>
<event>
 4    1  0.7643770E-002  0.6000000E+02  0.7546771E-02  0.1259629E+00
         11   -1    0    0    0    0  0.00000000000E+00  0.00000000000E+00  0.30000000000E+02  0.30000000000E+02  0.00000000000E+00 0.  1.
        -11   -1    0    0    0    0 -0.00000000000E+00 -0.00000000000E+00 -0.30000000000E+02  0.30000000000E+02  0.00000000000E+00 0. -1.
          5    1    1    2  501    0  0.21341351803E+02  0.12116775954E+02 -0.16602422825E+02  0.30000000000E+02  0.47000000000E+01 0. -1.
         -5    1    1    2    0  501 -0.21341351803E+02 -0.12116775954E+02  0.16602422825E+02  0.30000000000E+02  0.47000000000E+01 0.  1.
</event>
<event>
 4    1  0.7643770E-002  0.6000000E+02  0.7546771E-02  0.1259629E+00
         11   -1    0    0    0    0  0.00000000000E+00  0.00000000000E+00  0.30000000000E+02  0.30000000000E+02  0.00000000000E+00 0.  1.
        -11   -1    0    0    0    0 -0.00000000000E+00 -0.00000000000E+00 -0.30000000000E+02  0.30000000000E+02  0.00000000000E+00 0. -1.
          5    1    1    2  501    0 -0.47440041061E+01 -0.48097423331E+01 -0.28849104037E+02  0.30000000000E+02  0.47000000000E+01 0. -1.
         -5    1    1    2    0  501  0.47440041061E+01  0.48097423331E+01  0.28849104037E+02  0.30000000000E+02  0.47000000000E+01 0.  1.
</event>
<event>
 4    1  0.7643770E-002  0.6000000E+02  0.7546771E-02  0.1259629E+00
         11   -1    0    0    0    0  0.00000000000E+00  0.00000000000E+00  0.30000000000E+02  0.30000000000E+02  0.00000000000E+00 0. -1.
        -11   -1    0    0    0    0 -0.00000000000E+00 -0.00000000000E+00 -0.30000000000E+02  0.30000000000E+02  0.00000000000E+00 0.  1.
          5    1    1    2  501    0  0.80515631661E+01  0.85594052541E+01 -0.27199612355E+02  0.30000000000E+02  0.47000000000E+01 0.  1.
         -5    1    1    2    0  501 -0.80515631661E+01 -0.85594052541E+01  0.27199612355E+02  0.30000000000E+02  0.47000000000E+01 0. -1.
</event>
<event>
 4    1  0.7643770E-002  0.6000000E+02  0.7546771E-02  0.1259629E+00
         11   -1    0    0    0    0  0.00000000000E+00  0.00000000000E+00  0.30000000000E+02  0.30000000000E+02  0.00000000000E+00 0. -1.
        -11   -1    0    0    0    0 -0.00000000000E+00 -0.00000000000E+00 -0.30000000000E+02  0.30000000000E+02  0.00000000000E+00 0.  1.
          5    1    1    2  501    0 -0.14846638321E+02  0.17642978207E+02 -0.18606790442E+02  0.30000000000E+02  0.47000000000E+01 0.  1.
         -5    1    1    2    0  501  0.14846638321E+02 -0.17642978207E+02  0.18606790442E+02  0.30000000000E+02  0.47000000000E+01 0. -1.
</event>
<event>
 4    1  0.7643770E-002  0.6000000E+02  0.7546771E-02  0.1259629E+00
         11   -1    0    0    0    0  0.00000000000E+00  0.00000000000E+00  0.30000000000E+02  0.30000000000E+02  0.00000000000E+00 0.  1.
        -11   -1    0    0    0    0 -0.00000000000E+00 -0.00000000000E+00 -0.30000000000E+02  0.30000000000E+02  0.00000000000E+00 0. -1.
          5    1    1    2  501    0  0.22127134389E+02  0.34895774425E+01 -0.19393884938E+02  0.30000000000E+02  0.47000000000E+01 0. -1.
         -5    1    1    2    0  501 -0.22127134389E+02 -0.34895774425E+01  0.19393884938E+02  0.30000000000E+02  0.47000000000E+01 0.  1.
</event>
<event>
 4    1  0.7643770E-002  0.6000000E+02  0.7546771E-02  0.1259629E+00
         11   -1    0    0    0    0  0.00000000000E+00  0.00000000000E+00  0.30000000000E+02  0.30000000000E+02  0.00000000000E+00 0. -1.
        -11   -1    0    0    0    0 -0.00000000000E+00 -0.00000000000E+00 -0.30000000000E+02  0.30000000000E+02  0.00000000000E+00 0.  1.
          5    1    1    2  501    0  0.41036771208E+01  0.85391965560E+01  0.28074044174E+02  0.30000000000E+02  0.47000000000E+01 0. -1.
         -5    1    1    2    0  501 -0.41036771208E+01 -0.85391965560E+01 -0.28074044174E+02  0.30000000000E+02  0.47000000000E+01 0.  1.
</event>
<event>
 4    1  0.7643770E-002  0.6000000E+02  0.7546771E-02  0.1259629E+00
         11   -1    0    0    0    0  0.00000000000E+00  0.00000000000E+00  0.30000000000E+02  0.30000000000E+02  0.00000000000E+00 0.  1.
        -11   -1    0    0    0    0 -0.00000000000E+00 -0.00000000000E+00 -0.30000000000E+02  0.30000000000E+02  0.00000000000E+00 0. -1.
          5    1    1    2  501    0 -0.12362825803E+02  0.25833559029E+02 -0.75959045584E+01  0.30000000000E+02  0.47000000000E+01 0. -1.
         -5    1    1    2    0  501  0.12362825803E+02 -0.25833559029E+02  0.75959045584E+01  0.30000000000E+02  0.47000000000E+01 0.  1.
</event>
<event>
 4    1  0.7643770E-002  0.6000000E+02  0.7546771E-02  0.1259629E+00
         11   -1    0    0    0    0  0.00000000000E+00  0.00000000000E+00  0.30000000000E+02  0.30000000000E+02  0.00000000000E+00 0. -1.
        -11   -1    0    0    0    0 -0.00000000000E+00 -0.00000000000E+00 -0.30000000000E+02  0.30000000000E+02  0.00000000000E+00 0.  1.
          5    1    1    2  501    0 -0.27758918746E+02 -0.10049320669E+02 -0.25226145458E+01  0.30000000000E+02  0.47000000000E+01 0.  1.
         -5    1    1    2    0  501  0.27758918746E+02  0.10049320669E+02  0.25226145458E+01  0.30000000000E+02  0.47000000000E+01 0. -1.
</event>
<event>
 4    1  0.7643770E-002  0.6000000E+02  0.7546771E-02  0.1259629E+00
         11   -1    0    0    0    0  0.00000000000E+00  0.00000000000E+00  0.30000000000E+02  0.30000000000E+02  0.00000000000E+00 0. -1.
        -11   -1    0    0    0    0 -0.00000000000E+00 -0.00000000000E+00 -0.30000000000E+02  0.30000000000E+02  0.00000000000E+00 0.  1.
          5    1    1    2  501    0  0.17413500712E+02 -0.31795758281E+01 -0.23760687922E+02  0.30000000000E+02  0.47000000000E+01 0.  1.
         -5    1    1    2    0  501 -0.17413500712E+02  0.31795758281E+01  0.23760687922E+02  0.30000000000E+02  0.47000000000E+01 0. -1.
</event>
<event>
 4    1  0.7643770E-002  0.6000000E+02  0.7546771E-02  0.1259629E+00
         11   -1    0    0    0    0  0.00000000000E+00  0.00000000000E+00  0.30000000000E+02  0.30000000000E+02  0.00000000000E+00 0. -1.
        -11   -1    0    0    0    0 -0.00000000000E+00 -0.00000000000E+00 -0.30000000000E+02  0.30000000000E+02  0.00000000000E+00 0.  1.
          5    1    1    2  501    0  0.10225648238E+02  0.15850265772E+02 -0.22849840110E+02  0.30000000000E+02  0.47000000000E+01 0.  1.
         -5    1    1    2    0  501 -0.10225648238E+02 -0.15850265772E+02  0.22849840110E+02  0.30000000000E+02  0.47000000000E+01 0. -1.
</event>
<event>
 4    1  0.7643770E-002  0.6000000E+02  0.7546771E-02  0.1259629E+00
         11   -1    0    0    0    0  0.00000000000E+00  0.00000000000E+00  0.30000000000E+02  0.30000000000E+02  0.00000000000E+00 0.  1.
        -11   -1    0    0    0    0 -0.00000000000E+00 -0.00000000000E+00 -0.30000000000E+02  0.30000000000E+02  0.00000000000E+00 0. -1.
          5    1    1    2  501    0 -0.14021957760E+02 -0.17582349644E+02 -0.19291336956E+02  0.30000000000E+02  0.47000000000E+01 0. -1.
         -5    1    1    2    0  501  0.14021957760E+02  0.17582349644E+02  0.19291336956E+02  0.30000000000E+02  0.47000000000E+01 0.  1.
</event>
<event>
 4    1  0.7643770E-002  0.6000000E+02  0.7546771E-02  0.1259629E+00
         11   -1    0    0    0    0  0.00000000000E+00  0.00000000000E+00  0.30000000000E+02  0.30000000000E+02  0.00000000000E+00 0.  1.
        -11   -1    0    0    0    0 -0.00000000000E+00 -0.00000000000E+00 -0.30000000000E+02  0.30000000000E+02  0.00000000000E+00 0. -1.
          5    1    1    2  501    0  0.15125240249E+01 -0.26578687374E+02 -0.13007522768E+02  0.30000000000E+02  0.47000000000E+01 0. -1.
         -5    1    1    2    0  501 -0.15125240249E+01  0.26578687374E+02  0.13007522768E+02  0.30000000000E+02  0.47000000000E+01 0. -1.
</event>
<event>
 4    1  0.7643770E-002  0.6000000E+02  0.7546771E-02  0.1259629E+00
         11   -1    0    0    0    0  0.00000000000E+00  0.00000000000E+00  0.30000000000E+02  0.30000000000E+02  0.00000000000E+00 0.  1.
        -11   -1    0    0    0    0 -0.00000000000E+00 -0.00000000000E+00 -0.30000000000E+02  0.30000000000E+02  0.00000000000E+00 0. -1.
          5    1    1    2  501    0  0.31334178517E+00  0.11376583417E+02 -0.27356629301E+02  0.30000000000E+02  0.47000000000E+01 0. -1.
         -5    1    1    2    0  501 -0.31334178517E+00 -0.11376583417E+02  0.27356629301E+02  0.30000000000E+02  0.47000000000E+01 0.  1.
</event>
<event>
 4    1  0.7643770E-002  0.6000000E+02  0.7546771E-02  0.1259629E+00
         11   -1    0    0    0    0  0.00000000000E+00  0.00000000000E+00  0.30000000000E+02  0.30000000000E+02  0.00000000000E+00 0. -1.
        -11   -1    0    0    0    0 -0.00000000000E+00 -0.00000000000E+00 -0.30000000000E+02  0.30000000000E+02  0.00000000000E+00 0.  1.
          5    1    1    2  501    0  0.14871228658E+02 -0.42151074372E+01  0.25278240198E+02  0.30000000000E+02  0.47000000000E+01 0. -1.
         -5    1    1    2    0  501 -0.14871228658E+02  0.42151074372E+01 -0.25278240198E+02  0.30000000000E+02  0.47000000000E+01 0.  1.
</event>
<event>
 4    1  0.7643770E-002  0.6000000E+02  0.7546771E-02  0.1259629E+00
         11   -1    0    0    0    0  0.00000000000E+00  0.00000000000E+00  0.30000000000E+02  0.30000000000E+02  0.00000000000E+00 0.  1.
        -11   -1    0    0    0    0 -0.00000000000E+00 -0.00000000000E+00 -0.30000000000E+02  0.30000000000E+02  0.00000000000E+00 0. -1.
          5    1    1    2  501    0  0.92225393847E+01  0.18528486697E+01 -0.28096649606E+02  0.30000000000E+02  0.47000000000E+01 0. -1.
         -5    1    1    2    0  501 -0.92225393847E+01 -0.18528486697E+01  0.28096649606E+02  0.30000000000E+02  0.47000000000E+01 0.  1.
</event>
<event>
 4    1  0.7643770E-002  0.6000000E+02  0.7546771E-02  0.1259629E+00
         11   -1    0    0    0    0  0.00000000000E+00  0.00000000000E+00  0.30000000000E+02  0.30000000000E+02  0.00000000000E+00 0.  1.
        -11   -1    0    0    0    0 -0.00000000000E+00 -0.00000000000E+00 -0.30000000000E+02  0.30000000000E+02  0.00000000000E+00 0. -1.
          5    1    1    2  501    0  0.19975699971E+02 -0.12254929523E+02 -0.18130033455E+02  0.30000000000E+02  0.47000000000E+01 0. -1.
         -5    1    1    2    0  501 -0.19975699971E+02  0.12254929523E+02  0.18130033455E+02  0.30000000000E+02  0.47000000000E+01 0.  1.
</event>
<event>
 4    1  0.7643770E-002  0.6000000E+02  0.7546771E-02  0.1259629E+00
         11   -1    0    0    0    0  0.00000000000E+00  0.00000000000E+00  0.30000000000E+02  0.30000000000E+02  0.00000000000E+00 0. -1.
        -11   -1    0    0    0    0 -0.00000000000E+00 -0.00000000000E+00 -0.30000000000E+02  0.30000000000E+02  0.00000000000E+00 0.  1.
          5    1    1    2  501    0 -0.15091601829E+02 -0.23745451945E+02 -0.92901596427E+01  0.30000000000E+02  0.47000000000E+01 0.  1.
         -5    1    1    2    0  501  0.15091601829E+02  0.23745451945E+02  0.92901596427E+01  0.30000000000E+02  0.47000000000E+01 0. -1.
</event>
<event>
 4    1  0.7643770E-002  0.6000000E+02  0.7546771E-02  0.1259629E+00
         11   -1    0    0    0    0  0.00000000000E+00  0.00000000000E+00  0.30000000000E+02  0.30000000000E+02  0.00000000000E+00 0.  1.
        -11   -1    0    0    0    0 -0.00000000000E+00 -0.00000000000E+00 -0.30000000000E+02  0.30000000000E+02  0.00000000000E+00 0. -1.
          5    1    1    2  501    0  0.15994218753E+02 -0.20120394300E+02 -0.14739901618E+02  0.30000000000E+02  0.47000000000E+01 0. -1.
         -5    1    1    2    0  501 -0.15994218753E+02  0.20120394300E+02  0.14739901618E+02  0.30000000000E+02  0.47000000000E+01 0.  1.
</event>
<event>
 4    1  0.7643770E-002  0.6000000E+02  0.7546771E-02  0.1259629E+00
         11   -1    0    0    0    0  0.00000000000E+00  0.00000000000E+00  0.30000000000E+02  0.30000000000E+02  0.00000000000E+00 0.  1.
        -11   -1    0    0    0    0 -0.00000000000E+00 -0.00000000000E+00 -0.30000000000E+02  0.30000000000E+02  0.00000000000E+00 0. -1.
          5    1    1    2  501    0 -0.60627486807E+01 -0.25975717499E+02  0.12900200729E+02  0.30000000000E+02  0.47000000000E+01 0.  1.
         -5    1    1    2    0  501  0.60627486807E+01  0.25975717499E+02 -0.12900200729E+02  0.30000000000E+02  0.47000000000E+01 0. -1.
</event>
<event>
 4    1  0.7643770E-002  0.6000000E+02  0.7546771E-02  0.1259629E+00
         11   -1    0    0    0    0  0.00000000000E+00  0.00000000000E+00  0.30000000000E+02  0.30000000000E+02  0.00000000000E+00 0.  1.
        -11   -1    0    0    0    0 -0.00000000000E+00 -0.00000000000E+00 -0.30000000000E+02  0.30000000000E+02  0.00000000000E+00 0. -1.
          5    1    1    2  501    0  0.29469037513E+02  0.23730061988E+01  0.19633312529E+01  0.30000000000E+02  0.47000000000E+01 0.  1.
         -5    1    1    2    0  501 -0.29469037513E+02 -0.23730061988E+01 -0.19633312529E+01  0.30000000000E+02  0.47000000000E+01 0. -1.
</event>
<event>
 4    1  0.7643770E-002  0.6000000E+02  0.7546771E-02  0.1259629E+00
         11   -1    0    0    0    0  0.00000000000E+00  0.00000000000E+00  0.30000000000E+02  0.30000000000E+02  0.00000000000E+00 0.  1.
        -11   -1    0    0    0    0 -0.00000000000E+00 -0.00000000000E+00 -0.30000000000E+02  0.30000000000E+02  0.00000000000E+00 0. -1.
          5    1    1    2  501    0  0.24956445174E+01 -0.12648797620E+02 -0.26677512576E+02  0.30000000000E+02  0.47000000000E+01 0. -1.
         -5    1    1    2    0  501 -0.24956445174E+01  0.12648797620E+02  0.26677512576E+02  0.30000000000E+02  0.47000000000E+01 0.  1.
</event>
<event>
 4    1  0.7643770E-002  0.6000000E+02  0.7546771E-02  0.1259629E+00
         11   -1    0    0    0    0  0.00000000000E+00  0.00000000000E+00  0.30000000000E+02  0.30000000000E+02  0.00000000000E+00 0. -1.
        -11   -1    0    0    0    0 -0.00000000000E+00 -0.00000000000E+00 -0.30000000000E+02  0.30000000000E+02  0.00000000000E+00 0.  1.
          5    1    1    2  501    0 -0.24774565524E+02  0.53077911774E+01 -0.15360932781E+02  0.30000000000E+02  0.47000000000E+01 0.  1.
         -5    1    1    2    0  501  0.24774565524E+02 -0.53077911774E+01  0.15360932781E+02  0.30000000000E+02  0.47000000000E+01 0. -1.
</event>
<event>
 4    1  0.7643770E-002  0.6000000E+02  0.7546771E-02  0.1259629E+00
         11   -1    0    0    0    0  0.00000000000E+00  0.00000000000E+00  0.30000000000E+02  0.30000000000E+02  0.00000000000E+00 0.  1.
        -11   -1    0    0    0    0 -0.00000000000E+00 -0.00000000000E+00 -0.30000000000E+02  0.30000000000E+02  0.00000000000E+00 0. -1.
          5    1    1    2  501    0  0.38293713100E+01  0.24142064949E+02 -0.16745346081E+02  0.30000000000E+02  0.47000000000E+01 0. -1.
         -5    1    1    2    0  501 -0.38293713100E+01 -0.24142064949E+02  0.16745346081E+02  0.30000000000E+02  0.47000000000E+01 0.  1.
</event>
<event>
 4    1  0.7643770E-002  0.6000000E+02  0.7546771E-02  0.1259629E+00
         11   -1    0    0    0    0  0.00000000000E+00  0.00000000000E+00  0.30000000000E+02  0.30000000000E+02  0.00000000000E+00 0. -1.
        -11   -1    0    0    0    0 -0.00000000000E+00 -0.00000000000E+00 -0.30000000000E+02  0.30000000000E+02  0.00000000000E+00 0.  1.
          5    1    1    2  501    0  0.94677709819E+01  0.49981257442E+01 -0.27627704423E+02  0.30000000000E+02  0.47000000000E+01 0.  1.
         -5    1    1    2    0  501 -0.94677709819E+01 -0.49981257442E+01  0.27627704423E+02  0.30000000000E+02  0.47000000000E+01 0. -1.
</event>
<event>
 4    1  0.7643770E-002  0.6000000E+02  0.7546771E-02  0.1259629E+00
         11   -1    0    0    0    0  0.00000000000E+00  0.00000000000E+00  0.30000000000E+02  0.30000000000E+02  0.00000000000E+00 0.  1.
        -11   -1    0    0    0    0 -0.00000000000E+00 -0.00000000000E+00 -0.30000000000E+02  0.30000000000E+02  0.00000000000E+00 0. -1.
          5    1    1    2  501    0 -0.28724095696E+02  0.71476430975E+01  0.13219397084E+01  0.30000000000E+02  0.47000000000E+01 0. -1.
         -5    1    1    2    0  501  0.28724095696E+02 -0.71476430975E+01 -0.13219397084E+01  0.30000000000E+02  0.47000000000E+01 0.  1.
</event>
<event>
 4    1  0.7643770E-002  0.6000000E+02  0.7546771E-02  0.1259629E+00
         11   -1    0    0    0    0  0.00000000000E+00  0.00000000000E+00  0.30000000000E+02  0.30000000000E+02  0.00000000000E+00 0. -1.
        -11   -1    0    0    0    0 -0.00000000000E+00 -0.00000000000E+00 -0.30000000000E+02  0.30000000000E+02  0.00000000000E+00 0.  1.
          5    1    1    2  501    0  0.12956805007E+02 -0.21205427234E+02 -0.16135707602E+02  0.30000000000E+02  0.47000000000E+01 0.  1.
         -5    1    1    2    0  501 -0.12956805007E+02  0.21205427234E+02  0.16135707602E+02  0.30000000000E+02  0.47000000000E+01 0. -1.
</event>
<event>
 4    1  0.7643770E-002  0.6000000E+02  0.7546771E-02  0.1259629E+00
         11   -1    0    0    0    0  0.00000000000E+00  0.00000000000E+00  0.30000000000E+02  0.30000000000E+02  0.00000000000E+00 0. -1.
        -11   -1    0    0    0    0 -0.00000000000E+00 -0.00000000000E+00 -0.30000000000E+02  0.30000000000E+02  0.00000000000E+00 0.  1.
          5    1    1    2  501    0  0.10888023493E+02  0.23097219005E+02  0.15029285368E+02  0.30000000000E+02  0.47000000000E+01 0. -1.
         -5    1    1    2    0  501 -0.10888023493E+02 -0.23097219005E+02 -0.15029285368E+02  0.30000000000E+02  0.47000000000E+01 0.  1.
</event>
<event>
 4    1  0.7643770E-002  0.6000000E+02  0.7546771E-02  0.1259629E+00
         11   -1    0    0    0    0  0.00000000000E+00  0.00000000000E+00  0.30000000000E+02  0.30000000000E+02  0.00000000000E+00 0.  1.
        -11   -1    0    0    0    0 -0.00000000000E+00 -0.00000000000E+00 -0.30000000000E+02  0.30000000000E+02  0.00000000000E+00 0. -1.
          5    1    1    2  501    0  0.33909940795E+01  0.10458086796E+02 -0.27514352250E+02  0.30000000000E+02  0.47000000000E+01 0. -1.
         -5    1    1    2    0  501 -0.33909940795E+01 -0.10458086796E+02  0.27514352250E+02  0.30000000000E+02  0.47000000000E+01 0.  1.
</event>
<event>
 4    1  0.7643770E-002  0.6000000E+02  0.7546771E-02  0.1259629E+00
         11   -1    0    0    0    0  0.00000000000E+00  0.00000000000E+00  0.30000000000E+02  0.30000000000E+02  0.00000000000E+00 0.  1.
        -11   -1    0    0    0    0 -0.00000000000E+00 -0.00000000000E+00 -0.30000000000E+02  0.30000000000E+02  0.00000000000E+00 0. -1.
          5    1    1    2  501    0 -0.86724789694E+01  0.19152243125E+02 -0.20877971449E+02  0.30000000000E+02  0.47000000000E+01 0. -1.
         -5    1    1    2    0  501  0.86724789694E+01 -0.19152243125E+02  0.20877971449E+02  0.30000000000E+02  0.47000000000E+01 0.  1.
</event>
<event>
 4    1  0.7643770E-002  0.6000000E+02  0.7546771E-02  0.1259629E+00
         11   -1    0    0    0    0  0.00000000000E+00  0.00000000000E+00  0.30000000000E+02  0.30000000000E+02  0.00000000000E+00 0. -1.
        -11   -1    0    0    0    0 -0.00000000000E+00 -0.00000000000E+00 -0.30000000000E+02  0.30000000000E+02  0.00000000000E+00 0.  1.
          5    1    1    2  501    0  0.80169202809E+01  0.14081814410E+02 -0.24806077726E+02  0.30000000000E+02  0.47000000000E+01 0.  1.
         -5    1    1    2    0  501 -0.80169202809E+01 -0.14081814410E+02  0.24806077726E+02  0.30000000000E+02  0.47000000000E+01 0. -1.
</event>
<event>
 4    1  0.7643770E-002  0.6000000E+02  0.7546771E-02  0.1259629E+00
         11   -1    0    0    0    0  0.00000000000E+00  0.00000000000E+00  0.30000000000E+02  0.30000000000E+02  0.00000000000E+00 0. -1.
        -11   -1    0    0    0    0 -0.00000000000E+00 -0.00000000000E+00 -0.30000000000E+02  0.30000000000E+02  0.00000000000E+00 0.  1.
          5    1    1    2  501    0 -0.27629500980E+02 -0.28481669514E+01  0.10315455424E+02  0.30000000000E+02  0.47000000000E+01 0. -1.
         -5    1    1    2    0  501  0.27629500980E+02  0.28481669514E+01 -0.10315455424E+02  0.30000000000E+02  0.47000000000E+01 0.  1.
</event>
<event>
 4    1  0.7643770E-002  0.6000000E+02  0.7546771E-02  0.1259629E+00
         11   -1    0    0    0    0  0.00000000000E+00  0.00000000000E+00  0.30000000000E+02  0.30000000000E+02  0.00000000000E+00 0.  1.
        -11   -1    0    0    0    0 -0.00000000000E+00 -0.00000000000E+00 -0.30000000000E+02  0.30000000000E+02  0.00000000000E+00 0. -1.
          5    1    1    2  501    0  0.11465184715E+02  0.17611710053E+02 -0.20887489281E+02  0.30000000000E+02  0.47000000000E+01 0. -1.
         -5    1    1    2    0  501 -0.11465184715E+02 -0.17611710053E+02  0.20887489281E+02  0.30000000000E+02  0.47000000000E+01 0.  1.
</event>
<event>
 4    1  0.7643770E-002  0.6000000E+02  0.7546771E-02  0.1259629E+00
         11   -1    0    0    0    0  0.00000000000E+00  0.00000000000E+00  0.30000000000E+02  0.30000000000E+02  0.00000000000E+00 0.  1.
        -11   -1    0    0    0    0 -0.00000000000E+00 -0.00000000000E+00 -0.30000000000E+02  0.30000000000E+02  0.00000000000E+00 0. -1.
          5    1    1    2  501    0 -0.13695904555E+02 -0.44215935672E+01 -0.25899453831E+02  0.30000000000E+02  0.47000000000E+01 0. -1.
         -5    1    1    2    0  501  0.13695904555E+02  0.44215935672E+01  0.25899453831E+02  0.30000000000E+02  0.47000000000E+01 0.  1.
</event>
<event>
 4    1  0.7643770E-002  0.6000000E+02  0.7546771E-02  0.1259629E+00
         11   -1    0    0    0    0  0.00000000000E+00  0.00000000000E+00  0.30000000000E+02  0.30000000000E+02  0.00000000000E+00 0.  1.
        -11   -1    0    0    0    0 -0.00000000000E+00 -0.00000000000E+00 -0.30000000000E+02  0.30000000000E+02  0.00000000000E+00 0. -1.
          5    1    1    2  501    0  0.41264475945E+01 -0.29133954114E+02 -0.34778079190E+01  0.30000000000E+02  0.47000000000E+01 0.  1.
         -5    1    1    2    0  501 -0.41264475945E+01  0.29133954114E+02  0.34778079190E+01  0.30000000000E+02  0.47000000000E+01 0. -1.
</event>
<event>
 4    1  0.7643770E-002  0.6000000E+02  0.7546771E-02  0.1259629E+00
         11   -1    0    0    0    0  0.00000000000E+00  0.00000000000E+00  0.30000000000E+02  0.30000000000E+02  0.00000000000E+00 0.  1.
        -11   -1    0    0    0    0 -0.00000000000E+00 -0.00000000000E+00 -0.30000000000E+02  0.30000000000E+02  0.00000000000E+00 0. -1.
          5    1    1    2  501    0 -0.25925831166E+02 -0.11750305767E+02  0.82274900618E+01  0.30000000000E+02  0.47000000000E+01 0.  1.
         -5    1    1    2    0  501  0.25925831166E+02  0.11750305767E+02 -0.82274900618E+01  0.30000000000E+02  0.47000000000E+01 0. -1.
</event>
<event>
 4    1  0.7643770E-002  0.6000000E+02  0.7546771E-02  0.1259629E+00
         11   -1    0    0    0    0  0.00000000000E+00  0.00000000000E+00  0.30000000000E+02  0.30000000000E+02  0.00000000000E+00 0.  1.
        -11   -1    0    0    0    0 -0.00000000000E+00 -0.00000000000E+00 -0.30000000000E+02  0.30000000000E+02  0.00000000000E+00 0. -1.
          5    1    1    2  501    0 -0.10622917354E+01  0.26381627680E+02  0.13445863945E+02  0.30000000000E+02  0.47000000000E+01 0.  1.
         -5    1    1    2    0  501  0.10622917354E+01 -0.26381627680E+02 -0.13445863945E+02  0.30000000000E+02  0.47000000000E+01 0. -1.
</event>
<event>
 4    1  0.7643770E-002  0.6000000E+02  0.7546771E-02  0.1259629E+00
         11   -1    0    0    0    0  0.00000000000E+00  0.00000000000E+00  0.30000000000E+02  0.30000000000E+02  0.00000000000E+00 0.  1.
        -11   -1    0    0    0    0 -0.00000000000E+00 -0.00000000000E+00 -0.30000000000E+02  0.30000000000E+02  0.00000000000E+00 0. -1.
          5    1    1    2  501    0  0.23085779329E+02 -0.15987926920E+02 -0.94521418511E+01  0.30000000000E+02  0.47000000000E+01 0. -1.
         -5    1    1    2    0  501 -0.23085779329E+02  0.15987926920E+02  0.94521418511E+01  0.30000000000E+02  0.47000000000E+01 0.  1.
</event>
<event>
 4    1  0.7643770E-002  0.6000000E+02  0.7546771E-02  0.1259629E+00
         11   -1    0    0    0    0  0.00000000000E+00  0.00000000000E+00  0.30000000000E+02  0.30000000000E+02  0.00000000000E+00 0.  1.
        -11   -1    0    0    0    0 -0.00000000000E+00 -0.00000000000E+00 -0.30000000000E+02  0.30000000000E+02  0.00000000000E+00 0. -1.
          5    1    1    2  501    0 -0.62594909449E+01  0.27050216696E+02 -0.10344783701E+02  0.30000000000E+02  0.47000000000E+01 0. -1.
         -5    1    1    2    0  501  0.62594909449E+01 -0.27050216696E+02  0.10344783701E+02  0.30000000000E+02  0.47000000000E+01 0.  1.
</event>
<event>
 4    1  0.7643770E-002  0.6000000E+02  0.7546771E-02  0.1259629E+00
         11   -1    0    0    0    0  0.00000000000E+00  0.00000000000E+00  0.30000000000E+02  0.30000000000E+02  0.00000000000E+00 0.  1.
        -11   -1    0    0    0    0 -0.00000000000E+00 -0.00000000000E+00 -0.30000000000E+02  0.30000000000E+02  0.00000000000E+00 0. -1.
          5    1    1    2  501    0  0.41921741402E+00 -0.17660981072E+02 -0.23787055395E+02  0.30000000000E+02  0.47000000000E+01 0. -1.
         -5    1    1    2    0  501 -0.41921741402E+00  0.17660981072E+02  0.23787055395E+02  0.30000000000E+02  0.47000000000E+01 0.  1.
</event>
<event>
 4    1  0.7643770E-002  0.6000000E+02  0.7546771E-02  0.1259629E+00
         11   -1    0    0    0    0  0.00000000000E+00  0.00000000000E+00  0.30000000000E+02  0.30000000000E+02  0.00000000000E+00 0.  1.
        -11   -1    0    0    0    0 -0.00000000000E+00 -0.00000000000E+00 -0.30000000000E+02  0.30000000000E+02  0.00000000000E+00 0. -1.
          5    1    1    2  501    0  0.17186658824E+01 -0.21022276925E+02 -0.20809134063E+02  0.30000000000E+02  0.47000000000E+01 0. -1.
         -5    1    1    2    0  501 -0.17186658824E+01  0.21022276925E+02  0.20809134063E+02  0.30000000000E+02  0.47000000000E+01 0.  1.
</event>
<event>
 4    1  0.7643770E-002  0.6000000E+02  0.7546771E-02  0.1259629E+00
         11   -1    0    0    0    0  0.00000000000E+00  0.00000000000E+00  0.30000000000E+02  0.30000000000E+02  0.00000000000E+00 0.  1.
        -11   -1    0    0    0    0 -0.00000000000E+00 -0.00000000000E+00 -0.30000000000E+02  0.30000000000E+02  0.00000000000E+00 0. -1.
          5    1    1    2  501    0 -0.16691887157E+02  0.21608257374E+02 -0.11505395099E+02  0.30000000000E+02  0.47000000000E+01 0. -1.
         -5    1    1    2    0  501  0.16691887157E+02 -0.21608257374E+02  0.11505395099E+02  0.30000000000E+02  0.47000000000E+01 0.  1.
</event>
<event>
 4    1  0.7643770E-002  0.6000000E+02  0.7546771E-02  0.1259629E+00
         11   -1    0    0    0    0  0.00000000000E+00  0.00000000000E+00  0.30000000000E+02  0.30000000000E+02  0.00000000000E+00 0. -1.
        -11   -1    0    0    0    0 -0.00000000000E+00 -0.00000000000E+00 -0.30000000000E+02  0.30000000000E+02  0.00000000000E+00 0.  1.
          5    1    1    2  501    0 -0.13737288656E+02 -0.91354285273E+01  0.24611802982E+02  0.30000000000E+02  0.47000000000E+01 0. -1.
         -5    1    1    2    0  501  0.13737288656E+02  0.91354285273E+01 -0.24611802982E+02  0.30000000000E+02  0.47000000000E+01 0.  1.
</event>
<event>
 4    1  0.7643770E-002  0.6000000E+02  0.7546771E-02  0.1259629E+00
         11   -1    0    0    0    0  0.00000000000E+00  0.00000000000E+00  0.30000000000E+02  0.30000000000E+02  0.00000000000E+00 0.  1.
        -11   -1    0    0    0    0 -0.00000000000E+00 -0.00000000000E+00 -0.30000000000E+02  0.30000000000E+02  0.00000000000E+00 0. -1.
          5    1    1    2  501    0 -0.17250075558E+02 -0.78749471241E+01 -0.22766864102E+02  0.30000000000E+02  0.47000000000E+01 0. -1.
         -5    1    1    2    0  501  0.17250075558E+02  0.78749471241E+01  0.22766864102E+02  0.30000000000E+02  0.47000000000E+01 0.  1.
</event>
<event>
 4    1  0.7643770E-002  0.6000000E+02  0.7546771E-02  0.1259629E+00
         11   -1    0    0    0    0  0.00000000000E+00  0.00000000000E+00  0.30000000000E+02  0.30000000000E+02  0.00000000000E+00 0.  1.
        -11   -1    0    0    0    0 -0.00000000000E+00 -0.00000000000E+00 -0.30000000000E+02  0.30000000000E+02  0.00000000000E+00 0. -1.
          5    1    1    2  501    0  0.26272037268E+01 -0.16647748228E+02 -0.24369248645E+02  0.30000000000E+02  0.47000000000E+01 0. -1.
         -5    1    1    2    0  501 -0.26272037268E+01  0.16647748228E+02  0.24369248645E+02  0.30000000000E+02  0.47000000000E+01 0.  1.
</event>
<event>
 4    1  0.7643770E-002  0.6000000E+02  0.7546771E-02  0.1259629E+00
         11   -1    0    0    0    0  0.00000000000E+00  0.00000000000E+00  0.30000000000E+02  0.30000000000E+02  0.00000000000E+00 0. -1.
        -11   -1    0    0    0    0 -0.00000000000E+00 -0.00000000000E+00 -0.30000000000E+02  0.30000000000E+02  0.00000000000E+00 0.  1.
          5    1    1    2  501    0 -0.18134246069E+02 -0.16500968639E+02  0.16636620855E+02  0.30000000000E+02  0.47000000000E+01 0. -1.
         -5    1    1    2    0  501  0.18134246069E+02  0.16500968639E+02 -0.16636620855E+02  0.30000000000E+02  0.47000000000E+01 0.  1.
</event>
<event>
 4    1  0.7643770E-002  0.6000000E+02  0.7546771E-02  0.1259629E+00
         11   -1    0    0    0    0  0.00000000000E+00  0.00000000000E+00  0.30000000000E+02  0.30000000000E+02  0.00000000000E+00 0.  1.
        -11   -1    0    0    0    0 -0.00000000000E+00 -0.00000000000E+00 -0.30000000000E+02  0.30000000000E+02  0.00000000000E+00 0. -1.
          5    1    1    2  501    0 -0.25264591274E+02 -0.14186580774E+02 -0.61928469801E+01  0.30000000000E+02  0.47000000000E+01 0. -1.
         -5    1    1    2    0  501  0.25264591274E+02  0.14186580774E+02  0.61928469801E+01  0.30000000000E+02  0.47000000000E+01 0.  1.
</event>
<event>
 4    1  0.7643770E-002  0.6000000E+02  0.7546771E-02  0.1259629E+00
         11   -1    0    0    0    0  0.00000000000E+00  0.00000000000E+00  0.30000000000E+02  0.30000000000E+02  0.00000000000E+00 0.  1.
        -11   -1    0    0    0    0 -0.00000000000E+00 -0.00000000000E+00 -0.30000000000E+02  0.30000000000E+02  0.00000000000E+00 0. -1.
          5    1    1    2  501    0 -0.28186191399E+02  0.29280934067E+01  0.86530274123E+01  0.30000000000E+02  0.47000000000E+01 0.  1.
         -5    1    1    2    0  501  0.28186191399E+02 -0.29280934067E+01 -0.86530274123E+01  0.30000000000E+02  0.47000000000E+01 0. -1.
</event>
<event>
 4    1  0.7643770E-002  0.6000000E+02  0.7546771E-02  0.1259629E+00
         11   -1    0    0    0    0  0.00000000000E+00  0.00000000000E+00  0.30000000000E+02  0.30000000000E+02  0.00000000000E+00 0.  1.
        -11   -1    0    0    0    0 -0.00000000000E+00 -0.00000000000E+00 -0.30000000000E+02  0.30000000000E+02  0.00000000000E+00 0. -1.
          5    1    1    2  501    0 -0.15065861038E+02  0.39190444976E+01 -0.25210531954E+02  0.30000000000E+02  0.47000000000E+01 0. -1.
         -5    1    1    2    0  501  0.15065861038E+02 -0.39190444976E+01  0.25210531954E+02  0.30000000000E+02  0.47000000000E+01 0.  1.
</event>
<event>
 4    1  0.7643770E-002  0.6000000E+02  0.7546771E-02  0.1259629E+00
         11   -1    0    0    0    0  0.00000000000E+00  0.00000000000E+00  0.30000000000E+02  0.30000000000E+02  0.00000000000E+00 0.  1.
        -11   -1    0    0    0    0 -0.00000000000E+00 -0.00000000000E+00 -0.30000000000E+02  0.30000000000E+02  0.00000000000E+00 0. -1.
          5    1    1    2  501    0  0.11751171231E+02  0.26579340917E+02 -0.57756913988E+01  0.30000000000E+02  0.47000000000E+01 0. -1.
         -5    1    1    2    0  501 -0.11751171231E+02 -0.26579340917E+02  0.57756913988E+01  0.30000000000E+02  0.47000000000E+01 0.  1.
</event>
<event>
 4    1  0.7643770E-002  0.6000000E+02  0.7546771E-02  0.1259629E+00
         11   -1    0    0    0    0  0.00000000000E+00  0.00000000000E+00  0.30000000000E+02  0.30000000000E+02  0.00000000000E+00 0.  1.
        -11   -1    0    0    0    0 -0.00000000000E+00 -0.00000000000E+00 -0.30000000000E+02  0.30000000000E+02  0.00000000000E+00 0. -1.
          5    1    1    2  501    0 -0.10702366255E+02 -0.11433689364E+02  0.25152337944E+02  0.30000000000E+02  0.47000000000E+01 0.  1.
         -5    1    1    2    0  501  0.10702366255E+02  0.11433689364E+02 -0.25152337944E+02  0.30000000000E+02  0.47000000000E+01 0. -1.
</event>
<event>
 4    1  0.7643770E-002  0.6000000E+02  0.7546771E-02  0.1259629E+00
         11   -1    0    0    0    0  0.00000000000E+00  0.00000000000E+00  0.30000000000E+02  0.30000000000E+02  0.00000000000E+00 0.  1.
        -11   -1    0    0    0    0 -0.00000000000E+00 -0.00000000000E+00 -0.30000000000E+02  0.30000000000E+02  0.00000000000E+00 0. -1.
          5    1    1    2  501    0  0.26154403845E+02  0.11716796538E+02 -0.75215582448E+01  0.30000000000E+02  0.47000000000E+01 0. -1.
         -5    1    1    2    0  501 -0.26154403845E+02 -0.11716796538E+02  0.75215582448E+01  0.30000000000E+02  0.47000000000E+01 0.  1.
</event>
<event>
 4    1  0.7643770E-002  0.6000000E+02  0.7546771E-02  0.1259629E+00
         11   -1    0    0    0    0  0.00000000000E+00  0.00000000000E+00  0.30000000000E+02  0.30000000000E+02  0.00000000000E+00 0. -1.
        -11   -1    0    0    0    0 -0.00000000000E+00 -0.00000000000E+00 -0.30000000000E+02  0.30000000000E+02  0.00000000000E+00 0.  1.
          5    1    1    2  501    0 -0.91074570972E+01  0.86537886460E+01 -0.26834234986E+02  0.30000000000E+02  0.47000000000E+01 0.  1.
         -5    1    1    2    0  501  0.91074570972E+01 -0.86537886460E+01  0.26834234986E+02  0.30000000000E+02  0.47000000000E+01 0. -1.
</event>
<event>
 4    1  0.7643770E-002  0.6000000E+02  0.7546771E-02  0.1259629E+00
         11   -1    0    0    0    0  0.00000000000E+00  0.00000000000E+00  0.30000000000E+02  0.30000000000E+02  0.00000000000E+00 0.  1.
        -11   -1    0    0    0    0 -0.00000000000E+00 -0.00000000000E+00 -0.30000000000E+02  0.30000000000E+02  0.00000000000E+00 0. -1.
          5    1    1    2  501    0  0.25366655506E+02  0.13937380836E-01  0.15311518351E+02  0.30000000000E+02  0.47000000000E+01 0.  1.
         -5    1    1    2    0  501 -0.25366655506E+02 -0.13937380836E-01 -0.15311518351E+02  0.30000000000E+02  0.47000000000E+01 0. -1.
</event>
<event>
 4    1  0.7643770E-002  0.6000000E+02  0.7546771E-02  0.1259629E+00
         11   -1    0    0    0    0  0.00000000000E+00  0.00000000000E+00  0.30000000000E+02  0.30000000000E+02  0.00000000000E+00 0.  1.
        -11   -1    0    0    0    0 -0.00000000000E+00 -0.00000000000E+00 -0.30000000000E+02  0.30000000000E+02  0.00000000000E+00 0. -1.
          5    1    1    2  501    0 -0.12953482890E+02  0.23641082873E+02 -0.12297011084E+02  0.30000000000E+02  0.47000000000E+01 0. -1.
         -5    1    1    2    0  501  0.12953482890E+02 -0.23641082873E+02  0.12297011084E+02  0.30000000000E+02  0.47000000000E+01 0.  1.
</event>
<event>
 4    1  0.7643770E-002  0.6000000E+02  0.7546771E-02  0.1259629E+00
         11   -1    0    0    0    0  0.00000000000E+00  0.00000000000E+00  0.30000000000E+02  0.30000000000E+02  0.00000000000E+00 0.  1.
        -11   -1    0    0    0    0 -0.00000000000E+00 -0.00000000000E+00 -0.30000000000E+02  0.30000000000E+02  0.00000000000E+00 0. -1.
          5    1    1    2  501    0  0.22745610270E+01 -0.18122712679E+02 -0.23330316270E+02  0.30000000000E+02  0.47000000000E+01 0. -1.
         -5    1    1    2    0  501 -0.22745610270E+01  0.18122712679E+02  0.23330316270E+02  0.30000000000E+02  0.47000000000E+01 0.  1.
</event>
<event>
 4    1  0.7643770E-002  0.6000000E+02  0.7546771E-02  0.1259629E+00
         11   -1    0    0    0    0  0.00000000000E+00  0.00000000000E+00  0.30000000000E+02  0.30000000000E+02  0.00000000000E+00 0.  1.
        -11   -1    0    0    0    0 -0.00000000000E+00 -0.00000000000E+00 -0.30000000000E+02  0.30000000000E+02  0.00000000000E+00 0. -1.
          5    1    1    2  501    0 -0.25101943782E+02  0.10330388214E+02  0.11877941645E+02  0.30000000000E+02  0.47000000000E+01 0. -1.
         -5    1    1    2    0  501  0.25101943782E+02 -0.10330388214E+02 -0.11877941645E+02  0.30000000000E+02  0.47000000000E+01 0.  1.
</event>
<event>
 4    1  0.7643770E-002  0.6000000E+02  0.7546771E-02  0.1259629E+00
         11   -1    0    0    0    0  0.00000000000E+00  0.00000000000E+00  0.30000000000E+02  0.30000000000E+02  0.00000000000E+00 0.  1.
        -11   -1    0    0    0    0 -0.00000000000E+00 -0.00000000000E+00 -0.30000000000E+02  0.30000000000E+02  0.00000000000E+00 0. -1.
          5    1    1    2  501    0 -0.16844471663E+02  0.23782665241E+02 -0.53440254863E+01  0.30000000000E+02  0.47000000000E+01 0.  1.
         -5    1    1    2    0  501  0.16844471663E+02 -0.23782665241E+02  0.53440254863E+01  0.30000000000E+02  0.47000000000E+01 0. -1.
</event>
<event>
 4    1  0.7643770E-002  0.6000000E+02  0.7546771E-02  0.1259629E+00
         11   -1    0    0    0    0  0.00000000000E+00  0.00000000000E+00  0.30000000000E+02  0.30000000000E+02  0.00000000000E+00 0.  1.
        -11   -1    0    0    0    0 -0.00000000000E+00 -0.00000000000E+00 -0.30000000000E+02  0.30000000000E+02  0.00000000000E+00 0. -1.
          5    1    1    2  501    0 -0.54352281231E+01  0.69179071160E+00  0.29118545995E+02  0.30000000000E+02  0.47000000000E+01 0.  1.
         -5    1    1    2    0  501  0.54352281231E+01 -0.69179071160E+00 -0.29118545995E+02  0.30000000000E+02  0.47000000000E+01 0. -1.
</event>
<event>
 4    1  0.7643770E-002  0.6000000E+02  0.7546771E-02  0.1259629E+00
         11   -1    0    0    0    0  0.00000000000E+00  0.00000000000E+00  0.30000000000E+02  0.30000000000E+02  0.00000000000E+00 0.  1.
        -11   -1    0    0    0    0 -0.00000000000E+00 -0.00000000000E+00 -0.30000000000E+02  0.30000000000E+02  0.00000000000E+00 0. -1.
          5    1    1    2  501    0  0.23283480803E+02  0.15412606154E+02  0.99116645038E+01  0.30000000000E+02  0.47000000000E+01 0. -1.
         -5    1    1    2    0  501 -0.23283480803E+02 -0.15412606154E+02 -0.99116645038E+01  0.30000000000E+02  0.47000000000E+01 0.  1.
</event>
<event>
 4    1  0.7643770E-002  0.6000000E+02  0.7546771E-02  0.1259629E+00
         11   -1    0    0    0    0  0.00000000000E+00  0.00000000000E+00  0.30000000000E+02  0.30000000000E+02  0.00000000000E+00 0.  1.
        -11   -1    0    0    0    0 -0.00000000000E+00 -0.00000000000E+00 -0.30000000000E+02  0.30000000000E+02  0.00000000000E+00 0. -1.
          5    1    1    2  501    0 -0.56830258144E+00  0.63436419572E+01 -0.28936918269E+02  0.30000000000E+02  0.47000000000E+01 0. -1.
         -5    1    1    2    0  501  0.56830258144E+00 -0.63436419572E+01  0.28936918269E+02  0.30000000000E+02  0.47000000000E+01 0.  1.
</event>
<event>
 4    1  0.7643770E-002  0.6000000E+02  0.7546771E-02  0.1259629E+00
         11   -1    0    0    0    0  0.00000000000E+00  0.00000000000E+00  0.30000000000E+02  0.30000000000E+02  0.00000000000E+00 0.  1.
        -11   -1    0    0    0    0 -0.00000000000E+00 -0.00000000000E+00 -0.30000000000E+02  0.30000000000E+02  0.00000000000E+00 0. -1.
          5    1    1    2  501    0  0.75418148392E+01  0.85785380777E+01 -0.27339343690E+02  0.30000000000E+02  0.47000000000E+01 0. -1.
         -5    1    1    2    0  501 -0.75418148392E+01 -0.85785380777E+01  0.27339343690E+02  0.30000000000E+02  0.47000000000E+01 0.  1.
</event>
<event>
 4    1  0.7643770E-002  0.6000000E+02  0.7546771E-02  0.1259629E+00
         11   -1    0    0    0    0  0.00000000000E+00  0.00000000000E+00  0.30000000000E+02  0.30000000000E+02  0.00000000000E+00 0. -1.
        -11   -1    0    0    0    0 -0.00000000000E+00 -0.00000000000E+00 -0.30000000000E+02  0.30000000000E+02  0.00000000000E+00 0.  1.
          5    1    1    2  501    0  0.40688696265E+01  0.28613005436E+02 -0.65307135807E+01  0.30000000000E+02  0.47000000000E+01 0.  1.
         -5    1    1    2    0  501 -0.40688696265E+01 -0.28613005436E+02  0.65307135807E+01  0.30000000000E+02  0.47000000000E+01 0. -1.
</event>
<event>
 4    1  0.7643770E-002  0.6000000E+02  0.7546771E-02  0.1259629E+00
         11   -1    0    0    0    0  0.00000000000E+00  0.00000000000E+00  0.30000000000E+02  0.30000000000E+02  0.00000000000E+00 0.  1.
        -11   -1    0    0    0    0 -0.00000000000E+00 -0.00000000000E+00 -0.30000000000E+02  0.30000000000E+02  0.00000000000E+00 0. -1.
          5    1    1    2  501    0  0.25190776789E+02 -0.12088524231E+02 -0.98591250478E+01  0.30000000000E+02  0.47000000000E+01 0. -1.
         -5    1    1    2    0  501 -0.25190776789E+02  0.12088524231E+02  0.98591250478E+01  0.30000000000E+02  0.47000000000E+01 0.  1.
</event>
<event>
 4    1  0.7643770E-002  0.6000000E+02  0.7546771E-02  0.1259629E+00
         11   -1    0    0    0    0  0.00000000000E+00  0.00000000000E+00  0.30000000000E+02  0.30000000000E+02  0.00000000000E+00 0. -1.
        -11   -1    0    0    0    0 -0.00000000000E+00 -0.00000000000E+00 -0.30000000000E+02  0.30000000000E+02  0.00000000000E+00 0.  1.
          5    1    1    2  501    0 -0.42984043088E+01  0.27296261389E+02 -0.10693354692E+02  0.30000000000E+02  0.47000000000E+01 0.  1.
         -5    1    1    2    0  501  0.42984043088E+01 -0.27296261389E+02  0.10693354692E+02  0.30000000000E+02  0.47000000000E+01 0. -1.
</event>
<event>
 4    1  0.7643770E-002  0.6000000E+02  0.7546771E-02  0.1259629E+00
         11   -1    0    0    0    0  0.00000000000E+00  0.00000000000E+00  0.30000000000E+02  0.30000000000E+02  0.00000000000E+00 0.  1.
        -11   -1    0    0    0    0 -0.00000000000E+00 -0.00000000000E+00 -0.30000000000E+02  0.30000000000E+02  0.00000000000E+00 0. -1.
          5    1    1    2  501    0  0.21911381213E+02 -0.18887880414E+02  0.64069764152E+01  0.30000000000E+02  0.47000000000E+01 0.  1.
         -5    1    1    2    0  501 -0.21911381213E+02  0.18887880414E+02 -0.64069764152E+01  0.30000000000E+02  0.47000000000E+01 0. -1.
</event>
<event>
 4    1  0.7643770E-002  0.6000000E+02  0.7546771E-02  0.1259629E+00
         11   -1    0    0    0    0  0.00000000000E+00  0.00000000000E+00  0.30000000000E+02  0.30000000000E+02  0.00000000000E+00 0.  1.
        -11   -1    0    0    0    0 -0.00000000000E+00 -0.00000000000E+00 -0.30000000000E+02  0.30000000000E+02  0.00000000000E+00 0. -1.
          5    1    1    2  501    0 -0.13624578608E+02 -0.44665243888E+01 -0.25929346649E+02  0.30000000000E+02  0.47000000000E+01 0. -1.
         -5    1    1    2    0  501  0.13624578608E+02  0.44665243888E+01  0.25929346649E+02  0.30000000000E+02  0.47000000000E+01 0.  1.
</event>
<event>
 4    1  0.7643770E-002  0.6000000E+02  0.7546771E-02  0.1259629E+00
         11   -1    0    0    0    0  0.00000000000E+00  0.00000000000E+00  0.30000000000E+02  0.30000000000E+02  0.00000000000E+00 0. -1.
        -11   -1    0    0    0    0 -0.00000000000E+00 -0.00000000000E+00 -0.30000000000E+02  0.30000000000E+02  0.00000000000E+00 0.  1.
          5    1    1    2  501    0 -0.27986458652E+02 -0.59438459430E+01  0.77031699659E+01  0.30000000000E+02  0.47000000000E+01 0.  1.
         -5    1    1    2    0  501  0.27986458652E+02  0.59438459430E+01 -0.77031699659E+01  0.30000000000E+02  0.47000000000E+01 0. -1.
</event>
<event>
 4    1  0.7643770E-002  0.6000000E+02  0.7546771E-02  0.1259629E+00
         11   -1    0    0    0    0  0.00000000000E+00  0.00000000000E+00  0.30000000000E+02  0.30000000000E+02  0.00000000000E+00 0.  1.
        -11   -1    0    0    0    0 -0.00000000000E+00 -0.00000000000E+00 -0.30000000000E+02  0.30000000000E+02  0.00000000000E+00 0. -1.
          5    1    1    2  501    0  0.22258765858E+02  0.19265012055E+02  0.33640233384E+01  0.30000000000E+02  0.47000000000E+01 0.  1.
         -5    1    1    2    0  501 -0.22258765858E+02 -0.19265012055E+02 -0.33640233384E+01  0.30000000000E+02  0.47000000000E+01 0. -1.
</event>
<event>
 4    1  0.7643770E-002  0.6000000E+02  0.7546771E-02  0.1259629E+00
         11   -1    0    0    0    0  0.00000000000E+00  0.00000000000E+00  0.30000000000E+02  0.30000000000E+02  0.00000000000E+00 0.  1.
        -11   -1    0    0    0    0 -0.00000000000E+00 -0.00000000000E+00 -0.30000000000E+02  0.30000000000E+02  0.00000000000E+00 0. -1.
          5    1    1    2  501    0  0.88030517291E+01 -0.92626118312E+00 -0.28276462305E+02  0.30000000000E+02  0.47000000000E+01 0. -1.
         -5    1    1    2    0  501 -0.88030517291E+01  0.92626118312E+00  0.28276462305E+02  0.30000000000E+02  0.47000000000E+01 0.  1.
</event>
<event>
 4    1  0.7643770E-002  0.6000000E+02  0.7546771E-02  0.1259629E+00
         11   -1    0    0    0    0  0.00000000000E+00  0.00000000000E+00  0.30000000000E+02  0.30000000000E+02  0.00000000000E+00 0.  1.
        -11   -1    0    0    0    0 -0.00000000000E+00 -0.00000000000E+00 -0.30000000000E+02  0.30000000000E+02  0.00000000000E+00 0. -1.
          5    1    1    2  501    0  0.24747730497E+02  0.15447074457E+02 -0.51814791287E+01  0.30000000000E+02  0.47000000000E+01 0. -1.
         -5    1    1    2    0  501 -0.24747730497E+02 -0.15447074457E+02  0.51814791287E+01  0.30000000000E+02  0.47000000000E+01 0.  1.
</event>
<event>
 4    1  0.7643770E-002  0.6000000E+02  0.7546771E-02  0.1259629E+00
         11   -1    0    0    0    0  0.00000000000E+00  0.00000000000E+00  0.30000000000E+02  0.30000000000E+02  0.00000000000E+00 0. -1.
        -11   -1    0    0    0    0 -0.00000000000E+00 -0.00000000000E+00 -0.30000000000E+02  0.30000000000E+02  0.00000000000E+00 0.  1.
          5    1    1    2  501    0  0.28763309341E+02  0.42767750541E+01  0.56825373618E+01  0.30000000000E+02  0.47000000000E+01 0.  1.
         -5    1    1    2    0  501 -0.28763309341E+02 -0.42767750541E+01 -0.56825373618E+01  0.30000000000E+02  0.47000000000E+01 0. -1.
</event>
<event>
 4    1  0.7643770E-002  0.6000000E+02  0.7546771E-02  0.1259629E+00
         11   -1    0    0    0    0  0.00000000000E+00  0.00000000000E+00  0.30000000000E+02  0.30000000000E+02  0.00000000000E+00 0.  1.
        -11   -1    0    0    0    0 -0.00000000000E+00 -0.00000000000E+00 -0.30000000000E+02  0.30000000000E+02  0.00000000000E+00 0. -1.
          5    1    1    2  501    0  0.13770109006E+02  0.70302016420E+01 -0.25275885006E+02  0.30000000000E+02  0.47000000000E+01 0. -1.
         -5    1    1    2    0  501 -0.13770109006E+02 -0.70302016420E+01  0.25275885006E+02  0.30000000000E+02  0.47000000000E+01 0.  1.
</event>
<event>
 4    1  0.7643770E-002  0.6000000E+02  0.7546771E-02  0.1259629E+00
         11   -1    0    0    0    0  0.00000000000E+00  0.00000000000E+00  0.30000000000E+02  0.30000000000E+02  0.00000000000E+00 0.  1.
        -11   -1    0    0    0    0 -0.00000000000E+00 -0.00000000000E+00 -0.30000000000E+02  0.30000000000E+02  0.00000000000E+00 0. -1.
          5    1    1    2  501    0  0.11239655279E+01  0.74541002016E+01 -0.28654547487E+02  0.30000000000E+02  0.47000000000E+01 0. -1.
         -5    1    1    2    0  501 -0.11239655279E+01 -0.74541002016E+01  0.28654547487E+02  0.30000000000E+02  0.47000000000E+01 0.  1.
</event>
<event>
 4    1  0.7643770E-002  0.6000000E+02  0.7546771E-02  0.1259629E+00
         11   -1    0    0    0    0  0.00000000000E+00  0.00000000000E+00  0.30000000000E+02  0.30000000000E+02  0.00000000000E+00 0.  1.
        -11   -1    0    0    0    0 -0.00000000000E+00 -0.00000000000E+00 -0.30000000000E+02  0.30000000000E+02  0.00000000000E+00 0. -1.
          5    1    1    2  501    0  0.77537587052E+01 -0.34233662700E+01  0.28391368219E+02  0.30000000000E+02  0.47000000000E+01 0.  1.
         -5    1    1    2    0  501 -0.77537587052E+01  0.34233662700E+01 -0.28391368219E+02  0.30000000000E+02  0.47000000000E+01 0. -1.
</event>
<event>
 4    1  0.7643770E-002  0.6000000E+02  0.7546771E-02  0.1259629E+00
         11   -1    0    0    0    0  0.00000000000E+00  0.00000000000E+00  0.30000000000E+02  0.30000000000E+02  0.00000000000E+00 0. -1.
        -11   -1    0    0    0    0 -0.00000000000E+00 -0.00000000000E+00 -0.30000000000E+02  0.30000000000E+02  0.00000000000E+00 0.  1.
          5    1    1    2  501    0  0.18897567182E+02 -0.21956961834E+02 -0.62196287374E+01  0.30000000000E+02  0.47000000000E+01 0. -1.
         -5    1    1    2    0  501 -0.18897567182E+02  0.21956961834E+02  0.62196287374E+01  0.30000000000E+02  0.47000000000E+01 0.  1.
</event>
<event>
 4    1  0.7643770E-002  0.6000000E+02  0.7546771E-02  0.1259629E+00
         11   -1    0    0    0    0  0.00000000000E+00  0.00000000000E+00  0.30000000000E+02  0.30000000000E+02  0.00000000000E+00 0.  1.
        -11   -1    0    0    0    0 -0.00000000000E+00 -0.00000000000E+00 -0.30000000000E+02  0.30000000000E+02  0.00000000000E+00 0. -1.
          5    1    1    2  501    0  0.20732464111E+02 -0.18109478049E+02 -0.10960006236E+02  0.30000000000E+02  0.47000000000E+01 0. -1.
         -5    1    1    2    0  501 -0.20732464111E+02  0.18109478049E+02  0.10960006236E+02  0.30000000000E+02  0.47000000000E+01 0.  1.
</event>
<event>
 4    1  0.7643770E-002  0.6000000E+02  0.7546771E-02  0.1259629E+00
         11   -1    0    0    0    0  0.00000000000E+00  0.00000000000E+00  0.30000000000E+02  0.30000000000E+02  0.00000000000E+00 0.  1.
        -11   -1    0    0    0    0 -0.00000000000E+00 -0.00000000000E+00 -0.30000000000E+02  0.30000000000E+02  0.00000000000E+00 0. -1.
          5    1    1    2  501    0  0.68319397825E+01  0.28354436274E+02  0.52211629362E+01  0.30000000000E+02  0.47000000000E+01 0. -1.
         -5    1    1    2    0  501 -0.68319397825E+01 -0.28354436274E+02 -0.52211629362E+01  0.30000000000E+02  0.47000000000E+01 0.  1.
</event>
<event>
 4    1  0.7643770E-002  0.6000000E+02  0.7546771E-02  0.1259629E+00
         11   -1    0    0    0    0  0.00000000000E+00  0.00000000000E+00  0.30000000000E+02  0.30000000000E+02  0.00000000000E+00 0.  1.
        -11   -1    0    0    0    0 -0.00000000000E+00 -0.00000000000E+00 -0.30000000000E+02  0.30000000000E+02  0.00000000000E+00 0. -1.
          5    1    1    2  501    0 -0.12177835710E+02  0.42587543498E+01 -0.26673457384E+02  0.30000000000E+02  0.47000000000E+01 0. -1.
         -5    1    1    2    0  501  0.12177835710E+02 -0.42587543498E+01  0.26673457384E+02  0.30000000000E+02  0.47000000000E+01 0.  1.
</event>
<event>
 4    1  0.7643770E-002  0.6000000E+02  0.7546771E-02  0.1259629E+00
         11   -1    0    0    0    0  0.00000000000E+00  0.00000000000E+00  0.30000000000E+02  0.30000000000E+02  0.00000000000E+00 0. -1.
        -11   -1    0    0    0    0 -0.00000000000E+00 -0.00000000000E+00 -0.30000000000E+02  0.30000000000E+02  0.00000000000E+00 0.  1.
          5    1    1    2  501    0 -0.22073902507E+02 -0.13718951360E+02 -0.14228253642E+02  0.30000000000E+02  0.47000000000E+01 0.  1.
         -5    1    1    2    0  501  0.22073902507E+02  0.13718951360E+02  0.14228253642E+02  0.30000000000E+02  0.47000000000E+01 0. -1.
</event>
<event>
 4    1  0.7643770E-002  0.6000000E+02  0.7546771E-02  0.1259629E+00
         11   -1    0    0    0    0  0.00000000000E+00  0.00000000000E+00  0.30000000000E+02  0.30000000000E+02  0.00000000000E+00 0. -1.
        -11   -1    0    0    0    0 -0.00000000000E+00 -0.00000000000E+00 -0.30000000000E+02  0.30000000000E+02  0.00000000000E+00 0.  1.
          5    1    1    2  501    0  0.25073196980E+02  0.14895241473E+02 -0.52322628625E+01  0.30000000000E+02  0.47000000000E+01 0.  1.
         -5    1    1    2    0  501 -0.25073196980E+02 -0.14895241473E+02  0.52322628625E+01  0.30000000000E+02  0.47000000000E+01 0. -1.
</event>
<event>
 4    1  0.7643770E-002  0.6000000E+02  0.7546771E-02  0.1259629E+00
         11   -1    0    0    0    0  0.00000000000E+00  0.00000000000E+00  0.30000000000E+02  0.30000000000E+02  0.00000000000E+00 0.  1.
        -11   -1    0    0    0    0 -0.00000000000E+00 -0.00000000000E+00 -0.30000000000E+02  0.30000000000E+02  0.00000000000E+00 0. -1.
          5    1    1    2  501    0 -0.13763999894E+02 -0.20840958986E+02 -0.15941039347E+02  0.30000000000E+02  0.47000000000E+01 0. -1.
         -5    1    1    2    0  501  0.13763999894E+02  0.20840958986E+02  0.15941039347E+02  0.30000000000E+02  0.47000000000E+01 0.  1.
</event>
<event>
 4    1  0.7643770E-002  0.6000000E+02  0.7546771E-02  0.1259629E+00
         11   -1    0    0    0    0  0.00000000000E+00  0.00000000000E+00  0.30000000000E+02  0.30000000000E+02  0.00000000000E+00 0.  1.
        -11   -1    0    0    0    0 -0.00000000000E+00 -0.00000000000E+00 -0.30000000000E+02  0.30000000000E+02  0.00000000000E+00 0. -1.
          5    1    1    2  501    0 -0.99874038321E+01 -0.25704835002E+02 -0.10836199621E+02  0.30000000000E+02  0.47000000000E+01 0. -1.
         -5    1    1    2    0  501  0.99874038321E+01  0.25704835002E+02  0.10836199621E+02  0.30000000000E+02  0.47000000000E+01 0.  1.
</event>
<event>
 4    1  0.7643770E-002  0.6000000E+02  0.7546771E-02  0.1259629E+00
         11   -1    0    0    0    0  0.00000000000E+00  0.00000000000E+00  0.30000000000E+02  0.30000000000E+02  0.00000000000E+00 0.  1.
        -11   -1    0    0    0    0 -0.00000000000E+00 -0.00000000000E+00 -0.30000000000E+02  0.30000000000E+02  0.00000000000E+00 0. -1.
          5    1    1    2  501    0  0.11490325226E+02 -0.10097990484E+01 -0.27292173459E+02  0.30000000000E+02  0.47000000000E+01 0. -1.
         -5    1    1    2    0  501 -0.11490325226E+02  0.10097990484E+01  0.27292173459E+02  0.30000000000E+02  0.47000000000E+01 0.  1.
</event>
<event>
 4    1  0.7643770E-002  0.6000000E+02  0.7546771E-02  0.1259629E+00
         11   -1    0    0    0    0  0.00000000000E+00  0.00000000000E+00  0.30000000000E+02  0.30000000000E+02  0.00000000000E+00 0.  1.
        -11   -1    0    0    0    0 -0.00000000000E+00 -0.00000000000E+00 -0.30000000000E+02  0.30000000000E+02  0.00000000000E+00 0. -1.
          5    1    1    2  501    0 -0.71164998898E+01  0.13522602210E+02  0.25385126724E+02  0.30000000000E+02  0.47000000000E+01 0.  1.
         -5    1    1    2    0  501  0.71164998898E+01 -0.13522602210E+02 -0.25385126724E+02  0.30000000000E+02  0.47000000000E+01 0. -1.
</event>
<event>
 4    1  0.7643770E-002  0.6000000E+02  0.7546771E-02  0.1259629E+00
         11   -1    0    0    0    0  0.00000000000E+00  0.00000000000E+00  0.30000000000E+02  0.30000000000E+02  0.00000000000E+00 0.  1.
        -11   -1    0    0    0    0 -0.00000000000E+00 -0.00000000000E+00 -0.30000000000E+02  0.30000000000E+02  0.00000000000E+00 0. -1.
          5    1    1    2  501    0  0.36267354367E+01  0.16156771923E+02 -0.24570622929E+02  0.30000000000E+02  0.47000000000E+01 0. -1.
         -5    1    1    2    0  501 -0.36267354367E+01 -0.16156771923E+02  0.24570622929E+02  0.30000000000E+02  0.47000000000E+01 0.  1.
</event>
<event>
 4    1  0.7643770E-002  0.6000000E+02  0.7546771E-02  0.1259629E+00
         11   -1    0    0    0    0  0.00000000000E+00  0.00000000000E+00  0.30000000000E+02  0.30000000000E+02  0.00000000000E+00 0.  1.
        -11   -1    0    0    0    0 -0.00000000000E+00 -0.00000000000E+00 -0.30000000000E+02  0.30000000000E+02  0.00000000000E+00 0. -1.
          5    1    1    2  501    0  0.20962810438E+02 -0.10050381440E+02 -0.18370095575E+02  0.30000000000E+02  0.47000000000E+01 0. -1.
         -5    1    1    2    0  501 -0.20962810438E+02  0.10050381440E+02  0.18370095575E+02  0.30000000000E+02  0.47000000000E+01 0.  1.
</event>
<event>
 4    1  0.7643770E-002  0.6000000E+02  0.7546771E-02  0.1259629E+00
         11   -1    0    0    0    0  0.00000000000E+00  0.00000000000E+00  0.30000000000E+02  0.30000000000E+02  0.00000000000E+00 0.  1.
        -11   -1    0    0    0    0 -0.00000000000E+00 -0.00000000000E+00 -0.30000000000E+02  0.30000000000E+02  0.00000000000E+00 0. -1.
          5    1    1    2  501    0 -0.27407472072E+02 -0.10673024482E+02  0.35814833588E+01  0.30000000000E+02  0.47000000000E+01 0. -1.
         -5    1    1    2    0  501  0.27407472072E+02  0.10673024482E+02 -0.35814833588E+01  0.30000000000E+02  0.47000000000E+01 0.  1.
</event>
<event>
 4    1  0.7643770E-002  0.6000000E+02  0.7546771E-02  0.1259629E+00
         11   -1    0    0    0    0  0.00000000000E+00  0.00000000000E+00  0.30000000000E+02  0.30000000000E+02  0.00000000000E+00 0.  1.
        -11   -1    0    0    0    0 -0.00000000000E+00 -0.00000000000E+00 -0.30000000000E+02  0.30000000000E+02  0.00000000000E+00 0. -1.
          5    1    1    2  501    0  0.15681461343E+02  0.11273380161E+02 -0.22470261901E+02  0.30000000000E+02  0.47000000000E+01 0. -1.
         -5    1    1    2    0  501 -0.15681461343E+02 -0.11273380161E+02  0.22470261901E+02  0.30000000000E+02  0.47000000000E+01 0.  1.
</event>
<event>
 4    1  0.7643770E-002  0.6000000E+02  0.7546771E-02  0.1259629E+00
         11   -1    0    0    0    0  0.00000000000E+00  0.00000000000E+00  0.30000000000E+02  0.30000000000E+02  0.00000000000E+00 0.  1.
        -11   -1    0    0    0    0 -0.00000000000E+00 -0.00000000000E+00 -0.30000000000E+02  0.30000000000E+02  0.00000000000E+00 0. -1.
          5    1    1    2  501    0  0.11356738527E+02 -0.12809769712E+02 -0.24183554122E+02  0.30000000000E+02  0.47000000000E+01 0. -1.
         -5    1    1    2    0  501 -0.11356738527E+02  0.12809769712E+02  0.24183554122E+02  0.30000000000E+02  0.47000000000E+01 0.  1.
</event>
<event>
 4    1  0.7643770E-002  0.6000000E+02  0.7546771E-02  0.1259629E+00
         11   -1    0    0    0    0  0.00000000000E+00  0.00000000000E+00  0.30000000000E+02  0.30000000000E+02  0.00000000000E+00 0.  1.
        -11   -1    0    0    0    0 -0.00000000000E+00 -0.00000000000E+00 -0.30000000000E+02  0.30000000000E+02  0.00000000000E+00 0. -1.
          5    1    1    2  501    0 -0.20730085569E+01 -0.29554908077E+02 -0.34647378250E+00  0.30000000000E+02  0.47000000000E+01 0. -1.
         -5    1    1    2    0  501  0.20730085569E+01  0.29554908077E+02  0.34647378250E+00  0.30000000000E+02  0.47000000000E+01 0.  1.
</event>
<event>
 4    1  0.7643770E-002  0.6000000E+02  0.7546771E-02  0.1259629E+00
         11   -1    0    0    0    0  0.00000000000E+00  0.00000000000E+00  0.30000000000E+02  0.30000000000E+02  0.00000000000E+00 0.  1.
        -11   -1    0    0    0    0 -0.00000000000E+00 -0.00000000000E+00 -0.30000000000E+02  0.30000000000E+02  0.00000000000E+00 0. -1.
          5    1    1    2  501    0 -0.80314510948E+01 -0.27076966396E+02 -0.89578839074E+01  0.30000000000E+02  0.47000000000E+01 0. -1.
         -5    1    1    2    0  501  0.80314510948E+01  0.27076966396E+02  0.89578839074E+01  0.30000000000E+02  0.47000000000E+01 0.  1.
</event>
<event>
 4    1  0.7643770E-002  0.6000000E+02  0.7546771E-02  0.1259629E+00
         11   -1    0    0    0    0  0.00000000000E+00  0.00000000000E+00  0.30000000000E+02  0.30000000000E+02  0.00000000000E+00 0.  1.
        -11   -1    0    0    0    0 -0.00000000000E+00 -0.00000000000E+00 -0.30000000000E+02  0.30000000000E+02  0.00000000000E+00 0. -1.
          5    1    1    2  501    0 -0.28832203644E+02 -0.32018265010E+01 -0.60301194097E+01  0.30000000000E+02  0.47000000000E+01 0. -1.
         -5    1    1    2    0  501  0.28832203644E+02  0.32018265010E+01  0.60301194097E+01  0.30000000000E+02  0.47000000000E+01 0.  1.
</event>
<event>
 4    1  0.7643770E-002  0.6000000E+02  0.7546771E-02  0.1259629E+00
         11   -1    0    0    0    0  0.00000000000E+00  0.00000000000E+00  0.30000000000E+02  0.30000000000E+02  0.00000000000E+00 0.  1.
        -11   -1    0    0    0    0 -0.00000000000E+00 -0.00000000000E+00 -0.30000000000E+02  0.30000000000E+02  0.00000000000E+00 0. -1.
          5    1    1    2  501    0  0.86456025363E+01  0.10333343650E+02 -0.26389118321E+02  0.30000000000E+02  0.47000000000E+01 0. -1.
         -5    1    1    2    0  501 -0.86456025363E+01 -0.10333343650E+02  0.26389118321E+02  0.30000000000E+02  0.47000000000E+01 0.  1.
</event>
<event>
 4    1  0.7643770E-002  0.6000000E+02  0.7546771E-02  0.1259629E+00
         11   -1    0    0    0    0  0.00000000000E+00  0.00000000000E+00  0.30000000000E+02  0.30000000000E+02  0.00000000000E+00 0.  1.
        -11   -1    0    0    0    0 -0.00000000000E+00 -0.00000000000E+00 -0.30000000000E+02  0.30000000000E+02  0.00000000000E+00 0. -1.
          5    1    1    2  501    0  0.32832315306E+01 -0.80850139022E+01 -0.28315418784E+02  0.30000000000E+02  0.47000000000E+01 0. -1.
         -5    1    1    2    0  501 -0.32832315306E+01  0.80850139022E+01  0.28315418784E+02  0.30000000000E+02  0.47000000000E+01 0.  1.
</event>
<event>
 4    1  0.7643770E-002  0.6000000E+02  0.7546771E-02  0.1259629E+00
         11   -1    0    0    0    0  0.00000000000E+00  0.00000000000E+00  0.30000000000E+02  0.30000000000E+02  0.00000000000E+00 0.  1.
        -11   -1    0    0    0    0 -0.00000000000E+00 -0.00000000000E+00 -0.30000000000E+02  0.30000000000E+02  0.00000000000E+00 0. -1.
          5    1    1    2  501    0 -0.13200414508E+02 -0.23263498013E+02 -0.12746321706E+02  0.30000000000E+02  0.47000000000E+01 0. -1.
         -5    1    1    2    0  501  0.13200414508E+02  0.23263498013E+02  0.12746321706E+02  0.30000000000E+02  0.47000000000E+01 0.  1.
</event>
<event>
 4    1  0.7643770E-002  0.6000000E+02  0.7546771E-02  0.1259629E+00
         11   -1    0    0    0    0  0.00000000000E+00  0.00000000000E+00  0.30000000000E+02  0.30000000000E+02  0.00000000000E+00 0.  1.
        -11   -1    0    0    0    0 -0.00000000000E+00 -0.00000000000E+00 -0.30000000000E+02  0.30000000000E+02  0.00000000000E+00 0. -1.
          5    1    1    2  501    0  0.23744887166E+02  0.16241556457E+02 -0.70924027890E+01  0.30000000000E+02  0.47000000000E+01 0. -1.
         -5    1    1    2    0  501 -0.23744887166E+02 -0.16241556457E+02  0.70924027890E+01  0.30000000000E+02  0.47000000000E+01 0.  1.
</event>
<event>
 4    1  0.7643770E-002  0.6000000E+02  0.7546771E-02  0.1259629E+00
         11   -1    0    0    0    0  0.00000000000E+00  0.00000000000E+00  0.30000000000E+02  0.30000000000E+02  0.00000000000E+00 0.  1.
        -11   -1    0    0    0    0 -0.00000000000E+00 -0.00000000000E+00 -0.30000000000E+02  0.30000000000E+02  0.00000000000E+00 0. -1.
          5    1    1    2  501    0 -0.16211221040E+02 -0.38225502206E+00 -0.24798390946E+02  0.30000000000E+02  0.47000000000E+01 0. -1.
         -5    1    1    2    0  501  0.16211221040E+02  0.38225502206E+00  0.24798390946E+02  0.30000000000E+02  0.47000000000E+01 0.  1.
</event>
<event>
 4    1  0.7643770E-002  0.6000000E+02  0.7546771E-02  0.1259629E+00
         11   -1    0    0    0    0  0.00000000000E+00  0.00000000000E+00  0.30000000000E+02  0.30000000000E+02  0.00000000000E+00 0. -1.
        -11   -1    0    0    0    0 -0.00000000000E+00 -0.00000000000E+00 -0.30000000000E+02  0.30000000000E+02  0.00000000000E+00 0.  1.
          5    1    1    2  501    0  0.11906096284E+02 -0.26992983876E+02  0.27447573225E+01  0.30000000000E+02  0.47000000000E+01 0.  1.
         -5    1    1    2    0  501 -0.11906096284E+02  0.26992983876E+02 -0.27447573225E+01  0.30000000000E+02  0.47000000000E+01 0. -1.
</event>
<event>
 4    1  0.7643770E-002  0.6000000E+02  0.7546771E-02  0.1259629E+00
         11   -1    0    0    0    0  0.00000000000E+00  0.00000000000E+00  0.30000000000E+02  0.30000000000E+02  0.00000000000E+00 0.  1.
        -11   -1    0    0    0    0 -0.00000000000E+00 -0.00000000000E+00 -0.30000000000E+02  0.30000000000E+02  0.00000000000E+00 0. -1.
          5    1    1    2  501    0  0.11923890417E+02 -0.27113837312E+02  0.75542275894E+00  0.30000000000E+02  0.47000000000E+01 0. -1.
         -5    1    1    2    0  501 -0.11923890417E+02  0.27113837312E+02 -0.75542275894E+00  0.30000000000E+02  0.47000000000E+01 0.  1.
</event>
<event>
 4    1  0.7643770E-002  0.6000000E+02  0.7546771E-02  0.1259629E+00
         11   -1    0    0    0    0  0.00000000000E+00  0.00000000000E+00  0.30000000000E+02  0.30000000000E+02  0.00000000000E+00 0.  1.
        -11   -1    0    0    0    0 -0.00000000000E+00 -0.00000000000E+00 -0.30000000000E+02  0.30000000000E+02  0.00000000000E+00 0. -1.
          5    1    1    2  501    0 -0.21869712644E+02 -0.54882121074E+01  0.19222517960E+02  0.30000000000E+02  0.47000000000E+01 0.  1.
         -5    1    1    2    0  501  0.21869712644E+02  0.54882121074E+01 -0.19222517960E+02  0.30000000000E+02  0.47000000000E+01 0. -1.
</event>
<event>
 4    1  0.7643770E-002  0.6000000E+02  0.7546771E-02  0.1259629E+00
         11   -1    0    0    0    0  0.00000000000E+00  0.00000000000E+00  0.30000000000E+02  0.30000000000E+02  0.00000000000E+00 0.  1.
        -11   -1    0    0    0    0 -0.00000000000E+00 -0.00000000000E+00 -0.30000000000E+02  0.30000000000E+02  0.00000000000E+00 0. -1.
          5    1    1    2  501    0 -0.14023779914E+02  0.62882034092E+01 -0.25331839547E+02  0.30000000000E+02  0.47000000000E+01 0. -1.
         -5    1    1    2    0  501  0.14023779914E+02 -0.62882034092E+01  0.25331839547E+02  0.30000000000E+02  0.47000000000E+01 0.  1.
</event>
<event>
 4    1  0.7643770E-002  0.6000000E+02  0.7546771E-02  0.1259629E+00
         11   -1    0    0    0    0  0.00000000000E+00  0.00000000000E+00  0.30000000000E+02  0.30000000000E+02  0.00000000000E+00 0. -1.
        -11   -1    0    0    0    0 -0.00000000000E+00 -0.00000000000E+00 -0.30000000000E+02  0.30000000000E+02  0.00000000000E+00 0.  1.
          5    1    1    2  501    0  0.17728057014E+02 -0.41793411954E+01 -0.23370047105E+02  0.30000000000E+02  0.47000000000E+01 0.  1.
         -5    1    1    2    0  501 -0.17728057014E+02  0.41793411954E+01  0.23370047105E+02  0.30000000000E+02  0.47000000000E+01 0. -1.
</event>
<event>
 4    1  0.7643770E-002  0.6000000E+02  0.7546771E-02  0.1259629E+00
         11   -1    0    0    0    0  0.00000000000E+00  0.00000000000E+00  0.30000000000E+02  0.30000000000E+02  0.00000000000E+00 0.  1.
        -11   -1    0    0    0    0 -0.00000000000E+00 -0.00000000000E+00 -0.30000000000E+02  0.30000000000E+02  0.00000000000E+00 0. -1.
          5    1    1    2  501    0  0.21901970927E+02  0.18283948133E+02 -0.79944299480E+01  0.30000000000E+02  0.47000000000E+01 0. -1.
         -5    1    1    2    0  501 -0.21901970927E+02 -0.18283948133E+02  0.79944299480E+01  0.30000000000E+02  0.47000000000E+01 0.  1.
</event>
<event>
 4    1  0.7643770E-002  0.6000000E+02  0.7546771E-02  0.1259629E+00
         11   -1    0    0    0    0  0.00000000000E+00  0.00000000000E+00  0.30000000000E+02  0.30000000000E+02  0.00000000000E+00 0. -1.
        -11   -1    0    0    0    0 -0.00000000000E+00 -0.00000000000E+00 -0.30000000000E+02  0.30000000000E+02  0.00000000000E+00 0.  1.
          5    1    1    2  501    0  0.15199362970E+02  0.23751339643E+02 -0.90974298827E+01  0.30000000000E+02  0.47000000000E+01 0.  1.
         -5    1    1    2    0  501 -0.15199362970E+02 -0.23751339643E+02  0.90974298827E+01  0.30000000000E+02  0.47000000000E+01 0. -1.
</event>
<event>
 4    1  0.7643770E-002  0.6000000E+02  0.7546771E-02  0.1259629E+00
         11   -1    0    0    0    0  0.00000000000E+00  0.00000000000E+00  0.30000000000E+02  0.30000000000E+02  0.00000000000E+00 0.  1.
        -11   -1    0    0    0    0 -0.00000000000E+00 -0.00000000000E+00 -0.30000000000E+02  0.30000000000E+02  0.00000000000E+00 0. -1.
          5    1    1    2  501    0 -0.14417191500E+02 -0.64370743955E+01  0.25072268794E+02  0.30000000000E+02  0.47000000000E+01 0.  1.
         -5    1    1    2    0  501  0.14417191500E+02  0.64370743955E+01 -0.25072268794E+02  0.30000000000E+02  0.47000000000E+01 0. -1.
</event>
<event>
 4    1  0.7643770E-002  0.6000000E+02  0.7546771E-02  0.1259629E+00
         11   -1    0    0    0    0  0.00000000000E+00  0.00000000000E+00  0.30000000000E+02  0.30000000000E+02  0.00000000000E+00 0.  1.
        -11   -1    0    0    0    0 -0.00000000000E+00 -0.00000000000E+00 -0.30000000000E+02  0.30000000000E+02  0.00000000000E+00 0. -1.
          5    1    1    2  501    0  0.24071139688E+02 -0.16003900115E+02  0.65088720400E+01  0.30000000000E+02  0.47000000000E+01 0. -1.
         -5    1    1    2    0  501 -0.24071139688E+02  0.16003900115E+02 -0.65088720400E+01  0.30000000000E+02  0.47000000000E+01 0.  1.
</event>
<event>
 4    1  0.7643770E-002  0.6000000E+02  0.7546771E-02  0.1259629E+00
         11   -1    0    0    0    0  0.00000000000E+00  0.00000000000E+00  0.30000000000E+02  0.30000000000E+02  0.00000000000E+00 0.  1.
        -11   -1    0    0    0    0 -0.00000000000E+00 -0.00000000000E+00 -0.30000000000E+02  0.30000000000E+02  0.00000000000E+00 0. -1.
          5    1    1    2  501    0 -0.11320945501E+02  0.77655610143E+00 -0.27370479601E+02  0.30000000000E+02  0.47000000000E+01 0. -1.
         -5    1    1    2    0  501  0.11320945501E+02 -0.77655610143E+00  0.27370479601E+02  0.30000000000E+02  0.47000000000E+01 0.  1.
</event>
<event>
 4    1  0.7643770E-002  0.6000000E+02  0.7546771E-02  0.1259629E+00
         11   -1    0    0    0    0  0.00000000000E+00  0.00000000000E+00  0.30000000000E+02  0.30000000000E+02  0.00000000000E+00 0.  1.
        -11   -1    0    0    0    0 -0.00000000000E+00 -0.00000000000E+00 -0.30000000000E+02  0.30000000000E+02  0.00000000000E+00 0. -1.
          5    1    1    2  501    0  0.50163768267E+01  0.16071008684E+02 -0.24381727654E+02  0.30000000000E+02  0.47000000000E+01 0. -1.
         -5    1    1    2    0  501 -0.50163768267E+01 -0.16071008684E+02  0.24381727654E+02  0.30000000000E+02  0.47000000000E+01 0.  1.
</event>
<event>
 4    1  0.7643770E-002  0.6000000E+02  0.7546771E-02  0.1259629E+00
         11   -1    0    0    0    0  0.00000000000E+00  0.00000000000E+00  0.30000000000E+02  0.30000000000E+02  0.00000000000E+00 0.  1.
        -11   -1    0    0    0    0 -0.00000000000E+00 -0.00000000000E+00 -0.30000000000E+02  0.30000000000E+02  0.00000000000E+00 0. -1.
          5    1    1    2  501    0 -0.62684142559E+01 -0.28651274279E+02 -0.42096870331E+01  0.30000000000E+02  0.47000000000E+01 0. -1.
         -5    1    1    2    0  501  0.62684142559E+01  0.28651274279E+02  0.42096870331E+01  0.30000000000E+02  0.47000000000E+01 0.  1.
</event>
<event>
 4    1  0.7643770E-002  0.6000000E+02  0.7546771E-02  0.1259629E+00
         11   -1    0    0    0    0  0.00000000000E+00  0.00000000000E+00  0.30000000000E+02  0.30000000000E+02  0.00000000000E+00 0.  1.
        -11   -1    0    0    0    0 -0.00000000000E+00 -0.00000000000E+00 -0.30000000000E+02  0.30000000000E+02  0.00000000000E+00 0. -1.
          5    1    1    2  501    0  0.23655569710E+02 -0.60319028373E+01 -0.16791074112E+02  0.30000000000E+02  0.47000000000E+01 0. -1.
         -5    1    1    2    0  501 -0.23655569710E+02  0.60319028373E+01  0.16791074112E+02  0.30000000000E+02  0.47000000000E+01 0.  1.
</event>
<event>
 4    1  0.7643770E-002  0.6000000E+02  0.7546771E-02  0.1259629E+00
         11   -1    0    0    0    0  0.00000000000E+00  0.00000000000E+00  0.30000000000E+02  0.30000000000E+02  0.00000000000E+00 0. -1.
        -11   -1    0    0    0    0 -0.00000000000E+00 -0.00000000000E+00 -0.30000000000E+02  0.30000000000E+02  0.00000000000E+00 0.  1.
          5    1    1    2  501    0 -0.88706823497E+00  0.11235257435E+02 -0.27402410484E+02  0.30000000000E+02  0.47000000000E+01 0.  1.
         -5    1    1    2    0  501  0.88706823497E+00 -0.11235257435E+02  0.27402410484E+02  0.30000000000E+02  0.47000000000E+01 0. -1.
</event>
<event>
 4    1  0.7643770E-002  0.6000000E+02  0.7546771E-02  0.1259629E+00
         11   -1    0    0    0    0  0.00000000000E+00  0.00000000000E+00  0.30000000000E+02  0.30000000000E+02  0.00000000000E+00 0.  1.
        -11   -1    0    0    0    0 -0.00000000000E+00 -0.00000000000E+00 -0.30000000000E+02  0.30000000000E+02  0.00000000000E+00 0. -1.
          5    1    1    2  501    0 -0.22702501292E+02  0.17161720633E+02 -0.82451064276E+01  0.30000000000E+02  0.47000000000E+01 0. -1.
         -5    1    1    2    0  501  0.22702501292E+02 -0.17161720633E+02  0.82451064276E+01  0.30000000000E+02  0.47000000000E+01 0.  1.
</event>
<event>
 4    1  0.7643770E-002  0.6000000E+02  0.7546771E-02  0.1259629E+00
         11   -1    0    0    0    0  0.00000000000E+00  0.00000000000E+00  0.30000000000E+02  0.30000000000E+02  0.00000000000E+00 0.  1.
        -11   -1    0    0    0    0 -0.00000000000E+00 -0.00000000000E+00 -0.30000000000E+02  0.30000000000E+02  0.00000000000E+00 0. -1.
          5    1    1    2  501    0  0.69378463344E+01  0.16134039734E-01  0.28805833228E+02  0.30000000000E+02  0.47000000000E+01 0.  1.
         -5    1    1    2    0  501 -0.69378463344E+01 -0.16134039734E-01 -0.28805833228E+02  0.30000000000E+02  0.47000000000E+01 0. -1.
</event>
<event>
 4    1  0.7643770E-002  0.6000000E+02  0.7546771E-02  0.1259629E+00
         11   -1    0    0    0    0  0.00000000000E+00  0.00000000000E+00  0.30000000000E+02  0.30000000000E+02  0.00000000000E+00 0.  1.
        -11   -1    0    0    0    0 -0.00000000000E+00 -0.00000000000E+00 -0.30000000000E+02  0.30000000000E+02  0.00000000000E+00 0. -1.
          5    1    1    2  501    0  0.10388482377E+02 -0.26668955552E+02  0.76652621379E+01  0.30000000000E+02  0.47000000000E+01 0. -1.
         -5    1    1    2    0  501 -0.10388482377E+02  0.26668955552E+02 -0.76652621379E+01  0.30000000000E+02  0.47000000000E+01 0.  1.
</event>
<event>
 4    1  0.7643770E-002  0.6000000E+02  0.7546771E-02  0.1259629E+00
         11   -1    0    0    0    0  0.00000000000E+00  0.00000000000E+00  0.30000000000E+02  0.30000000000E+02  0.00000000000E+00 0.  1.
        -11   -1    0    0    0    0 -0.00000000000E+00 -0.00000000000E+00 -0.30000000000E+02  0.30000000000E+02  0.00000000000E+00 0. -1.
          5    1    1    2  501    0  0.13669491658E+02  0.15648145842E+02 -0.21123222518E+02  0.30000000000E+02  0.47000000000E+01 0. -1.
         -5    1    1    2    0  501 -0.13669491658E+02 -0.15648145842E+02  0.21123222518E+02  0.30000000000E+02  0.47000000000E+01 0.  1.
</event>
<event>
 4    1  0.7643770E-002  0.6000000E+02  0.7546771E-02  0.1259629E+00
         11   -1    0    0    0    0  0.00000000000E+00  0.00000000000E+00  0.30000000000E+02  0.30000000000E+02  0.00000000000E+00 0.  1.
        -11   -1    0    0    0    0 -0.00000000000E+00 -0.00000000000E+00 -0.30000000000E+02  0.30000000000E+02  0.00000000000E+00 0. -1.
          5    1    1    2  501    0 -0.45139959266E+01 -0.38677363246E+01 -0.29027133108E+02  0.30000000000E+02  0.47000000000E+01 0. -1.
         -5    1    1    2    0  501  0.45139959266E+01  0.38677363246E+01  0.29027133108E+02  0.30000000000E+02  0.47000000000E+01 0.  1.
</event>
<event>
 4    1  0.7643770E-002  0.6000000E+02  0.7546771E-02  0.1259629E+00
         11   -1    0    0    0    0  0.00000000000E+00  0.00000000000E+00  0.30000000000E+02  0.30000000000E+02  0.00000000000E+00 0.  1.
        -11   -1    0    0    0    0 -0.00000000000E+00 -0.00000000000E+00 -0.30000000000E+02  0.30000000000E+02  0.00000000000E+00 0. -1.
          5    1    1    2  501    0 -0.60150313602E+01  0.99916266757E+01 -0.27237782474E+02  0.30000000000E+02  0.47000000000E+01 0. -1.
         -5    1    1    2    0  501  0.60150313602E+01 -0.99916266757E+01  0.27237782474E+02  0.30000000000E+02  0.47000000000E+01 0.  1.
</event>
<event>
 4    1  0.7643770E-002  0.6000000E+02  0.7546771E-02  0.1259629E+00
         11   -1    0    0    0    0  0.00000000000E+00  0.00000000000E+00  0.30000000000E+02  0.30000000000E+02  0.00000000000E+00 0. -1.
        -11   -1    0    0    0    0 -0.00000000000E+00 -0.00000000000E+00 -0.30000000000E+02  0.30000000000E+02  0.00000000000E+00 0.  1.
          5    1    1    2  501    0  0.33930625812E+01  0.21896223887E+02  0.19671108403E+02  0.30000000000E+02  0.47000000000E+01 0. -1.
         -5    1    1    2    0  501 -0.33930625812E+01 -0.21896223887E+02 -0.19671108403E+02  0.30000000000E+02  0.47000000000E+01 0.  1.
</event>
<event>
 4    1  0.7643770E-002  0.6000000E+02  0.7546771E-02  0.1259629E+00
         11   -1    0    0    0    0  0.00000000000E+00  0.00000000000E+00  0.30000000000E+02  0.30000000000E+02  0.00000000000E+00 0. -1.
        -11   -1    0    0    0    0 -0.00000000000E+00 -0.00000000000E+00 -0.30000000000E+02  0.30000000000E+02  0.00000000000E+00 0.  1.
          5    1    1    2  501    0  0.91154777193E+01  0.26092979249E+02 -0.10675884033E+02  0.30000000000E+02  0.47000000000E+01 0.  1.
         -5    1    1    2    0  501 -0.91154777193E+01 -0.26092979249E+02  0.10675884033E+02  0.30000000000E+02  0.47000000000E+01 0. -1.
</event>
<event>
 4    1  0.7643770E-002  0.6000000E+02  0.7546771E-02  0.1259629E+00
         11   -1    0    0    0    0  0.00000000000E+00  0.00000000000E+00  0.30000000000E+02  0.30000000000E+02  0.00000000000E+00 0.  1.
        -11   -1    0    0    0    0 -0.00000000000E+00 -0.00000000000E+00 -0.30000000000E+02  0.30000000000E+02  0.00000000000E+00 0. -1.
          5    1    1    2  501    0 -0.24664706615E+02  0.14401942220E+02 -0.78832929590E+01  0.30000000000E+02  0.47000000000E+01 0. -1.
         -5    1    1    2    0  501  0.24664706615E+02 -0.14401942220E+02  0.78832929590E+01  0.30000000000E+02  0.47000000000E+01 0.  1.
</event>
<event>
 4    1  0.7643770E-002  0.6000000E+02  0.7546771E-02  0.1259629E+00
         11   -1    0    0    0    0  0.00000000000E+00  0.00000000000E+00  0.30000000000E+02  0.30000000000E+02  0.00000000000E+00 0. -1.
        -11   -1    0    0    0    0 -0.00000000000E+00 -0.00000000000E+00 -0.30000000000E+02  0.30000000000E+02  0.00000000000E+00 0.  1.
          5    1    1    2  501    0  0.19953359957E+02  0.16903504578E+02 -0.13930002132E+02  0.30000000000E+02  0.47000000000E+01 0.  1.
         -5    1    1    2    0  501 -0.19953359957E+02 -0.16903504578E+02  0.13930002132E+02  0.30000000000E+02  0.47000000000E+01 0. -1.
</event>
<event>
 4    1  0.7643770E-002  0.6000000E+02  0.7546771E-02  0.1259629E+00
         11   -1    0    0    0    0  0.00000000000E+00  0.00000000000E+00  0.30000000000E+02  0.30000000000E+02  0.00000000000E+00 0.  1.
        -11   -1    0    0    0    0 -0.00000000000E+00 -0.00000000000E+00 -0.30000000000E+02  0.30000000000E+02  0.00000000000E+00 0. -1.
          5    1    1    2  501    0 -0.76038156436E+01  0.13355271609E+01 -0.28606089472E+02  0.30000000000E+02  0.47000000000E+01 0. -1.
         -5    1    1    2    0  501  0.76038156436E+01 -0.13355271609E+01  0.28606089472E+02  0.30000000000E+02  0.47000000000E+01 0.  1.
</event>
<event>
 4    1  0.7643770E-002  0.6000000E+02  0.7546771E-02  0.1259629E+00
         11   -1    0    0    0    0  0.00000000000E+00  0.00000000000E+00  0.30000000000E+02  0.30000000000E+02  0.00000000000E+00 0.  1.
        -11   -1    0    0    0    0 -0.00000000000E+00 -0.00000000000E+00 -0.30000000000E+02  0.30000000000E+02  0.00000000000E+00 0. -1.
          5    1    1    2  501    0 -0.13977263768E+02 -0.25964315778E+02 -0.28983449981E+01  0.30000000000E+02  0.47000000000E+01 0. -1.
         -5    1    1    2    0  501  0.13977263768E+02  0.25964315778E+02  0.28983449981E+01  0.30000000000E+02  0.47000000000E+01 0.  1.
</event>
<event>
 4    1  0.7643770E-002  0.6000000E+02  0.7546771E-02  0.1259629E+00
         11   -1    0    0    0    0  0.00000000000E+00  0.00000000000E+00  0.30000000000E+02  0.30000000000E+02  0.00000000000E+00 0. -1.
        -11   -1    0    0    0    0 -0.00000000000E+00 -0.00000000000E+00 -0.30000000000E+02  0.30000000000E+02  0.00000000000E+00 0.  1.
          5    1    1    2  501    0  0.23409343823E+01  0.13969811942E+02 -0.26024495778E+02  0.30000000000E+02  0.47000000000E+01 0.  1.
         -5    1    1    2    0  501 -0.23409343823E+01 -0.13969811942E+02  0.26024495778E+02  0.30000000000E+02  0.47000000000E+01 0. -1.
</event>
<event>
 4    1  0.7643770E-002  0.6000000E+02  0.7546771E-02  0.1259629E+00
         11   -1    0    0    0    0  0.00000000000E+00  0.00000000000E+00  0.30000000000E+02  0.30000000000E+02  0.00000000000E+00 0.  1.
        -11   -1    0    0    0    0 -0.00000000000E+00 -0.00000000000E+00 -0.30000000000E+02  0.30000000000E+02  0.00000000000E+00 0. -1.
          5    1    1    2  501    0 -0.80869363571E+01 -0.25539240101E+02 -0.12659331555E+02  0.30000000000E+02  0.47000000000E+01 0. -1.
         -5    1    1    2    0  501  0.80869363571E+01  0.25539240101E+02  0.12659331555E+02  0.30000000000E+02  0.47000000000E+01 0.  1.
</event>
<event>
 4    1  0.7643770E-002  0.6000000E+02  0.7546771E-02  0.1259629E+00
         11   -1    0    0    0    0  0.00000000000E+00  0.00000000000E+00  0.30000000000E+02  0.30000000000E+02  0.00000000000E+00 0. -1.
        -11   -1    0    0    0    0 -0.00000000000E+00 -0.00000000000E+00 -0.30000000000E+02  0.30000000000E+02  0.00000000000E+00 0.  1.
          5    1    1    2  501    0 -0.26171418069E+02  0.11025017951E+02  0.84507902245E+01  0.30000000000E+02  0.47000000000E+01 0.  1.
         -5    1    1    2    0  501  0.26171418069E+02 -0.11025017951E+02 -0.84507902245E+01  0.30000000000E+02  0.47000000000E+01 0. -1.
</event>
<event>
 4    1  0.7643770E-002  0.6000000E+02  0.7546771E-02  0.1259629E+00
         11   -1    0    0    0    0  0.00000000000E+00  0.00000000000E+00  0.30000000000E+02  0.30000000000E+02  0.00000000000E+00 0.  1.
        -11   -1    0    0    0    0 -0.00000000000E+00 -0.00000000000E+00 -0.30000000000E+02  0.30000000000E+02  0.00000000000E+00 0. -1.
          5    1    1    2  501    0 -0.97633160326E+01  0.11045164928E+02 -0.25701984199E+02  0.30000000000E+02  0.47000000000E+01 0. -1.
         -5    1    1    2    0  501  0.97633160326E+01 -0.11045164928E+02  0.25701984199E+02  0.30000000000E+02  0.47000000000E+01 0.  1.
</event>
<event>
 4    1  0.7643770E-002  0.6000000E+02  0.7546771E-02  0.1259629E+00
         11   -1    0    0    0    0  0.00000000000E+00  0.00000000000E+00  0.30000000000E+02  0.30000000000E+02  0.00000000000E+00 0.  1.
        -11   -1    0    0    0    0 -0.00000000000E+00 -0.00000000000E+00 -0.30000000000E+02  0.30000000000E+02  0.00000000000E+00 0. -1.
          5    1    1    2  501    0  0.11027842142E+02  0.76193907457E+01 -0.26424261245E+02  0.30000000000E+02  0.47000000000E+01 0. -1.
         -5    1    1    2    0  501 -0.11027842142E+02 -0.76193907457E+01  0.26424261245E+02  0.30000000000E+02  0.47000000000E+01 0.  1.
</event>
<event>
 4    1  0.7643770E-002  0.6000000E+02  0.7546771E-02  0.1259629E+00
         11   -1    0    0    0    0  0.00000000000E+00  0.00000000000E+00  0.30000000000E+02  0.30000000000E+02  0.00000000000E+00 0. -1.
        -11   -1    0    0    0    0 -0.00000000000E+00 -0.00000000000E+00 -0.30000000000E+02  0.30000000000E+02  0.00000000000E+00 0.  1.
          5    1    1    2  501    0 -0.26252604118E+02 -0.12357903801E+02 -0.59994158616E+01  0.30000000000E+02  0.47000000000E+01 0.  1.
         -5    1    1    2    0  501  0.26252604118E+02  0.12357903801E+02  0.59994158616E+01  0.30000000000E+02  0.47000000000E+01 0. -1.
</event>
<event>
 4    1  0.7643770E-002  0.6000000E+02  0.7546771E-02  0.1259629E+00
         11   -1    0    0    0    0  0.00000000000E+00  0.00000000000E+00  0.30000000000E+02  0.30000000000E+02  0.00000000000E+00 0.  1.
        -11   -1    0    0    0    0 -0.00000000000E+00 -0.00000000000E+00 -0.30000000000E+02  0.30000000000E+02  0.00000000000E+00 0. -1.
          5    1    1    2  501    0  0.27027734963E+02 -0.55301937117E+01 -0.10808723341E+02  0.30000000000E+02  0.47000000000E+01 0. -1.
         -5    1    1    2    0  501 -0.27027734963E+02  0.55301937117E+01  0.10808723341E+02  0.30000000000E+02  0.47000000000E+01 0.  1.
</event>
<event>
 4    1  0.7643770E-002  0.6000000E+02  0.7546771E-02  0.1259629E+00
         11   -1    0    0    0    0  0.00000000000E+00  0.00000000000E+00  0.30000000000E+02  0.30000000000E+02  0.00000000000E+00 0.  1.
        -11   -1    0    0    0    0 -0.00000000000E+00 -0.00000000000E+00 -0.30000000000E+02  0.30000000000E+02  0.00000000000E+00 0. -1.
          5    1    1    2  501    0  0.14551147330E+02 -0.75806641538E+01 -0.24672001183E+02  0.30000000000E+02  0.47000000000E+01 0. -1.
         -5    1    1    2    0  501 -0.14551147330E+02  0.75806641538E+01  0.24672001183E+02  0.30000000000E+02  0.47000000000E+01 0.  1.
</event>
<event>
 4    1  0.7643770E-002  0.6000000E+02  0.7546771E-02  0.1259629E+00
         11   -1    0    0    0    0  0.00000000000E+00  0.00000000000E+00  0.30000000000E+02  0.30000000000E+02  0.00000000000E+00 0.  1.
        -11   -1    0    0    0    0 -0.00000000000E+00 -0.00000000000E+00 -0.30000000000E+02  0.30000000000E+02  0.00000000000E+00 0. -1.
          5    1    1    2  501    0 -0.11746498982E+01 -0.29090570880E+02 -0.55017164112E+01  0.30000000000E+02  0.47000000000E+01 0. -1.
         -5    1    1    2    0  501  0.11746498982E+01  0.29090570880E+02  0.55017164112E+01  0.30000000000E+02  0.47000000000E+01 0.  1.
</event>
<event>
 4    1  0.7643770E-002  0.6000000E+02  0.7546771E-02  0.1259629E+00
         11   -1    0    0    0    0  0.00000000000E+00  0.00000000000E+00  0.30000000000E+02  0.30000000000E+02  0.00000000000E+00 0.  1.
        -11   -1    0    0    0    0 -0.00000000000E+00 -0.00000000000E+00 -0.30000000000E+02  0.30000000000E+02  0.00000000000E+00 0. -1.
          5    1    1    2  501    0 -0.68587664031E+01  0.21055462920E+02 -0.19685903704E+02  0.30000000000E+02  0.47000000000E+01 0. -1.
         -5    1    1    2    0  501  0.68587664031E+01 -0.21055462920E+02  0.19685903704E+02  0.30000000000E+02  0.47000000000E+01 0.  1.
</event>
<event>
 4    1  0.7643770E-002  0.6000000E+02  0.7546771E-02  0.1259629E+00
         11   -1    0    0    0    0  0.00000000000E+00  0.00000000000E+00  0.30000000000E+02  0.30000000000E+02  0.00000000000E+00 0.  1.
        -11   -1    0    0    0    0 -0.00000000000E+00 -0.00000000000E+00 -0.30000000000E+02  0.30000000000E+02  0.00000000000E+00 0. -1.
          5    1    1    2  501    0 -0.14253289536E+02  0.25830538675E+02 -0.27453613833E+01  0.30000000000E+02  0.47000000000E+01 0. -1.
         -5    1    1    2    0  501  0.14253289536E+02 -0.25830538675E+02  0.27453613833E+01  0.30000000000E+02  0.47000000000E+01 0.  1.
</event>
<event>
 4    1  0.7643770E-002  0.6000000E+02  0.7546771E-02  0.1259629E+00
         11   -1    0    0    0    0  0.00000000000E+00  0.00000000000E+00  0.30000000000E+02  0.30000000000E+02  0.00000000000E+00 0. -1.
        -11   -1    0    0    0    0 -0.00000000000E+00 -0.00000000000E+00 -0.30000000000E+02  0.30000000000E+02  0.00000000000E+00 0.  1.
          5    1    1    2  501    0 -0.20768283175E+02  0.13764735610E+02 -0.16034976380E+02  0.30000000000E+02  0.47000000000E+01 0.  1.
         -5    1    1    2    0  501  0.20768283175E+02 -0.13764735610E+02  0.16034976380E+02  0.30000000000E+02  0.47000000000E+01 0. -1.
</event>
<event>
 4    1  0.7643770E-002  0.6000000E+02  0.7546771E-02  0.1259629E+00
         11   -1    0    0    0    0  0.00000000000E+00  0.00000000000E+00  0.30000000000E+02  0.30000000000E+02  0.00000000000E+00 0.  1.
        -11   -1    0    0    0    0 -0.00000000000E+00 -0.00000000000E+00 -0.30000000000E+02  0.30000000000E+02  0.00000000000E+00 0. -1.
          5    1    1    2  501    0  0.18708772814E+02 -0.18604717341E+02 -0.13481702877E+02  0.30000000000E+02  0.47000000000E+01 0. -1.
         -5    1    1    2    0  501 -0.18708772814E+02  0.18604717341E+02  0.13481702877E+02  0.30000000000E+02  0.47000000000E+01 0.  1.
</event>
<event>
 4    1  0.7643770E-002  0.6000000E+02  0.7546771E-02  0.1259629E+00
         11   -1    0    0    0    0  0.00000000000E+00  0.00000000000E+00  0.30000000000E+02  0.30000000000E+02  0.00000000000E+00 0.  1.
        -11   -1    0    0    0    0 -0.00000000000E+00 -0.00000000000E+00 -0.30000000000E+02  0.30000000000E+02  0.00000000000E+00 0. -1.
          5    1    1    2  501    0 -0.73376493225E+01  0.24966614755E+02 -0.14168170315E+02  0.30000000000E+02  0.47000000000E+01 0. -1.
         -5    1    1    2    0  501  0.73376493225E+01 -0.24966614755E+02  0.14168170315E+02  0.30000000000E+02  0.47000000000E+01 0.  1.
</event>
<event>
 4    1  0.7643770E-002  0.6000000E+02  0.7546771E-02  0.1259629E+00
         11   -1    0    0    0    0  0.00000000000E+00  0.00000000000E+00  0.30000000000E+02  0.30000000000E+02  0.00000000000E+00 0.  1.
        -11   -1    0    0    0    0 -0.00000000000E+00 -0.00000000000E+00 -0.30000000000E+02  0.30000000000E+02  0.00000000000E+00 0. -1.
          5    1    1    2  501    0  0.79023746440E+01 -0.30291966843E+01 -0.28395183437E+02  0.30000000000E+02  0.47000000000E+01 0. -1.
         -5    1    1    2    0  501 -0.79023746440E+01  0.30291966843E+01  0.28395183437E+02  0.30000000000E+02  0.47000000000E+01 0.  1.
</event>
<event>
 4    1  0.7643770E-002  0.6000000E+02  0.7546771E-02  0.1259629E+00
         11   -1    0    0    0    0  0.00000000000E+00  0.00000000000E+00  0.30000000000E+02  0.30000000000E+02  0.00000000000E+00 0.  1.
        -11   -1    0    0    0    0 -0.00000000000E+00 -0.00000000000E+00 -0.30000000000E+02  0.30000000000E+02  0.00000000000E+00 0. -1.
          5    1    1    2  501    0  0.72608259354E+01 -0.27785150117E+02  0.72921766114E+01  0.30000000000E+02  0.47000000000E+01 0.  1.
         -5    1    1    2    0  501 -0.72608259354E+01  0.27785150117E+02 -0.72921766114E+01  0.30000000000E+02  0.47000000000E+01 0. -1.
</event>
<event>
 4    1  0.7643770E-002  0.6000000E+02  0.7546771E-02  0.1259629E+00
         11   -1    0    0    0    0  0.00000000000E+00  0.00000000000E+00  0.30000000000E+02  0.30000000000E+02  0.00000000000E+00 0.  1.
        -11   -1    0    0    0    0 -0.00000000000E+00 -0.00000000000E+00 -0.30000000000E+02  0.30000000000E+02  0.00000000000E+00 0. -1.
          5    1    1    2  501    0 -0.14831763533E+02  0.19035466489E+02 -0.17192434558E+02  0.30000000000E+02  0.47000000000E+01 0. -1.
         -5    1    1    2    0  501  0.14831763533E+02 -0.19035466489E+02  0.17192434558E+02  0.30000000000E+02  0.47000000000E+01 0.  1.
</event>
<event>
 4    1  0.7643770E-002  0.6000000E+02  0.7546771E-02  0.1259629E+00
         11   -1    0    0    0    0  0.00000000000E+00  0.00000000000E+00  0.30000000000E+02  0.30000000000E+02  0.00000000000E+00 0.  1.
        -11   -1    0    0    0    0 -0.00000000000E+00 -0.00000000000E+00 -0.30000000000E+02  0.30000000000E+02  0.00000000000E+00 0. -1.
          5    1    1    2  501    0  0.11784664929E+01  0.86833734761E+01 -0.28304067584E+02  0.30000000000E+02  0.47000000000E+01 0. -1.
         -5    1    1    2    0  501 -0.11784664929E+01 -0.86833734761E+01  0.28304067584E+02  0.30000000000E+02  0.47000000000E+01 0.  1.
</event>
<event>
 4    1  0.7643770E-002  0.6000000E+02  0.7546771E-02  0.1259629E+00
         11   -1    0    0    0    0  0.00000000000E+00  0.00000000000E+00  0.30000000000E+02  0.30000000000E+02  0.00000000000E+00 0.  1.
        -11   -1    0    0    0    0 -0.00000000000E+00 -0.00000000000E+00 -0.30000000000E+02  0.30000000000E+02  0.00000000000E+00 0. -1.
          5    1    1    2  501    0 -0.17050171146E+01 -0.29555147267E+02 -0.12231870881E+01  0.30000000000E+02  0.47000000000E+01 0. -1.
         -5    1    1    2    0  501  0.17050171146E+01  0.29555147267E+02  0.12231870881E+01  0.30000000000E+02  0.47000000000E+01 0.  1.
</event>
<event>
 4    1  0.7643770E-002  0.6000000E+02  0.7546771E-02  0.1259629E+00
         11   -1    0    0    0    0  0.00000000000E+00  0.00000000000E+00  0.30000000000E+02  0.30000000000E+02  0.00000000000E+00 0.  1.
        -11   -1    0    0    0    0 -0.00000000000E+00 -0.00000000000E+00 -0.30000000000E+02  0.30000000000E+02  0.00000000000E+00 0. -1.
          5    1    1    2  501    0 -0.13015508044E+02  0.20970665410E+02 -0.16393222460E+02  0.30000000000E+02  0.47000000000E+01 0. -1.
         -5    1    1    2    0  501  0.13015508044E+02 -0.20970665410E+02  0.16393222460E+02  0.30000000000E+02  0.47000000000E+01 0.  1.
</event>
<event>
 4    1  0.7643770E-002  0.6000000E+02  0.7546771E-02  0.1259629E+00
         11   -1    0    0    0    0  0.00000000000E+00  0.00000000000E+00  0.30000000000E+02  0.30000000000E+02  0.00000000000E+00 0.  1.
        -11   -1    0    0    0    0 -0.00000000000E+00 -0.00000000000E+00 -0.30000000000E+02  0.30000000000E+02  0.00000000000E+00 0. -1.
          5    1    1    2  501    0  0.29025100172E+02  0.35313857221E+01 -0.47940457773E+01  0.30000000000E+02  0.47000000000E+01 0. -1.
         -5    1    1    2    0  501 -0.29025100172E+02 -0.35313857221E+01  0.47940457773E+01  0.30000000000E+02  0.47000000000E+01 0.  1.
</event>
<event>
 4    1  0.7643770E-002  0.6000000E+02  0.7546771E-02  0.1259629E+00
         11   -1    0    0    0    0  0.00000000000E+00  0.00000000000E+00  0.30000000000E+02  0.30000000000E+02  0.00000000000E+00 0. -1.
        -11   -1    0    0    0    0 -0.00000000000E+00 -0.00000000000E+00 -0.30000000000E+02  0.30000000000E+02  0.00000000000E+00 0.  1.
          5    1    1    2  501    0  0.16305975888E+02  0.21829275058E+02 -0.11640786090E+02  0.30000000000E+02  0.47000000000E+01 0.  1.
         -5    1    1    2    0  501 -0.16305975888E+02 -0.21829275058E+02  0.11640786090E+02  0.30000000000E+02  0.47000000000E+01 0. -1.
</event>
<event>
 4    1  0.7643770E-002  0.6000000E+02  0.7546771E-02  0.1259629E+00
         11   -1    0    0    0    0  0.00000000000E+00  0.00000000000E+00  0.30000000000E+02  0.30000000000E+02  0.00000000000E+00 0.  1.
        -11   -1    0    0    0    0 -0.00000000000E+00 -0.00000000000E+00 -0.30000000000E+02  0.30000000000E+02  0.00000000000E+00 0. -1.
          5    1    1    2  501    0 -0.15097190396E+02 -0.86157080212E+01 -0.23994883151E+02  0.30000000000E+02  0.47000000000E+01 0. -1.
         -5    1    1    2    0  501  0.15097190396E+02  0.86157080212E+01  0.23994883151E+02  0.30000000000E+02  0.47000000000E+01 0.  1.
</event>
<event>
 4    1  0.7643770E-002  0.6000000E+02  0.7546771E-02  0.1259629E+00
         11   -1    0    0    0    0  0.00000000000E+00  0.00000000000E+00  0.30000000000E+02  0.30000000000E+02  0.00000000000E+00 0.  1.
        -11   -1    0    0    0    0 -0.00000000000E+00 -0.00000000000E+00 -0.30000000000E+02  0.30000000000E+02  0.00000000000E+00 0. -1.
          5    1    1    2  501    0  0.88008677083E+00 -0.21939375912E+02  0.19894703614E+02  0.30000000000E+02  0.47000000000E+01 0.  1.
         -5    1    1    2    0  501 -0.88008677083E+00  0.21939375912E+02 -0.19894703614E+02  0.30000000000E+02  0.47000000000E+01 0. -1.
</event>
<event>
 4    1  0.7643770E-002  0.6000000E+02  0.7546771E-02  0.1259629E+00
         11   -1    0    0    0    0  0.00000000000E+00  0.00000000000E+00  0.30000000000E+02  0.30000000000E+02  0.00000000000E+00 0.  1.
        -11   -1    0    0    0    0 -0.00000000000E+00 -0.00000000000E+00 -0.30000000000E+02  0.30000000000E+02  0.00000000000E+00 0. -1.
          5    1    1    2  501    0  0.22023322432E+02  0.14050113753E+02 -0.13981329428E+02  0.30000000000E+02  0.47000000000E+01 0. -1.
         -5    1    1    2    0  501 -0.22023322432E+02 -0.14050113753E+02  0.13981329428E+02  0.30000000000E+02  0.47000000000E+01 0.  1.
</event>
<event>
 4    1  0.7643770E-002  0.6000000E+02  0.7546771E-02  0.1259629E+00
         11   -1    0    0    0    0  0.00000000000E+00  0.00000000000E+00  0.30000000000E+02  0.30000000000E+02  0.00000000000E+00 0. -1.
        -11   -1    0    0    0    0 -0.00000000000E+00 -0.00000000000E+00 -0.30000000000E+02  0.30000000000E+02  0.00000000000E+00 0.  1.
          5    1    1    2  501    0  0.10465116090E+02  0.16552870021E+02 -0.22234968839E+02  0.30000000000E+02  0.47000000000E+01 0.  1.
         -5    1    1    2    0  501 -0.10465116090E+02 -0.16552870021E+02  0.22234968839E+02  0.30000000000E+02  0.47000000000E+01 0. -1.
</event>
<event>
 4    1  0.7643770E-002  0.6000000E+02  0.7546771E-02  0.1259629E+00
         11   -1    0    0    0    0  0.00000000000E+00  0.00000000000E+00  0.30000000000E+02  0.30000000000E+02  0.00000000000E+00 0.  1.
        -11   -1    0    0    0    0 -0.00000000000E+00 -0.00000000000E+00 -0.30000000000E+02  0.30000000000E+02  0.00000000000E+00 0. -1.
          5    1    1    2  501    0 -0.16326029427E+02  0.24793981967E+01 -0.24601287522E+02  0.30000000000E+02  0.47000000000E+01 0. -1.
         -5    1    1    2    0  501  0.16326029427E+02 -0.24793981967E+01  0.24601287522E+02  0.30000000000E+02  0.47000000000E+01 0.  1.
</event>
<event>
 4    1  0.7643770E-002  0.6000000E+02  0.7546771E-02  0.1259629E+00
         11   -1    0    0    0    0  0.00000000000E+00  0.00000000000E+00  0.30000000000E+02  0.30000000000E+02  0.00000000000E+00 0. -1.
        -11   -1    0    0    0    0 -0.00000000000E+00 -0.00000000000E+00 -0.30000000000E+02  0.30000000000E+02  0.00000000000E+00 0.  1.
          5    1    1    2  501    0  0.14658961956E+02 -0.25654133810E+02  0.22113916060E+01  0.30000000000E+02  0.47000000000E+01 0. -1.
         -5    1    1    2    0  501 -0.14658961956E+02  0.25654133810E+02 -0.22113916060E+01  0.30000000000E+02  0.47000000000E+01 0.  1.
</event>
<event>
 4    1  0.7643770E-002  0.6000000E+02  0.7546771E-02  0.1259629E+00
         11   -1    0    0    0    0  0.00000000000E+00  0.00000000000E+00  0.30000000000E+02  0.30000000000E+02  0.00000000000E+00 0.  1.
        -11   -1    0    0    0    0 -0.00000000000E+00 -0.00000000000E+00 -0.30000000000E+02  0.30000000000E+02  0.00000000000E+00 0. -1.
          5    1    1    2  501    0 -0.12277430121E+00 -0.29510070842E+02 -0.26553051324E+01  0.30000000000E+02  0.47000000000E+01 0. -1.
         -5    1    1    2    0  501  0.12277430121E+00  0.29510070842E+02  0.26553051324E+01  0.30000000000E+02  0.47000000000E+01 0.  1.
</event>
<event>
 4    1  0.7643770E-002  0.6000000E+02  0.7546771E-02  0.1259629E+00
         11   -1    0    0    0    0  0.00000000000E+00  0.00000000000E+00  0.30000000000E+02  0.30000000000E+02  0.00000000000E+00 0.  1.
        -11   -1    0    0    0    0 -0.00000000000E+00 -0.00000000000E+00 -0.30000000000E+02  0.30000000000E+02  0.00000000000E+00 0. -1.
          5    1    1    2  501    0 -0.26010449639E+02 -0.14185313066E+02 -0.37868561166E+00  0.30000000000E+02  0.47000000000E+01 0. -1.
         -5    1    1    2    0  501  0.26010449639E+02  0.14185313066E+02  0.37868561166E+00  0.30000000000E+02  0.47000000000E+01 0.  1.
</event>
<event>
 4    1  0.7643770E-002  0.6000000E+02  0.7546771E-02  0.1259629E+00
         11   -1    0    0    0    0  0.00000000000E+00  0.00000000000E+00  0.30000000000E+02  0.30000000000E+02  0.00000000000E+00 0.  1.
        -11   -1    0    0    0    0 -0.00000000000E+00 -0.00000000000E+00 -0.30000000000E+02  0.30000000000E+02  0.00000000000E+00 0. -1.
          5    1    1    2  501    0  0.24143006975E+02  0.74232430425E+01 -0.15489373033E+02  0.30000000000E+02  0.47000000000E+01 0. -1.
         -5    1    1    2    0  501 -0.24143006975E+02 -0.74232430425E+01  0.15489373033E+02  0.30000000000E+02  0.47000000000E+01 0.  1.
</event>
<event>
 4    1  0.7643770E-002  0.6000000E+02  0.7546771E-02  0.1259629E+00
         11   -1    0    0    0    0  0.00000000000E+00  0.00000000000E+00  0.30000000000E+02  0.30000000000E+02  0.00000000000E+00 0.  1.
        -11   -1    0    0    0    0 -0.00000000000E+00 -0.00000000000E+00 -0.30000000000E+02  0.30000000000E+02  0.00000000000E+00 0. -1.
          5    1    1    2  501    0 -0.20947096914E+02  0.14473966192E+02 -0.15153660731E+02  0.30000000000E+02  0.47000000000E+01 0. -1.
         -5    1    1    2    0  501  0.20947096914E+02 -0.14473966192E+02  0.15153660731E+02  0.30000000000E+02  0.47000000000E+01 0.  1.
</event>
<event>
 4    1  0.7643770E-002  0.6000000E+02  0.7546771E-02  0.1259629E+00
         11   -1    0    0    0    0  0.00000000000E+00  0.00000000000E+00  0.30000000000E+02  0.30000000000E+02  0.00000000000E+00 0. -1.
        -11   -1    0    0    0    0 -0.00000000000E+00 -0.00000000000E+00 -0.30000000000E+02  0.30000000000E+02  0.00000000000E+00 0.  1.
          5    1    1    2  501    0  0.11811104384E+02  0.27077594856E+02 -0.22829082419E+01  0.30000000000E+02  0.47000000000E+01 0.  1.
         -5    1    1    2    0  501 -0.11811104384E+02 -0.27077594856E+02  0.22829082419E+01  0.30000000000E+02  0.47000000000E+01 0. -1.
</event>
<event>
 4    1  0.7643770E-002  0.6000000E+02  0.7546771E-02  0.1259629E+00
         11   -1    0    0    0    0  0.00000000000E+00  0.00000000000E+00  0.30000000000E+02  0.30000000000E+02  0.00000000000E+00 0.  1.
        -11   -1    0    0    0    0 -0.00000000000E+00 -0.00000000000E+00 -0.30000000000E+02  0.30000000000E+02  0.00000000000E+00 0. -1.
          5    1    1    2  501    0  0.28262012157E+02 -0.60158852382E+00  0.88773171682E+01  0.30000000000E+02  0.47000000000E+01 0.  1.
         -5    1    1    2    0  501 -0.28262012157E+02  0.60158852382E+00 -0.88773171682E+01  0.30000000000E+02  0.47000000000E+01 0. -1.
</event>
<event>
 4    1  0.7643770E-002  0.6000000E+02  0.7546771E-02  0.1259629E+00
         11   -1    0    0    0    0  0.00000000000E+00  0.00000000000E+00  0.30000000000E+02  0.30000000000E+02  0.00000000000E+00 0.  1.
        -11   -1    0    0    0    0 -0.00000000000E+00 -0.00000000000E+00 -0.30000000000E+02  0.30000000000E+02  0.00000000000E+00 0. -1.
          5    1    1    2  501    0  0.23737177499E+02  0.15382084521E+02 -0.88231445725E+01  0.30000000000E+02  0.47000000000E+01 0. -1.
         -5    1    1    2    0  501 -0.23737177499E+02 -0.15382084521E+02  0.88231445725E+01  0.30000000000E+02  0.47000000000E+01 0.  1.
</event>
<event>
 4    1  0.7643770E-002  0.6000000E+02  0.7546771E-02  0.1259629E+00
         11   -1    0    0    0    0  0.00000000000E+00  0.00000000000E+00  0.30000000000E+02  0.30000000000E+02  0.00000000000E+00 0.  1.
        -11   -1    0    0    0    0 -0.00000000000E+00 -0.00000000000E+00 -0.30000000000E+02  0.30000000000E+02  0.00000000000E+00 0. -1.
          5    1    1    2  501    0 -0.14006985054E+02  0.23082683598E+02  0.12202626260E+02  0.30000000000E+02  0.47000000000E+01 0.  1.
         -5    1    1    2    0  501  0.14006985054E+02 -0.23082683598E+02 -0.12202626260E+02  0.30000000000E+02  0.47000000000E+01 0. -1.
</event>
<event>
 4    1  0.7643770E-002  0.6000000E+02  0.7546771E-02  0.1259629E+00
         11   -1    0    0    0    0  0.00000000000E+00  0.00000000000E+00  0.30000000000E+02  0.30000000000E+02  0.00000000000E+00 0.  1.
        -11   -1    0    0    0    0 -0.00000000000E+00 -0.00000000000E+00 -0.30000000000E+02  0.30000000000E+02  0.00000000000E+00 0. -1.
          5    1    1    2  501    0  0.19686479324E+02 -0.10624403844E+02 -0.19428704918E+02  0.30000000000E+02  0.47000000000E+01 0. -1.
         -5    1    1    2    0  501 -0.19686479324E+02  0.10624403844E+02  0.19428704918E+02  0.30000000000E+02  0.47000000000E+01 0.  1.
</event>
<event>
 4    1  0.7643770E-002  0.6000000E+02  0.7546771E-02  0.1259629E+00
         11   -1    0    0    0    0  0.00000000000E+00  0.00000000000E+00  0.30000000000E+02  0.30000000000E+02  0.00000000000E+00 0.  1.
        -11   -1    0    0    0    0 -0.00000000000E+00 -0.00000000000E+00 -0.30000000000E+02  0.30000000000E+02  0.00000000000E+00 0. -1.
          5    1    1    2  501    0 -0.18474953456E+02 -0.10920809180E+02 -0.20428461069E+02  0.30000000000E+02  0.47000000000E+01 0. -1.
         -5    1    1    2    0  501  0.18474953456E+02  0.10920809180E+02  0.20428461069E+02  0.30000000000E+02  0.47000000000E+01 0.  1.
</event>
<event>
 4    1  0.7643770E-002  0.6000000E+02  0.7546771E-02  0.1259629E+00
         11   -1    0    0    0    0  0.00000000000E+00  0.00000000000E+00  0.30000000000E+02  0.30000000000E+02  0.00000000000E+00 0. -1.
        -11   -1    0    0    0    0 -0.00000000000E+00 -0.00000000000E+00 -0.30000000000E+02  0.30000000000E+02  0.00000000000E+00 0.  1.
          5    1    1    2  501    0 -0.17314557788E+02 -0.10490268781E+02 -0.21634933545E+02  0.30000000000E+02  0.47000000000E+01 0.  1.
         -5    1    1    2    0  501  0.17314557788E+02  0.10490268781E+02  0.21634933545E+02  0.30000000000E+02  0.47000000000E+01 0. -1.
</event>
<event>
 4    1  0.7643770E-002  0.6000000E+02  0.7546771E-02  0.1259629E+00
         11   -1    0    0    0    0  0.00000000000E+00  0.00000000000E+00  0.30000000000E+02  0.30000000000E+02  0.00000000000E+00 0.  1.
        -11   -1    0    0    0    0 -0.00000000000E+00 -0.00000000000E+00 -0.30000000000E+02  0.30000000000E+02  0.00000000000E+00 0. -1.
          5    1    1    2  501    0  0.21326782591E+01 -0.12674394185E+02 -0.26696842800E+02  0.30000000000E+02  0.47000000000E+01 0. -1.
         -5    1    1    2    0  501 -0.21326782591E+01  0.12674394185E+02  0.26696842800E+02  0.30000000000E+02  0.47000000000E+01 0.  1.
</event>
<event>
 4    1  0.7643770E-002  0.6000000E+02  0.7546771E-02  0.1259629E+00
         11   -1    0    0    0    0  0.00000000000E+00  0.00000000000E+00  0.30000000000E+02  0.30000000000E+02  0.00000000000E+00 0.  1.
        -11   -1    0    0    0    0 -0.00000000000E+00 -0.00000000000E+00 -0.30000000000E+02  0.30000000000E+02  0.00000000000E+00 0. -1.
          5    1    1    2  501    0 -0.20502673177E+02  0.42346358949E+00  0.21386235554E+02  0.30000000000E+02  0.47000000000E+01 0. -1.
         -5    1    1    2    0  501  0.20502673177E+02 -0.42346358949E+00 -0.21386235554E+02  0.30000000000E+02  0.47000000000E+01 0.  1.
</event>
<event>
 4    1  0.7643770E-002  0.6000000E+02  0.7546771E-02  0.1259629E+00
         11   -1    0    0    0    0  0.00000000000E+00  0.00000000000E+00  0.30000000000E+02  0.30000000000E+02  0.00000000000E+00 0. -1.
        -11   -1    0    0    0    0 -0.00000000000E+00 -0.00000000000E+00 -0.30000000000E+02  0.30000000000E+02  0.00000000000E+00 0.  1.
          5    1    1    2  501    0 -0.70800952882E+01  0.33706652689E+01 -0.28573079399E+02  0.30000000000E+02  0.47000000000E+01 0.  1.
         -5    1    1    2    0  501  0.70800952882E+01 -0.33706652689E+01  0.28573079399E+02  0.30000000000E+02  0.47000000000E+01 0. -1.
</event>
<event>
 4    1  0.7643770E-002  0.6000000E+02  0.7546771E-02  0.1259629E+00
         11   -1    0    0    0    0  0.00000000000E+00  0.00000000000E+00  0.30000000000E+02  0.30000000000E+02  0.00000000000E+00 0.  1.
        -11   -1    0    0    0    0 -0.00000000000E+00 -0.00000000000E+00 -0.30000000000E+02  0.30000000000E+02  0.00000000000E+00 0. -1.
          5    1    1    2  501    0  0.22246694733E+02 -0.18782536635E+02 -0.54964434865E+01  0.30000000000E+02  0.47000000000E+01 0. -1.
         -5    1    1    2    0  501 -0.22246694733E+02  0.18782536635E+02  0.54964434865E+01  0.30000000000E+02  0.47000000000E+01 0.  1.
</event>
<event>
 4    1  0.7643770E-002  0.6000000E+02  0.7546771E-02  0.1259629E+00
         11   -1    0    0    0    0  0.00000000000E+00  0.00000000000E+00  0.30000000000E+02  0.30000000000E+02  0.00000000000E+00 0.  1.
        -11   -1    0    0    0    0 -0.00000000000E+00 -0.00000000000E+00 -0.30000000000E+02  0.30000000000E+02  0.00000000000E+00 0. -1.
          5    1    1    2  501    0  0.12140291408E+02  0.90117180659E+01 -0.25481606347E+02  0.30000000000E+02  0.47000000000E+01 0. -1.
         -5    1    1    2    0  501 -0.12140291408E+02 -0.90117180659E+01  0.25481606347E+02  0.30000000000E+02  0.47000000000E+01 0.  1.
</event>
<event>
 4    1  0.7643770E-002  0.6000000E+02  0.7546771E-02  0.1259629E+00
         11   -1    0    0    0    0  0.00000000000E+00  0.00000000000E+00  0.30000000000E+02  0.30000000000E+02  0.00000000000E+00 0.  1.
        -11   -1    0    0    0    0 -0.00000000000E+00 -0.00000000000E+00 -0.30000000000E+02  0.30000000000E+02  0.00000000000E+00 0. -1.
          5    1    1    2  501    0 -0.27912159595E+02  0.97154804897E+01 -0.21049431337E+01  0.30000000000E+02  0.47000000000E+01 0. -1.
         -5    1    1    2    0  501  0.27912159595E+02 -0.97154804897E+01  0.21049431337E+01  0.30000000000E+02  0.47000000000E+01 0.  1.
</event>
<event>
 4    1  0.7643770E-002  0.6000000E+02  0.7546771E-02  0.1259629E+00
         11   -1    0    0    0    0  0.00000000000E+00  0.00000000000E+00  0.30000000000E+02  0.30000000000E+02  0.00000000000E+00 0. -1.
        -11   -1    0    0    0    0 -0.00000000000E+00 -0.00000000000E+00 -0.30000000000E+02  0.30000000000E+02  0.00000000000E+00 0.  1.
          5    1    1    2  501    0  0.25745358560E+02  0.78978562886E+01  0.12357604082E+02  0.30000000000E+02  0.47000000000E+01 0. -1.
         -5    1    1    2    0  501 -0.25745358560E+02 -0.78978562886E+01 -0.12357604082E+02  0.30000000000E+02  0.47000000000E+01 0.  1.
</event>
<event>
 4    1  0.7643770E-002  0.6000000E+02  0.7546771E-02  0.1259629E+00
         11   -1    0    0    0    0  0.00000000000E+00  0.00000000000E+00  0.30000000000E+02  0.30000000000E+02  0.00000000000E+00 0.  1.
        -11   -1    0    0    0    0 -0.00000000000E+00 -0.00000000000E+00 -0.30000000000E+02  0.30000000000E+02  0.00000000000E+00 0. -1.
          5    1    1    2  501    0  0.40662276507E+01  0.19262081561E+02 -0.22143802894E+02  0.30000000000E+02  0.47000000000E+01 0. -1.
         -5    1    1    2    0  501 -0.40662276507E+01 -0.19262081561E+02  0.22143802894E+02  0.30000000000E+02  0.47000000000E+01 0.  1.
</event>
<event>
 4    1  0.7643770E-002  0.6000000E+02  0.7546771E-02  0.1259629E+00
         11   -1    0    0    0    0  0.00000000000E+00  0.00000000000E+00  0.30000000000E+02  0.30000000000E+02  0.00000000000E+00 0. -1.
        -11   -1    0    0    0    0 -0.00000000000E+00 -0.00000000000E+00 -0.30000000000E+02  0.30000000000E+02  0.00000000000E+00 0.  1.
          5    1    1    2  501    0  0.33734860584E+01 -0.16905910896E+02  0.24098127907E+02  0.30000000000E+02  0.47000000000E+01 0. -1.
         -5    1    1    2    0  501 -0.33734860584E+01  0.16905910896E+02 -0.24098127907E+02  0.30000000000E+02  0.47000000000E+01 0.  1.
</event>
<event>
 4    1  0.7643770E-002  0.6000000E+02  0.7546771E-02  0.1259629E+00
         11   -1    0    0    0    0  0.00000000000E+00  0.00000000000E+00  0.30000000000E+02  0.30000000000E+02  0.00000000000E+00 0. -1.
        -11   -1    0    0    0    0 -0.00000000000E+00 -0.00000000000E+00 -0.30000000000E+02  0.30000000000E+02  0.00000000000E+00 0.  1.
          5    1    1    2  501    0  0.10172925197E+02 -0.40840400630E+01 -0.27527117715E+02  0.30000000000E+02  0.47000000000E+01 0.  1.
         -5    1    1    2    0  501 -0.10172925197E+02  0.40840400630E+01  0.27527117715E+02  0.30000000000E+02  0.47000000000E+01 0. -1.
</event>
<event>
 4    1  0.7643770E-002  0.6000000E+02  0.7546771E-02  0.1259629E+00
         11   -1    0    0    0    0  0.00000000000E+00  0.00000000000E+00  0.30000000000E+02  0.30000000000E+02  0.00000000000E+00 0.  1.
        -11   -1    0    0    0    0 -0.00000000000E+00 -0.00000000000E+00 -0.30000000000E+02  0.30000000000E+02  0.00000000000E+00 0. -1.
          5    1    1    2  501    0 -0.11958813989E+02 -0.24177328173E+01 -0.27000950650E+02  0.30000000000E+02  0.47000000000E+01 0. -1.
         -5    1    1    2    0  501  0.11958813989E+02  0.24177328173E+01  0.27000950650E+02  0.30000000000E+02  0.47000000000E+01 0.  1.
</event>
<event>
 4    1  0.7643770E-002  0.6000000E+02  0.7546771E-02  0.1259629E+00
         11   -1    0    0    0    0  0.00000000000E+00  0.00000000000E+00  0.30000000000E+02  0.30000000000E+02  0.00000000000E+00 0.  1.
        -11   -1    0    0    0    0 -0.00000000000E+00 -0.00000000000E+00 -0.30000000000E+02  0.30000000000E+02  0.00000000000E+00 0. -1.
          5    1    1    2  501    0 -0.26685342729E+02 -0.12400238548E+02 -0.34693756502E+01  0.30000000000E+02  0.47000000000E+01 0. -1.
         -5    1    1    2    0  501  0.26685342729E+02  0.12400238548E+02  0.34693756502E+01  0.30000000000E+02  0.47000000000E+01 0.  1.
</event>
<event>
 4    1  0.7643770E-002  0.6000000E+02  0.7546771E-02  0.1259629E+00
         11   -1    0    0    0    0  0.00000000000E+00  0.00000000000E+00  0.30000000000E+02  0.30000000000E+02  0.00000000000E+00 0.  1.
        -11   -1    0    0    0    0 -0.00000000000E+00 -0.00000000000E+00 -0.30000000000E+02  0.30000000000E+02  0.00000000000E+00 0. -1.
          5    1    1    2  501    0 -0.26316489303E+02  0.74299008010E+01  0.11408284922E+02  0.30000000000E+02  0.47000000000E+01 0.  1.
         -5    1    1    2    0  501  0.26316489303E+02 -0.74299008010E+01 -0.11408284922E+02  0.30000000000E+02  0.47000000000E+01 0. -1.
</event>
<event>
 4    1  0.7643770E-002  0.6000000E+02  0.7546771E-02  0.1259629E+00
         11   -1    0    0    0    0  0.00000000000E+00  0.00000000000E+00  0.30000000000E+02  0.30000000000E+02  0.00000000000E+00 0. -1.
        -11   -1    0    0    0    0 -0.00000000000E+00 -0.00000000000E+00 -0.30000000000E+02  0.30000000000E+02  0.00000000000E+00 0.  1.
          5    1    1    2  501    0 -0.14524784136E+02  0.20241267007E+02 -0.16038446176E+02  0.30000000000E+02  0.47000000000E+01 0.  1.
         -5    1    1    2    0  501  0.14524784136E+02 -0.20241267007E+02  0.16038446176E+02  0.30000000000E+02  0.47000000000E+01 0. -1.
</event>
<event>
 4    1  0.7643770E-002  0.6000000E+02  0.7546771E-02  0.1259629E+00
         11   -1    0    0    0    0  0.00000000000E+00  0.00000000000E+00  0.30000000000E+02  0.30000000000E+02  0.00000000000E+00 0.  1.
        -11   -1    0    0    0    0 -0.00000000000E+00 -0.00000000000E+00 -0.30000000000E+02  0.30000000000E+02  0.00000000000E+00 0. -1.
          5    1    1    2  501    0 -0.22291662163E+02  0.16859653172E+02 -0.98358473419E+01  0.30000000000E+02  0.47000000000E+01 0. -1.
         -5    1    1    2    0  501  0.22291662163E+02 -0.16859653172E+02  0.98358473419E+01  0.30000000000E+02  0.47000000000E+01 0.  1.
</event>
<event>
 4    1  0.7643770E-002  0.6000000E+02  0.7546771E-02  0.1259629E+00
         11   -1    0    0    0    0  0.00000000000E+00  0.00000000000E+00  0.30000000000E+02  0.30000000000E+02  0.00000000000E+00 0. -1.
        -11   -1    0    0    0    0 -0.00000000000E+00 -0.00000000000E+00 -0.30000000000E+02  0.30000000000E+02  0.00000000000E+00 0.  1.
          5    1    1    2  501    0 -0.13703374170E+02 -0.16051788994E+02 -0.20795855511E+02  0.30000000000E+02  0.47000000000E+01 0.  1.
         -5    1    1    2    0  501  0.13703374170E+02  0.16051788994E+02  0.20795855511E+02  0.30000000000E+02  0.47000000000E+01 0. -1.
</event>
<event>
 4    1  0.7643770E-002  0.6000000E+02  0.7546771E-02  0.1259629E+00
         11   -1    0    0    0    0  0.00000000000E+00  0.00000000000E+00  0.30000000000E+02  0.30000000000E+02  0.00000000000E+00 0.  1.
        -11   -1    0    0    0    0 -0.00000000000E+00 -0.00000000000E+00 -0.30000000000E+02  0.30000000000E+02  0.00000000000E+00 0. -1.
          5    1    1    2  501    0  0.20161685448E+02 -0.11082770243E+02 -0.18670528746E+02  0.30000000000E+02  0.47000000000E+01 0. -1.
         -5    1    1    2    0  501 -0.20161685448E+02  0.11082770243E+02  0.18670528746E+02  0.30000000000E+02  0.47000000000E+01 0.  1.
</event>
<event>
 4    1  0.7643770E-002  0.6000000E+02  0.7546771E-02  0.1259629E+00
         11   -1    0    0    0    0  0.00000000000E+00  0.00000000000E+00  0.30000000000E+02  0.30000000000E+02  0.00000000000E+00 0. -1.
        -11   -1    0    0    0    0 -0.00000000000E+00 -0.00000000000E+00 -0.30000000000E+02  0.30000000000E+02  0.00000000000E+00 0.  1.
          5    1    1    2  501    0  0.22450421938E+02 -0.10754947411E+02 -0.16069214697E+02  0.30000000000E+02  0.47000000000E+01 0.  1.
         -5    1    1    2    0  501 -0.22450421938E+02  0.10754947411E+02  0.16069214697E+02  0.30000000000E+02  0.47000000000E+01 0. -1.
</event>
<event>
 4    1  0.7643770E-002  0.6000000E+02  0.7546771E-02  0.1259629E+00
         11   -1    0    0    0    0  0.00000000000E+00  0.00000000000E+00  0.30000000000E+02  0.30000000000E+02  0.00000000000E+00 0.  1.
        -11   -1    0    0    0    0 -0.00000000000E+00 -0.00000000000E+00 -0.30000000000E+02  0.30000000000E+02  0.00000000000E+00 0. -1.
          5    1    1    2  501    0 -0.60178659285E+01  0.61743796371E+01 -0.28347351301E+02  0.30000000000E+02  0.47000000000E+01 0. -1.
         -5    1    1    2    0  501  0.60178659285E+01 -0.61743796371E+01  0.28347351301E+02  0.30000000000E+02  0.47000000000E+01 0.  1.
</event>
<event>
 4    1  0.7643770E-002  0.6000000E+02  0.7546771E-02  0.1259629E+00
         11   -1    0    0    0    0  0.00000000000E+00  0.00000000000E+00  0.30000000000E+02  0.30000000000E+02  0.00000000000E+00 0. -1.
        -11   -1    0    0    0    0 -0.00000000000E+00 -0.00000000000E+00 -0.30000000000E+02  0.30000000000E+02  0.00000000000E+00 0.  1.
          5    1    1    2  501    0  0.66513202797E+01  0.23129719597E+02 -0.17282534823E+02  0.30000000000E+02  0.47000000000E+01 0.  1.
         -5    1    1    2    0  501 -0.66513202797E+01 -0.23129719597E+02  0.17282534823E+02  0.30000000000E+02  0.47000000000E+01 0. -1.
</event>
<event>
 4    1  0.7643770E-002  0.6000000E+02  0.7546771E-02  0.1259629E+00
         11   -1    0    0    0    0  0.00000000000E+00  0.00000000000E+00  0.30000000000E+02  0.30000000000E+02  0.00000000000E+00 0.  1.
        -11   -1    0    0    0    0 -0.00000000000E+00 -0.00000000000E+00 -0.30000000000E+02  0.30000000000E+02  0.00000000000E+00 0. -1.
          5    1    1    2  501    0 -0.12242372789E+02 -0.12396561144E+02 -0.23965800222E+02  0.30000000000E+02  0.47000000000E+01 0. -1.
         -5    1    1    2    0  501  0.12242372789E+02  0.12396561144E+02  0.23965800222E+02  0.30000000000E+02  0.47000000000E+01 0.  1.
</event>
<event>
 4    1  0.7643770E-002  0.6000000E+02  0.7546771E-02  0.1259629E+00
         11   -1    0    0    0    0  0.00000000000E+00  0.00000000000E+00  0.30000000000E+02  0.30000000000E+02  0.00000000000E+00 0.  1.
        -11   -1    0    0    0    0 -0.00000000000E+00 -0.00000000000E+00 -0.30000000000E+02  0.30000000000E+02  0.00000000000E+00 0. -1.
          5    1    1    2  501    0 -0.24192655572E+02  0.52018532016E+01  0.16296200160E+02  0.30000000000E+02  0.47000000000E+01 0. -1.
         -5    1    1    2    0  501  0.24192655572E+02 -0.52018532016E+01 -0.16296200160E+02  0.30000000000E+02  0.47000000000E+01 0.  1.
</event>
<event>
 4    1  0.7643770E-002  0.6000000E+02  0.7546771E-02  0.1259629E+00
         11   -1    0    0    0    0  0.00000000000E+00  0.00000000000E+00  0.30000000000E+02  0.30000000000E+02  0.00000000000E+00 0.  1.
        -11   -1    0    0    0    0 -0.00000000000E+00 -0.00000000000E+00 -0.30000000000E+02  0.30000000000E+02  0.00000000000E+00 0. -1.
          5    1    1    2  501    0 -0.78818003764E+01  0.19103705939E+02 -0.21232890576E+02  0.30000000000E+02  0.47000000000E+01 0. -1.
         -5    1    1    2    0  501  0.78818003764E+01 -0.19103705939E+02  0.21232890576E+02  0.30000000000E+02  0.47000000000E+01 0.  1.
</event>
<event>
 4    1  0.7643770E-002  0.6000000E+02  0.7546771E-02  0.1259629E+00
         11   -1    0    0    0    0  0.00000000000E+00  0.00000000000E+00  0.30000000000E+02  0.30000000000E+02  0.00000000000E+00 0. -1.
        -11   -1    0    0    0    0 -0.00000000000E+00 -0.00000000000E+00 -0.30000000000E+02  0.30000000000E+02  0.00000000000E+00 0.  1.
          5    1    1    2  501    0 -0.97173814064E+01 -0.15335583932E+02 -0.23415857107E+02  0.30000000000E+02  0.47000000000E+01 0.  1.
         -5    1    1    2    0  501  0.97173814064E+01  0.15335583932E+02  0.23415857107E+02  0.30000000000E+02  0.47000000000E+01 0. -1.
</event>
<event>
 4    1  0.7643770E-002  0.6000000E+02  0.7546771E-02  0.1259629E+00
         11   -1    0    0    0    0  0.00000000000E+00  0.00000000000E+00  0.30000000000E+02  0.30000000000E+02  0.00000000000E+00 0.  1.
        -11   -1    0    0    0    0 -0.00000000000E+00 -0.00000000000E+00 -0.30000000000E+02  0.30000000000E+02  0.00000000000E+00 0. -1.
          5    1    1    2  501    0 -0.19591779127E+02  0.90901256955E+01 -0.20284028335E+02  0.30000000000E+02  0.47000000000E+01 0. -1.
         -5    1    1    2    0  501  0.19591779127E+02 -0.90901256955E+01  0.20284028335E+02  0.30000000000E+02  0.47000000000E+01 0.  1.
</event>
<event>
 4    1  0.7643770E-002  0.6000000E+02  0.7546771E-02  0.1259629E+00
         11   -1    0    0    0    0  0.00000000000E+00  0.00000000000E+00  0.30000000000E+02  0.30000000000E+02  0.00000000000E+00 0.  1.
        -11   -1    0    0    0    0 -0.00000000000E+00 -0.00000000000E+00 -0.30000000000E+02  0.30000000000E+02  0.00000000000E+00 0. -1.
          5    1    1    2  501    0 -0.76319385827E+01  0.25251843213E+01 -0.28518186436E+02  0.30000000000E+02  0.47000000000E+01 0. -1.
         -5    1    1    2    0  501  0.76319385827E+01 -0.25251843213E+01  0.28518186436E+02  0.30000000000E+02  0.47000000000E+01 0.  1.
</event>
<event>
 4    1  0.7643770E-002  0.6000000E+02  0.7546771E-02  0.1259629E+00
         11   -1    0    0    0    0  0.00000000000E+00  0.00000000000E+00  0.30000000000E+02  0.30000000000E+02  0.00000000000E+00 0.  1.
        -11   -1    0    0    0    0 -0.00000000000E+00 -0.00000000000E+00 -0.30000000000E+02  0.30000000000E+02  0.00000000000E+00 0. -1.
          5    1    1    2  501    0 -0.51555971052E+01 -0.23392147077E+02  0.17439531920E+02  0.30000000000E+02  0.47000000000E+01 0. -1.
         -5    1    1    2    0  501  0.51555971052E+01  0.23392147077E+02 -0.17439531920E+02  0.30000000000E+02  0.47000000000E+01 0.  1.
</event>
<event>
 4    1  0.7643770E-002  0.6000000E+02  0.7546771E-02  0.1259629E+00
         11   -1    0    0    0    0  0.00000000000E+00  0.00000000000E+00  0.30000000000E+02  0.30000000000E+02  0.00000000000E+00 0.  1.
        -11   -1    0    0    0    0 -0.00000000000E+00 -0.00000000000E+00 -0.30000000000E+02  0.30000000000E+02  0.00000000000E+00 0. -1.
          5    1    1    2  501    0 -0.11785786004E+02  0.26912183826E+01  0.27051110733E+02  0.30000000000E+02  0.47000000000E+01 0.  1.
         -5    1    1    2    0  501  0.11785786004E+02 -0.26912183826E+01 -0.27051110733E+02  0.30000000000E+02  0.47000000000E+01 0. -1.
</event>
<event>
 4    1  0.7643770E-002  0.6000000E+02  0.7546771E-02  0.1259629E+00
         11   -1    0    0    0    0  0.00000000000E+00  0.00000000000E+00  0.30000000000E+02  0.30000000000E+02  0.00000000000E+00 0.  1.
        -11   -1    0    0    0    0 -0.00000000000E+00 -0.00000000000E+00 -0.30000000000E+02  0.30000000000E+02  0.00000000000E+00 0. -1.
          5    1    1    2  501    0  0.13251078912E+01 -0.10299194885E+02 -0.27750327454E+02  0.30000000000E+02  0.47000000000E+01 0. -1.
         -5    1    1    2    0  501 -0.13251078912E+01  0.10299194885E+02  0.27750327454E+02  0.30000000000E+02  0.47000000000E+01 0.  1.
</event>
<event>
 4    1  0.7643770E-002  0.6000000E+02  0.7546771E-02  0.1259629E+00
         11   -1    0    0    0    0  0.00000000000E+00  0.00000000000E+00  0.30000000000E+02  0.30000000000E+02  0.00000000000E+00 0.  1.
        -11   -1    0    0    0    0 -0.00000000000E+00 -0.00000000000E+00 -0.30000000000E+02  0.30000000000E+02  0.00000000000E+00 0. -1.
          5    1    1    2  501    0  0.34280612892E+00  0.14007744005E+02 -0.26107002736E+02  0.30000000000E+02  0.47000000000E+01 0. -1.
         -5    1    1    2    0  501 -0.34280612892E+00 -0.14007744005E+02  0.26107002736E+02  0.30000000000E+02  0.47000000000E+01 0.  1.
</event>
<event>
 4    1  0.7643770E-002  0.6000000E+02  0.7546771E-02  0.1259629E+00
         11   -1    0    0    0    0  0.00000000000E+00  0.00000000000E+00  0.30000000000E+02  0.30000000000E+02  0.00000000000E+00 0.  1.
        -11   -1    0    0    0    0 -0.00000000000E+00 -0.00000000000E+00 -0.30000000000E+02  0.30000000000E+02  0.00000000000E+00 0. -1.
          5    1    1    2  501    0 -0.51173343050E+01 -0.24997790004E+02  0.15060988830E+02  0.30000000000E+02  0.47000000000E+01 0.  1.
         -5    1    1    2    0  501  0.51173343050E+01  0.24997790004E+02 -0.15060988830E+02  0.30000000000E+02  0.47000000000E+01 0. -1.
</event>
<event>
 4    1  0.7643770E-002  0.6000000E+02  0.7546771E-02  0.1259629E+00
         11   -1    0    0    0    0  0.00000000000E+00  0.00000000000E+00  0.30000000000E+02  0.30000000000E+02  0.00000000000E+00 0. -1.
        -11   -1    0    0    0    0 -0.00000000000E+00 -0.00000000000E+00 -0.30000000000E+02  0.30000000000E+02  0.00000000000E+00 0.  1.
          5    1    1    2  501    0 -0.18040720397E+02 -0.21398619674E+02 -0.97232445003E+01  0.30000000000E+02  0.47000000000E+01 0.  1.
         -5    1    1    2    0  501  0.18040720397E+02  0.21398619674E+02  0.97232445003E+01  0.30000000000E+02  0.47000000000E+01 0. -1.
</event>
<event>
 4    1  0.7643770E-002  0.6000000E+02  0.7546771E-02  0.1259629E+00
         11   -1    0    0    0    0  0.00000000000E+00  0.00000000000E+00  0.30000000000E+02  0.30000000000E+02  0.00000000000E+00 0.  1.
        -11   -1    0    0    0    0 -0.00000000000E+00 -0.00000000000E+00 -0.30000000000E+02  0.30000000000E+02  0.00000000000E+00 0. -1.
          5    1    1    2  501    0 -0.25820939566E+02  0.74145098672E+01 -0.12498564853E+02  0.30000000000E+02  0.47000000000E+01 0. -1.
         -5    1    1    2    0  501  0.25820939566E+02 -0.74145098672E+01  0.12498564853E+02  0.30000000000E+02  0.47000000000E+01 0.  1.
</event>
<event>
 4    1  0.7643770E-002  0.6000000E+02  0.7546771E-02  0.1259629E+00
         11   -1    0    0    0    0  0.00000000000E+00  0.00000000000E+00  0.30000000000E+02  0.30000000000E+02  0.00000000000E+00 0.  1.
        -11   -1    0    0    0    0 -0.00000000000E+00 -0.00000000000E+00 -0.30000000000E+02  0.30000000000E+02  0.00000000000E+00 0. -1.
          5    1    1    2  501    0  0.80756237868E+01 -0.23914041118E+02 -0.15518148662E+02  0.30000000000E+02  0.47000000000E+01 0. -1.
         -5    1    1    2    0  501 -0.80756237868E+01  0.23914041118E+02  0.15518148662E+02  0.30000000000E+02  0.47000000000E+01 0.  1.
</event>
<event>
 4    1  0.7643770E-002  0.6000000E+02  0.7546771E-02  0.1259629E+00
         11   -1    0    0    0    0  0.00000000000E+00  0.00000000000E+00  0.30000000000E+02  0.30000000000E+02  0.00000000000E+00 0. -1.
        -11   -1    0    0    0    0 -0.00000000000E+00 -0.00000000000E+00 -0.30000000000E+02  0.30000000000E+02  0.00000000000E+00 0.  1.
          5    1    1    2  501    0 -0.16909411613E+02 -0.21883177930E+02 -0.10635239658E+02  0.30000000000E+02  0.47000000000E+01 0.  1.
         -5    1    1    2    0  501  0.16909411613E+02  0.21883177930E+02  0.10635239658E+02  0.30000000000E+02  0.47000000000E+01 0. -1.
</event>
<event>
 4    1  0.7643770E-002  0.6000000E+02  0.7546771E-02  0.1259629E+00
         11   -1    0    0    0    0  0.00000000000E+00  0.00000000000E+00  0.30000000000E+02  0.30000000000E+02  0.00000000000E+00 0.  1.
        -11   -1    0    0    0    0 -0.00000000000E+00 -0.00000000000E+00 -0.30000000000E+02  0.30000000000E+02  0.00000000000E+00 0. -1.
          5    1    1    2  501    0  0.11262782982E+02 -0.16277049459E+02 -0.22048069767E+02  0.30000000000E+02  0.47000000000E+01 0. -1.
         -5    1    1    2    0  501 -0.11262782982E+02  0.16277049459E+02  0.22048069767E+02  0.30000000000E+02  0.47000000000E+01 0.  1.
</event>
<event>
 4    1  0.7643770E-002  0.6000000E+02  0.7546771E-02  0.1259629E+00
         11   -1    0    0    0    0  0.00000000000E+00  0.00000000000E+00  0.30000000000E+02  0.30000000000E+02  0.00000000000E+00 0.  1.
        -11   -1    0    0    0    0 -0.00000000000E+00 -0.00000000000E+00 -0.30000000000E+02  0.30000000000E+02  0.00000000000E+00 0. -1.
          5    1    1    2  501    0 -0.19664223640E+01 -0.11986638200E+02 -0.27025241678E+02  0.30000000000E+02  0.47000000000E+01 0. -1.
         -5    1    1    2    0  501  0.19664223640E+01  0.11986638200E+02  0.27025241678E+02  0.30000000000E+02  0.47000000000E+01 0.  1.
</event>
<event>
 4    1  0.7643770E-002  0.6000000E+02  0.7546771E-02  0.1259629E+00
         11   -1    0    0    0    0  0.00000000000E+00  0.00000000000E+00  0.30000000000E+02  0.30000000000E+02  0.00000000000E+00 0.  1.
        -11   -1    0    0    0    0 -0.00000000000E+00 -0.00000000000E+00 -0.30000000000E+02  0.30000000000E+02  0.00000000000E+00 0. -1.
          5    1    1    2  501    0 -0.20132207563E+01 -0.19421188030E+02 -0.22286192984E+02  0.30000000000E+02  0.47000000000E+01 0. -1.
         -5    1    1    2    0  501  0.20132207563E+01  0.19421188030E+02  0.22286192984E+02  0.30000000000E+02  0.47000000000E+01 0.  1.
</event>
<event>
 4    1  0.7643770E-002  0.6000000E+02  0.7546771E-02  0.1259629E+00
         11   -1    0    0    0    0  0.00000000000E+00  0.00000000000E+00  0.30000000000E+02  0.30000000000E+02  0.00000000000E+00 0.  1.
        -11   -1    0    0    0    0 -0.00000000000E+00 -0.00000000000E+00 -0.30000000000E+02  0.30000000000E+02  0.00000000000E+00 0. -1.
          5    1    1    2  501    0 -0.30891049410E+01 -0.24811667146E+02 -0.15898069195E+02  0.30000000000E+02  0.47000000000E+01 0. -1.
         -5    1    1    2    0  501  0.30891049410E+01  0.24811667146E+02  0.15898069195E+02  0.30000000000E+02  0.47000000000E+01 0.  1.
</event>
<event>
 4    1  0.7643770E-002  0.6000000E+02  0.7546771E-02  0.1259629E+00
         11   -1    0    0    0    0  0.00000000000E+00  0.00000000000E+00  0.30000000000E+02  0.30000000000E+02  0.00000000000E+00 0.  1.
        -11   -1    0    0    0    0 -0.00000000000E+00 -0.00000000000E+00 -0.30000000000E+02  0.30000000000E+02  0.00000000000E+00 0. -1.
          5    1    1    2  501    0 -0.16941366679E+02 -0.10805199983E+01 -0.24284410052E+02  0.30000000000E+02  0.47000000000E+01 0. -1.
         -5    1    1    2    0  501  0.16941366679E+02  0.10805199983E+01  0.24284410052E+02  0.30000000000E+02  0.47000000000E+01 0.  1.
</event>
<event>
 4    1  0.7643770E-002  0.6000000E+02  0.7546771E-02  0.1259629E+00
         11   -1    0    0    0    0  0.00000000000E+00  0.00000000000E+00  0.30000000000E+02  0.30000000000E+02  0.00000000000E+00 0. -1.
        -11   -1    0    0    0    0 -0.00000000000E+00 -0.00000000000E+00 -0.30000000000E+02  0.30000000000E+02  0.00000000000E+00 0.  1.
          5    1    1    2  501    0  0.25501257731E+01  0.27969782199E+02 -0.94391812291E+01  0.30000000000E+02  0.47000000000E+01 0.  1.
         -5    1    1    2    0  501 -0.25501257731E+01 -0.27969782199E+02  0.94391812291E+01  0.30000000000E+02  0.47000000000E+01 0. -1.
</event>
<event>
 4    1  0.7643770E-002  0.6000000E+02  0.7546771E-02  0.1259629E+00
         11   -1    0    0    0    0  0.00000000000E+00  0.00000000000E+00  0.30000000000E+02  0.30000000000E+02  0.00000000000E+00 0. -1.
        -11   -1    0    0    0    0 -0.00000000000E+00 -0.00000000000E+00 -0.30000000000E+02  0.30000000000E+02  0.00000000000E+00 0.  1.
          5    1    1    2  501    0  0.19487346234E+02  0.19739805825E+01 -0.22231885602E+02  0.30000000000E+02  0.47000000000E+01 0.  1.
         -5    1    1    2    0  501 -0.19487346234E+02 -0.19739805825E+01  0.22231885602E+02  0.30000000000E+02  0.47000000000E+01 0. -1.
</event>
<event>
 4    1  0.7643770E-002  0.6000000E+02  0.7546771E-02  0.1259629E+00
         11   -1    0    0    0    0  0.00000000000E+00  0.00000000000E+00  0.30000000000E+02  0.30000000000E+02  0.00000000000E+00 0. -1.
        -11   -1    0    0    0    0 -0.00000000000E+00 -0.00000000000E+00 -0.30000000000E+02  0.30000000000E+02  0.00000000000E+00 0.  1.
          5    1    1    2  501    0  0.56102367679E+01  0.15447182699E+02 -0.24654001502E+02  0.30000000000E+02  0.47000000000E+01 0.  1.
         -5    1    1    2    0  501 -0.56102367679E+01 -0.15447182699E+02  0.24654001502E+02  0.30000000000E+02  0.47000000000E+01 0. -1.
</event>
<event>
 4    1  0.7643770E-002  0.6000000E+02  0.7546771E-02  0.1259629E+00
         11   -1    0    0    0    0  0.00000000000E+00  0.00000000000E+00  0.30000000000E+02  0.30000000000E+02  0.00000000000E+00 0.  1.
        -11   -1    0    0    0    0 -0.00000000000E+00 -0.00000000000E+00 -0.30000000000E+02  0.30000000000E+02  0.00000000000E+00 0. -1.
          5    1    1    2  501    0 -0.23669914094E+02 -0.13847298487E+02  0.11220405136E+02  0.30000000000E+02  0.47000000000E+01 0.  1.
         -5    1    1    2    0  501  0.23669914094E+02  0.13847298487E+02 -0.11220405136E+02  0.30000000000E+02  0.47000000000E+01 0. -1.
</event>
<event>
 4    1  0.7643770E-002  0.6000000E+02  0.7546771E-02  0.1259629E+00
         11   -1    0    0    0    0  0.00000000000E+00  0.00000000000E+00  0.30000000000E+02  0.30000000000E+02  0.00000000000E+00 0.  1.
        -11   -1    0    0    0    0 -0.00000000000E+00 -0.00000000000E+00 -0.30000000000E+02  0.30000000000E+02  0.00000000000E+00 0. -1.
          5    1    1    2  501    0  0.15804802743E+02 -0.16158603266E+02 -0.19157707346E+02  0.30000000000E+02  0.47000000000E+01 0. -1.
         -5    1    1    2    0  501 -0.15804802743E+02  0.16158603266E+02  0.19157707346E+02  0.30000000000E+02  0.47000000000E+01 0.  1.
</event>
<event>
 4    1  0.7643770E-002  0.6000000E+02  0.7546771E-02  0.1259629E+00
         11   -1    0    0    0    0  0.00000000000E+00  0.00000000000E+00  0.30000000000E+02  0.30000000000E+02  0.00000000000E+00 0. -1.
        -11   -1    0    0    0    0 -0.00000000000E+00 -0.00000000000E+00 -0.30000000000E+02  0.30000000000E+02  0.00000000000E+00 0.  1.
          5    1    1    2  501    0 -0.94036830141E+01 -0.63867402848E+01 -0.27362205582E+02  0.30000000000E+02  0.47000000000E+01 0.  1.
         -5    1    1    2    0  501  0.94036830141E+01  0.63867402848E+01  0.27362205582E+02  0.30000000000E+02  0.47000000000E+01 0. -1.
</event>
<event>
 4    1  0.7643770E-002  0.6000000E+02  0.7546771E-02  0.1259629E+00
         11   -1    0    0    0    0  0.00000000000E+00  0.00000000000E+00  0.30000000000E+02  0.30000000000E+02  0.00000000000E+00 0.  1.
        -11   -1    0    0    0    0 -0.00000000000E+00 -0.00000000000E+00 -0.30000000000E+02  0.30000000000E+02  0.00000000000E+00 0. -1.
          5    1    1    2  501    0  0.38302038542E+01 -0.23821827751E+02  0.17197676036E+02  0.30000000000E+02  0.47000000000E+01 0. -1.
         -5    1    1    2    0  501 -0.38302038542E+01  0.23821827751E+02 -0.17197676036E+02  0.30000000000E+02  0.47000000000E+01 0.  1.
</event>
<event>
 4    1  0.7643770E-002  0.6000000E+02  0.7546771E-02  0.1259629E+00
         11   -1    0    0    0    0  0.00000000000E+00  0.00000000000E+00  0.30000000000E+02  0.30000000000E+02  0.00000000000E+00 0.  1.
        -11   -1    0    0    0    0 -0.00000000000E+00 -0.00000000000E+00 -0.30000000000E+02  0.30000000000E+02  0.00000000000E+00 0. -1.
          5    1    1    2  501    0 -0.52655809621E+01  0.84496002746E+00 -0.29145663480E+02  0.30000000000E+02  0.47000000000E+01 0. -1.
         -5    1    1    2    0  501  0.52655809621E+01 -0.84496002746E+00  0.29145663480E+02  0.30000000000E+02  0.47000000000E+01 0.  1.
</event>
<event>
 4    1  0.7643770E-002  0.6000000E+02  0.7546771E-02  0.1259629E+00
         11   -1    0    0    0    0  0.00000000000E+00  0.00000000000E+00  0.30000000000E+02  0.30000000000E+02  0.00000000000E+00 0.  1.
        -11   -1    0    0    0    0 -0.00000000000E+00 -0.00000000000E+00 -0.30000000000E+02  0.30000000000E+02  0.00000000000E+00 0. -1.
          5    1    1    2  501    0 -0.20378497553E+02  0.17559595732E+02 -0.12421249342E+02  0.30000000000E+02  0.47000000000E+01 0. -1.
         -5    1    1    2    0  501  0.20378497553E+02 -0.17559595732E+02  0.12421249342E+02  0.30000000000E+02  0.47000000000E+01 0.  1.
</event>
<event>
 4    1  0.7643770E-002  0.6000000E+02  0.7546771E-02  0.1259629E+00
         11   -1    0    0    0    0  0.00000000000E+00  0.00000000000E+00  0.30000000000E+02  0.30000000000E+02  0.00000000000E+00 0.  1.
        -11   -1    0    0    0    0 -0.00000000000E+00 -0.00000000000E+00 -0.30000000000E+02  0.30000000000E+02  0.00000000000E+00 0. -1.
          5    1    1    2  501    0  0.96908060044E+01 -0.26718108963E+02  0.83750183537E+01  0.30000000000E+02  0.47000000000E+01 0. -1.
         -5    1    1    2    0  501 -0.96908060044E+01  0.26718108963E+02 -0.83750183537E+01  0.30000000000E+02  0.47000000000E+01 0.  1.
</event>
<event>
 4    1  0.7643770E-002  0.6000000E+02  0.7546771E-02  0.1259629E+00
         11   -1    0    0    0    0  0.00000000000E+00  0.00000000000E+00  0.30000000000E+02  0.30000000000E+02  0.00000000000E+00 0.  1.
        -11   -1    0    0    0    0 -0.00000000000E+00 -0.00000000000E+00 -0.30000000000E+02  0.30000000000E+02  0.00000000000E+00 0. -1.
          5    1    1    2  501    0 -0.85785481786E+00  0.15744886181E+02 -0.25085307339E+02  0.30000000000E+02  0.47000000000E+01 0. -1.
         -5    1    1    2    0  501  0.85785481786E+00 -0.15744886181E+02  0.25085307339E+02  0.30000000000E+02  0.47000000000E+01 0.  1.
</event>
<event>
 4    1  0.7643770E-002  0.6000000E+02  0.7546771E-02  0.1259629E+00
         11   -1    0    0    0    0  0.00000000000E+00  0.00000000000E+00  0.30000000000E+02  0.30000000000E+02  0.00000000000E+00 0.  1.
        -11   -1    0    0    0    0 -0.00000000000E+00 -0.00000000000E+00 -0.30000000000E+02  0.30000000000E+02  0.00000000000E+00 0. -1.
          5    1    1    2  501    0  0.57214062392E+00 -0.20180632414E+02 -0.21686971445E+02  0.30000000000E+02  0.47000000000E+01 0. -1.
         -5    1    1    2    0  501 -0.57214062392E+00  0.20180632414E+02  0.21686971445E+02  0.30000000000E+02  0.47000000000E+01 0.  1.
</event>
<event>
 4    1  0.7643770E-002  0.6000000E+02  0.7546771E-02  0.1259629E+00
         11   -1    0    0    0    0  0.00000000000E+00  0.00000000000E+00  0.30000000000E+02  0.30000000000E+02  0.00000000000E+00 0.  1.
        -11   -1    0    0    0    0 -0.00000000000E+00 -0.00000000000E+00 -0.30000000000E+02  0.30000000000E+02  0.00000000000E+00 0. -1.
          5    1    1    2  501    0 -0.17628838494E+02 -0.40699461912E+01 -0.23464219385E+02  0.30000000000E+02  0.47000000000E+01 0. -1.
         -5    1    1    2    0  501  0.17628838494E+02  0.40699461912E+01  0.23464219385E+02  0.30000000000E+02  0.47000000000E+01 0.  1.
</event>
<event>
 4    1  0.7643770E-002  0.6000000E+02  0.7546771E-02  0.1259629E+00
         11   -1    0    0    0    0  0.00000000000E+00  0.00000000000E+00  0.30000000000E+02  0.30000000000E+02  0.00000000000E+00 0.  1.
        -11   -1    0    0    0    0 -0.00000000000E+00 -0.00000000000E+00 -0.30000000000E+02  0.30000000000E+02  0.00000000000E+00 0. -1.
          5    1    1    2  501    0 -0.25188379101E+02  0.10156078199E+02 -0.11845236759E+02  0.30000000000E+02  0.47000000000E+01 0. -1.
         -5    1    1    2    0  501  0.25188379101E+02 -0.10156078199E+02  0.11845236759E+02  0.30000000000E+02  0.47000000000E+01 0.  1.
</event>
<event>
 4    1  0.7643770E-002  0.6000000E+02  0.7546771E-02  0.1259629E+00
         11   -1    0    0    0    0  0.00000000000E+00  0.00000000000E+00  0.30000000000E+02  0.30000000000E+02  0.00000000000E+00 0. -1.
        -11   -1    0    0    0    0 -0.00000000000E+00 -0.00000000000E+00 -0.30000000000E+02  0.30000000000E+02  0.00000000000E+00 0.  1.
          5    1    1    2  501    0  0.29288991444E+02 -0.34990894690E+01  0.27966682094E+01  0.30000000000E+02  0.47000000000E+01 0.  1.
         -5    1    1    2    0  501 -0.29288991444E+02  0.34990894690E+01 -0.27966682094E+01  0.30000000000E+02  0.47000000000E+01 0. -1.
</event>
<event>
 4    1  0.7643770E-002  0.6000000E+02  0.7546771E-02  0.1259629E+00
         11   -1    0    0    0    0  0.00000000000E+00  0.00000000000E+00  0.30000000000E+02  0.30000000000E+02  0.00000000000E+00 0. -1.
        -11   -1    0    0    0    0 -0.00000000000E+00 -0.00000000000E+00 -0.30000000000E+02  0.30000000000E+02  0.00000000000E+00 0.  1.
          5    1    1    2  501    0  0.39787644458E+01 -0.29284170391E+02 -0.21252759798E+01  0.30000000000E+02  0.47000000000E+01 0. -1.
         -5    1    1    2    0  501 -0.39787644458E+01  0.29284170391E+02  0.21252759798E+01  0.30000000000E+02  0.47000000000E+01 0.  1.
</event>
<event>
 4    1  0.7643770E-002  0.6000000E+02  0.7546771E-02  0.1259629E+00
         11   -1    0    0    0    0  0.00000000000E+00  0.00000000000E+00  0.30000000000E+02  0.30000000000E+02  0.00000000000E+00 0.  1.
        -11   -1    0    0    0    0 -0.00000000000E+00 -0.00000000000E+00 -0.30000000000E+02  0.30000000000E+02  0.00000000000E+00 0. -1.
          5    1    1    2  501    0  0.79759126064E+01  0.21073676771E+02 -0.19240451280E+02  0.30000000000E+02  0.47000000000E+01 0. -1.
         -5    1    1    2    0  501 -0.79759126064E+01 -0.21073676771E+02  0.19240451280E+02  0.30000000000E+02  0.47000000000E+01 0.  1.
</event>
<event>
 4    1  0.7643770E-002  0.6000000E+02  0.7546771E-02  0.1259629E+00
         11   -1    0    0    0    0  0.00000000000E+00  0.00000000000E+00  0.30000000000E+02  0.30000000000E+02  0.00000000000E+00 0. -1.
        -11   -1    0    0    0    0 -0.00000000000E+00 -0.00000000000E+00 -0.30000000000E+02  0.30000000000E+02  0.00000000000E+00 0.  1.
          5    1    1    2  501    0  0.93401533081E+01  0.54046558792E+01 -0.27594586987E+02  0.30000000000E+02  0.47000000000E+01 0.  1.
         -5    1    1    2    0  501 -0.93401533081E+01 -0.54046558792E+01  0.27594586987E+02  0.30000000000E+02  0.47000000000E+01 0. -1.
</event>
<event>
 4    1  0.7643770E-002  0.6000000E+02  0.7546771E-02  0.1259629E+00
         11   -1    0    0    0    0  0.00000000000E+00  0.00000000000E+00  0.30000000000E+02  0.30000000000E+02  0.00000000000E+00 0.  1.
        -11   -1    0    0    0    0 -0.00000000000E+00 -0.00000000000E+00 -0.30000000000E+02  0.30000000000E+02  0.00000000000E+00 0. -1.
          5    1    1    2  501    0 -0.98155304308E+01 -0.79028431589E-01 -0.27956378823E+02  0.30000000000E+02  0.47000000000E+01 0. -1.
         -5    1    1    2    0  501  0.98155304308E+01  0.79028431589E-01  0.27956378823E+02  0.30000000000E+02  0.47000000000E+01 0.  1.
</event>
<event>
 4    1  0.7643770E-002  0.6000000E+02  0.7546771E-02  0.1259629E+00
         11   -1    0    0    0    0  0.00000000000E+00  0.00000000000E+00  0.30000000000E+02  0.30000000000E+02  0.00000000000E+00 0.  1.
        -11   -1    0    0    0    0 -0.00000000000E+00 -0.00000000000E+00 -0.30000000000E+02  0.30000000000E+02  0.00000000000E+00 0. -1.
          5    1    1    2  501    0  0.31470817771E+01 -0.10670812727E+02 -0.27461602867E+02  0.30000000000E+02  0.47000000000E+01 0. -1.
         -5    1    1    2    0  501 -0.31470817771E+01  0.10670812727E+02  0.27461602867E+02  0.30000000000E+02  0.47000000000E+01 0.  1.
</event>
<event>
 4    1  0.7643770E-002  0.6000000E+02  0.7546771E-02  0.1259629E+00
         11   -1    0    0    0    0  0.00000000000E+00  0.00000000000E+00  0.30000000000E+02  0.30000000000E+02  0.00000000000E+00 0.  1.
        -11   -1    0    0    0    0 -0.00000000000E+00 -0.00000000000E+00 -0.30000000000E+02  0.30000000000E+02  0.00000000000E+00 0. -1.
          5    1    1    2  501    0  0.19637715909E+02 -0.25124886322E+01 -0.22044444079E+02  0.30000000000E+02  0.47000000000E+01 0. -1.
         -5    1    1    2    0  501 -0.19637715909E+02  0.25124886322E+01  0.22044444079E+02  0.30000000000E+02  0.47000000000E+01 0.  1.
</event>
<event>
 4    1  0.7643770E-002  0.6000000E+02  0.7546771E-02  0.1259629E+00
         11   -1    0    0    0    0  0.00000000000E+00  0.00000000000E+00  0.30000000000E+02  0.30000000000E+02  0.00000000000E+00 0.  1.
        -11   -1    0    0    0    0 -0.00000000000E+00 -0.00000000000E+00 -0.30000000000E+02  0.30000000000E+02  0.00000000000E+00 0. -1.
          5    1    1    2  501    0 -0.43689252017E+01  0.21118296814E+02 -0.20318465303E+02  0.30000000000E+02  0.47000000000E+01 0. -1.
         -5    1    1    2    0  501  0.43689252017E+01 -0.21118296814E+02  0.20318465303E+02  0.30000000000E+02  0.47000000000E+01 0.  1.
</event>
<event>
 4    1  0.7643770E-002  0.6000000E+02  0.7546771E-02  0.1259629E+00
         11   -1    0    0    0    0  0.00000000000E+00  0.00000000000E+00  0.30000000000E+02  0.30000000000E+02  0.00000000000E+00 0.  1.
        -11   -1    0    0    0    0 -0.00000000000E+00 -0.00000000000E+00 -0.30000000000E+02  0.30000000000E+02  0.00000000000E+00 0. -1.
          5    1    1    2  501    0  0.79748393404E+00 -0.13940602041E+02 -0.26132998950E+02  0.30000000000E+02  0.47000000000E+01 0. -1.
         -5    1    1    2    0  501 -0.79748393404E+00  0.13940602041E+02  0.26132998950E+02  0.30000000000E+02  0.47000000000E+01 0.  1.
</event>
<event>
 4    1  0.7643770E-002  0.6000000E+02  0.7546771E-02  0.1259629E+00
         11   -1    0    0    0    0  0.00000000000E+00  0.00000000000E+00  0.30000000000E+02  0.30000000000E+02  0.00000000000E+00 0. -1.
        -11   -1    0    0    0    0 -0.00000000000E+00 -0.00000000000E+00 -0.30000000000E+02  0.30000000000E+02  0.00000000000E+00 0.  1.
          5    1    1    2  501    0 -0.49874221624E+01 -0.28051923306E+02  0.81317414485E+01  0.30000000000E+02  0.47000000000E+01 0. -1.
         -5    1    1    2    0  501  0.49874221624E+01  0.28051923306E+02 -0.81317414485E+01  0.30000000000E+02  0.47000000000E+01 0.  1.
</event>
<event>
 4    1  0.7643770E-002  0.6000000E+02  0.7546771E-02  0.1259629E+00
         11   -1    0    0    0    0  0.00000000000E+00  0.00000000000E+00  0.30000000000E+02  0.30000000000E+02  0.00000000000E+00 0.  1.
        -11   -1    0    0    0    0 -0.00000000000E+00 -0.00000000000E+00 -0.30000000000E+02  0.30000000000E+02  0.00000000000E+00 0. -1.
          5    1    1    2  501    0 -0.15518440646E+01  0.72660486105E+00 -0.29579956480E+02  0.30000000000E+02  0.47000000000E+01 0. -1.
         -5    1    1    2    0  501  0.15518440646E+01 -0.72660486105E+00  0.29579956480E+02  0.30000000000E+02  0.47000000000E+01 0.  1.
</event>
<event>
 4    1  0.7643770E-002  0.6000000E+02  0.7546771E-02  0.1259629E+00
         11   -1    0    0    0    0  0.00000000000E+00  0.00000000000E+00  0.30000000000E+02  0.30000000000E+02  0.00000000000E+00 0.  1.
        -11   -1    0    0    0    0 -0.00000000000E+00 -0.00000000000E+00 -0.30000000000E+02  0.30000000000E+02  0.00000000000E+00 0. -1.
          5    1    1    2  501    0  0.25761202506E+02 -0.21305215497E+01 -0.14482103556E+02  0.30000000000E+02  0.47000000000E+01 0. -1.
         -5    1    1    2    0  501 -0.25761202506E+02  0.21305215497E+01  0.14482103556E+02  0.30000000000E+02  0.47000000000E+01 0.  1.
</event>
<event>
 4    1  0.7643770E-002  0.6000000E+02  0.7546771E-02  0.1259629E+00
         11   -1    0    0    0    0  0.00000000000E+00  0.00000000000E+00  0.30000000000E+02  0.30000000000E+02  0.00000000000E+00 0. -1.
        -11   -1    0    0    0    0 -0.00000000000E+00 -0.00000000000E+00 -0.30000000000E+02  0.30000000000E+02  0.00000000000E+00 0.  1.
          5    1    1    2  501    0  0.26580194748E+02  0.11243541802E+02 -0.67071614634E+01  0.30000000000E+02  0.47000000000E+01 0.  1.
         -5    1    1    2    0  501 -0.26580194748E+02 -0.11243541802E+02  0.67071614634E+01  0.30000000000E+02  0.47000000000E+01 0. -1.
</event>
<event>
 4    1  0.7643770E-002  0.6000000E+02  0.7546771E-02  0.1259629E+00
         11   -1    0    0    0    0  0.00000000000E+00  0.00000000000E+00  0.30000000000E+02  0.30000000000E+02  0.00000000000E+00 0.  1.
        -11   -1    0    0    0    0 -0.00000000000E+00 -0.00000000000E+00 -0.30000000000E+02  0.30000000000E+02  0.00000000000E+00 0. -1.
          5    1    1    2  501    0  0.11756289726E+02 -0.89367723994E+01 -0.25687229336E+02  0.30000000000E+02  0.47000000000E+01 0. -1.
         -5    1    1    2    0  501 -0.11756289726E+02  0.89367723994E+01  0.25687229336E+02  0.30000000000E+02  0.47000000000E+01 0.  1.
</event>
<event>
 4    1  0.7643770E-002  0.6000000E+02  0.7546771E-02  0.1259629E+00
         11   -1    0    0    0    0  0.00000000000E+00  0.00000000000E+00  0.30000000000E+02  0.30000000000E+02  0.00000000000E+00 0. -1.
        -11   -1    0    0    0    0 -0.00000000000E+00 -0.00000000000E+00 -0.30000000000E+02  0.30000000000E+02  0.00000000000E+00 0.  1.
          5    1    1    2  501    0 -0.18554766656E+02 -0.62205746664E+01 -0.22247136561E+02  0.30000000000E+02  0.47000000000E+01 0.  1.
         -5    1    1    2    0  501  0.18554766656E+02  0.62205746664E+01  0.22247136561E+02  0.30000000000E+02  0.47000000000E+01 0. -1.
</event>
<event>
 4    1  0.7643770E-002  0.6000000E+02  0.7546771E-02  0.1259629E+00
         11   -1    0    0    0    0  0.00000000000E+00  0.00000000000E+00  0.30000000000E+02  0.30000000000E+02  0.00000000000E+00 0. -1.
        -11   -1    0    0    0    0 -0.00000000000E+00 -0.00000000000E+00 -0.30000000000E+02  0.30000000000E+02  0.00000000000E+00 0.  1.
          5    1    1    2  501    0 -0.12731659040E+02  0.18929077135E+02 -0.18907799895E+02  0.30000000000E+02  0.47000000000E+01 0.  1.
         -5    1    1    2    0  501  0.12731659040E+02 -0.18929077135E+02  0.18907799895E+02  0.30000000000E+02  0.47000000000E+01 0. -1.
</event>
<event>
 4    1  0.7643770E-002  0.6000000E+02  0.7546771E-02  0.1259629E+00
         11   -1    0    0    0    0  0.00000000000E+00  0.00000000000E+00  0.30000000000E+02  0.30000000000E+02  0.00000000000E+00 0.  1.
        -11   -1    0    0    0    0 -0.00000000000E+00 -0.00000000000E+00 -0.30000000000E+02  0.30000000000E+02  0.00000000000E+00 0. -1.
          5    1    1    2  501    0  0.27791405691E+01  0.24157246936E+02 -0.16929672122E+02  0.30000000000E+02  0.47000000000E+01 0. -1.
         -5    1    1    2    0  501 -0.27791405691E+01 -0.24157246936E+02  0.16929672122E+02  0.30000000000E+02  0.47000000000E+01 0.  1.
</event>
<event>
 4    1  0.7643770E-002  0.6000000E+02  0.7546771E-02  0.1259629E+00
         11   -1    0    0    0    0  0.00000000000E+00  0.00000000000E+00  0.30000000000E+02  0.30000000000E+02  0.00000000000E+00 0.  1.
        -11   -1    0    0    0    0 -0.00000000000E+00 -0.00000000000E+00 -0.30000000000E+02  0.30000000000E+02  0.00000000000E+00 0. -1.
          5    1    1    2  501    0  0.16160711442E+02 -0.24135588638E+02  0.58493390044E+01  0.30000000000E+02  0.47000000000E+01 0. -1.
         -5    1    1    2    0  501 -0.16160711442E+02  0.24135588638E+02 -0.58493390044E+01  0.30000000000E+02  0.47000000000E+01 0.  1.
</event>
<event>
 4    1  0.7643770E-002  0.6000000E+02  0.7546771E-02  0.1259629E+00
         11   -1    0    0    0    0  0.00000000000E+00  0.00000000000E+00  0.30000000000E+02  0.30000000000E+02  0.00000000000E+00 0.  1.
        -11   -1    0    0    0    0 -0.00000000000E+00 -0.00000000000E+00 -0.30000000000E+02  0.30000000000E+02  0.00000000000E+00 0. -1.
          5    1    1    2  501    0  0.93430143379E+01  0.12164847303E+02 -0.25350238129E+02  0.30000000000E+02  0.47000000000E+01 0. -1.
         -5    1    1    2    0  501 -0.93430143379E+01 -0.12164847303E+02  0.25350238129E+02  0.30000000000E+02  0.47000000000E+01 0.  1.
</event>
<event>
 4    1  0.7643770E-002  0.6000000E+02  0.7546771E-02  0.1259629E+00
         11   -1    0    0    0    0  0.00000000000E+00  0.00000000000E+00  0.30000000000E+02  0.30000000000E+02  0.00000000000E+00 0. -1.
        -11   -1    0    0    0    0 -0.00000000000E+00 -0.00000000000E+00 -0.30000000000E+02  0.30000000000E+02  0.00000000000E+00 0.  1.
          5    1    1    2  501    0  0.59950227036E+01  0.18759104576E+02 -0.22137427544E+02  0.30000000000E+02  0.47000000000E+01 0.  1.
         -5    1    1    2    0  501 -0.59950227036E+01 -0.18759104576E+02  0.22137427544E+02  0.30000000000E+02  0.47000000000E+01 0. -1.
</event>
<event>
 4    1  0.7643770E-002  0.6000000E+02  0.7546771E-02  0.1259629E+00
         11   -1    0    0    0    0  0.00000000000E+00  0.00000000000E+00  0.30000000000E+02  0.30000000000E+02  0.00000000000E+00 0. -1.
        -11   -1    0    0    0    0 -0.00000000000E+00 -0.00000000000E+00 -0.30000000000E+02  0.30000000000E+02  0.00000000000E+00 0.  1.
          5    1    1    2  501    0  0.33387375535E+01 -0.15941317141E+02 -0.24751509840E+02  0.30000000000E+02  0.47000000000E+01 0.  1.
         -5    1    1    2    0  501 -0.33387375535E+01  0.15941317141E+02  0.24751509840E+02  0.30000000000E+02  0.47000000000E+01 0. -1.
</event>
<event>
 4    1  0.7643770E-002  0.6000000E+02  0.7546771E-02  0.1259629E+00
         11   -1    0    0    0    0  0.00000000000E+00  0.00000000000E+00  0.30000000000E+02  0.30000000000E+02  0.00000000000E+00 0.  1.
        -11   -1    0    0    0    0 -0.00000000000E+00 -0.00000000000E+00 -0.30000000000E+02  0.30000000000E+02  0.00000000000E+00 0. -1.
          5    1    1    2  501    0  0.29034795761E+02  0.32253263827E+01 -0.49485255239E+01  0.30000000000E+02  0.47000000000E+01 0.  1.
         -5    1    1    2    0  501 -0.29034795761E+02 -0.32253263827E+01  0.49485255239E+01  0.30000000000E+02  0.47000000000E+01 0. -1.
</event>
<event>
 4    1  0.7643770E-002  0.6000000E+02  0.7546771E-02  0.1259629E+00
         11   -1    0    0    0    0  0.00000000000E+00  0.00000000000E+00  0.30000000000E+02  0.30000000000E+02  0.00000000000E+00 0.  1.
        -11   -1    0    0    0    0 -0.00000000000E+00 -0.00000000000E+00 -0.30000000000E+02  0.30000000000E+02  0.00000000000E+00 0. -1.
          5    1    1    2  501    0  0.10166836636E+02 -0.25540112786E+02  0.11056584993E+02  0.30000000000E+02  0.47000000000E+01 0. -1.
         -5    1    1    2    0  501 -0.10166836636E+02  0.25540112786E+02 -0.11056584993E+02  0.30000000000E+02  0.47000000000E+01 0.  1.
</event>
<event>
 4    1  0.7643770E-002  0.6000000E+02  0.7546771E-02  0.1259629E+00
         11   -1    0    0    0    0  0.00000000000E+00  0.00000000000E+00  0.30000000000E+02  0.30000000000E+02  0.00000000000E+00 0.  1.
        -11   -1    0    0    0    0 -0.00000000000E+00 -0.00000000000E+00 -0.30000000000E+02  0.30000000000E+02  0.00000000000E+00 0. -1.
          5    1    1    2  501    0 -0.14692615537E+02 -0.16091614771E+02  0.20077275282E+02  0.30000000000E+02  0.47000000000E+01 0.  1.
         -5    1    1    2    0  501  0.14692615537E+02  0.16091614771E+02 -0.20077275282E+02  0.30000000000E+02  0.47000000000E+01 0. -1.
</event>
<event>
 4    1  0.7643770E-002  0.6000000E+02  0.7546771E-02  0.1259629E+00
         11   -1    0    0    0    0  0.00000000000E+00  0.00000000000E+00  0.30000000000E+02  0.30000000000E+02  0.00000000000E+00 0. -1.
        -11   -1    0    0    0    0 -0.00000000000E+00 -0.00000000000E+00 -0.30000000000E+02  0.30000000000E+02  0.00000000000E+00 0.  1.
          5    1    1    2  501    0  0.22784102725E+01 -0.12750430045E+02 -0.26648553062E+02  0.30000000000E+02  0.47000000000E+01 0.  1.
         -5    1    1    2    0  501 -0.22784102725E+01  0.12750430045E+02  0.26648553062E+02  0.30000000000E+02  0.47000000000E+01 0. -1.
</event>
<event>
 4    1  0.7643770E-002  0.6000000E+02  0.7546771E-02  0.1259629E+00
         11   -1    0    0    0    0  0.00000000000E+00  0.00000000000E+00  0.30000000000E+02  0.30000000000E+02  0.00000000000E+00 0.  1.
        -11   -1    0    0    0    0 -0.00000000000E+00 -0.00000000000E+00 -0.30000000000E+02  0.30000000000E+02  0.00000000000E+00 0. -1.
          5    1    1    2  501    0 -0.23117597982E+02  0.97602258085E+01 -0.15755146959E+02  0.30000000000E+02  0.47000000000E+01 0. -1.
         -5    1    1    2    0  501  0.23117597982E+02 -0.97602258085E+01  0.15755146959E+02  0.30000000000E+02  0.47000000000E+01 0.  1.
</event>
<event>
 4    1  0.7643770E-002  0.6000000E+02  0.7546771E-02  0.1259629E+00
         11   -1    0    0    0    0  0.00000000000E+00  0.00000000000E+00  0.30000000000E+02  0.30000000000E+02  0.00000000000E+00 0. -1.
        -11   -1    0    0    0    0 -0.00000000000E+00 -0.00000000000E+00 -0.30000000000E+02  0.30000000000E+02  0.00000000000E+00 0.  1.
          5    1    1    2  501    0 -0.38371575196E+01 -0.21788554741E+01 -0.29299126454E+02  0.30000000000E+02  0.47000000000E+01 0.  1.
         -5    1    1    2    0  501  0.38371575196E+01  0.21788554741E+01  0.29299126454E+02  0.30000000000E+02  0.47000000000E+01 0. -1.
</event>
<event>
 4    1  0.7643770E-002  0.6000000E+02  0.7546771E-02  0.1259629E+00
         11   -1    0    0    0    0  0.00000000000E+00  0.00000000000E+00  0.30000000000E+02  0.30000000000E+02  0.00000000000E+00 0. -1.
        -11   -1    0    0    0    0 -0.00000000000E+00 -0.00000000000E+00 -0.30000000000E+02  0.30000000000E+02  0.00000000000E+00 0.  1.
          5    1    1    2  501    0 -0.10246981301E+02 -0.27666652364E+02 -0.27323471967E+01  0.30000000000E+02  0.47000000000E+01 0.  1.
         -5    1    1    2    0  501  0.10246981301E+02  0.27666652364E+02  0.27323471967E+01  0.30000000000E+02  0.47000000000E+01 0. -1.
</event>
<event>
 4    1  0.7643770E-002  0.6000000E+02  0.7546771E-02  0.1259629E+00
         11   -1    0    0    0    0  0.00000000000E+00  0.00000000000E+00  0.30000000000E+02  0.30000000000E+02  0.00000000000E+00 0.  1.
        -11   -1    0    0    0    0 -0.00000000000E+00 -0.00000000000E+00 -0.30000000000E+02  0.30000000000E+02  0.00000000000E+00 0. -1.
          5    1    1    2  501    0  0.22205474500E+01 -0.68104096193E+01 -0.28750608513E+02  0.30000000000E+02  0.47000000000E+01 0. -1.
         -5    1    1    2    0  501 -0.22205474500E+01  0.68104096193E+01  0.28750608513E+02  0.30000000000E+02  0.47000000000E+01 0.  1.
</event>
<event>
 4    1  0.7643770E-002  0.6000000E+02  0.7546771E-02  0.1259629E+00
         11   -1    0    0    0    0  0.00000000000E+00  0.00000000000E+00  0.30000000000E+02  0.30000000000E+02  0.00000000000E+00 0.  1.
        -11   -1    0    0    0    0 -0.00000000000E+00 -0.00000000000E+00 -0.30000000000E+02  0.30000000000E+02  0.00000000000E+00 0. -1.
          5    1    1    2  501    0  0.13655091904E+02 -0.21110413665E+02 -0.15677974997E+02  0.30000000000E+02  0.47000000000E+01 0. -1.
         -5    1    1    2    0  501 -0.13655091904E+02  0.21110413665E+02  0.15677974997E+02  0.30000000000E+02  0.47000000000E+01 0.  1.
</event>
<event>
 4    1  0.7643770E-002  0.6000000E+02  0.7546771E-02  0.1259629E+00
         11   -1    0    0    0    0  0.00000000000E+00  0.00000000000E+00  0.30000000000E+02  0.30000000000E+02  0.00000000000E+00 0. -1.
        -11   -1    0    0    0    0 -0.00000000000E+00 -0.00000000000E+00 -0.30000000000E+02  0.30000000000E+02  0.00000000000E+00 0.  1.
          5    1    1    2  501    0 -0.28111856648E+02  0.87059402861E+01 -0.34409474746E+01  0.30000000000E+02  0.47000000000E+01 0.  1.
         -5    1    1    2    0  501  0.28111856648E+02 -0.87059402861E+01  0.34409474746E+01  0.30000000000E+02  0.47000000000E+01 0. -1.
</event>
<event>
 4    1  0.7643770E-002  0.6000000E+02  0.7546771E-02  0.1259629E+00
         11   -1    0    0    0    0  0.00000000000E+00  0.00000000000E+00  0.30000000000E+02  0.30000000000E+02  0.00000000000E+00 0.  1.
        -11   -1    0    0    0    0 -0.00000000000E+00 -0.00000000000E+00 -0.30000000000E+02  0.30000000000E+02  0.00000000000E+00 0. -1.
          5    1    1    2  501    0  0.22853104586E+02  0.44629169354E+01 -0.18322881411E+02  0.30000000000E+02  0.47000000000E+01 0. -1.
         -5    1    1    2    0  501 -0.22853104586E+02 -0.44629169354E+01  0.18322881411E+02  0.30000000000E+02  0.47000000000E+01 0.  1.
</event>
<event>
 4    1  0.7643770E-002  0.6000000E+02  0.7546771E-02  0.1259629E+00
         11   -1    0    0    0    0  0.00000000000E+00  0.00000000000E+00  0.30000000000E+02  0.30000000000E+02  0.00000000000E+00 0.  1.
        -11   -1    0    0    0    0 -0.00000000000E+00 -0.00000000000E+00 -0.30000000000E+02  0.30000000000E+02  0.00000000000E+00 0. -1.
          5    1    1    2  501    0 -0.89578514952E+01 -0.11937474789E+02 -0.25596163624E+02  0.30000000000E+02  0.47000000000E+01 0. -1.
         -5    1    1    2    0  501  0.89578514952E+01  0.11937474789E+02  0.25596163624E+02  0.30000000000E+02  0.47000000000E+01 0.  1.
</event>
<event>
 4    1  0.7643770E-002  0.6000000E+02  0.7546771E-02  0.1259629E+00
         11   -1    0    0    0    0  0.00000000000E+00  0.00000000000E+00  0.30000000000E+02  0.30000000000E+02  0.00000000000E+00 0.  1.
        -11   -1    0    0    0    0 -0.00000000000E+00 -0.00000000000E+00 -0.30000000000E+02  0.30000000000E+02  0.00000000000E+00 0. -1.
          5    1    1    2  501    0  0.18078717602E+01 -0.81317477890E+01 -0.28434420648E+02  0.30000000000E+02  0.47000000000E+01 0. -1.
         -5    1    1    2    0  501 -0.18078717602E+01  0.81317477890E+01  0.28434420648E+02  0.30000000000E+02  0.47000000000E+01 0.  1.
</event>
<event>
 4    1  0.7643770E-002  0.6000000E+02  0.7546771E-02  0.1259629E+00
         11   -1    0    0    0    0  0.00000000000E+00  0.00000000000E+00  0.30000000000E+02  0.30000000000E+02  0.00000000000E+00 0.  1.
        -11   -1    0    0    0    0 -0.00000000000E+00 -0.00000000000E+00 -0.30000000000E+02  0.30000000000E+02  0.00000000000E+00 0. -1.
          5    1    1    2  501    0 -0.17040421504E+02 -0.46948443870E+00 -0.24234554242E+02  0.30000000000E+02  0.47000000000E+01 0. -1.
         -5    1    1    2    0  501  0.17040421504E+02  0.46948443870E+00  0.24234554242E+02  0.30000000000E+02  0.47000000000E+01 0.  1.
</event>
<event>
 4    1  0.7643770E-002  0.6000000E+02  0.7546771E-02  0.1259629E+00
         11   -1    0    0    0    0  0.00000000000E+00  0.00000000000E+00  0.30000000000E+02  0.30000000000E+02  0.00000000000E+00 0.  1.
        -11   -1    0    0    0    0 -0.00000000000E+00 -0.00000000000E+00 -0.30000000000E+02  0.30000000000E+02  0.00000000000E+00 0. -1.
          5    1    1    2  501    0 -0.20713938754E+02 -0.63308363605E+01 -0.20217894358E+02  0.30000000000E+02  0.47000000000E+01 0. -1.
         -5    1    1    2    0  501  0.20713938754E+02  0.63308363605E+01  0.20217894358E+02  0.30000000000E+02  0.47000000000E+01 0.  1.
</event>
<event>
 4    1  0.7643770E-002  0.6000000E+02  0.7546771E-02  0.1259629E+00
         11   -1    0    0    0    0  0.00000000000E+00  0.00000000000E+00  0.30000000000E+02  0.30000000000E+02  0.00000000000E+00 0.  1.
        -11   -1    0    0    0    0 -0.00000000000E+00 -0.00000000000E+00 -0.30000000000E+02  0.30000000000E+02  0.00000000000E+00 0. -1.
          5    1    1    2  501    0 -0.11597189198E+02 -0.22813977375E+02 -0.14931096377E+02  0.30000000000E+02  0.47000000000E+01 0. -1.
         -5    1    1    2    0  501  0.11597189198E+02  0.22813977375E+02  0.14931096377E+02  0.30000000000E+02  0.47000000000E+01 0.  1.
</event>
<event>
 4    1  0.7643770E-002  0.6000000E+02  0.7546771E-02  0.1259629E+00
         11   -1    0    0    0    0  0.00000000000E+00  0.00000000000E+00  0.30000000000E+02  0.30000000000E+02  0.00000000000E+00 0.  1.
        -11   -1    0    0    0    0 -0.00000000000E+00 -0.00000000000E+00 -0.30000000000E+02  0.30000000000E+02  0.00000000000E+00 0. -1.
          5    1    1    2  501    0  0.12126680888E+02  0.63111317865E-01  0.27034230664E+02  0.30000000000E+02  0.47000000000E+01 0.  1.
         -5    1    1    2    0  501 -0.12126680888E+02 -0.63111317865E-01 -0.27034230664E+02  0.30000000000E+02  0.47000000000E+01 0. -1.
</event>
<event>
 4    1  0.7643770E-002  0.6000000E+02  0.7546771E-02  0.1259629E+00
         11   -1    0    0    0    0  0.00000000000E+00  0.00000000000E+00  0.30000000000E+02  0.30000000000E+02  0.00000000000E+00 0.  1.
        -11   -1    0    0    0    0 -0.00000000000E+00 -0.00000000000E+00 -0.30000000000E+02  0.30000000000E+02  0.00000000000E+00 0. -1.
          5    1    1    2  501    0 -0.27209794984E+02  0.89458256944E+01  0.75834859774E+01  0.30000000000E+02  0.47000000000E+01 0. -1.
         -5    1    1    2    0  501  0.27209794984E+02 -0.89458256944E+01 -0.75834859774E+01  0.30000000000E+02  0.47000000000E+01 0.  1.
</event>
<event>
 4    1  0.7643770E-002  0.6000000E+02  0.7546771E-02  0.1259629E+00
         11   -1    0    0    0    0  0.00000000000E+00  0.00000000000E+00  0.30000000000E+02  0.30000000000E+02  0.00000000000E+00 0.  1.
        -11   -1    0    0    0    0 -0.00000000000E+00 -0.00000000000E+00 -0.30000000000E+02  0.30000000000E+02  0.00000000000E+00 0. -1.
          5    1    1    2  501    0 -0.25502295581E+02  0.83648550739E+01  0.12552773386E+02  0.30000000000E+02  0.47000000000E+01 0.  1.
         -5    1    1    2    0  501  0.25502295581E+02 -0.83648550739E+01 -0.12552773386E+02  0.30000000000E+02  0.47000000000E+01 0. -1.
</event>
<event>
 4    1  0.7643770E-002  0.6000000E+02  0.7546771E-02  0.1259629E+00
         11   -1    0    0    0    0  0.00000000000E+00  0.00000000000E+00  0.30000000000E+02  0.30000000000E+02  0.00000000000E+00 0.  1.
        -11   -1    0    0    0    0 -0.00000000000E+00 -0.00000000000E+00 -0.30000000000E+02  0.30000000000E+02  0.00000000000E+00 0. -1.
          5    1    1    2  501    0  0.13342628231E+02  0.13657861337E+02 -0.22657164332E+02  0.30000000000E+02  0.47000000000E+01 0. -1.
         -5    1    1    2    0  501 -0.13342628231E+02 -0.13657861337E+02  0.22657164332E+02  0.30000000000E+02  0.47000000000E+01 0.  1.
</event>
<event>
 4    1  0.7643770E-002  0.6000000E+02  0.7546771E-02  0.1259629E+00
         11   -1    0    0    0    0  0.00000000000E+00  0.00000000000E+00  0.30000000000E+02  0.30000000000E+02  0.00000000000E+00 0.  1.
        -11   -1    0    0    0    0 -0.00000000000E+00 -0.00000000000E+00 -0.30000000000E+02  0.30000000000E+02  0.00000000000E+00 0. -1.
          5    1    1    2  501    0  0.16110821444E+02 -0.10605723766E+01 -0.24844045939E+02  0.30000000000E+02  0.47000000000E+01 0. -1.
         -5    1    1    2    0  501 -0.16110821444E+02  0.10605723766E+01  0.24844045939E+02  0.30000000000E+02  0.47000000000E+01 0.  1.
</event>
<event>
 4    1  0.7643770E-002  0.6000000E+02  0.7546771E-02  0.1259629E+00
         11   -1    0    0    0    0  0.00000000000E+00  0.00000000000E+00  0.30000000000E+02  0.30000000000E+02  0.00000000000E+00 0.  1.
        -11   -1    0    0    0    0 -0.00000000000E+00 -0.00000000000E+00 -0.30000000000E+02  0.30000000000E+02  0.00000000000E+00 0. -1.
          5    1    1    2  501    0 -0.21347287316E+02  0.44873257356E+01  0.20051614199E+02  0.30000000000E+02  0.47000000000E+01 0. -1.
         -5    1    1    2    0  501  0.21347287316E+02 -0.44873257356E+01 -0.20051614199E+02  0.30000000000E+02  0.47000000000E+01 0.  1.
</event>
<event>
 4    1  0.7643770E-002  0.6000000E+02  0.7546771E-02  0.1259629E+00
         11   -1    0    0    0    0  0.00000000000E+00  0.00000000000E+00  0.30000000000E+02  0.30000000000E+02  0.00000000000E+00 0.  1.
        -11   -1    0    0    0    0 -0.00000000000E+00 -0.00000000000E+00 -0.30000000000E+02  0.30000000000E+02  0.00000000000E+00 0. -1.
          5    1    1    2  501    0 -0.89177701921E+01  0.19330697279E+02 -0.20608433165E+02  0.30000000000E+02  0.47000000000E+01 0. -1.
         -5    1    1    2    0  501  0.89177701921E+01 -0.19330697279E+02  0.20608433165E+02  0.30000000000E+02  0.47000000000E+01 0.  1.
</event>
<event>
 4    1  0.7643770E-002  0.6000000E+02  0.7546771E-02  0.1259629E+00
         11   -1    0    0    0    0  0.00000000000E+00  0.00000000000E+00  0.30000000000E+02  0.30000000000E+02  0.00000000000E+00 0. -1.
        -11   -1    0    0    0    0 -0.00000000000E+00 -0.00000000000E+00 -0.30000000000E+02  0.30000000000E+02  0.00000000000E+00 0.  1.
          5    1    1    2  501    0  0.95025834553E+01  0.12066127401E+02 -0.25338103268E+02  0.30000000000E+02  0.47000000000E+01 0.  1.
         -5    1    1    2    0  501 -0.95025834553E+01 -0.12066127401E+02  0.25338103268E+02  0.30000000000E+02  0.47000000000E+01 0. -1.
</event>
<event>
 4    1  0.7643770E-002  0.6000000E+02  0.7546771E-02  0.1259629E+00
         11   -1    0    0    0    0  0.00000000000E+00  0.00000000000E+00  0.30000000000E+02  0.30000000000E+02  0.00000000000E+00 0. -1.
        -11   -1    0    0    0    0 -0.00000000000E+00 -0.00000000000E+00 -0.30000000000E+02  0.30000000000E+02  0.00000000000E+00 0.  1.
          5    1    1    2  501    0  0.69513859994E+01 -0.41104243833E+00 -0.28799640220E+02  0.30000000000E+02  0.47000000000E+01 0.  1.
         -5    1    1    2    0  501 -0.69513859994E+01  0.41104243833E+00  0.28799640220E+02  0.30000000000E+02  0.47000000000E+01 0. -1.
</event>
<event>
 4    1  0.7643770E-002  0.6000000E+02  0.7546771E-02  0.1259629E+00
         11   -1    0    0    0    0  0.00000000000E+00  0.00000000000E+00  0.30000000000E+02  0.30000000000E+02  0.00000000000E+00 0.  1.
        -11   -1    0    0    0    0 -0.00000000000E+00 -0.00000000000E+00 -0.30000000000E+02  0.30000000000E+02  0.00000000000E+00 0. -1.
          5    1    1    2  501    0 -0.26013531263E+02  0.12828125601E+02 -0.60535431593E+01  0.30000000000E+02  0.47000000000E+01 0. -1.
         -5    1    1    2    0  501  0.26013531263E+02 -0.12828125601E+02  0.60535431593E+01  0.30000000000E+02  0.47000000000E+01 0.  1.
</event>
<event>
 4    1  0.7643770E-002  0.6000000E+02  0.7546771E-02  0.1259629E+00
         11   -1    0    0    0    0  0.00000000000E+00  0.00000000000E+00  0.30000000000E+02  0.30000000000E+02  0.00000000000E+00 0.  1.
        -11   -1    0    0    0    0 -0.00000000000E+00 -0.00000000000E+00 -0.30000000000E+02  0.30000000000E+02  0.00000000000E+00 0. -1.
          5    1    1    2  501    0 -0.82578905504E+01  0.18745960077E+02 -0.21408087828E+02  0.30000000000E+02  0.47000000000E+01 0. -1.
         -5    1    1    2    0  501  0.82578905504E+01 -0.18745960077E+02  0.21408087828E+02  0.30000000000E+02  0.47000000000E+01 0.  1.
</event>
<event>
 4    1  0.7643770E-002  0.6000000E+02  0.7546771E-02  0.1259629E+00
         11   -1    0    0    0    0  0.00000000000E+00  0.00000000000E+00  0.30000000000E+02  0.30000000000E+02  0.00000000000E+00 0.  1.
        -11   -1    0    0    0    0 -0.00000000000E+00 -0.00000000000E+00 -0.30000000000E+02  0.30000000000E+02  0.00000000000E+00 0. -1.
          5    1    1    2  501    0  0.12758689797E+02 -0.12359753186E+02 -0.23714180058E+02  0.30000000000E+02  0.47000000000E+01 0. -1.
         -5    1    1    2    0  501 -0.12758689797E+02  0.12359753186E+02  0.23714180058E+02  0.30000000000E+02  0.47000000000E+01 0.  1.
</event>
<event>
 4    1  0.7643770E-002  0.6000000E+02  0.7546771E-02  0.1259629E+00
         11   -1    0    0    0    0  0.00000000000E+00  0.00000000000E+00  0.30000000000E+02  0.30000000000E+02  0.00000000000E+00 0.  1.
        -11   -1    0    0    0    0 -0.00000000000E+00 -0.00000000000E+00 -0.30000000000E+02  0.30000000000E+02  0.00000000000E+00 0. -1.
          5    1    1    2  501    0  0.28635249737E+02 -0.73957037657E+01 -0.17988991906E+01  0.30000000000E+02  0.47000000000E+01 0. -1.
         -5    1    1    2    0  501 -0.28635249737E+02  0.73957037657E+01  0.17988991906E+01  0.30000000000E+02  0.47000000000E+01 0.  1.
</event>
<event>
 4    1  0.7643770E-002  0.6000000E+02  0.7546771E-02  0.1259629E+00
         11   -1    0    0    0    0  0.00000000000E+00  0.00000000000E+00  0.30000000000E+02  0.30000000000E+02  0.00000000000E+00 0.  1.
        -11   -1    0    0    0    0 -0.00000000000E+00 -0.00000000000E+00 -0.30000000000E+02  0.30000000000E+02  0.00000000000E+00 0. -1.
          5    1    1    2  501    0 -0.10188732652E+02 -0.27687884521E+02 -0.27351010370E+01  0.30000000000E+02  0.47000000000E+01 0. -1.
         -5    1    1    2    0  501  0.10188732652E+02  0.27687884521E+02  0.27351010370E+01  0.30000000000E+02  0.47000000000E+01 0.  1.
</event>
<event>
 4    1  0.7643770E-002  0.6000000E+02  0.7546771E-02  0.1259629E+00
         11   -1    0    0    0    0  0.00000000000E+00  0.00000000000E+00  0.30000000000E+02  0.30000000000E+02  0.00000000000E+00 0.  1.
        -11   -1    0    0    0    0 -0.00000000000E+00 -0.00000000000E+00 -0.30000000000E+02  0.30000000000E+02  0.00000000000E+00 0. -1.
          5    1    1    2  501    0  0.10890156220E+02 -0.91927388357E+01 -0.25977067775E+02  0.30000000000E+02  0.47000000000E+01 0. -1.
         -5    1    1    2    0  501 -0.10890156220E+02  0.91927388357E+01  0.25977067775E+02  0.30000000000E+02  0.47000000000E+01 0.  1.
</event>
<event>
 4    1  0.7643770E-002  0.6000000E+02  0.7546771E-02  0.1259629E+00
         11   -1    0    0    0    0  0.00000000000E+00  0.00000000000E+00  0.30000000000E+02  0.30000000000E+02  0.00000000000E+00 0.  1.
        -11   -1    0    0    0    0 -0.00000000000E+00 -0.00000000000E+00 -0.30000000000E+02  0.30000000000E+02  0.00000000000E+00 0. -1.
          5    1    1    2  501    0  0.26246054626E+02 -0.53180258532E+01 -0.12679637913E+02  0.30000000000E+02  0.47000000000E+01 0. -1.
         -5    1    1    2    0  501 -0.26246054626E+02  0.53180258532E+01  0.12679637913E+02  0.30000000000E+02  0.47000000000E+01 0.  1.
</event>
<event>
 4    1  0.7643770E-002  0.6000000E+02  0.7546771E-02  0.1259629E+00
         11   -1    0    0    0    0  0.00000000000E+00  0.00000000000E+00  0.30000000000E+02  0.30000000000E+02  0.00000000000E+00 0. -1.
        -11   -1    0    0    0    0 -0.00000000000E+00 -0.00000000000E+00 -0.30000000000E+02  0.30000000000E+02  0.00000000000E+00 0.  1.
          5    1    1    2  501    0 -0.10771907237E+01  0.18382150790E+02 -0.23213060817E+02  0.30000000000E+02  0.47000000000E+01 0.  1.
         -5    1    1    2    0  501  0.10771907237E+01 -0.18382150790E+02  0.23213060817E+02  0.30000000000E+02  0.47000000000E+01 0. -1.
</event>
<event>
 4    1  0.7643770E-002  0.6000000E+02  0.7546771E-02  0.1259629E+00
         11   -1    0    0    0    0  0.00000000000E+00  0.00000000000E+00  0.30000000000E+02  0.30000000000E+02  0.00000000000E+00 0.  1.
        -11   -1    0    0    0    0 -0.00000000000E+00 -0.00000000000E+00 -0.30000000000E+02  0.30000000000E+02  0.00000000000E+00 0. -1.
          5    1    1    2  501    0  0.28438094802E+02  0.79586143560E+01 -0.24176893030E+01  0.30000000000E+02  0.47000000000E+01 0. -1.
         -5    1    1    2    0  501 -0.28438094802E+02 -0.79586143560E+01  0.24176893030E+01  0.30000000000E+02  0.47000000000E+01 0.  1.
</event>
<event>
 4    1  0.7643770E-002  0.6000000E+02  0.7546771E-02  0.1259629E+00
         11   -1    0    0    0    0  0.00000000000E+00  0.00000000000E+00  0.30000000000E+02  0.30000000000E+02  0.00000000000E+00 0.  1.
        -11   -1    0    0    0    0 -0.00000000000E+00 -0.00000000000E+00 -0.30000000000E+02  0.30000000000E+02  0.00000000000E+00 0. -1.
          5    1    1    2  501    0  0.25691713586E+02 -0.10186130931E+00  0.14759250567E+02  0.30000000000E+02  0.47000000000E+01 0. -1.
         -5    1    1    2    0  501 -0.25691713586E+02  0.10186130931E+00 -0.14759250567E+02  0.30000000000E+02  0.47000000000E+01 0.  1.
</event>
<event>
 4    1  0.7643770E-002  0.6000000E+02  0.7546771E-02  0.1259629E+00
         11   -1    0    0    0    0  0.00000000000E+00  0.00000000000E+00  0.30000000000E+02  0.30000000000E+02  0.00000000000E+00 0.  1.
        -11   -1    0    0    0    0 -0.00000000000E+00 -0.00000000000E+00 -0.30000000000E+02  0.30000000000E+02  0.00000000000E+00 0. -1.
          5    1    1    2  501    0 -0.30874710738E+00 -0.17325577774E+02 -0.24034122202E+02  0.30000000000E+02  0.47000000000E+01 0. -1.
         -5    1    1    2    0  501  0.30874710738E+00  0.17325577774E+02  0.24034122202E+02  0.30000000000E+02  0.47000000000E+01 0.  1.
</event>
<event>
 4    1  0.7643770E-002  0.6000000E+02  0.7546771E-02  0.1259629E+00
         11   -1    0    0    0    0  0.00000000000E+00  0.00000000000E+00  0.30000000000E+02  0.30000000000E+02  0.00000000000E+00 0. -1.
        -11   -1    0    0    0    0 -0.00000000000E+00 -0.00000000000E+00 -0.30000000000E+02  0.30000000000E+02  0.00000000000E+00 0.  1.
          5    1    1    2  501    0 -0.49740111225E+01  0.10521968920E+02 -0.27248071187E+02  0.30000000000E+02  0.47000000000E+01 0.  1.
         -5    1    1    2    0  501  0.49740111225E+01 -0.10521968920E+02  0.27248071187E+02  0.30000000000E+02  0.47000000000E+01 0. -1.
</event>
<event>
 4    1  0.7643770E-002  0.6000000E+02  0.7546771E-02  0.1259629E+00
         11   -1    0    0    0    0  0.00000000000E+00  0.00000000000E+00  0.30000000000E+02  0.30000000000E+02  0.00000000000E+00 0.  1.
        -11   -1    0    0    0    0 -0.00000000000E+00 -0.00000000000E+00 -0.30000000000E+02  0.30000000000E+02  0.00000000000E+00 0. -1.
          5    1    1    2  501    0  0.89196226010E+01  0.17503320796E+02 -0.22180714456E+02  0.30000000000E+02  0.47000000000E+01 0. -1.
         -5    1    1    2    0  501 -0.89196226010E+01 -0.17503320796E+02  0.22180714456E+02  0.30000000000E+02  0.47000000000E+01 0.  1.
</event>
<event>
 4    1  0.7643770E-002  0.6000000E+02  0.7546771E-02  0.1259629E+00
         11   -1    0    0    0    0  0.00000000000E+00  0.00000000000E+00  0.30000000000E+02  0.30000000000E+02  0.00000000000E+00 0. -1.
        -11   -1    0    0    0    0 -0.00000000000E+00 -0.00000000000E+00 -0.30000000000E+02  0.30000000000E+02  0.00000000000E+00 0.  1.
          5    1    1    2  501    0 -0.20490113576E+02  0.77876683194E+01 -0.19935332146E+02  0.30000000000E+02  0.47000000000E+01 0.  1.
         -5    1    1    2    0  501  0.20490113576E+02 -0.77876683194E+01  0.19935332146E+02  0.30000000000E+02  0.47000000000E+01 0. -1.
</event>
<event>
 4    1  0.7643770E-002  0.6000000E+02  0.7546771E-02  0.1259629E+00
         11   -1    0    0    0    0  0.00000000000E+00  0.00000000000E+00  0.30000000000E+02  0.30000000000E+02  0.00000000000E+00 0. -1.
        -11   -1    0    0    0    0 -0.00000000000E+00 -0.00000000000E+00 -0.30000000000E+02  0.30000000000E+02  0.00000000000E+00 0.  1.
          5    1    1    2  501    0 -0.40651862996E+01  0.18310670880E+01 -0.29292173932E+02  0.30000000000E+02  0.47000000000E+01 0.  1.
         -5    1    1    2    0  501  0.40651862996E+01 -0.18310670880E+01  0.29292173932E+02  0.30000000000E+02  0.47000000000E+01 0. -1.
</event>
<event>
 4    1  0.7643770E-002  0.6000000E+02  0.7546771E-02  0.1259629E+00
         11   -1    0    0    0    0  0.00000000000E+00  0.00000000000E+00  0.30000000000E+02  0.30000000000E+02  0.00000000000E+00 0.  1.
        -11   -1    0    0    0    0 -0.00000000000E+00 -0.00000000000E+00 -0.30000000000E+02  0.30000000000E+02  0.00000000000E+00 0. -1.
          5    1    1    2  501    0  0.63293238615E+01  0.10795165066E+02 -0.26857290829E+02  0.30000000000E+02  0.47000000000E+01 0. -1.
         -5    1    1    2    0  501 -0.63293238615E+01 -0.10795165066E+02  0.26857290829E+02  0.30000000000E+02  0.47000000000E+01 0.  1.
</event>
<event>
 4    1  0.7643770E-002  0.6000000E+02  0.7546771E-02  0.1259629E+00
         11   -1    0    0    0    0  0.00000000000E+00  0.00000000000E+00  0.30000000000E+02  0.30000000000E+02  0.00000000000E+00 0.  1.
        -11   -1    0    0    0    0 -0.00000000000E+00 -0.00000000000E+00 -0.30000000000E+02  0.30000000000E+02  0.00000000000E+00 0. -1.
          5    1    1    2  501    0 -0.19784641393E+02  0.20545527942E+01 -0.21960345575E+02  0.30000000000E+02  0.47000000000E+01 0. -1.
         -5    1    1    2    0  501  0.19784641393E+02 -0.20545527942E+01  0.21960345575E+02  0.30000000000E+02  0.47000000000E+01 0.  1.
</event>
<event>
 4    1  0.7643770E-002  0.6000000E+02  0.7546771E-02  0.1259629E+00
         11   -1    0    0    0    0  0.00000000000E+00  0.00000000000E+00  0.30000000000E+02  0.30000000000E+02  0.00000000000E+00 0.  1.
        -11   -1    0    0    0    0 -0.00000000000E+00 -0.00000000000E+00 -0.30000000000E+02  0.30000000000E+02  0.00000000000E+00 0. -1.
          5    1    1    2  501    0 -0.68146708872E+01  0.21218556596E+02 -0.19525447925E+02  0.30000000000E+02  0.47000000000E+01 0. -1.
         -5    1    1    2    0  501  0.68146708872E+01 -0.21218556596E+02  0.19525447925E+02  0.30000000000E+02  0.47000000000E+01 0.  1.
</event>
<event>
 4    1  0.7643770E-002  0.6000000E+02  0.7546771E-02  0.1259629E+00
         11   -1    0    0    0    0  0.00000000000E+00  0.00000000000E+00  0.30000000000E+02  0.30000000000E+02  0.00000000000E+00 0.  1.
        -11   -1    0    0    0    0 -0.00000000000E+00 -0.00000000000E+00 -0.30000000000E+02  0.30000000000E+02  0.00000000000E+00 0. -1.
          5    1    1    2  501    0  0.27264524582E+02 -0.67189611975E+01 -0.94557527316E+01  0.30000000000E+02  0.47000000000E+01 0. -1.
         -5    1    1    2    0  501 -0.27264524582E+02  0.67189611975E+01  0.94557527316E+01  0.30000000000E+02  0.47000000000E+01 0.  1.
</event>
<event>
 4    1  0.7643770E-002  0.6000000E+02  0.7546771E-02  0.1259629E+00
         11   -1    0    0    0    0  0.00000000000E+00  0.00000000000E+00  0.30000000000E+02  0.30000000000E+02  0.00000000000E+00 0. -1.
        -11   -1    0    0    0    0 -0.00000000000E+00 -0.00000000000E+00 -0.30000000000E+02  0.30000000000E+02  0.00000000000E+00 0.  1.
          5    1    1    2  501    0 -0.17823814062E+02  0.17988341108E+02 -0.15383147807E+02  0.30000000000E+02  0.47000000000E+01 0.  1.
         -5    1    1    2    0  501  0.17823814062E+02 -0.17988341108E+02  0.15383147807E+02  0.30000000000E+02  0.47000000000E+01 0. -1.
</event>
<event>
 4    1  0.7643770E-002  0.6000000E+02  0.7546771E-02  0.1259629E+00
         11   -1    0    0    0    0  0.00000000000E+00  0.00000000000E+00  0.30000000000E+02  0.30000000000E+02  0.00000000000E+00 0. -1.
        -11   -1    0    0    0    0 -0.00000000000E+00 -0.00000000000E+00 -0.30000000000E+02  0.30000000000E+02  0.00000000000E+00 0.  1.
          5    1    1    2  501    0 -0.10664005583E+02 -0.89652699618E+01 -0.26149816815E+02  0.30000000000E+02  0.47000000000E+01 0.  1.
         -5    1    1    2    0  501  0.10664005583E+02  0.89652699618E+01  0.26149816815E+02  0.30000000000E+02  0.47000000000E+01 0. -1.
</event>
<event>
 4    1  0.7643770E-002  0.6000000E+02  0.7546771E-02  0.1259629E+00
         11   -1    0    0    0    0  0.00000000000E+00  0.00000000000E+00  0.30000000000E+02  0.30000000000E+02  0.00000000000E+00 0.  1.
        -11   -1    0    0    0    0 -0.00000000000E+00 -0.00000000000E+00 -0.30000000000E+02  0.30000000000E+02  0.00000000000E+00 0. -1.
          5    1    1    2  501    0  0.19264943019E+01  0.29008753772E+02 -0.57175890292E+01  0.30000000000E+02  0.47000000000E+01 0. -1.
         -5    1    1    2    0  501 -0.19264943019E+01 -0.29008753772E+02  0.57175890292E+01  0.30000000000E+02  0.47000000000E+01 0.  1.
</event>
<event>
 4    1  0.7643770E-002  0.6000000E+02  0.7546771E-02  0.1259629E+00
         11   -1    0    0    0    0  0.00000000000E+00  0.00000000000E+00  0.30000000000E+02  0.30000000000E+02  0.00000000000E+00 0.  1.
        -11   -1    0    0    0    0 -0.00000000000E+00 -0.00000000000E+00 -0.30000000000E+02  0.30000000000E+02  0.00000000000E+00 0. -1.
          5    1    1    2  501    0 -0.97707117907E+01 -0.36952855228E+00  0.27969745078E+02  0.30000000000E+02  0.47000000000E+01 0.  1.
         -5    1    1    2    0  501  0.97707117907E+01  0.36952855228E+00 -0.27969745078E+02  0.30000000000E+02  0.47000000000E+01 0. -1.
</event>
<event>
 4    1  0.7643770E-002  0.6000000E+02  0.7546771E-02  0.1259629E+00
         11   -1    0    0    0    0  0.00000000000E+00  0.00000000000E+00  0.30000000000E+02  0.30000000000E+02  0.00000000000E+00 0. -1.
        -11   -1    0    0    0    0 -0.00000000000E+00 -0.00000000000E+00 -0.30000000000E+02  0.30000000000E+02  0.00000000000E+00 0.  1.
          5    1    1    2  501    0 -0.14022819695E+02  0.57613096087E+00  0.26094800266E+02  0.30000000000E+02  0.47000000000E+01 0. -1.
         -5    1    1    2    0  501  0.14022819695E+02 -0.57613096087E+00 -0.26094800266E+02  0.30000000000E+02  0.47000000000E+01 0.  1.
</event>
<event>
 4    1  0.7643770E-002  0.6000000E+02  0.7546771E-02  0.1259629E+00
         11   -1    0    0    0    0  0.00000000000E+00  0.00000000000E+00  0.30000000000E+02  0.30000000000E+02  0.00000000000E+00 0.  1.
        -11   -1    0    0    0    0 -0.00000000000E+00 -0.00000000000E+00 -0.30000000000E+02  0.30000000000E+02  0.00000000000E+00 0. -1.
          5    1    1    2  501    0 -0.11054877324E+02  0.13039286905E+02 -0.24200757929E+02  0.30000000000E+02  0.47000000000E+01 0. -1.
         -5    1    1    2    0  501  0.11054877324E+02 -0.13039286905E+02  0.24200757929E+02  0.30000000000E+02  0.47000000000E+01 0.  1.
</event>
<event>
 4    1  0.7643770E-002  0.6000000E+02  0.7546771E-02  0.1259629E+00
         11   -1    0    0    0    0  0.00000000000E+00  0.00000000000E+00  0.30000000000E+02  0.30000000000E+02  0.00000000000E+00 0. -1.
        -11   -1    0    0    0    0 -0.00000000000E+00 -0.00000000000E+00 -0.30000000000E+02  0.30000000000E+02  0.00000000000E+00 0.  1.
          5    1    1    2  501    0  0.13197860938E+02  0.10695232253E+02 -0.24276294481E+02  0.30000000000E+02  0.47000000000E+01 0.  1.
         -5    1    1    2    0  501 -0.13197860938E+02 -0.10695232253E+02  0.24276294481E+02  0.30000000000E+02  0.47000000000E+01 0. -1.
</event>
<event>
 4    1  0.7643770E-002  0.6000000E+02  0.7546771E-02  0.1259629E+00
         11   -1    0    0    0    0  0.00000000000E+00  0.00000000000E+00  0.30000000000E+02  0.30000000000E+02  0.00000000000E+00 0.  1.
        -11   -1    0    0    0    0 -0.00000000000E+00 -0.00000000000E+00 -0.30000000000E+02  0.30000000000E+02  0.00000000000E+00 0. -1.
          5    1    1    2  501    0  0.24616311102E+02 -0.58497996934E+01 -0.15418400412E+02  0.30000000000E+02  0.47000000000E+01 0. -1.
         -5    1    1    2    0  501 -0.24616311102E+02  0.58497996934E+01  0.15418400412E+02  0.30000000000E+02  0.47000000000E+01 0.  1.
</event>
<event>
 4    1  0.7643770E-002  0.6000000E+02  0.7546771E-02  0.1259629E+00
         11   -1    0    0    0    0  0.00000000000E+00  0.00000000000E+00  0.30000000000E+02  0.30000000000E+02  0.00000000000E+00 0.  1.
        -11   -1    0    0    0    0 -0.00000000000E+00 -0.00000000000E+00 -0.30000000000E+02  0.30000000000E+02  0.00000000000E+00 0. -1.
          5    1    1    2  501    0  0.10537186833E+01 -0.13629464297E+02 -0.26287589846E+02  0.30000000000E+02  0.47000000000E+01 0. -1.
         -5    1    1    2    0  501 -0.10537186833E+01  0.13629464297E+02  0.26287589846E+02  0.30000000000E+02  0.47000000000E+01 0.  1.
</event>
<event>
 4    1  0.7643770E-002  0.6000000E+02  0.7546771E-02  0.1259629E+00
         11   -1    0    0    0    0  0.00000000000E+00  0.00000000000E+00  0.30000000000E+02  0.30000000000E+02  0.00000000000E+00 0.  1.
        -11   -1    0    0    0    0 -0.00000000000E+00 -0.00000000000E+00 -0.30000000000E+02  0.30000000000E+02  0.00000000000E+00 0. -1.
          5    1    1    2  501    0  0.52718563739E+01  0.80852658007E+01 -0.28013318392E+02  0.30000000000E+02  0.47000000000E+01 0. -1.
         -5    1    1    2    0  501 -0.52718563739E+01 -0.80852658007E+01  0.28013318392E+02  0.30000000000E+02  0.47000000000E+01 0.  1.
</event>
<event>
 4    1  0.7643770E-002  0.6000000E+02  0.7546771E-02  0.1259629E+00
         11   -1    0    0    0    0  0.00000000000E+00  0.00000000000E+00  0.30000000000E+02  0.30000000000E+02  0.00000000000E+00 0.  1.
        -11   -1    0    0    0    0 -0.00000000000E+00 -0.00000000000E+00 -0.30000000000E+02  0.30000000000E+02  0.00000000000E+00 0. -1.
          5    1    1    2  501    0  0.50814421125E+01  0.11383292853E+02 -0.26879538498E+02  0.30000000000E+02  0.47000000000E+01 0. -1.
         -5    1    1    2    0  501 -0.50814421125E+01 -0.11383292853E+02  0.26879538498E+02  0.30000000000E+02  0.47000000000E+01 0.  1.
</event>
<event>
 4    1  0.7643770E-002  0.6000000E+02  0.7546771E-02  0.1259629E+00
         11   -1    0    0    0    0  0.00000000000E+00  0.00000000000E+00  0.30000000000E+02  0.30000000000E+02  0.00000000000E+00 0.  1.
        -11   -1    0    0    0    0 -0.00000000000E+00 -0.00000000000E+00 -0.30000000000E+02  0.30000000000E+02  0.00000000000E+00 0. -1.
          5    1    1    2  501    0  0.25384179699E+02  0.76624612903E+01 -0.13222711824E+02  0.30000000000E+02  0.47000000000E+01 0. -1.
         -5    1    1    2    0  501 -0.25384179699E+02 -0.76624612903E+01  0.13222711824E+02  0.30000000000E+02  0.47000000000E+01 0.  1.
</event>
<event>
 4    1  0.7643770E-002  0.6000000E+02  0.7546771E-02  0.1259629E+00
         11   -1    0    0    0    0  0.00000000000E+00  0.00000000000E+00  0.30000000000E+02  0.30000000000E+02  0.00000000000E+00 0.  1.
        -11   -1    0    0    0    0 -0.00000000000E+00 -0.00000000000E+00 -0.30000000000E+02  0.30000000000E+02  0.00000000000E+00 0. -1.
          5    1    1    2  501    0 -0.21292062793E+02 -0.15063635812E+02 -0.14058625045E+02  0.30000000000E+02  0.47000000000E+01 0. -1.
         -5    1    1    2    0  501  0.21292062793E+02  0.15063635812E+02  0.14058625045E+02  0.30000000000E+02  0.47000000000E+01 0.  1.
</event>
<event>
 4    1  0.7643770E-002  0.6000000E+02  0.7546771E-02  0.1259629E+00
         11   -1    0    0    0    0  0.00000000000E+00  0.00000000000E+00  0.30000000000E+02  0.30000000000E+02  0.00000000000E+00 0.  1.
        -11   -1    0    0    0    0 -0.00000000000E+00 -0.00000000000E+00 -0.30000000000E+02  0.30000000000E+02  0.00000000000E+00 0. -1.
          5    1    1    2  501    0  0.23258256454E+02  0.18107570304E+02 -0.30132050067E+01  0.30000000000E+02  0.47000000000E+01 0. -1.
         -5    1    1    2    0  501 -0.23258256454E+02 -0.18107570304E+02  0.30132050067E+01  0.30000000000E+02  0.47000000000E+01 0.  1.
</event>
<event>
 4    1  0.7643770E-002  0.6000000E+02  0.7546771E-02  0.1259629E+00
         11   -1    0    0    0    0  0.00000000000E+00  0.00000000000E+00  0.30000000000E+02  0.30000000000E+02  0.00000000000E+00 0.  1.
        -11   -1    0    0    0    0 -0.00000000000E+00 -0.00000000000E+00 -0.30000000000E+02  0.30000000000E+02  0.00000000000E+00 0. -1.
          5    1    1    2  501    0 -0.13719656236E+02  0.24073742959E+02 -0.10494566818E+02  0.30000000000E+02  0.47000000000E+01 0. -1.
         -5    1    1    2    0  501  0.13719656236E+02 -0.24073742959E+02  0.10494566818E+02  0.30000000000E+02  0.47000000000E+01 0.  1.
</event>
<event>
 4    1  0.7643770E-002  0.6000000E+02  0.7546771E-02  0.1259629E+00
         11   -1    0    0    0    0  0.00000000000E+00  0.00000000000E+00  0.30000000000E+02  0.30000000000E+02  0.00000000000E+00 0.  1.
        -11   -1    0    0    0    0 -0.00000000000E+00 -0.00000000000E+00 -0.30000000000E+02  0.30000000000E+02  0.00000000000E+00 0. -1.
          5    1    1    2  501    0 -0.52492930040E+01 -0.19431329052E+02 -0.21743467392E+02  0.30000000000E+02  0.47000000000E+01 0. -1.
         -5    1    1    2    0  501  0.52492930040E+01  0.19431329052E+02  0.21743467392E+02  0.30000000000E+02  0.47000000000E+01 0.  1.
</event>
<event>
 4    1  0.7643770E-002  0.6000000E+02  0.7546771E-02  0.1259629E+00
         11   -1    0    0    0    0  0.00000000000E+00  0.00000000000E+00  0.30000000000E+02  0.30000000000E+02  0.00000000000E+00 0. -1.
        -11   -1    0    0    0    0 -0.00000000000E+00 -0.00000000000E+00 -0.30000000000E+02  0.30000000000E+02  0.00000000000E+00 0.  1.
          5    1    1    2  501    0  0.12695761301E+02 -0.19361616818E+02 -0.18489333119E+02  0.30000000000E+02  0.47000000000E+01 0.  1.
         -5    1    1    2    0  501 -0.12695761301E+02  0.19361616818E+02  0.18489333119E+02  0.30000000000E+02  0.47000000000E+01 0. -1.
</event>
<event>
 4    1  0.7643770E-002  0.6000000E+02  0.7546771E-02  0.1259629E+00
         11   -1    0    0    0    0  0.00000000000E+00  0.00000000000E+00  0.30000000000E+02  0.30000000000E+02  0.00000000000E+00 0.  1.
        -11   -1    0    0    0    0 -0.00000000000E+00 -0.00000000000E+00 -0.30000000000E+02  0.30000000000E+02  0.00000000000E+00 0. -1.
          5    1    1    2  501    0  0.29348984943E+02 -0.30775727337E+01 -0.26600054271E+01  0.30000000000E+02  0.47000000000E+01 0. -1.
         -5    1    1    2    0  501 -0.29348984943E+02  0.30775727337E+01  0.26600054271E+01  0.30000000000E+02  0.47000000000E+01 0.  1.
</event>
<event>
 4    1  0.7643770E-002  0.6000000E+02  0.7546771E-02  0.1259629E+00
         11   -1    0    0    0    0  0.00000000000E+00  0.00000000000E+00  0.30000000000E+02  0.30000000000E+02  0.00000000000E+00 0.  1.
        -11   -1    0    0    0    0 -0.00000000000E+00 -0.00000000000E+00 -0.30000000000E+02  0.30000000000E+02  0.00000000000E+00 0. -1.
          5    1    1    2  501    0  0.12236764879E+02  0.15376412005E+02 -0.22175155899E+02  0.30000000000E+02  0.47000000000E+01 0. -1.
         -5    1    1    2    0  501 -0.12236764879E+02 -0.15376412005E+02  0.22175155899E+02  0.30000000000E+02  0.47000000000E+01 0.  1.
</event>
<event>
 4    1  0.7643770E-002  0.6000000E+02  0.7546771E-02  0.1259629E+00
         11   -1    0    0    0    0  0.00000000000E+00  0.00000000000E+00  0.30000000000E+02  0.30000000000E+02  0.00000000000E+00 0.  1.
        -11   -1    0    0    0    0 -0.00000000000E+00 -0.00000000000E+00 -0.30000000000E+02  0.30000000000E+02  0.00000000000E+00 0. -1.
          5    1    1    2  501    0 -0.22859617438E+02  0.17610578231E+02 -0.67242415894E+01  0.30000000000E+02  0.47000000000E+01 0. -1.
         -5    1    1    2    0  501  0.22859617438E+02 -0.17610578231E+02  0.67242415894E+01  0.30000000000E+02  0.47000000000E+01 0.  1.
</event>
<event>
 4    1  0.7643770E-002  0.6000000E+02  0.7546771E-02  0.1259629E+00
         11   -1    0    0    0    0  0.00000000000E+00  0.00000000000E+00  0.30000000000E+02  0.30000000000E+02  0.00000000000E+00 0.  1.
        -11   -1    0    0    0    0 -0.00000000000E+00 -0.00000000000E+00 -0.30000000000E+02  0.30000000000E+02  0.00000000000E+00 0. -1.
          5    1    1    2  501    0  0.53371876984E+01 -0.24454212318E+02 -0.15856100636E+02  0.30000000000E+02  0.47000000000E+01 0. -1.
         -5    1    1    2    0  501 -0.53371876984E+01  0.24454212318E+02  0.15856100636E+02  0.30000000000E+02  0.47000000000E+01 0.  1.
</event>
<event>
 4    1  0.7643770E-002  0.6000000E+02  0.7546771E-02  0.1259629E+00
         11   -1    0    0    0    0  0.00000000000E+00  0.00000000000E+00  0.30000000000E+02  0.30000000000E+02  0.00000000000E+00 0. -1.
        -11   -1    0    0    0    0 -0.00000000000E+00 -0.00000000000E+00 -0.30000000000E+02  0.30000000000E+02  0.00000000000E+00 0.  1.
          5    1    1    2  501    0  0.17738985284E+02  0.22015505098E+02  0.88631786825E+01  0.30000000000E+02  0.47000000000E+01 0. -1.
         -5    1    1    2    0  501 -0.17738985284E+02 -0.22015505098E+02 -0.88631786825E+01  0.30000000000E+02  0.47000000000E+01 0.  1.
</event>
<event>
 4    1  0.7643770E-002  0.6000000E+02  0.7546771E-02  0.1259629E+00
         11   -1    0    0    0    0  0.00000000000E+00  0.00000000000E+00  0.30000000000E+02  0.30000000000E+02  0.00000000000E+00 0. -1.
        -11   -1    0    0    0    0 -0.00000000000E+00 -0.00000000000E+00 -0.30000000000E+02  0.30000000000E+02  0.00000000000E+00 0.  1.
          5    1    1    2  501    0 -0.29399598443E+01 -0.78022851661E+01 -0.28432217330E+02  0.30000000000E+02  0.47000000000E+01 0.  1.
         -5    1    1    2    0  501  0.29399598443E+01  0.78022851661E+01  0.28432217330E+02  0.30000000000E+02  0.47000000000E+01 0. -1.
</event>
<event>
 4    1  0.7643770E-002  0.6000000E+02  0.7546771E-02  0.1259629E+00
         11   -1    0    0    0    0  0.00000000000E+00  0.00000000000E+00  0.30000000000E+02  0.30000000000E+02  0.00000000000E+00 0.  1.
        -11   -1    0    0    0    0 -0.00000000000E+00 -0.00000000000E+00 -0.30000000000E+02  0.30000000000E+02  0.00000000000E+00 0. -1.
          5    1    1    2  501    0  0.11813218503E+02  0.57919129494E+01 -0.26548288325E+02  0.30000000000E+02  0.47000000000E+01 0. -1.
         -5    1    1    2    0  501 -0.11813218503E+02 -0.57919129494E+01  0.26548288325E+02  0.30000000000E+02  0.47000000000E+01 0.  1.
</event>
<event>
 4    1  0.7643770E-002  0.6000000E+02  0.7546771E-02  0.1259629E+00
         11   -1    0    0    0    0  0.00000000000E+00  0.00000000000E+00  0.30000000000E+02  0.30000000000E+02  0.00000000000E+00 0. -1.
        -11   -1    0    0    0    0 -0.00000000000E+00 -0.00000000000E+00 -0.30000000000E+02  0.30000000000E+02  0.00000000000E+00 0.  1.
          5    1    1    2  501    0  0.75695078524E+01 -0.18983341696E+02 -0.21453328155E+02  0.30000000000E+02  0.47000000000E+01 0.  1.
         -5    1    1    2    0  501 -0.75695078524E+01  0.18983341696E+02  0.21453328155E+02  0.30000000000E+02  0.47000000000E+01 0. -1.
</event>
<event>
 4    1  0.7643770E-002  0.6000000E+02  0.7546771E-02  0.1259629E+00
         11   -1    0    0    0    0  0.00000000000E+00  0.00000000000E+00  0.30000000000E+02  0.30000000000E+02  0.00000000000E+00 0.  1.
        -11   -1    0    0    0    0 -0.00000000000E+00 -0.00000000000E+00 -0.30000000000E+02  0.30000000000E+02  0.00000000000E+00 0. -1.
          5    1    1    2  501    0  0.16064173023E+02 -0.91182999705E+01 -0.23166979750E+02  0.30000000000E+02  0.47000000000E+01 0. -1.
         -5    1    1    2    0  501 -0.16064173023E+02  0.91182999705E+01  0.23166979750E+02  0.30000000000E+02  0.47000000000E+01 0.  1.
</event>
<event>
 4    1  0.7643770E-002  0.6000000E+02  0.7546771E-02  0.1259629E+00
         11   -1    0    0    0    0  0.00000000000E+00  0.00000000000E+00  0.30000000000E+02  0.30000000000E+02  0.00000000000E+00 0. -1.
        -11   -1    0    0    0    0 -0.00000000000E+00 -0.00000000000E+00 -0.30000000000E+02  0.30000000000E+02  0.00000000000E+00 0.  1.
          5    1    1    2  501    0  0.22063856894E+02 -0.17527932933E+02  0.91579356862E+01  0.30000000000E+02  0.47000000000E+01 0.  1.
         -5    1    1    2    0  501 -0.22063856894E+02  0.17527932933E+02 -0.91579356862E+01  0.30000000000E+02  0.47000000000E+01 0. -1.
</event>
<event>
 4    1  0.7643770E-002  0.6000000E+02  0.7546771E-02  0.1259629E+00
         11   -1    0    0    0    0  0.00000000000E+00  0.00000000000E+00  0.30000000000E+02  0.30000000000E+02  0.00000000000E+00 0.  1.
        -11   -1    0    0    0    0 -0.00000000000E+00 -0.00000000000E+00 -0.30000000000E+02  0.30000000000E+02  0.00000000000E+00 0. -1.
          5    1    1    2  501    0 -0.10748995380E+02  0.10005361810E+02 -0.25734448379E+02  0.30000000000E+02  0.47000000000E+01 0. -1.
         -5    1    1    2    0  501  0.10748995380E+02 -0.10005361810E+02  0.25734448379E+02  0.30000000000E+02  0.47000000000E+01 0.  1.
</event>
<event>
 4    1  0.7643770E-002  0.6000000E+02  0.7546771E-02  0.1259629E+00
         11   -1    0    0    0    0  0.00000000000E+00  0.00000000000E+00  0.30000000000E+02  0.30000000000E+02  0.00000000000E+00 0.  1.
        -11   -1    0    0    0    0 -0.00000000000E+00 -0.00000000000E+00 -0.30000000000E+02  0.30000000000E+02  0.00000000000E+00 0. -1.
          5    1    1    2  501    0 -0.25229323541E+02  0.30792519873E+01 -0.15228573172E+02  0.30000000000E+02  0.47000000000E+01 0. -1.
         -5    1    1    2    0  501  0.25229323541E+02 -0.30792519873E+01  0.15228573172E+02  0.30000000000E+02  0.47000000000E+01 0.  1.
</event>
<event>
 4    1  0.7643770E-002  0.6000000E+02  0.7546771E-02  0.1259629E+00
         11   -1    0    0    0    0  0.00000000000E+00  0.00000000000E+00  0.30000000000E+02  0.30000000000E+02  0.00000000000E+00 0.  1.
        -11   -1    0    0    0    0 -0.00000000000E+00 -0.00000000000E+00 -0.30000000000E+02  0.30000000000E+02  0.00000000000E+00 0. -1.
          5    1    1    2  501    0 -0.24231205194E+01  0.13663091635E+02 -0.26179350907E+02  0.30000000000E+02  0.47000000000E+01 0. -1.
         -5    1    1    2    0  501  0.24231205194E+01 -0.13663091635E+02  0.26179350907E+02  0.30000000000E+02  0.47000000000E+01 0.  1.
</event>
<event>
 4    1  0.7643770E-002  0.6000000E+02  0.7546771E-02  0.1259629E+00
         11   -1    0    0    0    0  0.00000000000E+00  0.00000000000E+00  0.30000000000E+02  0.30000000000E+02  0.00000000000E+00 0.  1.
        -11   -1    0    0    0    0 -0.00000000000E+00 -0.00000000000E+00 -0.30000000000E+02  0.30000000000E+02  0.00000000000E+00 0. -1.
          5    1    1    2  501    0  0.39929537803E+01  0.17980662203E+02 -0.23209095348E+02  0.30000000000E+02  0.47000000000E+01 0. -1.
         -5    1    1    2    0  501 -0.39929537803E+01 -0.17980662203E+02  0.23209095348E+02  0.30000000000E+02  0.47000000000E+01 0.  1.
</event>
<event>
 4    1  0.7643770E-002  0.6000000E+02  0.7546771E-02  0.1259629E+00
         11   -1    0    0    0    0  0.00000000000E+00  0.00000000000E+00  0.30000000000E+02  0.30000000000E+02  0.00000000000E+00 0.  1.
        -11   -1    0    0    0    0 -0.00000000000E+00 -0.00000000000E+00 -0.30000000000E+02  0.30000000000E+02  0.00000000000E+00 0. -1.
          5    1    1    2  501    0 -0.56912166432E+01 -0.13719140950E+01 -0.29045445509E+02  0.30000000000E+02  0.47000000000E+01 0. -1.
         -5    1    1    2    0  501  0.56912166432E+01  0.13719140950E+01  0.29045445509E+02  0.30000000000E+02  0.47000000000E+01 0.  1.
</event>
<event>
 4    1  0.7643770E-002  0.6000000E+02  0.7546771E-02  0.1259629E+00
         11   -1    0    0    0    0  0.00000000000E+00  0.00000000000E+00  0.30000000000E+02  0.30000000000E+02  0.00000000000E+00 0.  1.
        -11   -1    0    0    0    0 -0.00000000000E+00 -0.00000000000E+00 -0.30000000000E+02  0.30000000000E+02  0.00000000000E+00 0. -1.
          5    1    1    2  501    0  0.27769870847E+02  0.85085013848E+01 -0.58608597784E+01  0.30000000000E+02  0.47000000000E+01 0.  1.
         -5    1    1    2    0  501 -0.27769870847E+02 -0.85085013848E+01  0.58608597784E+01  0.30000000000E+02  0.47000000000E+01 0. -1.
</event>
<event>
 4    1  0.7643770E-002  0.6000000E+02  0.7546771E-02  0.1259629E+00
         11   -1    0    0    0    0  0.00000000000E+00  0.00000000000E+00  0.30000000000E+02  0.30000000000E+02  0.00000000000E+00 0.  1.
        -11   -1    0    0    0    0 -0.00000000000E+00 -0.00000000000E+00 -0.30000000000E+02  0.30000000000E+02  0.00000000000E+00 0. -1.
          5    1    1    2  501    0 -0.24338956701E+02  0.67690223734E+00 -0.16883926973E+02  0.30000000000E+02  0.47000000000E+01 0. -1.
         -5    1    1    2    0  501  0.24338956701E+02 -0.67690223734E+00  0.16883926973E+02  0.30000000000E+02  0.47000000000E+01 0.  1.
</event>
<event>
 4    1  0.7643770E-002  0.6000000E+02  0.7546771E-02  0.1259629E+00
         11   -1    0    0    0    0  0.00000000000E+00  0.00000000000E+00  0.30000000000E+02  0.30000000000E+02  0.00000000000E+00 0.  1.
        -11   -1    0    0    0    0 -0.00000000000E+00 -0.00000000000E+00 -0.30000000000E+02  0.30000000000E+02  0.00000000000E+00 0. -1.
          5    1    1    2  501    0 -0.26238847685E+02  0.60645898077E+01 -0.12355307469E+02  0.30000000000E+02  0.47000000000E+01 0. -1.
         -5    1    1    2    0  501  0.26238847685E+02 -0.60645898077E+01  0.12355307469E+02  0.30000000000E+02  0.47000000000E+01 0.  1.
</event>
<event>
 4    1  0.7643770E-002  0.6000000E+02  0.7546771E-02  0.1259629E+00
         11   -1    0    0    0    0  0.00000000000E+00  0.00000000000E+00  0.30000000000E+02  0.30000000000E+02  0.00000000000E+00 0.  1.
        -11   -1    0    0    0    0 -0.00000000000E+00 -0.00000000000E+00 -0.30000000000E+02  0.30000000000E+02  0.00000000000E+00 0. -1.
          5    1    1    2  501    0 -0.18430550492E+02 -0.20002755284E+02 -0.11752216371E+02  0.30000000000E+02  0.47000000000E+01 0. -1.
         -5    1    1    2    0  501  0.18430550492E+02  0.20002755284E+02  0.11752216371E+02  0.30000000000E+02  0.47000000000E+01 0.  1.
</event>
<event>
 4    1  0.7643770E-002  0.6000000E+02  0.7546771E-02  0.1259629E+00
         11   -1    0    0    0    0  0.00000000000E+00  0.00000000000E+00  0.30000000000E+02  0.30000000000E+02  0.00000000000E+00 0.  1.
        -11   -1    0    0    0    0 -0.00000000000E+00 -0.00000000000E+00 -0.30000000000E+02  0.30000000000E+02  0.00000000000E+00 0. -1.
          5    1    1    2  501    0 -0.47961844375E+01 -0.25487021938E+02 -0.14328933233E+02  0.30000000000E+02  0.47000000000E+01 0.  1.
         -5    1    1    2    0  501  0.47961844375E+01  0.25487021938E+02  0.14328933233E+02  0.30000000000E+02  0.47000000000E+01 0. -1.
</event>
<event>
 4    1  0.7643770E-002  0.6000000E+02  0.7546771E-02  0.1259629E+00
         11   -1    0    0    0    0  0.00000000000E+00  0.00000000000E+00  0.30000000000E+02  0.30000000000E+02  0.00000000000E+00 0.  1.
        -11   -1    0    0    0    0 -0.00000000000E+00 -0.00000000000E+00 -0.30000000000E+02  0.30000000000E+02  0.00000000000E+00 0. -1.
          5    1    1    2  501    0  0.17438946857E+02  0.73703890831E+00  0.23942637828E+02  0.30000000000E+02  0.47000000000E+01 0.  1.
         -5    1    1    2    0  501 -0.17438946857E+02 -0.73703890831E+00 -0.23942637828E+02  0.30000000000E+02  0.47000000000E+01 0. -1.
</event>
<event>
 4    1  0.7643770E-002  0.6000000E+02  0.7546771E-02  0.1259629E+00
         11   -1    0    0    0    0  0.00000000000E+00  0.00000000000E+00  0.30000000000E+02  0.30000000000E+02  0.00000000000E+00 0.  1.
        -11   -1    0    0    0    0 -0.00000000000E+00 -0.00000000000E+00 -0.30000000000E+02  0.30000000000E+02  0.00000000000E+00 0. -1.
          5    1    1    2  501    0 -0.68793939476E+00 -0.10283482326E+02 -0.27779250001E+02  0.30000000000E+02  0.47000000000E+01 0. -1.
         -5    1    1    2    0  501  0.68793939476E+00  0.10283482326E+02  0.27779250001E+02  0.30000000000E+02  0.47000000000E+01 0.  1.
</event>
<event>
 4    1  0.7643770E-002  0.6000000E+02  0.7546771E-02  0.1259629E+00
         11   -1    0    0    0    0  0.00000000000E+00  0.00000000000E+00  0.30000000000E+02  0.30000000000E+02  0.00000000000E+00 0.  1.
        -11   -1    0    0    0    0 -0.00000000000E+00 -0.00000000000E+00 -0.30000000000E+02  0.30000000000E+02  0.00000000000E+00 0. -1.
          5    1    1    2  501    0 -0.19942886634E+02 -0.24397011912E+01 -0.21777032185E+02  0.30000000000E+02  0.47000000000E+01 0. -1.
         -5    1    1    2    0  501  0.19942886634E+02  0.24397011912E+01  0.21777032185E+02  0.30000000000E+02  0.47000000000E+01 0.  1.
</event>
<event>
 4    1  0.7643770E-002  0.6000000E+02  0.7546771E-02  0.1259629E+00
         11   -1    0    0    0    0  0.00000000000E+00  0.00000000000E+00  0.30000000000E+02  0.30000000000E+02  0.00000000000E+00 0. -1.
        -11   -1    0    0    0    0 -0.00000000000E+00 -0.00000000000E+00 -0.30000000000E+02  0.30000000000E+02  0.00000000000E+00 0.  1.
          5    1    1    2  501    0 -0.10679997826E+01 -0.55223078917E+01  0.29090780189E+02  0.30000000000E+02  0.47000000000E+01 0. -1.
         -5    1    1    2    0  501  0.10679997826E+01  0.55223078917E+01 -0.29090780189E+02  0.30000000000E+02  0.47000000000E+01 0.  1.
</event>
<event>
 4    1  0.7643770E-002  0.6000000E+02  0.7546771E-02  0.1259629E+00
         11   -1    0    0    0    0  0.00000000000E+00  0.00000000000E+00  0.30000000000E+02  0.30000000000E+02  0.00000000000E+00 0.  1.
        -11   -1    0    0    0    0 -0.00000000000E+00 -0.00000000000E+00 -0.30000000000E+02  0.30000000000E+02  0.00000000000E+00 0. -1.
          5    1    1    2  501    0 -0.15689855536E+02 -0.11222689488E+02 -0.22489768205E+02  0.30000000000E+02  0.47000000000E+01 0. -1.
         -5    1    1    2    0  501  0.15689855536E+02  0.11222689488E+02  0.22489768205E+02  0.30000000000E+02  0.47000000000E+01 0.  1.
</event>
<event>
 4    1  0.7643770E-002  0.6000000E+02  0.7546771E-02  0.1259629E+00
         11   -1    0    0    0    0  0.00000000000E+00  0.00000000000E+00  0.30000000000E+02  0.30000000000E+02  0.00000000000E+00 0. -1.
        -11   -1    0    0    0    0 -0.00000000000E+00 -0.00000000000E+00 -0.30000000000E+02  0.30000000000E+02  0.00000000000E+00 0.  1.
          5    1    1    2  501    0  0.23615018445E+02 -0.17575100269E+02 -0.33699783953E+01  0.30000000000E+02  0.47000000000E+01 0.  1.
         -5    1    1    2    0  501 -0.23615018445E+02  0.17575100269E+02  0.33699783953E+01  0.30000000000E+02  0.47000000000E+01 0. -1.
</event>
<event>
 4    1  0.7643770E-002  0.6000000E+02  0.7546771E-02  0.1259629E+00
         11   -1    0    0    0    0  0.00000000000E+00  0.00000000000E+00  0.30000000000E+02  0.30000000000E+02  0.00000000000E+00 0. -1.
        -11   -1    0    0    0    0 -0.00000000000E+00 -0.00000000000E+00 -0.30000000000E+02  0.30000000000E+02  0.00000000000E+00 0.  1.
          5    1    1    2  501    0  0.28821104785E+02  0.64754314110E+01 -0.23070992668E+01  0.30000000000E+02  0.47000000000E+01 0.  1.
         -5    1    1    2    0  501 -0.28821104785E+02 -0.64754314110E+01  0.23070992668E+01  0.30000000000E+02  0.47000000000E+01 0. -1.
</event>
<event>
 4    1  0.7643770E-002  0.6000000E+02  0.7546771E-02  0.1259629E+00
         11   -1    0    0    0    0  0.00000000000E+00  0.00000000000E+00  0.30000000000E+02  0.30000000000E+02  0.00000000000E+00 0.  1.
        -11   -1    0    0    0    0 -0.00000000000E+00 -0.00000000000E+00 -0.30000000000E+02  0.30000000000E+02  0.00000000000E+00 0. -1.
          5    1    1    2  501    0 -0.19395947478E+02  0.70791285442E+01 -0.21250721411E+02  0.30000000000E+02  0.47000000000E+01 0. -1.
         -5    1    1    2    0  501  0.19395947478E+02 -0.70791285442E+01  0.21250721411E+02  0.30000000000E+02  0.47000000000E+01 0.  1.
</event>
<event>
 4    1  0.7643770E-002  0.6000000E+02  0.7546771E-02  0.1259629E+00
         11   -1    0    0    0    0  0.00000000000E+00  0.00000000000E+00  0.30000000000E+02  0.30000000000E+02  0.00000000000E+00 0.  1.
        -11   -1    0    0    0    0 -0.00000000000E+00 -0.00000000000E+00 -0.30000000000E+02  0.30000000000E+02  0.00000000000E+00 0. -1.
          5    1    1    2  501    0  0.17373624408E+02  0.23274157368E+02  0.58635120652E+01  0.30000000000E+02  0.47000000000E+01 0.  1.
         -5    1    1    2    0  501 -0.17373624408E+02 -0.23274157368E+02 -0.58635120652E+01  0.30000000000E+02  0.47000000000E+01 0. -1.
</event>
<event>
 4    1  0.7643770E-002  0.6000000E+02  0.7546771E-02  0.1259629E+00
         11   -1    0    0    0    0  0.00000000000E+00  0.00000000000E+00  0.30000000000E+02  0.30000000000E+02  0.00000000000E+00 0.  1.
        -11   -1    0    0    0    0 -0.00000000000E+00 -0.00000000000E+00 -0.30000000000E+02  0.30000000000E+02  0.00000000000E+00 0. -1.
          5    1    1    2  501    0 -0.29435362561E+02 -0.30515096121E+01  0.14689179726E+01  0.30000000000E+02  0.47000000000E+01 0. -1.
         -5    1    1    2    0  501  0.29435362561E+02  0.30515096121E+01 -0.14689179726E+01  0.30000000000E+02  0.47000000000E+01 0.  1.
</event>
<event>
 4    1  0.7643770E-002  0.6000000E+02  0.7546771E-02  0.1259629E+00
         11   -1    0    0    0    0  0.00000000000E+00  0.00000000000E+00  0.30000000000E+02  0.30000000000E+02  0.00000000000E+00 0.  1.
        -11   -1    0    0    0    0 -0.00000000000E+00 -0.00000000000E+00 -0.30000000000E+02  0.30000000000E+02  0.00000000000E+00 0. -1.
          5    1    1    2  501    0  0.21901990933E+02  0.19915019776E+02  0.12667993177E+01  0.30000000000E+02  0.47000000000E+01 0. -1.
         -5    1    1    2    0  501 -0.21901990933E+02 -0.19915019776E+02 -0.12667993177E+01  0.30000000000E+02  0.47000000000E+01 0.  1.
</event>
<event>
 4    1  0.7643770E-002  0.6000000E+02  0.7546771E-02  0.1259629E+00
         11   -1    0    0    0    0  0.00000000000E+00  0.00000000000E+00  0.30000000000E+02  0.30000000000E+02  0.00000000000E+00 0. -1.
        -11   -1    0    0    0    0 -0.00000000000E+00 -0.00000000000E+00 -0.30000000000E+02  0.30000000000E+02  0.00000000000E+00 0.  1.
          5    1    1    2  501    0 -0.16342190854E+02 -0.24478882043E+02 -0.34098580663E+01  0.30000000000E+02  0.47000000000E+01 0. -1.
         -5    1    1    2    0  501  0.16342190854E+02  0.24478882043E+02  0.34098580663E+01  0.30000000000E+02  0.47000000000E+01 0.  1.
</event>
<event>
 4    1  0.7643770E-002  0.6000000E+02  0.7546771E-02  0.1259629E+00
         11   -1    0    0    0    0  0.00000000000E+00  0.00000000000E+00  0.30000000000E+02  0.30000000000E+02  0.00000000000E+00 0.  1.
        -11   -1    0    0    0    0 -0.00000000000E+00 -0.00000000000E+00 -0.30000000000E+02  0.30000000000E+02  0.00000000000E+00 0. -1.
          5    1    1    2  501    0  0.24825469437E+01 -0.66316529104E+01 -0.28770960018E+02  0.30000000000E+02  0.47000000000E+01 0. -1.
         -5    1    1    2    0  501 -0.24825469437E+01  0.66316529104E+01  0.28770960018E+02  0.30000000000E+02  0.47000000000E+01 0.  1.
</event>
<event>
 4    1  0.7643770E-002  0.6000000E+02  0.7546771E-02  0.1259629E+00
         11   -1    0    0    0    0  0.00000000000E+00  0.00000000000E+00  0.30000000000E+02  0.30000000000E+02  0.00000000000E+00 0.  1.
        -11   -1    0    0    0    0 -0.00000000000E+00 -0.00000000000E+00 -0.30000000000E+02  0.30000000000E+02  0.00000000000E+00 0. -1.
          5    1    1    2  501    0  0.10940416044E+02  0.18233532310E+02 -0.20633845892E+02  0.30000000000E+02  0.47000000000E+01 0. -1.
         -5    1    1    2    0  501 -0.10940416044E+02 -0.18233532310E+02  0.20633845892E+02  0.30000000000E+02  0.47000000000E+01 0.  1.
</event>
<event>
 4    1  0.7643770E-002  0.6000000E+02  0.7546771E-02  0.1259629E+00
         11   -1    0    0    0    0  0.00000000000E+00  0.00000000000E+00  0.30000000000E+02  0.30000000000E+02  0.00000000000E+00 0.  1.
        -11   -1    0    0    0    0 -0.00000000000E+00 -0.00000000000E+00 -0.30000000000E+02  0.30000000000E+02  0.00000000000E+00 0. -1.
          5    1    1    2  501    0 -0.94613299936E+01  0.25872224343E+01 -0.27958889728E+02  0.30000000000E+02  0.47000000000E+01 0. -1.
         -5    1    1    2    0  501  0.94613299936E+01 -0.25872224343E+01  0.27958889728E+02  0.30000000000E+02  0.47000000000E+01 0.  1.
</event>
<event>
 4    1  0.7643770E-002  0.6000000E+02  0.7546771E-02  0.1259629E+00
         11   -1    0    0    0    0  0.00000000000E+00  0.00000000000E+00  0.30000000000E+02  0.30000000000E+02  0.00000000000E+00 0. -1.
        -11   -1    0    0    0    0 -0.00000000000E+00 -0.00000000000E+00 -0.30000000000E+02  0.30000000000E+02  0.00000000000E+00 0.  1.
          5    1    1    2  501    0  0.19880053453E+02  0.21778870114E+02  0.28938367737E+01  0.30000000000E+02  0.47000000000E+01 0. -1.
         -5    1    1    2    0  501 -0.19880053453E+02 -0.21778870114E+02 -0.28938367737E+01  0.30000000000E+02  0.47000000000E+01 0.  1.
</event>
<event>
 4    1  0.7643770E-002  0.6000000E+02  0.7546771E-02  0.1259629E+00
         11   -1    0    0    0    0  0.00000000000E+00  0.00000000000E+00  0.30000000000E+02  0.30000000000E+02  0.00000000000E+00 0.  1.
        -11   -1    0    0    0    0 -0.00000000000E+00 -0.00000000000E+00 -0.30000000000E+02  0.30000000000E+02  0.00000000000E+00 0. -1.
          5    1    1    2  501    0  0.60097421006E+01 -0.28967575559E+02  0.16347984950E+01  0.30000000000E+02  0.47000000000E+01 0. -1.
         -5    1    1    2    0  501 -0.60097421006E+01  0.28967575559E+02 -0.16347984950E+01  0.30000000000E+02  0.47000000000E+01 0.  1.
</event>
<event>
 4    1  0.7643770E-002  0.6000000E+02  0.7546771E-02  0.1259629E+00
         11   -1    0    0    0    0  0.00000000000E+00  0.00000000000E+00  0.30000000000E+02  0.30000000000E+02  0.00000000000E+00 0.  1.
        -11   -1    0    0    0    0 -0.00000000000E+00 -0.00000000000E+00 -0.30000000000E+02  0.30000000000E+02  0.00000000000E+00 0. -1.
          5    1    1    2  501    0  0.22570520565E+02  0.11524643214E+02 -0.15351358253E+02  0.30000000000E+02  0.47000000000E+01 0. -1.
         -5    1    1    2    0  501 -0.22570520565E+02 -0.11524643214E+02  0.15351358253E+02  0.30000000000E+02  0.47000000000E+01 0.  1.
</event>
<event>
 4    1  0.7643770E-002  0.6000000E+02  0.7546771E-02  0.1259629E+00
         11   -1    0    0    0    0  0.00000000000E+00  0.00000000000E+00  0.30000000000E+02  0.30000000000E+02  0.00000000000E+00 0. -1.
        -11   -1    0    0    0    0 -0.00000000000E+00 -0.00000000000E+00 -0.30000000000E+02  0.30000000000E+02  0.00000000000E+00 0.  1.
          5    1    1    2  501    0  0.15755922433E+01  0.38677426765E+00 -0.29585096159E+02  0.30000000000E+02  0.47000000000E+01 0.  1.
         -5    1    1    2    0  501 -0.15755922433E+01 -0.38677426765E+00  0.29585096159E+02  0.30000000000E+02  0.47000000000E+01 0. -1.
</event>
<event>
 4    1  0.7643770E-002  0.6000000E+02  0.7546771E-02  0.1259629E+00
         11   -1    0    0    0    0  0.00000000000E+00  0.00000000000E+00  0.30000000000E+02  0.30000000000E+02  0.00000000000E+00 0.  1.
        -11   -1    0    0    0    0 -0.00000000000E+00 -0.00000000000E+00 -0.30000000000E+02  0.30000000000E+02  0.00000000000E+00 0. -1.
          5    1    1    2  501    0 -0.14926545111E+02 -0.19292775477E+02 -0.16819544151E+02  0.30000000000E+02  0.47000000000E+01 0. -1.
         -5    1    1    2    0  501  0.14926545111E+02  0.19292775477E+02  0.16819544151E+02  0.30000000000E+02  0.47000000000E+01 0.  1.
</event>
<event>
 4    1  0.7643770E-002  0.6000000E+02  0.7546771E-02  0.1259629E+00
         11   -1    0    0    0    0  0.00000000000E+00  0.00000000000E+00  0.30000000000E+02  0.30000000000E+02  0.00000000000E+00 0.  1.
        -11   -1    0    0    0    0 -0.00000000000E+00 -0.00000000000E+00 -0.30000000000E+02  0.30000000000E+02  0.00000000000E+00 0. -1.
          5    1    1    2  501    0 -0.40980069869E+01 -0.23801274658E+02 -0.17164371919E+02  0.30000000000E+02  0.47000000000E+01 0. -1.
         -5    1    1    2    0  501  0.40980069869E+01  0.23801274658E+02  0.17164371919E+02  0.30000000000E+02  0.47000000000E+01 0.  1.
</event>
<event>
 4    1  0.7643770E-002  0.6000000E+02  0.7546771E-02  0.1259629E+00
         11   -1    0    0    0    0  0.00000000000E+00  0.00000000000E+00  0.30000000000E+02  0.30000000000E+02  0.00000000000E+00 0.  1.
        -11   -1    0    0    0    0 -0.00000000000E+00 -0.00000000000E+00 -0.30000000000E+02  0.30000000000E+02  0.00000000000E+00 0. -1.
          5    1    1    2  501    0  0.12385720769E+02 -0.21534135454E+02 -0.16148836841E+02  0.30000000000E+02  0.47000000000E+01 0. -1.
         -5    1    1    2    0  501 -0.12385720769E+02  0.21534135454E+02  0.16148836841E+02  0.30000000000E+02  0.47000000000E+01 0.  1.
</event>
<event>
 4    1  0.7643770E-002  0.6000000E+02  0.7546771E-02  0.1259629E+00
         11   -1    0    0    0    0  0.00000000000E+00  0.00000000000E+00  0.30000000000E+02  0.30000000000E+02  0.00000000000E+00 0.  1.
        -11   -1    0    0    0    0 -0.00000000000E+00 -0.00000000000E+00 -0.30000000000E+02  0.30000000000E+02  0.00000000000E+00 0. -1.
          5    1    1    2  501    0 -0.14445825831E+02 -0.77136028368E+01 -0.24692680036E+02  0.30000000000E+02  0.47000000000E+01 0. -1.
         -5    1    1    2    0  501  0.14445825831E+02  0.77136028368E+01  0.24692680036E+02  0.30000000000E+02  0.47000000000E+01 0.  1.
</event>
<event>
 4    1  0.7643770E-002  0.6000000E+02  0.7546771E-02  0.1259629E+00
         11   -1    0    0    0    0  0.00000000000E+00  0.00000000000E+00  0.30000000000E+02  0.30000000000E+02  0.00000000000E+00 0.  1.
        -11   -1    0    0    0    0 -0.00000000000E+00 -0.00000000000E+00 -0.30000000000E+02  0.30000000000E+02  0.00000000000E+00 0. -1.
          5    1    1    2  501    0 -0.13906065146E+02 -0.16799205956E+02  0.20057867070E+02  0.30000000000E+02  0.47000000000E+01 0. -1.
         -5    1    1    2    0  501  0.13906065146E+02  0.16799205956E+02 -0.20057867070E+02  0.30000000000E+02  0.47000000000E+01 0.  1.
</event>
<event>
 4    1  0.7643770E-002  0.6000000E+02  0.7546771E-02  0.1259629E+00
         11   -1    0    0    0    0  0.00000000000E+00  0.00000000000E+00  0.30000000000E+02  0.30000000000E+02  0.00000000000E+00 0.  1.
        -11   -1    0    0    0    0 -0.00000000000E+00 -0.00000000000E+00 -0.30000000000E+02  0.30000000000E+02  0.00000000000E+00 0. -1.
          5    1    1    2  501    0 -0.20541185062E+02 -0.74945807974E+01 -0.19995023753E+02  0.30000000000E+02  0.47000000000E+01 0. -1.
         -5    1    1    2    0  501  0.20541185062E+02  0.74945807974E+01  0.19995023753E+02  0.30000000000E+02  0.47000000000E+01 0.  1.
</event>
<event>
 4    1  0.7643770E-002  0.6000000E+02  0.7546771E-02  0.1259629E+00
         11   -1    0    0    0    0  0.00000000000E+00  0.00000000000E+00  0.30000000000E+02  0.30000000000E+02  0.00000000000E+00 0. -1.
        -11   -1    0    0    0    0 -0.00000000000E+00 -0.00000000000E+00 -0.30000000000E+02  0.30000000000E+02  0.00000000000E+00 0.  1.
          5    1    1    2  501    0  0.28398533888E+02  0.82110422374E+01 -0.20030123216E+01  0.30000000000E+02  0.47000000000E+01 0.  1.
         -5    1    1    2    0  501 -0.28398533888E+02 -0.82110422374E+01  0.20030123216E+01  0.30000000000E+02  0.47000000000E+01 0. -1.
</event>
<event>
 4    1  0.7643770E-002  0.6000000E+02  0.7546771E-02  0.1259629E+00
         11   -1    0    0    0    0  0.00000000000E+00  0.00000000000E+00  0.30000000000E+02  0.30000000000E+02  0.00000000000E+00 0.  1.
        -11   -1    0    0    0    0 -0.00000000000E+00 -0.00000000000E+00 -0.30000000000E+02  0.30000000000E+02  0.00000000000E+00 0. -1.
          5    1    1    2  501    0 -0.63248199773E+01  0.27880253310E+02 -0.77844799203E+01  0.30000000000E+02  0.47000000000E+01 0. -1.
         -5    1    1    2    0  501  0.63248199773E+01 -0.27880253310E+02  0.77844799203E+01  0.30000000000E+02  0.47000000000E+01 0.  1.
</event>
<event>
 4    1  0.7643770E-002  0.6000000E+02  0.7546771E-02  0.1259629E+00
         11   -1    0    0    0    0  0.00000000000E+00  0.00000000000E+00  0.30000000000E+02  0.30000000000E+02  0.00000000000E+00 0.  1.
        -11   -1    0    0    0    0 -0.00000000000E+00 -0.00000000000E+00 -0.30000000000E+02  0.30000000000E+02  0.00000000000E+00 0. -1.
          5    1    1    2  501    0  0.10219349710E+02  0.57885662821E+01 -0.27202341662E+02  0.30000000000E+02  0.47000000000E+01 0. -1.
         -5    1    1    2    0  501 -0.10219349710E+02 -0.57885662821E+01  0.27202341662E+02  0.30000000000E+02  0.47000000000E+01 0.  1.
</event>
<event>
 4    1  0.7643770E-002  0.6000000E+02  0.7546771E-02  0.1259629E+00
         11   -1    0    0    0    0  0.00000000000E+00  0.00000000000E+00  0.30000000000E+02  0.30000000000E+02  0.00000000000E+00 0.  1.
        -11   -1    0    0    0    0 -0.00000000000E+00 -0.00000000000E+00 -0.30000000000E+02  0.30000000000E+02  0.00000000000E+00 0. -1.
          5    1    1    2  501    0 -0.11707614854E+02  0.22202967791E+02 -0.15743886931E+02  0.30000000000E+02  0.47000000000E+01 0. -1.
         -5    1    1    2    0  501  0.11707614854E+02 -0.22202967791E+02  0.15743886931E+02  0.30000000000E+02  0.47000000000E+01 0.  1.
</event>
<event>
 4    1  0.7643770E-002  0.6000000E+02  0.7546771E-02  0.1259629E+00
         11   -1    0    0    0    0  0.00000000000E+00  0.00000000000E+00  0.30000000000E+02  0.30000000000E+02  0.00000000000E+00 0.  1.
        -11   -1    0    0    0    0 -0.00000000000E+00 -0.00000000000E+00 -0.30000000000E+02  0.30000000000E+02  0.00000000000E+00 0. -1.
          5    1    1    2  501    0 -0.28068489091E+02 -0.91338708916E+00 -0.94464619913E+01  0.30000000000E+02  0.47000000000E+01 0. -1.
         -5    1    1    2    0  501  0.28068489091E+02  0.91338708916E+00  0.94464619913E+01  0.30000000000E+02  0.47000000000E+01 0.  1.
</event>
<event>
 4    1  0.7643770E-002  0.6000000E+02  0.7546771E-02  0.1259629E+00
         11   -1    0    0    0    0  0.00000000000E+00  0.00000000000E+00  0.30000000000E+02  0.30000000000E+02  0.00000000000E+00 0.  1.
        -11   -1    0    0    0    0 -0.00000000000E+00 -0.00000000000E+00 -0.30000000000E+02  0.30000000000E+02  0.00000000000E+00 0. -1.
          5    1    1    2  501    0 -0.49513217274E+00  0.18709564166E+02  0.22969916257E+02  0.30000000000E+02  0.47000000000E+01 0.  1.
         -5    1    1    2    0  501  0.49513217274E+00 -0.18709564166E+02 -0.22969916257E+02  0.30000000000E+02  0.47000000000E+01 0. -1.
</event>
<event>
 4    1  0.7643770E-002  0.6000000E+02  0.7546771E-02  0.1259629E+00
         11   -1    0    0    0    0  0.00000000000E+00  0.00000000000E+00  0.30000000000E+02  0.30000000000E+02  0.00000000000E+00 0.  1.
        -11   -1    0    0    0    0 -0.00000000000E+00 -0.00000000000E+00 -0.30000000000E+02  0.30000000000E+02  0.00000000000E+00 0. -1.
          5    1    1    2  501    0 -0.29991753092E+01  0.29052936762E+02 -0.49841561969E+01  0.30000000000E+02  0.47000000000E+01 0. -1.
         -5    1    1    2    0  501  0.29991753092E+01 -0.29052936762E+02  0.49841561969E+01  0.30000000000E+02  0.47000000000E+01 0.  1.
</event>
<event>
 4    1  0.7643770E-002  0.6000000E+02  0.7546771E-02  0.1259629E+00
         11   -1    0    0    0    0  0.00000000000E+00  0.00000000000E+00  0.30000000000E+02  0.30000000000E+02  0.00000000000E+00 0. -1.
        -11   -1    0    0    0    0 -0.00000000000E+00 -0.00000000000E+00 -0.30000000000E+02  0.30000000000E+02  0.00000000000E+00 0.  1.
          5    1    1    2  501    0 -0.23047534986E+02  0.65418068099E+01  0.17433470530E+02  0.30000000000E+02  0.47000000000E+01 0. -1.
         -5    1    1    2    0  501  0.23047534986E+02 -0.65418068099E+01 -0.17433470530E+02  0.30000000000E+02  0.47000000000E+01 0.  1.
</event>
<event>
 4    1  0.7643770E-002  0.6000000E+02  0.7546771E-02  0.1259629E+00
         11   -1    0    0    0    0  0.00000000000E+00  0.00000000000E+00  0.30000000000E+02  0.30000000000E+02  0.00000000000E+00 0.  1.
        -11   -1    0    0    0    0 -0.00000000000E+00 -0.00000000000E+00 -0.30000000000E+02  0.30000000000E+02  0.00000000000E+00 0. -1.
          5    1    1    2  501    0  0.74611908481E+01  0.28265803641E+02  0.48254508251E+01  0.30000000000E+02  0.47000000000E+01 0. -1.
         -5    1    1    2    0  501 -0.74611908481E+01 -0.28265803641E+02 -0.48254508251E+01  0.30000000000E+02  0.47000000000E+01 0.  1.
</event>
<event>
 4    1  0.7643770E-002  0.6000000E+02  0.7546771E-02  0.1259629E+00
         11   -1    0    0    0    0  0.00000000000E+00  0.00000000000E+00  0.30000000000E+02  0.30000000000E+02  0.00000000000E+00 0.  1.
        -11   -1    0    0    0    0 -0.00000000000E+00 -0.00000000000E+00 -0.30000000000E+02  0.30000000000E+02  0.00000000000E+00 0. -1.
          5    1    1    2  501    0 -0.13190921556E+02  0.21085919300E+02 -0.16102595933E+02  0.30000000000E+02  0.47000000000E+01 0. -1.
         -5    1    1    2    0  501  0.13190921556E+02 -0.21085919300E+02  0.16102595933E+02  0.30000000000E+02  0.47000000000E+01 0.  1.
</event>
<event>
 4    1  0.7643770E-002  0.6000000E+02  0.7546771E-02  0.1259629E+00
         11   -1    0    0    0    0  0.00000000000E+00  0.00000000000E+00  0.30000000000E+02  0.30000000000E+02  0.00000000000E+00 0.  1.
        -11   -1    0    0    0    0 -0.00000000000E+00 -0.00000000000E+00 -0.30000000000E+02  0.30000000000E+02  0.00000000000E+00 0. -1.
          5    1    1    2  501    0 -0.14609455970E+01  0.13289171489E+02 -0.26441890233E+02  0.30000000000E+02  0.47000000000E+01 0. -1.
         -5    1    1    2    0  501  0.14609455970E+01 -0.13289171489E+02  0.26441890233E+02  0.30000000000E+02  0.47000000000E+01 0.  1.
</event>
<event>
 4    1  0.7643770E-002  0.6000000E+02  0.7546771E-02  0.1259629E+00
         11   -1    0    0    0    0  0.00000000000E+00  0.00000000000E+00  0.30000000000E+02  0.30000000000E+02  0.00000000000E+00 0. -1.
        -11   -1    0    0    0    0 -0.00000000000E+00 -0.00000000000E+00 -0.30000000000E+02  0.30000000000E+02  0.00000000000E+00 0.  1.
          5    1    1    2  501    0 -0.12908601015E+02 -0.45387112307E+01 -0.26280755701E+02  0.30000000000E+02  0.47000000000E+01 0.  1.
         -5    1    1    2    0  501  0.12908601015E+02  0.45387112307E+01  0.26280755701E+02  0.30000000000E+02  0.47000000000E+01 0. -1.
</event>
<event>
 4    1  0.7643770E-002  0.6000000E+02  0.7546771E-02  0.1259629E+00
         11   -1    0    0    0    0  0.00000000000E+00  0.00000000000E+00  0.30000000000E+02  0.30000000000E+02  0.00000000000E+00 0. -1.
        -11   -1    0    0    0    0 -0.00000000000E+00 -0.00000000000E+00 -0.30000000000E+02  0.30000000000E+02  0.00000000000E+00 0.  1.
          5    1    1    2  501    0 -0.13852908084E+02  0.11741836731E+02 -0.23412308895E+02  0.30000000000E+02  0.47000000000E+01 0.  1.
         -5    1    1    2    0  501  0.13852908084E+02 -0.11741836731E+02  0.23412308895E+02  0.30000000000E+02  0.47000000000E+01 0. -1.
</event>
<event>
 4    1  0.7643770E-002  0.6000000E+02  0.7546771E-02  0.1259629E+00
         11   -1    0    0    0    0  0.00000000000E+00  0.00000000000E+00  0.30000000000E+02  0.30000000000E+02  0.00000000000E+00 0.  1.
        -11   -1    0    0    0    0 -0.00000000000E+00 -0.00000000000E+00 -0.30000000000E+02  0.30000000000E+02  0.00000000000E+00 0. -1.
          5    1    1    2  501    0  0.11340498723E+02 -0.84839642760E+01 -0.26025476727E+02  0.30000000000E+02  0.47000000000E+01 0. -1.
         -5    1    1    2    0  501 -0.11340498723E+02  0.84839642760E+01  0.26025476727E+02  0.30000000000E+02  0.47000000000E+01 0.  1.
</event>
<event>
 4    1  0.7643770E-002  0.6000000E+02  0.7546771E-02  0.1259629E+00
         11   -1    0    0    0    0  0.00000000000E+00  0.00000000000E+00  0.30000000000E+02  0.30000000000E+02  0.00000000000E+00 0.  1.
        -11   -1    0    0    0    0 -0.00000000000E+00 -0.00000000000E+00 -0.30000000000E+02  0.30000000000E+02  0.00000000000E+00 0. -1.
          5    1    1    2  501    0  0.36600626282E+01 -0.12213024683E+01 -0.29377242244E+02  0.30000000000E+02  0.47000000000E+01 0. -1.
         -5    1    1    2    0  501 -0.36600626282E+01  0.12213024683E+01  0.29377242244E+02  0.30000000000E+02  0.47000000000E+01 0.  1.
</event>
<event>
 4    1  0.7643770E-002  0.6000000E+02  0.7546771E-02  0.1259629E+00
         11   -1    0    0    0    0  0.00000000000E+00  0.00000000000E+00  0.30000000000E+02  0.30000000000E+02  0.00000000000E+00 0.  1.
        -11   -1    0    0    0    0 -0.00000000000E+00 -0.00000000000E+00 -0.30000000000E+02  0.30000000000E+02  0.00000000000E+00 0. -1.
          5    1    1    2  501    0 -0.23242817209E+02 -0.73259608992E+01  0.16852648014E+02  0.30000000000E+02  0.47000000000E+01 0. -1.
         -5    1    1    2    0  501  0.23242817209E+02  0.73259608992E+01 -0.16852648014E+02  0.30000000000E+02  0.47000000000E+01 0.  1.
</event>
<event>
 4    1  0.7643770E-002  0.6000000E+02  0.7546771E-02  0.1259629E+00
         11   -1    0    0    0    0  0.00000000000E+00  0.00000000000E+00  0.30000000000E+02  0.30000000000E+02  0.00000000000E+00 0.  1.
        -11   -1    0    0    0    0 -0.00000000000E+00 -0.00000000000E+00 -0.30000000000E+02  0.30000000000E+02  0.00000000000E+00 0. -1.
          5    1    1    2  501    0 -0.29887090153E+01  0.44928134844E+01 -0.29134039291E+02  0.30000000000E+02  0.47000000000E+01 0. -1.
         -5    1    1    2    0  501  0.29887090153E+01 -0.44928134844E+01  0.29134039291E+02  0.30000000000E+02  0.47000000000E+01 0.  1.
</event>
<event>
 4    1  0.7643770E-002  0.6000000E+02  0.7546771E-02  0.1259629E+00
         11   -1    0    0    0    0  0.00000000000E+00  0.00000000000E+00  0.30000000000E+02  0.30000000000E+02  0.00000000000E+00 0.  1.
        -11   -1    0    0    0    0 -0.00000000000E+00 -0.00000000000E+00 -0.30000000000E+02  0.30000000000E+02  0.00000000000E+00 0. -1.
          5    1    1    2  501    0  0.16267372056E+02  0.23547997988E+02 -0.76664461894E+01  0.30000000000E+02  0.47000000000E+01 0. -1.
         -5    1    1    2    0  501 -0.16267372056E+02 -0.23547997988E+02  0.76664461894E+01  0.30000000000E+02  0.47000000000E+01 0.  1.
</event>
<event>
 4    1  0.7643770E-002  0.6000000E+02  0.7546771E-02  0.1259629E+00
         11   -1    0    0    0    0  0.00000000000E+00  0.00000000000E+00  0.30000000000E+02  0.30000000000E+02  0.00000000000E+00 0.  1.
        -11   -1    0    0    0    0 -0.00000000000E+00 -0.00000000000E+00 -0.30000000000E+02  0.30000000000E+02  0.00000000000E+00 0. -1.
          5    1    1    2  501    0 -0.19589644236E+02  0.13569902196E+02 -0.17607202875E+02  0.30000000000E+02  0.47000000000E+01 0. -1.
         -5    1    1    2    0  501  0.19589644236E+02 -0.13569902196E+02  0.17607202875E+02  0.30000000000E+02  0.47000000000E+01 0.  1.
</event>
<event>
 4    1  0.7643770E-002  0.6000000E+02  0.7546771E-02  0.1259629E+00
         11   -1    0    0    0    0  0.00000000000E+00  0.00000000000E+00  0.30000000000E+02  0.30000000000E+02  0.00000000000E+00 0.  1.
        -11   -1    0    0    0    0 -0.00000000000E+00 -0.00000000000E+00 -0.30000000000E+02  0.30000000000E+02  0.00000000000E+00 0. -1.
          5    1    1    2  501    0  0.61693116536E+01 -0.13075660034E+02 -0.25862650839E+02  0.30000000000E+02  0.47000000000E+01 0. -1.
         -5    1    1    2    0  501 -0.61693116536E+01  0.13075660034E+02  0.25862650839E+02  0.30000000000E+02  0.47000000000E+01 0.  1.
</event>
<event>
 4    1  0.7643770E-002  0.6000000E+02  0.7546771E-02  0.1259629E+00
         11   -1    0    0    0    0  0.00000000000E+00  0.00000000000E+00  0.30000000000E+02  0.30000000000E+02  0.00000000000E+00 0.  1.
        -11   -1    0    0    0    0 -0.00000000000E+00 -0.00000000000E+00 -0.30000000000E+02  0.30000000000E+02  0.00000000000E+00 0. -1.
          5    1    1    2  501    0  0.14623404480E+02 -0.24872417005E+02  0.67400974590E+01  0.30000000000E+02  0.47000000000E+01 0. -1.
         -5    1    1    2    0  501 -0.14623404480E+02  0.24872417005E+02 -0.67400974590E+01  0.30000000000E+02  0.47000000000E+01 0.  1.
</event>
<event>
 4    1  0.7643770E-002  0.6000000E+02  0.7546771E-02  0.1259629E+00
         11   -1    0    0    0    0  0.00000000000E+00  0.00000000000E+00  0.30000000000E+02  0.30000000000E+02  0.00000000000E+00 0.  1.
        -11   -1    0    0    0    0 -0.00000000000E+00 -0.00000000000E+00 -0.30000000000E+02  0.30000000000E+02  0.00000000000E+00 0. -1.
          5    1    1    2  501    0  0.15716420724E+02 -0.67910299825E+01 -0.24182349584E+02  0.30000000000E+02  0.47000000000E+01 0. -1.
         -5    1    1    2    0  501 -0.15716420724E+02  0.67910299825E+01  0.24182349584E+02  0.30000000000E+02  0.47000000000E+01 0.  1.
</event>
<event>
 4    1  0.7643770E-002  0.6000000E+02  0.7546771E-02  0.1259629E+00
         11   -1    0    0    0    0  0.00000000000E+00  0.00000000000E+00  0.30000000000E+02  0.30000000000E+02  0.00000000000E+00 0.  1.
        -11   -1    0    0    0    0 -0.00000000000E+00 -0.00000000000E+00 -0.30000000000E+02  0.30000000000E+02  0.00000000000E+00 0. -1.
          5    1    1    2  501    0  0.17179764711E+02 -0.23036218506E+02  0.72179166948E+01  0.30000000000E+02  0.47000000000E+01 0. -1.
         -5    1    1    2    0  501 -0.17179764711E+02  0.23036218506E+02 -0.72179166948E+01  0.30000000000E+02  0.47000000000E+01 0.  1.
</event>
<event>
 4    1  0.7643770E-002  0.6000000E+02  0.7546771E-02  0.1259629E+00
         11   -1    0    0    0    0  0.00000000000E+00  0.00000000000E+00  0.30000000000E+02  0.30000000000E+02  0.00000000000E+00 0. -1.
        -11   -1    0    0    0    0 -0.00000000000E+00 -0.00000000000E+00 -0.30000000000E+02  0.30000000000E+02  0.00000000000E+00 0.  1.
          5    1    1    2  501    0  0.74353285158E+01  0.27281519075E+02  0.88512488861E+01  0.30000000000E+02  0.47000000000E+01 0.  1.
         -5    1    1    2    0  501 -0.74353285158E+01 -0.27281519075E+02 -0.88512488861E+01  0.30000000000E+02  0.47000000000E+01 0. -1.
</event>
<event>
 4    1  0.7643770E-002  0.6000000E+02  0.7546771E-02  0.1259629E+00
         11   -1    0    0    0    0  0.00000000000E+00  0.00000000000E+00  0.30000000000E+02  0.30000000000E+02  0.00000000000E+00 0.  1.
        -11   -1    0    0    0    0 -0.00000000000E+00 -0.00000000000E+00 -0.30000000000E+02  0.30000000000E+02  0.00000000000E+00 0. -1.
          5    1    1    2  501    0 -0.19436867985E+01  0.37138228363E+01 -0.29331546184E+02  0.30000000000E+02  0.47000000000E+01 0. -1.
         -5    1    1    2    0  501  0.19436867985E+01 -0.37138228363E+01  0.29331546184E+02  0.30000000000E+02  0.47000000000E+01 0.  1.
</event>
<event>
 4    1  0.7643770E-002  0.6000000E+02  0.7546771E-02  0.1259629E+00
         11   -1    0    0    0    0  0.00000000000E+00  0.00000000000E+00  0.30000000000E+02  0.30000000000E+02  0.00000000000E+00 0. -1.
        -11   -1    0    0    0    0 -0.00000000000E+00 -0.00000000000E+00 -0.30000000000E+02  0.30000000000E+02  0.00000000000E+00 0.  1.
          5    1    1    2  501    0 -0.19476913276E+02 -0.21255944757E+02  0.68370067832E+01  0.30000000000E+02  0.47000000000E+01 0.  1.
         -5    1    1    2    0  501  0.19476913276E+02  0.21255944757E+02 -0.68370067832E+01  0.30000000000E+02  0.47000000000E+01 0. -1.
</event>
<event>
 4    1  0.7643770E-002  0.6000000E+02  0.7546771E-02  0.1259629E+00
         11   -1    0    0    0    0  0.00000000000E+00  0.00000000000E+00  0.30000000000E+02  0.30000000000E+02  0.00000000000E+00 0. -1.
        -11   -1    0    0    0    0 -0.00000000000E+00 -0.00000000000E+00 -0.30000000000E+02  0.30000000000E+02  0.00000000000E+00 0.  1.
          5    1    1    2  501    0 -0.25385406167E+02 -0.43241734435E+00 -0.15274297658E+02  0.30000000000E+02  0.47000000000E+01 0.  1.
         -5    1    1    2    0  501  0.25385406167E+02  0.43241734435E+00  0.15274297658E+02  0.30000000000E+02  0.47000000000E+01 0. -1.
</event>
<event>
 4    1  0.7643770E-002  0.6000000E+02  0.7546771E-02  0.1259629E+00
         11   -1    0    0    0    0  0.00000000000E+00  0.00000000000E+00  0.30000000000E+02  0.30000000000E+02  0.00000000000E+00 0.  1.
        -11   -1    0    0    0    0 -0.00000000000E+00 -0.00000000000E+00 -0.30000000000E+02  0.30000000000E+02  0.00000000000E+00 0. -1.
          5    1    1    2  501    0  0.32485309225E+01  0.12985609740E+02 -0.26433520131E+02  0.30000000000E+02  0.47000000000E+01 0. -1.
         -5    1    1    2    0  501 -0.32485309225E+01 -0.12985609740E+02  0.26433520131E+02  0.30000000000E+02  0.47000000000E+01 0.  1.
</event>
<event>
 4    1  0.7643770E-002  0.6000000E+02  0.7546771E-02  0.1259629E+00
         11   -1    0    0    0    0  0.00000000000E+00  0.00000000000E+00  0.30000000000E+02  0.30000000000E+02  0.00000000000E+00 0.  1.
        -11   -1    0    0    0    0 -0.00000000000E+00 -0.00000000000E+00 -0.30000000000E+02  0.30000000000E+02  0.00000000000E+00 0. -1.
          5    1    1    2  501    0  0.11711205368E+02  0.58662424814E+01 -0.26577149357E+02  0.30000000000E+02  0.47000000000E+01 0. -1.
         -5    1    1    2    0  501 -0.11711205368E+02 -0.58662424814E+01  0.26577149357E+02  0.30000000000E+02  0.47000000000E+01 0.  1.
</event>
<event>
 4    1  0.7643770E-002  0.6000000E+02  0.7546771E-02  0.1259629E+00
         11   -1    0    0    0    0  0.00000000000E+00  0.00000000000E+00  0.30000000000E+02  0.30000000000E+02  0.00000000000E+00 0.  1.
        -11   -1    0    0    0    0 -0.00000000000E+00 -0.00000000000E+00 -0.30000000000E+02  0.30000000000E+02  0.00000000000E+00 0. -1.
          5    1    1    2  501    0 -0.10927852633E+02 -0.27330102848E+02  0.33996345611E+01  0.30000000000E+02  0.47000000000E+01 0. -1.
         -5    1    1    2    0  501  0.10927852633E+02  0.27330102848E+02 -0.33996345611E+01  0.30000000000E+02  0.47000000000E+01 0.  1.
</event>
<event>
 4    1  0.7643770E-002  0.6000000E+02  0.7546771E-02  0.1259629E+00
         11   -1    0    0    0    0  0.00000000000E+00  0.00000000000E+00  0.30000000000E+02  0.30000000000E+02  0.00000000000E+00 0.  1.
        -11   -1    0    0    0    0 -0.00000000000E+00 -0.00000000000E+00 -0.30000000000E+02  0.30000000000E+02  0.00000000000E+00 0. -1.
          5    1    1    2  501    0 -0.43359504751E+01 -0.24554667483E+01 -0.29207536981E+02  0.30000000000E+02  0.47000000000E+01 0. -1.
         -5    1    1    2    0  501  0.43359504751E+01  0.24554667483E+01  0.29207536981E+02  0.30000000000E+02  0.47000000000E+01 0.  1.
</event>
<event>
 4    1  0.7643770E-002  0.6000000E+02  0.7546771E-02  0.1259629E+00
         11   -1    0    0    0    0  0.00000000000E+00  0.00000000000E+00  0.30000000000E+02  0.30000000000E+02  0.00000000000E+00 0.  1.
        -11   -1    0    0    0    0 -0.00000000000E+00 -0.00000000000E+00 -0.30000000000E+02  0.30000000000E+02  0.00000000000E+00 0. -1.
          5    1    1    2  501    0  0.17268163826E+02  0.19808622477E+02 -0.13687183555E+02  0.30000000000E+02  0.47000000000E+01 0. -1.
         -5    1    1    2    0  501 -0.17268163826E+02 -0.19808622477E+02  0.13687183555E+02  0.30000000000E+02  0.47000000000E+01 0.  1.
</event>
<event>
 4    1  0.7643770E-002  0.6000000E+02  0.7546771E-02  0.1259629E+00
         11   -1    0    0    0    0  0.00000000000E+00  0.00000000000E+00  0.30000000000E+02  0.30000000000E+02  0.00000000000E+00 0.  1.
        -11   -1    0    0    0    0 -0.00000000000E+00 -0.00000000000E+00 -0.30000000000E+02  0.30000000000E+02  0.00000000000E+00 0. -1.
          5    1    1    2  501    0 -0.14789945307E+02 -0.10695662819E+02 -0.23340315222E+02  0.30000000000E+02  0.47000000000E+01 0. -1.
         -5    1    1    2    0  501  0.14789945307E+02  0.10695662819E+02  0.23340315222E+02  0.30000000000E+02  0.47000000000E+01 0.  1.
</event>
<event>
 4    1  0.7643770E-002  0.6000000E+02  0.7546771E-02  0.1259629E+00
         11   -1    0    0    0    0  0.00000000000E+00  0.00000000000E+00  0.30000000000E+02  0.30000000000E+02  0.00000000000E+00 0.  1.
        -11   -1    0    0    0    0 -0.00000000000E+00 -0.00000000000E+00 -0.30000000000E+02  0.30000000000E+02  0.00000000000E+00 0. -1.
          5    1    1    2  501    0  0.24449011356E+02  0.16239022690E+02  0.40558582044E+01  0.30000000000E+02  0.47000000000E+01 0. -1.
         -5    1    1    2    0  501 -0.24449011356E+02 -0.16239022690E+02 -0.40558582044E+01  0.30000000000E+02  0.47000000000E+01 0.  1.
</event>
<event>
 4    1  0.7643770E-002  0.6000000E+02  0.7546771E-02  0.1259629E+00
         11   -1    0    0    0    0  0.00000000000E+00  0.00000000000E+00  0.30000000000E+02  0.30000000000E+02  0.00000000000E+00 0.  1.
        -11   -1    0    0    0    0 -0.00000000000E+00 -0.00000000000E+00 -0.30000000000E+02  0.30000000000E+02  0.00000000000E+00 0. -1.
          5    1    1    2  501    0 -0.83155103868E+00  0.29232058537E+02 -0.47650054077E+01  0.30000000000E+02  0.47000000000E+01 0. -1.
         -5    1    1    2    0  501  0.83155103868E+00 -0.29232058537E+02  0.47650054077E+01  0.30000000000E+02  0.47000000000E+01 0.  1.
</event>
<event>
 4    1  0.7643770E-002  0.6000000E+02  0.7546771E-02  0.1259629E+00
         11   -1    0    0    0    0  0.00000000000E+00  0.00000000000E+00  0.30000000000E+02  0.30000000000E+02  0.00000000000E+00 0. -1.
        -11   -1    0    0    0    0 -0.00000000000E+00 -0.00000000000E+00 -0.30000000000E+02  0.30000000000E+02  0.00000000000E+00 0.  1.
          5    1    1    2  501    0  0.12081416518E+02  0.16804043669E+02 -0.21203148146E+02  0.30000000000E+02  0.47000000000E+01 0.  1.
         -5    1    1    2    0  501 -0.12081416518E+02 -0.16804043669E+02  0.21203148146E+02  0.30000000000E+02  0.47000000000E+01 0. -1.
</event>
<event>
 4    1  0.7643770E-002  0.6000000E+02  0.7546771E-02  0.1259629E+00
         11   -1    0    0    0    0  0.00000000000E+00  0.00000000000E+00  0.30000000000E+02  0.30000000000E+02  0.00000000000E+00 0.  1.
        -11   -1    0    0    0    0 -0.00000000000E+00 -0.00000000000E+00 -0.30000000000E+02  0.30000000000E+02  0.00000000000E+00 0. -1.
          5    1    1    2  501    0 -0.15588143704E+02  0.21666271620E+02 -0.12864386885E+02  0.30000000000E+02  0.47000000000E+01 0. -1.
         -5    1    1    2    0  501  0.15588143704E+02 -0.21666271620E+02  0.12864386885E+02  0.30000000000E+02  0.47000000000E+01 0.  1.
</event>
<event>
 4    1  0.7643770E-002  0.6000000E+02  0.7546771E-02  0.1259629E+00
         11   -1    0    0    0    0  0.00000000000E+00  0.00000000000E+00  0.30000000000E+02  0.30000000000E+02  0.00000000000E+00 0.  1.
        -11   -1    0    0    0    0 -0.00000000000E+00 -0.00000000000E+00 -0.30000000000E+02  0.30000000000E+02  0.00000000000E+00 0. -1.
          5    1    1    2  501    0 -0.25640036501E+02  0.14745889523E+02 -0.17485051901E+01  0.30000000000E+02  0.47000000000E+01 0. -1.
         -5    1    1    2    0  501  0.25640036501E+02 -0.14745889523E+02  0.17485051901E+01  0.30000000000E+02  0.47000000000E+01 0.  1.
</event>
<event>
 4    1  0.7643770E-002  0.6000000E+02  0.7546771E-02  0.1259629E+00
         11   -1    0    0    0    0  0.00000000000E+00  0.00000000000E+00  0.30000000000E+02  0.30000000000E+02  0.00000000000E+00 0.  1.
        -11   -1    0    0    0    0 -0.00000000000E+00 -0.00000000000E+00 -0.30000000000E+02  0.30000000000E+02  0.00000000000E+00 0. -1.
          5    1    1    2  501    0  0.28373206404E+02  0.44509461532E+01 -0.72842457870E+01  0.30000000000E+02  0.47000000000E+01 0. -1.
         -5    1    1    2    0  501 -0.28373206404E+02 -0.44509461532E+01  0.72842457870E+01  0.30000000000E+02  0.47000000000E+01 0.  1.
</event>
<event>
 4    1  0.7643770E-002  0.6000000E+02  0.7546771E-02  0.1259629E+00
         11   -1    0    0    0    0  0.00000000000E+00  0.00000000000E+00  0.30000000000E+02  0.30000000000E+02  0.00000000000E+00 0.  1.
        -11   -1    0    0    0    0 -0.00000000000E+00 -0.00000000000E+00 -0.30000000000E+02  0.30000000000E+02  0.00000000000E+00 0. -1.
          5    1    1    2  501    0 -0.89766946064E+01 -0.27253555507E+02 -0.73873314633E+01  0.30000000000E+02  0.47000000000E+01 0. -1.
         -5    1    1    2    0  501  0.89766946064E+01  0.27253555507E+02  0.73873314633E+01  0.30000000000E+02  0.47000000000E+01 0.  1.
</event>
<event>
 4    1  0.7643770E-002  0.6000000E+02  0.7546771E-02  0.1259629E+00
         11   -1    0    0    0    0  0.00000000000E+00  0.00000000000E+00  0.30000000000E+02  0.30000000000E+02  0.00000000000E+00 0.  1.
        -11   -1    0    0    0    0 -0.00000000000E+00 -0.00000000000E+00 -0.30000000000E+02  0.30000000000E+02  0.00000000000E+00 0. -1.
          5    1    1    2  501    0  0.11811662959E+02  0.27173160363E+02 -0.11821168897E+00  0.30000000000E+02  0.47000000000E+01 0. -1.
         -5    1    1    2    0  501 -0.11811662959E+02 -0.27173160363E+02  0.11821168897E+00  0.30000000000E+02  0.47000000000E+01 0.  1.
</event>
<event>
 4    1  0.7643770E-002  0.6000000E+02  0.7546771E-02  0.1259629E+00
         11   -1    0    0    0    0  0.00000000000E+00  0.00000000000E+00  0.30000000000E+02  0.30000000000E+02  0.00000000000E+00 0. -1.
        -11   -1    0    0    0    0 -0.00000000000E+00 -0.00000000000E+00 -0.30000000000E+02  0.30000000000E+02  0.00000000000E+00 0.  1.
          5    1    1    2  501    0  0.24810246322E+02 -0.37061193729E+01 -0.15767890050E+02  0.30000000000E+02  0.47000000000E+01 0.  1.
         -5    1    1    2    0  501 -0.24810246322E+02  0.37061193729E+01  0.15767890050E+02  0.30000000000E+02  0.47000000000E+01 0. -1.
</event>
<event>
 4    1  0.7643770E-002  0.6000000E+02  0.7546771E-02  0.1259629E+00
         11   -1    0    0    0    0  0.00000000000E+00  0.00000000000E+00  0.30000000000E+02  0.30000000000E+02  0.00000000000E+00 0.  1.
        -11   -1    0    0    0    0 -0.00000000000E+00 -0.00000000000E+00 -0.30000000000E+02  0.30000000000E+02  0.00000000000E+00 0. -1.
          5    1    1    2  501    0 -0.28099529141E+01  0.17731972795E+02 -0.23570984397E+02  0.30000000000E+02  0.47000000000E+01 0. -1.
         -5    1    1    2    0  501  0.28099529141E+01 -0.17731972795E+02  0.23570984397E+02  0.30000000000E+02  0.47000000000E+01 0.  1.
</event>
<event>
 4    1  0.7643770E-002  0.6000000E+02  0.7546771E-02  0.1259629E+00
         11   -1    0    0    0    0  0.00000000000E+00  0.00000000000E+00  0.30000000000E+02  0.30000000000E+02  0.00000000000E+00 0. -1.
        -11   -1    0    0    0    0 -0.00000000000E+00 -0.00000000000E+00 -0.30000000000E+02  0.30000000000E+02  0.00000000000E+00 0.  1.
          5    1    1    2  501    0  0.85483946534E+01  0.11359815166E+00  0.28369385688E+02  0.30000000000E+02  0.47000000000E+01 0. -1.
         -5    1    1    2    0  501 -0.85483946534E+01 -0.11359815166E+00 -0.28369385688E+02  0.30000000000E+02  0.47000000000E+01 0.  1.
</event>
<event>
 4    1  0.7643770E-002  0.6000000E+02  0.7546771E-02  0.1259629E+00
         11   -1    0    0    0    0  0.00000000000E+00  0.00000000000E+00  0.30000000000E+02  0.30000000000E+02  0.00000000000E+00 0.  1.
        -11   -1    0    0    0    0 -0.00000000000E+00 -0.00000000000E+00 -0.30000000000E+02  0.30000000000E+02  0.00000000000E+00 0. -1.
          5    1    1    2  501    0  0.25876872988E+02  0.31314082955E+01 -0.14088709183E+02  0.30000000000E+02  0.47000000000E+01 0. -1.
         -5    1    1    2    0  501 -0.25876872988E+02 -0.31314082955E+01  0.14088709183E+02  0.30000000000E+02  0.47000000000E+01 0.  1.
</event>
<event>
 4    1  0.7643770E-002  0.6000000E+02  0.7546771E-02  0.1259629E+00
         11   -1    0    0    0    0  0.00000000000E+00  0.00000000000E+00  0.30000000000E+02  0.30000000000E+02  0.00000000000E+00 0.  1.
        -11   -1    0    0    0    0 -0.00000000000E+00 -0.00000000000E+00 -0.30000000000E+02  0.30000000000E+02  0.00000000000E+00 0. -1.
          5    1    1    2  501    0 -0.12630822826E+02  0.21600770109E+02 -0.15867546926E+02  0.30000000000E+02  0.47000000000E+01 0. -1.
         -5    1    1    2    0  501  0.12630822826E+02 -0.21600770109E+02  0.15867546926E+02  0.30000000000E+02  0.47000000000E+01 0.  1.
</event>
<event>
 4    1  0.7643770E-002  0.6000000E+02  0.7546771E-02  0.1259629E+00
         11   -1    0    0    0    0  0.00000000000E+00  0.00000000000E+00  0.30000000000E+02  0.30000000000E+02  0.00000000000E+00 0.  1.
        -11   -1    0    0    0    0 -0.00000000000E+00 -0.00000000000E+00 -0.30000000000E+02  0.30000000000E+02  0.00000000000E+00 0. -1.
          5    1    1    2  501    0 -0.11930927006E+01  0.15074317049E+02 -0.25480413955E+02  0.30000000000E+02  0.47000000000E+01 0. -1.
         -5    1    1    2    0  501  0.11930927006E+01 -0.15074317049E+02  0.25480413955E+02  0.30000000000E+02  0.47000000000E+01 0.  1.
</event>
<event>
 4    1  0.7643770E-002  0.6000000E+02  0.7546771E-02  0.1259629E+00
         11   -1    0    0    0    0  0.00000000000E+00  0.00000000000E+00  0.30000000000E+02  0.30000000000E+02  0.00000000000E+00 0.  1.
        -11   -1    0    0    0    0 -0.00000000000E+00 -0.00000000000E+00 -0.30000000000E+02  0.30000000000E+02  0.00000000000E+00 0. -1.
          5    1    1    2  501    0 -0.22481475197E+01  0.29534641924E+02 -0.74883851685E+00  0.30000000000E+02  0.47000000000E+01 0. -1.
         -5    1    1    2    0  501  0.22481475197E+01 -0.29534641924E+02  0.74883851685E+00  0.30000000000E+02  0.47000000000E+01 0.  1.
</event>
<event>
 4    1  0.7643770E-002  0.6000000E+02  0.7546771E-02  0.1259629E+00
         11   -1    0    0    0    0  0.00000000000E+00  0.00000000000E+00  0.30000000000E+02  0.30000000000E+02  0.00000000000E+00 0. -1.
        -11   -1    0    0    0    0 -0.00000000000E+00 -0.00000000000E+00 -0.30000000000E+02  0.30000000000E+02  0.00000000000E+00 0.  1.
          5    1    1    2  501    0  0.26128004414E+02  0.11167115034E+02  0.83983883666E+01  0.30000000000E+02  0.47000000000E+01 0.  1.
         -5    1    1    2    0  501 -0.26128004414E+02 -0.11167115034E+02 -0.83983883666E+01  0.30000000000E+02  0.47000000000E+01 0. -1.
</event>
<event>
 4    1  0.7643770E-002  0.6000000E+02  0.7546771E-02  0.1259629E+00
         11   -1    0    0    0    0  0.00000000000E+00  0.00000000000E+00  0.30000000000E+02  0.30000000000E+02  0.00000000000E+00 0.  1.
        -11   -1    0    0    0    0 -0.00000000000E+00 -0.00000000000E+00 -0.30000000000E+02  0.30000000000E+02  0.00000000000E+00 0. -1.
          5    1    1    2  501    0 -0.63319302307E+01  0.28518014541E+02  0.49537365885E+01  0.30000000000E+02  0.47000000000E+01 0. -1.
         -5    1    1    2    0  501  0.63319302307E+01 -0.28518014541E+02 -0.49537365885E+01  0.30000000000E+02  0.47000000000E+01 0.  1.
</event>
<event>
 4    1  0.7643770E-002  0.6000000E+02  0.7546771E-02  0.1259629E+00
         11   -1    0    0    0    0  0.00000000000E+00  0.00000000000E+00  0.30000000000E+02  0.30000000000E+02  0.00000000000E+00 0.  1.
        -11   -1    0    0    0    0 -0.00000000000E+00 -0.00000000000E+00 -0.30000000000E+02  0.30000000000E+02  0.00000000000E+00 0. -1.
          5    1    1    2  501    0 -0.96236739986E+01  0.23120895990E+02  0.15834110880E+02  0.30000000000E+02  0.47000000000E+01 0. -1.
         -5    1    1    2    0  501  0.96236739986E+01 -0.23120895990E+02 -0.15834110880E+02  0.30000000000E+02  0.47000000000E+01 0.  1.
</event>
<event>
 4    1  0.7643770E-002  0.6000000E+02  0.7546771E-02  0.1259629E+00
         11   -1    0    0    0    0  0.00000000000E+00  0.00000000000E+00  0.30000000000E+02  0.30000000000E+02  0.00000000000E+00 0.  1.
        -11   -1    0    0    0    0 -0.00000000000E+00 -0.00000000000E+00 -0.30000000000E+02  0.30000000000E+02  0.00000000000E+00 0. -1.
          5    1    1    2  501    0 -0.12111037947E+02 -0.21923482688E+02 -0.15830150558E+02  0.30000000000E+02  0.47000000000E+01 0. -1.
         -5    1    1    2    0  501  0.12111037947E+02  0.21923482688E+02  0.15830150558E+02  0.30000000000E+02  0.47000000000E+01 0.  1.
</event>
<event>
 4    1  0.7643770E-002  0.6000000E+02  0.7546771E-02  0.1259629E+00
         11   -1    0    0    0    0  0.00000000000E+00  0.00000000000E+00  0.30000000000E+02  0.30000000000E+02  0.00000000000E+00 0.  1.
        -11   -1    0    0    0    0 -0.00000000000E+00 -0.00000000000E+00 -0.30000000000E+02  0.30000000000E+02  0.00000000000E+00 0. -1.
          5    1    1    2  501    0  0.70916745596E+01 -0.17216861573E+02 -0.23047729379E+02  0.30000000000E+02  0.47000000000E+01 0. -1.
         -5    1    1    2    0  501 -0.70916745596E+01  0.17216861573E+02  0.23047729379E+02  0.30000000000E+02  0.47000000000E+01 0.  1.
</event>
<event>
 4    1  0.7643770E-002  0.6000000E+02  0.7546771E-02  0.1259629E+00
         11   -1    0    0    0    0  0.00000000000E+00  0.00000000000E+00  0.30000000000E+02  0.30000000000E+02  0.00000000000E+00 0.  1.
        -11   -1    0    0    0    0 -0.00000000000E+00 -0.00000000000E+00 -0.30000000000E+02  0.30000000000E+02  0.00000000000E+00 0. -1.
          5    1    1    2  501    0 -0.26245101830E+02  0.10733508563E+02 -0.85963029180E+01  0.30000000000E+02  0.47000000000E+01 0. -1.
         -5    1    1    2    0  501  0.26245101830E+02 -0.10733508563E+02  0.85963029180E+01  0.30000000000E+02  0.47000000000E+01 0.  1.
</event>
<event>
 4    1  0.7643770E-002  0.6000000E+02  0.7546771E-02  0.1259629E+00
         11   -1    0    0    0    0  0.00000000000E+00  0.00000000000E+00  0.30000000000E+02  0.30000000000E+02  0.00000000000E+00 0.  1.
        -11   -1    0    0    0    0 -0.00000000000E+00 -0.00000000000E+00 -0.30000000000E+02  0.30000000000E+02  0.00000000000E+00 0. -1.
          5    1    1    2  501    0 -0.75760805049E+01 -0.21331577503E+02 -0.19117447670E+02  0.30000000000E+02  0.47000000000E+01 0. -1.
         -5    1    1    2    0  501  0.75760805049E+01  0.21331577503E+02  0.19117447670E+02  0.30000000000E+02  0.47000000000E+01 0.  1.
</event>
<event>
 4    1  0.7643770E-002  0.6000000E+02  0.7546771E-02  0.1259629E+00
         11   -1    0    0    0    0  0.00000000000E+00  0.00000000000E+00  0.30000000000E+02  0.30000000000E+02  0.00000000000E+00 0.  1.
        -11   -1    0    0    0    0 -0.00000000000E+00 -0.00000000000E+00 -0.30000000000E+02  0.30000000000E+02  0.00000000000E+00 0. -1.
          5    1    1    2  501    0 -0.28758383835E+02 -0.39350210583E+00 -0.71211316017E+01  0.30000000000E+02  0.47000000000E+01 0.  1.
         -5    1    1    2    0  501  0.28758383835E+02  0.39350210583E+00  0.71211316017E+01  0.30000000000E+02  0.47000000000E+01 0. -1.
</event>
<event>
 4    1  0.7643770E-002  0.6000000E+02  0.7546771E-02  0.1259629E+00
         11   -1    0    0    0    0  0.00000000000E+00  0.00000000000E+00  0.30000000000E+02  0.30000000000E+02  0.00000000000E+00 0.  1.
        -11   -1    0    0    0    0 -0.00000000000E+00 -0.00000000000E+00 -0.30000000000E+02  0.30000000000E+02  0.00000000000E+00 0. -1.
          5    1    1    2  501    0 -0.62778201991E+01  0.79652153027E+01 -0.27839797390E+02  0.30000000000E+02  0.47000000000E+01 0. -1.
         -5    1    1    2    0  501  0.62778201991E+01 -0.79652153027E+01  0.27839797390E+02  0.30000000000E+02  0.47000000000E+01 0.  1.
</event>
<event>
 4    1  0.7643770E-002  0.6000000E+02  0.7546771E-02  0.1259629E+00
         11   -1    0    0    0    0  0.00000000000E+00  0.00000000000E+00  0.30000000000E+02  0.30000000000E+02  0.00000000000E+00 0. -1.
        -11   -1    0    0    0    0 -0.00000000000E+00 -0.00000000000E+00 -0.30000000000E+02  0.30000000000E+02  0.00000000000E+00 0.  1.
          5    1    1    2  501    0 -0.11891791133E+02  0.99671305990E+01 -0.25241862278E+02  0.30000000000E+02  0.47000000000E+01 0.  1.
         -5    1    1    2    0  501  0.11891791133E+02 -0.99671305990E+01  0.25241862278E+02  0.30000000000E+02  0.47000000000E+01 0. -1.
</event>
<event>
 4    1  0.7643770E-002  0.6000000E+02  0.7546771E-02  0.1259629E+00
         11   -1    0    0    0    0  0.00000000000E+00  0.00000000000E+00  0.30000000000E+02  0.30000000000E+02  0.00000000000E+00 0.  1.
        -11   -1    0    0    0    0 -0.00000000000E+00 -0.00000000000E+00 -0.30000000000E+02  0.30000000000E+02  0.00000000000E+00 0. -1.
          5    1    1    2  501    0 -0.91360372023E+01  0.12418469637E+02 -0.25302656701E+02  0.30000000000E+02  0.47000000000E+01 0. -1.
         -5    1    1    2    0  501  0.91360372023E+01 -0.12418469637E+02  0.25302656701E+02  0.30000000000E+02  0.47000000000E+01 0.  1.
</event>
<event>
 4    1  0.7643770E-002  0.6000000E+02  0.7546771E-02  0.1259629E+00
         11   -1    0    0    0    0  0.00000000000E+00  0.00000000000E+00  0.30000000000E+02  0.30000000000E+02  0.00000000000E+00 0. -1.
        -11   -1    0    0    0    0 -0.00000000000E+00 -0.00000000000E+00 -0.30000000000E+02  0.30000000000E+02  0.00000000000E+00 0.  1.
          5    1    1    2  501    0 -0.20108759148E+02  0.20711090737E+02 -0.66782127874E+01  0.30000000000E+02  0.47000000000E+01 0.  1.
         -5    1    1    2    0  501  0.20108759148E+02 -0.20711090737E+02  0.66782127874E+01  0.30000000000E+02  0.47000000000E+01 0. -1.
</event>
<event>
 4    1  0.7643770E-002  0.6000000E+02  0.7546771E-02  0.1259629E+00
         11   -1    0    0    0    0  0.00000000000E+00  0.00000000000E+00  0.30000000000E+02  0.30000000000E+02  0.00000000000E+00 0.  1.
        -11   -1    0    0    0    0 -0.00000000000E+00 -0.00000000000E+00 -0.30000000000E+02  0.30000000000E+02  0.00000000000E+00 0. -1.
          5    1    1    2  501    0  0.14544547939E+02 -0.25380903175E+02  0.47091272324E+01  0.30000000000E+02  0.47000000000E+01 0.  1.
         -5    1    1    2    0  501 -0.14544547939E+02  0.25380903175E+02 -0.47091272324E+01  0.30000000000E+02  0.47000000000E+01 0. -1.
</event>
<event>
 4    1  0.7643770E-002  0.6000000E+02  0.7546771E-02  0.1259629E+00
         11   -1    0    0    0    0  0.00000000000E+00  0.00000000000E+00  0.30000000000E+02  0.30000000000E+02  0.00000000000E+00 0. -1.
        -11   -1    0    0    0    0 -0.00000000000E+00 -0.00000000000E+00 -0.30000000000E+02  0.30000000000E+02  0.00000000000E+00 0.  1.
          5    1    1    2  501    0  0.14874460941E+02 -0.24124956152E+01 -0.25511571426E+02  0.30000000000E+02  0.47000000000E+01 0.  1.
         -5    1    1    2    0  501 -0.14874460941E+02  0.24124956152E+01  0.25511571426E+02  0.30000000000E+02  0.47000000000E+01 0. -1.
</event>
<event>
 4    1  0.7643770E-002  0.6000000E+02  0.7546771E-02  0.1259629E+00
         11   -1    0    0    0    0  0.00000000000E+00  0.00000000000E+00  0.30000000000E+02  0.30000000000E+02  0.00000000000E+00 0.  1.
        -11   -1    0    0    0    0 -0.00000000000E+00 -0.00000000000E+00 -0.30000000000E+02  0.30000000000E+02  0.00000000000E+00 0. -1.
          5    1    1    2  501    0 -0.26519799365E+02 -0.69366692334E+01  0.11246904534E+02  0.30000000000E+02  0.47000000000E+01 0.  1.
         -5    1    1    2    0  501  0.26519799365E+02  0.69366692334E+01 -0.11246904534E+02  0.30000000000E+02  0.47000000000E+01 0.  1.
</event>
<event>
 4    1  0.7643770E-002  0.6000000E+02  0.7546771E-02  0.1259629E+00
         11   -1    0    0    0    0  0.00000000000E+00  0.00000000000E+00  0.30000000000E+02  0.30000000000E+02  0.00000000000E+00 0.  1.
        -11   -1    0    0    0    0 -0.00000000000E+00 -0.00000000000E+00 -0.30000000000E+02  0.30000000000E+02  0.00000000000E+00 0. -1.
          5    1    1    2  501    0 -0.11878391343E+02 -0.14825870477E+02 -0.22737796368E+02  0.30000000000E+02  0.47000000000E+01 0. -1.
         -5    1    1    2    0  501  0.11878391343E+02  0.14825870477E+02  0.22737796368E+02  0.30000000000E+02  0.47000000000E+01 0.  1.
</event>
<event>
 4    1  0.7643770E-002  0.6000000E+02  0.7546771E-02  0.1259629E+00
         11   -1    0    0    0    0  0.00000000000E+00  0.00000000000E+00  0.30000000000E+02  0.30000000000E+02  0.00000000000E+00 0.  1.
        -11   -1    0    0    0    0 -0.00000000000E+00 -0.00000000000E+00 -0.30000000000E+02  0.30000000000E+02  0.00000000000E+00 0. -1.
          5    1    1    2  501    0  0.20237285996E+02  0.19905778585E+02 -0.84924810551E+01  0.30000000000E+02  0.47000000000E+01 0. -1.
         -5    1    1    2    0  501 -0.20237285996E+02 -0.19905778585E+02  0.84924810551E+01  0.30000000000E+02  0.47000000000E+01 0.  1.
</event>
<event>
 4    1  0.7643770E-002  0.6000000E+02  0.7546771E-02  0.1259629E+00
         11   -1    0    0    0    0  0.00000000000E+00  0.00000000000E+00  0.30000000000E+02  0.30000000000E+02  0.00000000000E+00 0.  1.
        -11   -1    0    0    0    0 -0.00000000000E+00 -0.00000000000E+00 -0.30000000000E+02  0.30000000000E+02  0.00000000000E+00 0. -1.
          5    1    1    2  501    0 -0.18271843416E+02  0.23302149158E+01 -0.23208184691E+02  0.30000000000E+02  0.47000000000E+01 0. -1.
         -5    1    1    2    0  501  0.18271843416E+02 -0.23302149158E+01  0.23208184691E+02  0.30000000000E+02  0.47000000000E+01 0.  1.
</event>
<event>
 4    1  0.7643770E-002  0.6000000E+02  0.7546771E-02  0.1259629E+00
         11   -1    0    0    0    0  0.00000000000E+00  0.00000000000E+00  0.30000000000E+02  0.30000000000E+02  0.00000000000E+00 0.  1.
        -11   -1    0    0    0    0 -0.00000000000E+00 -0.00000000000E+00 -0.30000000000E+02  0.30000000000E+02  0.00000000000E+00 0. -1.
          5    1    1    2  501    0  0.26811125725E+01  0.27702015042E+02  0.10164644508E+02  0.30000000000E+02  0.47000000000E+01 0. -1.
         -5    1    1    2    0  501 -0.26811125725E+01 -0.27702015042E+02 -0.10164644508E+02  0.30000000000E+02  0.47000000000E+01 0.  1.
</event>
<event>
 4    1  0.7643770E-002  0.6000000E+02  0.7546771E-02  0.1259629E+00
         11   -1    0    0    0    0  0.00000000000E+00  0.00000000000E+00  0.30000000000E+02  0.30000000000E+02  0.00000000000E+00 0. -1.
        -11   -1    0    0    0    0 -0.00000000000E+00 -0.00000000000E+00 -0.30000000000E+02  0.30000000000E+02  0.00000000000E+00 0.  1.
          5    1    1    2  501    0  0.24586329104E+02  0.29651986808E+01 -0.16267452719E+02  0.30000000000E+02  0.47000000000E+01 0.  1.
         -5    1    1    2    0  501 -0.24586329104E+02 -0.29651986808E+01  0.16267452719E+02  0.30000000000E+02  0.47000000000E+01 0. -1.
</event>
<event>
 4    1  0.7643770E-002  0.6000000E+02  0.7546771E-02  0.1259629E+00
         11   -1    0    0    0    0  0.00000000000E+00  0.00000000000E+00  0.30000000000E+02  0.30000000000E+02  0.00000000000E+00 0. -1.
        -11   -1    0    0    0    0 -0.00000000000E+00 -0.00000000000E+00 -0.30000000000E+02  0.30000000000E+02  0.00000000000E+00 0.  1.
          5    1    1    2  501    0 -0.59819958276E+00 -0.73647773775E+01 -0.28693417563E+02  0.30000000000E+02  0.47000000000E+01 0.  1.
         -5    1    1    2    0  501  0.59819958276E+00  0.73647773775E+01  0.28693417563E+02  0.30000000000E+02  0.47000000000E+01 0. -1.
</event>
<event>
 4    1  0.7643770E-002  0.6000000E+02  0.7546771E-02  0.1259629E+00
         11   -1    0    0    0    0  0.00000000000E+00  0.00000000000E+00  0.30000000000E+02  0.30000000000E+02  0.00000000000E+00 0.  1.
        -11   -1    0    0    0    0 -0.00000000000E+00 -0.00000000000E+00 -0.30000000000E+02  0.30000000000E+02  0.00000000000E+00 0. -1.
          5    1    1    2  501    0  0.84741342667E+01  0.26341977846E+02 -0.10592414815E+02  0.30000000000E+02  0.47000000000E+01 0. -1.
         -5    1    1    2    0  501 -0.84741342667E+01 -0.26341977846E+02  0.10592414815E+02  0.30000000000E+02  0.47000000000E+01 0.  1.
</event>
<event>
 4    1  0.7643770E-002  0.6000000E+02  0.7546771E-02  0.1259629E+00
         11   -1    0    0    0    0  0.00000000000E+00  0.00000000000E+00  0.30000000000E+02  0.30000000000E+02  0.00000000000E+00 0.  1.
        -11   -1    0    0    0    0 -0.00000000000E+00 -0.00000000000E+00 -0.30000000000E+02  0.30000000000E+02  0.00000000000E+00 0. -1.
          5    1    1    2  501    0 -0.29355077886E+02 -0.19461826389E+01  0.35216154598E+01  0.30000000000E+02  0.47000000000E+01 0. -1.
         -5    1    1    2    0  501  0.29355077886E+02  0.19461826389E+01 -0.35216154598E+01  0.30000000000E+02  0.47000000000E+01 0.  1.
</event>
<event>
 4    1  0.7643770E-002  0.6000000E+02  0.7546771E-02  0.1259629E+00
         11   -1    0    0    0    0  0.00000000000E+00  0.00000000000E+00  0.30000000000E+02  0.30000000000E+02  0.00000000000E+00 0. -1.
        -11   -1    0    0    0    0 -0.00000000000E+00 -0.00000000000E+00 -0.30000000000E+02  0.30000000000E+02  0.00000000000E+00 0.  1.
          5    1    1    2  501    0  0.10625725814E+02  0.26084060726E+01 -0.27535434783E+02  0.30000000000E+02  0.47000000000E+01 0.  1.
         -5    1    1    2    0  501 -0.10625725814E+02 -0.26084060726E+01  0.27535434783E+02  0.30000000000E+02  0.47000000000E+01 0. -1.
</event>
<event>
 4    1  0.7643770E-002  0.6000000E+02  0.7546771E-02  0.1259629E+00
         11   -1    0    0    0    0  0.00000000000E+00  0.00000000000E+00  0.30000000000E+02  0.30000000000E+02  0.00000000000E+00 0.  1.
        -11   -1    0    0    0    0 -0.00000000000E+00 -0.00000000000E+00 -0.30000000000E+02  0.30000000000E+02  0.00000000000E+00 0. -1.
          5    1    1    2  501    0 -0.24035370071E+01 -0.26025168742E+02 -0.13957922546E+02  0.30000000000E+02  0.47000000000E+01 0. -1.
         -5    1    1    2    0  501  0.24035370071E+01  0.26025168742E+02  0.13957922546E+02  0.30000000000E+02  0.47000000000E+01 0.  1.
</event>
<event>
 4    1  0.7643770E-002  0.6000000E+02  0.7546771E-02  0.1259629E+00
         11   -1    0    0    0    0  0.00000000000E+00  0.00000000000E+00  0.30000000000E+02  0.30000000000E+02  0.00000000000E+00 0. -1.
        -11   -1    0    0    0    0 -0.00000000000E+00 -0.00000000000E+00 -0.30000000000E+02  0.30000000000E+02  0.00000000000E+00 0.  1.
          5    1    1    2  501    0 -0.15573120867E+02  0.91415317815E+01 -0.23490855735E+02  0.30000000000E+02  0.47000000000E+01 0.  1.
         -5    1    1    2    0  501  0.15573120867E+02 -0.91415317815E+01  0.23490855735E+02  0.30000000000E+02  0.47000000000E+01 0. -1.
</event>
<event>
 4    1  0.7643770E-002  0.6000000E+02  0.7546771E-02  0.1259629E+00
         11   -1    0    0    0    0  0.00000000000E+00  0.00000000000E+00  0.30000000000E+02  0.30000000000E+02  0.00000000000E+00 0.  1.
        -11   -1    0    0    0    0 -0.00000000000E+00 -0.00000000000E+00 -0.30000000000E+02  0.30000000000E+02  0.00000000000E+00 0. -1.
          5    1    1    2  501    0  0.70040695162E+01 -0.51762844155E+01 -0.28320647766E+02  0.30000000000E+02  0.47000000000E+01 0. -1.
         -5    1    1    2    0  501 -0.70040695162E+01  0.51762844155E+01  0.28320647766E+02  0.30000000000E+02  0.47000000000E+01 0.  1.
</event>
<event>
 4    1  0.7643770E-002  0.6000000E+02  0.7546771E-02  0.1259629E+00
         11   -1    0    0    0    0  0.00000000000E+00  0.00000000000E+00  0.30000000000E+02  0.30000000000E+02  0.00000000000E+00 0.  1.
        -11   -1    0    0    0    0 -0.00000000000E+00 -0.00000000000E+00 -0.30000000000E+02  0.30000000000E+02  0.00000000000E+00 0. -1.
          5    1    1    2  501    0 -0.25030887270E+02 -0.14204623765E+02  0.70422543392E+01  0.30000000000E+02  0.47000000000E+01 0.  1.
         -5    1    1    2    0  501  0.25030887270E+02  0.14204623765E+02 -0.70422543392E+01  0.30000000000E+02  0.47000000000E+01 0. -1.
</event>
<event>
 4    1  0.7643770E-002  0.6000000E+02  0.7546771E-02  0.1259629E+00
         11   -1    0    0    0    0  0.00000000000E+00  0.00000000000E+00  0.30000000000E+02  0.30000000000E+02  0.00000000000E+00 0.  1.
        -11   -1    0    0    0    0 -0.00000000000E+00 -0.00000000000E+00 -0.30000000000E+02  0.30000000000E+02  0.00000000000E+00 0. -1.
          5    1    1    2  501    0  0.21438352311E+02  0.13618901690E+01 -0.20407163089E+02  0.30000000000E+02  0.47000000000E+01 0. -1.
         -5    1    1    2    0  501 -0.21438352311E+02 -0.13618901690E+01  0.20407163089E+02  0.30000000000E+02  0.47000000000E+01 0.  1.
</event>
<event>
 4    1  0.7643770E-002  0.6000000E+02  0.7546771E-02  0.1259629E+00
         11   -1    0    0    0    0  0.00000000000E+00  0.00000000000E+00  0.30000000000E+02  0.30000000000E+02  0.00000000000E+00 0.  1.
        -11   -1    0    0    0    0 -0.00000000000E+00 -0.00000000000E+00 -0.30000000000E+02  0.30000000000E+02  0.00000000000E+00 0. -1.
          5    1    1    2  501    0 -0.20456279709E+02 -0.37972559969E+01 -0.21095768945E+02  0.30000000000E+02  0.47000000000E+01 0. -1.
         -5    1    1    2    0  501  0.20456279709E+02  0.37972559969E+01  0.21095768945E+02  0.30000000000E+02  0.47000000000E+01 0.  1.
</event>
<event>
 4    1  0.7643770E-002  0.6000000E+02  0.7546771E-02  0.1259629E+00
         11   -1    0    0    0    0  0.00000000000E+00  0.00000000000E+00  0.30000000000E+02  0.30000000000E+02  0.00000000000E+00 0.  1.
        -11   -1    0    0    0    0 -0.00000000000E+00 -0.00000000000E+00 -0.30000000000E+02  0.30000000000E+02  0.00000000000E+00 0. -1.
          5    1    1    2  501    0  0.22079885470E+02  0.19533326416E+02 -0.29728465726E+01  0.30000000000E+02  0.47000000000E+01 0. -1.
         -5    1    1    2    0  501 -0.22079885470E+02 -0.19533326416E+02  0.29728465726E+01  0.30000000000E+02  0.47000000000E+01 0.  1.
</event>
<event>
 4    1  0.7643770E-002  0.6000000E+02  0.7546771E-02  0.1259629E+00
         11   -1    0    0    0    0  0.00000000000E+00  0.00000000000E+00  0.30000000000E+02  0.30000000000E+02  0.00000000000E+00 0.  1.
        -11   -1    0    0    0    0 -0.00000000000E+00 -0.00000000000E+00 -0.30000000000E+02  0.30000000000E+02  0.00000000000E+00 0. -1.
          5    1    1    2  501    0  0.93277352934E+01 -0.26438880895E+02 -0.95858714433E+01  0.30000000000E+02  0.47000000000E+01 0. -1.
         -5    1    1    2    0  501 -0.93277352934E+01  0.26438880895E+02  0.95858714433E+01  0.30000000000E+02  0.47000000000E+01 0.  1.
</event>
<event>
 4    1  0.7643770E-002  0.6000000E+02  0.7546771E-02  0.1259629E+00
         11   -1    0    0    0    0  0.00000000000E+00  0.00000000000E+00  0.30000000000E+02  0.30000000000E+02  0.00000000000E+00 0. -1.
        -11   -1    0    0    0    0 -0.00000000000E+00 -0.00000000000E+00 -0.30000000000E+02  0.30000000000E+02  0.00000000000E+00 0.  1.
          5    1    1    2  501    0 -0.12425093410E+02  0.97126258992E+01 -0.25083698928E+02  0.30000000000E+02  0.47000000000E+01 0.  1.
         -5    1    1    2    0  501  0.12425093410E+02 -0.97126258992E+01  0.25083698928E+02  0.30000000000E+02  0.47000000000E+01 0. -1.
</event>
<event>
 4    1  0.7643770E-002  0.6000000E+02  0.7546771E-02  0.1259629E+00
         11   -1    0    0    0    0  0.00000000000E+00  0.00000000000E+00  0.30000000000E+02  0.30000000000E+02  0.00000000000E+00 0. -1.
        -11   -1    0    0    0    0 -0.00000000000E+00 -0.00000000000E+00 -0.30000000000E+02  0.30000000000E+02  0.00000000000E+00 0.  1.
          5    1    1    2  501    0 -0.16987541267E+01 -0.41719439656E+01  0.29285134761E+02  0.30000000000E+02  0.47000000000E+01 0. -1.
         -5    1    1    2    0  501  0.16987541267E+01  0.41719439656E+01 -0.29285134761E+02  0.30000000000E+02  0.47000000000E+01 0.  1.
</event>
<event>
 4    1  0.7643770E-002  0.6000000E+02  0.7546771E-02  0.1259629E+00
         11   -1    0    0    0    0  0.00000000000E+00  0.00000000000E+00  0.30000000000E+02  0.30000000000E+02  0.00000000000E+00 0. -1.
        -11   -1    0    0    0    0 -0.00000000000E+00 -0.00000000000E+00 -0.30000000000E+02  0.30000000000E+02  0.00000000000E+00 0.  1.
          5    1    1    2  501    0 -0.18257502535E+01  0.23610950702E+01 -0.29478837597E+02  0.30000000000E+02  0.47000000000E+01 0.  1.
         -5    1    1    2    0  501  0.18257502535E+01 -0.23610950702E+01  0.29478837597E+02  0.30000000000E+02  0.47000000000E+01 0. -1.
</event>
<event>
 4    1  0.7643770E-002  0.6000000E+02  0.7546771E-02  0.1259629E+00
         11   -1    0    0    0    0  0.00000000000E+00  0.00000000000E+00  0.30000000000E+02  0.30000000000E+02  0.00000000000E+00 0. -1.
        -11   -1    0    0    0    0 -0.00000000000E+00 -0.00000000000E+00 -0.30000000000E+02  0.30000000000E+02  0.00000000000E+00 0.  1.
          5    1    1    2  501    0  0.22604546590E+02 -0.18878008730E+02  0.32504245635E+01  0.30000000000E+02  0.47000000000E+01 0.  1.
         -5    1    1    2    0  501 -0.22604546590E+02  0.18878008730E+02 -0.32504245635E+01  0.30000000000E+02  0.47000000000E+01 0. -1.
</event>
<event>
 4    1  0.7643770E-002  0.6000000E+02  0.7546771E-02  0.1259629E+00
         11   -1    0    0    0    0  0.00000000000E+00  0.00000000000E+00  0.30000000000E+02  0.30000000000E+02  0.00000000000E+00 0.  1.
        -11   -1    0    0    0    0 -0.00000000000E+00 -0.00000000000E+00 -0.30000000000E+02  0.30000000000E+02  0.00000000000E+00 0. -1.
          5    1    1    2  501    0  0.21587905783E+02  0.11380905750E+02 -0.16803193393E+02  0.30000000000E+02  0.47000000000E+01 0. -1.
         -5    1    1    2    0  501 -0.21587905783E+02 -0.11380905750E+02  0.16803193393E+02  0.30000000000E+02  0.47000000000E+01 0.  1.
</event>
<event>
 4    1  0.7643770E-002  0.6000000E+02  0.7546771E-02  0.1259629E+00
         11   -1    0    0    0    0  0.00000000000E+00  0.00000000000E+00  0.30000000000E+02  0.30000000000E+02  0.00000000000E+00 0.  1.
        -11   -1    0    0    0    0 -0.00000000000E+00 -0.00000000000E+00 -0.30000000000E+02  0.30000000000E+02  0.00000000000E+00 0. -1.
          5    1    1    2  501    0 -0.89419892693E+01 -0.26866467503E+02  0.87260387249E+01  0.30000000000E+02  0.47000000000E+01 0. -1.
         -5    1    1    2    0  501  0.89419892693E+01  0.26866467503E+02 -0.87260387249E+01  0.30000000000E+02  0.47000000000E+01 0.  1.
</event>
<event>
 4    1  0.7643770E-002  0.6000000E+02  0.7546771E-02  0.1259629E+00
         11   -1    0    0    0    0  0.00000000000E+00  0.00000000000E+00  0.30000000000E+02  0.30000000000E+02  0.00000000000E+00 0. -1.
        -11   -1    0    0    0    0 -0.00000000000E+00 -0.00000000000E+00 -0.30000000000E+02  0.30000000000E+02  0.00000000000E+00 0.  1.
          5    1    1    2  501    0  0.14693809776E+02  0.25042727158E+02  0.59045550851E+01  0.30000000000E+02  0.47000000000E+01 0.  1.
         -5    1    1    2    0  501 -0.14693809776E+02 -0.25042727158E+02 -0.59045550851E+01  0.30000000000E+02  0.47000000000E+01 0. -1.
</event>
<event>
 4    1  0.7643770E-002  0.6000000E+02  0.7546771E-02  0.1259629E+00
         11   -1    0    0    0    0  0.00000000000E+00  0.00000000000E+00  0.30000000000E+02  0.30000000000E+02  0.00000000000E+00 0.  1.
        -11   -1    0    0    0    0 -0.00000000000E+00 -0.00000000000E+00 -0.30000000000E+02  0.30000000000E+02  0.00000000000E+00 0. -1.
          5    1    1    2  501    0 -0.83731546748E+01 -0.20474626840E+01 -0.28347983656E+02  0.30000000000E+02  0.47000000000E+01 0. -1.
         -5    1    1    2    0  501  0.83731546748E+01  0.20474626840E+01  0.28347983656E+02  0.30000000000E+02  0.47000000000E+01 0.  1.
</event>
<event>
 4    1  0.7643770E-002  0.6000000E+02  0.7546771E-02  0.1259629E+00
         11   -1    0    0    0    0  0.00000000000E+00  0.00000000000E+00  0.30000000000E+02  0.30000000000E+02  0.00000000000E+00 0.  1.
        -11   -1    0    0    0    0 -0.00000000000E+00 -0.00000000000E+00 -0.30000000000E+02  0.30000000000E+02  0.00000000000E+00 0. -1.
          5    1    1    2  501    0  0.81056279954E+01 -0.27982348447E+02 -0.54034220812E+01  0.30000000000E+02  0.47000000000E+01 0. -1.
         -5    1    1    2    0  501 -0.81056279954E+01  0.27982348447E+02  0.54034220812E+01  0.30000000000E+02  0.47000000000E+01 0.  1.
</event>
<event>
 4    1  0.7643770E-002  0.6000000E+02  0.7546771E-02  0.1259629E+00
         11   -1    0    0    0    0  0.00000000000E+00  0.00000000000E+00  0.30000000000E+02  0.30000000000E+02  0.00000000000E+00 0. -1.
        -11   -1    0    0    0    0 -0.00000000000E+00 -0.00000000000E+00 -0.30000000000E+02  0.30000000000E+02  0.00000000000E+00 0.  1.
          5    1    1    2  501    0  0.25248533593E+02 -0.15269255009E+01  0.15430166878E+02  0.30000000000E+02  0.47000000000E+01 0.  1.
         -5    1    1    2    0  501 -0.25248533593E+02  0.15269255009E+01 -0.15430166878E+02  0.30000000000E+02  0.47000000000E+01 0. -1.
</event>
<event>
 4    1  0.7643770E-002  0.6000000E+02  0.7546771E-02  0.1259629E+00
         11   -1    0    0    0    0  0.00000000000E+00  0.00000000000E+00  0.30000000000E+02  0.30000000000E+02  0.00000000000E+00 0. -1.
        -11   -1    0    0    0    0 -0.00000000000E+00 -0.00000000000E+00 -0.30000000000E+02  0.30000000000E+02  0.00000000000E+00 0.  1.
          5    1    1    2  501    0 -0.20495092933E+02 -0.14671612717E+02 -0.15575780749E+02  0.30000000000E+02  0.47000000000E+01 0.  1.
         -5    1    1    2    0  501  0.20495092933E+02  0.14671612717E+02  0.15575780749E+02  0.30000000000E+02  0.47000000000E+01 0. -1.
</event>
<event>
 4    1  0.7643770E-002  0.6000000E+02  0.7546771E-02  0.1259629E+00
         11   -1    0    0    0    0  0.00000000000E+00  0.00000000000E+00  0.30000000000E+02  0.30000000000E+02  0.00000000000E+00 0.  1.
        -11   -1    0    0    0    0 -0.00000000000E+00 -0.00000000000E+00 -0.30000000000E+02  0.30000000000E+02  0.00000000000E+00 0. -1.
          5    1    1    2  501    0  0.23170488574E+02 -0.11520437149E+02 -0.14433225112E+02  0.30000000000E+02  0.47000000000E+01 0. -1.
         -5    1    1    2    0  501 -0.23170488574E+02  0.11520437149E+02  0.14433225112E+02  0.30000000000E+02  0.47000000000E+01 0.  1.
</event>
<event>
 4    1  0.7643770E-002  0.6000000E+02  0.7546771E-02  0.1259629E+00
         11   -1    0    0    0    0  0.00000000000E+00  0.00000000000E+00  0.30000000000E+02  0.30000000000E+02  0.00000000000E+00 0.  1.
        -11   -1    0    0    0    0 -0.00000000000E+00 -0.00000000000E+00 -0.30000000000E+02  0.30000000000E+02  0.00000000000E+00 0. -1.
          5    1    1    2  501    0  0.11963857714E+02 -0.26894829579E+02 -0.33829351908E+01  0.30000000000E+02  0.47000000000E+01 0. -1.
         -5    1    1    2    0  501 -0.11963857714E+02  0.26894829579E+02  0.33829351908E+01  0.30000000000E+02  0.47000000000E+01 0.  1.
</event>
<event>
 4    1  0.7643770E-002  0.6000000E+02  0.7546771E-02  0.1259629E+00
         11   -1    0    0    0    0  0.00000000000E+00  0.00000000000E+00  0.30000000000E+02  0.30000000000E+02  0.00000000000E+00 0.  1.
        -11   -1    0    0    0    0 -0.00000000000E+00 -0.00000000000E+00 -0.30000000000E+02  0.30000000000E+02  0.00000000000E+00 0. -1.
          5    1    1    2  501    0 -0.39110758857E+01  0.21356181056E+02 -0.20162515123E+02  0.30000000000E+02  0.47000000000E+01 0. -1.
         -5    1    1    2    0  501  0.39110758857E+01 -0.21356181056E+02  0.20162515123E+02  0.30000000000E+02  0.47000000000E+01 0.  1.
</event>
<event>
 4    1  0.7643770E-002  0.6000000E+02  0.7546771E-02  0.1259629E+00
         11   -1    0    0    0    0  0.00000000000E+00  0.00000000000E+00  0.30000000000E+02  0.30000000000E+02  0.00000000000E+00 0.  1.
        -11   -1    0    0    0    0 -0.00000000000E+00 -0.00000000000E+00 -0.30000000000E+02  0.30000000000E+02  0.00000000000E+00 0. -1.
          5    1    1    2  501    0 -0.10604025321E+02 -0.17540137655E+02  0.21396453399E+02  0.30000000000E+02  0.47000000000E+01 0.  1.
         -5    1    1    2    0  501  0.10604025321E+02  0.17540137655E+02 -0.21396453399E+02  0.30000000000E+02  0.47000000000E+01 0. -1.
</event>
<event>
 4    1  0.7643770E-002  0.6000000E+02  0.7546771E-02  0.1259629E+00
         11   -1    0    0    0    0  0.00000000000E+00  0.00000000000E+00  0.30000000000E+02  0.30000000000E+02  0.00000000000E+00 0.  1.
        -11   -1    0    0    0    0 -0.00000000000E+00 -0.00000000000E+00 -0.30000000000E+02  0.30000000000E+02  0.00000000000E+00 0. -1.
          5    1    1    2  501    0  0.11209716766E+02  0.67926249845E+01 -0.26572777345E+02  0.30000000000E+02  0.47000000000E+01 0. -1.
         -5    1    1    2    0  501 -0.11209716766E+02 -0.67926249845E+01  0.26572777345E+02  0.30000000000E+02  0.47000000000E+01 0.  1.
</event>
<event>
 4    1  0.7643770E-002  0.6000000E+02  0.7546771E-02  0.1259629E+00
         11   -1    0    0    0    0  0.00000000000E+00  0.00000000000E+00  0.30000000000E+02  0.30000000000E+02  0.00000000000E+00 0.  1.
        -11   -1    0    0    0    0 -0.00000000000E+00 -0.00000000000E+00 -0.30000000000E+02  0.30000000000E+02  0.00000000000E+00 0. -1.
          5    1    1    2  501    0 -0.20521875054E+02  0.41238052499E+01 -0.20970380887E+02  0.30000000000E+02  0.47000000000E+01 0. -1.
         -5    1    1    2    0  501  0.20521875054E+02 -0.41238052499E+01  0.20970380887E+02  0.30000000000E+02  0.47000000000E+01 0.  1.
</event>
<event>
 4    1  0.7643770E-002  0.6000000E+02  0.7546771E-02  0.1259629E+00
         11   -1    0    0    0    0  0.00000000000E+00  0.00000000000E+00  0.30000000000E+02  0.30000000000E+02  0.00000000000E+00 0.  1.
        -11   -1    0    0    0    0 -0.00000000000E+00 -0.00000000000E+00 -0.30000000000E+02  0.30000000000E+02  0.00000000000E+00 0. -1.
          5    1    1    2  501    0  0.19205766174E+02  0.14608590282E+02  0.17194116309E+02  0.30000000000E+02  0.47000000000E+01 0.  1.
         -5    1    1    2    0  501 -0.19205766174E+02 -0.14608590282E+02 -0.17194116309E+02  0.30000000000E+02  0.47000000000E+01 0. -1.
</event>
<event>
 4    1  0.7643770E-002  0.6000000E+02  0.7546771E-02  0.1259629E+00
         11   -1    0    0    0    0  0.00000000000E+00  0.00000000000E+00  0.30000000000E+02  0.30000000000E+02  0.00000000000E+00 0.  1.
        -11   -1    0    0    0    0 -0.00000000000E+00 -0.00000000000E+00 -0.30000000000E+02  0.30000000000E+02  0.00000000000E+00 0. -1.
          5    1    1    2  501    0 -0.89488271697E+01  0.56160360874E+01 -0.27681918845E+02  0.30000000000E+02  0.47000000000E+01 0. -1.
         -5    1    1    2    0  501  0.89488271697E+01 -0.56160360874E+01  0.27681918845E+02  0.30000000000E+02  0.47000000000E+01 0.  1.
</event>
<event>
 4    1  0.7643770E-002  0.6000000E+02  0.7546771E-02  0.1259629E+00
         11   -1    0    0    0    0  0.00000000000E+00  0.00000000000E+00  0.30000000000E+02  0.30000000000E+02  0.00000000000E+00 0.  1.
        -11   -1    0    0    0    0 -0.00000000000E+00 -0.00000000000E+00 -0.30000000000E+02  0.30000000000E+02  0.00000000000E+00 0. -1.
          5    1    1    2  501    0 -0.24831892589E+02 -0.13827663721E+02 -0.83715486295E+01  0.30000000000E+02  0.47000000000E+01 0. -1.
         -5    1    1    2    0  501  0.24831892589E+02  0.13827663721E+02  0.83715486295E+01  0.30000000000E+02  0.47000000000E+01 0.  1.
</event>
<event>
 4    1  0.7643770E-002  0.6000000E+02  0.7546771E-02  0.1259629E+00
         11   -1    0    0    0    0  0.00000000000E+00  0.00000000000E+00  0.30000000000E+02  0.30000000000E+02  0.00000000000E+00 0. -1.
        -11   -1    0    0    0    0 -0.00000000000E+00 -0.00000000000E+00 -0.30000000000E+02  0.30000000000E+02  0.00000000000E+00 0.  1.
          5    1    1    2  501    0  0.23047135818E+02 -0.62239032157E+00 -0.18610538974E+02  0.30000000000E+02  0.47000000000E+01 0.  1.
         -5    1    1    2    0  501 -0.23047135818E+02  0.62239032157E+00  0.18610538974E+02  0.30000000000E+02  0.47000000000E+01 0. -1.
</event>
<event>
 4    1  0.7643770E-002  0.6000000E+02  0.7546771E-02  0.1259629E+00
         11   -1    0    0    0    0  0.00000000000E+00  0.00000000000E+00  0.30000000000E+02  0.30000000000E+02  0.00000000000E+00 0. -1.
        -11   -1    0    0    0    0 -0.00000000000E+00 -0.00000000000E+00 -0.30000000000E+02  0.30000000000E+02  0.00000000000E+00 0.  1.
          5    1    1    2  501    0  0.98906024970E+01  0.26043259005E+02 -0.10091315209E+02  0.30000000000E+02  0.47000000000E+01 0.  1.
         -5    1    1    2    0  501 -0.98906024970E+01 -0.26043259005E+02  0.10091315209E+02  0.30000000000E+02  0.47000000000E+01 0. -1.
</event>
<event>
 4    1  0.7643770E-002  0.6000000E+02  0.7546771E-02  0.1259629E+00
         11   -1    0    0    0    0  0.00000000000E+00  0.00000000000E+00  0.30000000000E+02  0.30000000000E+02  0.00000000000E+00 0. -1.
        -11   -1    0    0    0    0 -0.00000000000E+00 -0.00000000000E+00 -0.30000000000E+02  0.30000000000E+02  0.00000000000E+00 0.  1.
          5    1    1    2  501    0 -0.18182138818E+02 -0.14415928471E+02 -0.18425548414E+02  0.30000000000E+02  0.47000000000E+01 0.  1.
         -5    1    1    2    0  501  0.18182138818E+02  0.14415928471E+02  0.18425548414E+02  0.30000000000E+02  0.47000000000E+01 0. -1.
</event>
<event>
 4    1  0.7643770E-002  0.6000000E+02  0.7546771E-02  0.1259629E+00
         11   -1    0    0    0    0  0.00000000000E+00  0.00000000000E+00  0.30000000000E+02  0.30000000000E+02  0.00000000000E+00 0.  1.
        -11   -1    0    0    0    0 -0.00000000000E+00 -0.00000000000E+00 -0.30000000000E+02  0.30000000000E+02  0.00000000000E+00 0. -1.
          5    1    1    2  501    0  0.11267668493E+02 -0.82459455333E+00 -0.27391051286E+02  0.30000000000E+02  0.47000000000E+01 0. -1.
         -5    1    1    2    0  501 -0.11267668493E+02  0.82459455333E+00  0.27391051286E+02  0.30000000000E+02  0.47000000000E+01 0.  1.
</event>
<event>
 4    1  0.7643770E-002  0.6000000E+02  0.7546771E-02  0.1259629E+00
         11   -1    0    0    0    0  0.00000000000E+00  0.00000000000E+00  0.30000000000E+02  0.30000000000E+02  0.00000000000E+00 0.  1.
        -11   -1    0    0    0    0 -0.00000000000E+00 -0.00000000000E+00 -0.30000000000E+02  0.30000000000E+02  0.00000000000E+00 0. -1.
          5    1    1    2  501    0 -0.13371524377E+02  0.21879887298E+02 -0.14845297830E+02  0.30000000000E+02  0.47000000000E+01 0. -1.
         -5    1    1    2    0  501  0.13371524377E+02 -0.21879887298E+02  0.14845297830E+02  0.30000000000E+02  0.47000000000E+01 0.  1.
</event>
<event>
 4    1  0.7643770E-002  0.6000000E+02  0.7546771E-02  0.1259629E+00
         11   -1    0    0    0    0  0.00000000000E+00  0.00000000000E+00  0.30000000000E+02  0.30000000000E+02  0.00000000000E+00 0.  1.
        -11   -1    0    0    0    0 -0.00000000000E+00 -0.00000000000E+00 -0.30000000000E+02  0.30000000000E+02  0.00000000000E+00 0. -1.
          5    1    1    2  501    0  0.22801330826E+01  0.14864201602E+02 -0.25529718053E+02  0.30000000000E+02  0.47000000000E+01 0. -1.
         -5    1    1    2    0  501 -0.22801330826E+01 -0.14864201602E+02  0.25529718053E+02  0.30000000000E+02  0.47000000000E+01 0.  1.
</event>
<event>
 4    1  0.7643770E-002  0.6000000E+02  0.7546771E-02  0.1259629E+00
         11   -1    0    0    0    0  0.00000000000E+00  0.00000000000E+00  0.30000000000E+02  0.30000000000E+02  0.00000000000E+00 0.  1.
        -11   -1    0    0    0    0 -0.00000000000E+00 -0.00000000000E+00 -0.30000000000E+02  0.30000000000E+02  0.00000000000E+00 0. -1.
          5    1    1    2  501    0  0.22347695860E+02 -0.12927535329E+02 -0.14538546010E+02  0.30000000000E+02  0.47000000000E+01 0. -1.
         -5    1    1    2    0  501 -0.22347695860E+02  0.12927535329E+02  0.14538546010E+02  0.30000000000E+02  0.47000000000E+01 0.  1.
</event>
<event>
 4    1  0.7643770E-002  0.6000000E+02  0.7546771E-02  0.1259629E+00
         11   -1    0    0    0    0  0.00000000000E+00  0.00000000000E+00  0.30000000000E+02  0.30000000000E+02  0.00000000000E+00 0.  1.
        -11   -1    0    0    0    0 -0.00000000000E+00 -0.00000000000E+00 -0.30000000000E+02  0.30000000000E+02  0.00000000000E+00 0. -1.
          5    1    1    2  501    0  0.11978520260E+02  0.23463034626E+02 -0.13561381143E+02  0.30000000000E+02  0.47000000000E+01 0. -1.
         -5    1    1    2    0  501 -0.11978520260E+02 -0.23463034626E+02  0.13561381143E+02  0.30000000000E+02  0.47000000000E+01 0.  1.
</event>
<event>
 4    1  0.7643770E-002  0.6000000E+02  0.7546771E-02  0.1259629E+00
         11   -1    0    0    0    0  0.00000000000E+00  0.00000000000E+00  0.30000000000E+02  0.30000000000E+02  0.00000000000E+00 0.  1.
        -11   -1    0    0    0    0 -0.00000000000E+00 -0.00000000000E+00 -0.30000000000E+02  0.30000000000E+02  0.00000000000E+00 0. -1.
          5    1    1    2  501    0 -0.12555159066E+02 -0.25932851875E+02 -0.69112353788E+01  0.30000000000E+02  0.47000000000E+01 0. -1.
         -5    1    1    2    0  501  0.12555159066E+02  0.25932851875E+02  0.69112353788E+01  0.30000000000E+02  0.47000000000E+01 0.  1.
</event>
<event>
 4    1  0.7643770E-002  0.6000000E+02  0.7546771E-02  0.1259629E+00
         11   -1    0    0    0    0  0.00000000000E+00  0.00000000000E+00  0.30000000000E+02  0.30000000000E+02  0.00000000000E+00 0.  1.
        -11   -1    0    0    0    0 -0.00000000000E+00 -0.00000000000E+00 -0.30000000000E+02  0.30000000000E+02  0.00000000000E+00 0. -1.
          5    1    1    2  501    0 -0.20500829198E+02 -0.71695435094E+01 -0.20154990649E+02  0.30000000000E+02  0.47000000000E+01 0. -1.
         -5    1    1    2    0  501  0.20500829198E+02  0.71695435094E+01  0.20154990649E+02  0.30000000000E+02  0.47000000000E+01 0.  1.
</event>
<event>
 4    1  0.7643770E-002  0.6000000E+02  0.7546771E-02  0.1259629E+00
         11   -1    0    0    0    0  0.00000000000E+00  0.00000000000E+00  0.30000000000E+02  0.30000000000E+02  0.00000000000E+00 0.  1.
        -11   -1    0    0    0    0 -0.00000000000E+00 -0.00000000000E+00 -0.30000000000E+02  0.30000000000E+02  0.00000000000E+00 0. -1.
          5    1    1    2  501    0 -0.21361363392E+01 -0.28544337111E+02  0.76529563180E+01  0.30000000000E+02  0.47000000000E+01 0. -1.
         -5    1    1    2    0  501  0.21361363392E+01  0.28544337111E+02 -0.76529563180E+01  0.30000000000E+02  0.47000000000E+01 0.  1.
</event>
<event>
 4    1  0.7643770E-002  0.6000000E+02  0.7546771E-02  0.1259629E+00
         11   -1    0    0    0    0  0.00000000000E+00  0.00000000000E+00  0.30000000000E+02  0.30000000000E+02  0.00000000000E+00 0.  1.
        -11   -1    0    0    0    0 -0.00000000000E+00 -0.00000000000E+00 -0.30000000000E+02  0.30000000000E+02  0.00000000000E+00 0. -1.
          5    1    1    2  501    0  0.25544688450E+02 -0.12500067458E+02 -0.83142772112E+01  0.30000000000E+02  0.47000000000E+01 0. -1.
         -5    1    1    2    0  501 -0.25544688450E+02  0.12500067458E+02  0.83142772112E+01  0.30000000000E+02  0.47000000000E+01 0.  1.
</event>
<event>
 4    1  0.7643770E-002  0.6000000E+02  0.7546771E-02  0.1259629E+00
         11   -1    0    0    0    0  0.00000000000E+00  0.00000000000E+00  0.30000000000E+02  0.30000000000E+02  0.00000000000E+00 0. -1.
        -11   -1    0    0    0    0 -0.00000000000E+00 -0.00000000000E+00 -0.30000000000E+02  0.30000000000E+02  0.00000000000E+00 0.  1.
          5    1    1    2  501    0 -0.88851363623E+01 -0.12029561544E+02 -0.25578389333E+02  0.30000000000E+02  0.47000000000E+01 0.  1.
         -5    1    1    2    0  501  0.88851363623E+01  0.12029561544E+02  0.25578389333E+02  0.30000000000E+02  0.47000000000E+01 0. -1.
</event>
<event>
 4    1  0.7643770E-002  0.6000000E+02  0.7546771E-02  0.1259629E+00
         11   -1    0    0    0    0  0.00000000000E+00  0.00000000000E+00  0.30000000000E+02  0.30000000000E+02  0.00000000000E+00 0.  1.
        -11   -1    0    0    0    0 -0.00000000000E+00 -0.00000000000E+00 -0.30000000000E+02  0.30000000000E+02  0.00000000000E+00 0. -1.
          5    1    1    2  501    0 -0.21117617185E+02 -0.16452652364E+02  0.12699073770E+02  0.30000000000E+02  0.47000000000E+01 0. -1.
         -5    1    1    2    0  501  0.21117617185E+02  0.16452652364E+02 -0.12699073770E+02  0.30000000000E+02  0.47000000000E+01 0.  1.
</event>
<event>
 4    1  0.7643770E-002  0.6000000E+02  0.7546771E-02  0.1259629E+00
         11   -1    0    0    0    0  0.00000000000E+00  0.00000000000E+00  0.30000000000E+02  0.30000000000E+02  0.00000000000E+00 0.  1.
        -11   -1    0    0    0    0 -0.00000000000E+00 -0.00000000000E+00 -0.30000000000E+02  0.30000000000E+02  0.00000000000E+00 0. -1.
          5    1    1    2  501    0 -0.12422809603E+02 -0.21825880284E+02 -0.15723064312E+02  0.30000000000E+02  0.47000000000E+01 0. -1.
         -5    1    1    2    0  501  0.12422809603E+02  0.21825880284E+02  0.15723064312E+02  0.30000000000E+02  0.47000000000E+01 0.  1.
</event>
<event>
 4    1  0.7643770E-002  0.6000000E+02  0.7546771E-02  0.1259629E+00
         11   -1    0    0    0    0  0.00000000000E+00  0.00000000000E+00  0.30000000000E+02  0.30000000000E+02  0.00000000000E+00 0. -1.
        -11   -1    0    0    0    0 -0.00000000000E+00 -0.00000000000E+00 -0.30000000000E+02  0.30000000000E+02  0.00000000000E+00 0.  1.
          5    1    1    2  501    0  0.97280327239E+01 -0.66724988750E+01 -0.27180013578E+02  0.30000000000E+02  0.47000000000E+01 0.  1.
         -5    1    1    2    0  501 -0.97280327239E+01  0.66724988750E+01  0.27180013578E+02  0.30000000000E+02  0.47000000000E+01 0. -1.
</event>
<event>
 4    1  0.7643770E-002  0.6000000E+02  0.7546771E-02  0.1259629E+00
         11   -1    0    0    0    0  0.00000000000E+00  0.00000000000E+00  0.30000000000E+02  0.30000000000E+02  0.00000000000E+00 0. -1.
        -11   -1    0    0    0    0 -0.00000000000E+00 -0.00000000000E+00 -0.30000000000E+02  0.30000000000E+02  0.00000000000E+00 0.  1.
          5    1    1    2  501    0 -0.97499245441E+00 -0.27345618090E+02  0.11365586697E+02  0.30000000000E+02  0.47000000000E+01 0.  1.
         -5    1    1    2    0  501  0.97499245441E+00  0.27345618090E+02 -0.11365586697E+02  0.30000000000E+02  0.47000000000E+01 0. -1.
</event>
<event>
 4    1  0.7643770E-002  0.6000000E+02  0.7546771E-02  0.1259629E+00
         11   -1    0    0    0    0  0.00000000000E+00  0.00000000000E+00  0.30000000000E+02  0.30000000000E+02  0.00000000000E+00 0.  1.
        -11   -1    0    0    0    0 -0.00000000000E+00 -0.00000000000E+00 -0.30000000000E+02  0.30000000000E+02  0.00000000000E+00 0. -1.
          5    1    1    2  501    0 -0.82375782737E+01 -0.25492258350E+02 -0.12656898057E+02  0.30000000000E+02  0.47000000000E+01 0. -1.
         -5    1    1    2    0  501  0.82375782737E+01  0.25492258350E+02  0.12656898057E+02  0.30000000000E+02  0.47000000000E+01 0.  1.
</event>
<event>
 4    1  0.7643770E-002  0.6000000E+02  0.7546771E-02  0.1259629E+00
         11   -1    0    0    0    0  0.00000000000E+00  0.00000000000E+00  0.30000000000E+02  0.30000000000E+02  0.00000000000E+00 0.  1.
        -11   -1    0    0    0    0 -0.00000000000E+00 -0.00000000000E+00 -0.30000000000E+02  0.30000000000E+02  0.00000000000E+00 0. -1.
          5    1    1    2  501    0  0.23300452616E+02  0.12614996276E+02 -0.13261250953E+02  0.30000000000E+02  0.47000000000E+01 0. -1.
         -5    1    1    2    0  501 -0.23300452616E+02 -0.12614996276E+02  0.13261250953E+02  0.30000000000E+02  0.47000000000E+01 0.  1.
</event>
