<event>
 5    1  0.9071520E-001  0.1000000E+03  0.7546771E-02  0.1163815E+00
         11   -1    0    0    0    0  0.00000000000E+00  0.00000000000E+00  0.50000000000E+02  0.50000000000E+02  0.00000000000E+00 0. -1.
        -11   -1    0    0    0    0 -0.00000000000E+00 -0.00000000000E+00 -0.50000000000E+02  0.50000000000E+02  0.00000000000E+00 0.  1.
         23    2    1    2    0    0  0.00000000000E+00  0.00000000000E+00  0.00000000000E+00  0.10000000000E+03  0.10000000000E+03 0.  0.
          5    1    3    3  501    0 -0.65200717662E+01  0.86170861261E+01  0.48591609264E+02  0.50000000000E+02  0.47000000000E+01 0. -1.
         -5    1    3    3    0  501  0.65200717662E+01 -0.86170861261E+01 -0.48591609264E+02  0.50000000000E+02  0.47000000000E+01 0.  1.
</event>
<event>
 5    1  0.9071520E-001  0.1000000E+03  0.7546771E-02  0.1163815E+00
         11   -1    0    0    0    0  0.00000000000E+00  0.00000000000E+00  0.50000000000E+02  0.50000000000E+02  0.00000000000E+00 0.  1.
        -11   -1    0    0    0    0 -0.00000000000E+00 -0.00000000000E+00 -0.50000000000E+02  0.50000000000E+02  0.00000000000E+00 0. -1.
         23    2    1    2    0    0  0.00000000000E+00  0.00000000000E+00  0.00000000000E+00  0.10000000000E+03  0.10000000000E+03 0.  0.
          5    1    3    3  501    0 -0.49035551868E+01 -0.97956522274E+01 -0.48558318999E+02  0.50000000000E+02  0.47000000000E+01 0. -1.
         -5    1    3    3    0  501  0.49035551868E+01  0.97956522274E+01  0.48558318999E+02  0.50000000000E+02  0.47000000000E+01 0.  1.
</event>
<event>
 5    1  0.9071520E-001  0.1000000E+03  0.7546771E-02  0.1163815E+00
         11   -1    0    0    0    0  0.00000000000E+00  0.00000000000E+00  0.50000000000E+02  0.50000000000E+02  0.00000000000E+00 0. -1.
        -11   -1    0    0    0    0 -0.00000000000E+00 -0.00000000000E+00 -0.50000000000E+02  0.50000000000E+02  0.00000000000E+00 0.  1.
         23    2    1    2    0    0  0.00000000000E+00  0.00000000000E+00  0.00000000000E+00  0.10000000000E+03  0.10000000000E+03 0.  0.
          5    1    3    3  501    0 -0.17896271983E+02  0.22976322567E+02  0.40369816081E+02  0.50000000000E+02  0.47000000000E+01 0. -1.
         -5    1    3    3    0  501  0.17896271983E+02 -0.22976322567E+02 -0.40369816081E+02  0.50000000000E+02  0.47000000000E+01 0.  1.
</event>
<event>
 5    1  0.9071520E-001  0.1000000E+03  0.7546771E-02  0.1163815E+00
         11   -1    0    0    0    0  0.00000000000E+00  0.00000000000E+00  0.50000000000E+02  0.50000000000E+02  0.00000000000E+00 0. -1.
        -11   -1    0    0    0    0 -0.00000000000E+00 -0.00000000000E+00 -0.50000000000E+02  0.50000000000E+02  0.00000000000E+00 0.  1.
         23    2    1    2    0    0  0.00000000000E+00  0.00000000000E+00  0.00000000000E+00  0.10000000000E+03  0.10000000000E+03 0.  0.
          5    1    3    3  501    0  0.10929724733E+02 -0.39996199496E+02  0.27545510399E+02  0.50000000000E+02  0.47000000000E+01 0. -1.
         -5    1    3    3    0  501 -0.10929724733E+02  0.39996199496E+02 -0.27545510399E+02  0.50000000000E+02  0.47000000000E+01 0.  1.
</event>
<event>
 5    1  0.9071520E-001  0.1000000E+03  0.7546771E-02  0.1163815E+00
         11   -1    0    0    0    0  0.00000000000E+00  0.00000000000E+00  0.50000000000E+02  0.50000000000E+02  0.00000000000E+00 0. -1.
        -11   -1    0    0    0    0 -0.00000000000E+00 -0.00000000000E+00 -0.50000000000E+02  0.50000000000E+02  0.00000000000E+00 0.  1.
         23    2    1    2    0    0  0.00000000000E+00  0.00000000000E+00  0.00000000000E+00  0.10000000000E+03  0.10000000000E+03 0.  0.
          5    1    3    3  501    0  0.42114794496E+02 -0.11815149808E+02  0.23762498177E+02  0.50000000000E+02  0.47000000000E+01 0. -1.
         -5    1    3    3    0  501 -0.42114794496E+02  0.11815149808E+02 -0.23762498177E+02  0.50000000000E+02  0.47000000000E+01 0.  1.
</event>
<event>
 5    1  0.9071520E-001  0.1000000E+03  0.7546771E-02  0.1163815E+00
         11   -1    0    0    0    0  0.00000000000E+00  0.00000000000E+00  0.50000000000E+02  0.50000000000E+02  0.00000000000E+00 0. -1.
        -11   -1    0    0    0    0 -0.00000000000E+00 -0.00000000000E+00 -0.50000000000E+02  0.50000000000E+02  0.00000000000E+00 0.  1.
         23    2    1    2    0    0  0.00000000000E+00  0.00000000000E+00  0.00000000000E+00  0.10000000000E+03  0.10000000000E+03 0.  0.
          5    1    3    3  501    0  0.29120077823E+02  0.19624421110E+02  0.35281909864E+02  0.50000000000E+02  0.47000000000E+01 0. -1.
         -5    1    3    3    0  501 -0.29120077823E+02 -0.19624421110E+02 -0.35281909864E+02  0.50000000000E+02  0.47000000000E+01 0.  1.
</event>
<event>
 5    1  0.9071520E-001  0.1000000E+03  0.7546771E-02  0.1163815E+00
         11   -1    0    0    0    0  0.00000000000E+00  0.00000000000E+00  0.50000000000E+02  0.50000000000E+02  0.00000000000E+00 0. -1.
        -11   -1    0    0    0    0 -0.00000000000E+00 -0.00000000000E+00 -0.50000000000E+02  0.50000000000E+02  0.00000000000E+00 0.  1.
         23    2    1    2    0    0  0.00000000000E+00  0.00000000000E+00  0.00000000000E+00  0.10000000000E+03  0.10000000000E+03 0.  0.
          5    1    3    3  501    0  0.32281264376E+02  0.15717671945E+02  0.34478758083E+02  0.50000000000E+02  0.47000000000E+01 0. -1.
         -5    1    3    3    0  501 -0.32281264376E+02 -0.15717671945E+02 -0.34478758083E+02  0.50000000000E+02  0.47000000000E+01 0.  1.
</event>
<event>
 5    1  0.9071520E-001  0.1000000E+03  0.7546771E-02  0.1163815E+00
         11   -1    0    0    0    0  0.00000000000E+00  0.00000000000E+00  0.50000000000E+02  0.50000000000E+02  0.00000000000E+00 0. -1.
        -11   -1    0    0    0    0 -0.00000000000E+00 -0.00000000000E+00 -0.50000000000E+02  0.50000000000E+02  0.00000000000E+00 0.  1.
         23    2    1    2    0    0  0.00000000000E+00  0.00000000000E+00  0.00000000000E+00  0.10000000000E+03  0.10000000000E+03 0.  0.
          5    1    3    3  501    0 -0.28004424453E+02  0.33515902590E+02  0.23881927994E+02  0.50000000000E+02  0.47000000000E+01 0. -1.
         -5    1    3    3    0  501  0.28004424453E+02 -0.33515902590E+02 -0.23881927994E+02  0.50000000000E+02  0.47000000000E+01 0.  1.
</event>
<event>
 5    1  0.9071520E-001  0.1000000E+03  0.7546771E-02  0.1163815E+00
         11   -1    0    0    0    0  0.00000000000E+00  0.00000000000E+00  0.50000000000E+02  0.50000000000E+02  0.00000000000E+00 0. -1.
        -11   -1    0    0    0    0 -0.00000000000E+00 -0.00000000000E+00 -0.50000000000E+02  0.50000000000E+02  0.00000000000E+00 0.  1.
         23    2    1    2    0    0  0.00000000000E+00  0.00000000000E+00  0.00000000000E+00  0.10000000000E+03  0.10000000000E+03 0.  0.
          5    1    3    3  501    0  0.26117209977E+02 -0.41353015329E+02  0.92590208010E+01  0.50000000000E+02  0.47000000000E+01 0. -1.
         -5    1    3    3    0  501 -0.26117209977E+02  0.41353015329E+02 -0.92590208010E+01  0.50000000000E+02  0.47000000000E+01 0.  1.
</event>
<event>
 5    1  0.9071520E-001  0.1000000E+03  0.7546771E-02  0.1163815E+00
         11   -1    0    0    0    0  0.00000000000E+00  0.00000000000E+00  0.50000000000E+02  0.50000000000E+02  0.00000000000E+00 0.  1.
        -11   -1    0    0    0    0 -0.00000000000E+00 -0.00000000000E+00 -0.50000000000E+02  0.50000000000E+02  0.00000000000E+00 0. -1.
         23    2    1    2    0    0  0.00000000000E+00  0.00000000000E+00  0.00000000000E+00  0.10000000000E+03  0.10000000000E+03 0.  0.
          5    1    3    3  501    0  0.48536624548E+02 -0.78994883033E+01 -0.77268468364E+01  0.50000000000E+02  0.47000000000E+01 0. -1.
         -5    1    3    3    0  501 -0.48536624548E+02  0.78994883033E+01  0.77268468364E+01  0.50000000000E+02  0.47000000000E+01 0.  1.
</event>
<event>
 5    1  0.9071520E-001  0.1000000E+03  0.7546771E-02  0.1163815E+00
         11   -1    0    0    0    0  0.00000000000E+00  0.00000000000E+00  0.50000000000E+02  0.50000000000E+02  0.00000000000E+00 0. -1.
        -11   -1    0    0    0    0 -0.00000000000E+00 -0.00000000000E+00 -0.50000000000E+02  0.50000000000E+02  0.00000000000E+00 0.  1.
         23    2    1    2    0    0  0.00000000000E+00  0.00000000000E+00  0.00000000000E+00  0.10000000000E+03  0.10000000000E+03 0.  0.
          5    1    3    3  501    0 -0.20762652139E+02  0.17862394725E+02  0.41566298017E+02  0.50000000000E+02  0.47000000000E+01 0. -1.
         -5    1    3    3    0  501  0.20762652139E+02 -0.17862394725E+02 -0.41566298017E+02  0.50000000000E+02  0.47000000000E+01 0.  1.
</event>
<event>
 5    1  0.9071520E-001  0.1000000E+03  0.7546771E-02  0.1163815E+00
         11   -1    0    0    0    0  0.00000000000E+00  0.00000000000E+00  0.50000000000E+02  0.50000000000E+02  0.00000000000E+00 0. -1.
        -11   -1    0    0    0    0 -0.00000000000E+00 -0.00000000000E+00 -0.50000000000E+02  0.50000000000E+02  0.00000000000E+00 0.  1.
         23    2    1    2    0    0  0.00000000000E+00  0.00000000000E+00  0.00000000000E+00  0.10000000000E+03  0.10000000000E+03 0.  0.
          5    1    3    3  501    0  0.86308046234E+01  0.46295833147E+02 -0.16128082489E+02  0.50000000000E+02  0.47000000000E+01 0. -1.
         -5    1    3    3    0  501 -0.86308046234E+01 -0.46295833147E+02  0.16128082489E+02  0.50000000000E+02  0.47000000000E+01 0.  1.
</event>
<event>
 5    1  0.9071520E-001  0.1000000E+03  0.7546771E-02  0.1163815E+00
         11   -1    0    0    0    0  0.00000000000E+00  0.00000000000E+00  0.50000000000E+02  0.50000000000E+02  0.00000000000E+00 0.  1.
        -11   -1    0    0    0    0 -0.00000000000E+00 -0.00000000000E+00 -0.50000000000E+02  0.50000000000E+02  0.00000000000E+00 0. -1.
         23    2    1    2    0    0  0.00000000000E+00  0.00000000000E+00  0.00000000000E+00  0.10000000000E+03  0.10000000000E+03 0.  0.
          5    1    3    3  501    0  0.13687019030E+02  0.90513473613E+01 -0.46996261777E+02  0.50000000000E+02  0.47000000000E+01 0. -1.
         -5    1    3    3    0  501 -0.13687019030E+02 -0.90513473613E+01  0.46996261777E+02  0.50000000000E+02  0.47000000000E+01 0.  1.
</event>
<event>
 5    1  0.9071520E-001  0.1000000E+03  0.7546771E-02  0.1163815E+00
         11   -1    0    0    0    0  0.00000000000E+00  0.00000000000E+00  0.50000000000E+02  0.50000000000E+02  0.00000000000E+00 0. -1.
        -11   -1    0    0    0    0 -0.00000000000E+00 -0.00000000000E+00 -0.50000000000E+02  0.50000000000E+02  0.00000000000E+00 0.  1.
         23    2    1    2    0    0  0.00000000000E+00  0.00000000000E+00  0.00000000000E+00  0.10000000000E+03  0.10000000000E+03 0.  0.
          5    1    3    3  501    0 -0.38934740630E+01  0.32584722459E+02  0.37429757172E+02  0.50000000000E+02  0.47000000000E+01 0. -1.
         -5    1    3    3    0  501  0.38934740630E+01 -0.32584722459E+02 -0.37429757172E+02  0.50000000000E+02  0.47000000000E+01 0.  1.
</event>
<event>
 5    1  0.9071520E-001  0.1000000E+03  0.7546771E-02  0.1163815E+00
         11   -1    0    0    0    0  0.00000000000E+00  0.00000000000E+00  0.50000000000E+02  0.50000000000E+02  0.00000000000E+00 0. -1.
        -11   -1    0    0    0    0 -0.00000000000E+00 -0.00000000000E+00 -0.50000000000E+02  0.50000000000E+02  0.00000000000E+00 0.  1.
         23    2    1    2    0    0  0.00000000000E+00  0.00000000000E+00  0.00000000000E+00  0.10000000000E+03  0.10000000000E+03 0.  0.
          5    1    3    3  501    0  0.18838190853E+02 -0.18348991141E+02  0.42265199509E+02  0.50000000000E+02  0.47000000000E+01 0. -1.
         -5    1    3    3    0  501 -0.18838190853E+02  0.18348991141E+02 -0.42265199509E+02  0.50000000000E+02  0.47000000000E+01 0.  1.
</event>
<event>
 5    1  0.9071520E-001  0.1000000E+03  0.7546771E-02  0.1163815E+00
         11   -1    0    0    0    0  0.00000000000E+00  0.00000000000E+00  0.50000000000E+02  0.50000000000E+02  0.00000000000E+00 0. -1.
        -11   -1    0    0    0    0 -0.00000000000E+00 -0.00000000000E+00 -0.50000000000E+02  0.50000000000E+02  0.00000000000E+00 0.  1.
         23    2    1    2    0    0  0.00000000000E+00  0.00000000000E+00  0.00000000000E+00  0.10000000000E+03  0.10000000000E+03 0.  0.
          5    1    3    3  501    0 -0.18680629710E+02  0.47067030547E+01  0.45899793246E+02  0.50000000000E+02  0.47000000000E+01 0. -1.
         -5    1    3    3    0  501  0.18680629710E+02 -0.47067030547E+01 -0.45899793246E+02  0.50000000000E+02  0.47000000000E+01 0.  1.
</event>
<event>
 5    1  0.9071520E-001  0.1000000E+03  0.7546771E-02  0.1163815E+00
         11   -1    0    0    0    0  0.00000000000E+00  0.00000000000E+00  0.50000000000E+02  0.50000000000E+02  0.00000000000E+00 0. -1.
        -11   -1    0    0    0    0 -0.00000000000E+00 -0.00000000000E+00 -0.50000000000E+02  0.50000000000E+02  0.00000000000E+00 0.  1.
         23    2    1    2    0    0  0.00000000000E+00  0.00000000000E+00  0.00000000000E+00  0.10000000000E+03  0.10000000000E+03 0.  0.
          5    1    3    3  501    0 -0.23279793883E+02  0.11846482620E+02  0.42374780781E+02  0.50000000000E+02  0.47000000000E+01 0. -1.
         -5    1    3    3    0  501  0.23279793883E+02 -0.11846482620E+02 -0.42374780781E+02  0.50000000000E+02  0.47000000000E+01 0.  1.
</event>
<event>
 5    1  0.9071520E-001  0.1000000E+03  0.7546771E-02  0.1163815E+00
         11   -1    0    0    0    0  0.00000000000E+00  0.00000000000E+00  0.50000000000E+02  0.50000000000E+02  0.00000000000E+00 0.  1.
        -11   -1    0    0    0    0 -0.00000000000E+00 -0.00000000000E+00 -0.50000000000E+02  0.50000000000E+02  0.00000000000E+00 0. -1.
         23    2    1    2    0    0  0.00000000000E+00  0.00000000000E+00  0.00000000000E+00  0.10000000000E+03  0.10000000000E+03 0.  0.
          5    1    3    3  501    0  0.18785863919E+02 -0.68442964903E+01 -0.45586806451E+02  0.50000000000E+02  0.47000000000E+01 0. -1.
         -5    1    3    3    0  501 -0.18785863919E+02  0.68442964903E+01  0.45586806451E+02  0.50000000000E+02  0.47000000000E+01 0.  1.
</event>
<event>
 5    1  0.9071520E-001  0.1000000E+03  0.7546771E-02  0.1163815E+00
         11   -1    0    0    0    0  0.00000000000E+00  0.00000000000E+00  0.50000000000E+02  0.50000000000E+02  0.00000000000E+00 0. -1.
        -11   -1    0    0    0    0 -0.00000000000E+00 -0.00000000000E+00 -0.50000000000E+02  0.50000000000E+02  0.00000000000E+00 0.  1.
         23    2    1    2    0    0  0.00000000000E+00  0.00000000000E+00  0.00000000000E+00  0.10000000000E+03  0.10000000000E+03 0.  0.
          5    1    3    3  501    0  0.38746277156E+01 -0.48420683529E+02 -0.10878173867E+02  0.50000000000E+02  0.47000000000E+01 0. -1.
         -5    1    3    3    0  501 -0.38746277156E+01  0.48420683529E+02  0.10878173867E+02  0.50000000000E+02  0.47000000000E+01 0.  1.
</event>
<event>
 5    1  0.9071520E-001  0.1000000E+03  0.7546771E-02  0.1163815E+00
         11   -1    0    0    0    0  0.00000000000E+00  0.00000000000E+00  0.50000000000E+02  0.50000000000E+02  0.00000000000E+00 0. -1.
        -11   -1    0    0    0    0 -0.00000000000E+00 -0.00000000000E+00 -0.50000000000E+02  0.50000000000E+02  0.00000000000E+00 0.  1.
         23    2    1    2    0    0  0.00000000000E+00  0.00000000000E+00  0.00000000000E+00  0.10000000000E+03  0.10000000000E+03 0.  0.
          5    1    3    3  501    0  0.25304964717E+02  0.36272974256E+02  0.22843819717E+02  0.50000000000E+02  0.47000000000E+01 0. -1.
         -5    1    3    3    0  501 -0.25304964717E+02 -0.36272974256E+02 -0.22843819717E+02  0.50000000000E+02  0.47000000000E+01 0.  1.
</event>
<event>
 5    1  0.9071520E-001  0.1000000E+03  0.7546771E-02  0.1163815E+00
         11   -1    0    0    0    0  0.00000000000E+00  0.00000000000E+00  0.50000000000E+02  0.50000000000E+02  0.00000000000E+00 0.  1.
        -11   -1    0    0    0    0 -0.00000000000E+00 -0.00000000000E+00 -0.50000000000E+02  0.50000000000E+02  0.00000000000E+00 0. -1.
         23    2    1    2    0    0  0.00000000000E+00  0.00000000000E+00  0.00000000000E+00  0.10000000000E+03  0.10000000000E+03 0.  0.
          5    1    3    3  501    0 -0.37276612985E+02 -0.74903560475E+01 -0.32128782900E+02  0.50000000000E+02  0.47000000000E+01 0. -1.
         -5    1    3    3    0  501  0.37276612985E+02  0.74903560475E+01  0.32128782900E+02  0.50000000000E+02  0.47000000000E+01 0.  1.
</event>
<event>
 5    1  0.9071520E-001  0.1000000E+03  0.7546771E-02  0.1163815E+00
         11   -1    0    0    0    0  0.00000000000E+00  0.00000000000E+00  0.50000000000E+02  0.50000000000E+02  0.00000000000E+00 0. -1.
        -11   -1    0    0    0    0 -0.00000000000E+00 -0.00000000000E+00 -0.50000000000E+02  0.50000000000E+02  0.00000000000E+00 0.  1.
         23    2    1    2    0    0  0.00000000000E+00  0.00000000000E+00  0.00000000000E+00  0.10000000000E+03  0.10000000000E+03 0.  0.
          5    1    3    3  501    0 -0.10224906518E+02  0.46903814063E+02  0.13167897062E+02  0.50000000000E+02  0.47000000000E+01 0. -1.
         -5    1    3    3    0  501  0.10224906518E+02 -0.46903814063E+02 -0.13167897062E+02  0.50000000000E+02  0.47000000000E+01 0.  1.
</event>
<event>
 5    1  0.9071520E-001  0.1000000E+03  0.7546771E-02  0.1163815E+00
         11   -1    0    0    0    0  0.00000000000E+00  0.00000000000E+00  0.50000000000E+02  0.50000000000E+02  0.00000000000E+00 0.  1.
        -11   -1    0    0    0    0 -0.00000000000E+00 -0.00000000000E+00 -0.50000000000E+02  0.50000000000E+02  0.00000000000E+00 0. -1.
         23    2    1    2    0    0  0.00000000000E+00  0.00000000000E+00  0.00000000000E+00  0.10000000000E+03  0.10000000000E+03 0.  0.
          5    1    3    3  501    0 -0.93186815717E+01 -0.28109549624E+02 -0.40011565749E+02  0.50000000000E+02  0.47000000000E+01 0. -1.
         -5    1    3    3    0  501  0.93186815717E+01  0.28109549624E+02  0.40011565749E+02  0.50000000000E+02  0.47000000000E+01 0.  1.
</event>
<event>
 5    1  0.9071520E-001  0.1000000E+03  0.7546771E-02  0.1163815E+00
         11   -1    0    0    0    0  0.00000000000E+00  0.00000000000E+00  0.50000000000E+02  0.50000000000E+02  0.00000000000E+00 0.  1.
        -11   -1    0    0    0    0 -0.00000000000E+00 -0.00000000000E+00 -0.50000000000E+02  0.50000000000E+02  0.00000000000E+00 0. -1.
         23    2    1    2    0    0  0.00000000000E+00  0.00000000000E+00  0.00000000000E+00  0.10000000000E+03  0.10000000000E+03 0.  0.
          5    1    3    3  501    0  0.34428212408E+02  0.32386188324E+02  0.15612270695E+02  0.50000000000E+02  0.47000000000E+01 0. -1.
         -5    1    3    3    0  501 -0.34428212408E+02 -0.32386188324E+02 -0.15612270695E+02  0.50000000000E+02  0.47000000000E+01 0.  1.
</event>
<event>
 5    1  0.9071520E-001  0.1000000E+03  0.7546771E-02  0.1163815E+00
         11   -1    0    0    0    0  0.00000000000E+00  0.00000000000E+00  0.50000000000E+02  0.50000000000E+02  0.00000000000E+00 0. -1.
        -11   -1    0    0    0    0 -0.00000000000E+00 -0.00000000000E+00 -0.50000000000E+02  0.50000000000E+02  0.00000000000E+00 0.  1.
         23    2    1    2    0    0  0.00000000000E+00  0.00000000000E+00  0.00000000000E+00  0.10000000000E+03  0.10000000000E+03 0.  0.
          5    1    3    3  501    0 -0.14341629704E+02 -0.28787309116E+02  0.37993663831E+02  0.50000000000E+02  0.47000000000E+01 0. -1.
         -5    1    3    3    0  501  0.14341629704E+02  0.28787309116E+02 -0.37993663831E+02  0.50000000000E+02  0.47000000000E+01 0.  1.
</event>
<event>
 5    1  0.9071520E-001  0.1000000E+03  0.7546771E-02  0.1163815E+00
         11   -1    0    0    0    0  0.00000000000E+00  0.00000000000E+00  0.50000000000E+02  0.50000000000E+02  0.00000000000E+00 0.  1.
        -11   -1    0    0    0    0 -0.00000000000E+00 -0.00000000000E+00 -0.50000000000E+02  0.50000000000E+02  0.00000000000E+00 0. -1.
         23    2    1    2    0    0  0.00000000000E+00  0.00000000000E+00  0.00000000000E+00  0.10000000000E+03  0.10000000000E+03 0.  0.
          5    1    3    3  501    0  0.30677092554E+02 -0.26664505315E+02 -0.28737260634E+02  0.50000000000E+02  0.47000000000E+01 0. -1.
         -5    1    3    3    0  501 -0.30677092554E+02  0.26664505315E+02  0.28737260634E+02  0.50000000000E+02  0.47000000000E+01 0.  1.
</event>
<event>
 5    1  0.9071520E-001  0.1000000E+03  0.7546771E-02  0.1163815E+00
         11   -1    0    0    0    0  0.00000000000E+00  0.00000000000E+00  0.50000000000E+02  0.50000000000E+02  0.00000000000E+00 0.  1.
        -11   -1    0    0    0    0 -0.00000000000E+00 -0.00000000000E+00 -0.50000000000E+02  0.50000000000E+02  0.00000000000E+00 0. -1.
         23    2    1    2    0    0  0.00000000000E+00  0.00000000000E+00  0.00000000000E+00  0.10000000000E+03  0.10000000000E+03 0.  0.
          5    1    3    3  501    0  0.39890050257E+02 -0.21845749666E+02 -0.20235046628E+02  0.50000000000E+02  0.47000000000E+01 0. -1.
         -5    1    3    3    0  501 -0.39890050257E+02  0.21845749666E+02  0.20235046628E+02  0.50000000000E+02  0.47000000000E+01 0.  1.
</event>
<event>
 5    1  0.9071520E-001  0.1000000E+03  0.7546771E-02  0.1163815E+00
         11   -1    0    0    0    0  0.00000000000E+00  0.00000000000E+00  0.50000000000E+02  0.50000000000E+02  0.00000000000E+00 0. -1.
        -11   -1    0    0    0    0 -0.00000000000E+00 -0.00000000000E+00 -0.50000000000E+02  0.50000000000E+02  0.00000000000E+00 0.  1.
         23    2    1    2    0    0  0.00000000000E+00  0.00000000000E+00  0.00000000000E+00  0.10000000000E+03  0.10000000000E+03 0.  0.
          5    1    3    3  501    0 -0.49582547870E+01 -0.30385767671E+01  0.49437766542E+02  0.50000000000E+02  0.47000000000E+01 0. -1.
         -5    1    3    3    0  501  0.49582547870E+01  0.30385767671E+01 -0.49437766542E+02  0.50000000000E+02  0.47000000000E+01 0.  1.
</event>
<event>
 5    1  0.9071520E-001  0.1000000E+03  0.7546771E-02  0.1163815E+00
         11   -1    0    0    0    0  0.00000000000E+00  0.00000000000E+00  0.50000000000E+02  0.50000000000E+02  0.00000000000E+00 0.  1.
        -11   -1    0    0    0    0 -0.00000000000E+00 -0.00000000000E+00 -0.50000000000E+02  0.50000000000E+02  0.00000000000E+00 0. -1.
         23    2    1    2    0    0  0.00000000000E+00  0.00000000000E+00  0.00000000000E+00  0.10000000000E+03  0.10000000000E+03 0.  0.
          5    1    3    3  501    0 -0.46658917757E+02 -0.17342848478E+02 -0.28460565762E+00  0.50000000000E+02  0.47000000000E+01 0. -1.
         -5    1    3    3    0  501  0.46658917757E+02  0.17342848478E+02  0.28460565762E+00  0.50000000000E+02  0.47000000000E+01 0.  1.
</event>
<event>
 5    1  0.9071520E-001  0.1000000E+03  0.7546771E-02  0.1163815E+00
         11   -1    0    0    0    0  0.00000000000E+00  0.00000000000E+00  0.50000000000E+02  0.50000000000E+02  0.00000000000E+00 0.  1.
        -11   -1    0    0    0    0 -0.00000000000E+00 -0.00000000000E+00 -0.50000000000E+02  0.50000000000E+02  0.00000000000E+00 0. -1.
         23    2    1    2    0    0  0.00000000000E+00  0.00000000000E+00  0.00000000000E+00  0.10000000000E+03  0.10000000000E+03 0.  0.
          5    1    3    3  501    0  0.11370183807E+01 -0.39456464285E+02 -0.30328280785E+02  0.50000000000E+02  0.47000000000E+01 0. -1.
         -5    1    3    3    0  501 -0.11370183807E+01  0.39456464285E+02  0.30328280785E+02  0.50000000000E+02  0.47000000000E+01 0.  1.
</event>
<event>
 5    1  0.9071520E-001  0.1000000E+03  0.7546771E-02  0.1163815E+00
         11   -1    0    0    0    0  0.00000000000E+00  0.00000000000E+00  0.50000000000E+02  0.50000000000E+02  0.00000000000E+00 0. -1.
        -11   -1    0    0    0    0 -0.00000000000E+00 -0.00000000000E+00 -0.50000000000E+02  0.50000000000E+02  0.00000000000E+00 0.  1.
         23    2    1    2    0    0  0.00000000000E+00  0.00000000000E+00  0.00000000000E+00  0.10000000000E+03  0.10000000000E+03 0.  0.
          5    1    3    3  501    0  0.12673379044E+02  0.67636089649E+01  0.47660770634E+02  0.50000000000E+02  0.47000000000E+01 0. -1.
         -5    1    3    3    0  501 -0.12673379044E+02 -0.67636089649E+01 -0.47660770634E+02  0.50000000000E+02  0.47000000000E+01 0.  1.
</event>
<event>
 5    1  0.9071520E-001  0.1000000E+03  0.7546771E-02  0.1163815E+00
         11   -1    0    0    0    0  0.00000000000E+00  0.00000000000E+00  0.50000000000E+02  0.50000000000E+02  0.00000000000E+00 0.  1.
        -11   -1    0    0    0    0 -0.00000000000E+00 -0.00000000000E+00 -0.50000000000E+02  0.50000000000E+02  0.00000000000E+00 0. -1.
         23    2    1    2    0    0  0.00000000000E+00  0.00000000000E+00  0.00000000000E+00  0.10000000000E+03  0.10000000000E+03 0.  0.
          5    1    3    3  501    0 -0.10925717298E+02 -0.35045494771E+01 -0.48438175383E+02  0.50000000000E+02  0.47000000000E+01 0. -1.
         -5    1    3    3    0  501  0.10925717298E+02  0.35045494771E+01  0.48438175383E+02  0.50000000000E+02  0.47000000000E+01 0.  1.
</event>
<event>
 5    1  0.9071520E-001  0.1000000E+03  0.7546771E-02  0.1163815E+00
         11   -1    0    0    0    0  0.00000000000E+00  0.00000000000E+00  0.50000000000E+02  0.50000000000E+02  0.00000000000E+00 0. -1.
        -11   -1    0    0    0    0 -0.00000000000E+00 -0.00000000000E+00 -0.50000000000E+02  0.50000000000E+02  0.00000000000E+00 0.  1.
         23    2    1    2    0    0  0.00000000000E+00  0.00000000000E+00  0.00000000000E+00  0.10000000000E+03  0.10000000000E+03 0.  0.
          5    1    3    3  501    0  0.17877612157E+02  0.25225921706E+02  0.39012227028E+02  0.50000000000E+02  0.47000000000E+01 0. -1.
         -5    1    3    3    0  501 -0.17877612157E+02 -0.25225921706E+02 -0.39012227028E+02  0.50000000000E+02  0.47000000000E+01 0.  1.
</event>
<event>
 5    1  0.9071520E-001  0.1000000E+03  0.7546771E-02  0.1163815E+00
         11   -1    0    0    0    0  0.00000000000E+00  0.00000000000E+00  0.50000000000E+02  0.50000000000E+02  0.00000000000E+00 0. -1.
        -11   -1    0    0    0    0 -0.00000000000E+00 -0.00000000000E+00 -0.50000000000E+02  0.50000000000E+02  0.00000000000E+00 0.  1.
         23    2    1    2    0    0  0.00000000000E+00  0.00000000000E+00  0.00000000000E+00  0.10000000000E+03  0.10000000000E+03 0.  0.
          5    1    3    3  501    0 -0.33134821989E+01 -0.43123562937E+02  0.24643237517E+02  0.50000000000E+02  0.47000000000E+01 0. -1.
         -5    1    3    3    0  501  0.33134821989E+01  0.43123562937E+02 -0.24643237517E+02  0.50000000000E+02  0.47000000000E+01 0.  1.
</event>
<event>
 5    1  0.9071520E-001  0.1000000E+03  0.7546771E-02  0.1163815E+00
         11   -1    0    0    0    0  0.00000000000E+00  0.00000000000E+00  0.50000000000E+02  0.50000000000E+02  0.00000000000E+00 0. -1.
        -11   -1    0    0    0    0 -0.00000000000E+00 -0.00000000000E+00 -0.50000000000E+02  0.50000000000E+02  0.00000000000E+00 0.  1.
         23    2    1    2    0    0  0.00000000000E+00  0.00000000000E+00  0.00000000000E+00  0.10000000000E+03  0.10000000000E+03 0.  0.
          5    1    3    3  501    0 -0.29351404242E+01  0.10616893057E+02  0.48544582937E+02  0.50000000000E+02  0.47000000000E+01 0. -1.
         -5    1    3    3    0  501  0.29351404242E+01 -0.10616893057E+02 -0.48544582937E+02  0.50000000000E+02  0.47000000000E+01 0.  1.
</event>
<event>
 5    1  0.9071520E-001  0.1000000E+03  0.7546771E-02  0.1163815E+00
         11   -1    0    0    0    0  0.00000000000E+00  0.00000000000E+00  0.50000000000E+02  0.50000000000E+02  0.00000000000E+00 0. -1.
        -11   -1    0    0    0    0 -0.00000000000E+00 -0.00000000000E+00 -0.50000000000E+02  0.50000000000E+02  0.00000000000E+00 0.  1.
         23    2    1    2    0    0  0.00000000000E+00  0.00000000000E+00  0.00000000000E+00  0.10000000000E+03  0.10000000000E+03 0.  0.
          5    1    3    3  501    0 -0.32179435252E+02 -0.37460459726E+02 -0.62536312626E+01  0.50000000000E+02  0.47000000000E+01 0. -1.
         -5    1    3    3    0  501  0.32179435252E+02  0.37460459726E+02  0.62536312626E+01  0.50000000000E+02  0.47000000000E+01 0.  1.
</event>
<event>
 5    1  0.9071520E-001  0.1000000E+03  0.7546771E-02  0.1163815E+00
         11   -1    0    0    0    0  0.00000000000E+00  0.00000000000E+00  0.50000000000E+02  0.50000000000E+02  0.00000000000E+00 0. -1.
        -11   -1    0    0    0    0 -0.00000000000E+00 -0.00000000000E+00 -0.50000000000E+02  0.50000000000E+02  0.00000000000E+00 0.  1.
         23    2    1    2    0    0  0.00000000000E+00  0.00000000000E+00  0.00000000000E+00  0.10000000000E+03  0.10000000000E+03 0.  0.
          5    1    3    3  501    0  0.46135172458E+02 -0.83922899676E+01  0.16704051347E+02  0.50000000000E+02  0.47000000000E+01 0. -1.
         -5    1    3    3    0  501 -0.46135172458E+02  0.83922899676E+01 -0.16704051347E+02  0.50000000000E+02  0.47000000000E+01 0.  1.
</event>
<event>
 5    1  0.9071520E-001  0.1000000E+03  0.7546771E-02  0.1163815E+00
         11   -1    0    0    0    0  0.00000000000E+00  0.00000000000E+00  0.50000000000E+02  0.50000000000E+02  0.00000000000E+00 0. -1.
        -11   -1    0    0    0    0 -0.00000000000E+00 -0.00000000000E+00 -0.50000000000E+02  0.50000000000E+02  0.00000000000E+00 0.  1.
         23    2    1    2    0    0  0.00000000000E+00  0.00000000000E+00  0.00000000000E+00  0.10000000000E+03  0.10000000000E+03 0.  0.
          5    1    3    3  501    0 -0.29449005451E+02 -0.34733245562E+02  0.20106410188E+02  0.50000000000E+02  0.47000000000E+01 0. -1.
         -5    1    3    3    0  501  0.29449005451E+02  0.34733245562E+02 -0.20106410188E+02  0.50000000000E+02  0.47000000000E+01 0.  1.
</event>
<event>
 5    1  0.9071520E-001  0.1000000E+03  0.7546771E-02  0.1163815E+00
         11   -1    0    0    0    0  0.00000000000E+00  0.00000000000E+00  0.50000000000E+02  0.50000000000E+02  0.00000000000E+00 0.  1.
        -11   -1    0    0    0    0 -0.00000000000E+00 -0.00000000000E+00 -0.50000000000E+02  0.50000000000E+02  0.00000000000E+00 0. -1.
         23    2    1    2    0    0  0.00000000000E+00  0.00000000000E+00  0.00000000000E+00  0.10000000000E+03  0.10000000000E+03 0.  0.
          5    1    3    3  501    0  0.13305461652E+02 -0.38155671558E+02 -0.29069217708E+02  0.50000000000E+02  0.47000000000E+01 0. -1.
         -5    1    3    3    0  501 -0.13305461652E+02  0.38155671558E+02  0.29069217708E+02  0.50000000000E+02  0.47000000000E+01 0.  1.
</event>
<event>
 5    1  0.9071520E-001  0.1000000E+03  0.7546771E-02  0.1163815E+00
         11   -1    0    0    0    0  0.00000000000E+00  0.00000000000E+00  0.50000000000E+02  0.50000000000E+02  0.00000000000E+00 0.  1.
        -11   -1    0    0    0    0 -0.00000000000E+00 -0.00000000000E+00 -0.50000000000E+02  0.50000000000E+02  0.00000000000E+00 0. -1.
         23    2    1    2    0    0  0.00000000000E+00  0.00000000000E+00  0.00000000000E+00  0.10000000000E+03  0.10000000000E+03 0.  0.
          5    1    3    3  501    0 -0.33205328821E+02 -0.36292627238E+02 -0.76263586378E+01  0.50000000000E+02  0.47000000000E+01 0. -1.
         -5    1    3    3    0  501  0.33205328821E+02  0.36292627238E+02  0.76263586378E+01  0.50000000000E+02  0.47000000000E+01 0.  1.
</event>
<event>
 5    1  0.9071520E-001  0.1000000E+03  0.7546771E-02  0.1163815E+00
         11   -1    0    0    0    0  0.00000000000E+00  0.00000000000E+00  0.50000000000E+02  0.50000000000E+02  0.00000000000E+00 0. -1.
        -11   -1    0    0    0    0 -0.00000000000E+00 -0.00000000000E+00 -0.50000000000E+02  0.50000000000E+02  0.00000000000E+00 0.  1.
         23    2    1    2    0    0  0.00000000000E+00  0.00000000000E+00  0.00000000000E+00  0.10000000000E+03  0.10000000000E+03 0.  0.
          5    1    3    3  501    0 -0.31405593633E+02 -0.11691466635E+02  0.36809078995E+02  0.50000000000E+02  0.47000000000E+01 0. -1.
         -5    1    3    3    0  501  0.31405593633E+02  0.11691466635E+02 -0.36809078995E+02  0.50000000000E+02  0.47000000000E+01 0.  1.
</event>
<event>
 5    1  0.9071520E-001  0.1000000E+03  0.7546771E-02  0.1163815E+00
         11   -1    0    0    0    0  0.00000000000E+00  0.00000000000E+00  0.50000000000E+02  0.50000000000E+02  0.00000000000E+00 0.  1.
        -11   -1    0    0    0    0 -0.00000000000E+00 -0.00000000000E+00 -0.50000000000E+02  0.50000000000E+02  0.00000000000E+00 0. -1.
         23    2    1    2    0    0  0.00000000000E+00  0.00000000000E+00  0.00000000000E+00  0.10000000000E+03  0.10000000000E+03 0.  0.
          5    1    3    3  501    0  0.40636296975E+01  0.41111914912E+02 -0.27770620554E+02  0.50000000000E+02  0.47000000000E+01 0. -1.
         -5    1    3    3    0  501 -0.40636296975E+01 -0.41111914912E+02  0.27770620554E+02  0.50000000000E+02  0.47000000000E+01 0.  1.
</event>
<event>
 5    1  0.9071520E-001  0.1000000E+03  0.7546771E-02  0.1163815E+00
         11   -1    0    0    0    0  0.00000000000E+00  0.00000000000E+00  0.50000000000E+02  0.50000000000E+02  0.00000000000E+00 0. -1.
        -11   -1    0    0    0    0 -0.00000000000E+00 -0.00000000000E+00 -0.50000000000E+02  0.50000000000E+02  0.00000000000E+00 0.  1.
         23    2    1    2    0    0  0.00000000000E+00  0.00000000000E+00  0.00000000000E+00  0.10000000000E+03  0.10000000000E+03 0.  0.
          5    1    3    3  501    0  0.48961091881E+02  0.26974922311E+01  0.85700068526E+01  0.50000000000E+02  0.47000000000E+01 0. -1.
         -5    1    3    3    0  501 -0.48961091881E+02 -0.26974922311E+01 -0.85700068526E+01  0.50000000000E+02  0.47000000000E+01 0.  1.
</event>
<event>
 5    1  0.9071520E-001  0.1000000E+03  0.7546771E-02  0.1163815E+00
         11   -1    0    0    0    0  0.00000000000E+00  0.00000000000E+00  0.50000000000E+02  0.50000000000E+02  0.00000000000E+00 0. -1.
        -11   -1    0    0    0    0 -0.00000000000E+00 -0.00000000000E+00 -0.50000000000E+02  0.50000000000E+02  0.00000000000E+00 0.  1.
         23    2    1    2    0    0  0.00000000000E+00  0.00000000000E+00  0.00000000000E+00  0.10000000000E+03  0.10000000000E+03 0.  0.
          5    1    3    3  501    0 -0.47154145061E+02  0.15947819076E+02  0.25232968710E+00  0.50000000000E+02  0.47000000000E+01 0. -1.
         -5    1    3    3    0  501  0.47154145061E+02 -0.15947819076E+02 -0.25232968710E+00  0.50000000000E+02  0.47000000000E+01 0.  1.
</event>
<event>
 5    1  0.9071520E-001  0.1000000E+03  0.7546771E-02  0.1163815E+00
         11   -1    0    0    0    0  0.00000000000E+00  0.00000000000E+00  0.50000000000E+02  0.50000000000E+02  0.00000000000E+00 0.  1.
        -11   -1    0    0    0    0 -0.00000000000E+00 -0.00000000000E+00 -0.50000000000E+02  0.50000000000E+02  0.00000000000E+00 0. -1.
         23    2    1    2    0    0  0.00000000000E+00  0.00000000000E+00  0.00000000000E+00  0.10000000000E+03  0.10000000000E+03 0.  0.
          5    1    3    3  501    0  0.28377531726E+02 -0.33503906802E+02 -0.23454507502E+02  0.50000000000E+02  0.47000000000E+01 0. -1.
         -5    1    3    3    0  501 -0.28377531726E+02  0.33503906802E+02  0.23454507502E+02  0.50000000000E+02  0.47000000000E+01 0.  1.
</event>
<event>
 5    1  0.9071520E-001  0.1000000E+03  0.7546771E-02  0.1163815E+00
         11   -1    0    0    0    0  0.00000000000E+00  0.00000000000E+00  0.50000000000E+02  0.50000000000E+02  0.00000000000E+00 0. -1.
        -11   -1    0    0    0    0 -0.00000000000E+00 -0.00000000000E+00 -0.50000000000E+02  0.50000000000E+02  0.00000000000E+00 0.  1.
         23    2    1    2    0    0  0.00000000000E+00  0.00000000000E+00  0.00000000000E+00  0.10000000000E+03  0.10000000000E+03 0.  0.
          5    1    3    3  501    0 -0.11759439255E+02  0.11779245793E+02  0.46913483744E+02  0.50000000000E+02  0.47000000000E+01 0. -1.
         -5    1    3    3    0  501  0.11759439255E+02 -0.11779245793E+02 -0.46913483744E+02  0.50000000000E+02  0.47000000000E+01 0.  1.
</event>
<event>
 5    1  0.9071520E-001  0.1000000E+03  0.7546771E-02  0.1163815E+00
         11   -1    0    0    0    0  0.00000000000E+00  0.00000000000E+00  0.50000000000E+02  0.50000000000E+02  0.00000000000E+00 0.  1.
        -11   -1    0    0    0    0 -0.00000000000E+00 -0.00000000000E+00 -0.50000000000E+02  0.50000000000E+02  0.00000000000E+00 0. -1.
         23    2    1    2    0    0  0.00000000000E+00  0.00000000000E+00  0.00000000000E+00  0.10000000000E+03  0.10000000000E+03 0.  0.
          5    1    3    3  501    0  0.29714769563E+02 -0.29489753291E+02 -0.26931337149E+02  0.50000000000E+02  0.47000000000E+01 0. -1.
         -5    1    3    3    0  501 -0.29714769563E+02  0.29489753291E+02  0.26931337149E+02  0.50000000000E+02  0.47000000000E+01 0.  1.
</event>
<event>
 5    1  0.9071520E-001  0.1000000E+03  0.7546771E-02  0.1163815E+00
         11   -1    0    0    0    0  0.00000000000E+00  0.00000000000E+00  0.50000000000E+02  0.50000000000E+02  0.00000000000E+00 0. -1.
        -11   -1    0    0    0    0 -0.00000000000E+00 -0.00000000000E+00 -0.50000000000E+02  0.50000000000E+02  0.00000000000E+00 0.  1.
         23    2    1    2    0    0  0.00000000000E+00  0.00000000000E+00  0.00000000000E+00  0.10000000000E+03  0.10000000000E+03 0.  0.
          5    1    3    3  501    0  0.21361092226E+02  0.29469907911E+02  0.33957889608E+02  0.50000000000E+02  0.47000000000E+01 0. -1.
         -5    1    3    3    0  501 -0.21361092226E+02 -0.29469907911E+02 -0.33957889608E+02  0.50000000000E+02  0.47000000000E+01 0.  1.
</event>
<event>
 5    1  0.9071520E-001  0.1000000E+03  0.7546771E-02  0.1163815E+00
         11   -1    0    0    0    0  0.00000000000E+00  0.00000000000E+00  0.50000000000E+02  0.50000000000E+02  0.00000000000E+00 0. -1.
        -11   -1    0    0    0    0 -0.00000000000E+00 -0.00000000000E+00 -0.50000000000E+02  0.50000000000E+02  0.00000000000E+00 0.  1.
         23    2    1    2    0    0  0.00000000000E+00  0.00000000000E+00  0.00000000000E+00  0.10000000000E+03  0.10000000000E+03 0.  0.
          5    1    3    3  501    0  0.48111560248E+02 -0.12040173089E+02  0.42687237553E+01  0.50000000000E+02  0.47000000000E+01 0. -1.
         -5    1    3    3    0  501 -0.48111560248E+02  0.12040173089E+02 -0.42687237553E+01  0.50000000000E+02  0.47000000000E+01 0.  1.
</event>
<event>
 5    1  0.9071520E-001  0.1000000E+03  0.7546771E-02  0.1163815E+00
         11   -1    0    0    0    0  0.00000000000E+00  0.00000000000E+00  0.50000000000E+02  0.50000000000E+02  0.00000000000E+00 0. -1.
        -11   -1    0    0    0    0 -0.00000000000E+00 -0.00000000000E+00 -0.50000000000E+02  0.50000000000E+02  0.00000000000E+00 0.  1.
         23    2    1    2    0    0  0.00000000000E+00  0.00000000000E+00  0.00000000000E+00  0.10000000000E+03  0.10000000000E+03 0.  0.
          5    1    3    3  501    0  0.61283857885E+01 -0.48283370094E+02  0.10443613359E+02  0.50000000000E+02  0.47000000000E+01 0. -1.
         -5    1    3    3    0  501 -0.61283857885E+01  0.48283370094E+02 -0.10443613359E+02  0.50000000000E+02  0.47000000000E+01 0.  1.
</event>
<event>
 5    1  0.9071520E-001  0.1000000E+03  0.7546771E-02  0.1163815E+00
         11   -1    0    0    0    0  0.00000000000E+00  0.00000000000E+00  0.50000000000E+02  0.50000000000E+02  0.00000000000E+00 0. -1.
        -11   -1    0    0    0    0 -0.00000000000E+00 -0.00000000000E+00 -0.50000000000E+02  0.50000000000E+02  0.00000000000E+00 0.  1.
         23    2    1    2    0    0  0.00000000000E+00  0.00000000000E+00  0.00000000000E+00  0.10000000000E+03  0.10000000000E+03 0.  0.
          5    1    3    3  501    0  0.25951388073E+02  0.33368668491E+02  0.26286259152E+02  0.50000000000E+02  0.47000000000E+01 0. -1.
         -5    1    3    3    0  501 -0.25951388073E+02 -0.33368668491E+02 -0.26286259152E+02  0.50000000000E+02  0.47000000000E+01 0.  1.
</event>
<event>
 5    1  0.9071520E-001  0.1000000E+03  0.7546771E-02  0.1163815E+00
         11   -1    0    0    0    0  0.00000000000E+00  0.00000000000E+00  0.50000000000E+02  0.50000000000E+02  0.00000000000E+00 0.  1.
        -11   -1    0    0    0    0 -0.00000000000E+00 -0.00000000000E+00 -0.50000000000E+02  0.50000000000E+02  0.00000000000E+00 0. -1.
         23    2    1    2    0    0  0.00000000000E+00  0.00000000000E+00  0.00000000000E+00  0.10000000000E+03  0.10000000000E+03 0.  0.
          5    1    3    3  501    0 -0.18413723366E+02 -0.39741342445E+02 -0.23653128598E+02  0.50000000000E+02  0.47000000000E+01 0. -1.
         -5    1    3    3    0  501  0.18413723366E+02  0.39741342445E+02  0.23653128598E+02  0.50000000000E+02  0.47000000000E+01 0.  1.
</event>
<event>
 5    1  0.9071520E-001  0.1000000E+03  0.7546771E-02  0.1163815E+00
         11   -1    0    0    0    0  0.00000000000E+00  0.00000000000E+00  0.50000000000E+02  0.50000000000E+02  0.00000000000E+00 0. -1.
        -11   -1    0    0    0    0 -0.00000000000E+00 -0.00000000000E+00 -0.50000000000E+02  0.50000000000E+02  0.00000000000E+00 0.  1.
         23    2    1    2    0    0  0.00000000000E+00  0.00000000000E+00  0.00000000000E+00  0.10000000000E+03  0.10000000000E+03 0.  0.
          5    1    3    3  501    0 -0.48697612841E+02  0.10176923437E+02 -0.16978612740E+01  0.50000000000E+02  0.47000000000E+01 0. -1.
         -5    1    3    3    0  501  0.48697612841E+02 -0.10176923437E+02  0.16978612740E+01  0.50000000000E+02  0.47000000000E+01 0.  1.
</event>
<event>
 5    1  0.9071520E-001  0.1000000E+03  0.7546771E-02  0.1163815E+00
         11   -1    0    0    0    0  0.00000000000E+00  0.00000000000E+00  0.50000000000E+02  0.50000000000E+02  0.00000000000E+00 0. -1.
        -11   -1    0    0    0    0 -0.00000000000E+00 -0.00000000000E+00 -0.50000000000E+02  0.50000000000E+02  0.00000000000E+00 0.  1.
         23    2    1    2    0    0  0.00000000000E+00  0.00000000000E+00  0.00000000000E+00  0.10000000000E+03  0.10000000000E+03 0.  0.
          5    1    3    3  501    0  0.21373348515E+02 -0.38826972245E+02  0.22661778385E+02  0.50000000000E+02  0.47000000000E+01 0. -1.
         -5    1    3    3    0  501 -0.21373348515E+02  0.38826972245E+02 -0.22661778385E+02  0.50000000000E+02  0.47000000000E+01 0.  1.
</event>
<event>
 5    1  0.9071520E-001  0.1000000E+03  0.7546771E-02  0.1163815E+00
         11   -1    0    0    0    0  0.00000000000E+00  0.00000000000E+00  0.50000000000E+02  0.50000000000E+02  0.00000000000E+00 0.  1.
        -11   -1    0    0    0    0 -0.00000000000E+00 -0.00000000000E+00 -0.50000000000E+02  0.50000000000E+02  0.00000000000E+00 0. -1.
         23    2    1    2    0    0  0.00000000000E+00  0.00000000000E+00  0.00000000000E+00  0.10000000000E+03  0.10000000000E+03 0.  0.
          5    1    3    3  501    0  0.10396886386E+02  0.48671852184E+02 -0.93035395036E+00  0.50000000000E+02  0.47000000000E+01 0. -1.
         -5    1    3    3    0  501 -0.10396886386E+02 -0.48671852184E+02  0.93035395036E+00  0.50000000000E+02  0.47000000000E+01 0.  1.
</event>
<event>
 5    1  0.9071520E-001  0.1000000E+03  0.7546771E-02  0.1163815E+00
         11   -1    0    0    0    0  0.00000000000E+00  0.00000000000E+00  0.50000000000E+02  0.50000000000E+02  0.00000000000E+00 0. -1.
        -11   -1    0    0    0    0 -0.00000000000E+00 -0.00000000000E+00 -0.50000000000E+02  0.50000000000E+02  0.00000000000E+00 0.  1.
         23    2    1    2    0    0  0.00000000000E+00  0.00000000000E+00  0.00000000000E+00  0.10000000000E+03  0.10000000000E+03 0.  0.
          5    1    3    3  501    0 -0.11634527846E+02  0.15891613605E+02  0.45716565694E+02  0.50000000000E+02  0.47000000000E+01 0. -1.
         -5    1    3    3    0  501  0.11634527846E+02 -0.15891613605E+02 -0.45716565694E+02  0.50000000000E+02  0.47000000000E+01 0.  1.
</event>
<event>
 5    1  0.9071520E-001  0.1000000E+03  0.7546771E-02  0.1163815E+00
         11   -1    0    0    0    0  0.00000000000E+00  0.00000000000E+00  0.50000000000E+02  0.50000000000E+02  0.00000000000E+00 0.  1.
        -11   -1    0    0    0    0 -0.00000000000E+00 -0.00000000000E+00 -0.50000000000E+02  0.50000000000E+02  0.00000000000E+00 0. -1.
         23    2    1    2    0    0  0.00000000000E+00  0.00000000000E+00  0.00000000000E+00  0.10000000000E+03  0.10000000000E+03 0.  0.
          5    1    3    3  501    0 -0.28971301626E+02 -0.33937525378E+02 -0.22063953709E+02  0.50000000000E+02  0.47000000000E+01 0. -1.
         -5    1    3    3    0  501  0.28971301626E+02  0.33937525378E+02  0.22063953709E+02  0.50000000000E+02  0.47000000000E+01 0.  1.
</event>
<event>
 5    1  0.9071520E-001  0.1000000E+03  0.7546771E-02  0.1163815E+00
         11   -1    0    0    0    0  0.00000000000E+00  0.00000000000E+00  0.50000000000E+02  0.50000000000E+02  0.00000000000E+00 0. -1.
        -11   -1    0    0    0    0 -0.00000000000E+00 -0.00000000000E+00 -0.50000000000E+02  0.50000000000E+02  0.00000000000E+00 0.  1.
         23    2    1    2    0    0  0.00000000000E+00  0.00000000000E+00  0.00000000000E+00  0.10000000000E+03  0.10000000000E+03 0.  0.
          5    1    3    3  501    0  0.42480785781E+01 -0.34233407400E+02  0.35887848168E+02  0.50000000000E+02  0.47000000000E+01 0. -1.
         -5    1    3    3    0  501 -0.42480785781E+01  0.34233407400E+02 -0.35887848168E+02  0.50000000000E+02  0.47000000000E+01 0.  1.
</event>
<event>
 5    1  0.9071520E-001  0.1000000E+03  0.7546771E-02  0.1163815E+00
         11   -1    0    0    0    0  0.00000000000E+00  0.00000000000E+00  0.50000000000E+02  0.50000000000E+02  0.00000000000E+00 0. -1.
        -11   -1    0    0    0    0 -0.00000000000E+00 -0.00000000000E+00 -0.50000000000E+02  0.50000000000E+02  0.00000000000E+00 0.  1.
         23    2    1    2    0    0  0.00000000000E+00  0.00000000000E+00  0.00000000000E+00  0.10000000000E+03  0.10000000000E+03 0.  0.
          5    1    3    3  501    0 -0.10817992184E+02  0.68713444161E+01  0.48100578697E+02  0.50000000000E+02  0.47000000000E+01 0. -1.
         -5    1    3    3    0  501  0.10817992184E+02 -0.68713444161E+01 -0.48100578697E+02  0.50000000000E+02  0.47000000000E+01 0.  1.
</event>
<event>
 5    1  0.9071520E-001  0.1000000E+03  0.7546771E-02  0.1163815E+00
         11   -1    0    0    0    0  0.00000000000E+00  0.00000000000E+00  0.50000000000E+02  0.50000000000E+02  0.00000000000E+00 0.  1.
        -11   -1    0    0    0    0 -0.00000000000E+00 -0.00000000000E+00 -0.50000000000E+02  0.50000000000E+02  0.00000000000E+00 0. -1.
         23    2    1    2    0    0  0.00000000000E+00  0.00000000000E+00  0.00000000000E+00  0.10000000000E+03  0.10000000000E+03 0.  0.
          5    1    3    3  501    0  0.30697151122E+02  0.13152500022E+02 -0.36913502356E+02  0.50000000000E+02  0.47000000000E+01 0. -1.
         -5    1    3    3    0  501 -0.30697151122E+02 -0.13152500022E+02  0.36913502356E+02  0.50000000000E+02  0.47000000000E+01 0.  1.
</event>
<event>
 5    1  0.9071520E-001  0.1000000E+03  0.7546771E-02  0.1163815E+00
         11   -1    0    0    0    0  0.00000000000E+00  0.00000000000E+00  0.50000000000E+02  0.50000000000E+02  0.00000000000E+00 0.  1.
        -11   -1    0    0    0    0 -0.00000000000E+00 -0.00000000000E+00 -0.50000000000E+02  0.50000000000E+02  0.00000000000E+00 0. -1.
         23    2    1    2    0    0  0.00000000000E+00  0.00000000000E+00  0.00000000000E+00  0.10000000000E+03  0.10000000000E+03 0.  0.
          5    1    3    3  501    0  0.13039722748E+02 -0.12681732474E+02 -0.46336263252E+02  0.50000000000E+02  0.47000000000E+01 0. -1.
         -5    1    3    3    0  501 -0.13039722748E+02  0.12681732474E+02  0.46336263252E+02  0.50000000000E+02  0.47000000000E+01 0.  1.
</event>
<event>
 5    1  0.9071520E-001  0.1000000E+03  0.7546771E-02  0.1163815E+00
         11   -1    0    0    0    0  0.00000000000E+00  0.00000000000E+00  0.50000000000E+02  0.50000000000E+02  0.00000000000E+00 0. -1.
        -11   -1    0    0    0    0 -0.00000000000E+00 -0.00000000000E+00 -0.50000000000E+02  0.50000000000E+02  0.00000000000E+00 0.  1.
         23    2    1    2    0    0  0.00000000000E+00  0.00000000000E+00  0.00000000000E+00  0.10000000000E+03  0.10000000000E+03 0.  0.
          5    1    3    3  501    0  0.46924860887E+01  0.39927665079E+02  0.29354252428E+02  0.50000000000E+02  0.47000000000E+01 0. -1.
         -5    1    3    3    0  501 -0.46924860887E+01 -0.39927665079E+02 -0.29354252428E+02  0.50000000000E+02  0.47000000000E+01 0.  1.
</event>
<event>
 5    1  0.9071520E-001  0.1000000E+03  0.7546771E-02  0.1163815E+00
         11   -1    0    0    0    0  0.00000000000E+00  0.00000000000E+00  0.50000000000E+02  0.50000000000E+02  0.00000000000E+00 0.  1.
        -11   -1    0    0    0    0 -0.00000000000E+00 -0.00000000000E+00 -0.50000000000E+02  0.50000000000E+02  0.00000000000E+00 0. -1.
         23    2    1    2    0    0  0.00000000000E+00  0.00000000000E+00  0.00000000000E+00  0.10000000000E+03  0.10000000000E+03 0.  0.
          5    1    3    3  501    0  0.91720128630E+01 -0.40811795193E+02 -0.26984839321E+02  0.50000000000E+02  0.47000000000E+01 0. -1.
         -5    1    3    3    0  501 -0.91720128630E+01  0.40811795193E+02  0.26984839321E+02  0.50000000000E+02  0.47000000000E+01 0.  1.
</event>
<event>
 5    1  0.9071520E-001  0.1000000E+03  0.7546771E-02  0.1163815E+00
         11   -1    0    0    0    0  0.00000000000E+00  0.00000000000E+00  0.50000000000E+02  0.50000000000E+02  0.00000000000E+00 0.  1.
        -11   -1    0    0    0    0 -0.00000000000E+00 -0.00000000000E+00 -0.50000000000E+02  0.50000000000E+02  0.00000000000E+00 0. -1.
         23    2    1    2    0    0  0.00000000000E+00  0.00000000000E+00  0.00000000000E+00  0.10000000000E+03  0.10000000000E+03 0.  0.
          5    1    3    3  501    0  0.12831828969E+02 -0.59070698121E+01 -0.47732176690E+02  0.50000000000E+02  0.47000000000E+01 0. -1.
         -5    1    3    3    0  501 -0.12831828969E+02  0.59070698121E+01  0.47732176690E+02  0.50000000000E+02  0.47000000000E+01 0.  1.
</event>
<event>
 5    1  0.9071520E-001  0.1000000E+03  0.7546771E-02  0.1163815E+00
         11   -1    0    0    0    0  0.00000000000E+00  0.00000000000E+00  0.50000000000E+02  0.50000000000E+02  0.00000000000E+00 0. -1.
        -11   -1    0    0    0    0 -0.00000000000E+00 -0.00000000000E+00 -0.50000000000E+02  0.50000000000E+02  0.00000000000E+00 0.  1.
         23    2    1    2    0    0  0.00000000000E+00  0.00000000000E+00  0.00000000000E+00  0.10000000000E+03  0.10000000000E+03 0.  0.
          5    1    3    3  501    0  0.38393217193E+02  0.31419254920E+02 -0.40867216500E+01  0.50000000000E+02  0.47000000000E+01 0. -1.
         -5    1    3    3    0  501 -0.38393217193E+02 -0.31419254920E+02  0.40867216500E+01  0.50000000000E+02  0.47000000000E+01 0.  1.
</event>
<event>
 5    1  0.9071520E-001  0.1000000E+03  0.7546771E-02  0.1163815E+00
         11   -1    0    0    0    0  0.00000000000E+00  0.00000000000E+00  0.50000000000E+02  0.50000000000E+02  0.00000000000E+00 0.  1.
        -11   -1    0    0    0    0 -0.00000000000E+00 -0.00000000000E+00 -0.50000000000E+02  0.50000000000E+02  0.00000000000E+00 0. -1.
         23    2    1    2    0    0  0.00000000000E+00  0.00000000000E+00  0.00000000000E+00  0.10000000000E+03  0.10000000000E+03 0.  0.
          5    1    3    3  501    0  0.48694995228E+02  0.10077259334E+02  0.22707452639E+01  0.50000000000E+02  0.47000000000E+01 0.  1.
         -5    1    3    3    0  501 -0.48694995228E+02 -0.10077259334E+02 -0.22707452639E+01  0.50000000000E+02  0.47000000000E+01 0. -1.
</event>
<event>
 5    1  0.9071520E-001  0.1000000E+03  0.7546771E-02  0.1163815E+00
         11   -1    0    0    0    0  0.00000000000E+00  0.00000000000E+00  0.50000000000E+02  0.50000000000E+02  0.00000000000E+00 0. -1.
        -11   -1    0    0    0    0 -0.00000000000E+00 -0.00000000000E+00 -0.50000000000E+02  0.50000000000E+02  0.00000000000E+00 0.  1.
         23    2    1    2    0    0  0.00000000000E+00  0.00000000000E+00  0.00000000000E+00  0.10000000000E+03  0.10000000000E+03 0.  0.
          5    1    3    3  501    0 -0.14330072284E+01 -0.32540746642E+02  0.37642479969E+02  0.50000000000E+02  0.47000000000E+01 0. -1.
         -5    1    3    3    0  501  0.14330072284E+01  0.32540746642E+02 -0.37642479969E+02  0.50000000000E+02  0.47000000000E+01 0.  1.
</event>
<event>
 5    1  0.9071520E-001  0.1000000E+03  0.7546771E-02  0.1163815E+00
         11   -1    0    0    0    0  0.00000000000E+00  0.00000000000E+00  0.50000000000E+02  0.50000000000E+02  0.00000000000E+00 0. -1.
        -11   -1    0    0    0    0 -0.00000000000E+00 -0.00000000000E+00 -0.50000000000E+02  0.50000000000E+02  0.00000000000E+00 0.  1.
         23    2    1    2    0    0  0.00000000000E+00  0.00000000000E+00  0.00000000000E+00  0.10000000000E+03  0.10000000000E+03 0.  0.
          5    1    3    3  501    0 -0.11368356025E+02 -0.25103484011E+02  0.41454620633E+02  0.50000000000E+02  0.47000000000E+01 0. -1.
         -5    1    3    3    0  501  0.11368356025E+02  0.25103484011E+02 -0.41454620633E+02  0.50000000000E+02  0.47000000000E+01 0.  1.
</event>
<event>
 5    1  0.9071520E-001  0.1000000E+03  0.7546771E-02  0.1163815E+00
         11   -1    0    0    0    0  0.00000000000E+00  0.00000000000E+00  0.50000000000E+02  0.50000000000E+02  0.00000000000E+00 0. -1.
        -11   -1    0    0    0    0 -0.00000000000E+00 -0.00000000000E+00 -0.50000000000E+02  0.50000000000E+02  0.00000000000E+00 0.  1.
         23    2    1    2    0    0  0.00000000000E+00  0.00000000000E+00  0.00000000000E+00  0.10000000000E+03  0.10000000000E+03 0.  0.
          5    1    3    3  501    0 -0.19124690238E+02  0.22608560174E+02  0.40012613388E+02  0.50000000000E+02  0.47000000000E+01 0. -1.
         -5    1    3    3    0  501  0.19124690238E+02 -0.22608560174E+02 -0.40012613388E+02  0.50000000000E+02  0.47000000000E+01 0.  1.
</event>
<event>
 5    1  0.9071520E-001  0.1000000E+03  0.7546771E-02  0.1163815E+00
         11   -1    0    0    0    0  0.00000000000E+00  0.00000000000E+00  0.50000000000E+02  0.50000000000E+02  0.00000000000E+00 0. -1.
        -11   -1    0    0    0    0 -0.00000000000E+00 -0.00000000000E+00 -0.50000000000E+02  0.50000000000E+02  0.00000000000E+00 0.  1.
         23    2    1    2    0    0  0.00000000000E+00  0.00000000000E+00  0.00000000000E+00  0.10000000000E+03  0.10000000000E+03 0.  0.
          5    1    3    3  501    0  0.27754581467E+02  0.41127254869E+02 -0.40177250439E+01  0.50000000000E+02  0.47000000000E+01 0. -1.
         -5    1    3    3    0  501 -0.27754581467E+02 -0.41127254869E+02  0.40177250439E+01  0.50000000000E+02  0.47000000000E+01 0.  1.
</event>
<event>
 5    1  0.9071520E-001  0.1000000E+03  0.7546771E-02  0.1163815E+00
         11   -1    0    0    0    0  0.00000000000E+00  0.00000000000E+00  0.50000000000E+02  0.50000000000E+02  0.00000000000E+00 0. -1.
        -11   -1    0    0    0    0 -0.00000000000E+00 -0.00000000000E+00 -0.50000000000E+02  0.50000000000E+02  0.00000000000E+00 0.  1.
         23    2    1    2    0    0  0.00000000000E+00  0.00000000000E+00  0.00000000000E+00  0.10000000000E+03  0.10000000000E+03 0.  0.
          5    1    3    3  501    0  0.14610511074E+02 -0.41033275767E+02  0.24097992572E+02  0.50000000000E+02  0.47000000000E+01 0. -1.
         -5    1    3    3    0  501 -0.14610511074E+02  0.41033275767E+02 -0.24097992572E+02  0.50000000000E+02  0.47000000000E+01 0.  1.
</event>
<event>
 5    1  0.9071520E-001  0.1000000E+03  0.7546771E-02  0.1163815E+00
         11   -1    0    0    0    0  0.00000000000E+00  0.00000000000E+00  0.50000000000E+02  0.50000000000E+02  0.00000000000E+00 0.  1.
        -11   -1    0    0    0    0 -0.00000000000E+00 -0.00000000000E+00 -0.50000000000E+02  0.50000000000E+02  0.00000000000E+00 0. -1.
         23    2    1    2    0    0  0.00000000000E+00  0.00000000000E+00  0.00000000000E+00  0.10000000000E+03  0.10000000000E+03 0.  0.
          5    1    3    3  501    0 -0.43987252618E+02  0.19951665894E+02 -0.12040042991E+02  0.50000000000E+02  0.47000000000E+01 0. -1.
         -5    1    3    3    0  501  0.43987252618E+02 -0.19951665894E+02  0.12040042991E+02  0.50000000000E+02  0.47000000000E+01 0.  1.
</event>
<event>
 5    1  0.9071520E-001  0.1000000E+03  0.7546771E-02  0.1163815E+00
         11   -1    0    0    0    0  0.00000000000E+00  0.00000000000E+00  0.50000000000E+02  0.50000000000E+02  0.00000000000E+00 0. -1.
        -11   -1    0    0    0    0 -0.00000000000E+00 -0.00000000000E+00 -0.50000000000E+02  0.50000000000E+02  0.00000000000E+00 0.  1.
         23    2    1    2    0    0  0.00000000000E+00  0.00000000000E+00  0.00000000000E+00  0.10000000000E+03  0.10000000000E+03 0.  0.
          5    1    3    3  501    0  0.28050928355E+02  0.23429042469E+02  0.33795493596E+02  0.50000000000E+02  0.47000000000E+01 0. -1.
         -5    1    3    3    0  501 -0.28050928355E+02 -0.23429042469E+02 -0.33795493596E+02  0.50000000000E+02  0.47000000000E+01 0.  1.
</event>
<event>
 5    1  0.9071520E-001  0.1000000E+03  0.7546771E-02  0.1163815E+00
         11   -1    0    0    0    0  0.00000000000E+00  0.00000000000E+00  0.50000000000E+02  0.50000000000E+02  0.00000000000E+00 0. -1.
        -11   -1    0    0    0    0 -0.00000000000E+00 -0.00000000000E+00 -0.50000000000E+02  0.50000000000E+02  0.00000000000E+00 0.  1.
         23    2    1    2    0    0  0.00000000000E+00  0.00000000000E+00  0.00000000000E+00  0.10000000000E+03  0.10000000000E+03 0.  0.
          5    1    3    3  501    0 -0.15553584549E+02  0.43147575377E+02  0.19346388469E+02  0.50000000000E+02  0.47000000000E+01 0. -1.
         -5    1    3    3    0  501  0.15553584549E+02 -0.43147575377E+02 -0.19346388469E+02  0.50000000000E+02  0.47000000000E+01 0.  1.
</event>
<event>
 5    1  0.9071520E-001  0.1000000E+03  0.7546771E-02  0.1163815E+00
         11   -1    0    0    0    0  0.00000000000E+00  0.00000000000E+00  0.50000000000E+02  0.50000000000E+02  0.00000000000E+00 0. -1.
        -11   -1    0    0    0    0 -0.00000000000E+00 -0.00000000000E+00 -0.50000000000E+02  0.50000000000E+02  0.00000000000E+00 0.  1.
         23    2    1    2    0    0  0.00000000000E+00  0.00000000000E+00  0.00000000000E+00  0.10000000000E+03  0.10000000000E+03 0.  0.
          5    1    3    3  501    0  0.47757537113E+02  0.88196634058E+01  0.10924339168E+02  0.50000000000E+02  0.47000000000E+01 0. -1.
         -5    1    3    3    0  501 -0.47757537113E+02 -0.88196634058E+01 -0.10924339168E+02  0.50000000000E+02  0.47000000000E+01 0.  1.
</event>
<event>
 5    1  0.9071520E-001  0.1000000E+03  0.7546771E-02  0.1163815E+00
         11   -1    0    0    0    0  0.00000000000E+00  0.00000000000E+00  0.50000000000E+02  0.50000000000E+02  0.00000000000E+00 0.  1.
        -11   -1    0    0    0    0 -0.00000000000E+00 -0.00000000000E+00 -0.50000000000E+02  0.50000000000E+02  0.00000000000E+00 0. -1.
         23    2    1    2    0    0  0.00000000000E+00  0.00000000000E+00  0.00000000000E+00  0.10000000000E+03  0.10000000000E+03 0.  0.
          5    1    3    3  501    0  0.47003734632E+02  0.16326513213E+02 -0.14155906780E+01  0.50000000000E+02  0.47000000000E+01 0. -1.
         -5    1    3    3    0  501 -0.47003734632E+02 -0.16326513213E+02  0.14155906780E+01  0.50000000000E+02  0.47000000000E+01 0.  1.
</event>
<event>
 5    1  0.9071520E-001  0.1000000E+03  0.7546771E-02  0.1163815E+00
         11   -1    0    0    0    0  0.00000000000E+00  0.00000000000E+00  0.50000000000E+02  0.50000000000E+02  0.00000000000E+00 0.  1.
        -11   -1    0    0    0    0 -0.00000000000E+00 -0.00000000000E+00 -0.50000000000E+02  0.50000000000E+02  0.00000000000E+00 0. -1.
         23    2    1    2    0    0  0.00000000000E+00  0.00000000000E+00  0.00000000000E+00  0.10000000000E+03  0.10000000000E+03 0.  0.
          5    1    3    3  501    0 -0.44565769057E+02  0.10774058203E+02 -0.19383547101E+02  0.50000000000E+02  0.47000000000E+01 0. -1.
         -5    1    3    3    0  501  0.44565769057E+02 -0.10774058203E+02  0.19383547101E+02  0.50000000000E+02  0.47000000000E+01 0.  1.
</event>
<event>
 5    1  0.9071520E-001  0.1000000E+03  0.7546771E-02  0.1163815E+00
         11   -1    0    0    0    0  0.00000000000E+00  0.00000000000E+00  0.50000000000E+02  0.50000000000E+02  0.00000000000E+00 0. -1.
        -11   -1    0    0    0    0 -0.00000000000E+00 -0.00000000000E+00 -0.50000000000E+02  0.50000000000E+02  0.00000000000E+00 0.  1.
         23    2    1    2    0    0  0.00000000000E+00  0.00000000000E+00  0.00000000000E+00  0.10000000000E+03  0.10000000000E+03 0.  0.
          5    1    3    3  501    0  0.31382771415E+01 -0.24273686771E+02  0.43345695832E+02  0.50000000000E+02  0.47000000000E+01 0. -1.
         -5    1    3    3    0  501 -0.31382771415E+01  0.24273686771E+02 -0.43345695832E+02  0.50000000000E+02  0.47000000000E+01 0.  1.
</event>
<event>
 5    1  0.9071520E-001  0.1000000E+03  0.7546771E-02  0.1163815E+00
         11   -1    0    0    0    0  0.00000000000E+00  0.00000000000E+00  0.50000000000E+02  0.50000000000E+02  0.00000000000E+00 0. -1.
        -11   -1    0    0    0    0 -0.00000000000E+00 -0.00000000000E+00 -0.50000000000E+02  0.50000000000E+02  0.00000000000E+00 0.  1.
         23    2    1    2    0    0  0.00000000000E+00  0.00000000000E+00  0.00000000000E+00  0.10000000000E+03  0.10000000000E+03 0.  0.
          5    1    3    3  501    0  0.23314003081E+02  0.24952122937E+02  0.36218211183E+02  0.50000000000E+02  0.47000000000E+01 0. -1.
         -5    1    3    3    0  501 -0.23314003081E+02 -0.24952122937E+02 -0.36218211183E+02  0.50000000000E+02  0.47000000000E+01 0.  1.
</event>
<event>
 5    1  0.9071520E-001  0.1000000E+03  0.7546771E-02  0.1163815E+00
         11   -1    0    0    0    0  0.00000000000E+00  0.00000000000E+00  0.50000000000E+02  0.50000000000E+02  0.00000000000E+00 0. -1.
        -11   -1    0    0    0    0 -0.00000000000E+00 -0.00000000000E+00 -0.50000000000E+02  0.50000000000E+02  0.00000000000E+00 0.  1.
         23    2    1    2    0    0  0.00000000000E+00  0.00000000000E+00  0.00000000000E+00  0.10000000000E+03  0.10000000000E+03 0.  0.
          5    1    3    3  501    0  0.44186820162E+01 -0.20566970994E+01  0.49539431227E+02  0.50000000000E+02  0.47000000000E+01 0. -1.
         -5    1    3    3    0  501 -0.44186820162E+01  0.20566970994E+01 -0.49539431227E+02  0.50000000000E+02  0.47000000000E+01 0.  1.
</event>
<event>
 5    1  0.9071520E-001  0.1000000E+03  0.7546771E-02  0.1163815E+00
         11   -1    0    0    0    0  0.00000000000E+00  0.00000000000E+00  0.50000000000E+02  0.50000000000E+02  0.00000000000E+00 0. -1.
        -11   -1    0    0    0    0 -0.00000000000E+00 -0.00000000000E+00 -0.50000000000E+02  0.50000000000E+02  0.00000000000E+00 0.  1.
         23    2    1    2    0    0  0.00000000000E+00  0.00000000000E+00  0.00000000000E+00  0.10000000000E+03  0.10000000000E+03 0.  0.
          5    1    3    3  501    0  0.38809179815E+02 -0.17428257228E+02  0.25845955431E+02  0.50000000000E+02  0.47000000000E+01 0. -1.
         -5    1    3    3    0  501 -0.38809179815E+02  0.17428257228E+02 -0.25845955431E+02  0.50000000000E+02  0.47000000000E+01 0.  1.
</event>
<event>
 5    1  0.9071520E-001  0.1000000E+03  0.7546771E-02  0.1163815E+00
         11   -1    0    0    0    0  0.00000000000E+00  0.00000000000E+00  0.50000000000E+02  0.50000000000E+02  0.00000000000E+00 0.  1.
        -11   -1    0    0    0    0 -0.00000000000E+00 -0.00000000000E+00 -0.50000000000E+02  0.50000000000E+02  0.00000000000E+00 0. -1.
         23    2    1    2    0    0  0.00000000000E+00  0.00000000000E+00  0.00000000000E+00  0.10000000000E+03  0.10000000000E+03 0.  0.
          5    1    3    3  501    0 -0.39678105318E+02 -0.26982547552E+02 -0.13247644545E+02  0.50000000000E+02  0.47000000000E+01 0. -1.
         -5    1    3    3    0  501  0.39678105318E+02  0.26982547552E+02  0.13247644545E+02  0.50000000000E+02  0.47000000000E+01 0.  1.
</event>
<event>
 5    1  0.9071520E-001  0.1000000E+03  0.7546771E-02  0.1163815E+00
         11   -1    0    0    0    0  0.00000000000E+00  0.00000000000E+00  0.50000000000E+02  0.50000000000E+02  0.00000000000E+00 0. -1.
        -11   -1    0    0    0    0 -0.00000000000E+00 -0.00000000000E+00 -0.50000000000E+02  0.50000000000E+02  0.00000000000E+00 0.  1.
         23    2    1    2    0    0  0.00000000000E+00  0.00000000000E+00  0.00000000000E+00  0.10000000000E+03  0.10000000000E+03 0.  0.
          5    1    3    3  501    0  0.16324235551E+01  0.28109076419E+02  0.41050274252E+02  0.50000000000E+02  0.47000000000E+01 0. -1.
         -5    1    3    3    0  501 -0.16324235551E+01 -0.28109076419E+02 -0.41050274252E+02  0.50000000000E+02  0.47000000000E+01 0.  1.
</event>
<event>
 5    1  0.9071520E-001  0.1000000E+03  0.7546771E-02  0.1163815E+00
         11   -1    0    0    0    0  0.00000000000E+00  0.00000000000E+00  0.50000000000E+02  0.50000000000E+02  0.00000000000E+00 0. -1.
        -11   -1    0    0    0    0 -0.00000000000E+00 -0.00000000000E+00 -0.50000000000E+02  0.50000000000E+02  0.00000000000E+00 0.  1.
         23    2    1    2    0    0  0.00000000000E+00  0.00000000000E+00  0.00000000000E+00  0.10000000000E+03  0.10000000000E+03 0.  0.
          5    1    3    3  501    0 -0.27271111414E+02  0.34360571368E+02  0.23527592684E+02  0.50000000000E+02  0.47000000000E+01 0. -1.
         -5    1    3    3    0  501  0.27271111414E+02 -0.34360571368E+02 -0.23527592684E+02  0.50000000000E+02  0.47000000000E+01 0.  1.
</event>
<event>
 5    1  0.9071520E-001  0.1000000E+03  0.7546771E-02  0.1163815E+00
         11   -1    0    0    0    0  0.00000000000E+00  0.00000000000E+00  0.50000000000E+02  0.50000000000E+02  0.00000000000E+00 0. -1.
        -11   -1    0    0    0    0 -0.00000000000E+00 -0.00000000000E+00 -0.50000000000E+02  0.50000000000E+02  0.00000000000E+00 0.  1.
         23    2    1    2    0    0  0.00000000000E+00  0.00000000000E+00  0.00000000000E+00  0.10000000000E+03  0.10000000000E+03 0.  0.
          5    1    3    3  501    0  0.18203541270E+01  0.20399813124E+02  0.45370077533E+02  0.50000000000E+02  0.47000000000E+01 0. -1.
         -5    1    3    3    0  501 -0.18203541270E+01 -0.20399813124E+02 -0.45370077533E+02  0.50000000000E+02  0.47000000000E+01 0.  1.
</event>
<event>
 5    1  0.9071520E-001  0.1000000E+03  0.7546771E-02  0.1163815E+00
         11   -1    0    0    0    0  0.00000000000E+00  0.00000000000E+00  0.50000000000E+02  0.50000000000E+02  0.00000000000E+00 0.  1.
        -11   -1    0    0    0    0 -0.00000000000E+00 -0.00000000000E+00 -0.50000000000E+02  0.50000000000E+02  0.00000000000E+00 0. -1.
         23    2    1    2    0    0  0.00000000000E+00  0.00000000000E+00  0.00000000000E+00  0.10000000000E+03  0.10000000000E+03 0.  0.
          5    1    3    3  501    0  0.79403059064E+01 -0.48162122461E+02 -0.97607121764E+01  0.50000000000E+02  0.47000000000E+01 0. -1.
         -5    1    3    3    0  501 -0.79403059064E+01  0.48162122461E+02  0.97607121764E+01  0.50000000000E+02  0.47000000000E+01 0.  1.
</event>
<event>
 5    1  0.9071520E-001  0.1000000E+03  0.7546771E-02  0.1163815E+00
         11   -1    0    0    0    0  0.00000000000E+00  0.00000000000E+00  0.50000000000E+02  0.50000000000E+02  0.00000000000E+00 0. -1.
        -11   -1    0    0    0    0 -0.00000000000E+00 -0.00000000000E+00 -0.50000000000E+02  0.50000000000E+02  0.00000000000E+00 0.  1.
         23    2    1    2    0    0  0.00000000000E+00  0.00000000000E+00  0.00000000000E+00  0.10000000000E+03  0.10000000000E+03 0.  0.
          5    1    3    3  501    0 -0.11391078558E+02  0.47963765062E+02  0.69014904479E+01  0.50000000000E+02  0.47000000000E+01 0. -1.
         -5    1    3    3    0  501  0.11391078558E+02 -0.47963765062E+02 -0.69014904479E+01  0.50000000000E+02  0.47000000000E+01 0.  1.
</event>
<event>
 5    1  0.9071520E-001  0.1000000E+03  0.7546771E-02  0.1163815E+00
         11   -1    0    0    0    0  0.00000000000E+00  0.00000000000E+00  0.50000000000E+02  0.50000000000E+02  0.00000000000E+00 0.  1.
        -11   -1    0    0    0    0 -0.00000000000E+00 -0.00000000000E+00 -0.50000000000E+02  0.50000000000E+02  0.00000000000E+00 0. -1.
         23    2    1    2    0    0  0.00000000000E+00  0.00000000000E+00  0.00000000000E+00  0.10000000000E+03  0.10000000000E+03 0.  0.
          5    1    3    3  501    0  0.74343544844E+01 -0.47378514955E+01 -0.48991766008E+02  0.50000000000E+02  0.47000000000E+01 0. -1.
         -5    1    3    3    0  501 -0.74343544844E+01  0.47378514955E+01  0.48991766008E+02  0.50000000000E+02  0.47000000000E+01 0.  1.
</event>
<event>
 5    1  0.9071520E-001  0.1000000E+03  0.7546771E-02  0.1163815E+00
         11   -1    0    0    0    0  0.00000000000E+00  0.00000000000E+00  0.50000000000E+02  0.50000000000E+02  0.00000000000E+00 0. -1.
        -11   -1    0    0    0    0 -0.00000000000E+00 -0.00000000000E+00 -0.50000000000E+02  0.50000000000E+02  0.00000000000E+00 0.  1.
         23    2    1    2    0    0  0.00000000000E+00  0.00000000000E+00  0.00000000000E+00  0.10000000000E+03  0.10000000000E+03 0.  0.
          5    1    3    3  501    0 -0.51945812976E+01 -0.19770790838E+02  0.45387687260E+02  0.50000000000E+02  0.47000000000E+01 0. -1.
         -5    1    3    3    0  501  0.51945812976E+01  0.19770790838E+02 -0.45387687260E+02  0.50000000000E+02  0.47000000000E+01 0.  1.
</event>
<event>
 5    1  0.9071520E-001  0.1000000E+03  0.7546771E-02  0.1163815E+00
         11   -1    0    0    0    0  0.00000000000E+00  0.00000000000E+00  0.50000000000E+02  0.50000000000E+02  0.00000000000E+00 0.  1.
        -11   -1    0    0    0    0 -0.00000000000E+00 -0.00000000000E+00 -0.50000000000E+02  0.50000000000E+02  0.00000000000E+00 0. -1.
         23    2    1    2    0    0  0.00000000000E+00  0.00000000000E+00  0.00000000000E+00  0.10000000000E+03  0.10000000000E+03 0.  0.
          5    1    3    3  501    0 -0.15775080885E+02 -0.47071422234E+02  0.36521270432E+01  0.50000000000E+02  0.47000000000E+01 0. -1.
         -5    1    3    3    0  501  0.15775080885E+02  0.47071422234E+02 -0.36521270432E+01  0.50000000000E+02  0.47000000000E+01 0.  1.
</event>
<event>
 5    1  0.9071520E-001  0.1000000E+03  0.7546771E-02  0.1163815E+00
         11   -1    0    0    0    0  0.00000000000E+00  0.00000000000E+00  0.50000000000E+02  0.50000000000E+02  0.00000000000E+00 0. -1.
        -11   -1    0    0    0    0 -0.00000000000E+00 -0.00000000000E+00 -0.50000000000E+02  0.50000000000E+02  0.00000000000E+00 0.  1.
         23    2    1    2    0    0  0.00000000000E+00  0.00000000000E+00  0.00000000000E+00  0.10000000000E+03  0.10000000000E+03 0.  0.
          5    1    3    3  501    0 -0.25354505794E+02  0.36146401830E+02  0.22989055455E+02  0.50000000000E+02  0.47000000000E+01 0. -1.
         -5    1    3    3    0  501  0.25354505794E+02 -0.36146401830E+02 -0.22989055455E+02  0.50000000000E+02  0.47000000000E+01 0.  1.
</event>
<event>
 5    1  0.9071520E-001  0.1000000E+03  0.7546771E-02  0.1163815E+00
         11   -1    0    0    0    0  0.00000000000E+00  0.00000000000E+00  0.50000000000E+02  0.50000000000E+02  0.00000000000E+00 0. -1.
        -11   -1    0    0    0    0 -0.00000000000E+00 -0.00000000000E+00 -0.50000000000E+02  0.50000000000E+02  0.00000000000E+00 0.  1.
         23    2    1    2    0    0  0.00000000000E+00  0.00000000000E+00  0.00000000000E+00  0.10000000000E+03  0.10000000000E+03 0.  0.
          5    1    3    3  501    0 -0.11629870448E+02  0.16852943724E+01  0.48371643514E+02  0.50000000000E+02  0.47000000000E+01 0. -1.
         -5    1    3    3    0  501  0.11629870448E+02 -0.16852943724E+01 -0.48371643514E+02  0.50000000000E+02  0.47000000000E+01 0.  1.
</event>
<event>
 5    1  0.9071520E-001  0.1000000E+03  0.7546771E-02  0.1163815E+00
         11   -1    0    0    0    0  0.00000000000E+00  0.00000000000E+00  0.50000000000E+02  0.50000000000E+02  0.00000000000E+00 0. -1.
        -11   -1    0    0    0    0 -0.00000000000E+00 -0.00000000000E+00 -0.50000000000E+02  0.50000000000E+02  0.00000000000E+00 0.  1.
         23    2    1    2    0    0  0.00000000000E+00  0.00000000000E+00  0.00000000000E+00  0.10000000000E+03  0.10000000000E+03 0.  0.
          5    1    3    3  501    0  0.24756640889E+02 -0.17187953066E+02  0.39618089319E+02  0.50000000000E+02  0.47000000000E+01 0. -1.
         -5    1    3    3    0  501 -0.24756640889E+02  0.17187953066E+02 -0.39618089319E+02  0.50000000000E+02  0.47000000000E+01 0.  1.
</event>
<event>
 5    1  0.9071520E-001  0.1000000E+03  0.7546771E-02  0.1163815E+00
         11   -1    0    0    0    0  0.00000000000E+00  0.00000000000E+00  0.50000000000E+02  0.50000000000E+02  0.00000000000E+00 0. -1.
        -11   -1    0    0    0    0 -0.00000000000E+00 -0.00000000000E+00 -0.50000000000E+02  0.50000000000E+02  0.00000000000E+00 0.  1.
         23    2    1    2    0    0  0.00000000000E+00  0.00000000000E+00  0.00000000000E+00  0.10000000000E+03  0.10000000000E+03 0.  0.
          5    1    3    3  501    0 -0.12592189737E+02  0.13969474506E+02  0.46089050106E+02  0.50000000000E+02  0.47000000000E+01 0. -1.
         -5    1    3    3    0  501  0.12592189737E+02 -0.13969474506E+02 -0.46089050106E+02  0.50000000000E+02  0.47000000000E+01 0.  1.
</event>
<event>
 5    1  0.9071520E-001  0.1000000E+03  0.7546771E-02  0.1163815E+00
         11   -1    0    0    0    0  0.00000000000E+00  0.00000000000E+00  0.50000000000E+02  0.50000000000E+02  0.00000000000E+00 0. -1.
        -11   -1    0    0    0    0 -0.00000000000E+00 -0.00000000000E+00 -0.50000000000E+02  0.50000000000E+02  0.00000000000E+00 0.  1.
         23    2    1    2    0    0  0.00000000000E+00  0.00000000000E+00  0.00000000000E+00  0.10000000000E+03  0.10000000000E+03 0.  0.
          5    1    3    3  501    0 -0.17318221356E+02 -0.46371008251E+02 -0.52648649382E+01  0.50000000000E+02  0.47000000000E+01 0. -1.
         -5    1    3    3    0  501  0.17318221356E+02  0.46371008251E+02  0.52648649382E+01  0.50000000000E+02  0.47000000000E+01 0.  1.
</event>
<event>
 5    1  0.9071520E-001  0.1000000E+03  0.7546771E-02  0.1163815E+00
         11   -1    0    0    0    0  0.00000000000E+00  0.00000000000E+00  0.50000000000E+02  0.50000000000E+02  0.00000000000E+00 0.  1.
        -11   -1    0    0    0    0 -0.00000000000E+00 -0.00000000000E+00 -0.50000000000E+02  0.50000000000E+02  0.00000000000E+00 0. -1.
         23    2    1    2    0    0  0.00000000000E+00  0.00000000000E+00  0.00000000000E+00  0.10000000000E+03  0.10000000000E+03 0.  0.
          5    1    3    3  501    0  0.31292657155E+02  0.29286502151E+02  0.25317590721E+02  0.50000000000E+02  0.47000000000E+01 0. -1.
         -5    1    3    3    0  501 -0.31292657155E+02 -0.29286502151E+02 -0.25317590721E+02  0.50000000000E+02  0.47000000000E+01 0.  1.
</event>
<event>
 5    1  0.9071520E-001  0.1000000E+03  0.7546771E-02  0.1163815E+00
         11   -1    0    0    0    0  0.00000000000E+00  0.00000000000E+00  0.50000000000E+02  0.50000000000E+02  0.00000000000E+00 0. -1.
        -11   -1    0    0    0    0 -0.00000000000E+00 -0.00000000000E+00 -0.50000000000E+02  0.50000000000E+02  0.00000000000E+00 0.  1.
         23    2    1    2    0    0  0.00000000000E+00  0.00000000000E+00  0.00000000000E+00  0.10000000000E+03  0.10000000000E+03 0.  0.
          5    1    3    3  501    0  0.43207876686E+01  0.31783070788E+02  0.38066746712E+02  0.50000000000E+02  0.47000000000E+01 0. -1.
         -5    1    3    3    0  501 -0.43207876686E+01 -0.31783070788E+02 -0.38066746712E+02  0.50000000000E+02  0.47000000000E+01 0.  1.
</event>
<event>
 5    1  0.9071520E-001  0.1000000E+03  0.7546771E-02  0.1163815E+00
         11   -1    0    0    0    0  0.00000000000E+00  0.00000000000E+00  0.50000000000E+02  0.50000000000E+02  0.00000000000E+00 0. -1.
        -11   -1    0    0    0    0 -0.00000000000E+00 -0.00000000000E+00 -0.50000000000E+02  0.50000000000E+02  0.00000000000E+00 0.  1.
         23    2    1    2    0    0  0.00000000000E+00  0.00000000000E+00  0.00000000000E+00  0.10000000000E+03  0.10000000000E+03 0.  0.
          5    1    3    3  501    0  0.13270373943E+02  0.46315627404E+02 -0.12516782079E+02  0.50000000000E+02  0.47000000000E+01 0. -1.
         -5    1    3    3    0  501 -0.13270373943E+02 -0.46315627404E+02  0.12516782079E+02  0.50000000000E+02  0.47000000000E+01 0.  1.
</event>
<event>
 5    1  0.9071520E-001  0.1000000E+03  0.7546771E-02  0.1163815E+00
         11   -1    0    0    0    0  0.00000000000E+00  0.00000000000E+00  0.50000000000E+02  0.50000000000E+02  0.00000000000E+00 0. -1.
        -11   -1    0    0    0    0 -0.00000000000E+00 -0.00000000000E+00 -0.50000000000E+02  0.50000000000E+02  0.00000000000E+00 0.  1.
         23    2    1    2    0    0  0.00000000000E+00  0.00000000000E+00  0.00000000000E+00  0.10000000000E+03  0.10000000000E+03 0.  0.
          5    1    3    3  501    0 -0.13299109265E+02 -0.29768128825E+02  0.37615185751E+02  0.50000000000E+02  0.47000000000E+01 0. -1.
         -5    1    3    3    0  501  0.13299109265E+02  0.29768128825E+02 -0.37615185751E+02  0.50000000000E+02  0.47000000000E+01 0.  1.
</event>
<event>
 5    1  0.9071520E-001  0.1000000E+03  0.7546771E-02  0.1163815E+00
         11   -1    0    0    0    0  0.00000000000E+00  0.00000000000E+00  0.50000000000E+02  0.50000000000E+02  0.00000000000E+00 0. -1.
        -11   -1    0    0    0    0 -0.00000000000E+00 -0.00000000000E+00 -0.50000000000E+02  0.50000000000E+02  0.00000000000E+00 0.  1.
         23    2    1    2    0    0  0.00000000000E+00  0.00000000000E+00  0.00000000000E+00  0.10000000000E+03  0.10000000000E+03 0.  0.
          5    1    3    3  501    0  0.21037734402E+02  0.19265224358E+02  0.40794299377E+02  0.50000000000E+02  0.47000000000E+01 0. -1.
         -5    1    3    3    0  501 -0.21037734402E+02 -0.19265224358E+02 -0.40794299377E+02  0.50000000000E+02  0.47000000000E+01 0.  1.
</event>
<event>
 5    1  0.9071520E-001  0.1000000E+03  0.7546771E-02  0.1163815E+00
         11   -1    0    0    0    0  0.00000000000E+00  0.00000000000E+00  0.50000000000E+02  0.50000000000E+02  0.00000000000E+00 0.  1.
        -11   -1    0    0    0    0 -0.00000000000E+00 -0.00000000000E+00 -0.50000000000E+02  0.50000000000E+02  0.00000000000E+00 0. -1.
         23    2    1    2    0    0  0.00000000000E+00  0.00000000000E+00  0.00000000000E+00  0.10000000000E+03  0.10000000000E+03 0.  0.
          5    1    3    3  501    0 -0.40152205272E+02  0.14169765673E+01 -0.29388817418E+02  0.50000000000E+02  0.47000000000E+01 0. -1.
         -5    1    3    3    0  501  0.40152205272E+02 -0.14169765673E+01  0.29388817418E+02  0.50000000000E+02  0.47000000000E+01 0.  1.
</event>
<event>
 5    1  0.9071520E-001  0.1000000E+03  0.7546771E-02  0.1163815E+00
         11   -1    0    0    0    0  0.00000000000E+00  0.00000000000E+00  0.50000000000E+02  0.50000000000E+02  0.00000000000E+00 0. -1.
        -11   -1    0    0    0    0 -0.00000000000E+00 -0.00000000000E+00 -0.50000000000E+02  0.50000000000E+02  0.00000000000E+00 0.  1.
         23    2    1    2    0    0  0.00000000000E+00  0.00000000000E+00  0.00000000000E+00  0.10000000000E+03  0.10000000000E+03 0.  0.
          5    1    3    3  501    0  0.23481904042E+02 -0.13829429153E+02  0.41656416935E+02  0.50000000000E+02  0.47000000000E+01 0. -1.
         -5    1    3    3    0  501 -0.23481904042E+02  0.13829429153E+02 -0.41656416935E+02  0.50000000000E+02  0.47000000000E+01 0.  1.
</event>
<event>
 5    1  0.9071520E-001  0.1000000E+03  0.7546771E-02  0.1163815E+00
         11   -1    0    0    0    0  0.00000000000E+00  0.00000000000E+00  0.50000000000E+02  0.50000000000E+02  0.00000000000E+00 0. -1.
        -11   -1    0    0    0    0 -0.00000000000E+00 -0.00000000000E+00 -0.50000000000E+02  0.50000000000E+02  0.00000000000E+00 0.  1.
         23    2    1    2    0    0  0.00000000000E+00  0.00000000000E+00  0.00000000000E+00  0.10000000000E+03  0.10000000000E+03 0.  0.
          5    1    3    3  501    0  0.25462846698E+02 -0.37224346161E+02 -0.21068969860E+02  0.50000000000E+02  0.47000000000E+01 0. -1.
         -5    1    3    3    0  501 -0.25462846698E+02  0.37224346161E+02  0.21068969860E+02  0.50000000000E+02  0.47000000000E+01 0.  1.
</event>
<event>
 5    1  0.9071520E-001  0.1000000E+03  0.7546771E-02  0.1163815E+00
         11   -1    0    0    0    0  0.00000000000E+00  0.00000000000E+00  0.50000000000E+02  0.50000000000E+02  0.00000000000E+00 0. -1.
        -11   -1    0    0    0    0 -0.00000000000E+00 -0.00000000000E+00 -0.50000000000E+02  0.50000000000E+02  0.00000000000E+00 0.  1.
         23    2    1    2    0    0  0.00000000000E+00  0.00000000000E+00  0.00000000000E+00  0.10000000000E+03  0.10000000000E+03 0.  0.
          5    1    3    3  501    0  0.24164097923E+02 -0.15583959730E+02  0.40634302882E+02  0.50000000000E+02  0.47000000000E+01 0. -1.
         -5    1    3    3    0  501 -0.24164097923E+02  0.15583959730E+02 -0.40634302882E+02  0.50000000000E+02  0.47000000000E+01 0.  1.
</event>
<event>
 5    1  0.9071520E-001  0.1000000E+03  0.7546771E-02  0.1163815E+00
         11   -1    0    0    0    0  0.00000000000E+00  0.00000000000E+00  0.50000000000E+02  0.50000000000E+02  0.00000000000E+00 0. -1.
        -11   -1    0    0    0    0 -0.00000000000E+00 -0.00000000000E+00 -0.50000000000E+02  0.50000000000E+02  0.00000000000E+00 0.  1.
         23    2    1    2    0    0  0.00000000000E+00  0.00000000000E+00  0.00000000000E+00  0.10000000000E+03  0.10000000000E+03 0.  0.
          5    1    3    3  501    0 -0.13573159264E+02  0.38990058071E+02  0.27811053903E+02  0.50000000000E+02  0.47000000000E+01 0. -1.
         -5    1    3    3    0  501  0.13573159264E+02 -0.38990058071E+02 -0.27811053903E+02  0.50000000000E+02  0.47000000000E+01 0.  1.
</event>
<event>
 5    1  0.9071520E-001  0.1000000E+03  0.7546771E-02  0.1163815E+00
         11   -1    0    0    0    0  0.00000000000E+00  0.00000000000E+00  0.50000000000E+02  0.50000000000E+02  0.00000000000E+00 0. -1.
        -11   -1    0    0    0    0 -0.00000000000E+00 -0.00000000000E+00 -0.50000000000E+02  0.50000000000E+02  0.00000000000E+00 0.  1.
         23    2    1    2    0    0  0.00000000000E+00  0.00000000000E+00  0.00000000000E+00  0.10000000000E+03  0.10000000000E+03 0.  0.
          5    1    3    3  501    0  0.35808906586E+02 -0.30098430937E+02  0.17021065308E+02  0.50000000000E+02  0.47000000000E+01 0. -1.
         -5    1    3    3    0  501 -0.35808906586E+02  0.30098430937E+02 -0.17021065308E+02  0.50000000000E+02  0.47000000000E+01 0.  1.
</event>
<event>
 5    1  0.9071520E-001  0.1000000E+03  0.7546771E-02  0.1163815E+00
         11   -1    0    0    0    0  0.00000000000E+00  0.00000000000E+00  0.50000000000E+02  0.50000000000E+02  0.00000000000E+00 0.  1.
        -11   -1    0    0    0    0 -0.00000000000E+00 -0.00000000000E+00 -0.50000000000E+02  0.50000000000E+02  0.00000000000E+00 0. -1.
         23    2    1    2    0    0  0.00000000000E+00  0.00000000000E+00  0.00000000000E+00  0.10000000000E+03  0.10000000000E+03 0.  0.
          5    1    3    3  501    0  0.31597065114E+02 -0.26907894135E+02 -0.27486373159E+02  0.50000000000E+02  0.47000000000E+01 0. -1.
         -5    1    3    3    0  501 -0.31597065114E+02  0.26907894135E+02  0.27486373159E+02  0.50000000000E+02  0.47000000000E+01 0.  1.
</event>
<event>
 5    1  0.9071520E-001  0.1000000E+03  0.7546771E-02  0.1163815E+00
         11   -1    0    0    0    0  0.00000000000E+00  0.00000000000E+00  0.50000000000E+02  0.50000000000E+02  0.00000000000E+00 0.  1.
        -11   -1    0    0    0    0 -0.00000000000E+00 -0.00000000000E+00 -0.50000000000E+02  0.50000000000E+02  0.00000000000E+00 0. -1.
         23    2    1    2    0    0  0.00000000000E+00  0.00000000000E+00  0.00000000000E+00  0.10000000000E+03  0.10000000000E+03 0.  0.
          5    1    3    3  501    0  0.34860499764E+02  0.92883384489E+01 -0.34298430359E+02  0.50000000000E+02  0.47000000000E+01 0. -1.
         -5    1    3    3    0  501 -0.34860499764E+02 -0.92883384489E+01  0.34298430359E+02  0.50000000000E+02  0.47000000000E+01 0.  1.
</event>
<event>
 5    1  0.9071520E-001  0.1000000E+03  0.7546771E-02  0.1163815E+00
         11   -1    0    0    0    0  0.00000000000E+00  0.00000000000E+00  0.50000000000E+02  0.50000000000E+02  0.00000000000E+00 0. -1.
        -11   -1    0    0    0    0 -0.00000000000E+00 -0.00000000000E+00 -0.50000000000E+02  0.50000000000E+02  0.00000000000E+00 0.  1.
         23    2    1    2    0    0  0.00000000000E+00  0.00000000000E+00  0.00000000000E+00  0.10000000000E+03  0.10000000000E+03 0.  0.
          5    1    3    3  501    0  0.22770999227E+02  0.19638077310E+02  0.39670360646E+02  0.50000000000E+02  0.47000000000E+01 0. -1.
         -5    1    3    3    0  501 -0.22770999227E+02 -0.19638077310E+02 -0.39670360646E+02  0.50000000000E+02  0.47000000000E+01 0.  1.
</event>
<event>
 5    1  0.9071520E-001  0.1000000E+03  0.7546771E-02  0.1163815E+00
         11   -1    0    0    0    0  0.00000000000E+00  0.00000000000E+00  0.50000000000E+02  0.50000000000E+02  0.00000000000E+00 0.  1.
        -11   -1    0    0    0    0 -0.00000000000E+00 -0.00000000000E+00 -0.50000000000E+02  0.50000000000E+02  0.00000000000E+00 0. -1.
         23    2    1    2    0    0  0.00000000000E+00  0.00000000000E+00  0.00000000000E+00  0.10000000000E+03  0.10000000000E+03 0.  0.
          5    1    3    3  501    0 -0.15770802415E+02 -0.26592553834E+02 -0.39013175618E+02  0.50000000000E+02  0.47000000000E+01 0. -1.
         -5    1    3    3    0  501  0.15770802415E+02  0.26592553834E+02  0.39013175618E+02  0.50000000000E+02  0.47000000000E+01 0.  1.
</event>
<event>
 5    1  0.9071520E-001  0.1000000E+03  0.7546771E-02  0.1163815E+00
         11   -1    0    0    0    0  0.00000000000E+00  0.00000000000E+00  0.50000000000E+02  0.50000000000E+02  0.00000000000E+00 0.  1.
        -11   -1    0    0    0    0 -0.00000000000E+00 -0.00000000000E+00 -0.50000000000E+02  0.50000000000E+02  0.00000000000E+00 0. -1.
         23    2    1    2    0    0  0.00000000000E+00  0.00000000000E+00  0.00000000000E+00  0.10000000000E+03  0.10000000000E+03 0.  0.
          5    1    3    3  501    0  0.20962819598E+02  0.35166579875E+02 -0.28315752761E+02  0.50000000000E+02  0.47000000000E+01 0. -1.
         -5    1    3    3    0  501 -0.20962819598E+02 -0.35166579875E+02  0.28315752761E+02  0.50000000000E+02  0.47000000000E+01 0.  1.
</event>
<event>
 5    1  0.9071520E-001  0.1000000E+03  0.7546771E-02  0.1163815E+00
         11   -1    0    0    0    0  0.00000000000E+00  0.00000000000E+00  0.50000000000E+02  0.50000000000E+02  0.00000000000E+00 0. -1.
        -11   -1    0    0    0    0 -0.00000000000E+00 -0.00000000000E+00 -0.50000000000E+02  0.50000000000E+02  0.00000000000E+00 0.  1.
         23    2    1    2    0    0  0.00000000000E+00  0.00000000000E+00  0.00000000000E+00  0.10000000000E+03  0.10000000000E+03 0.  0.
          5    1    3    3  501    0  0.49236334134E+02  0.65160386709E+01  0.33518116190E+01  0.50000000000E+02  0.47000000000E+01 0. -1.
         -5    1    3    3    0  501 -0.49236334134E+02 -0.65160386709E+01 -0.33518116190E+01  0.50000000000E+02  0.47000000000E+01 0.  1.
</event>
<event>
 5    1  0.9071520E-001  0.1000000E+03  0.7546771E-02  0.1163815E+00
         11   -1    0    0    0    0  0.00000000000E+00  0.00000000000E+00  0.50000000000E+02  0.50000000000E+02  0.00000000000E+00 0.  1.
        -11   -1    0    0    0    0 -0.00000000000E+00 -0.00000000000E+00 -0.50000000000E+02  0.50000000000E+02  0.00000000000E+00 0. -1.
         23    2    1    2    0    0  0.00000000000E+00  0.00000000000E+00  0.00000000000E+00  0.10000000000E+03  0.10000000000E+03 0.  0.
          5    1    3    3  501    0  0.27687958213E+02  0.20649571376E+02 -0.35845253130E+02  0.50000000000E+02  0.47000000000E+01 0. -1.
         -5    1    3    3    0  501 -0.27687958213E+02 -0.20649571376E+02  0.35845253130E+02  0.50000000000E+02  0.47000000000E+01 0.  1.
</event>
<event>
 5    1  0.9071520E-001  0.1000000E+03  0.7546771E-02  0.1163815E+00
         11   -1    0    0    0    0  0.00000000000E+00  0.00000000000E+00  0.50000000000E+02  0.50000000000E+02  0.00000000000E+00 0.  1.
        -11   -1    0    0    0    0 -0.00000000000E+00 -0.00000000000E+00 -0.50000000000E+02  0.50000000000E+02  0.00000000000E+00 0. -1.
         23    2    1    2    0    0  0.00000000000E+00  0.00000000000E+00  0.00000000000E+00  0.10000000000E+03  0.10000000000E+03 0.  0.
          5    1    3    3  501    0 -0.27945511405E+02 -0.39857366989E+02 -0.10409067635E+02  0.50000000000E+02  0.47000000000E+01 0. -1.
         -5    1    3    3    0  501  0.27945511405E+02  0.39857366989E+02  0.10409067635E+02  0.50000000000E+02  0.47000000000E+01 0.  1.
</event>
<event>
 5    1  0.9071520E-001  0.1000000E+03  0.7546771E-02  0.1163815E+00
         11   -1    0    0    0    0  0.00000000000E+00  0.00000000000E+00  0.50000000000E+02  0.50000000000E+02  0.00000000000E+00 0. -1.
        -11   -1    0    0    0    0 -0.00000000000E+00 -0.00000000000E+00 -0.50000000000E+02  0.50000000000E+02  0.00000000000E+00 0.  1.
         23    2    1    2    0    0  0.00000000000E+00  0.00000000000E+00  0.00000000000E+00  0.10000000000E+03  0.10000000000E+03 0.  0.
          5    1    3    3  501    0 -0.18772248262E+02  0.32050889861E+02  0.33139902751E+02  0.50000000000E+02  0.47000000000E+01 0. -1.
         -5    1    3    3    0  501  0.18772248262E+02 -0.32050889861E+02 -0.33139902751E+02  0.50000000000E+02  0.47000000000E+01 0.  1.
</event>
<event>
 5    1  0.9071520E-001  0.1000000E+03  0.7546771E-02  0.1163815E+00
         11   -1    0    0    0    0  0.00000000000E+00  0.00000000000E+00  0.50000000000E+02  0.50000000000E+02  0.00000000000E+00 0. -1.
        -11   -1    0    0    0    0 -0.00000000000E+00 -0.00000000000E+00 -0.50000000000E+02  0.50000000000E+02  0.00000000000E+00 0.  1.
         23    2    1    2    0    0  0.00000000000E+00  0.00000000000E+00  0.00000000000E+00  0.10000000000E+03  0.10000000000E+03 0.  0.
          5    1    3    3  501    0  0.16233414102E+02  0.17120825968E+02  0.43832220851E+02  0.50000000000E+02  0.47000000000E+01 0. -1.
         -5    1    3    3    0  501 -0.16233414102E+02 -0.17120825968E+02 -0.43832220851E+02  0.50000000000E+02  0.47000000000E+01 0.  1.
</event>
<event>
 5    1  0.9071520E-001  0.1000000E+03  0.7546771E-02  0.1163815E+00
         11   -1    0    0    0    0  0.00000000000E+00  0.00000000000E+00  0.50000000000E+02  0.50000000000E+02  0.00000000000E+00 0. -1.
        -11   -1    0    0    0    0 -0.00000000000E+00 -0.00000000000E+00 -0.50000000000E+02  0.50000000000E+02  0.00000000000E+00 0.  1.
         23    2    1    2    0    0  0.00000000000E+00  0.00000000000E+00  0.00000000000E+00  0.10000000000E+03  0.10000000000E+03 0.  0.
          5    1    3    3  501    0 -0.14877993264E+02  0.12191498093E+02  0.45912119214E+02  0.50000000000E+02  0.47000000000E+01 0. -1.
         -5    1    3    3    0  501  0.14877993264E+02 -0.12191498093E+02 -0.45912119214E+02  0.50000000000E+02  0.47000000000E+01 0.  1.
</event>
<event>
 5    1  0.9071520E-001  0.1000000E+03  0.7546771E-02  0.1163815E+00
         11   -1    0    0    0    0  0.00000000000E+00  0.00000000000E+00  0.50000000000E+02  0.50000000000E+02  0.00000000000E+00 0. -1.
        -11   -1    0    0    0    0 -0.00000000000E+00 -0.00000000000E+00 -0.50000000000E+02  0.50000000000E+02  0.00000000000E+00 0.  1.
         23    2    1    2    0    0  0.00000000000E+00  0.00000000000E+00  0.00000000000E+00  0.10000000000E+03  0.10000000000E+03 0.  0.
          5    1    3    3  501    0 -0.22762616277E+02 -0.41302941136E+02  0.15932368115E+02  0.50000000000E+02  0.47000000000E+01 0. -1.
         -5    1    3    3    0  501  0.22762616277E+02  0.41302941136E+02 -0.15932368115E+02  0.50000000000E+02  0.47000000000E+01 0.  1.
</event>
<event>
 5    1  0.9071520E-001  0.1000000E+03  0.7546771E-02  0.1163815E+00
         11   -1    0    0    0    0  0.00000000000E+00  0.00000000000E+00  0.50000000000E+02  0.50000000000E+02  0.00000000000E+00 0.  1.
        -11   -1    0    0    0    0 -0.00000000000E+00 -0.00000000000E+00 -0.50000000000E+02  0.50000000000E+02  0.00000000000E+00 0. -1.
         23    2    1    2    0    0  0.00000000000E+00  0.00000000000E+00  0.00000000000E+00  0.10000000000E+03  0.10000000000E+03 0.  0.
          5    1    3    3  501    0  0.16397055996E+01  0.48669071431E+02  0.10321959677E+02  0.50000000000E+02  0.47000000000E+01 0. -1.
         -5    1    3    3    0  501 -0.16397055996E+01 -0.48669071431E+02 -0.10321959677E+02  0.50000000000E+02  0.47000000000E+01 0.  1.
</event>
<event>
 5    1  0.9071520E-001  0.1000000E+03  0.7546771E-02  0.1163815E+00
         11   -1    0    0    0    0  0.00000000000E+00  0.00000000000E+00  0.50000000000E+02  0.50000000000E+02  0.00000000000E+00 0. -1.
        -11   -1    0    0    0    0 -0.00000000000E+00 -0.00000000000E+00 -0.50000000000E+02  0.50000000000E+02  0.00000000000E+00 0.  1.
         23    2    1    2    0    0  0.00000000000E+00  0.00000000000E+00  0.00000000000E+00  0.10000000000E+03  0.10000000000E+03 0.  0.
          5    1    3    3  501    0 -0.33426728633E-02  0.47060309583E+02  0.16224587846E+02  0.50000000000E+02  0.47000000000E+01 0. -1.
         -5    1    3    3    0  501  0.33426728633E-02 -0.47060309583E+02 -0.16224587846E+02  0.50000000000E+02  0.47000000000E+01 0.  1.
</event>
<event>
 5    1  0.9071520E-001  0.1000000E+03  0.7546771E-02  0.1163815E+00
         11   -1    0    0    0    0  0.00000000000E+00  0.00000000000E+00  0.50000000000E+02  0.50000000000E+02  0.00000000000E+00 0.  1.
        -11   -1    0    0    0    0 -0.00000000000E+00 -0.00000000000E+00 -0.50000000000E+02  0.50000000000E+02  0.00000000000E+00 0. -1.
         23    2    1    2    0    0  0.00000000000E+00  0.00000000000E+00  0.00000000000E+00  0.10000000000E+03  0.10000000000E+03 0.  0.
          5    1    3    3  501    0  0.12556688429E+02  0.12365927221E+02 -0.46554520937E+02  0.50000000000E+02  0.47000000000E+01 0. -1.
         -5    1    3    3    0  501 -0.12556688429E+02 -0.12365927221E+02  0.46554520937E+02  0.50000000000E+02  0.47000000000E+01 0.  1.
</event>
<event>
 5    1  0.9071520E-001  0.1000000E+03  0.7546771E-02  0.1163815E+00
         11   -1    0    0    0    0  0.00000000000E+00  0.00000000000E+00  0.50000000000E+02  0.50000000000E+02  0.00000000000E+00 0. -1.
        -11   -1    0    0    0    0 -0.00000000000E+00 -0.00000000000E+00 -0.50000000000E+02  0.50000000000E+02  0.00000000000E+00 0.  1.
         23    2    1    2    0    0  0.00000000000E+00  0.00000000000E+00  0.00000000000E+00  0.10000000000E+03  0.10000000000E+03 0.  0.
          5    1    3    3  501    0  0.34207165848E+02  0.32908327878E+02 -0.14994057520E+02  0.50000000000E+02  0.47000000000E+01 0. -1.
         -5    1    3    3    0  501 -0.34207165848E+02 -0.32908327878E+02  0.14994057520E+02  0.50000000000E+02  0.47000000000E+01 0.  1.
</event>
<event>
 5    1  0.9071520E-001  0.1000000E+03  0.7546771E-02  0.1163815E+00
         11   -1    0    0    0    0  0.00000000000E+00  0.00000000000E+00  0.50000000000E+02  0.50000000000E+02  0.00000000000E+00 0.  1.
        -11   -1    0    0    0    0 -0.00000000000E+00 -0.00000000000E+00 -0.50000000000E+02  0.50000000000E+02  0.00000000000E+00 0. -1.
         23    2    1    2    0    0  0.00000000000E+00  0.00000000000E+00  0.00000000000E+00  0.10000000000E+03  0.10000000000E+03 0.  0.
          5    1    3    3  501    0 -0.34454490537E+02  0.26916399537E+02  0.23797174576E+02  0.50000000000E+02  0.47000000000E+01 0. -1.
         -5    1    3    3    0  501  0.34454490537E+02 -0.26916399537E+02 -0.23797174576E+02  0.50000000000E+02  0.47000000000E+01 0.  1.
</event>
<event>
 5    1  0.9071520E-001  0.1000000E+03  0.7546771E-02  0.1163815E+00
         11   -1    0    0    0    0  0.00000000000E+00  0.00000000000E+00  0.50000000000E+02  0.50000000000E+02  0.00000000000E+00 0. -1.
        -11   -1    0    0    0    0 -0.00000000000E+00 -0.00000000000E+00 -0.50000000000E+02  0.50000000000E+02  0.00000000000E+00 0.  1.
         23    2    1    2    0    0  0.00000000000E+00  0.00000000000E+00  0.00000000000E+00  0.10000000000E+03  0.10000000000E+03 0.  0.
          5    1    3    3  501    0 -0.19037432200E+02 -0.64736321259E+01  0.45536559623E+02  0.50000000000E+02  0.47000000000E+01 0. -1.
         -5    1    3    3    0  501  0.19037432200E+02  0.64736321259E+01 -0.45536559623E+02  0.50000000000E+02  0.47000000000E+01 0.  1.
</event>
<event>
 5    1  0.9071520E-001  0.1000000E+03  0.7546771E-02  0.1163815E+00
         11   -1    0    0    0    0  0.00000000000E+00  0.00000000000E+00  0.50000000000E+02  0.50000000000E+02  0.00000000000E+00 0. -1.
        -11   -1    0    0    0    0 -0.00000000000E+00 -0.00000000000E+00 -0.50000000000E+02  0.50000000000E+02  0.00000000000E+00 0.  1.
         23    2    1    2    0    0  0.00000000000E+00  0.00000000000E+00  0.00000000000E+00  0.10000000000E+03  0.10000000000E+03 0.  0.
          5    1    3    3  501    0  0.47911818011E+02  0.11254057774E+02  0.74641729960E+01  0.50000000000E+02  0.47000000000E+01 0. -1.
         -5    1    3    3    0  501 -0.47911818011E+02 -0.11254057774E+02 -0.74641729960E+01  0.50000000000E+02  0.47000000000E+01 0.  1.
</event>
<event>
 5    1  0.9071520E-001  0.1000000E+03  0.7546771E-02  0.1163815E+00
         11   -1    0    0    0    0  0.00000000000E+00  0.00000000000E+00  0.50000000000E+02  0.50000000000E+02  0.00000000000E+00 0. -1.
        -11   -1    0    0    0    0 -0.00000000000E+00 -0.00000000000E+00 -0.50000000000E+02  0.50000000000E+02  0.00000000000E+00 0.  1.
         23    2    1    2    0    0  0.00000000000E+00  0.00000000000E+00  0.00000000000E+00  0.10000000000E+03  0.10000000000E+03 0.  0.
          5    1    3    3  501    0  0.26050002366E+02  0.25531397718E+02  0.33874106738E+02  0.50000000000E+02  0.47000000000E+01 0. -1.
         -5    1    3    3    0  501 -0.26050002366E+02 -0.25531397718E+02 -0.33874106738E+02  0.50000000000E+02  0.47000000000E+01 0.  1.
</event>
<event>
 5    1  0.9071520E-001  0.1000000E+03  0.7546771E-02  0.1163815E+00
         11   -1    0    0    0    0  0.00000000000E+00  0.00000000000E+00  0.50000000000E+02  0.50000000000E+02  0.00000000000E+00 0. -1.
        -11   -1    0    0    0    0 -0.00000000000E+00 -0.00000000000E+00 -0.50000000000E+02  0.50000000000E+02  0.00000000000E+00 0.  1.
         23    2    1    2    0    0  0.00000000000E+00  0.00000000000E+00  0.00000000000E+00  0.10000000000E+03  0.10000000000E+03 0.  0.
          5    1    3    3  501    0  0.10067792083E+02 -0.45877047051E+02  0.16487756561E+02  0.50000000000E+02  0.47000000000E+01 0. -1.
         -5    1    3    3    0  501 -0.10067792083E+02  0.45877047051E+02 -0.16487756561E+02  0.50000000000E+02  0.47000000000E+01 0.  1.
</event>
<event>
 5    1  0.9071520E-001  0.1000000E+03  0.7546771E-02  0.1163815E+00
         11   -1    0    0    0    0  0.00000000000E+00  0.00000000000E+00  0.50000000000E+02  0.50000000000E+02  0.00000000000E+00 0. -1.
        -11   -1    0    0    0    0 -0.00000000000E+00 -0.00000000000E+00 -0.50000000000E+02  0.50000000000E+02  0.00000000000E+00 0.  1.
         23    2    1    2    0    0  0.00000000000E+00  0.00000000000E+00  0.00000000000E+00  0.10000000000E+03  0.10000000000E+03 0.  0.
          5    1    3    3  501    0 -0.44122678117E+02  0.22988541966E+02  0.16205597977E+01  0.50000000000E+02  0.47000000000E+01 0. -1.
         -5    1    3    3    0  501  0.44122678117E+02 -0.22988541966E+02 -0.16205597977E+01  0.50000000000E+02  0.47000000000E+01 0.  1.
</event>
<event>
 5    1  0.9071520E-001  0.1000000E+03  0.7546771E-02  0.1163815E+00
         11   -1    0    0    0    0  0.00000000000E+00  0.00000000000E+00  0.50000000000E+02  0.50000000000E+02  0.00000000000E+00 0.  1.
        -11   -1    0    0    0    0 -0.00000000000E+00 -0.00000000000E+00 -0.50000000000E+02  0.50000000000E+02  0.00000000000E+00 0. -1.
         23    2    1    2    0    0  0.00000000000E+00  0.00000000000E+00  0.00000000000E+00  0.10000000000E+03  0.10000000000E+03 0.  0.
          5    1    3    3  501    0  0.35256057978E+02 -0.14886472251E+02 -0.31832582675E+02  0.50000000000E+02  0.47000000000E+01 0. -1.
         -5    1    3    3    0  501 -0.35256057978E+02  0.14886472251E+02  0.31832582675E+02  0.50000000000E+02  0.47000000000E+01 0.  1.
</event>
<event>
 5    1  0.9071520E-001  0.1000000E+03  0.7546771E-02  0.1163815E+00
         11   -1    0    0    0    0  0.00000000000E+00  0.00000000000E+00  0.50000000000E+02  0.50000000000E+02  0.00000000000E+00 0. -1.
        -11   -1    0    0    0    0 -0.00000000000E+00 -0.00000000000E+00 -0.50000000000E+02  0.50000000000E+02  0.00000000000E+00 0.  1.
         23    2    1    2    0    0  0.00000000000E+00  0.00000000000E+00  0.00000000000E+00  0.10000000000E+03  0.10000000000E+03 0.  0.
          5    1    3    3  501    0 -0.24959261812E+01  0.19363665713E+02  0.45790051350E+02  0.50000000000E+02  0.47000000000E+01 0. -1.
         -5    1    3    3    0  501  0.24959261812E+01 -0.19363665713E+02 -0.45790051350E+02  0.50000000000E+02  0.47000000000E+01 0.  1.
</event>
<event>
 5    1  0.9071520E-001  0.1000000E+03  0.7546771E-02  0.1163815E+00
         11   -1    0    0    0    0  0.00000000000E+00  0.00000000000E+00  0.50000000000E+02  0.50000000000E+02  0.00000000000E+00 0. -1.
        -11   -1    0    0    0    0 -0.00000000000E+00 -0.00000000000E+00 -0.50000000000E+02  0.50000000000E+02  0.00000000000E+00 0.  1.
         23    2    1    2    0    0  0.00000000000E+00  0.00000000000E+00  0.00000000000E+00  0.10000000000E+03  0.10000000000E+03 0.  0.
          5    1    3    3  501    0  0.19075656497E+02  0.11437610935E+02  0.44533250334E+02  0.50000000000E+02  0.47000000000E+01 0. -1.
         -5    1    3    3    0  501 -0.19075656497E+02 -0.11437610935E+02 -0.44533250334E+02  0.50000000000E+02  0.47000000000E+01 0.  1.
</event>
<event>
 5    1  0.9071520E-001  0.1000000E+03  0.7546771E-02  0.1163815E+00
         11   -1    0    0    0    0  0.00000000000E+00  0.00000000000E+00  0.50000000000E+02  0.50000000000E+02  0.00000000000E+00 0.  1.
        -11   -1    0    0    0    0 -0.00000000000E+00 -0.00000000000E+00 -0.50000000000E+02  0.50000000000E+02  0.00000000000E+00 0. -1.
         23    2    1    2    0    0  0.00000000000E+00  0.00000000000E+00  0.00000000000E+00  0.10000000000E+03  0.10000000000E+03 0.  0.
          5    1    3    3  501    0 -0.27665124325E+02 -0.28777793440E+02 -0.29738686938E+02  0.50000000000E+02  0.47000000000E+01 0. -1.
         -5    1    3    3    0  501  0.27665124325E+02  0.28777793440E+02  0.29738686938E+02  0.50000000000E+02  0.47000000000E+01 0.  1.
</event>
<event>
 5    1  0.9071520E-001  0.1000000E+03  0.7546771E-02  0.1163815E+00
         11   -1    0    0    0    0  0.00000000000E+00  0.00000000000E+00  0.50000000000E+02  0.50000000000E+02  0.00000000000E+00 0. -1.
        -11   -1    0    0    0    0 -0.00000000000E+00 -0.00000000000E+00 -0.50000000000E+02  0.50000000000E+02  0.00000000000E+00 0.  1.
         23    2    1    2    0    0  0.00000000000E+00  0.00000000000E+00  0.00000000000E+00  0.10000000000E+03  0.10000000000E+03 0.  0.
          5    1    3    3  501    0  0.46196718014E+01 -0.27673107201E+02  0.41118946610E+02  0.50000000000E+02  0.47000000000E+01 0. -1.
         -5    1    3    3    0  501 -0.46196718014E+01  0.27673107201E+02 -0.41118946610E+02  0.50000000000E+02  0.47000000000E+01 0.  1.
</event>
<event>
 5    1  0.9071520E-001  0.1000000E+03  0.7546771E-02  0.1163815E+00
         11   -1    0    0    0    0  0.00000000000E+00  0.00000000000E+00  0.50000000000E+02  0.50000000000E+02  0.00000000000E+00 0. -1.
        -11   -1    0    0    0    0 -0.00000000000E+00 -0.00000000000E+00 -0.50000000000E+02  0.50000000000E+02  0.00000000000E+00 0.  1.
         23    2    1    2    0    0  0.00000000000E+00  0.00000000000E+00  0.00000000000E+00  0.10000000000E+03  0.10000000000E+03 0.  0.
          5    1    3    3  501    0 -0.32666552329E+02 -0.37431974593E+02  0.31070302500E+01  0.50000000000E+02  0.47000000000E+01 0. -1.
         -5    1    3    3    0  501  0.32666552329E+02  0.37431974593E+02 -0.31070302500E+01  0.50000000000E+02  0.47000000000E+01 0.  1.
</event>
<event>
 5    1  0.9071520E-001  0.1000000E+03  0.7546771E-02  0.1163815E+00
         11   -1    0    0    0    0  0.00000000000E+00  0.00000000000E+00  0.50000000000E+02  0.50000000000E+02  0.00000000000E+00 0.  1.
        -11   -1    0    0    0    0 -0.00000000000E+00 -0.00000000000E+00 -0.50000000000E+02  0.50000000000E+02  0.00000000000E+00 0. -1.
         23    2    1    2    0    0  0.00000000000E+00  0.00000000000E+00  0.00000000000E+00  0.10000000000E+03  0.10000000000E+03 0.  0.
          5    1    3    3  501    0 -0.24251283701E+02 -0.26998333580E+02  0.34071619021E+02  0.50000000000E+02  0.47000000000E+01 0.  1.
         -5    1    3    3    0  501  0.24251283701E+02  0.26998333580E+02 -0.34071619021E+02  0.50000000000E+02  0.47000000000E+01 0. -1.
</event>
<event>
 5    1  0.9071520E-001  0.1000000E+03  0.7546771E-02  0.1163815E+00
         11   -1    0    0    0    0  0.00000000000E+00  0.00000000000E+00  0.50000000000E+02  0.50000000000E+02  0.00000000000E+00 0. -1.
        -11   -1    0    0    0    0 -0.00000000000E+00 -0.00000000000E+00 -0.50000000000E+02  0.50000000000E+02  0.00000000000E+00 0.  1.
         23    2    1    2    0    0  0.00000000000E+00  0.00000000000E+00  0.00000000000E+00  0.10000000000E+03  0.10000000000E+03 0.  0.
          5    1    3    3  501    0 -0.10428531960E+02  0.46841012014E+02  0.13231602874E+02  0.50000000000E+02  0.47000000000E+01 0. -1.
         -5    1    3    3    0  501  0.10428531960E+02 -0.46841012014E+02 -0.13231602874E+02  0.50000000000E+02  0.47000000000E+01 0.  1.
</event>
<event>
 5    1  0.9071520E-001  0.1000000E+03  0.7546771E-02  0.1163815E+00
         11   -1    0    0    0    0  0.00000000000E+00  0.00000000000E+00  0.50000000000E+02  0.50000000000E+02  0.00000000000E+00 0.  1.
        -11   -1    0    0    0    0 -0.00000000000E+00 -0.00000000000E+00 -0.50000000000E+02  0.50000000000E+02  0.00000000000E+00 0. -1.
         23    2    1    2    0    0  0.00000000000E+00  0.00000000000E+00  0.00000000000E+00  0.10000000000E+03  0.10000000000E+03 0.  0.
          5    1    3    3  501    0 -0.43959383153E+02  0.22461983055E+02 -0.63985896924E+01  0.50000000000E+02  0.47000000000E+01 0. -1.
         -5    1    3    3    0  501  0.43959383153E+02 -0.22461983055E+02  0.63985896924E+01  0.50000000000E+02  0.47000000000E+01 0.  1.
</event>
<event>
 5    1  0.9071520E-001  0.1000000E+03  0.7546771E-02  0.1163815E+00
         11   -1    0    0    0    0  0.00000000000E+00  0.00000000000E+00  0.50000000000E+02  0.50000000000E+02  0.00000000000E+00 0.  1.
        -11   -1    0    0    0    0 -0.00000000000E+00 -0.00000000000E+00 -0.50000000000E+02  0.50000000000E+02  0.00000000000E+00 0. -1.
         23    2    1    2    0    0  0.00000000000E+00  0.00000000000E+00  0.00000000000E+00  0.10000000000E+03  0.10000000000E+03 0.  0.
          5    1    3    3  501    0 -0.69400935439E+01 -0.44991344339E+02 -0.20137627371E+02  0.50000000000E+02  0.47000000000E+01 0. -1.
         -5    1    3    3    0  501  0.69400935439E+01  0.44991344339E+02  0.20137627371E+02  0.50000000000E+02  0.47000000000E+01 0.  1.
</event>
<event>
 5    1  0.9071520E-001  0.1000000E+03  0.7546771E-02  0.1163815E+00
         11   -1    0    0    0    0  0.00000000000E+00  0.00000000000E+00  0.50000000000E+02  0.50000000000E+02  0.00000000000E+00 0. -1.
        -11   -1    0    0    0    0 -0.00000000000E+00 -0.00000000000E+00 -0.50000000000E+02  0.50000000000E+02  0.00000000000E+00 0.  1.
         23    2    1    2    0    0  0.00000000000E+00  0.00000000000E+00  0.00000000000E+00  0.10000000000E+03  0.10000000000E+03 0.  0.
          5    1    3    3  501    0 -0.17275674581E+02  0.39904723608E+02  0.24229612080E+02  0.50000000000E+02  0.47000000000E+01 0. -1.
         -5    1    3    3    0  501  0.17275674581E+02 -0.39904723608E+02 -0.24229612080E+02  0.50000000000E+02  0.47000000000E+01 0.  1.
</event>
<event>
 5    1  0.9071520E-001  0.1000000E+03  0.7546771E-02  0.1163815E+00
         11   -1    0    0    0    0  0.00000000000E+00  0.00000000000E+00  0.50000000000E+02  0.50000000000E+02  0.00000000000E+00 0. -1.
        -11   -1    0    0    0    0 -0.00000000000E+00 -0.00000000000E+00 -0.50000000000E+02  0.50000000000E+02  0.00000000000E+00 0.  1.
         23    2    1    2    0    0  0.00000000000E+00  0.00000000000E+00  0.00000000000E+00  0.10000000000E+03  0.10000000000E+03 0.  0.
          5    1    3    3  501    0 -0.48236650736E+02 -0.12278994345E+02 -0.60151780202E+00  0.50000000000E+02  0.47000000000E+01 0. -1.
         -5    1    3    3    0  501  0.48236650736E+02  0.12278994345E+02  0.60151780202E+00  0.50000000000E+02  0.47000000000E+01 0.  1.
</event>
<event>
 5    1  0.9071520E-001  0.1000000E+03  0.7546771E-02  0.1163815E+00
         11   -1    0    0    0    0  0.00000000000E+00  0.00000000000E+00  0.50000000000E+02  0.50000000000E+02  0.00000000000E+00 0. -1.
        -11   -1    0    0    0    0 -0.00000000000E+00 -0.00000000000E+00 -0.50000000000E+02  0.50000000000E+02  0.00000000000E+00 0.  1.
         23    2    1    2    0    0  0.00000000000E+00  0.00000000000E+00  0.00000000000E+00  0.10000000000E+03  0.10000000000E+03 0.  0.
          5    1    3    3  501    0 -0.39896455829E+02  0.25901618019E+02  0.14672729679E+02  0.50000000000E+02  0.47000000000E+01 0. -1.
         -5    1    3    3    0  501  0.39896455829E+02 -0.25901618019E+02 -0.14672729679E+02  0.50000000000E+02  0.47000000000E+01 0.  1.
</event>
<event>
 5    1  0.9071520E-001  0.1000000E+03  0.7546771E-02  0.1163815E+00
         11   -1    0    0    0    0  0.00000000000E+00  0.00000000000E+00  0.50000000000E+02  0.50000000000E+02  0.00000000000E+00 0. -1.
        -11   -1    0    0    0    0 -0.00000000000E+00 -0.00000000000E+00 -0.50000000000E+02  0.50000000000E+02  0.00000000000E+00 0.  1.
         23    2    1    2    0    0  0.00000000000E+00  0.00000000000E+00  0.00000000000E+00  0.10000000000E+03  0.10000000000E+03 0.  0.
          5    1    3    3  501    0  0.26285687100E+02 -0.17668897084E+02  0.38402900014E+02  0.50000000000E+02  0.47000000000E+01 0. -1.
         -5    1    3    3    0  501 -0.26285687100E+02  0.17668897084E+02 -0.38402900014E+02  0.50000000000E+02  0.47000000000E+01 0.  1.
</event>
<event>
 5    1  0.9071520E-001  0.1000000E+03  0.7546771E-02  0.1163815E+00
         11   -1    0    0    0    0  0.00000000000E+00  0.00000000000E+00  0.50000000000E+02  0.50000000000E+02  0.00000000000E+00 0.  1.
        -11   -1    0    0    0    0 -0.00000000000E+00 -0.00000000000E+00 -0.50000000000E+02  0.50000000000E+02  0.00000000000E+00 0. -1.
         23    2    1    2    0    0  0.00000000000E+00  0.00000000000E+00  0.00000000000E+00  0.10000000000E+03  0.10000000000E+03 0.  0.
          5    1    3    3  501    0 -0.22892595692E+02 -0.42398125518E+02  0.12499520591E+02  0.50000000000E+02  0.47000000000E+01 0. -1.
         -5    1    3    3    0  501  0.22892595692E+02  0.42398125518E+02 -0.12499520591E+02  0.50000000000E+02  0.47000000000E+01 0.  1.
</event>
<event>
 5    1  0.9071520E-001  0.1000000E+03  0.7546771E-02  0.1163815E+00
         11   -1    0    0    0    0  0.00000000000E+00  0.00000000000E+00  0.50000000000E+02  0.50000000000E+02  0.00000000000E+00 0.  1.
        -11   -1    0    0    0    0 -0.00000000000E+00 -0.00000000000E+00 -0.50000000000E+02  0.50000000000E+02  0.00000000000E+00 0. -1.
         23    2    1    2    0    0  0.00000000000E+00  0.00000000000E+00  0.00000000000E+00  0.10000000000E+03  0.10000000000E+03 0.  0.
          5    1    3    3  501    0 -0.38722439100E+00  0.49671900201E+02 -0.32345614432E+01  0.50000000000E+02  0.47000000000E+01 0. -1.
         -5    1    3    3    0  501  0.38722439100E+00 -0.49671900201E+02  0.32345614432E+01  0.50000000000E+02  0.47000000000E+01 0.  1.
</event>
<event>
 5    1  0.9071520E-001  0.1000000E+03  0.7546771E-02  0.1163815E+00
         11   -1    0    0    0    0  0.00000000000E+00  0.00000000000E+00  0.50000000000E+02  0.50000000000E+02  0.00000000000E+00 0. -1.
        -11   -1    0    0    0    0 -0.00000000000E+00 -0.00000000000E+00 -0.50000000000E+02  0.50000000000E+02  0.00000000000E+00 0.  1.
         23    2    1    2    0    0  0.00000000000E+00  0.00000000000E+00  0.00000000000E+00  0.10000000000E+03  0.10000000000E+03 0.  0.
          5    1    3    3  501    0  0.44764097578E+02  0.12077291329E+02  0.18116970005E+02  0.50000000000E+02  0.47000000000E+01 0. -1.
         -5    1    3    3    0  501 -0.44764097578E+02 -0.12077291329E+02 -0.18116970005E+02  0.50000000000E+02  0.47000000000E+01 0.  1.
</event>
<event>
 5    1  0.9071520E-001  0.1000000E+03  0.7546771E-02  0.1163815E+00
         11   -1    0    0    0    0  0.00000000000E+00  0.00000000000E+00  0.50000000000E+02  0.50000000000E+02  0.00000000000E+00 0. -1.
        -11   -1    0    0    0    0 -0.00000000000E+00 -0.00000000000E+00 -0.50000000000E+02  0.50000000000E+02  0.00000000000E+00 0.  1.
         23    2    1    2    0    0  0.00000000000E+00  0.00000000000E+00  0.00000000000E+00  0.10000000000E+03  0.10000000000E+03 0.  0.
          5    1    3    3  501    0 -0.18344376537E+01 -0.45913156330E+01  0.49532460662E+02  0.50000000000E+02  0.47000000000E+01 0. -1.
         -5    1    3    3    0  501  0.18344376537E+01  0.45913156330E+01 -0.49532460662E+02  0.50000000000E+02  0.47000000000E+01 0.  1.
</event>
<event>
 5    1  0.9071520E-001  0.1000000E+03  0.7546771E-02  0.1163815E+00
         11   -1    0    0    0    0  0.00000000000E+00  0.00000000000E+00  0.50000000000E+02  0.50000000000E+02  0.00000000000E+00 0. -1.
        -11   -1    0    0    0    0 -0.00000000000E+00 -0.00000000000E+00 -0.50000000000E+02  0.50000000000E+02  0.00000000000E+00 0.  1.
         23    2    1    2    0    0  0.00000000000E+00  0.00000000000E+00  0.00000000000E+00  0.10000000000E+03  0.10000000000E+03 0.  0.
          5    1    3    3  501    0  0.31062275182E+01 -0.49570830142E+02  0.33157426982E+01  0.50000000000E+02  0.47000000000E+01 0. -1.
         -5    1    3    3    0  501 -0.31062275182E+01  0.49570830142E+02 -0.33157426982E+01  0.50000000000E+02  0.47000000000E+01 0.  1.
</event>
<event>
 5    1  0.9071520E-001  0.1000000E+03  0.7546771E-02  0.1163815E+00
         11   -1    0    0    0    0  0.00000000000E+00  0.00000000000E+00  0.50000000000E+02  0.50000000000E+02  0.00000000000E+00 0. -1.
        -11   -1    0    0    0    0 -0.00000000000E+00 -0.00000000000E+00 -0.50000000000E+02  0.50000000000E+02  0.00000000000E+00 0.  1.
         23    2    1    2    0    0  0.00000000000E+00  0.00000000000E+00  0.00000000000E+00  0.10000000000E+03  0.10000000000E+03 0.  0.
          5    1    3    3  501    0 -0.39966799340E+02 -0.29409698086E+02  0.39540623491E+01  0.50000000000E+02  0.47000000000E+01 0. -1.
         -5    1    3    3    0  501  0.39966799340E+02  0.29409698086E+02 -0.39540623491E+01  0.50000000000E+02  0.47000000000E+01 0.  1.
</event>
<event>
 5    1  0.9071520E-001  0.1000000E+03  0.7546771E-02  0.1163815E+00
         11   -1    0    0    0    0  0.00000000000E+00  0.00000000000E+00  0.50000000000E+02  0.50000000000E+02  0.00000000000E+00 0. -1.
        -11   -1    0    0    0    0 -0.00000000000E+00 -0.00000000000E+00 -0.50000000000E+02  0.50000000000E+02  0.00000000000E+00 0.  1.
         23    2    1    2    0    0  0.00000000000E+00  0.00000000000E+00  0.00000000000E+00  0.10000000000E+03  0.10000000000E+03 0.  0.
          5    1    3    3  501    0 -0.25053227006E+02 -0.16913006180E+02  0.39549918313E+02  0.50000000000E+02  0.47000000000E+01 0. -1.
         -5    1    3    3    0  501  0.25053227006E+02  0.16913006180E+02 -0.39549918313E+02  0.50000000000E+02  0.47000000000E+01 0.  1.
</event>
<event>
 5    1  0.9071520E-001  0.1000000E+03  0.7546771E-02  0.1163815E+00
         11   -1    0    0    0    0  0.00000000000E+00  0.00000000000E+00  0.50000000000E+02  0.50000000000E+02  0.00000000000E+00 0. -1.
        -11   -1    0    0    0    0 -0.00000000000E+00 -0.00000000000E+00 -0.50000000000E+02  0.50000000000E+02  0.00000000000E+00 0.  1.
         23    2    1    2    0    0  0.00000000000E+00  0.00000000000E+00  0.00000000000E+00  0.10000000000E+03  0.10000000000E+03 0.  0.
          5    1    3    3  501    0  0.35211140813E+01  0.11421566152E+01  0.49640781963E+02  0.50000000000E+02  0.47000000000E+01 0. -1.
         -5    1    3    3    0  501 -0.35211140813E+01 -0.11421566152E+01 -0.49640781963E+02  0.50000000000E+02  0.47000000000E+01 0.  1.
</event>
<event>
 5    1  0.9071520E-001  0.1000000E+03  0.7546771E-02  0.1163815E+00
         11   -1    0    0    0    0  0.00000000000E+00  0.00000000000E+00  0.50000000000E+02  0.50000000000E+02  0.00000000000E+00 0. -1.
        -11   -1    0    0    0    0 -0.00000000000E+00 -0.00000000000E+00 -0.50000000000E+02  0.50000000000E+02  0.00000000000E+00 0.  1.
         23    2    1    2    0    0  0.00000000000E+00  0.00000000000E+00  0.00000000000E+00  0.10000000000E+03  0.10000000000E+03 0.  0.
          5    1    3    3  501    0  0.29277606283E+02 -0.17229896137E+02  0.36384920633E+02  0.50000000000E+02  0.47000000000E+01 0. -1.
         -5    1    3    3    0  501 -0.29277606283E+02  0.17229896137E+02 -0.36384920633E+02  0.50000000000E+02  0.47000000000E+01 0.  1.
</event>
<event>
 5    1  0.9071520E-001  0.1000000E+03  0.7546771E-02  0.1163815E+00
         11   -1    0    0    0    0  0.00000000000E+00  0.00000000000E+00  0.50000000000E+02  0.50000000000E+02  0.00000000000E+00 0. -1.
        -11   -1    0    0    0    0 -0.00000000000E+00 -0.00000000000E+00 -0.50000000000E+02  0.50000000000E+02  0.00000000000E+00 0.  1.
         23    2    1    2    0    0  0.00000000000E+00  0.00000000000E+00  0.00000000000E+00  0.10000000000E+03  0.10000000000E+03 0.  0.
          5    1    3    3  501    0 -0.44095084523E+02  0.23081752957E+02  0.87532930832E+00  0.50000000000E+02  0.47000000000E+01 0. -1.
         -5    1    3    3    0  501  0.44095084523E+02 -0.23081752957E+02 -0.87532930832E+00  0.50000000000E+02  0.47000000000E+01 0.  1.
</event>
<event>
 5    1  0.9071520E-001  0.1000000E+03  0.7546771E-02  0.1163815E+00
         11   -1    0    0    0    0  0.00000000000E+00  0.00000000000E+00  0.50000000000E+02  0.50000000000E+02  0.00000000000E+00 0. -1.
        -11   -1    0    0    0    0 -0.00000000000E+00 -0.00000000000E+00 -0.50000000000E+02  0.50000000000E+02  0.00000000000E+00 0.  1.
         23    2    1    2    0    0  0.00000000000E+00  0.00000000000E+00  0.00000000000E+00  0.10000000000E+03  0.10000000000E+03 0.  0.
          5    1    3    3  501    0  0.37598943667E+02  0.29795252700E+02  0.13284289656E+02  0.50000000000E+02  0.47000000000E+01 0. -1.
         -5    1    3    3    0  501 -0.37598943667E+02 -0.29795252700E+02 -0.13284289656E+02  0.50000000000E+02  0.47000000000E+01 0.  1.
</event>
<event>
 5    1  0.9071520E-001  0.1000000E+03  0.7546771E-02  0.1163815E+00
         11   -1    0    0    0    0  0.00000000000E+00  0.00000000000E+00  0.50000000000E+02  0.50000000000E+02  0.00000000000E+00 0. -1.
        -11   -1    0    0    0    0 -0.00000000000E+00 -0.00000000000E+00 -0.50000000000E+02  0.50000000000E+02  0.00000000000E+00 0.  1.
         23    2    1    2    0    0  0.00000000000E+00  0.00000000000E+00  0.00000000000E+00  0.10000000000E+03  0.10000000000E+03 0.  0.
          5    1    3    3  501    0  0.45037649312E+02 -0.25827165342E+01  0.21043994861E+02  0.50000000000E+02  0.47000000000E+01 0. -1.
         -5    1    3    3    0  501 -0.45037649312E+02  0.25827165342E+01 -0.21043994861E+02  0.50000000000E+02  0.47000000000E+01 0.  1.
</event>
<event>
 5    1  0.9071520E-001  0.1000000E+03  0.7546771E-02  0.1163815E+00
         11   -1    0    0    0    0  0.00000000000E+00  0.00000000000E+00  0.50000000000E+02  0.50000000000E+02  0.00000000000E+00 0. -1.
        -11   -1    0    0    0    0 -0.00000000000E+00 -0.00000000000E+00 -0.50000000000E+02  0.50000000000E+02  0.00000000000E+00 0.  1.
         23    2    1    2    0    0  0.00000000000E+00  0.00000000000E+00  0.00000000000E+00  0.10000000000E+03  0.10000000000E+03 0.  0.
          5    1    3    3  501    0 -0.20489764935E+02  0.21853999309E+02  0.39755279487E+02  0.50000000000E+02  0.47000000000E+01 0. -1.
         -5    1    3    3    0  501  0.20489764935E+02 -0.21853999309E+02 -0.39755279487E+02  0.50000000000E+02  0.47000000000E+01 0.  1.
</event>
<event>
 5    1  0.9071520E-001  0.1000000E+03  0.7546771E-02  0.1163815E+00
         11   -1    0    0    0    0  0.00000000000E+00  0.00000000000E+00  0.50000000000E+02  0.50000000000E+02  0.00000000000E+00 0. -1.
        -11   -1    0    0    0    0 -0.00000000000E+00 -0.00000000000E+00 -0.50000000000E+02  0.50000000000E+02  0.00000000000E+00 0.  1.
         23    2    1    2    0    0  0.00000000000E+00  0.00000000000E+00  0.00000000000E+00  0.10000000000E+03  0.10000000000E+03 0.  0.
          5    1    3    3  501    0  0.21105283576E+02 -0.24067192910E+02  0.38121479911E+02  0.50000000000E+02  0.47000000000E+01 0. -1.
         -5    1    3    3    0  501 -0.21105283576E+02  0.24067192910E+02 -0.38121479911E+02  0.50000000000E+02  0.47000000000E+01 0.  1.
</event>
<event>
 5    1  0.9071520E-001  0.1000000E+03  0.7546771E-02  0.1163815E+00
         11   -1    0    0    0    0  0.00000000000E+00  0.00000000000E+00  0.50000000000E+02  0.50000000000E+02  0.00000000000E+00 0. -1.
        -11   -1    0    0    0    0 -0.00000000000E+00 -0.00000000000E+00 -0.50000000000E+02  0.50000000000E+02  0.00000000000E+00 0.  1.
         23    2    1    2    0    0  0.00000000000E+00  0.00000000000E+00  0.00000000000E+00  0.10000000000E+03  0.10000000000E+03 0.  0.
          5    1    3    3  501    0  0.37046602395E+02 -0.46213104390E+01  0.32925715494E+02  0.50000000000E+02  0.47000000000E+01 0. -1.
         -5    1    3    3    0  501 -0.37046602395E+02  0.46213104390E+01 -0.32925715494E+02  0.50000000000E+02  0.47000000000E+01 0.  1.
</event>
<event>
 5    1  0.9071520E-001  0.1000000E+03  0.7546771E-02  0.1163815E+00
         11   -1    0    0    0    0  0.00000000000E+00  0.00000000000E+00  0.50000000000E+02  0.50000000000E+02  0.00000000000E+00 0. -1.
        -11   -1    0    0    0    0 -0.00000000000E+00 -0.00000000000E+00 -0.50000000000E+02  0.50000000000E+02  0.00000000000E+00 0.  1.
         23    2    1    2    0    0  0.00000000000E+00  0.00000000000E+00  0.00000000000E+00  0.10000000000E+03  0.10000000000E+03 0.  0.
          5    1    3    3  501    0  0.31949916569E+02 -0.43964293183E+00  0.38169615473E+02  0.50000000000E+02  0.47000000000E+01 0. -1.
         -5    1    3    3    0  501 -0.31949916569E+02  0.43964293183E+00 -0.38169615473E+02  0.50000000000E+02  0.47000000000E+01 0.  1.
</event>
<event>
 5    1  0.9071520E-001  0.1000000E+03  0.7546771E-02  0.1163815E+00
         11   -1    0    0    0    0  0.00000000000E+00  0.00000000000E+00  0.50000000000E+02  0.50000000000E+02  0.00000000000E+00 0. -1.
        -11   -1    0    0    0    0 -0.00000000000E+00 -0.00000000000E+00 -0.50000000000E+02  0.50000000000E+02  0.00000000000E+00 0.  1.
         23    2    1    2    0    0  0.00000000000E+00  0.00000000000E+00  0.00000000000E+00  0.10000000000E+03  0.10000000000E+03 0.  0.
          5    1    3    3  501    0 -0.10360240641E+02  0.17677091985E+02  0.45366241114E+02  0.50000000000E+02  0.47000000000E+01 0. -1.
         -5    1    3    3    0  501  0.10360240641E+02 -0.17677091985E+02 -0.45366241114E+02  0.50000000000E+02  0.47000000000E+01 0.  1.
</event>
<event>
 5    1  0.9071520E-001  0.1000000E+03  0.7546771E-02  0.1163815E+00
         11   -1    0    0    0    0  0.00000000000E+00  0.00000000000E+00  0.50000000000E+02  0.50000000000E+02  0.00000000000E+00 0. -1.
        -11   -1    0    0    0    0 -0.00000000000E+00 -0.00000000000E+00 -0.50000000000E+02  0.50000000000E+02  0.00000000000E+00 0.  1.
         23    2    1    2    0    0  0.00000000000E+00  0.00000000000E+00  0.00000000000E+00  0.10000000000E+03  0.10000000000E+03 0.  0.
          5    1    3    3  501    0  0.29177034203E+02 -0.34263401956E+02  0.21275101915E+02  0.50000000000E+02  0.47000000000E+01 0. -1.
         -5    1    3    3    0  501 -0.29177034203E+02  0.34263401956E+02 -0.21275101915E+02  0.50000000000E+02  0.47000000000E+01 0.  1.
</event>
<event>
 5    1  0.9071520E-001  0.1000000E+03  0.7546771E-02  0.1163815E+00
         11   -1    0    0    0    0  0.00000000000E+00  0.00000000000E+00  0.50000000000E+02  0.50000000000E+02  0.00000000000E+00 0. -1.
        -11   -1    0    0    0    0 -0.00000000000E+00 -0.00000000000E+00 -0.50000000000E+02  0.50000000000E+02  0.00000000000E+00 0.  1.
         23    2    1    2    0    0  0.00000000000E+00  0.00000000000E+00  0.00000000000E+00  0.10000000000E+03  0.10000000000E+03 0.  0.
          5    1    3    3  501    0 -0.41607247403E+02 -0.15095793420E+02  0.22778586097E+02  0.50000000000E+02  0.47000000000E+01 0. -1.
         -5    1    3    3    0  501  0.41607247403E+02  0.15095793420E+02 -0.22778586097E+02  0.50000000000E+02  0.47000000000E+01 0.  1.
</event>
<event>
 5    1  0.9071520E-001  0.1000000E+03  0.7546771E-02  0.1163815E+00
         11   -1    0    0    0    0  0.00000000000E+00  0.00000000000E+00  0.50000000000E+02  0.50000000000E+02  0.00000000000E+00 0. -1.
        -11   -1    0    0    0    0 -0.00000000000E+00 -0.00000000000E+00 -0.50000000000E+02  0.50000000000E+02  0.00000000000E+00 0.  1.
         23    2    1    2    0    0  0.00000000000E+00  0.00000000000E+00  0.00000000000E+00  0.10000000000E+03  0.10000000000E+03 0.  0.
          5    1    3    3  501    0  0.30505550461E+02  0.73787841061E+01  0.38637739791E+02  0.50000000000E+02  0.47000000000E+01 0. -1.
         -5    1    3    3    0  501 -0.30505550461E+02 -0.73787841061E+01 -0.38637739791E+02  0.50000000000E+02  0.47000000000E+01 0.  1.
</event>
<event>
 5    1  0.9071520E-001  0.1000000E+03  0.7546771E-02  0.1163815E+00
         11   -1    0    0    0    0  0.00000000000E+00  0.00000000000E+00  0.50000000000E+02  0.50000000000E+02  0.00000000000E+00 0. -1.
        -11   -1    0    0    0    0 -0.00000000000E+00 -0.00000000000E+00 -0.50000000000E+02  0.50000000000E+02  0.00000000000E+00 0.  1.
         23    2    1    2    0    0  0.00000000000E+00  0.00000000000E+00  0.00000000000E+00  0.10000000000E+03  0.10000000000E+03 0.  0.
          5    1    3    3  501    0 -0.17438638875E+02  0.24012812969E+02  0.39964843144E+02  0.50000000000E+02  0.47000000000E+01 0. -1.
         -5    1    3    3    0  501  0.17438638875E+02 -0.24012812969E+02 -0.39964843144E+02  0.50000000000E+02  0.47000000000E+01 0.  1.
</event>
<event>
 5    1  0.9071520E-001  0.1000000E+03  0.7546771E-02  0.1163815E+00
         11   -1    0    0    0    0  0.00000000000E+00  0.00000000000E+00  0.50000000000E+02  0.50000000000E+02  0.00000000000E+00 0. -1.
        -11   -1    0    0    0    0 -0.00000000000E+00 -0.00000000000E+00 -0.50000000000E+02  0.50000000000E+02  0.00000000000E+00 0.  1.
         23    2    1    2    0    0  0.00000000000E+00  0.00000000000E+00  0.00000000000E+00  0.10000000000E+03  0.10000000000E+03 0.  0.
          5    1    3    3  501    0 -0.48008214534E+02  0.10608164182E+01 -0.13114724768E+02  0.50000000000E+02  0.47000000000E+01 0. -1.
         -5    1    3    3    0  501  0.48008214534E+02 -0.10608164182E+01  0.13114724768E+02  0.50000000000E+02  0.47000000000E+01 0.  1.
</event>
<event>
 5    1  0.9071520E-001  0.1000000E+03  0.7546771E-02  0.1163815E+00
         11   -1    0    0    0    0  0.00000000000E+00  0.00000000000E+00  0.50000000000E+02  0.50000000000E+02  0.00000000000E+00 0.  1.
        -11   -1    0    0    0    0 -0.00000000000E+00 -0.00000000000E+00 -0.50000000000E+02  0.50000000000E+02  0.00000000000E+00 0. -1.
         23    2    1    2    0    0  0.00000000000E+00  0.00000000000E+00  0.00000000000E+00  0.10000000000E+03  0.10000000000E+03 0.  0.
          5    1    3    3  501    0  0.10333082884E+02  0.54701288094E+01 -0.48386104296E+02  0.50000000000E+02  0.47000000000E+01 0. -1.
         -5    1    3    3    0  501 -0.10333082884E+02 -0.54701288094E+01  0.48386104296E+02  0.50000000000E+02  0.47000000000E+01 0.  1.
</event>
<event>
 5    1  0.9071520E-001  0.1000000E+03  0.7546771E-02  0.1163815E+00
         11   -1    0    0    0    0  0.00000000000E+00  0.00000000000E+00  0.50000000000E+02  0.50000000000E+02  0.00000000000E+00 0. -1.
        -11   -1    0    0    0    0 -0.00000000000E+00 -0.00000000000E+00 -0.50000000000E+02  0.50000000000E+02  0.00000000000E+00 0.  1.
         23    2    1    2    0    0  0.00000000000E+00  0.00000000000E+00  0.00000000000E+00  0.10000000000E+03  0.10000000000E+03 0.  0.
          5    1    3    3  501    0  0.17851456234E+02 -0.46051568532E+02  0.62039137655E+01  0.50000000000E+02  0.47000000000E+01 0. -1.
         -5    1    3    3    0  501 -0.17851456234E+02  0.46051568532E+02 -0.62039137655E+01  0.50000000000E+02  0.47000000000E+01 0.  1.
</event>
<event>
 5    1  0.9071520E-001  0.1000000E+03  0.7546771E-02  0.1163815E+00
         11   -1    0    0    0    0  0.00000000000E+00  0.00000000000E+00  0.50000000000E+02  0.50000000000E+02  0.00000000000E+00 0.  1.
        -11   -1    0    0    0    0 -0.00000000000E+00 -0.00000000000E+00 -0.50000000000E+02  0.50000000000E+02  0.00000000000E+00 0. -1.
         23    2    1    2    0    0  0.00000000000E+00  0.00000000000E+00  0.00000000000E+00  0.10000000000E+03  0.10000000000E+03 0.  0.
          5    1    3    3  501    0 -0.46614230900E+02  0.22207527098E+00 -0.17463509388E+02  0.50000000000E+02  0.47000000000E+01 0. -1.
         -5    1    3    3    0  501  0.46614230900E+02 -0.22207527098E+00  0.17463509388E+02  0.50000000000E+02  0.47000000000E+01 0.  1.
</event>
<event>
 5    1  0.9071520E-001  0.1000000E+03  0.7546771E-02  0.1163815E+00
         11   -1    0    0    0    0  0.00000000000E+00  0.00000000000E+00  0.50000000000E+02  0.50000000000E+02  0.00000000000E+00 0. -1.
        -11   -1    0    0    0    0 -0.00000000000E+00 -0.00000000000E+00 -0.50000000000E+02  0.50000000000E+02  0.00000000000E+00 0.  1.
         23    2    1    2    0    0  0.00000000000E+00  0.00000000000E+00  0.00000000000E+00  0.10000000000E+03  0.10000000000E+03 0.  0.
          5    1    3    3  501    0  0.26387830649E+01 -0.33762281882E+02 -0.36483628467E+02  0.50000000000E+02  0.47000000000E+01 0.  1.
         -5    1    3    3    0  501 -0.26387830649E+01  0.33762281882E+02  0.36483628467E+02  0.50000000000E+02  0.47000000000E+01 0. -1.
</event>
<event>
 5    1  0.9071520E-001  0.1000000E+03  0.7546771E-02  0.1163815E+00
         11   -1    0    0    0    0  0.00000000000E+00  0.00000000000E+00  0.50000000000E+02  0.50000000000E+02  0.00000000000E+00 0. -1.
        -11   -1    0    0    0    0 -0.00000000000E+00 -0.00000000000E+00 -0.50000000000E+02  0.50000000000E+02  0.00000000000E+00 0.  1.
         23    2    1    2    0    0  0.00000000000E+00  0.00000000000E+00  0.00000000000E+00  0.10000000000E+03  0.10000000000E+03 0.  0.
          5    1    3    3  501    0  0.31350088092E+02 -0.75718173323E+01  0.37917668162E+02  0.50000000000E+02  0.47000000000E+01 0. -1.
         -5    1    3    3    0  501 -0.31350088092E+02  0.75718173323E+01 -0.37917668162E+02  0.50000000000E+02  0.47000000000E+01 0.  1.
</event>
<event>
 5    1  0.9071520E-001  0.1000000E+03  0.7546771E-02  0.1163815E+00
         11   -1    0    0    0    0  0.00000000000E+00  0.00000000000E+00  0.50000000000E+02  0.50000000000E+02  0.00000000000E+00 0. -1.
        -11   -1    0    0    0    0 -0.00000000000E+00 -0.00000000000E+00 -0.50000000000E+02  0.50000000000E+02  0.00000000000E+00 0.  1.
         23    2    1    2    0    0  0.00000000000E+00  0.00000000000E+00  0.00000000000E+00  0.10000000000E+03  0.10000000000E+03 0.  0.
          5    1    3    3  501    0 -0.41758437261E+02 -0.26429094322E+01  0.26965866336E+02  0.50000000000E+02  0.47000000000E+01 0. -1.
         -5    1    3    3    0  501  0.41758437261E+02  0.26429094322E+01 -0.26965866336E+02  0.50000000000E+02  0.47000000000E+01 0.  1.
</event>
<event>
 5    1  0.9071520E-001  0.1000000E+03  0.7546771E-02  0.1163815E+00
         11   -1    0    0    0    0  0.00000000000E+00  0.00000000000E+00  0.50000000000E+02  0.50000000000E+02  0.00000000000E+00 0.  1.
        -11   -1    0    0    0    0 -0.00000000000E+00 -0.00000000000E+00 -0.50000000000E+02  0.50000000000E+02  0.00000000000E+00 0. -1.
         23    2    1    2    0    0  0.00000000000E+00  0.00000000000E+00  0.00000000000E+00  0.10000000000E+03  0.10000000000E+03 0.  0.
          5    1    3    3  501    0  0.23224172220E+02 -0.32895207519E+02 -0.29265220774E+02  0.50000000000E+02  0.47000000000E+01 0. -1.
         -5    1    3    3    0  501 -0.23224172220E+02  0.32895207519E+02  0.29265220774E+02  0.50000000000E+02  0.47000000000E+01 0.  1.
</event>
<event>
 5    1  0.9071520E-001  0.1000000E+03  0.7546771E-02  0.1163815E+00
         11   -1    0    0    0    0  0.00000000000E+00  0.00000000000E+00  0.50000000000E+02  0.50000000000E+02  0.00000000000E+00 0. -1.
        -11   -1    0    0    0    0 -0.00000000000E+00 -0.00000000000E+00 -0.50000000000E+02  0.50000000000E+02  0.00000000000E+00 0.  1.
         23    2    1    2    0    0  0.00000000000E+00  0.00000000000E+00  0.00000000000E+00  0.10000000000E+03  0.10000000000E+03 0.  0.
          5    1    3    3  501    0  0.32280009740E+02  0.12989121881E+02  0.35597664023E+02  0.50000000000E+02  0.47000000000E+01 0. -1.
         -5    1    3    3    0  501 -0.32280009740E+02 -0.12989121881E+02 -0.35597664023E+02  0.50000000000E+02  0.47000000000E+01 0.  1.
</event>
<event>
 5    1  0.9071520E-001  0.1000000E+03  0.7546771E-02  0.1163815E+00
         11   -1    0    0    0    0  0.00000000000E+00  0.00000000000E+00  0.50000000000E+02  0.50000000000E+02  0.00000000000E+00 0. -1.
        -11   -1    0    0    0    0 -0.00000000000E+00 -0.00000000000E+00 -0.50000000000E+02  0.50000000000E+02  0.00000000000E+00 0.  1.
         23    2    1    2    0    0  0.00000000000E+00  0.00000000000E+00  0.00000000000E+00  0.10000000000E+03  0.10000000000E+03 0.  0.
          5    1    3    3  501    0  0.35782518276E+02 -0.15094778950E+02  0.31139509217E+02  0.50000000000E+02  0.47000000000E+01 0. -1.
         -5    1    3    3    0  501 -0.35782518276E+02  0.15094778950E+02 -0.31139509217E+02  0.50000000000E+02  0.47000000000E+01 0. -1.
</event>
<event>
 5    1  0.9071520E-001  0.1000000E+03  0.7546771E-02  0.1163815E+00
         11   -1    0    0    0    0  0.00000000000E+00  0.00000000000E+00  0.50000000000E+02  0.50000000000E+02  0.00000000000E+00 0. -1.
        -11   -1    0    0    0    0 -0.00000000000E+00 -0.00000000000E+00 -0.50000000000E+02  0.50000000000E+02  0.00000000000E+00 0.  1.
         23    2    1    2    0    0  0.00000000000E+00  0.00000000000E+00  0.00000000000E+00  0.10000000000E+03  0.10000000000E+03 0.  0.
          5    1    3    3  501    0  0.40035455571E+02  0.37518114500E+01  0.29342736887E+02  0.50000000000E+02  0.47000000000E+01 0. -1.
         -5    1    3    3    0  501 -0.40035455571E+02 -0.37518114500E+01 -0.29342736887E+02  0.50000000000E+02  0.47000000000E+01 0.  1.
</event>
<event>
 5    1  0.9071520E-001  0.1000000E+03  0.7546771E-02  0.1163815E+00
         11   -1    0    0    0    0  0.00000000000E+00  0.00000000000E+00  0.50000000000E+02  0.50000000000E+02  0.00000000000E+00 0.  1.
        -11   -1    0    0    0    0 -0.00000000000E+00 -0.00000000000E+00 -0.50000000000E+02  0.50000000000E+02  0.00000000000E+00 0. -1.
         23    2    1    2    0    0  0.00000000000E+00  0.00000000000E+00  0.00000000000E+00  0.10000000000E+03  0.10000000000E+03 0.  0.
          5    1    3    3  501    0 -0.14295295097E+01 -0.71107469777E+00 -0.49752998082E+02  0.50000000000E+02  0.47000000000E+01 0. -1.
         -5    1    3    3    0  501  0.14295295097E+01  0.71107469777E+00  0.49752998082E+02  0.50000000000E+02  0.47000000000E+01 0.  1.
</event>
<event>
 5    1  0.9071520E-001  0.1000000E+03  0.7546771E-02  0.1163815E+00
         11   -1    0    0    0    0  0.00000000000E+00  0.00000000000E+00  0.50000000000E+02  0.50000000000E+02  0.00000000000E+00 0. -1.
        -11   -1    0    0    0    0 -0.00000000000E+00 -0.00000000000E+00 -0.50000000000E+02  0.50000000000E+02  0.00000000000E+00 0.  1.
         23    2    1    2    0    0  0.00000000000E+00  0.00000000000E+00  0.00000000000E+00  0.10000000000E+03  0.10000000000E+03 0.  0.
          5    1    3    3  501    0  0.49462470636E+02 -0.43761697306E+01  0.34961603295E+01  0.50000000000E+02  0.47000000000E+01 0. -1.
         -5    1    3    3    0  501 -0.49462470636E+02  0.43761697306E+01 -0.34961603295E+01  0.50000000000E+02  0.47000000000E+01 0.  1.
</event>
<event>
 5    1  0.9071520E-001  0.1000000E+03  0.7546771E-02  0.1163815E+00
         11   -1    0    0    0    0  0.00000000000E+00  0.00000000000E+00  0.50000000000E+02  0.50000000000E+02  0.00000000000E+00 0. -1.
        -11   -1    0    0    0    0 -0.00000000000E+00 -0.00000000000E+00 -0.50000000000E+02  0.50000000000E+02  0.00000000000E+00 0.  1.
         23    2    1    2    0    0  0.00000000000E+00  0.00000000000E+00  0.00000000000E+00  0.10000000000E+03  0.10000000000E+03 0.  0.
          5    1    3    3  501    0 -0.24524275155E+02 -0.43120000357E+02 -0.41395044763E+01  0.50000000000E+02  0.47000000000E+01 0. -1.
         -5    1    3    3    0  501  0.24524275155E+02  0.43120000357E+02  0.41395044763E+01  0.50000000000E+02  0.47000000000E+01 0.  1.
</event>
<event>
 5    1  0.9071520E-001  0.1000000E+03  0.7546771E-02  0.1163815E+00
         11   -1    0    0    0    0  0.00000000000E+00  0.00000000000E+00  0.50000000000E+02  0.50000000000E+02  0.00000000000E+00 0. -1.
        -11   -1    0    0    0    0 -0.00000000000E+00 -0.00000000000E+00 -0.50000000000E+02  0.50000000000E+02  0.00000000000E+00 0.  1.
         23    2    1    2    0    0  0.00000000000E+00  0.00000000000E+00  0.00000000000E+00  0.10000000000E+03  0.10000000000E+03 0.  0.
          5    1    3    3  501    0 -0.15525402658E+02  0.27407450278E+02  0.38544825094E+02  0.50000000000E+02  0.47000000000E+01 0. -1.
         -5    1    3    3    0  501  0.15525402658E+02 -0.27407450278E+02 -0.38544825094E+02  0.50000000000E+02  0.47000000000E+01 0.  1.
</event>
<event>
 5    1  0.9071520E-001  0.1000000E+03  0.7546771E-02  0.1163815E+00
         11   -1    0    0    0    0  0.00000000000E+00  0.00000000000E+00  0.50000000000E+02  0.50000000000E+02  0.00000000000E+00 0. -1.
        -11   -1    0    0    0    0 -0.00000000000E+00 -0.00000000000E+00 -0.50000000000E+02  0.50000000000E+02  0.00000000000E+00 0.  1.
         23    2    1    2    0    0  0.00000000000E+00  0.00000000000E+00  0.00000000000E+00  0.10000000000E+03  0.10000000000E+03 0.  0.
          5    1    3    3  501    0 -0.20515498723E+02 -0.74453114945E+01  0.44739151187E+02  0.50000000000E+02  0.47000000000E+01 0. -1.
         -5    1    3    3    0  501  0.20515498723E+02  0.74453114945E+01 -0.44739151187E+02  0.50000000000E+02  0.47000000000E+01 0.  1.
</event>
<event>
 5    1  0.9071520E-001  0.1000000E+03  0.7546771E-02  0.1163815E+00
         11   -1    0    0    0    0  0.00000000000E+00  0.00000000000E+00  0.50000000000E+02  0.50000000000E+02  0.00000000000E+00 0.  1.
        -11   -1    0    0    0    0 -0.00000000000E+00 -0.00000000000E+00 -0.50000000000E+02  0.50000000000E+02  0.00000000000E+00 0. -1.
         23    2    1    2    0    0  0.00000000000E+00  0.00000000000E+00  0.00000000000E+00  0.10000000000E+03  0.10000000000E+03 0.  0.
          5    1    3    3  501    0 -0.27926060704E+02 -0.26124037986E+02 -0.31868162371E+02  0.50000000000E+02  0.47000000000E+01 0. -1.
         -5    1    3    3    0  501  0.27926060704E+02  0.26124037986E+02  0.31868162371E+02  0.50000000000E+02  0.47000000000E+01 0.  1.
</event>
<event>
 5    1  0.9071520E-001  0.1000000E+03  0.7546771E-02  0.1163815E+00
         11   -1    0    0    0    0  0.00000000000E+00  0.00000000000E+00  0.50000000000E+02  0.50000000000E+02  0.00000000000E+00 0. -1.
        -11   -1    0    0    0    0 -0.00000000000E+00 -0.00000000000E+00 -0.50000000000E+02  0.50000000000E+02  0.00000000000E+00 0.  1.
         23    2    1    2    0    0  0.00000000000E+00  0.00000000000E+00  0.00000000000E+00  0.10000000000E+03  0.10000000000E+03 0.  0.
          5    1    3    3  501    0  0.50800124317E+01  0.36521960511E+02  0.33440243332E+02  0.50000000000E+02  0.47000000000E+01 0. -1.
         -5    1    3    3    0  501 -0.50800124317E+01 -0.36521960511E+02 -0.33440243332E+02  0.50000000000E+02  0.47000000000E+01 0.  1.
</event>
<event>
 5    1  0.9071520E-001  0.1000000E+03  0.7546771E-02  0.1163815E+00
         11   -1    0    0    0    0  0.00000000000E+00  0.00000000000E+00  0.50000000000E+02  0.50000000000E+02  0.00000000000E+00 0. -1.
        -11   -1    0    0    0    0 -0.00000000000E+00 -0.00000000000E+00 -0.50000000000E+02  0.50000000000E+02  0.00000000000E+00 0.  1.
         23    2    1    2    0    0  0.00000000000E+00  0.00000000000E+00  0.00000000000E+00  0.10000000000E+03  0.10000000000E+03 0.  0.
          5    1    3    3  501    0 -0.20458715010E+01 -0.52415346941E+00  0.49733788041E+02  0.50000000000E+02  0.47000000000E+01 0. -1.
         -5    1    3    3    0  501  0.20458715010E+01  0.52415346941E+00 -0.49733788041E+02  0.50000000000E+02  0.47000000000E+01 0.  1.
</event>
<event>
 5    1  0.9071520E-001  0.1000000E+03  0.7546771E-02  0.1163815E+00
         11   -1    0    0    0    0  0.00000000000E+00  0.00000000000E+00  0.50000000000E+02  0.50000000000E+02  0.00000000000E+00 0. -1.
        -11   -1    0    0    0    0 -0.00000000000E+00 -0.00000000000E+00 -0.50000000000E+02  0.50000000000E+02  0.00000000000E+00 0.  1.
         23    2    1    2    0    0  0.00000000000E+00  0.00000000000E+00  0.00000000000E+00  0.10000000000E+03  0.10000000000E+03 0.  0.
          5    1    3    3  501    0  0.39706789430E+02  0.29332983145E+02 -0.63919459436E+01  0.50000000000E+02  0.47000000000E+01 0. -1.
         -5    1    3    3    0  501 -0.39706789430E+02 -0.29332983145E+02  0.63919459436E+01  0.50000000000E+02  0.47000000000E+01 0. -1.
</event>
<event>
 5    1  0.9071520E-001  0.1000000E+03  0.7546771E-02  0.1163815E+00
         11   -1    0    0    0    0  0.00000000000E+00  0.00000000000E+00  0.50000000000E+02  0.50000000000E+02  0.00000000000E+00 0. -1.
        -11   -1    0    0    0    0 -0.00000000000E+00 -0.00000000000E+00 -0.50000000000E+02  0.50000000000E+02  0.00000000000E+00 0.  1.
         23    2    1    2    0    0  0.00000000000E+00  0.00000000000E+00  0.00000000000E+00  0.10000000000E+03  0.10000000000E+03 0.  0.
          5    1    3    3  501    0  0.89405926561E+01 -0.22209661821E+02  0.43642945876E+02  0.50000000000E+02  0.47000000000E+01 0. -1.
         -5    1    3    3    0  501 -0.89405926561E+01  0.22209661821E+02 -0.43642945876E+02  0.50000000000E+02  0.47000000000E+01 0.  1.
</event>
<event>
 5    1  0.9071520E-001  0.1000000E+03  0.7546771E-02  0.1163815E+00
         11   -1    0    0    0    0  0.00000000000E+00  0.00000000000E+00  0.50000000000E+02  0.50000000000E+02  0.00000000000E+00 0. -1.
        -11   -1    0    0    0    0 -0.00000000000E+00 -0.00000000000E+00 -0.50000000000E+02  0.50000000000E+02  0.00000000000E+00 0.  1.
         23    2    1    2    0    0  0.00000000000E+00  0.00000000000E+00  0.00000000000E+00  0.10000000000E+03  0.10000000000E+03 0.  0.
          5    1    3    3  501    0 -0.22405401206E+02  0.39082300200E+02  0.21177389071E+02  0.50000000000E+02  0.47000000000E+01 0. -1.
         -5    1    3    3    0  501  0.22405401206E+02 -0.39082300200E+02 -0.21177389071E+02  0.50000000000E+02  0.47000000000E+01 0.  1.
</event>
<event>
 5    1  0.9071520E-001  0.1000000E+03  0.7546771E-02  0.1163815E+00
         11   -1    0    0    0    0  0.00000000000E+00  0.00000000000E+00  0.50000000000E+02  0.50000000000E+02  0.00000000000E+00 0. -1.
        -11   -1    0    0    0    0 -0.00000000000E+00 -0.00000000000E+00 -0.50000000000E+02  0.50000000000E+02  0.00000000000E+00 0.  1.
         23    2    1    2    0    0  0.00000000000E+00  0.00000000000E+00  0.00000000000E+00  0.10000000000E+03  0.10000000000E+03 0.  0.
          5    1    3    3  501    0 -0.24679456493E+02  0.43106970671E+02  0.32593721467E+01  0.50000000000E+02  0.47000000000E+01 0. -1.
         -5    1    3    3    0  501  0.24679456493E+02 -0.43106970671E+02 -0.32593721467E+01  0.50000000000E+02  0.47000000000E+01 0.  1.
</event>
<event>
 5    1  0.9071520E-001  0.1000000E+03  0.7546771E-02  0.1163815E+00
         11   -1    0    0    0    0  0.00000000000E+00  0.00000000000E+00  0.50000000000E+02  0.50000000000E+02  0.00000000000E+00 0.  1.
        -11   -1    0    0    0    0 -0.00000000000E+00 -0.00000000000E+00 -0.50000000000E+02  0.50000000000E+02  0.00000000000E+00 0. -1.
         23    2    1    2    0    0  0.00000000000E+00  0.00000000000E+00  0.00000000000E+00  0.10000000000E+03  0.10000000000E+03 0.  0.
          5    1    3    3  501    0 -0.37712508819E+02 -0.31551896024E+02 -0.77559355254E+01  0.50000000000E+02  0.47000000000E+01 0.  1.
         -5    1    3    3    0  501  0.37712508819E+02  0.31551896024E+02  0.77559355254E+01  0.50000000000E+02  0.47000000000E+01 0. -1.
</event>
<event>
 5    1  0.9071520E-001  0.1000000E+03  0.7546771E-02  0.1163815E+00
         11   -1    0    0    0    0  0.00000000000E+00  0.00000000000E+00  0.50000000000E+02  0.50000000000E+02  0.00000000000E+00 0. -1.
        -11   -1    0    0    0    0 -0.00000000000E+00 -0.00000000000E+00 -0.50000000000E+02  0.50000000000E+02  0.00000000000E+00 0.  1.
         23    2    1    2    0    0  0.00000000000E+00  0.00000000000E+00  0.00000000000E+00  0.10000000000E+03  0.10000000000E+03 0.  0.
          5    1    3    3  501    0  0.39726613253E+02 -0.23831460604E+02  0.18214491068E+02  0.50000000000E+02  0.47000000000E+01 0. -1.
         -5    1    3    3    0  501 -0.39726613253E+02  0.23831460604E+02 -0.18214491068E+02  0.50000000000E+02  0.47000000000E+01 0.  1.
</event>
<event>
 5    1  0.9071520E-001  0.1000000E+03  0.7546771E-02  0.1163815E+00
         11   -1    0    0    0    0  0.00000000000E+00  0.00000000000E+00  0.50000000000E+02  0.50000000000E+02  0.00000000000E+00 0. -1.
        -11   -1    0    0    0    0 -0.00000000000E+00 -0.00000000000E+00 -0.50000000000E+02  0.50000000000E+02  0.00000000000E+00 0.  1.
         23    2    1    2    0    0  0.00000000000E+00  0.00000000000E+00  0.00000000000E+00  0.10000000000E+03  0.10000000000E+03 0.  0.
          5    1    3    3  501    0  0.69767235286E+01  0.31929281057E+02  0.37546722094E+02  0.50000000000E+02  0.47000000000E+01 0. -1.
         -5    1    3    3    0  501 -0.69767235286E+01 -0.31929281057E+02 -0.37546722094E+02  0.50000000000E+02  0.47000000000E+01 0.  1.
</event>
<event>
 5    1  0.9071520E-001  0.1000000E+03  0.7546771E-02  0.1163815E+00
         11   -1    0    0    0    0  0.00000000000E+00  0.00000000000E+00  0.50000000000E+02  0.50000000000E+02  0.00000000000E+00 0. -1.
        -11   -1    0    0    0    0 -0.00000000000E+00 -0.00000000000E+00 -0.50000000000E+02  0.50000000000E+02  0.00000000000E+00 0.  1.
         23    2    1    2    0    0  0.00000000000E+00  0.00000000000E+00  0.00000000000E+00  0.10000000000E+03  0.10000000000E+03 0.  0.
          5    1    3    3  501    0 -0.24358708946E+02  0.22081879855E+01  0.43355359580E+02  0.50000000000E+02  0.47000000000E+01 0. -1.
         -5    1    3    3    0  501  0.24358708946E+02 -0.22081879855E+01 -0.43355359580E+02  0.50000000000E+02  0.47000000000E+01 0.  1.
</event>
<event>
 5    1  0.9071520E-001  0.1000000E+03  0.7546771E-02  0.1163815E+00
         11   -1    0    0    0    0  0.00000000000E+00  0.00000000000E+00  0.50000000000E+02  0.50000000000E+02  0.00000000000E+00 0. -1.
        -11   -1    0    0    0    0 -0.00000000000E+00 -0.00000000000E+00 -0.50000000000E+02  0.50000000000E+02  0.00000000000E+00 0.  1.
         23    2    1    2    0    0  0.00000000000E+00  0.00000000000E+00  0.00000000000E+00  0.10000000000E+03  0.10000000000E+03 0.  0.
          5    1    3    3  501    0  0.39908614967E+02 -0.29311354612E+01  0.29607784388E+02  0.50000000000E+02  0.47000000000E+01 0. -1.
         -5    1    3    3    0  501 -0.39908614967E+02  0.29311354612E+01 -0.29607784388E+02  0.50000000000E+02  0.47000000000E+01 0.  1.
</event>
<event>
 5    1  0.9071520E-001  0.1000000E+03  0.7546771E-02  0.1163815E+00
         11   -1    0    0    0    0  0.00000000000E+00  0.00000000000E+00  0.50000000000E+02  0.50000000000E+02  0.00000000000E+00 0. -1.
        -11   -1    0    0    0    0 -0.00000000000E+00 -0.00000000000E+00 -0.50000000000E+02  0.50000000000E+02  0.00000000000E+00 0.  1.
         23    2    1    2    0    0  0.00000000000E+00  0.00000000000E+00  0.00000000000E+00  0.10000000000E+03  0.10000000000E+03 0.  0.
          5    1    3    3  501    0 -0.38848568932E+02 -0.17560553385E+02  0.25696802461E+02  0.50000000000E+02  0.47000000000E+01 0. -1.
         -5    1    3    3    0  501  0.38848568932E+02  0.17560553385E+02 -0.25696802461E+02  0.50000000000E+02  0.47000000000E+01 0.  1.
</event>
<event>
 5    1  0.9071520E-001  0.1000000E+03  0.7546771E-02  0.1163815E+00
         11   -1    0    0    0    0  0.00000000000E+00  0.00000000000E+00  0.50000000000E+02  0.50000000000E+02  0.00000000000E+00 0. -1.
        -11   -1    0    0    0    0 -0.00000000000E+00 -0.00000000000E+00 -0.50000000000E+02  0.50000000000E+02  0.00000000000E+00 0.  1.
         23    2    1    2    0    0  0.00000000000E+00  0.00000000000E+00  0.00000000000E+00  0.10000000000E+03  0.10000000000E+03 0.  0.
          5    1    3    3  501    0 -0.19017730477E+02  0.27854943288E+02  0.36610627718E+02  0.50000000000E+02  0.47000000000E+01 0. -1.
         -5    1    3    3    0  501  0.19017730477E+02 -0.27854943288E+02 -0.36610627718E+02  0.50000000000E+02  0.47000000000E+01 0.  1.
</event>
<event>
 5    1  0.9071520E-001  0.1000000E+03  0.7546771E-02  0.1163815E+00
         11   -1    0    0    0    0  0.00000000000E+00  0.00000000000E+00  0.50000000000E+02  0.50000000000E+02  0.00000000000E+00 0.  1.
        -11   -1    0    0    0    0 -0.00000000000E+00 -0.00000000000E+00 -0.50000000000E+02  0.50000000000E+02  0.00000000000E+00 0. -1.
         23    2    1    2    0    0  0.00000000000E+00  0.00000000000E+00  0.00000000000E+00  0.10000000000E+03  0.10000000000E+03 0.  0.
          5    1    3    3  501    0 -0.37139256102E+01  0.29911708734E+02 -0.39615734717E+02  0.50000000000E+02  0.47000000000E+01 0. -1.
         -5    1    3    3    0  501  0.37139256102E+01 -0.29911708734E+02  0.39615734717E+02  0.50000000000E+02  0.47000000000E+01 0.  1.
</event>
<event>
 5    1  0.9071520E-001  0.1000000E+03  0.7546771E-02  0.1163815E+00
         11   -1    0    0    0    0  0.00000000000E+00  0.00000000000E+00  0.50000000000E+02  0.50000000000E+02  0.00000000000E+00 0.  1.
        -11   -1    0    0    0    0 -0.00000000000E+00 -0.00000000000E+00 -0.50000000000E+02  0.50000000000E+02  0.00000000000E+00 0. -1.
         23    2    1    2    0    0  0.00000000000E+00  0.00000000000E+00  0.00000000000E+00  0.10000000000E+03  0.10000000000E+03 0.  0.
          5    1    3    3  501    0 -0.30673286423E+02 -0.24131449986E+01 -0.39131013675E+02  0.50000000000E+02  0.47000000000E+01 0. -1.
         -5    1    3    3    0  501  0.30673286423E+02  0.24131449986E+01  0.39131013675E+02  0.50000000000E+02  0.47000000000E+01 0.  1.
</event>
<event>
 5    1  0.9071520E-001  0.1000000E+03  0.7546771E-02  0.1163815E+00
         11   -1    0    0    0    0  0.00000000000E+00  0.00000000000E+00  0.50000000000E+02  0.50000000000E+02  0.00000000000E+00 0.  1.
        -11   -1    0    0    0    0 -0.00000000000E+00 -0.00000000000E+00 -0.50000000000E+02  0.50000000000E+02  0.00000000000E+00 0. -1.
         23    2    1    2    0    0  0.00000000000E+00  0.00000000000E+00  0.00000000000E+00  0.10000000000E+03  0.10000000000E+03 0.  0.
          5    1    3    3  501    0 -0.53817095385E+00 -0.17845269737E+02 -0.46466834625E+02  0.50000000000E+02  0.47000000000E+01 0. -1.
         -5    1    3    3    0  501  0.53817095385E+00  0.17845269737E+02  0.46466834625E+02  0.50000000000E+02  0.47000000000E+01 0.  1.
</event>
<event>
 5    1  0.9071520E-001  0.1000000E+03  0.7546771E-02  0.1163815E+00
         11   -1    0    0    0    0  0.00000000000E+00  0.00000000000E+00  0.50000000000E+02  0.50000000000E+02  0.00000000000E+00 0.  1.
        -11   -1    0    0    0    0 -0.00000000000E+00 -0.00000000000E+00 -0.50000000000E+02  0.50000000000E+02  0.00000000000E+00 0. -1.
         23    2    1    2    0    0  0.00000000000E+00  0.00000000000E+00  0.00000000000E+00  0.10000000000E+03  0.10000000000E+03 0.  0.
          5    1    3    3  501    0  0.24863226836E+02 -0.37742660834E+01 -0.42959106914E+02  0.50000000000E+02  0.47000000000E+01 0. -1.
         -5    1    3    3    0  501 -0.24863226836E+02  0.37742660834E+01  0.42959106914E+02  0.50000000000E+02  0.47000000000E+01 0.  1.
</event>
<event>
 5    1  0.9071520E-001  0.1000000E+03  0.7546771E-02  0.1163815E+00
         11   -1    0    0    0    0  0.00000000000E+00  0.00000000000E+00  0.50000000000E+02  0.50000000000E+02  0.00000000000E+00 0.  1.
        -11   -1    0    0    0    0 -0.00000000000E+00 -0.00000000000E+00 -0.50000000000E+02  0.50000000000E+02  0.00000000000E+00 0. -1.
         23    2    1    2    0    0  0.00000000000E+00  0.00000000000E+00  0.00000000000E+00  0.10000000000E+03  0.10000000000E+03 0.  0.
          5    1    3    3  501    0  0.18941123527E+02 -0.36532533297E+02 -0.28009245803E+02  0.50000000000E+02  0.47000000000E+01 0. -1.
         -5    1    3    3    0  501 -0.18941123527E+02  0.36532533297E+02  0.28009245803E+02  0.50000000000E+02  0.47000000000E+01 0.  1.
</event>
<event>
 5    1  0.9071520E-001  0.1000000E+03  0.7546771E-02  0.1163815E+00
         11   -1    0    0    0    0  0.00000000000E+00  0.00000000000E+00  0.50000000000E+02  0.50000000000E+02  0.00000000000E+00 0.  1.
        -11   -1    0    0    0    0 -0.00000000000E+00 -0.00000000000E+00 -0.50000000000E+02  0.50000000000E+02  0.00000000000E+00 0. -1.
         23    2    1    2    0    0  0.00000000000E+00  0.00000000000E+00  0.00000000000E+00  0.10000000000E+03  0.10000000000E+03 0.  0.
          5    1    3    3  501    0  0.20823092571E+01 -0.34993620212E+02 -0.35341484584E+02  0.50000000000E+02  0.47000000000E+01 0. -1.
         -5    1    3    3    0  501 -0.20823092571E+01  0.34993620212E+02  0.35341484584E+02  0.50000000000E+02  0.47000000000E+01 0.  1.
</event>
<event>
 5    1  0.9071520E-001  0.1000000E+03  0.7546771E-02  0.1163815E+00
         11   -1    0    0    0    0  0.00000000000E+00  0.00000000000E+00  0.50000000000E+02  0.50000000000E+02  0.00000000000E+00 0. -1.
        -11   -1    0    0    0    0 -0.00000000000E+00 -0.00000000000E+00 -0.50000000000E+02  0.50000000000E+02  0.00000000000E+00 0.  1.
         23    2    1    2    0    0  0.00000000000E+00  0.00000000000E+00  0.00000000000E+00  0.10000000000E+03  0.10000000000E+03 0.  0.
          5    1    3    3  501    0  0.12346232223E+02 -0.40877948135E+02  0.25582687627E+02  0.50000000000E+02  0.47000000000E+01 0. -1.
         -5    1    3    3    0  501 -0.12346232223E+02  0.40877948135E+02 -0.25582687627E+02  0.50000000000E+02  0.47000000000E+01 0.  1.
</event>
<event>
 5    1  0.9071520E-001  0.1000000E+03  0.7546771E-02  0.1163815E+00
         11   -1    0    0    0    0  0.00000000000E+00  0.00000000000E+00  0.50000000000E+02  0.50000000000E+02  0.00000000000E+00 0. -1.
        -11   -1    0    0    0    0 -0.00000000000E+00 -0.00000000000E+00 -0.50000000000E+02  0.50000000000E+02  0.00000000000E+00 0.  1.
         23    2    1    2    0    0  0.00000000000E+00  0.00000000000E+00  0.00000000000E+00  0.10000000000E+03  0.10000000000E+03 0.  0.
          5    1    3    3  501    0  0.49455452105E+02 -0.49548881249E+01 -0.27417769340E+01  0.50000000000E+02  0.47000000000E+01 0. -1.
         -5    1    3    3    0  501 -0.49455452105E+02  0.49548881249E+01  0.27417769340E+01  0.50000000000E+02  0.47000000000E+01 0.  1.
</event>
<event>
 5    1  0.9071520E-001  0.1000000E+03  0.7546771E-02  0.1163815E+00
         11   -1    0    0    0    0  0.00000000000E+00  0.00000000000E+00  0.50000000000E+02  0.50000000000E+02  0.00000000000E+00 0.  1.
        -11   -1    0    0    0    0 -0.00000000000E+00 -0.00000000000E+00 -0.50000000000E+02  0.50000000000E+02  0.00000000000E+00 0. -1.
         23    2    1    2    0    0  0.00000000000E+00  0.00000000000E+00  0.00000000000E+00  0.10000000000E+03  0.10000000000E+03 0.  0.
          5    1    3    3  501    0  0.28798284656E+02  0.18484527384E+01 -0.40560473658E+02  0.50000000000E+02  0.47000000000E+01 0. -1.
         -5    1    3    3    0  501 -0.28798284656E+02 -0.18484527384E+01  0.40560473658E+02  0.50000000000E+02  0.47000000000E+01 0.  1.
</event>
<event>
 5    1  0.9071520E-001  0.1000000E+03  0.7546771E-02  0.1163815E+00
         11   -1    0    0    0    0  0.00000000000E+00  0.00000000000E+00  0.50000000000E+02  0.50000000000E+02  0.00000000000E+00 0. -1.
        -11   -1    0    0    0    0 -0.00000000000E+00 -0.00000000000E+00 -0.50000000000E+02  0.50000000000E+02  0.00000000000E+00 0.  1.
         23    2    1    2    0    0  0.00000000000E+00  0.00000000000E+00  0.00000000000E+00  0.10000000000E+03  0.10000000000E+03 0.  0.
          5    1    3    3  501    0 -0.19989172355E+02  0.25019022915E+02  0.38110254276E+02  0.50000000000E+02  0.47000000000E+01 0. -1.
         -5    1    3    3    0  501  0.19989172355E+02 -0.25019022915E+02 -0.38110254276E+02  0.50000000000E+02  0.47000000000E+01 0.  1.
</event>
<event>
 5    1  0.9071520E-001  0.1000000E+03  0.7546771E-02  0.1163815E+00
         11   -1    0    0    0    0  0.00000000000E+00  0.00000000000E+00  0.50000000000E+02  0.50000000000E+02  0.00000000000E+00 0. -1.
        -11   -1    0    0    0    0 -0.00000000000E+00 -0.00000000000E+00 -0.50000000000E+02  0.50000000000E+02  0.00000000000E+00 0.  1.
         23    2    1    2    0    0  0.00000000000E+00  0.00000000000E+00  0.00000000000E+00  0.10000000000E+03  0.10000000000E+03 0.  0.
          5    1    3    3  501    0 -0.46034752199E+02  0.75620138109E+01 -0.17364548283E+02  0.50000000000E+02  0.47000000000E+01 0. -1.
         -5    1    3    3    0  501  0.46034752199E+02 -0.75620138109E+01  0.17364548283E+02  0.50000000000E+02  0.47000000000E+01 0.  1.
</event>
<event>
 5    1  0.9071520E-001  0.1000000E+03  0.7546771E-02  0.1163815E+00
         11   -1    0    0    0    0  0.00000000000E+00  0.00000000000E+00  0.50000000000E+02  0.50000000000E+02  0.00000000000E+00 0. -1.
        -11   -1    0    0    0    0 -0.00000000000E+00 -0.00000000000E+00 -0.50000000000E+02  0.50000000000E+02  0.00000000000E+00 0.  1.
         23    2    1    2    0    0  0.00000000000E+00  0.00000000000E+00  0.00000000000E+00  0.10000000000E+03  0.10000000000E+03 0.  0.
          5    1    3    3  501    0  0.36284327095E+02  0.18231606506E+02  0.28791771941E+02  0.50000000000E+02  0.47000000000E+01 0. -1.
         -5    1    3    3    0  501 -0.36284327095E+02 -0.18231606506E+02 -0.28791771941E+02  0.50000000000E+02  0.47000000000E+01 0.  1.
</event>
<event>
 5    1  0.9071520E-001  0.1000000E+03  0.7546771E-02  0.1163815E+00
         11   -1    0    0    0    0  0.00000000000E+00  0.00000000000E+00  0.50000000000E+02  0.50000000000E+02  0.00000000000E+00 0.  1.
        -11   -1    0    0    0    0 -0.00000000000E+00 -0.00000000000E+00 -0.50000000000E+02  0.50000000000E+02  0.00000000000E+00 0. -1.
         23    2    1    2    0    0  0.00000000000E+00  0.00000000000E+00  0.00000000000E+00  0.10000000000E+03  0.10000000000E+03 0.  0.
          5    1    3    3  501    0  0.35148910424E+02  0.34919527146E+02  0.48052804205E+01  0.50000000000E+02  0.47000000000E+01 0.  1.
         -5    1    3    3    0  501 -0.35148910424E+02 -0.34919527146E+02 -0.48052804205E+01  0.50000000000E+02  0.47000000000E+01 0. -1.
</event>
<event>
 5    1  0.9071520E-001  0.1000000E+03  0.7546771E-02  0.1163815E+00
         11   -1    0    0    0    0  0.00000000000E+00  0.00000000000E+00  0.50000000000E+02  0.50000000000E+02  0.00000000000E+00 0. -1.
        -11   -1    0    0    0    0 -0.00000000000E+00 -0.00000000000E+00 -0.50000000000E+02  0.50000000000E+02  0.00000000000E+00 0.  1.
         23    2    1    2    0    0  0.00000000000E+00  0.00000000000E+00  0.00000000000E+00  0.10000000000E+03  0.10000000000E+03 0.  0.
          5    1    3    3  501    0  0.15688960894E+02  0.26352687562E+02  0.39208447615E+02  0.50000000000E+02  0.47000000000E+01 0. -1.
         -5    1    3    3    0  501 -0.15688960894E+02 -0.26352687562E+02 -0.39208447615E+02  0.50000000000E+02  0.47000000000E+01 0.  1.
</event>
<event>
 5    1  0.9071520E-001  0.1000000E+03  0.7546771E-02  0.1163815E+00
         11   -1    0    0    0    0  0.00000000000E+00  0.00000000000E+00  0.50000000000E+02  0.50000000000E+02  0.00000000000E+00 0.  1.
        -11   -1    0    0    0    0 -0.00000000000E+00 -0.00000000000E+00 -0.50000000000E+02  0.50000000000E+02  0.00000000000E+00 0. -1.
         23    2    1    2    0    0  0.00000000000E+00  0.00000000000E+00  0.00000000000E+00  0.10000000000E+03  0.10000000000E+03 0.  0.
          5    1    3    3  501    0  0.36493911446E+02 -0.29115623119E+02 -0.17273821749E+02  0.50000000000E+02  0.47000000000E+01 0. -1.
         -5    1    3    3    0  501 -0.36493911446E+02  0.29115623119E+02  0.17273821749E+02  0.50000000000E+02  0.47000000000E+01 0.  1.
</event>
<event>
 5    1  0.9071520E-001  0.1000000E+03  0.7546771E-02  0.1163815E+00
         11   -1    0    0    0    0  0.00000000000E+00  0.00000000000E+00  0.50000000000E+02  0.50000000000E+02  0.00000000000E+00 0. -1.
        -11   -1    0    0    0    0 -0.00000000000E+00 -0.00000000000E+00 -0.50000000000E+02  0.50000000000E+02  0.00000000000E+00 0.  1.
         23    2    1    2    0    0  0.00000000000E+00  0.00000000000E+00  0.00000000000E+00  0.10000000000E+03  0.10000000000E+03 0.  0.
          5    1    3    3  501    0 -0.10157106058E+01  0.12248487706E+02  0.48237463458E+02  0.50000000000E+02  0.47000000000E+01 0. -1.
         -5    1    3    3    0  501  0.10157106058E+01 -0.12248487706E+02 -0.48237463458E+02  0.50000000000E+02  0.47000000000E+01 0.  1.
</event>
<event>
 5    1  0.9071520E-001  0.1000000E+03  0.7546771E-02  0.1163815E+00
         11   -1    0    0    0    0  0.00000000000E+00  0.00000000000E+00  0.50000000000E+02  0.50000000000E+02  0.00000000000E+00 0. -1.
        -11   -1    0    0    0    0 -0.00000000000E+00 -0.00000000000E+00 -0.50000000000E+02  0.50000000000E+02  0.00000000000E+00 0.  1.
         23    2    1    2    0    0  0.00000000000E+00  0.00000000000E+00  0.00000000000E+00  0.10000000000E+03  0.10000000000E+03 0.  0.
          5    1    3    3  501    0 -0.15477406297E+02 -0.10830560430E+02  0.46054954729E+02  0.50000000000E+02  0.47000000000E+01 0. -1.
         -5    1    3    3    0  501  0.15477406297E+02  0.10830560430E+02 -0.46054954729E+02  0.50000000000E+02  0.47000000000E+01 0.  1.
</event>
<event>
 5    1  0.9071520E-001  0.1000000E+03  0.7546771E-02  0.1163815E+00
         11   -1    0    0    0    0  0.00000000000E+00  0.00000000000E+00  0.50000000000E+02  0.50000000000E+02  0.00000000000E+00 0. -1.
        -11   -1    0    0    0    0 -0.00000000000E+00 -0.00000000000E+00 -0.50000000000E+02  0.50000000000E+02  0.00000000000E+00 0.  1.
         23    2    1    2    0    0  0.00000000000E+00  0.00000000000E+00  0.00000000000E+00  0.10000000000E+03  0.10000000000E+03 0.  0.
          5    1    3    3  501    0 -0.19752870812E+02  0.44673303287E+02  0.95932303303E+01  0.50000000000E+02  0.47000000000E+01 0. -1.
         -5    1    3    3    0  501  0.19752870812E+02 -0.44673303287E+02 -0.95932303303E+01  0.50000000000E+02  0.47000000000E+01 0.  1.
</event>
<event>
 5    1  0.9071520E-001  0.1000000E+03  0.7546771E-02  0.1163815E+00
         11   -1    0    0    0    0  0.00000000000E+00  0.00000000000E+00  0.50000000000E+02  0.50000000000E+02  0.00000000000E+00 0.  1.
        -11   -1    0    0    0    0 -0.00000000000E+00 -0.00000000000E+00 -0.50000000000E+02  0.50000000000E+02  0.00000000000E+00 0. -1.
         23    2    1    2    0    0  0.00000000000E+00  0.00000000000E+00  0.00000000000E+00  0.10000000000E+03  0.10000000000E+03 0.  0.
          5    1    3    3  501    0 -0.94528793060E+01 -0.36342510188E+02 -0.32676827050E+02  0.50000000000E+02  0.47000000000E+01 0. -1.
         -5    1    3    3    0  501  0.94528793060E+01  0.36342510188E+02  0.32676827050E+02  0.50000000000E+02  0.47000000000E+01 0.  1.
</event>
<event>
 5    1  0.9071520E-001  0.1000000E+03  0.7546771E-02  0.1163815E+00
         11   -1    0    0    0    0  0.00000000000E+00  0.00000000000E+00  0.50000000000E+02  0.50000000000E+02  0.00000000000E+00 0. -1.
        -11   -1    0    0    0    0 -0.00000000000E+00 -0.00000000000E+00 -0.50000000000E+02  0.50000000000E+02  0.00000000000E+00 0.  1.
         23    2    1    2    0    0  0.00000000000E+00  0.00000000000E+00  0.00000000000E+00  0.10000000000E+03  0.10000000000E+03 0.  0.
          5    1    3    3  501    0  0.22270030742E+02  0.27264401604E+02  0.35193865032E+02  0.50000000000E+02  0.47000000000E+01 0. -1.
         -5    1    3    3    0  501 -0.22270030742E+02 -0.27264401604E+02 -0.35193865032E+02  0.50000000000E+02  0.47000000000E+01 0.  1.
</event>
<event>
 5    1  0.9071520E-001  0.1000000E+03  0.7546771E-02  0.1163815E+00
         11   -1    0    0    0    0  0.00000000000E+00  0.00000000000E+00  0.50000000000E+02  0.50000000000E+02  0.00000000000E+00 0. -1.
        -11   -1    0    0    0    0 -0.00000000000E+00 -0.00000000000E+00 -0.50000000000E+02  0.50000000000E+02  0.00000000000E+00 0.  1.
         23    2    1    2    0    0  0.00000000000E+00  0.00000000000E+00  0.00000000000E+00  0.10000000000E+03  0.10000000000E+03 0.  0.
          5    1    3    3  501    0 -0.22465632539E+02 -0.19436327947E+02  0.39942890613E+02  0.50000000000E+02  0.47000000000E+01 0. -1.
         -5    1    3    3    0  501  0.22465632539E+02  0.19436327947E+02 -0.39942890613E+02  0.50000000000E+02  0.47000000000E+01 0.  1.
</event>
<event>
 5    1  0.9071520E-001  0.1000000E+03  0.7546771E-02  0.1163815E+00
         11   -1    0    0    0    0  0.00000000000E+00  0.00000000000E+00  0.50000000000E+02  0.50000000000E+02  0.00000000000E+00 0. -1.
        -11   -1    0    0    0    0 -0.00000000000E+00 -0.00000000000E+00 -0.50000000000E+02  0.50000000000E+02  0.00000000000E+00 0.  1.
         23    2    1    2    0    0  0.00000000000E+00  0.00000000000E+00  0.00000000000E+00  0.10000000000E+03  0.10000000000E+03 0.  0.
          5    1    3    3  501    0 -0.36880915703E+02 -0.25247239667E+02  0.21915404311E+02  0.50000000000E+02  0.47000000000E+01 0. -1.
         -5    1    3    3    0  501  0.36880915703E+02  0.25247239667E+02 -0.21915404311E+02  0.50000000000E+02  0.47000000000E+01 0.  1.
</event>
<event>
 5    1  0.9071520E-001  0.1000000E+03  0.7546771E-02  0.1163815E+00
         11   -1    0    0    0    0  0.00000000000E+00  0.00000000000E+00  0.50000000000E+02  0.50000000000E+02  0.00000000000E+00 0. -1.
        -11   -1    0    0    0    0 -0.00000000000E+00 -0.00000000000E+00 -0.50000000000E+02  0.50000000000E+02  0.00000000000E+00 0.  1.
         23    2    1    2    0    0  0.00000000000E+00  0.00000000000E+00  0.00000000000E+00  0.10000000000E+03  0.10000000000E+03 0.  0.
          5    1    3    3  501    0 -0.62453929915E+01  0.48745280990E+02  0.79248121510E+01  0.50000000000E+02  0.47000000000E+01 0. -1.
         -5    1    3    3    0  501  0.62453929915E+01 -0.48745280990E+02 -0.79248121510E+01  0.50000000000E+02  0.47000000000E+01 0.  1.
</event>
<event>
 5    1  0.9071520E-001  0.1000000E+03  0.7546771E-02  0.1163815E+00
         11   -1    0    0    0    0  0.00000000000E+00  0.00000000000E+00  0.50000000000E+02  0.50000000000E+02  0.00000000000E+00 0. -1.
        -11   -1    0    0    0    0 -0.00000000000E+00 -0.00000000000E+00 -0.50000000000E+02  0.50000000000E+02  0.00000000000E+00 0.  1.
         23    2    1    2    0    0  0.00000000000E+00  0.00000000000E+00  0.00000000000E+00  0.10000000000E+03  0.10000000000E+03 0.  0.
          5    1    3    3  501    0  0.35927708152E+02  0.32139077620E+02  0.12417305532E+02  0.50000000000E+02  0.47000000000E+01 0. -1.
         -5    1    3    3    0  501 -0.35927708152E+02 -0.32139077620E+02 -0.12417305532E+02  0.50000000000E+02  0.47000000000E+01 0.  1.
</event>
<event>
 5    1  0.9071520E-001  0.1000000E+03  0.7546771E-02  0.1163815E+00
         11   -1    0    0    0    0  0.00000000000E+00  0.00000000000E+00  0.50000000000E+02  0.50000000000E+02  0.00000000000E+00 0.  1.
        -11   -1    0    0    0    0 -0.00000000000E+00 -0.00000000000E+00 -0.50000000000E+02  0.50000000000E+02  0.00000000000E+00 0. -1.
         23    2    1    2    0    0  0.00000000000E+00  0.00000000000E+00  0.00000000000E+00  0.10000000000E+03  0.10000000000E+03 0.  0.
          5    1    3    3  501    0  0.19551020282E+02  0.11575092955E+02  0.44290911359E+02  0.50000000000E+02  0.47000000000E+01 0.  1.
         -5    1    3    3    0  501 -0.19551020282E+02 -0.11575092955E+02 -0.44290911359E+02  0.50000000000E+02  0.47000000000E+01 0. -1.
</event>
<event>
 5    1  0.9071520E-001  0.1000000E+03  0.7546771E-02  0.1163815E+00
         11   -1    0    0    0    0  0.00000000000E+00  0.00000000000E+00  0.50000000000E+02  0.50000000000E+02  0.00000000000E+00 0. -1.
        -11   -1    0    0    0    0 -0.00000000000E+00 -0.00000000000E+00 -0.50000000000E+02  0.50000000000E+02  0.00000000000E+00 0.  1.
         23    2    1    2    0    0  0.00000000000E+00  0.00000000000E+00  0.00000000000E+00  0.10000000000E+03  0.10000000000E+03 0.  0.
          5    1    3    3  501    0  0.24964148249E+02 -0.37751112528E+02  0.20725703972E+02  0.50000000000E+02  0.47000000000E+01 0. -1.
         -5    1    3    3    0  501 -0.24964148249E+02  0.37751112528E+02 -0.20725703972E+02  0.50000000000E+02  0.47000000000E+01 0.  1.
</event>
<event>
 5    1  0.9071520E-001  0.1000000E+03  0.7546771E-02  0.1163815E+00
         11   -1    0    0    0    0  0.00000000000E+00  0.00000000000E+00  0.50000000000E+02  0.50000000000E+02  0.00000000000E+00 0. -1.
        -11   -1    0    0    0    0 -0.00000000000E+00 -0.00000000000E+00 -0.50000000000E+02  0.50000000000E+02  0.00000000000E+00 0.  1.
         23    2    1    2    0    0  0.00000000000E+00  0.00000000000E+00  0.00000000000E+00  0.10000000000E+03  0.10000000000E+03 0.  0.
          5    1    3    3  501    0 -0.33508607206E+02 -0.11394096900E+02  0.35003682648E+02  0.50000000000E+02  0.47000000000E+01 0. -1.
         -5    1    3    3    0  501  0.33508607206E+02  0.11394096900E+02 -0.35003682648E+02  0.50000000000E+02  0.47000000000E+01 0.  1.
</event>
<event>
 5    1  0.9071520E-001  0.1000000E+03  0.7546771E-02  0.1163815E+00
         11   -1    0    0    0    0  0.00000000000E+00  0.00000000000E+00  0.50000000000E+02  0.50000000000E+02  0.00000000000E+00 0.  1.
        -11   -1    0    0    0    0 -0.00000000000E+00 -0.00000000000E+00 -0.50000000000E+02  0.50000000000E+02  0.00000000000E+00 0. -1.
         23    2    1    2    0    0  0.00000000000E+00  0.00000000000E+00  0.00000000000E+00  0.10000000000E+03  0.10000000000E+03 0.  0.
          5    1    3    3  501    0  0.38876834734E+02  0.28571258765E+02 -0.12254994640E+02  0.50000000000E+02  0.47000000000E+01 0. -1.
         -5    1    3    3    0  501 -0.38876834734E+02 -0.28571258765E+02  0.12254994640E+02  0.50000000000E+02  0.47000000000E+01 0.  1.
</event>
<event>
 5    1  0.9071520E-001  0.1000000E+03  0.7546771E-02  0.1163815E+00
         11   -1    0    0    0    0  0.00000000000E+00  0.00000000000E+00  0.50000000000E+02  0.50000000000E+02  0.00000000000E+00 0. -1.
        -11   -1    0    0    0    0 -0.00000000000E+00 -0.00000000000E+00 -0.50000000000E+02  0.50000000000E+02  0.00000000000E+00 0.  1.
         23    2    1    2    0    0  0.00000000000E+00  0.00000000000E+00  0.00000000000E+00  0.10000000000E+03  0.10000000000E+03 0.  0.
          5    1    3    3  501    0  0.36624406443E+02  0.30287606369E+02  0.14806206575E+02  0.50000000000E+02  0.47000000000E+01 0. -1.
         -5    1    3    3    0  501 -0.36624406443E+02 -0.30287606369E+02 -0.14806206575E+02  0.50000000000E+02  0.47000000000E+01 0.  1.
</event>
<event>
 5    1  0.9071520E-001  0.1000000E+03  0.7546771E-02  0.1163815E+00
         11   -1    0    0    0    0  0.00000000000E+00  0.00000000000E+00  0.50000000000E+02  0.50000000000E+02  0.00000000000E+00 0.  1.
        -11   -1    0    0    0    0 -0.00000000000E+00 -0.00000000000E+00 -0.50000000000E+02  0.50000000000E+02  0.00000000000E+00 0. -1.
         23    2    1    2    0    0  0.00000000000E+00  0.00000000000E+00  0.00000000000E+00  0.10000000000E+03  0.10000000000E+03 0.  0.
          5    1    3    3  501    0  0.23408079712E+02 -0.29187774325E+02  0.32833605256E+02  0.50000000000E+02  0.47000000000E+01 0. -1.
         -5    1    3    3    0  501 -0.23408079712E+02  0.29187774325E+02 -0.32833605256E+02  0.50000000000E+02  0.47000000000E+01 0.  1.
</event>
<event>
 5    1  0.9071520E-001  0.1000000E+03  0.7546771E-02  0.1163815E+00
         11   -1    0    0    0    0  0.00000000000E+00  0.00000000000E+00  0.50000000000E+02  0.50000000000E+02  0.00000000000E+00 0. -1.
        -11   -1    0    0    0    0 -0.00000000000E+00 -0.00000000000E+00 -0.50000000000E+02  0.50000000000E+02  0.00000000000E+00 0.  1.
         23    2    1    2    0    0  0.00000000000E+00  0.00000000000E+00  0.00000000000E+00  0.10000000000E+03  0.10000000000E+03 0.  0.
          5    1    3    3  501    0  0.43218076558E+02 -0.19378237017E+02  0.15316389548E+02  0.50000000000E+02  0.47000000000E+01 0. -1.
         -5    1    3    3    0  501 -0.43218076558E+02  0.19378237017E+02 -0.15316389548E+02  0.50000000000E+02  0.47000000000E+01 0.  1.
</event>
<event>
 5    1  0.9071520E-001  0.1000000E+03  0.7546771E-02  0.1163815E+00
         11   -1    0    0    0    0  0.00000000000E+00  0.00000000000E+00  0.50000000000E+02  0.50000000000E+02  0.00000000000E+00 0. -1.
        -11   -1    0    0    0    0 -0.00000000000E+00 -0.00000000000E+00 -0.50000000000E+02  0.50000000000E+02  0.00000000000E+00 0.  1.
         23    2    1    2    0    0  0.00000000000E+00  0.00000000000E+00  0.00000000000E+00  0.10000000000E+03  0.10000000000E+03 0.  0.
          5    1    3    3  501    0  0.41312289938E+01 -0.33024580579E+02  0.37016483147E+02  0.50000000000E+02  0.47000000000E+01 0. -1.
         -5    1    3    3    0  501 -0.41312289938E+01  0.33024580579E+02 -0.37016483147E+02  0.50000000000E+02  0.47000000000E+01 0.  1.
</event>
<event>
 5    1  0.9071520E-001  0.1000000E+03  0.7546771E-02  0.1163815E+00
         11   -1    0    0    0    0  0.00000000000E+00  0.00000000000E+00  0.50000000000E+02  0.50000000000E+02  0.00000000000E+00 0.  1.
        -11   -1    0    0    0    0 -0.00000000000E+00 -0.00000000000E+00 -0.50000000000E+02  0.50000000000E+02  0.00000000000E+00 0. -1.
         23    2    1    2    0    0  0.00000000000E+00  0.00000000000E+00  0.00000000000E+00  0.10000000000E+03  0.10000000000E+03 0.  0.
          5    1    3    3  501    0 -0.24257896717E+02  0.12331173799E+01 -0.43450476043E+02  0.50000000000E+02  0.47000000000E+01 0. -1.
         -5    1    3    3    0  501  0.24257896717E+02 -0.12331173799E+01  0.43450476043E+02  0.50000000000E+02  0.47000000000E+01 0.  1.
</event>
<event>
 5    1  0.9071520E-001  0.1000000E+03  0.7546771E-02  0.1163815E+00
         11   -1    0    0    0    0  0.00000000000E+00  0.00000000000E+00  0.50000000000E+02  0.50000000000E+02  0.00000000000E+00 0.  1.
        -11   -1    0    0    0    0 -0.00000000000E+00 -0.00000000000E+00 -0.50000000000E+02  0.50000000000E+02  0.00000000000E+00 0. -1.
         23    2    1    2    0    0  0.00000000000E+00  0.00000000000E+00  0.00000000000E+00  0.10000000000E+03  0.10000000000E+03 0.  0.
          5    1    3    3  501    0  0.27274778227E+02  0.37518968571E+02 -0.18064425538E+02  0.50000000000E+02  0.47000000000E+01 0. -1.
         -5    1    3    3    0  501 -0.27274778227E+02 -0.37518968571E+02  0.18064425538E+02  0.50000000000E+02  0.47000000000E+01 0.  1.
</event>
<event>
 5    1  0.9071520E-001  0.1000000E+03  0.7546771E-02  0.1163815E+00
         11   -1    0    0    0    0  0.00000000000E+00  0.00000000000E+00  0.50000000000E+02  0.50000000000E+02  0.00000000000E+00 0.  1.
        -11   -1    0    0    0    0 -0.00000000000E+00 -0.00000000000E+00 -0.50000000000E+02  0.50000000000E+02  0.00000000000E+00 0. -1.
         23    2    1    2    0    0  0.00000000000E+00  0.00000000000E+00  0.00000000000E+00  0.10000000000E+03  0.10000000000E+03 0.  0.
          5    1    3    3  501    0 -0.16068109118E+02  0.44316325122E+02 -0.15993411052E+02  0.50000000000E+02  0.47000000000E+01 0. -1.
         -5    1    3    3    0  501  0.16068109118E+02 -0.44316325122E+02  0.15993411052E+02  0.50000000000E+02  0.47000000000E+01 0.  1.
</event>
<event>
 5    1  0.9071520E-001  0.1000000E+03  0.7546771E-02  0.1163815E+00
         11   -1    0    0    0    0  0.00000000000E+00  0.00000000000E+00  0.50000000000E+02  0.50000000000E+02  0.00000000000E+00 0.  1.
        -11   -1    0    0    0    0 -0.00000000000E+00 -0.00000000000E+00 -0.50000000000E+02  0.50000000000E+02  0.00000000000E+00 0. -1.
         23    2    1    2    0    0  0.00000000000E+00  0.00000000000E+00  0.00000000000E+00  0.10000000000E+03  0.10000000000E+03 0.  0.
          5    1    3    3  501    0  0.16190616705E+02  0.40958979050E+02 -0.23197757778E+02  0.50000000000E+02  0.47000000000E+01 0. -1.
         -5    1    3    3    0  501 -0.16190616705E+02 -0.40958979050E+02  0.23197757778E+02  0.50000000000E+02  0.47000000000E+01 0.  1.
</event>
<event>
 5    1  0.9071520E-001  0.1000000E+03  0.7546771E-02  0.1163815E+00
         11   -1    0    0    0    0  0.00000000000E+00  0.00000000000E+00  0.50000000000E+02  0.50000000000E+02  0.00000000000E+00 0. -1.
        -11   -1    0    0    0    0 -0.00000000000E+00 -0.00000000000E+00 -0.50000000000E+02  0.50000000000E+02  0.00000000000E+00 0.  1.
         23    2    1    2    0    0  0.00000000000E+00  0.00000000000E+00  0.00000000000E+00  0.10000000000E+03  0.10000000000E+03 0.  0.
          5    1    3    3  501    0  0.82813963834E+01 -0.30004690170E+02  0.38846454687E+02  0.50000000000E+02  0.47000000000E+01 0. -1.
         -5    1    3    3    0  501 -0.82813963834E+01  0.30004690170E+02 -0.38846454687E+02  0.50000000000E+02  0.47000000000E+01 0.  1.
</event>
<event>
 5    1  0.9071520E-001  0.1000000E+03  0.7546771E-02  0.1163815E+00
         11   -1    0    0    0    0  0.00000000000E+00  0.00000000000E+00  0.50000000000E+02  0.50000000000E+02  0.00000000000E+00 0. -1.
        -11   -1    0    0    0    0 -0.00000000000E+00 -0.00000000000E+00 -0.50000000000E+02  0.50000000000E+02  0.00000000000E+00 0.  1.
         23    2    1    2    0    0  0.00000000000E+00  0.00000000000E+00  0.00000000000E+00  0.10000000000E+03  0.10000000000E+03 0.  0.
          5    1    3    3  501    0  0.34312647426E+02  0.27131708295E+02  0.23757580509E+02  0.50000000000E+02  0.47000000000E+01 0. -1.
         -5    1    3    3    0  501 -0.34312647426E+02 -0.27131708295E+02 -0.23757580509E+02  0.50000000000E+02  0.47000000000E+01 0.  1.
</event>
<event>
 5    1  0.9071520E-001  0.1000000E+03  0.7546771E-02  0.1163815E+00
         11   -1    0    0    0    0  0.00000000000E+00  0.00000000000E+00  0.50000000000E+02  0.50000000000E+02  0.00000000000E+00 0. -1.
        -11   -1    0    0    0    0 -0.00000000000E+00 -0.00000000000E+00 -0.50000000000E+02  0.50000000000E+02  0.00000000000E+00 0.  1.
         23    2    1    2    0    0  0.00000000000E+00  0.00000000000E+00  0.00000000000E+00  0.10000000000E+03  0.10000000000E+03 0.  0.
          5    1    3    3  501    0 -0.74212161516E+01 -0.44303546238E+02  0.21448341231E+02  0.50000000000E+02  0.47000000000E+01 0. -1.
         -5    1    3    3    0  501  0.74212161516E+01  0.44303546238E+02 -0.21448341231E+02  0.50000000000E+02  0.47000000000E+01 0.  1.
</event>
<event>
 5    1  0.9071520E-001  0.1000000E+03  0.7546771E-02  0.1163815E+00
         11   -1    0    0    0    0  0.00000000000E+00  0.00000000000E+00  0.50000000000E+02  0.50000000000E+02  0.00000000000E+00 0. -1.
        -11   -1    0    0    0    0 -0.00000000000E+00 -0.00000000000E+00 -0.50000000000E+02  0.50000000000E+02  0.00000000000E+00 0.  1.
         23    2    1    2    0    0  0.00000000000E+00  0.00000000000E+00  0.00000000000E+00  0.10000000000E+03  0.10000000000E+03 0.  0.
          5    1    3    3  501    0  0.95544210645E+01  0.43495554148E+02  0.22243196882E+02  0.50000000000E+02  0.47000000000E+01 0. -1.
         -5    1    3    3    0  501 -0.95544210645E+01 -0.43495554148E+02 -0.22243196882E+02  0.50000000000E+02  0.47000000000E+01 0.  1.
</event>
<event>
 5    1  0.9071520E-001  0.1000000E+03  0.7546771E-02  0.1163815E+00
         11   -1    0    0    0    0  0.00000000000E+00  0.00000000000E+00  0.50000000000E+02  0.50000000000E+02  0.00000000000E+00 0. -1.
        -11   -1    0    0    0    0 -0.00000000000E+00 -0.00000000000E+00 -0.50000000000E+02  0.50000000000E+02  0.00000000000E+00 0.  1.
         23    2    1    2    0    0  0.00000000000E+00  0.00000000000E+00  0.00000000000E+00  0.10000000000E+03  0.10000000000E+03 0.  0.
          5    1    3    3  501    0  0.49577831039E+02  0.14778878720E+01  0.42147973780E+01  0.50000000000E+02  0.47000000000E+01 0. -1.
         -5    1    3    3    0  501 -0.49577831039E+02 -0.14778878720E+01 -0.42147973780E+01  0.50000000000E+02  0.47000000000E+01 0.  1.
</event>
<event>
 5    1  0.9071520E-001  0.1000000E+03  0.7546771E-02  0.1163815E+00
         11   -1    0    0    0    0  0.00000000000E+00  0.00000000000E+00  0.50000000000E+02  0.50000000000E+02  0.00000000000E+00 0. -1.
        -11   -1    0    0    0    0 -0.00000000000E+00 -0.00000000000E+00 -0.50000000000E+02  0.50000000000E+02  0.00000000000E+00 0.  1.
         23    2    1    2    0    0  0.00000000000E+00  0.00000000000E+00  0.00000000000E+00  0.10000000000E+03  0.10000000000E+03 0.  0.
          5    1    3    3  501    0 -0.86296605314E+01  0.38808539878E+02  0.29955570295E+02  0.50000000000E+02  0.47000000000E+01 0. -1.
         -5    1    3    3    0  501  0.86296605314E+01 -0.38808539878E+02 -0.29955570295E+02  0.50000000000E+02  0.47000000000E+01 0.  1.
</event>
<event>
 5    1  0.9071520E-001  0.1000000E+03  0.7546771E-02  0.1163815E+00
         11   -1    0    0    0    0  0.00000000000E+00  0.00000000000E+00  0.50000000000E+02  0.50000000000E+02  0.00000000000E+00 0. -1.
        -11   -1    0    0    0    0 -0.00000000000E+00 -0.00000000000E+00 -0.50000000000E+02  0.50000000000E+02  0.00000000000E+00 0.  1.
         23    2    1    2    0    0  0.00000000000E+00  0.00000000000E+00  0.00000000000E+00  0.10000000000E+03  0.10000000000E+03 0.  0.
          5    1    3    3  501    0 -0.16137487696E+01  0.34223585402E+02  0.36111660404E+02  0.50000000000E+02  0.47000000000E+01 0. -1.
         -5    1    3    3    0  501  0.16137487696E+01 -0.34223585402E+02 -0.36111660404E+02  0.50000000000E+02  0.47000000000E+01 0.  1.
</event>
<event>
 5    1  0.9071520E-001  0.1000000E+03  0.7546771E-02  0.1163815E+00
         11   -1    0    0    0    0  0.00000000000E+00  0.00000000000E+00  0.50000000000E+02  0.50000000000E+02  0.00000000000E+00 0. -1.
        -11   -1    0    0    0    0 -0.00000000000E+00 -0.00000000000E+00 -0.50000000000E+02  0.50000000000E+02  0.00000000000E+00 0.  1.
         23    2    1    2    0    0  0.00000000000E+00  0.00000000000E+00  0.00000000000E+00  0.10000000000E+03  0.10000000000E+03 0.  0.
          5    1    3    3  501    0 -0.29594349570E+00  0.46080465114E+02  0.18825863919E+02  0.50000000000E+02  0.47000000000E+01 0. -1.
         -5    1    3    3    0  501  0.29594349570E+00 -0.46080465114E+02 -0.18825863919E+02  0.50000000000E+02  0.47000000000E+01 0.  1.
</event>
<event>
 5    1  0.9071520E-001  0.1000000E+03  0.7546771E-02  0.1163815E+00
         11   -1    0    0    0    0  0.00000000000E+00  0.00000000000E+00  0.50000000000E+02  0.50000000000E+02  0.00000000000E+00 0. -1.
        -11   -1    0    0    0    0 -0.00000000000E+00 -0.00000000000E+00 -0.50000000000E+02  0.50000000000E+02  0.00000000000E+00 0.  1.
         23    2    1    2    0    0  0.00000000000E+00  0.00000000000E+00  0.00000000000E+00  0.10000000000E+03  0.10000000000E+03 0.  0.
          5    1    3    3  501    0 -0.32237923942E+02  0.24022388337E+02  0.29352191034E+02  0.50000000000E+02  0.47000000000E+01 0. -1.
         -5    1    3    3    0  501  0.32237923942E+02 -0.24022388337E+02 -0.29352191034E+02  0.50000000000E+02  0.47000000000E+01 0.  1.
</event>
<event>
 5    1  0.9071520E-001  0.1000000E+03  0.7546771E-02  0.1163815E+00
         11   -1    0    0    0    0  0.00000000000E+00  0.00000000000E+00  0.50000000000E+02  0.50000000000E+02  0.00000000000E+00 0. -1.
        -11   -1    0    0    0    0 -0.00000000000E+00 -0.00000000000E+00 -0.50000000000E+02  0.50000000000E+02  0.00000000000E+00 0.  1.
         23    2    1    2    0    0  0.00000000000E+00  0.00000000000E+00  0.00000000000E+00  0.10000000000E+03  0.10000000000E+03 0.  0.
          5    1    3    3  501    0 -0.47962788815E+02  0.63449463791E+01 -0.11714202684E+02  0.50000000000E+02  0.47000000000E+01 0. -1.
         -5    1    3    3    0  501  0.47962788815E+02 -0.63449463791E+01  0.11714202684E+02  0.50000000000E+02  0.47000000000E+01 0.  1.
</event>
<event>
 5    1  0.9071520E-001  0.1000000E+03  0.7546771E-02  0.1163815E+00
         11   -1    0    0    0    0  0.00000000000E+00  0.00000000000E+00  0.50000000000E+02  0.50000000000E+02  0.00000000000E+00 0.  1.
        -11   -1    0    0    0    0 -0.00000000000E+00 -0.00000000000E+00 -0.50000000000E+02  0.50000000000E+02  0.00000000000E+00 0. -1.
         23    2    1    2    0    0  0.00000000000E+00  0.00000000000E+00  0.00000000000E+00  0.10000000000E+03  0.10000000000E+03 0.  0.
          5    1    3    3  501    0  0.14621941490E+02  0.34795605376E+02  0.32455734063E+02  0.50000000000E+02  0.47000000000E+01 0.  1.
         -5    1    3    3    0  501 -0.14621941490E+02 -0.34795605376E+02 -0.32455734063E+02  0.50000000000E+02  0.47000000000E+01 0. -1.
</event>
<event>
 5    1  0.9071520E-001  0.1000000E+03  0.7546771E-02  0.1163815E+00
         11   -1    0    0    0    0  0.00000000000E+00  0.00000000000E+00  0.50000000000E+02  0.50000000000E+02  0.00000000000E+00 0. -1.
        -11   -1    0    0    0    0 -0.00000000000E+00 -0.00000000000E+00 -0.50000000000E+02  0.50000000000E+02  0.00000000000E+00 0.  1.
         23    2    1    2    0    0  0.00000000000E+00  0.00000000000E+00  0.00000000000E+00  0.10000000000E+03  0.10000000000E+03 0.  0.
          5    1    3    3  501    0 -0.11893021428E+02  0.17235979675E+02  0.45159573137E+02  0.50000000000E+02  0.47000000000E+01 0. -1.
         -5    1    3    3    0  501  0.11893021428E+02 -0.17235979675E+02 -0.45159573137E+02  0.50000000000E+02  0.47000000000E+01 0.  1.
</event>
<event>
 5    1  0.9071520E-001  0.1000000E+03  0.7546771E-02  0.1163815E+00
         11   -1    0    0    0    0  0.00000000000E+00  0.00000000000E+00  0.50000000000E+02  0.50000000000E+02  0.00000000000E+00 0.  1.
        -11   -1    0    0    0    0 -0.00000000000E+00 -0.00000000000E+00 -0.50000000000E+02  0.50000000000E+02  0.00000000000E+00 0. -1.
         23    2    1    2    0    0  0.00000000000E+00  0.00000000000E+00  0.00000000000E+00  0.10000000000E+03  0.10000000000E+03 0.  0.
          5    1    3    3  501    0  0.27564585907E+02 -0.34194707948E+01 -0.41308725752E+02  0.50000000000E+02  0.47000000000E+01 0. -1.
         -5    1    3    3    0  501 -0.27564585907E+02  0.34194707948E+01  0.41308725752E+02  0.50000000000E+02  0.47000000000E+01 0.  1.
</event>
<event>
 5    1  0.9071520E-001  0.1000000E+03  0.7546771E-02  0.1163815E+00
         11   -1    0    0    0    0  0.00000000000E+00  0.00000000000E+00  0.50000000000E+02  0.50000000000E+02  0.00000000000E+00 0. -1.
        -11   -1    0    0    0    0 -0.00000000000E+00 -0.00000000000E+00 -0.50000000000E+02  0.50000000000E+02  0.00000000000E+00 0.  1.
         23    2    1    2    0    0  0.00000000000E+00  0.00000000000E+00  0.00000000000E+00  0.10000000000E+03  0.10000000000E+03 0.  0.
          5    1    3    3  501    0 -0.15655506988E+02  0.44745122269E+02  0.15188453973E+02  0.50000000000E+02  0.47000000000E+01 0. -1.
         -5    1    3    3    0  501  0.15655506988E+02 -0.44745122269E+02 -0.15188453973E+02  0.50000000000E+02  0.47000000000E+01 0.  1.
</event>
<event>
 5    1  0.9071520E-001  0.1000000E+03  0.7546771E-02  0.1163815E+00
         11   -1    0    0    0    0  0.00000000000E+00  0.00000000000E+00  0.50000000000E+02  0.50000000000E+02  0.00000000000E+00 0. -1.
        -11   -1    0    0    0    0 -0.00000000000E+00 -0.00000000000E+00 -0.50000000000E+02  0.50000000000E+02  0.00000000000E+00 0.  1.
         23    2    1    2    0    0  0.00000000000E+00  0.00000000000E+00  0.00000000000E+00  0.10000000000E+03  0.10000000000E+03 0.  0.
          5    1    3    3  501    0 -0.25693172135E+02  0.10870012606E+02  0.41226371797E+02  0.50000000000E+02  0.47000000000E+01 0. -1.
         -5    1    3    3    0  501  0.25693172135E+02 -0.10870012606E+02 -0.41226371797E+02  0.50000000000E+02  0.47000000000E+01 0.  1.
</event>
<event>
 5    1  0.9071520E-001  0.1000000E+03  0.7546771E-02  0.1163815E+00
         11   -1    0    0    0    0  0.00000000000E+00  0.00000000000E+00  0.50000000000E+02  0.50000000000E+02  0.00000000000E+00 0. -1.
        -11   -1    0    0    0    0 -0.00000000000E+00 -0.00000000000E+00 -0.50000000000E+02  0.50000000000E+02  0.00000000000E+00 0.  1.
         23    2    1    2    0    0  0.00000000000E+00  0.00000000000E+00  0.00000000000E+00  0.10000000000E+03  0.10000000000E+03 0.  0.
          5    1    3    3  501    0  0.56697356343E+01 -0.61756459824E+01  0.49067560511E+02  0.50000000000E+02  0.47000000000E+01 0. -1.
         -5    1    3    3    0  501 -0.56697356343E+01  0.61756459824E+01 -0.49067560511E+02  0.50000000000E+02  0.47000000000E+01 0.  1.
</event>
<event>
 5    1  0.9071520E-001  0.1000000E+03  0.7546771E-02  0.1163815E+00
         11   -1    0    0    0    0  0.00000000000E+00  0.00000000000E+00  0.50000000000E+02  0.50000000000E+02  0.00000000000E+00 0. -1.
        -11   -1    0    0    0    0 -0.00000000000E+00 -0.00000000000E+00 -0.50000000000E+02  0.50000000000E+02  0.00000000000E+00 0.  1.
         23    2    1    2    0    0  0.00000000000E+00  0.00000000000E+00  0.00000000000E+00  0.10000000000E+03  0.10000000000E+03 0.  0.
          5    1    3    3  501    0 -0.15328464921E+02  0.39617025212E+02  0.25950712448E+02  0.50000000000E+02  0.47000000000E+01 0. -1.
         -5    1    3    3    0  501  0.15328464921E+02 -0.39617025212E+02 -0.25950712448E+02  0.50000000000E+02  0.47000000000E+01 0.  1.
</event>
<event>
 5    1  0.9071520E-001  0.1000000E+03  0.7546771E-02  0.1163815E+00
         11   -1    0    0    0    0  0.00000000000E+00  0.00000000000E+00  0.50000000000E+02  0.50000000000E+02  0.00000000000E+00 0. -1.
        -11   -1    0    0    0    0 -0.00000000000E+00 -0.00000000000E+00 -0.50000000000E+02  0.50000000000E+02  0.00000000000E+00 0.  1.
         23    2    1    2    0    0  0.00000000000E+00  0.00000000000E+00  0.00000000000E+00  0.10000000000E+03  0.10000000000E+03 0.  0.
          5    1    3    3  501    0  0.15866178644E+02  0.19741193367E+02  0.42853934005E+02  0.50000000000E+02  0.47000000000E+01 0. -1.
         -5    1    3    3    0  501 -0.15866178644E+02 -0.19741193367E+02 -0.42853934005E+02  0.50000000000E+02  0.47000000000E+01 0.  1.
</event>
<event>
 5    1  0.9071520E-001  0.1000000E+03  0.7546771E-02  0.1163815E+00
         11   -1    0    0    0    0  0.00000000000E+00  0.00000000000E+00  0.50000000000E+02  0.50000000000E+02  0.00000000000E+00 0.  1.
        -11   -1    0    0    0    0 -0.00000000000E+00 -0.00000000000E+00 -0.50000000000E+02  0.50000000000E+02  0.00000000000E+00 0. -1.
         23    2    1    2    0    0  0.00000000000E+00  0.00000000000E+00  0.00000000000E+00  0.10000000000E+03  0.10000000000E+03 0.  0.
          5    1    3    3  501    0  0.28828945026E+02 -0.29585696671E+02 -0.27775681470E+02  0.50000000000E+02  0.47000000000E+01 0. -1.
         -5    1    3    3    0  501 -0.28828945026E+02  0.29585696671E+02  0.27775681470E+02  0.50000000000E+02  0.47000000000E+01 0.  1.
</event>
<event>
 5    1  0.9071520E-001  0.1000000E+03  0.7546771E-02  0.1163815E+00
         11   -1    0    0    0    0  0.00000000000E+00  0.00000000000E+00  0.50000000000E+02  0.50000000000E+02  0.00000000000E+00 0. -1.
        -11   -1    0    0    0    0 -0.00000000000E+00 -0.00000000000E+00 -0.50000000000E+02  0.50000000000E+02  0.00000000000E+00 0.  1.
         23    2    1    2    0    0  0.00000000000E+00  0.00000000000E+00  0.00000000000E+00  0.10000000000E+03  0.10000000000E+03 0.  0.
          5    1    3    3  501    0 -0.21671127277E+02 -0.23872575477E+02  0.37925880116E+02  0.50000000000E+02  0.47000000000E+01 0. -1.
         -5    1    3    3    0  501  0.21671127277E+02  0.23872575477E+02 -0.37925880116E+02  0.50000000000E+02  0.47000000000E+01 0.  1.
</event>
<event>
 5    1  0.9071520E-001  0.1000000E+03  0.7546771E-02  0.1163815E+00
         11   -1    0    0    0    0  0.00000000000E+00  0.00000000000E+00  0.50000000000E+02  0.50000000000E+02  0.00000000000E+00 0.  1.
        -11   -1    0    0    0    0 -0.00000000000E+00 -0.00000000000E+00 -0.50000000000E+02  0.50000000000E+02  0.00000000000E+00 0. -1.
         23    2    1    2    0    0  0.00000000000E+00  0.00000000000E+00  0.00000000000E+00  0.10000000000E+03  0.10000000000E+03 0.  0.
          5    1    3    3  501    0  0.30406180465E+02 -0.33165805230E+02 -0.21293274830E+02  0.50000000000E+02  0.47000000000E+01 0. -1.
         -5    1    3    3    0  501 -0.30406180465E+02  0.33165805230E+02  0.21293274830E+02  0.50000000000E+02  0.47000000000E+01 0.  1.
</event>
<event>
 5    1  0.9071520E-001  0.1000000E+03  0.7546771E-02  0.1163815E+00
         11   -1    0    0    0    0  0.00000000000E+00  0.00000000000E+00  0.50000000000E+02  0.50000000000E+02  0.00000000000E+00 0. -1.
        -11   -1    0    0    0    0 -0.00000000000E+00 -0.00000000000E+00 -0.50000000000E+02  0.50000000000E+02  0.00000000000E+00 0.  1.
         23    2    1    2    0    0  0.00000000000E+00  0.00000000000E+00  0.00000000000E+00  0.10000000000E+03  0.10000000000E+03 0.  0.
          5    1    3    3  501    0 -0.32399742087E+02  0.24896481511E+02  0.28431178679E+02  0.50000000000E+02  0.47000000000E+01 0. -1.
         -5    1    3    3    0  501  0.32399742087E+02 -0.24896481511E+02 -0.28431178679E+02  0.50000000000E+02  0.47000000000E+01 0.  1.
</event>
<event>
 5    1  0.9071520E-001  0.1000000E+03  0.7546771E-02  0.1163815E+00
         11   -1    0    0    0    0  0.00000000000E+00  0.00000000000E+00  0.50000000000E+02  0.50000000000E+02  0.00000000000E+00 0. -1.
        -11   -1    0    0    0    0 -0.00000000000E+00 -0.00000000000E+00 -0.50000000000E+02  0.50000000000E+02  0.00000000000E+00 0.  1.
         23    2    1    2    0    0  0.00000000000E+00  0.00000000000E+00  0.00000000000E+00  0.10000000000E+03  0.10000000000E+03 0.  0.
          5    1    3    3  501    0 -0.34672627366E+01  0.46573230514E+02  0.17228531236E+02  0.50000000000E+02  0.47000000000E+01 0. -1.
         -5    1    3    3    0  501  0.34672627366E+01 -0.46573230514E+02 -0.17228531236E+02  0.50000000000E+02  0.47000000000E+01 0.  1.
</event>
<event>
 5    1  0.9071520E-001  0.1000000E+03  0.7546771E-02  0.1163815E+00
         11   -1    0    0    0    0  0.00000000000E+00  0.00000000000E+00  0.50000000000E+02  0.50000000000E+02  0.00000000000E+00 0.  1.
        -11   -1    0    0    0    0 -0.00000000000E+00 -0.00000000000E+00 -0.50000000000E+02  0.50000000000E+02  0.00000000000E+00 0. -1.
         23    2    1    2    0    0  0.00000000000E+00  0.00000000000E+00  0.00000000000E+00  0.10000000000E+03  0.10000000000E+03 0.  0.
          5    1    3    3  501    0  0.12436359952E+02  0.42164476420E+01 -0.48015294651E+02  0.50000000000E+02  0.47000000000E+01 0. -1.
         -5    1    3    3    0  501 -0.12436359952E+02 -0.42164476420E+01  0.48015294651E+02  0.50000000000E+02  0.47000000000E+01 0.  1.
</event>
<event>
 5    1  0.9071520E-001  0.1000000E+03  0.7546771E-02  0.1163815E+00
         11   -1    0    0    0    0  0.00000000000E+00  0.00000000000E+00  0.50000000000E+02  0.50000000000E+02  0.00000000000E+00 0. -1.
        -11   -1    0    0    0    0 -0.00000000000E+00 -0.00000000000E+00 -0.50000000000E+02  0.50000000000E+02  0.00000000000E+00 0.  1.
         23    2    1    2    0    0  0.00000000000E+00  0.00000000000E+00  0.00000000000E+00  0.10000000000E+03  0.10000000000E+03 0.  0.
          5    1    3    3  501    0 -0.21476152677E+02 -0.21091033211E+02  0.39646603692E+02  0.50000000000E+02  0.47000000000E+01 0. -1.
         -5    1    3    3    0  501  0.21476152677E+02  0.21091033211E+02 -0.39646603692E+02  0.50000000000E+02  0.47000000000E+01 0.  1.
</event>
<event>
 5    1  0.9071520E-001  0.1000000E+03  0.7546771E-02  0.1163815E+00
         11   -1    0    0    0    0  0.00000000000E+00  0.00000000000E+00  0.50000000000E+02  0.50000000000E+02  0.00000000000E+00 0. -1.
        -11   -1    0    0    0    0 -0.00000000000E+00 -0.00000000000E+00 -0.50000000000E+02  0.50000000000E+02  0.00000000000E+00 0.  1.
         23    2    1    2    0    0  0.00000000000E+00  0.00000000000E+00  0.00000000000E+00  0.10000000000E+03  0.10000000000E+03 0.  0.
          5    1    3    3  501    0  0.95113749848E+01 -0.22254606361E+02  0.43499152194E+02  0.50000000000E+02  0.47000000000E+01 0. -1.
         -5    1    3    3    0  501 -0.95113749848E+01  0.22254606361E+02 -0.43499152194E+02  0.50000000000E+02  0.47000000000E+01 0.  1.
</event>
<event>
 5    1  0.9071520E-001  0.1000000E+03  0.7546771E-02  0.1163815E+00
         11   -1    0    0    0    0  0.00000000000E+00  0.00000000000E+00  0.50000000000E+02  0.50000000000E+02  0.00000000000E+00 0. -1.
        -11   -1    0    0    0    0 -0.00000000000E+00 -0.00000000000E+00 -0.50000000000E+02  0.50000000000E+02  0.00000000000E+00 0.  1.
         23    2    1    2    0    0  0.00000000000E+00  0.00000000000E+00  0.00000000000E+00  0.10000000000E+03  0.10000000000E+03 0.  0.
          5    1    3    3  501    0 -0.75869833318E+01 -0.43925687754E+02 -0.22155848872E+02  0.50000000000E+02  0.47000000000E+01 0. -1.
         -5    1    3    3    0  501  0.75869833318E+01  0.43925687754E+02  0.22155848872E+02  0.50000000000E+02  0.47000000000E+01 0.  1.
</event>
<event>
 5    1  0.9071520E-001  0.1000000E+03  0.7546771E-02  0.1163815E+00
         11   -1    0    0    0    0  0.00000000000E+00  0.00000000000E+00  0.50000000000E+02  0.50000000000E+02  0.00000000000E+00 0. -1.
        -11   -1    0    0    0    0 -0.00000000000E+00 -0.00000000000E+00 -0.50000000000E+02  0.50000000000E+02  0.00000000000E+00 0.  1.
         23    2    1    2    0    0  0.00000000000E+00  0.00000000000E+00  0.00000000000E+00  0.10000000000E+03  0.10000000000E+03 0.  0.
          5    1    3    3  501    0  0.47599203151E+02 -0.14471536118E+02 -0.16734699906E+01  0.50000000000E+02  0.47000000000E+01 0. -1.
         -5    1    3    3    0  501 -0.47599203151E+02  0.14471536118E+02  0.16734699906E+01  0.50000000000E+02  0.47000000000E+01 0.  1.
</event>
<event>
 5    1  0.9071520E-001  0.1000000E+03  0.7546771E-02  0.1163815E+00
         11   -1    0    0    0    0  0.00000000000E+00  0.00000000000E+00  0.50000000000E+02  0.50000000000E+02  0.00000000000E+00 0. -1.
        -11   -1    0    0    0    0 -0.00000000000E+00 -0.00000000000E+00 -0.50000000000E+02  0.50000000000E+02  0.00000000000E+00 0.  1.
         23    2    1    2    0    0  0.00000000000E+00  0.00000000000E+00  0.00000000000E+00  0.10000000000E+03  0.10000000000E+03 0.  0.
          5    1    3    3  501    0 -0.20140517492E+02 -0.26812465535E+02  0.36788058485E+02  0.50000000000E+02  0.47000000000E+01 0. -1.
         -5    1    3    3    0  501  0.20140517492E+02  0.26812465535E+02 -0.36788058485E+02  0.50000000000E+02  0.47000000000E+01 0.  1.
</event>
<event>
 5    1  0.9071520E-001  0.1000000E+03  0.7546771E-02  0.1163815E+00
         11   -1    0    0    0    0  0.00000000000E+00  0.00000000000E+00  0.50000000000E+02  0.50000000000E+02  0.00000000000E+00 0. -1.
        -11   -1    0    0    0    0 -0.00000000000E+00 -0.00000000000E+00 -0.50000000000E+02  0.50000000000E+02  0.00000000000E+00 0.  1.
         23    2    1    2    0    0  0.00000000000E+00  0.00000000000E+00  0.00000000000E+00  0.10000000000E+03  0.10000000000E+03 0.  0.
          5    1    3    3  501    0  0.43798238940E+02  0.59131789922E+01  0.22905426866E+02  0.50000000000E+02  0.47000000000E+01 0. -1.
         -5    1    3    3    0  501 -0.43798238940E+02 -0.59131789922E+01 -0.22905426866E+02  0.50000000000E+02  0.47000000000E+01 0.  1.
</event>
<event>
 5    1  0.9071520E-001  0.1000000E+03  0.7546771E-02  0.1163815E+00
         11   -1    0    0    0    0  0.00000000000E+00  0.00000000000E+00  0.50000000000E+02  0.50000000000E+02  0.00000000000E+00 0.  1.
        -11   -1    0    0    0    0 -0.00000000000E+00 -0.00000000000E+00 -0.50000000000E+02  0.50000000000E+02  0.00000000000E+00 0. -1.
         23    2    1    2    0    0  0.00000000000E+00  0.00000000000E+00  0.00000000000E+00  0.10000000000E+03  0.10000000000E+03 0.  0.
          5    1    3    3  501    0 -0.24614047070E+02  0.39155344214E+02 -0.18409717713E+02  0.50000000000E+02  0.47000000000E+01 0. -1.
         -5    1    3    3    0  501  0.24614047070E+02 -0.39155344214E+02  0.18409717713E+02  0.50000000000E+02  0.47000000000E+01 0.  1.
</event>
<event>
 5    1  0.9071520E-001  0.1000000E+03  0.7546771E-02  0.1163815E+00
         11   -1    0    0    0    0  0.00000000000E+00  0.00000000000E+00  0.50000000000E+02  0.50000000000E+02  0.00000000000E+00 0.  1.
        -11   -1    0    0    0    0 -0.00000000000E+00 -0.00000000000E+00 -0.50000000000E+02  0.50000000000E+02  0.00000000000E+00 0. -1.
         23    2    1    2    0    0  0.00000000000E+00  0.00000000000E+00  0.00000000000E+00  0.10000000000E+03  0.10000000000E+03 0.  0.
          5    1    3    3  501    0 -0.19899777939E+02  0.34726172522E+01  0.45495601627E+02  0.50000000000E+02  0.47000000000E+01 0.  1.
         -5    1    3    3    0  501  0.19899777939E+02 -0.34726172522E+01 -0.45495601627E+02  0.50000000000E+02  0.47000000000E+01 0. -1.
</event>
<event>
 5    1  0.9071520E-001  0.1000000E+03  0.7546771E-02  0.1163815E+00
         11   -1    0    0    0    0  0.00000000000E+00  0.00000000000E+00  0.50000000000E+02  0.50000000000E+02  0.00000000000E+00 0. -1.
        -11   -1    0    0    0    0 -0.00000000000E+00 -0.00000000000E+00 -0.50000000000E+02  0.50000000000E+02  0.00000000000E+00 0.  1.
         23    2    1    2    0    0  0.00000000000E+00  0.00000000000E+00  0.00000000000E+00  0.10000000000E+03  0.10000000000E+03 0.  0.
          5    1    3    3  501    0 -0.20590629304E+01 -0.49992858801E+01  0.49484112607E+02  0.50000000000E+02  0.47000000000E+01 0. -1.
         -5    1    3    3    0  501  0.20590629304E+01  0.49992858801E+01 -0.49484112607E+02  0.50000000000E+02  0.47000000000E+01 0.  1.
</event>
<event>
 5    1  0.9071520E-001  0.1000000E+03  0.7546771E-02  0.1163815E+00
         11   -1    0    0    0    0  0.00000000000E+00  0.00000000000E+00  0.50000000000E+02  0.50000000000E+02  0.00000000000E+00 0.  1.
        -11   -1    0    0    0    0 -0.00000000000E+00 -0.00000000000E+00 -0.50000000000E+02  0.50000000000E+02  0.00000000000E+00 0. -1.
         23    2    1    2    0    0  0.00000000000E+00  0.00000000000E+00  0.00000000000E+00  0.10000000000E+03  0.10000000000E+03 0.  0.
          5    1    3    3  501    0  0.40165297685E+02  0.28945675098E+02 -0.51775240205E+01  0.50000000000E+02  0.47000000000E+01 0. -1.
         -5    1    3    3    0  501 -0.40165297685E+02 -0.28945675098E+02  0.51775240205E+01  0.50000000000E+02  0.47000000000E+01 0.  1.
</event>
<event>
 5    1  0.9071520E-001  0.1000000E+03  0.7546771E-02  0.1163815E+00
         11   -1    0    0    0    0  0.00000000000E+00  0.00000000000E+00  0.50000000000E+02  0.50000000000E+02  0.00000000000E+00 0. -1.
        -11   -1    0    0    0    0 -0.00000000000E+00 -0.00000000000E+00 -0.50000000000E+02  0.50000000000E+02  0.00000000000E+00 0.  1.
         23    2    1    2    0    0  0.00000000000E+00  0.00000000000E+00  0.00000000000E+00  0.10000000000E+03  0.10000000000E+03 0.  0.
          5    1    3    3  501    0 -0.42672314214E+02 -0.12125644258E+02  0.22582124588E+02  0.50000000000E+02  0.47000000000E+01 0. -1.
         -5    1    3    3    0  501  0.42672314214E+02  0.12125644258E+02 -0.22582124588E+02  0.50000000000E+02  0.47000000000E+01 0.  1.
</event>
<event>
 5    1  0.9071520E-001  0.1000000E+03  0.7546771E-02  0.1163815E+00
         11   -1    0    0    0    0  0.00000000000E+00  0.00000000000E+00  0.50000000000E+02  0.50000000000E+02  0.00000000000E+00 0. -1.
        -11   -1    0    0    0    0 -0.00000000000E+00 -0.00000000000E+00 -0.50000000000E+02  0.50000000000E+02  0.00000000000E+00 0.  1.
         23    2    1    2    0    0  0.00000000000E+00  0.00000000000E+00  0.00000000000E+00  0.10000000000E+03  0.10000000000E+03 0.  0.
          5    1    3    3  501    0 -0.59507790679E+01  0.44183787695E+02 -0.22142518679E+02  0.50000000000E+02  0.47000000000E+01 0. -1.
         -5    1    3    3    0  501  0.59507790679E+01 -0.44183787695E+02  0.22142518679E+02  0.50000000000E+02  0.47000000000E+01 0.  1.
</event>
<event>
 5    1  0.9071520E-001  0.1000000E+03  0.7546771E-02  0.1163815E+00
         11   -1    0    0    0    0  0.00000000000E+00  0.00000000000E+00  0.50000000000E+02  0.50000000000E+02  0.00000000000E+00 0. -1.
        -11   -1    0    0    0    0 -0.00000000000E+00 -0.00000000000E+00 -0.50000000000E+02  0.50000000000E+02  0.00000000000E+00 0.  1.
         23    2    1    2    0    0  0.00000000000E+00  0.00000000000E+00  0.00000000000E+00  0.10000000000E+03  0.10000000000E+03 0.  0.
          5    1    3    3  501    0  0.11263815873E+01 -0.37296594871E+02  0.32948524634E+02  0.50000000000E+02  0.47000000000E+01 0. -1.
         -5    1    3    3    0  501 -0.11263815873E+01  0.37296594871E+02 -0.32948524634E+02  0.50000000000E+02  0.47000000000E+01 0.  1.
</event>
<event>
 5    1  0.9071520E-001  0.1000000E+03  0.7546771E-02  0.1163815E+00
         11   -1    0    0    0    0  0.00000000000E+00  0.00000000000E+00  0.50000000000E+02  0.50000000000E+02  0.00000000000E+00 0. -1.
        -11   -1    0    0    0    0 -0.00000000000E+00 -0.00000000000E+00 -0.50000000000E+02  0.50000000000E+02  0.00000000000E+00 0.  1.
         23    2    1    2    0    0  0.00000000000E+00  0.00000000000E+00  0.00000000000E+00  0.10000000000E+03  0.10000000000E+03 0.  0.
          5    1    3    3  501    0 -0.33741056140E+02 -0.41249015459E+01  0.36365317513E+02  0.50000000000E+02  0.47000000000E+01 0. -1.
         -5    1    3    3    0  501  0.33741056140E+02  0.41249015459E+01 -0.36365317513E+02  0.50000000000E+02  0.47000000000E+01 0.  1.
</event>
<event>
 5    1  0.9071520E-001  0.1000000E+03  0.7546771E-02  0.1163815E+00
         11   -1    0    0    0    0  0.00000000000E+00  0.00000000000E+00  0.50000000000E+02  0.50000000000E+02  0.00000000000E+00 0. -1.
        -11   -1    0    0    0    0 -0.00000000000E+00 -0.00000000000E+00 -0.50000000000E+02  0.50000000000E+02  0.00000000000E+00 0.  1.
         23    2    1    2    0    0  0.00000000000E+00  0.00000000000E+00  0.00000000000E+00  0.10000000000E+03  0.10000000000E+03 0.  0.
          5    1    3    3  501    0 -0.49198099986E+02 -0.75782186939E+01 -0.16600965327E+00  0.50000000000E+02  0.47000000000E+01 0. -1.
         -5    1    3    3    0  501  0.49198099986E+02  0.75782186939E+01  0.16600965327E+00  0.50000000000E+02  0.47000000000E+01 0.  1.
</event>
<event>
 5    1  0.9071520E-001  0.1000000E+03  0.7546771E-02  0.1163815E+00
         11   -1    0    0    0    0  0.00000000000E+00  0.00000000000E+00  0.50000000000E+02  0.50000000000E+02  0.00000000000E+00 0.  1.
        -11   -1    0    0    0    0 -0.00000000000E+00 -0.00000000000E+00 -0.50000000000E+02  0.50000000000E+02  0.00000000000E+00 0. -1.
         23    2    1    2    0    0  0.00000000000E+00  0.00000000000E+00  0.00000000000E+00  0.10000000000E+03  0.10000000000E+03 0.  0.
          5    1    3    3  501    0 -0.22460884248E+02 -0.31735247767E+01 -0.44309676362E+02  0.50000000000E+02  0.47000000000E+01 0. -1.
         -5    1    3    3    0  501  0.22460884248E+02  0.31735247767E+01  0.44309676362E+02  0.50000000000E+02  0.47000000000E+01 0.  1.
</event>
<event>
 5    1  0.9071520E-001  0.1000000E+03  0.7546771E-02  0.1163815E+00
         11   -1    0    0    0    0  0.00000000000E+00  0.00000000000E+00  0.50000000000E+02  0.50000000000E+02  0.00000000000E+00 0.  1.
        -11   -1    0    0    0    0 -0.00000000000E+00 -0.00000000000E+00 -0.50000000000E+02  0.50000000000E+02  0.00000000000E+00 0. -1.
         23    2    1    2    0    0  0.00000000000E+00  0.00000000000E+00  0.00000000000E+00  0.10000000000E+03  0.10000000000E+03 0.  0.
          5    1    3    3  501    0  0.27272369743E+02 -0.39274897597E+02 -0.13842336049E+02  0.50000000000E+02  0.47000000000E+01 0. -1.
         -5    1    3    3    0  501 -0.27272369743E+02  0.39274897597E+02  0.13842336049E+02  0.50000000000E+02  0.47000000000E+01 0.  1.
</event>
<event>
 5    1  0.9071520E-001  0.1000000E+03  0.7546771E-02  0.1163815E+00
         11   -1    0    0    0    0  0.00000000000E+00  0.00000000000E+00  0.50000000000E+02  0.50000000000E+02  0.00000000000E+00 0. -1.
        -11   -1    0    0    0    0 -0.00000000000E+00 -0.00000000000E+00 -0.50000000000E+02  0.50000000000E+02  0.00000000000E+00 0.  1.
         23    2    1    2    0    0  0.00000000000E+00  0.00000000000E+00  0.00000000000E+00  0.10000000000E+03  0.10000000000E+03 0.  0.
          5    1    3    3  501    0  0.46914546558E+02  0.72169385227E+00  0.16625717404E+02  0.50000000000E+02  0.47000000000E+01 0. -1.
         -5    1    3    3    0  501 -0.46914546558E+02 -0.72169385227E+00 -0.16625717404E+02  0.50000000000E+02  0.47000000000E+01 0.  1.
</event>
<event>
 5    1  0.9071520E-001  0.1000000E+03  0.7546771E-02  0.1163815E+00
         11   -1    0    0    0    0  0.00000000000E+00  0.00000000000E+00  0.50000000000E+02  0.50000000000E+02  0.00000000000E+00 0.  1.
        -11   -1    0    0    0    0 -0.00000000000E+00 -0.00000000000E+00 -0.50000000000E+02  0.50000000000E+02  0.00000000000E+00 0. -1.
         23    2    1    2    0    0  0.00000000000E+00  0.00000000000E+00  0.00000000000E+00  0.10000000000E+03  0.10000000000E+03 0.  0.
          5    1    3    3  501    0  0.20102662230E+02  0.25585186937E+02 -0.37672153916E+02  0.50000000000E+02  0.47000000000E+01 0. -1.
         -5    1    3    3    0  501 -0.20102662230E+02 -0.25585186937E+02  0.37672153916E+02  0.50000000000E+02  0.47000000000E+01 0.  1.
</event>
<event>
 5    1  0.9071520E-001  0.1000000E+03  0.7546771E-02  0.1163815E+00
         11   -1    0    0    0    0  0.00000000000E+00  0.00000000000E+00  0.50000000000E+02  0.50000000000E+02  0.00000000000E+00 0. -1.
        -11   -1    0    0    0    0 -0.00000000000E+00 -0.00000000000E+00 -0.50000000000E+02  0.50000000000E+02  0.00000000000E+00 0.  1.
         23    2    1    2    0    0  0.00000000000E+00  0.00000000000E+00  0.00000000000E+00  0.10000000000E+03  0.10000000000E+03 0.  0.
          5    1    3    3  501    0 -0.28925785892E+02  0.20536145022E+02  0.34920991655E+02  0.50000000000E+02  0.47000000000E+01 0. -1.
         -5    1    3    3    0  501  0.28925785892E+02 -0.20536145022E+02 -0.34920991655E+02  0.50000000000E+02  0.47000000000E+01 0.  1.
</event>
<event>
 5    1  0.9071520E-001  0.1000000E+03  0.7546771E-02  0.1163815E+00
         11   -1    0    0    0    0  0.00000000000E+00  0.00000000000E+00  0.50000000000E+02  0.50000000000E+02  0.00000000000E+00 0. -1.
        -11   -1    0    0    0    0 -0.00000000000E+00 -0.00000000000E+00 -0.50000000000E+02  0.50000000000E+02  0.00000000000E+00 0.  1.
         23    2    1    2    0    0  0.00000000000E+00  0.00000000000E+00  0.00000000000E+00  0.10000000000E+03  0.10000000000E+03 0.  0.
          5    1    3    3  501    0 -0.41111004617E+02 -0.18539909354E+02 -0.21072898721E+02  0.50000000000E+02  0.47000000000E+01 0. -1.
         -5    1    3    3    0  501  0.41111004617E+02  0.18539909354E+02  0.21072898721E+02  0.50000000000E+02  0.47000000000E+01 0.  1.
</event>
<event>
 5    1  0.9071520E-001  0.1000000E+03  0.7546771E-02  0.1163815E+00
         11   -1    0    0    0    0  0.00000000000E+00  0.00000000000E+00  0.50000000000E+02  0.50000000000E+02  0.00000000000E+00 0. -1.
        -11   -1    0    0    0    0 -0.00000000000E+00 -0.00000000000E+00 -0.50000000000E+02  0.50000000000E+02  0.00000000000E+00 0.  1.
         23    2    1    2    0    0  0.00000000000E+00  0.00000000000E+00  0.00000000000E+00  0.10000000000E+03  0.10000000000E+03 0.  0.
          5    1    3    3  501    0  0.38012604753E+02 -0.31986914106E+02 -0.31287706645E+01  0.50000000000E+02  0.47000000000E+01 0. -1.
         -5    1    3    3    0  501 -0.38012604753E+02  0.31986914106E+02  0.31287706645E+01  0.50000000000E+02  0.47000000000E+01 0.  1.
</event>
<event>
 5    1  0.9071520E-001  0.1000000E+03  0.7546771E-02  0.1163815E+00
         11   -1    0    0    0    0  0.00000000000E+00  0.00000000000E+00  0.50000000000E+02  0.50000000000E+02  0.00000000000E+00 0. -1.
        -11   -1    0    0    0    0 -0.00000000000E+00 -0.00000000000E+00 -0.50000000000E+02  0.50000000000E+02  0.00000000000E+00 0.  1.
         23    2    1    2    0    0  0.00000000000E+00  0.00000000000E+00  0.00000000000E+00  0.10000000000E+03  0.10000000000E+03 0.  0.
          5    1    3    3  501    0  0.45109758033E+02 -0.19849918163E+02 -0.70000342215E+01  0.50000000000E+02  0.47000000000E+01 0. -1.
         -5    1    3    3    0  501 -0.45109758033E+02  0.19849918163E+02  0.70000342215E+01  0.50000000000E+02  0.47000000000E+01 0.  1.
</event>
<event>
 5    1  0.9071520E-001  0.1000000E+03  0.7546771E-02  0.1163815E+00
         11   -1    0    0    0    0  0.00000000000E+00  0.00000000000E+00  0.50000000000E+02  0.50000000000E+02  0.00000000000E+00 0. -1.
        -11   -1    0    0    0    0 -0.00000000000E+00 -0.00000000000E+00 -0.50000000000E+02  0.50000000000E+02  0.00000000000E+00 0.  1.
         23    2    1    2    0    0  0.00000000000E+00  0.00000000000E+00  0.00000000000E+00  0.10000000000E+03  0.10000000000E+03 0.  0.
          5    1    3    3  501    0  0.45883797219E+02  0.92150439740E+01  0.16960840701E+02  0.50000000000E+02  0.47000000000E+01 0. -1.
         -5    1    3    3    0  501 -0.45883797219E+02 -0.92150439740E+01 -0.16960840701E+02  0.50000000000E+02  0.47000000000E+01 0.  1.
</event>
<event>
 5    1  0.9071520E-001  0.1000000E+03  0.7546771E-02  0.1163815E+00
         11   -1    0    0    0    0  0.00000000000E+00  0.00000000000E+00  0.50000000000E+02  0.50000000000E+02  0.00000000000E+00 0.  1.
        -11   -1    0    0    0    0 -0.00000000000E+00 -0.00000000000E+00 -0.50000000000E+02  0.50000000000E+02  0.00000000000E+00 0. -1.
         23    2    1    2    0    0  0.00000000000E+00  0.00000000000E+00  0.00000000000E+00  0.10000000000E+03  0.10000000000E+03 0.  0.
          5    1    3    3  501    0  0.17285343617E+02 -0.29160201177E+02 -0.36452840264E+02  0.50000000000E+02  0.47000000000E+01 0. -1.
         -5    1    3    3    0  501 -0.17285343617E+02  0.29160201177E+02  0.36452840264E+02  0.50000000000E+02  0.47000000000E+01 0.  1.
</event>
<event>
 5    1  0.9071520E-001  0.1000000E+03  0.7546771E-02  0.1163815E+00
         11   -1    0    0    0    0  0.00000000000E+00  0.00000000000E+00  0.50000000000E+02  0.50000000000E+02  0.00000000000E+00 0.  1.
        -11   -1    0    0    0    0 -0.00000000000E+00 -0.00000000000E+00 -0.50000000000E+02  0.50000000000E+02  0.00000000000E+00 0. -1.
         23    2    1    2    0    0  0.00000000000E+00  0.00000000000E+00  0.00000000000E+00  0.10000000000E+03  0.10000000000E+03 0.  0.
          5    1    3    3  501    0 -0.32594105349E+02  0.23139865968E+02 -0.29666157478E+02  0.50000000000E+02  0.47000000000E+01 0. -1.
         -5    1    3    3    0  501  0.32594105349E+02 -0.23139865968E+02  0.29666157478E+02  0.50000000000E+02  0.47000000000E+01 0.  1.
</event>
<event>
 5    1  0.9071520E-001  0.1000000E+03  0.7546771E-02  0.1163815E+00
         11   -1    0    0    0    0  0.00000000000E+00  0.00000000000E+00  0.50000000000E+02  0.50000000000E+02  0.00000000000E+00 0. -1.
        -11   -1    0    0    0    0 -0.00000000000E+00 -0.00000000000E+00 -0.50000000000E+02  0.50000000000E+02  0.00000000000E+00 0.  1.
         23    2    1    2    0    0  0.00000000000E+00  0.00000000000E+00  0.00000000000E+00  0.10000000000E+03  0.10000000000E+03 0.  0.
          5    1    3    3  501    0 -0.12681053710E+02  0.35976515785E+02  0.31981106747E+02  0.50000000000E+02  0.47000000000E+01 0. -1.
         -5    1    3    3    0  501  0.12681053710E+02 -0.35976515785E+02 -0.31981106747E+02  0.50000000000E+02  0.47000000000E+01 0.  1.
</event>
<event>
 5    1  0.9071520E-001  0.1000000E+03  0.7546771E-02  0.1163815E+00
         11   -1    0    0    0    0  0.00000000000E+00  0.00000000000E+00  0.50000000000E+02  0.50000000000E+02  0.00000000000E+00 0. -1.
        -11   -1    0    0    0    0 -0.00000000000E+00 -0.00000000000E+00 -0.50000000000E+02  0.50000000000E+02  0.00000000000E+00 0.  1.
         23    2    1    2    0    0  0.00000000000E+00  0.00000000000E+00  0.00000000000E+00  0.10000000000E+03  0.10000000000E+03 0.  0.
          5    1    3    3  501    0 -0.24803272973E+02 -0.96593622582E+01  0.42064288543E+02  0.50000000000E+02  0.47000000000E+01 0. -1.
         -5    1    3    3    0  501  0.24803272973E+02  0.96593622582E+01 -0.42064288543E+02  0.50000000000E+02  0.47000000000E+01 0.  1.
</event>
<event>
 5    1  0.9071520E-001  0.1000000E+03  0.7546771E-02  0.1163815E+00
         11   -1    0    0    0    0  0.00000000000E+00  0.00000000000E+00  0.50000000000E+02  0.50000000000E+02  0.00000000000E+00 0. -1.
        -11   -1    0    0    0    0 -0.00000000000E+00 -0.00000000000E+00 -0.50000000000E+02  0.50000000000E+02  0.00000000000E+00 0.  1.
         23    2    1    2    0    0  0.00000000000E+00  0.00000000000E+00  0.00000000000E+00  0.10000000000E+03  0.10000000000E+03 0.  0.
          5    1    3    3  501    0  0.18876158213E+02 -0.42812521246E+02  0.16990840935E+02  0.50000000000E+02  0.47000000000E+01 0. -1.
         -5    1    3    3    0  501 -0.18876158213E+02  0.42812521246E+02 -0.16990840935E+02  0.50000000000E+02  0.47000000000E+01 0.  1.
</event>
<event>
 5    1  0.9071520E-001  0.1000000E+03  0.7546771E-02  0.1163815E+00
         11   -1    0    0    0    0  0.00000000000E+00  0.00000000000E+00  0.50000000000E+02  0.50000000000E+02  0.00000000000E+00 0.  1.
        -11   -1    0    0    0    0 -0.00000000000E+00 -0.00000000000E+00 -0.50000000000E+02  0.50000000000E+02  0.00000000000E+00 0. -1.
         23    2    1    2    0    0  0.00000000000E+00  0.00000000000E+00  0.00000000000E+00  0.10000000000E+03  0.10000000000E+03 0.  0.
          5    1    3    3  501    0  0.45419207062E+00  0.11831216966E+02  0.48350036346E+02  0.50000000000E+02  0.47000000000E+01 0.  1.
         -5    1    3    3    0  501 -0.45419207062E+00 -0.11831216966E+02 -0.48350036346E+02  0.50000000000E+02  0.47000000000E+01 0. -1.
</event>
<event>
 5    1  0.9071520E-001  0.1000000E+03  0.7546771E-02  0.1163815E+00
         11   -1    0    0    0    0  0.00000000000E+00  0.00000000000E+00  0.50000000000E+02  0.50000000000E+02  0.00000000000E+00 0.  1.
        -11   -1    0    0    0    0 -0.00000000000E+00 -0.00000000000E+00 -0.50000000000E+02  0.50000000000E+02  0.00000000000E+00 0. -1.
         23    2    1    2    0    0  0.00000000000E+00  0.00000000000E+00  0.00000000000E+00  0.10000000000E+03  0.10000000000E+03 0.  0.
          5    1    3    3  501    0  0.20260087647E+02 -0.33884818293E+02 -0.30319266775E+02  0.50000000000E+02  0.47000000000E+01 0. -1.
         -5    1    3    3    0  501 -0.20260087647E+02  0.33884818293E+02  0.30319266775E+02  0.50000000000E+02  0.47000000000E+01 0.  1.
</event>
<event>
 5    1  0.9071520E-001  0.1000000E+03  0.7546771E-02  0.1163815E+00
         11   -1    0    0    0    0  0.00000000000E+00  0.00000000000E+00  0.50000000000E+02  0.50000000000E+02  0.00000000000E+00 0. -1.
        -11   -1    0    0    0    0 -0.00000000000E+00 -0.00000000000E+00 -0.50000000000E+02  0.50000000000E+02  0.00000000000E+00 0.  1.
         23    2    1    2    0    0  0.00000000000E+00  0.00000000000E+00  0.00000000000E+00  0.10000000000E+03  0.10000000000E+03 0.  0.
          5    1    3    3  501    0 -0.10468156097E+01 -0.40486481008E+02  0.28942339793E+02  0.50000000000E+02  0.47000000000E+01 0. -1.
         -5    1    3    3    0  501  0.10468156097E+01  0.40486481008E+02 -0.28942339793E+02  0.50000000000E+02  0.47000000000E+01 0.  1.
</event>
<event>
 5    1  0.9071520E-001  0.1000000E+03  0.7546771E-02  0.1163815E+00
         11   -1    0    0    0    0  0.00000000000E+00  0.00000000000E+00  0.50000000000E+02  0.50000000000E+02  0.00000000000E+00 0. -1.
        -11   -1    0    0    0    0 -0.00000000000E+00 -0.00000000000E+00 -0.50000000000E+02  0.50000000000E+02  0.00000000000E+00 0.  1.
         23    2    1    2    0    0  0.00000000000E+00  0.00000000000E+00  0.00000000000E+00  0.10000000000E+03  0.10000000000E+03 0.  0.
          5    1    3    3  501    0 -0.43390954530E+02 -0.24315786239E+02  0.19691634143E+01  0.50000000000E+02  0.47000000000E+01 0. -1.
         -5    1    3    3    0  501  0.43390954530E+02  0.24315786239E+02 -0.19691634143E+01  0.50000000000E+02  0.47000000000E+01 0.  1.
</event>
<event>
 5    1  0.9071520E-001  0.1000000E+03  0.7546771E-02  0.1163815E+00
         11   -1    0    0    0    0  0.00000000000E+00  0.00000000000E+00  0.50000000000E+02  0.50000000000E+02  0.00000000000E+00 0. -1.
        -11   -1    0    0    0    0 -0.00000000000E+00 -0.00000000000E+00 -0.50000000000E+02  0.50000000000E+02  0.00000000000E+00 0.  1.
         23    2    1    2    0    0  0.00000000000E+00  0.00000000000E+00  0.00000000000E+00  0.10000000000E+03  0.10000000000E+03 0.  0.
          5    1    3    3  501    0 -0.23520427579E+02  0.28123270918E+01  0.43781163790E+02  0.50000000000E+02  0.47000000000E+01 0. -1.
         -5    1    3    3    0  501  0.23520427579E+02 -0.28123270918E+01 -0.43781163790E+02  0.50000000000E+02  0.47000000000E+01 0.  1.
</event>
<event>
 5    1  0.9071520E-001  0.1000000E+03  0.7546771E-02  0.1163815E+00
         11   -1    0    0    0    0  0.00000000000E+00  0.00000000000E+00  0.50000000000E+02  0.50000000000E+02  0.00000000000E+00 0. -1.
        -11   -1    0    0    0    0 -0.00000000000E+00 -0.00000000000E+00 -0.50000000000E+02  0.50000000000E+02  0.00000000000E+00 0.  1.
         23    2    1    2    0    0  0.00000000000E+00  0.00000000000E+00  0.00000000000E+00  0.10000000000E+03  0.10000000000E+03 0.  0.
          5    1    3    3  501    0  0.31612056790E+01  0.36570440112E+02  0.33623201643E+02  0.50000000000E+02  0.47000000000E+01 0. -1.
         -5    1    3    3    0  501 -0.31612056790E+01 -0.36570440112E+02 -0.33623201643E+02  0.50000000000E+02  0.47000000000E+01 0.  1.
</event>
<event>
 5    1  0.9071520E-001  0.1000000E+03  0.7546771E-02  0.1163815E+00
         11   -1    0    0    0    0  0.00000000000E+00  0.00000000000E+00  0.50000000000E+02  0.50000000000E+02  0.00000000000E+00 0. -1.
        -11   -1    0    0    0    0 -0.00000000000E+00 -0.00000000000E+00 -0.50000000000E+02  0.50000000000E+02  0.00000000000E+00 0.  1.
         23    2    1    2    0    0  0.00000000000E+00  0.00000000000E+00  0.00000000000E+00  0.10000000000E+03  0.10000000000E+03 0.  0.
          5    1    3    3  501    0 -0.19384836788E+02 -0.15282658273E+02  0.43227057022E+02  0.50000000000E+02  0.47000000000E+01 0. -1.
         -5    1    3    3    0  501  0.19384836788E+02  0.15282658273E+02 -0.43227057022E+02  0.50000000000E+02  0.47000000000E+01 0.  1.
</event>
<event>
 5    1  0.9071520E-001  0.1000000E+03  0.7546771E-02  0.1163815E+00
         11   -1    0    0    0    0  0.00000000000E+00  0.00000000000E+00  0.50000000000E+02  0.50000000000E+02  0.00000000000E+00 0.  1.
        -11   -1    0    0    0    0 -0.00000000000E+00 -0.00000000000E+00 -0.50000000000E+02  0.50000000000E+02  0.00000000000E+00 0. -1.
         23    2    1    2    0    0  0.00000000000E+00  0.00000000000E+00  0.00000000000E+00  0.10000000000E+03  0.10000000000E+03 0.  0.
          5    1    3    3  501    0  0.42865291682E+02 -0.16941739643E+01 -0.25250872136E+02  0.50000000000E+02  0.47000000000E+01 0. -1.
         -5    1    3    3    0  501 -0.42865291682E+02  0.16941739643E+01  0.25250872136E+02  0.50000000000E+02  0.47000000000E+01 0.  1.
</event>
<event>
 5    1  0.9071520E-001  0.1000000E+03  0.7546771E-02  0.1163815E+00
         11   -1    0    0    0    0  0.00000000000E+00  0.00000000000E+00  0.50000000000E+02  0.50000000000E+02  0.00000000000E+00 0. -1.
        -11   -1    0    0    0    0 -0.00000000000E+00 -0.00000000000E+00 -0.50000000000E+02  0.50000000000E+02  0.00000000000E+00 0.  1.
         23    2    1    2    0    0  0.00000000000E+00  0.00000000000E+00  0.00000000000E+00  0.10000000000E+03  0.10000000000E+03 0.  0.
          5    1    3    3  501    0 -0.38912229439E+02 -0.30564533198E+02  0.54367003285E+01  0.50000000000E+02  0.47000000000E+01 0. -1.
         -5    1    3    3    0  501  0.38912229439E+02  0.30564533198E+02 -0.54367003285E+01  0.50000000000E+02  0.47000000000E+01 0.  1.
</event>
<event>
 5    1  0.9071520E-001  0.1000000E+03  0.7546771E-02  0.1163815E+00
         11   -1    0    0    0    0  0.00000000000E+00  0.00000000000E+00  0.50000000000E+02  0.50000000000E+02  0.00000000000E+00 0. -1.
        -11   -1    0    0    0    0 -0.00000000000E+00 -0.00000000000E+00 -0.50000000000E+02  0.50000000000E+02  0.00000000000E+00 0.  1.
         23    2    1    2    0    0  0.00000000000E+00  0.00000000000E+00  0.00000000000E+00  0.10000000000E+03  0.10000000000E+03 0.  0.
          5    1    3    3  501    0  0.26352052650E+02  0.10528596918E+02  0.40897774610E+02  0.50000000000E+02  0.47000000000E+01 0. -1.
         -5    1    3    3    0  501 -0.26352052650E+02 -0.10528596918E+02 -0.40897774610E+02  0.50000000000E+02  0.47000000000E+01 0.  1.
</event>
<event>
 5    1  0.9071520E-001  0.1000000E+03  0.7546771E-02  0.1163815E+00
         11   -1    0    0    0    0  0.00000000000E+00  0.00000000000E+00  0.50000000000E+02  0.50000000000E+02  0.00000000000E+00 0. -1.
        -11   -1    0    0    0    0 -0.00000000000E+00 -0.00000000000E+00 -0.50000000000E+02  0.50000000000E+02  0.00000000000E+00 0.  1.
         23    2    1    2    0    0  0.00000000000E+00  0.00000000000E+00  0.00000000000E+00  0.10000000000E+03  0.10000000000E+03 0.  0.
          5    1    3    3  501    0 -0.25161133308E+02 -0.25898151998E+02  0.34265333703E+02  0.50000000000E+02  0.47000000000E+01 0. -1.
         -5    1    3    3    0  501  0.25161133308E+02  0.25898151998E+02 -0.34265333703E+02  0.50000000000E+02  0.47000000000E+01 0.  1.
</event>
<event>
 5    1  0.9071520E-001  0.1000000E+03  0.7546771E-02  0.1163815E+00
         11   -1    0    0    0    0  0.00000000000E+00  0.00000000000E+00  0.50000000000E+02  0.50000000000E+02  0.00000000000E+00 0. -1.
        -11   -1    0    0    0    0 -0.00000000000E+00 -0.00000000000E+00 -0.50000000000E+02  0.50000000000E+02  0.00000000000E+00 0.  1.
         23    2    1    2    0    0  0.00000000000E+00  0.00000000000E+00  0.00000000000E+00  0.10000000000E+03  0.10000000000E+03 0.  0.
          5    1    3    3  501    0 -0.18403187234E+02 -0.43961710847E+02  0.14373610508E+02  0.50000000000E+02  0.47000000000E+01 0. -1.
         -5    1    3    3    0  501  0.18403187234E+02  0.43961710847E+02 -0.14373610508E+02  0.50000000000E+02  0.47000000000E+01 0.  1.
</event>
<event>
 5    1  0.9071520E-001  0.1000000E+03  0.7546771E-02  0.1163815E+00
         11   -1    0    0    0    0  0.00000000000E+00  0.00000000000E+00  0.50000000000E+02  0.50000000000E+02  0.00000000000E+00 0.  1.
        -11   -1    0    0    0    0 -0.00000000000E+00 -0.00000000000E+00 -0.50000000000E+02  0.50000000000E+02  0.00000000000E+00 0. -1.
         23    2    1    2    0    0  0.00000000000E+00  0.00000000000E+00  0.00000000000E+00  0.10000000000E+03  0.10000000000E+03 0.  0.
          5    1    3    3  501    0 -0.24473118267E+02  0.37258093928E+02 -0.22154252846E+02  0.50000000000E+02  0.47000000000E+01 0. -1.
         -5    1    3    3    0  501  0.24473118267E+02 -0.37258093928E+02  0.22154252846E+02  0.50000000000E+02  0.47000000000E+01 0.  1.
</event>
<event>
 5    1  0.9071520E-001  0.1000000E+03  0.7546771E-02  0.1163815E+00
         11   -1    0    0    0    0  0.00000000000E+00  0.00000000000E+00  0.50000000000E+02  0.50000000000E+02  0.00000000000E+00 0. -1.
        -11   -1    0    0    0    0 -0.00000000000E+00 -0.00000000000E+00 -0.50000000000E+02  0.50000000000E+02  0.00000000000E+00 0.  1.
         23    2    1    2    0    0  0.00000000000E+00  0.00000000000E+00  0.00000000000E+00  0.10000000000E+03  0.10000000000E+03 0.  0.
          5    1    3    3  501    0  0.40385575473E+02  0.55146146171E+01  0.28574539705E+02  0.50000000000E+02  0.47000000000E+01 0. -1.
         -5    1    3    3    0  501 -0.40385575473E+02 -0.55146146171E+01 -0.28574539705E+02  0.50000000000E+02  0.47000000000E+01 0.  1.
</event>
<event>
 5    1  0.9071520E-001  0.1000000E+03  0.7546771E-02  0.1163815E+00
         11   -1    0    0    0    0  0.00000000000E+00  0.00000000000E+00  0.50000000000E+02  0.50000000000E+02  0.00000000000E+00 0.  1.
        -11   -1    0    0    0    0 -0.00000000000E+00 -0.00000000000E+00 -0.50000000000E+02  0.50000000000E+02  0.00000000000E+00 0. -1.
         23    2    1    2    0    0  0.00000000000E+00  0.00000000000E+00  0.00000000000E+00  0.10000000000E+03  0.10000000000E+03 0.  0.
          5    1    3    3  501    0 -0.12517311987E+02 -0.14223142999E+02 -0.46031827075E+02  0.50000000000E+02  0.47000000000E+01 0. -1.
         -5    1    3    3    0  501  0.12517311987E+02  0.14223142999E+02  0.46031827075E+02  0.50000000000E+02  0.47000000000E+01 0.  1.
</event>
<event>
 5    1  0.9071520E-001  0.1000000E+03  0.7546771E-02  0.1163815E+00
         11   -1    0    0    0    0  0.00000000000E+00  0.00000000000E+00  0.50000000000E+02  0.50000000000E+02  0.00000000000E+00 0.  1.
        -11   -1    0    0    0    0 -0.00000000000E+00 -0.00000000000E+00 -0.50000000000E+02  0.50000000000E+02  0.00000000000E+00 0. -1.
         23    2    1    2    0    0  0.00000000000E+00  0.00000000000E+00  0.00000000000E+00  0.10000000000E+03  0.10000000000E+03 0.  0.
          5    1    3    3  501    0  0.95703653488E+01  0.35420211654E+02 -0.33641146138E+02  0.50000000000E+02  0.47000000000E+01 0. -1.
         -5    1    3    3    0  501 -0.95703653488E+01 -0.35420211654E+02  0.33641146138E+02  0.50000000000E+02  0.47000000000E+01 0.  1.
</event>
<event>
 5    1  0.9071520E-001  0.1000000E+03  0.7546771E-02  0.1163815E+00
         11   -1    0    0    0    0  0.00000000000E+00  0.00000000000E+00  0.50000000000E+02  0.50000000000E+02  0.00000000000E+00 0. -1.
        -11   -1    0    0    0    0 -0.00000000000E+00 -0.00000000000E+00 -0.50000000000E+02  0.50000000000E+02  0.00000000000E+00 0.  1.
         23    2    1    2    0    0  0.00000000000E+00  0.00000000000E+00  0.00000000000E+00  0.10000000000E+03  0.10000000000E+03 0.  0.
          5    1    3    3  501    0  0.26392492545E+02 -0.11244232603E+02  0.40680628933E+02  0.50000000000E+02  0.47000000000E+01 0. -1.
         -5    1    3    3    0  501 -0.26392492545E+02  0.11244232603E+02 -0.40680628933E+02  0.50000000000E+02  0.47000000000E+01 0.  1.
</event>
<event>
 5    1  0.9071520E-001  0.1000000E+03  0.7546771E-02  0.1163815E+00
         11   -1    0    0    0    0  0.00000000000E+00  0.00000000000E+00  0.50000000000E+02  0.50000000000E+02  0.00000000000E+00 0. -1.
        -11   -1    0    0    0    0 -0.00000000000E+00 -0.00000000000E+00 -0.50000000000E+02  0.50000000000E+02  0.00000000000E+00 0.  1.
         23    2    1    2    0    0  0.00000000000E+00  0.00000000000E+00  0.00000000000E+00  0.10000000000E+03  0.10000000000E+03 0.  0.
          5    1    3    3  501    0 -0.31663421339E+02 -0.15445786767E+01  0.38379057125E+02  0.50000000000E+02  0.47000000000E+01 0. -1.
         -5    1    3    3    0  501  0.31663421339E+02  0.15445786767E+01 -0.38379057125E+02  0.50000000000E+02  0.47000000000E+01 0.  1.
</event>
<event>
 5    1  0.9071520E-001  0.1000000E+03  0.7546771E-02  0.1163815E+00
         11   -1    0    0    0    0  0.00000000000E+00  0.00000000000E+00  0.50000000000E+02  0.50000000000E+02  0.00000000000E+00 0.  1.
        -11   -1    0    0    0    0 -0.00000000000E+00 -0.00000000000E+00 -0.50000000000E+02  0.50000000000E+02  0.00000000000E+00 0. -1.
         23    2    1    2    0    0  0.00000000000E+00  0.00000000000E+00  0.00000000000E+00  0.10000000000E+03  0.10000000000E+03 0.  0.
          5    1    3    3  501    0  0.40405065112E+02 -0.29044889539E+02  0.13172338540E+01  0.50000000000E+02  0.47000000000E+01 0. -1.
         -5    1    3    3    0  501 -0.40405065112E+02  0.29044889539E+02 -0.13172338540E+01  0.50000000000E+02  0.47000000000E+01 0.  1.
</event>
<event>
 5    1  0.9071520E-001  0.1000000E+03  0.7546771E-02  0.1163815E+00
         11   -1    0    0    0    0  0.00000000000E+00  0.00000000000E+00  0.50000000000E+02  0.50000000000E+02  0.00000000000E+00 0. -1.
        -11   -1    0    0    0    0 -0.00000000000E+00 -0.00000000000E+00 -0.50000000000E+02  0.50000000000E+02  0.00000000000E+00 0.  1.
         23    2    1    2    0    0  0.00000000000E+00  0.00000000000E+00  0.00000000000E+00  0.10000000000E+03  0.10000000000E+03 0.  0.
          5    1    3    3  501    0  0.28021796450E+02 -0.48706907074E+01  0.40852971688E+02  0.50000000000E+02  0.47000000000E+01 0. -1.
         -5    1    3    3    0  501 -0.28021796450E+02  0.48706907074E+01 -0.40852971688E+02  0.50000000000E+02  0.47000000000E+01 0.  1.
</event>
<event>
 5    1  0.9071520E-001  0.1000000E+03  0.7546771E-02  0.1163815E+00
         11   -1    0    0    0    0  0.00000000000E+00  0.00000000000E+00  0.50000000000E+02  0.50000000000E+02  0.00000000000E+00 0. -1.
        -11   -1    0    0    0    0 -0.00000000000E+00 -0.00000000000E+00 -0.50000000000E+02  0.50000000000E+02  0.00000000000E+00 0.  1.
         23    2    1    2    0    0  0.00000000000E+00  0.00000000000E+00  0.00000000000E+00  0.10000000000E+03  0.10000000000E+03 0.  0.
          5    1    3    3  501    0 -0.32991105267E+02  0.21036543346E+02  0.30772728467E+02  0.50000000000E+02  0.47000000000E+01 0. -1.
         -5    1    3    3    0  501  0.32991105267E+02 -0.21036543346E+02 -0.30772728467E+02  0.50000000000E+02  0.47000000000E+01 0.  1.
</event>
<event>
 5    1  0.9071520E-001  0.1000000E+03  0.7546771E-02  0.1163815E+00
         11   -1    0    0    0    0  0.00000000000E+00  0.00000000000E+00  0.50000000000E+02  0.50000000000E+02  0.00000000000E+00 0.  1.
        -11   -1    0    0    0    0 -0.00000000000E+00 -0.00000000000E+00 -0.50000000000E+02  0.50000000000E+02  0.00000000000E+00 0. -1.
         23    2    1    2    0    0  0.00000000000E+00  0.00000000000E+00  0.00000000000E+00  0.10000000000E+03  0.10000000000E+03 0.  0.
          5    1    3    3  501    0 -0.35909783702E+02  0.19254031002E+02 -0.28595099661E+02  0.50000000000E+02  0.47000000000E+01 0. -1.
         -5    1    3    3    0  501  0.35909783702E+02 -0.19254031002E+02  0.28595099661E+02  0.50000000000E+02  0.47000000000E+01 0.  1.
</event>
<event>
 5    1  0.9071520E-001  0.1000000E+03  0.7546771E-02  0.1163815E+00
         11   -1    0    0    0    0  0.00000000000E+00  0.00000000000E+00  0.50000000000E+02  0.50000000000E+02  0.00000000000E+00 0. -1.
        -11   -1    0    0    0    0 -0.00000000000E+00 -0.00000000000E+00 -0.50000000000E+02  0.50000000000E+02  0.00000000000E+00 0.  1.
         23    2    1    2    0    0  0.00000000000E+00  0.00000000000E+00  0.00000000000E+00  0.10000000000E+03  0.10000000000E+03 0.  0.
          5    1    3    3  501    0 -0.30531837922E+02  0.38364717544E+02 -0.85944936377E+01  0.50000000000E+02  0.47000000000E+01 0. -1.
         -5    1    3    3    0  501  0.30531837922E+02 -0.38364717544E+02  0.85944936377E+01  0.50000000000E+02  0.47000000000E+01 0.  1.
</event>
<event>
 5    1  0.9071520E-001  0.1000000E+03  0.7546771E-02  0.1163815E+00
         11   -1    0    0    0    0  0.00000000000E+00  0.00000000000E+00  0.50000000000E+02  0.50000000000E+02  0.00000000000E+00 0. -1.
        -11   -1    0    0    0    0 -0.00000000000E+00 -0.00000000000E+00 -0.50000000000E+02  0.50000000000E+02  0.00000000000E+00 0.  1.
         23    2    1    2    0    0  0.00000000000E+00  0.00000000000E+00  0.00000000000E+00  0.10000000000E+03  0.10000000000E+03 0.  0.
          5    1    3    3  501    0  0.30700024431E+02  0.19800598370E+02  0.33813529898E+02  0.50000000000E+02  0.47000000000E+01 0. -1.
         -5    1    3    3    0  501 -0.30700024431E+02 -0.19800598370E+02 -0.33813529898E+02  0.50000000000E+02  0.47000000000E+01 0.  1.
</event>
<event>
 5    1  0.9071520E-001  0.1000000E+03  0.7546771E-02  0.1163815E+00
         11   -1    0    0    0    0  0.00000000000E+00  0.00000000000E+00  0.50000000000E+02  0.50000000000E+02  0.00000000000E+00 0. -1.
        -11   -1    0    0    0    0 -0.00000000000E+00 -0.00000000000E+00 -0.50000000000E+02  0.50000000000E+02  0.00000000000E+00 0.  1.
         23    2    1    2    0    0  0.00000000000E+00  0.00000000000E+00  0.00000000000E+00  0.10000000000E+03  0.10000000000E+03 0.  0.
          5    1    3    3  501    0  0.28214892583E+02 -0.29175357271E+02  0.28820623946E+02  0.50000000000E+02  0.47000000000E+01 0. -1.
         -5    1    3    3    0  501 -0.28214892583E+02  0.29175357271E+02 -0.28820623946E+02  0.50000000000E+02  0.47000000000E+01 0.  1.
</event>
<event>
 5    1  0.9071520E-001  0.1000000E+03  0.7546771E-02  0.1163815E+00
         11   -1    0    0    0    0  0.00000000000E+00  0.00000000000E+00  0.50000000000E+02  0.50000000000E+02  0.00000000000E+00 0.  1.
        -11   -1    0    0    0    0 -0.00000000000E+00 -0.00000000000E+00 -0.50000000000E+02  0.50000000000E+02  0.00000000000E+00 0. -1.
         23    2    1    2    0    0  0.00000000000E+00  0.00000000000E+00  0.00000000000E+00  0.10000000000E+03  0.10000000000E+03 0.  0.
          5    1    3    3  501    0  0.43548420512E+02  0.21528556673E+02  0.10861230065E+02  0.50000000000E+02  0.47000000000E+01 0. -1.
         -5    1    3    3    0  501 -0.43548420512E+02 -0.21528556673E+02 -0.10861230065E+02  0.50000000000E+02  0.47000000000E+01 0.  1.
</event>
<event>
 5    1  0.9071520E-001  0.1000000E+03  0.7546771E-02  0.1163815E+00
         11   -1    0    0    0    0  0.00000000000E+00  0.00000000000E+00  0.50000000000E+02  0.50000000000E+02  0.00000000000E+00 0. -1.
        -11   -1    0    0    0    0 -0.00000000000E+00 -0.00000000000E+00 -0.50000000000E+02  0.50000000000E+02  0.00000000000E+00 0.  1.
         23    2    1    2    0    0  0.00000000000E+00  0.00000000000E+00  0.00000000000E+00  0.10000000000E+03  0.10000000000E+03 0.  0.
          5    1    3    3  501    0 -0.76854389855E+01 -0.39712943586E+02 -0.29012516942E+02  0.50000000000E+02  0.47000000000E+01 0. -1.
         -5    1    3    3    0  501  0.76854389855E+01  0.39712943586E+02  0.29012516942E+02  0.50000000000E+02  0.47000000000E+01 0.  1.
</event>
<event>
 5    1  0.9071520E-001  0.1000000E+03  0.7546771E-02  0.1163815E+00
         11   -1    0    0    0    0  0.00000000000E+00  0.00000000000E+00  0.50000000000E+02  0.50000000000E+02  0.00000000000E+00 0. -1.
        -11   -1    0    0    0    0 -0.00000000000E+00 -0.00000000000E+00 -0.50000000000E+02  0.50000000000E+02  0.00000000000E+00 0.  1.
         23    2    1    2    0    0  0.00000000000E+00  0.00000000000E+00  0.00000000000E+00  0.10000000000E+03  0.10000000000E+03 0.  0.
          5    1    3    3  501    0  0.10878922616E+02 -0.28663476523E+02  0.39216886112E+02  0.50000000000E+02  0.47000000000E+01 0. -1.
         -5    1    3    3    0  501 -0.10878922616E+02  0.28663476523E+02 -0.39216886112E+02  0.50000000000E+02  0.47000000000E+01 0.  1.
</event>
<event>
 5    1  0.9071520E-001  0.1000000E+03  0.7546771E-02  0.1163815E+00
         11   -1    0    0    0    0  0.00000000000E+00  0.00000000000E+00  0.50000000000E+02  0.50000000000E+02  0.00000000000E+00 0. -1.
        -11   -1    0    0    0    0 -0.00000000000E+00 -0.00000000000E+00 -0.50000000000E+02  0.50000000000E+02  0.00000000000E+00 0.  1.
         23    2    1    2    0    0  0.00000000000E+00  0.00000000000E+00  0.00000000000E+00  0.10000000000E+03  0.10000000000E+03 0.  0.
          5    1    3    3  501    0 -0.96883525064E+01  0.45913618832E+02  0.16612809258E+02  0.50000000000E+02  0.47000000000E+01 0. -1.
         -5    1    3    3    0  501  0.96883525064E+01 -0.45913618832E+02 -0.16612809258E+02  0.50000000000E+02  0.47000000000E+01 0.  1.
</event>
<event>
 5    1  0.9071520E-001  0.1000000E+03  0.7546771E-02  0.1163815E+00
         11   -1    0    0    0    0  0.00000000000E+00  0.00000000000E+00  0.50000000000E+02  0.50000000000E+02  0.00000000000E+00 0.  1.
        -11   -1    0    0    0    0 -0.00000000000E+00 -0.00000000000E+00 -0.50000000000E+02  0.50000000000E+02  0.00000000000E+00 0. -1.
         23    2    1    2    0    0  0.00000000000E+00  0.00000000000E+00  0.00000000000E+00  0.10000000000E+03  0.10000000000E+03 0.  0.
          5    1    3    3  501    0 -0.39921979611E+02  0.22760466456E+02 -0.19133915194E+02  0.50000000000E+02  0.47000000000E+01 0. -1.
         -5    1    3    3    0  501  0.39921979611E+02 -0.22760466456E+02  0.19133915194E+02  0.50000000000E+02  0.47000000000E+01 0.  1.
</event>
<event>
 5    1  0.9071520E-001  0.1000000E+03  0.7546771E-02  0.1163815E+00
         11   -1    0    0    0    0  0.00000000000E+00  0.00000000000E+00  0.50000000000E+02  0.50000000000E+02  0.00000000000E+00 0. -1.
        -11   -1    0    0    0    0 -0.00000000000E+00 -0.00000000000E+00 -0.50000000000E+02  0.50000000000E+02  0.00000000000E+00 0.  1.
         23    2    1    2    0    0  0.00000000000E+00  0.00000000000E+00  0.00000000000E+00  0.10000000000E+03  0.10000000000E+03 0.  0.
          5    1    3    3  501    0  0.27965928615E+02  0.10380349609E+02  0.39850535488E+02  0.50000000000E+02  0.47000000000E+01 0. -1.
         -5    1    3    3    0  501 -0.27965928615E+02 -0.10380349609E+02 -0.39850535488E+02  0.50000000000E+02  0.47000000000E+01 0.  1.
</event>
<event>
 5    1  0.9071520E-001  0.1000000E+03  0.7546771E-02  0.1163815E+00
         11   -1    0    0    0    0  0.00000000000E+00  0.00000000000E+00  0.50000000000E+02  0.50000000000E+02  0.00000000000E+00 0. -1.
        -11   -1    0    0    0    0 -0.00000000000E+00 -0.00000000000E+00 -0.50000000000E+02  0.50000000000E+02  0.00000000000E+00 0.  1.
         23    2    1    2    0    0  0.00000000000E+00  0.00000000000E+00  0.00000000000E+00  0.10000000000E+03  0.10000000000E+03 0.  0.
          5    1    3    3  501    0 -0.48783072035E+02 -0.31933841506E+01  0.93767894571E+01  0.50000000000E+02  0.47000000000E+01 0. -1.
         -5    1    3    3    0  501  0.48783072035E+02  0.31933841506E+01 -0.93767894571E+01  0.50000000000E+02  0.47000000000E+01 0.  1.
</event>
<event>
 5    1  0.9071520E-001  0.1000000E+03  0.7546771E-02  0.1163815E+00
         11   -1    0    0    0    0  0.00000000000E+00  0.00000000000E+00  0.50000000000E+02  0.50000000000E+02  0.00000000000E+00 0. -1.
        -11   -1    0    0    0    0 -0.00000000000E+00 -0.00000000000E+00 -0.50000000000E+02  0.50000000000E+02  0.00000000000E+00 0.  1.
         23    2    1    2    0    0  0.00000000000E+00  0.00000000000E+00  0.00000000000E+00  0.10000000000E+03  0.10000000000E+03 0.  0.
          5    1    3    3  501    0  0.27795364369E+02 -0.39912383445E+02  0.10598554963E+02  0.50000000000E+02  0.47000000000E+01 0. -1.
         -5    1    3    3    0  501 -0.27795364369E+02  0.39912383445E+02 -0.10598554963E+02  0.50000000000E+02  0.47000000000E+01 0.  1.
</event>
<event>
 5    1  0.9071520E-001  0.1000000E+03  0.7546771E-02  0.1163815E+00
         11   -1    0    0    0    0  0.00000000000E+00  0.00000000000E+00  0.50000000000E+02  0.50000000000E+02  0.00000000000E+00 0.  1.
        -11   -1    0    0    0    0 -0.00000000000E+00 -0.00000000000E+00 -0.50000000000E+02  0.50000000000E+02  0.00000000000E+00 0. -1.
         23    2    1    2    0    0  0.00000000000E+00  0.00000000000E+00  0.00000000000E+00  0.10000000000E+03  0.10000000000E+03 0.  0.
          5    1    3    3  501    0 -0.20709172111E+02 -0.38414959804E+02 -0.23944332392E+02  0.50000000000E+02  0.47000000000E+01 0. -1.
         -5    1    3    3    0  501  0.20709172111E+02  0.38414959804E+02  0.23944332392E+02  0.50000000000E+02  0.47000000000E+01 0.  1.
</event>
<event>
 5    1  0.9071520E-001  0.1000000E+03  0.7546771E-02  0.1163815E+00
         11   -1    0    0    0    0  0.00000000000E+00  0.00000000000E+00  0.50000000000E+02  0.50000000000E+02  0.00000000000E+00 0. -1.
        -11   -1    0    0    0    0 -0.00000000000E+00 -0.00000000000E+00 -0.50000000000E+02  0.50000000000E+02  0.00000000000E+00 0.  1.
         23    2    1    2    0    0  0.00000000000E+00  0.00000000000E+00  0.00000000000E+00  0.10000000000E+03  0.10000000000E+03 0.  0.
          5    1    3    3  501    0 -0.22495939942E+02 -0.35417580558E+02  0.26785027040E+02  0.50000000000E+02  0.47000000000E+01 0. -1.
         -5    1    3    3    0  501  0.22495939942E+02  0.35417580558E+02 -0.26785027040E+02  0.50000000000E+02  0.47000000000E+01 0.  1.
</event>
<event>
 5    1  0.9071520E-001  0.1000000E+03  0.7546771E-02  0.1163815E+00
         11   -1    0    0    0    0  0.00000000000E+00  0.00000000000E+00  0.50000000000E+02  0.50000000000E+02  0.00000000000E+00 0. -1.
        -11   -1    0    0    0    0 -0.00000000000E+00 -0.00000000000E+00 -0.50000000000E+02  0.50000000000E+02  0.00000000000E+00 0.  1.
         23    2    1    2    0    0  0.00000000000E+00  0.00000000000E+00  0.00000000000E+00  0.10000000000E+03  0.10000000000E+03 0.  0.
          5    1    3    3  501    0  0.25571729493E+02  0.48965703555E+01  0.42426645513E+02  0.50000000000E+02  0.47000000000E+01 0. -1.
         -5    1    3    3    0  501 -0.25571729493E+02 -0.48965703555E+01 -0.42426645513E+02  0.50000000000E+02  0.47000000000E+01 0.  1.
</event>
<event>
 5    1  0.9071520E-001  0.1000000E+03  0.7546771E-02  0.1163815E+00
         11   -1    0    0    0    0  0.00000000000E+00  0.00000000000E+00  0.50000000000E+02  0.50000000000E+02  0.00000000000E+00 0. -1.
        -11   -1    0    0    0    0 -0.00000000000E+00 -0.00000000000E+00 -0.50000000000E+02  0.50000000000E+02  0.00000000000E+00 0.  1.
         23    2    1    2    0    0  0.00000000000E+00  0.00000000000E+00  0.00000000000E+00  0.10000000000E+03  0.10000000000E+03 0.  0.
          5    1    3    3  501    0  0.14815191089E+02  0.30797903612E+02  0.36192668403E+02  0.50000000000E+02  0.47000000000E+01 0. -1.
         -5    1    3    3    0  501 -0.14815191089E+02 -0.30797903612E+02 -0.36192668403E+02  0.50000000000E+02  0.47000000000E+01 0.  1.
</event>
<event>
 5    1  0.9071520E-001  0.1000000E+03  0.7546771E-02  0.1163815E+00
         11   -1    0    0    0    0  0.00000000000E+00  0.00000000000E+00  0.50000000000E+02  0.50000000000E+02  0.00000000000E+00 0. -1.
        -11   -1    0    0    0    0 -0.00000000000E+00 -0.00000000000E+00 -0.50000000000E+02  0.50000000000E+02  0.00000000000E+00 0.  1.
         23    2    1    2    0    0  0.00000000000E+00  0.00000000000E+00  0.00000000000E+00  0.10000000000E+03  0.10000000000E+03 0.  0.
          5    1    3    3  501    0  0.29387449896E+02 -0.35906582906E+02  0.18027897621E+02  0.50000000000E+02  0.47000000000E+01 0. -1.
         -5    1    3    3    0  501 -0.29387449896E+02  0.35906582906E+02 -0.18027897621E+02  0.50000000000E+02  0.47000000000E+01 0.  1.
</event>
<event>
 5    1  0.9071520E-001  0.1000000E+03  0.7546771E-02  0.1163815E+00
         11   -1    0    0    0    0  0.00000000000E+00  0.00000000000E+00  0.50000000000E+02  0.50000000000E+02  0.00000000000E+00 0.  1.
        -11   -1    0    0    0    0 -0.00000000000E+00 -0.00000000000E+00 -0.50000000000E+02  0.50000000000E+02  0.00000000000E+00 0. -1.
         23    2    1    2    0    0  0.00000000000E+00  0.00000000000E+00  0.00000000000E+00  0.10000000000E+03  0.10000000000E+03 0.  0.
          5    1    3    3  501    0  0.86222059475E+01 -0.18883310274E+02 -0.45243653231E+02  0.50000000000E+02  0.47000000000E+01 0. -1.
         -5    1    3    3    0  501 -0.86222059475E+01  0.18883310274E+02  0.45243653231E+02  0.50000000000E+02  0.47000000000E+01 0.  1.
</event>
<event>
 5    1  0.9071520E-001  0.1000000E+03  0.7546771E-02  0.1163815E+00
         11   -1    0    0    0    0  0.00000000000E+00  0.00000000000E+00  0.50000000000E+02  0.50000000000E+02  0.00000000000E+00 0. -1.
        -11   -1    0    0    0    0 -0.00000000000E+00 -0.00000000000E+00 -0.50000000000E+02  0.50000000000E+02  0.00000000000E+00 0.  1.
         23    2    1    2    0    0  0.00000000000E+00  0.00000000000E+00  0.00000000000E+00  0.10000000000E+03  0.10000000000E+03 0.  0.
          5    1    3    3  501    0  0.29754829734E+02  0.31972610532E+02  0.23881211931E+02  0.50000000000E+02  0.47000000000E+01 0. -1.
         -5    1    3    3    0  501 -0.29754829734E+02 -0.31972610532E+02 -0.23881211931E+02  0.50000000000E+02  0.47000000000E+01 0.  1.
</event>
<event>
 5    1  0.9071520E-001  0.1000000E+03  0.7546771E-02  0.1163815E+00
         11   -1    0    0    0    0  0.00000000000E+00  0.00000000000E+00  0.50000000000E+02  0.50000000000E+02  0.00000000000E+00 0. -1.
        -11   -1    0    0    0    0 -0.00000000000E+00 -0.00000000000E+00 -0.50000000000E+02  0.50000000000E+02  0.00000000000E+00 0.  1.
         23    2    1    2    0    0  0.00000000000E+00  0.00000000000E+00  0.00000000000E+00  0.10000000000E+03  0.10000000000E+03 0.  0.
          5    1    3    3  501    0  0.44656944148E+02 -0.53703676733E+01  0.21326661492E+02  0.50000000000E+02  0.47000000000E+01 0. -1.
         -5    1    3    3    0  501 -0.44656944148E+02  0.53703676733E+01 -0.21326661492E+02  0.50000000000E+02  0.47000000000E+01 0.  1.
</event>
<event>
 5    1  0.9071520E-001  0.1000000E+03  0.7546771E-02  0.1163815E+00
         11   -1    0    0    0    0  0.00000000000E+00  0.00000000000E+00  0.50000000000E+02  0.50000000000E+02  0.00000000000E+00 0. -1.
        -11   -1    0    0    0    0 -0.00000000000E+00 -0.00000000000E+00 -0.50000000000E+02  0.50000000000E+02  0.00000000000E+00 0.  1.
         23    2    1    2    0    0  0.00000000000E+00  0.00000000000E+00  0.00000000000E+00  0.10000000000E+03  0.10000000000E+03 0.  0.
          5    1    3    3  501    0 -0.12486553723E+02  0.22312015872E+00  0.48186576902E+02  0.50000000000E+02  0.47000000000E+01 0. -1.
         -5    1    3    3    0  501  0.12486553723E+02 -0.22312015872E+00 -0.48186576902E+02  0.50000000000E+02  0.47000000000E+01 0.  1.
</event>
<event>
 5    1  0.9071520E-001  0.1000000E+03  0.7546771E-02  0.1163815E+00
         11   -1    0    0    0    0  0.00000000000E+00  0.00000000000E+00  0.50000000000E+02  0.50000000000E+02  0.00000000000E+00 0. -1.
        -11   -1    0    0    0    0 -0.00000000000E+00 -0.00000000000E+00 -0.50000000000E+02  0.50000000000E+02  0.00000000000E+00 0.  1.
         23    2    1    2    0    0  0.00000000000E+00  0.00000000000E+00  0.00000000000E+00  0.10000000000E+03  0.10000000000E+03 0.  0.
          5    1    3    3  501    0  0.15752898672E+02 -0.52543657972E+00  0.47217370743E+02  0.50000000000E+02  0.47000000000E+01 0. -1.
         -5    1    3    3    0  501 -0.15752898672E+02  0.52543657972E+00 -0.47217370743E+02  0.50000000000E+02  0.47000000000E+01 0.  1.
</event>
<event>
 5    1  0.9071520E-001  0.1000000E+03  0.7546771E-02  0.1163815E+00
         11   -1    0    0    0    0  0.00000000000E+00  0.00000000000E+00  0.50000000000E+02  0.50000000000E+02  0.00000000000E+00 0.  1.
        -11   -1    0    0    0    0 -0.00000000000E+00 -0.00000000000E+00 -0.50000000000E+02  0.50000000000E+02  0.00000000000E+00 0. -1.
         23    2    1    2    0    0  0.00000000000E+00  0.00000000000E+00  0.00000000000E+00  0.10000000000E+03  0.10000000000E+03 0.  0.
          5    1    3    3  501    0 -0.90222611624E+00 -0.13543725221E+01  0.49752001599E+02  0.50000000000E+02  0.47000000000E+01 0.  1.
         -5    1    3    3    0  501  0.90222611624E+00  0.13543725221E+01 -0.49752001599E+02  0.50000000000E+02  0.47000000000E+01 0. -1.
</event>
<event>
 5    1  0.9071520E-001  0.1000000E+03  0.7546771E-02  0.1163815E+00
         11   -1    0    0    0    0  0.00000000000E+00  0.00000000000E+00  0.50000000000E+02  0.50000000000E+02  0.00000000000E+00 0. -1.
        -11   -1    0    0    0    0 -0.00000000000E+00 -0.00000000000E+00 -0.50000000000E+02  0.50000000000E+02  0.00000000000E+00 0.  1.
         23    2    1    2    0    0  0.00000000000E+00  0.00000000000E+00  0.00000000000E+00  0.10000000000E+03  0.10000000000E+03 0.  0.
          5    1    3    3  501    0  0.33562021473E+02  0.21109549486E+02  0.30097967293E+02  0.50000000000E+02  0.47000000000E+01 0. -1.
         -5    1    3    3    0  501 -0.33562021473E+02 -0.21109549486E+02 -0.30097967293E+02  0.50000000000E+02  0.47000000000E+01 0.  1.
</event>
<event>
 5    1  0.9071520E-001  0.1000000E+03  0.7546771E-02  0.1163815E+00
         11   -1    0    0    0    0  0.00000000000E+00  0.00000000000E+00  0.50000000000E+02  0.50000000000E+02  0.00000000000E+00 0. -1.
        -11   -1    0    0    0    0 -0.00000000000E+00 -0.00000000000E+00 -0.50000000000E+02  0.50000000000E+02  0.00000000000E+00 0.  1.
         23    2    1    2    0    0  0.00000000000E+00  0.00000000000E+00  0.00000000000E+00  0.10000000000E+03  0.10000000000E+03 0.  0.
          5    1    3    3  501    0 -0.35391555056E+02 -0.31268074313E+02  0.15737069597E+02  0.50000000000E+02  0.47000000000E+01 0. -1.
         -5    1    3    3    0  501  0.35391555056E+02  0.31268074313E+02 -0.15737069597E+02  0.50000000000E+02  0.47000000000E+01 0.  1.
</event>
<event>
 5    1  0.9071520E-001  0.1000000E+03  0.7546771E-02  0.1163815E+00
         11   -1    0    0    0    0  0.00000000000E+00  0.00000000000E+00  0.50000000000E+02  0.50000000000E+02  0.00000000000E+00 0.  1.
        -11   -1    0    0    0    0 -0.00000000000E+00 -0.00000000000E+00 -0.50000000000E+02  0.50000000000E+02  0.00000000000E+00 0. -1.
         23    2    1    2    0    0  0.00000000000E+00  0.00000000000E+00  0.00000000000E+00  0.10000000000E+03  0.10000000000E+03 0.  0.
          5    1    3    3  501    0 -0.78875117193E+01 -0.66534892904E+01 -0.48697312443E+02  0.50000000000E+02  0.47000000000E+01 0. -1.
         -5    1    3    3    0  501  0.78875117193E+01  0.66534892904E+01  0.48697312443E+02  0.50000000000E+02  0.47000000000E+01 0.  1.
</event>
<event>
 5    1  0.9071520E-001  0.1000000E+03  0.7546771E-02  0.1163815E+00
         11   -1    0    0    0    0  0.00000000000E+00  0.00000000000E+00  0.50000000000E+02  0.50000000000E+02  0.00000000000E+00 0. -1.
        -11   -1    0    0    0    0 -0.00000000000E+00 -0.00000000000E+00 -0.50000000000E+02  0.50000000000E+02  0.00000000000E+00 0.  1.
         23    2    1    2    0    0  0.00000000000E+00  0.00000000000E+00  0.00000000000E+00  0.10000000000E+03  0.10000000000E+03 0.  0.
          5    1    3    3  501    0  0.20883865283E+02 -0.25862814997E+02  0.37052516396E+02  0.50000000000E+02  0.47000000000E+01 0. -1.
         -5    1    3    3    0  501 -0.20883865283E+02  0.25862814997E+02 -0.37052516396E+02  0.50000000000E+02  0.47000000000E+01 0.  1.
</event>
<event>
 5    1  0.9071520E-001  0.1000000E+03  0.7546771E-02  0.1163815E+00
         11   -1    0    0    0    0  0.00000000000E+00  0.00000000000E+00  0.50000000000E+02  0.50000000000E+02  0.00000000000E+00 0. -1.
        -11   -1    0    0    0    0 -0.00000000000E+00 -0.00000000000E+00 -0.50000000000E+02  0.50000000000E+02  0.00000000000E+00 0.  1.
         23    2    1    2    0    0  0.00000000000E+00  0.00000000000E+00  0.00000000000E+00  0.10000000000E+03  0.10000000000E+03 0.  0.
          5    1    3    3  501    0  0.12557413512E+01  0.26409298705E+02  0.42176795227E+02  0.50000000000E+02  0.47000000000E+01 0. -1.
         -5    1    3    3    0  501 -0.12557413512E+01 -0.26409298705E+02 -0.42176795227E+02  0.50000000000E+02  0.47000000000E+01 0.  1.
</event>
<event>
 5    1  0.9071520E-001  0.1000000E+03  0.7546771E-02  0.1163815E+00
         11   -1    0    0    0    0  0.00000000000E+00  0.00000000000E+00  0.50000000000E+02  0.50000000000E+02  0.00000000000E+00 0. -1.
        -11   -1    0    0    0    0 -0.00000000000E+00 -0.00000000000E+00 -0.50000000000E+02  0.50000000000E+02  0.00000000000E+00 0.  1.
         23    2    1    2    0    0  0.00000000000E+00  0.00000000000E+00  0.00000000000E+00  0.10000000000E+03  0.10000000000E+03 0.  0.
          5    1    3    3  501    0 -0.89430052967E+01 -0.21317236288E+02  0.44085236682E+02  0.50000000000E+02  0.47000000000E+01 0. -1.
         -5    1    3    3    0  501  0.89430052967E+01  0.21317236288E+02 -0.44085236682E+02  0.50000000000E+02  0.47000000000E+01 0.  1.
</event>
<event>
 5    1  0.9071520E-001  0.1000000E+03  0.7546771E-02  0.1163815E+00
         11   -1    0    0    0    0  0.00000000000E+00  0.00000000000E+00  0.50000000000E+02  0.50000000000E+02  0.00000000000E+00 0.  1.
        -11   -1    0    0    0    0 -0.00000000000E+00 -0.00000000000E+00 -0.50000000000E+02  0.50000000000E+02  0.00000000000E+00 0. -1.
         23    2    1    2    0    0  0.00000000000E+00  0.00000000000E+00  0.00000000000E+00  0.10000000000E+03  0.10000000000E+03 0.  0.
          5    1    3    3  501    0 -0.24657905729E+02 -0.22476732100E+02 -0.36941767678E+02  0.50000000000E+02  0.47000000000E+01 0. -1.
         -5    1    3    3    0  501  0.24657905729E+02  0.22476732100E+02  0.36941767678E+02  0.50000000000E+02  0.47000000000E+01 0.  1.
</event>
<event>
 5    1  0.9071520E-001  0.1000000E+03  0.7546771E-02  0.1163815E+00
         11   -1    0    0    0    0  0.00000000000E+00  0.00000000000E+00  0.50000000000E+02  0.50000000000E+02  0.00000000000E+00 0. -1.
        -11   -1    0    0    0    0 -0.00000000000E+00 -0.00000000000E+00 -0.50000000000E+02  0.50000000000E+02  0.00000000000E+00 0.  1.
         23    2    1    2    0    0  0.00000000000E+00  0.00000000000E+00  0.00000000000E+00  0.10000000000E+03  0.10000000000E+03 0.  0.
          5    1    3    3  501    0 -0.37562653657E+02  0.24293774023E+02  0.21835054246E+02  0.50000000000E+02  0.47000000000E+01 0. -1.
         -5    1    3    3    0  501  0.37562653657E+02 -0.24293774023E+02 -0.21835054246E+02  0.50000000000E+02  0.47000000000E+01 0.  1.
</event>
<event>
 5    1  0.9071520E-001  0.1000000E+03  0.7546771E-02  0.1163815E+00
         11   -1    0    0    0    0  0.00000000000E+00  0.00000000000E+00  0.50000000000E+02  0.50000000000E+02  0.00000000000E+00 0.  1.
        -11   -1    0    0    0    0 -0.00000000000E+00 -0.00000000000E+00 -0.50000000000E+02  0.50000000000E+02  0.00000000000E+00 0. -1.
         23    2    1    2    0    0  0.00000000000E+00  0.00000000000E+00  0.00000000000E+00  0.10000000000E+03  0.10000000000E+03 0.  0.
          5    1    3    3  501    0  0.49568649192E+02 -0.30977713237E+01  0.33560140167E+01  0.50000000000E+02  0.47000000000E+01 0. -1.
         -5    1    3    3    0  501 -0.49568649192E+02  0.30977713237E+01 -0.33560140167E+01  0.50000000000E+02  0.47000000000E+01 0.  1.
</event>
<event>
 5    1  0.9071520E-001  0.1000000E+03  0.7546771E-02  0.1163815E+00
         11   -1    0    0    0    0  0.00000000000E+00  0.00000000000E+00  0.50000000000E+02  0.50000000000E+02  0.00000000000E+00 0.  1.
        -11   -1    0    0    0    0 -0.00000000000E+00 -0.00000000000E+00 -0.50000000000E+02  0.50000000000E+02  0.00000000000E+00 0. -1.
         23    2    1    2    0    0  0.00000000000E+00  0.00000000000E+00  0.00000000000E+00  0.10000000000E+03  0.10000000000E+03 0.  0.
          5    1    3    3  501    0  0.39023060791E+02  0.12662788172E+02 -0.28191568282E+02  0.50000000000E+02  0.47000000000E+01 0. -1.
         -5    1    3    3    0  501 -0.39023060791E+02 -0.12662788172E+02  0.28191568282E+02  0.50000000000E+02  0.47000000000E+01 0.  1.
</event>
<event>
 5    1  0.9071520E-001  0.1000000E+03  0.7546771E-02  0.1163815E+00
         11   -1    0    0    0    0  0.00000000000E+00  0.00000000000E+00  0.50000000000E+02  0.50000000000E+02  0.00000000000E+00 0. -1.
        -11   -1    0    0    0    0 -0.00000000000E+00 -0.00000000000E+00 -0.50000000000E+02  0.50000000000E+02  0.00000000000E+00 0.  1.
         23    2    1    2    0    0  0.00000000000E+00  0.00000000000E+00  0.00000000000E+00  0.10000000000E+03  0.10000000000E+03 0.  0.
          5    1    3    3  501    0  0.46904189498E+02  0.42681050659E+01  0.16114908832E+02  0.50000000000E+02  0.47000000000E+01 0. -1.
         -5    1    3    3    0  501 -0.46904189498E+02 -0.42681050659E+01 -0.16114908832E+02  0.50000000000E+02  0.47000000000E+01 0.  1.
</event>
<event>
 5    1  0.9071520E-001  0.1000000E+03  0.7546771E-02  0.1163815E+00
         11   -1    0    0    0    0  0.00000000000E+00  0.00000000000E+00  0.50000000000E+02  0.50000000000E+02  0.00000000000E+00 0.  1.
        -11   -1    0    0    0    0 -0.00000000000E+00 -0.00000000000E+00 -0.50000000000E+02  0.50000000000E+02  0.00000000000E+00 0. -1.
         23    2    1    2    0    0  0.00000000000E+00  0.00000000000E+00  0.00000000000E+00  0.10000000000E+03  0.10000000000E+03 0.  0.
          5    1    3    3  501    0  0.76232035054E+01 -0.64492603395E+01 -0.48766831037E+02  0.50000000000E+02  0.47000000000E+01 0. -1.
         -5    1    3    3    0  501 -0.76232035054E+01  0.64492603395E+01  0.48766831037E+02  0.50000000000E+02  0.47000000000E+01 0.  1.
</event>
<event>
 5    1  0.9071520E-001  0.1000000E+03  0.7546771E-02  0.1163815E+00
         11   -1    0    0    0    0  0.00000000000E+00  0.00000000000E+00  0.50000000000E+02  0.50000000000E+02  0.00000000000E+00 0.  1.
        -11   -1    0    0    0    0 -0.00000000000E+00 -0.00000000000E+00 -0.50000000000E+02  0.50000000000E+02  0.00000000000E+00 0. -1.
         23    2    1    2    0    0  0.00000000000E+00  0.00000000000E+00  0.00000000000E+00  0.10000000000E+03  0.10000000000E+03 0.  0.
          5    1    3    3  501    0  0.16123321414E+02  0.44608836530E+02 -0.15099675824E+02  0.50000000000E+02  0.47000000000E+01 0. -1.
         -5    1    3    3    0  501 -0.16123321414E+02 -0.44608836530E+02  0.15099675824E+02  0.50000000000E+02  0.47000000000E+01 0.  1.
</event>
<event>
 5    1  0.9071520E-001  0.1000000E+03  0.7546771E-02  0.1163815E+00
         11   -1    0    0    0    0  0.00000000000E+00  0.00000000000E+00  0.50000000000E+02  0.50000000000E+02  0.00000000000E+00 0.  1.
        -11   -1    0    0    0    0 -0.00000000000E+00 -0.00000000000E+00 -0.50000000000E+02  0.50000000000E+02  0.00000000000E+00 0. -1.
         23    2    1    2    0    0  0.00000000000E+00  0.00000000000E+00  0.00000000000E+00  0.10000000000E+03  0.10000000000E+03 0.  0.
          5    1    3    3  501    0  0.30538212926E+02 -0.12846612334E+02 -0.37152282606E+02  0.50000000000E+02  0.47000000000E+01 0. -1.
         -5    1    3    3    0  501 -0.30538212926E+02  0.12846612334E+02  0.37152282606E+02  0.50000000000E+02  0.47000000000E+01 0.  1.
</event>
<event>
 5    1  0.9071520E-001  0.1000000E+03  0.7546771E-02  0.1163815E+00
         11   -1    0    0    0    0  0.00000000000E+00  0.00000000000E+00  0.50000000000E+02  0.50000000000E+02  0.00000000000E+00 0. -1.
        -11   -1    0    0    0    0 -0.00000000000E+00 -0.00000000000E+00 -0.50000000000E+02  0.50000000000E+02  0.00000000000E+00 0.  1.
         23    2    1    2    0    0  0.00000000000E+00  0.00000000000E+00  0.00000000000E+00  0.10000000000E+03  0.10000000000E+03 0.  0.
          5    1    3    3  501    0 -0.13018665621E+02 -0.32468799973E+02  0.35414705615E+02  0.50000000000E+02  0.47000000000E+01 0. -1.
         -5    1    3    3    0  501  0.13018665621E+02  0.32468799973E+02 -0.35414705615E+02  0.50000000000E+02  0.47000000000E+01 0.  1.
</event>
<event>
 5    1  0.9071520E-001  0.1000000E+03  0.7546771E-02  0.1163815E+00
         11   -1    0    0    0    0  0.00000000000E+00  0.00000000000E+00  0.50000000000E+02  0.50000000000E+02  0.00000000000E+00 0. -1.
        -11   -1    0    0    0    0 -0.00000000000E+00 -0.00000000000E+00 -0.50000000000E+02  0.50000000000E+02  0.00000000000E+00 0.  1.
         23    2    1    2    0    0  0.00000000000E+00  0.00000000000E+00  0.00000000000E+00  0.10000000000E+03  0.10000000000E+03 0.  0.
          5    1    3    3  501    0  0.15887386738E+02 -0.29848554163E+02  0.36531695239E+02  0.50000000000E+02  0.47000000000E+01 0. -1.
         -5    1    3    3    0  501 -0.15887386738E+02  0.29848554163E+02 -0.36531695239E+02  0.50000000000E+02  0.47000000000E+01 0.  1.
</event>
<event>
 5    1  0.9071520E-001  0.1000000E+03  0.7546771E-02  0.1163815E+00
         11   -1    0    0    0    0  0.00000000000E+00  0.00000000000E+00  0.50000000000E+02  0.50000000000E+02  0.00000000000E+00 0.  1.
        -11   -1    0    0    0    0 -0.00000000000E+00 -0.00000000000E+00 -0.50000000000E+02  0.50000000000E+02  0.00000000000E+00 0. -1.
         23    2    1    2    0    0  0.00000000000E+00  0.00000000000E+00  0.00000000000E+00  0.10000000000E+03  0.10000000000E+03 0.  0.
          5    1    3    3  501    0 -0.27210655620E+01 -0.49356246437E+02 -0.58708380908E+01  0.50000000000E+02  0.47000000000E+01 0.  1.
         -5    1    3    3    0  501  0.27210655620E+01  0.49356246437E+02  0.58708380908E+01  0.50000000000E+02  0.47000000000E+01 0. -1.
</event>
<event>
 5    1  0.9071520E-001  0.1000000E+03  0.7546771E-02  0.1163815E+00
         11   -1    0    0    0    0  0.00000000000E+00  0.00000000000E+00  0.50000000000E+02  0.50000000000E+02  0.00000000000E+00 0. -1.
        -11   -1    0    0    0    0 -0.00000000000E+00 -0.00000000000E+00 -0.50000000000E+02  0.50000000000E+02  0.00000000000E+00 0.  1.
         23    2    1    2    0    0  0.00000000000E+00  0.00000000000E+00  0.00000000000E+00  0.10000000000E+03  0.10000000000E+03 0.  0.
          5    1    3    3  501    0 -0.37154699708E+02 -0.22465472954E+02 -0.24346269007E+02  0.50000000000E+02  0.47000000000E+01 0. -1.
         -5    1    3    3    0  501  0.37154699708E+02  0.22465472954E+02  0.24346269007E+02  0.50000000000E+02  0.47000000000E+01 0.  1.
</event>
<event>
 5    1  0.9071520E-001  0.1000000E+03  0.7546771E-02  0.1163815E+00
         11   -1    0    0    0    0  0.00000000000E+00  0.00000000000E+00  0.50000000000E+02  0.50000000000E+02  0.00000000000E+00 0. -1.
        -11   -1    0    0    0    0 -0.00000000000E+00 -0.00000000000E+00 -0.50000000000E+02  0.50000000000E+02  0.00000000000E+00 0.  1.
         23    2    1    2    0    0  0.00000000000E+00  0.00000000000E+00  0.00000000000E+00  0.10000000000E+03  0.10000000000E+03 0.  0.
          5    1    3    3  501    0  0.28884022960E+02 -0.40017974558E+02  0.64949926835E+01  0.50000000000E+02  0.47000000000E+01 0. -1.
         -5    1    3    3    0  501 -0.28884022960E+02  0.40017974558E+02 -0.64949926835E+01  0.50000000000E+02  0.47000000000E+01 0.  1.
</event>
<event>
 5    1  0.9071520E-001  0.1000000E+03  0.7546771E-02  0.1163815E+00
         11   -1    0    0    0    0  0.00000000000E+00  0.00000000000E+00  0.50000000000E+02  0.50000000000E+02  0.00000000000E+00 0.  1.
        -11   -1    0    0    0    0 -0.00000000000E+00 -0.00000000000E+00 -0.50000000000E+02  0.50000000000E+02  0.00000000000E+00 0. -1.
         23    2    1    2    0    0  0.00000000000E+00  0.00000000000E+00  0.00000000000E+00  0.10000000000E+03  0.10000000000E+03 0.  0.
          5    1    3    3  501    0  0.26895340153E+02 -0.21076718149E+02 -0.36198378833E+02  0.50000000000E+02  0.47000000000E+01 0. -1.
         -5    1    3    3    0  501 -0.26895340153E+02  0.21076718149E+02  0.36198378833E+02  0.50000000000E+02  0.47000000000E+01 0.  1.
</event>
<event>
 5    1  0.9071520E-001  0.1000000E+03  0.7546771E-02  0.1163815E+00
         11   -1    0    0    0    0  0.00000000000E+00  0.00000000000E+00  0.50000000000E+02  0.50000000000E+02  0.00000000000E+00 0.  1.
        -11   -1    0    0    0    0 -0.00000000000E+00 -0.00000000000E+00 -0.50000000000E+02  0.50000000000E+02  0.00000000000E+00 0. -1.
         23    2    1    2    0    0  0.00000000000E+00  0.00000000000E+00  0.00000000000E+00  0.10000000000E+03  0.10000000000E+03 0.  0.
          5    1    3    3  501    0  0.35762397367E+02  0.29374511303E+02 -0.18333003580E+02  0.50000000000E+02  0.47000000000E+01 0. -1.
         -5    1    3    3    0  501 -0.35762397367E+02 -0.29374511303E+02  0.18333003580E+02  0.50000000000E+02  0.47000000000E+01 0.  1.
</event>
<event>
 5    1  0.9071520E-001  0.1000000E+03  0.7546771E-02  0.1163815E+00
         11   -1    0    0    0    0  0.00000000000E+00  0.00000000000E+00  0.50000000000E+02  0.50000000000E+02  0.00000000000E+00 0. -1.
        -11   -1    0    0    0    0 -0.00000000000E+00 -0.00000000000E+00 -0.50000000000E+02  0.50000000000E+02  0.00000000000E+00 0.  1.
         23    2    1    2    0    0  0.00000000000E+00  0.00000000000E+00  0.00000000000E+00  0.10000000000E+03  0.10000000000E+03 0.  0.
          5    1    3    3  501    0 -0.19794950814E+01 -0.44856218772E+01  0.49536560191E+02  0.50000000000E+02  0.47000000000E+01 0. -1.
         -5    1    3    3    0  501  0.19794950814E+01  0.44856218772E+01 -0.49536560191E+02  0.50000000000E+02  0.47000000000E+01 0.  1.
</event>
<event>
 5    1  0.9071520E-001  0.1000000E+03  0.7546771E-02  0.1163815E+00
         11   -1    0    0    0    0  0.00000000000E+00  0.00000000000E+00  0.50000000000E+02  0.50000000000E+02  0.00000000000E+00 0.  1.
        -11   -1    0    0    0    0 -0.00000000000E+00 -0.00000000000E+00 -0.50000000000E+02  0.50000000000E+02  0.00000000000E+00 0. -1.
         23    2    1    2    0    0  0.00000000000E+00  0.00000000000E+00  0.00000000000E+00  0.10000000000E+03  0.10000000000E+03 0.  0.
          5    1    3    3  501    0 -0.64450267169E+01 -0.44816014173E+02  0.20685659387E+02  0.50000000000E+02  0.47000000000E+01 0. -1.
         -5    1    3    3    0  501  0.64450267169E+01  0.44816014173E+02 -0.20685659387E+02  0.50000000000E+02  0.47000000000E+01 0.  1.
</event>
<event>
 5    1  0.9071520E-001  0.1000000E+03  0.7546771E-02  0.1163815E+00
         11   -1    0    0    0    0  0.00000000000E+00  0.00000000000E+00  0.50000000000E+02  0.50000000000E+02  0.00000000000E+00 0. -1.
        -11   -1    0    0    0    0 -0.00000000000E+00 -0.00000000000E+00 -0.50000000000E+02  0.50000000000E+02  0.00000000000E+00 0.  1.
         23    2    1    2    0    0  0.00000000000E+00  0.00000000000E+00  0.00000000000E+00  0.10000000000E+03  0.10000000000E+03 0.  0.
          5    1    3    3  501    0 -0.20348076223E+02  0.42976868925E+02  0.14725981509E+02  0.50000000000E+02  0.47000000000E+01 0. -1.
         -5    1    3    3    0  501  0.20348076223E+02 -0.42976868925E+02 -0.14725981509E+02  0.50000000000E+02  0.47000000000E+01 0.  1.
</event>
<event>
 5    1  0.9071520E-001  0.1000000E+03  0.7546771E-02  0.1163815E+00
         11   -1    0    0    0    0  0.00000000000E+00  0.00000000000E+00  0.50000000000E+02  0.50000000000E+02  0.00000000000E+00 0. -1.
        -11   -1    0    0    0    0 -0.00000000000E+00 -0.00000000000E+00 -0.50000000000E+02  0.50000000000E+02  0.00000000000E+00 0.  1.
         23    2    1    2    0    0  0.00000000000E+00  0.00000000000E+00  0.00000000000E+00  0.10000000000E+03  0.10000000000E+03 0.  0.
          5    1    3    3  501    0 -0.13341109630E+01 -0.30377018864E+02  0.39412775504E+02  0.50000000000E+02  0.47000000000E+01 0. -1.
         -5    1    3    3    0  501  0.13341109630E+01  0.30377018864E+02 -0.39412775504E+02  0.50000000000E+02  0.47000000000E+01 0.  1.
</event>
<event>
 5    1  0.9071520E-001  0.1000000E+03  0.7546771E-02  0.1163815E+00
         11   -1    0    0    0    0  0.00000000000E+00  0.00000000000E+00  0.50000000000E+02  0.50000000000E+02  0.00000000000E+00 0.  1.
        -11   -1    0    0    0    0 -0.00000000000E+00 -0.00000000000E+00 -0.50000000000E+02  0.50000000000E+02  0.00000000000E+00 0. -1.
         23    2    1    2    0    0  0.00000000000E+00  0.00000000000E+00  0.00000000000E+00  0.10000000000E+03  0.10000000000E+03 0.  0.
          5    1    3    3  501    0  0.31976296320E+02 -0.31529563858E+02  0.21478200032E+02  0.50000000000E+02  0.47000000000E+01 0. -1.
         -5    1    3    3    0  501 -0.31976296320E+02  0.31529563858E+02 -0.21478200032E+02  0.50000000000E+02  0.47000000000E+01 0.  1.
</event>
<event>
 5    1  0.9071520E-001  0.1000000E+03  0.7546771E-02  0.1163815E+00
         11   -1    0    0    0    0  0.00000000000E+00  0.00000000000E+00  0.50000000000E+02  0.50000000000E+02  0.00000000000E+00 0. -1.
        -11   -1    0    0    0    0 -0.00000000000E+00 -0.00000000000E+00 -0.50000000000E+02  0.50000000000E+02  0.00000000000E+00 0.  1.
         23    2    1    2    0    0  0.00000000000E+00  0.00000000000E+00  0.00000000000E+00  0.10000000000E+03  0.10000000000E+03 0.  0.
          5    1    3    3  501    0  0.18541040574E+02  0.19122177669E+02  0.42053324906E+02  0.50000000000E+02  0.47000000000E+01 0. -1.
         -5    1    3    3    0  501 -0.18541040574E+02 -0.19122177669E+02 -0.42053324906E+02  0.50000000000E+02  0.47000000000E+01 0.  1.
</event>
<event>
 5    1  0.9071520E-001  0.1000000E+03  0.7546771E-02  0.1163815E+00
         11   -1    0    0    0    0  0.00000000000E+00  0.00000000000E+00  0.50000000000E+02  0.50000000000E+02  0.00000000000E+00 0. -1.
        -11   -1    0    0    0    0 -0.00000000000E+00 -0.00000000000E+00 -0.50000000000E+02  0.50000000000E+02  0.00000000000E+00 0.  1.
         23    2    1    2    0    0  0.00000000000E+00  0.00000000000E+00  0.00000000000E+00  0.10000000000E+03  0.10000000000E+03 0.  0.
          5    1    3    3  501    0  0.25999863117E+02  0.40508467155E+01 -0.42255269006E+02  0.50000000000E+02  0.47000000000E+01 0. -1.
         -5    1    3    3    0  501 -0.25999863117E+02 -0.40508467155E+01  0.42255269006E+02  0.50000000000E+02  0.47000000000E+01 0.  1.
</event>
<event>
 5    1  0.9071520E-001  0.1000000E+03  0.7546771E-02  0.1163815E+00
         11   -1    0    0    0    0  0.00000000000E+00  0.00000000000E+00  0.50000000000E+02  0.50000000000E+02  0.00000000000E+00 0.  1.
        -11   -1    0    0    0    0 -0.00000000000E+00 -0.00000000000E+00 -0.50000000000E+02  0.50000000000E+02  0.00000000000E+00 0. -1.
         23    2    1    2    0    0  0.00000000000E+00  0.00000000000E+00  0.00000000000E+00  0.10000000000E+03  0.10000000000E+03 0.  0.
          5    1    3    3  501    0 -0.13855950761E+02 -0.22854804829E+02 -0.41995005950E+02  0.50000000000E+02  0.47000000000E+01 0. -1.
         -5    1    3    3    0  501  0.13855950761E+02  0.22854804829E+02  0.41995005950E+02  0.50000000000E+02  0.47000000000E+01 0.  1.
</event>
<event>
 5    1  0.9071520E-001  0.1000000E+03  0.7546771E-02  0.1163815E+00
         11   -1    0    0    0    0  0.00000000000E+00  0.00000000000E+00  0.50000000000E+02  0.50000000000E+02  0.00000000000E+00 0. -1.
        -11   -1    0    0    0    0 -0.00000000000E+00 -0.00000000000E+00 -0.50000000000E+02  0.50000000000E+02  0.00000000000E+00 0.  1.
         23    2    1    2    0    0  0.00000000000E+00  0.00000000000E+00  0.00000000000E+00  0.10000000000E+03  0.10000000000E+03 0.  0.
          5    1    3    3  501    0 -0.29149990742E+02  0.22806341760E+02  0.33287517409E+02  0.50000000000E+02  0.47000000000E+01 0. -1.
         -5    1    3    3    0  501  0.29149990742E+02 -0.22806341760E+02 -0.33287517409E+02  0.50000000000E+02  0.47000000000E+01 0.  1.
</event>
<event>
 5    1  0.9071520E-001  0.1000000E+03  0.7546771E-02  0.1163815E+00
         11   -1    0    0    0    0  0.00000000000E+00  0.00000000000E+00  0.50000000000E+02  0.50000000000E+02  0.00000000000E+00 0. -1.
        -11   -1    0    0    0    0 -0.00000000000E+00 -0.00000000000E+00 -0.50000000000E+02  0.50000000000E+02  0.00000000000E+00 0.  1.
         23    2    1    2    0    0  0.00000000000E+00  0.00000000000E+00  0.00000000000E+00  0.10000000000E+03  0.10000000000E+03 0.  0.
          5    1    3    3  501    0 -0.24753158114E+02  0.37021677221E+02  0.22239302577E+02  0.50000000000E+02  0.47000000000E+01 0. -1.
         -5    1    3    3    0  501  0.24753158114E+02 -0.37021677221E+02 -0.22239302577E+02  0.50000000000E+02  0.47000000000E+01 0.  1.
</event>
<event>
 5    1  0.9071520E-001  0.1000000E+03  0.7546771E-02  0.1163815E+00
         11   -1    0    0    0    0  0.00000000000E+00  0.00000000000E+00  0.50000000000E+02  0.50000000000E+02  0.00000000000E+00 0.  1.
        -11   -1    0    0    0    0 -0.00000000000E+00 -0.00000000000E+00 -0.50000000000E+02  0.50000000000E+02  0.00000000000E+00 0. -1.
         23    2    1    2    0    0  0.00000000000E+00  0.00000000000E+00  0.00000000000E+00  0.10000000000E+03  0.10000000000E+03 0.  0.
          5    1    3    3  501    0 -0.46754831734E+02 -0.10654033451E+02 -0.13356170139E+02  0.50000000000E+02  0.47000000000E+01 0. -1.
         -5    1    3    3    0  501  0.46754831734E+02  0.10654033451E+02  0.13356170139E+02  0.50000000000E+02  0.47000000000E+01 0.  1.
</event>
<event>
 5    1  0.9071520E-001  0.1000000E+03  0.7546771E-02  0.1163815E+00
         11   -1    0    0    0    0  0.00000000000E+00  0.00000000000E+00  0.50000000000E+02  0.50000000000E+02  0.00000000000E+00 0. -1.
        -11   -1    0    0    0    0 -0.00000000000E+00 -0.00000000000E+00 -0.50000000000E+02  0.50000000000E+02  0.00000000000E+00 0.  1.
         23    2    1    2    0    0  0.00000000000E+00  0.00000000000E+00  0.00000000000E+00  0.10000000000E+03  0.10000000000E+03 0.  0.
          5    1    3    3  501    0  0.45747944937E+02 -0.14667373159E+02  0.13034711300E+02  0.50000000000E+02  0.47000000000E+01 0. -1.
         -5    1    3    3    0  501 -0.45747944937E+02  0.14667373159E+02 -0.13034711300E+02  0.50000000000E+02  0.47000000000E+01 0.  1.
</event>
<event>
 5    1  0.9071520E-001  0.1000000E+03  0.7546771E-02  0.1163815E+00
         11   -1    0    0    0    0  0.00000000000E+00  0.00000000000E+00  0.50000000000E+02  0.50000000000E+02  0.00000000000E+00 0.  1.
        -11   -1    0    0    0    0 -0.00000000000E+00 -0.00000000000E+00 -0.50000000000E+02  0.50000000000E+02  0.00000000000E+00 0. -1.
         23    2    1    2    0    0  0.00000000000E+00  0.00000000000E+00  0.00000000000E+00  0.10000000000E+03  0.10000000000E+03 0.  0.
          5    1    3    3  501    0 -0.36722718661E+02 -0.26680386923E+02 -0.20433034228E+02  0.50000000000E+02  0.47000000000E+01 0. -1.
         -5    1    3    3    0  501  0.36722718661E+02  0.26680386923E+02  0.20433034228E+02  0.50000000000E+02  0.47000000000E+01 0.  1.
</event>
<event>
 5    1  0.9071520E-001  0.1000000E+03  0.7546771E-02  0.1163815E+00
         11   -1    0    0    0    0  0.00000000000E+00  0.00000000000E+00  0.50000000000E+02  0.50000000000E+02  0.00000000000E+00 0. -1.
        -11   -1    0    0    0    0 -0.00000000000E+00 -0.00000000000E+00 -0.50000000000E+02  0.50000000000E+02  0.00000000000E+00 0.  1.
         23    2    1    2    0    0  0.00000000000E+00  0.00000000000E+00  0.00000000000E+00  0.10000000000E+03  0.10000000000E+03 0.  0.
          5    1    3    3  501    0 -0.19088499834E+02 -0.17599944881E+01  0.45939542809E+02  0.50000000000E+02  0.47000000000E+01 0. -1.
         -5    1    3    3    0  501  0.19088499834E+02  0.17599944881E+01 -0.45939542809E+02  0.50000000000E+02  0.47000000000E+01 0.  1.
</event>
<event>
 5    1  0.9071520E-001  0.1000000E+03  0.7546771E-02  0.1163815E+00
         11   -1    0    0    0    0  0.00000000000E+00  0.00000000000E+00  0.50000000000E+02  0.50000000000E+02  0.00000000000E+00 0.  1.
        -11   -1    0    0    0    0 -0.00000000000E+00 -0.00000000000E+00 -0.50000000000E+02  0.50000000000E+02  0.00000000000E+00 0. -1.
         23    2    1    2    0    0  0.00000000000E+00  0.00000000000E+00  0.00000000000E+00  0.10000000000E+03  0.10000000000E+03 0.  0.
          5    1    3    3  501    0  0.46592048001E+02 -0.16670951169E+02 -0.54009675227E+01  0.50000000000E+02  0.47000000000E+01 0. -1.
         -5    1    3    3    0  501 -0.46592048001E+02  0.16670951169E+02  0.54009675227E+01  0.50000000000E+02  0.47000000000E+01 0.  1.
</event>
<event>
 5    1  0.9071520E-001  0.1000000E+03  0.7546771E-02  0.1163815E+00
         11   -1    0    0    0    0  0.00000000000E+00  0.00000000000E+00  0.50000000000E+02  0.50000000000E+02  0.00000000000E+00 0. -1.
        -11   -1    0    0    0    0 -0.00000000000E+00 -0.00000000000E+00 -0.50000000000E+02  0.50000000000E+02  0.00000000000E+00 0.  1.
         23    2    1    2    0    0  0.00000000000E+00  0.00000000000E+00  0.00000000000E+00  0.10000000000E+03  0.10000000000E+03 0.  0.
          5    1    3    3  501    0  0.39822046556E+02  0.28140831005E+02  0.10010406507E+02  0.50000000000E+02  0.47000000000E+01 0. -1.
         -5    1    3    3    0  501 -0.39822046556E+02 -0.28140831005E+02 -0.10010406507E+02  0.50000000000E+02  0.47000000000E+01 0.  1.
</event>
<event>
 5    1  0.9071520E-001  0.1000000E+03  0.7546771E-02  0.1163815E+00
         11   -1    0    0    0    0  0.00000000000E+00  0.00000000000E+00  0.50000000000E+02  0.50000000000E+02  0.00000000000E+00 0. -1.
        -11   -1    0    0    0    0 -0.00000000000E+00 -0.00000000000E+00 -0.50000000000E+02  0.50000000000E+02  0.00000000000E+00 0.  1.
         23    2    1    2    0    0  0.00000000000E+00  0.00000000000E+00  0.00000000000E+00  0.10000000000E+03  0.10000000000E+03 0.  0.
          5    1    3    3  501    0 -0.30419594535E+02 -0.12979246263E+02  0.37203459984E+02  0.50000000000E+02  0.47000000000E+01 0. -1.
         -5    1    3    3    0  501  0.30419594535E+02  0.12979246263E+02 -0.37203459984E+02  0.50000000000E+02  0.47000000000E+01 0.  1.
</event>
<event>
 5    1  0.9071520E-001  0.1000000E+03  0.7546771E-02  0.1163815E+00
         11   -1    0    0    0    0  0.00000000000E+00  0.00000000000E+00  0.50000000000E+02  0.50000000000E+02  0.00000000000E+00 0.  1.
        -11   -1    0    0    0    0 -0.00000000000E+00 -0.00000000000E+00 -0.50000000000E+02  0.50000000000E+02  0.00000000000E+00 0. -1.
         23    2    1    2    0    0  0.00000000000E+00  0.00000000000E+00  0.00000000000E+00  0.10000000000E+03  0.10000000000E+03 0.  0.
          5    1    3    3  501    0 -0.62843184431E+01 -0.23088571791E+02 -0.43650145411E+02  0.50000000000E+02  0.47000000000E+01 0. -1.
         -5    1    3    3    0  501  0.62843184431E+01  0.23088571791E+02  0.43650145411E+02  0.50000000000E+02  0.47000000000E+01 0.  1.
</event>
<event>
 5    1  0.9071520E-001  0.1000000E+03  0.7546771E-02  0.1163815E+00
         11   -1    0    0    0    0  0.00000000000E+00  0.00000000000E+00  0.50000000000E+02  0.50000000000E+02  0.00000000000E+00 0.  1.
        -11   -1    0    0    0    0 -0.00000000000E+00 -0.00000000000E+00 -0.50000000000E+02  0.50000000000E+02  0.00000000000E+00 0. -1.
         23    2    1    2    0    0  0.00000000000E+00  0.00000000000E+00  0.00000000000E+00  0.10000000000E+03  0.10000000000E+03 0.  0.
          5    1    3    3  501    0 -0.44721697349E+02 -0.20490796119E+02  0.76162366417E+01  0.50000000000E+02  0.47000000000E+01 0. -1.
         -5    1    3    3    0  501  0.44721697349E+02  0.20490796119E+02 -0.76162366417E+01  0.50000000000E+02  0.47000000000E+01 0.  1.
</event>
<event>
 5    1  0.9071520E-001  0.1000000E+03  0.7546771E-02  0.1163815E+00
         11   -1    0    0    0    0  0.00000000000E+00  0.00000000000E+00  0.50000000000E+02  0.50000000000E+02  0.00000000000E+00 0. -1.
        -11   -1    0    0    0    0 -0.00000000000E+00 -0.00000000000E+00 -0.50000000000E+02  0.50000000000E+02  0.00000000000E+00 0.  1.
         23    2    1    2    0    0  0.00000000000E+00  0.00000000000E+00  0.00000000000E+00  0.10000000000E+03  0.10000000000E+03 0.  0.
          5    1    3    3  501    0  0.40315671871E+02  0.27816795156E+02 -0.88759511542E+01  0.50000000000E+02  0.47000000000E+01 0. -1.
         -5    1    3    3    0  501 -0.40315671871E+02 -0.27816795156E+02  0.88759511542E+01  0.50000000000E+02  0.47000000000E+01 0.  1.
</event>
<event>
 5    1  0.9071520E-001  0.1000000E+03  0.7546771E-02  0.1163815E+00
         11   -1    0    0    0    0  0.00000000000E+00  0.00000000000E+00  0.50000000000E+02  0.50000000000E+02  0.00000000000E+00 0.  1.
        -11   -1    0    0    0    0 -0.00000000000E+00 -0.00000000000E+00 -0.50000000000E+02  0.50000000000E+02  0.00000000000E+00 0. -1.
         23    2    1    2    0    0  0.00000000000E+00  0.00000000000E+00  0.00000000000E+00  0.10000000000E+03  0.10000000000E+03 0.  0.
          5    1    3    3  501    0  0.73700454603E+01 -0.27889103902E+02  0.40568341271E+02  0.50000000000E+02  0.47000000000E+01 0.  1.
         -5    1    3    3    0  501 -0.73700454603E+01  0.27889103902E+02 -0.40568341271E+02  0.50000000000E+02  0.47000000000E+01 0. -1.
</event>
<event>
 5    1  0.9071520E-001  0.1000000E+03  0.7546771E-02  0.1163815E+00
         11   -1    0    0    0    0  0.00000000000E+00  0.00000000000E+00  0.50000000000E+02  0.50000000000E+02  0.00000000000E+00 0. -1.
        -11   -1    0    0    0    0 -0.00000000000E+00 -0.00000000000E+00 -0.50000000000E+02  0.50000000000E+02  0.00000000000E+00 0.  1.
         23    2    1    2    0    0  0.00000000000E+00  0.00000000000E+00  0.00000000000E+00  0.10000000000E+03  0.10000000000E+03 0.  0.
          5    1    3    3  501    0 -0.38181653994E+01  0.45579944694E+02  0.19641798661E+02  0.50000000000E+02  0.47000000000E+01 0. -1.
         -5    1    3    3    0  501  0.38181653994E+01 -0.45579944694E+02 -0.19641798661E+02  0.50000000000E+02  0.47000000000E+01 0.  1.
</event>
<event>
 5    1  0.9071520E-001  0.1000000E+03  0.7546771E-02  0.1163815E+00
         11   -1    0    0    0    0  0.00000000000E+00  0.00000000000E+00  0.50000000000E+02  0.50000000000E+02  0.00000000000E+00 0.  1.
        -11   -1    0    0    0    0 -0.00000000000E+00 -0.00000000000E+00 -0.50000000000E+02  0.50000000000E+02  0.00000000000E+00 0. -1.
         23    2    1    2    0    0  0.00000000000E+00  0.00000000000E+00  0.00000000000E+00  0.10000000000E+03  0.10000000000E+03 0.  0.
          5    1    3    3  501    0  0.46481085007E+02 -0.84655449278E+01  0.15676520202E+02  0.50000000000E+02  0.47000000000E+01 0. -1.
         -5    1    3    3    0  501 -0.46481085007E+02  0.84655449278E+01 -0.15676520202E+02  0.50000000000E+02  0.47000000000E+01 0.  1.
</event>
<event>
 5    1  0.9071520E-001  0.1000000E+03  0.7546771E-02  0.1163815E+00
         11   -1    0    0    0    0  0.00000000000E+00  0.00000000000E+00  0.50000000000E+02  0.50000000000E+02  0.00000000000E+00 0.  1.
        -11   -1    0    0    0    0 -0.00000000000E+00 -0.00000000000E+00 -0.50000000000E+02  0.50000000000E+02  0.00000000000E+00 0. -1.
         23    2    1    2    0    0  0.00000000000E+00  0.00000000000E+00  0.00000000000E+00  0.10000000000E+03  0.10000000000E+03 0.  0.
          5    1    3    3  501    0 -0.40112417526E+02  0.28899327309E+02  0.58079980479E+01  0.50000000000E+02  0.47000000000E+01 0. -1.
         -5    1    3    3    0  501  0.40112417526E+02 -0.28899327309E+02 -0.58079980479E+01  0.50000000000E+02  0.47000000000E+01 0.  1.
</event>
<event>
 5    1  0.9071520E-001  0.1000000E+03  0.7546771E-02  0.1163815E+00
         11   -1    0    0    0    0  0.00000000000E+00  0.00000000000E+00  0.50000000000E+02  0.50000000000E+02  0.00000000000E+00 0.  1.
        -11   -1    0    0    0    0 -0.00000000000E+00 -0.00000000000E+00 -0.50000000000E+02  0.50000000000E+02  0.00000000000E+00 0. -1.
         23    2    1    2    0    0  0.00000000000E+00  0.00000000000E+00  0.00000000000E+00  0.10000000000E+03  0.10000000000E+03 0.  0.
          5    1    3    3  501    0 -0.25053641588E+02  0.40827099727E+02 -0.13541527648E+02  0.50000000000E+02  0.47000000000E+01 0. -1.
         -5    1    3    3    0  501  0.25053641588E+02 -0.40827099727E+02  0.13541527648E+02  0.50000000000E+02  0.47000000000E+01 0.  1.
</event>
<event>
 5    1  0.9071520E-001  0.1000000E+03  0.7546771E-02  0.1163815E+00
         11   -1    0    0    0    0  0.00000000000E+00  0.00000000000E+00  0.50000000000E+02  0.50000000000E+02  0.00000000000E+00 0. -1.
        -11   -1    0    0    0    0 -0.00000000000E+00 -0.00000000000E+00 -0.50000000000E+02  0.50000000000E+02  0.00000000000E+00 0.  1.
         23    2    1    2    0    0  0.00000000000E+00  0.00000000000E+00  0.00000000000E+00  0.10000000000E+03  0.10000000000E+03 0.  0.
          5    1    3    3  501    0  0.14337447493E+02 -0.94254408364E+01  0.46728028681E+02  0.50000000000E+02  0.47000000000E+01 0. -1.
         -5    1    3    3    0  501 -0.14337447493E+02  0.94254408364E+01 -0.46728028681E+02  0.50000000000E+02  0.47000000000E+01 0.  1.
</event>
<event>
 5    1  0.9071520E-001  0.1000000E+03  0.7546771E-02  0.1163815E+00
         11   -1    0    0    0    0  0.00000000000E+00  0.00000000000E+00  0.50000000000E+02  0.50000000000E+02  0.00000000000E+00 0. -1.
        -11   -1    0    0    0    0 -0.00000000000E+00 -0.00000000000E+00 -0.50000000000E+02  0.50000000000E+02  0.00000000000E+00 0.  1.
         23    2    1    2    0    0  0.00000000000E+00  0.00000000000E+00  0.00000000000E+00  0.10000000000E+03  0.10000000000E+03 0.  0.
          5    1    3    3  501    0 -0.30642498013E+02 -0.36827925856E+02  0.13514850819E+02  0.50000000000E+02  0.47000000000E+01 0. -1.
         -5    1    3    3    0  501  0.30642498013E+02  0.36827925856E+02 -0.13514850819E+02  0.50000000000E+02  0.47000000000E+01 0.  1.
</event>
<event>
 5    1  0.9071520E-001  0.1000000E+03  0.7546771E-02  0.1163815E+00
         11   -1    0    0    0    0  0.00000000000E+00  0.00000000000E+00  0.50000000000E+02  0.50000000000E+02  0.00000000000E+00 0. -1.
        -11   -1    0    0    0    0 -0.00000000000E+00 -0.00000000000E+00 -0.50000000000E+02  0.50000000000E+02  0.00000000000E+00 0.  1.
         23    2    1    2    0    0  0.00000000000E+00  0.00000000000E+00  0.00000000000E+00  0.10000000000E+03  0.10000000000E+03 0.  0.
          5    1    3    3  501    0 -0.16547642403E+02  0.23573129930E+02  0.40600407341E+02  0.50000000000E+02  0.47000000000E+01 0. -1.
         -5    1    3    3    0  501  0.16547642403E+02 -0.23573129930E+02 -0.40600407341E+02  0.50000000000E+02  0.47000000000E+01 0.  1.
</event>
<event>
 5    1  0.9071520E-001  0.1000000E+03  0.7546771E-02  0.1163815E+00
         11   -1    0    0    0    0  0.00000000000E+00  0.00000000000E+00  0.50000000000E+02  0.50000000000E+02  0.00000000000E+00 0. -1.
        -11   -1    0    0    0    0 -0.00000000000E+00 -0.00000000000E+00 -0.50000000000E+02  0.50000000000E+02  0.00000000000E+00 0.  1.
         23    2    1    2    0    0  0.00000000000E+00  0.00000000000E+00  0.00000000000E+00  0.10000000000E+03  0.10000000000E+03 0.  0.
          5    1    3    3  501    0  0.12888663776E+02 -0.77037623756E+00  0.48074929709E+02  0.50000000000E+02  0.47000000000E+01 0. -1.
         -5    1    3    3    0  501 -0.12888663776E+02  0.77037623756E+00 -0.48074929709E+02  0.50000000000E+02  0.47000000000E+01 0.  1.
</event>
<event>
 5    1  0.9071520E-001  0.1000000E+03  0.7546771E-02  0.1163815E+00
         11   -1    0    0    0    0  0.00000000000E+00  0.00000000000E+00  0.50000000000E+02  0.50000000000E+02  0.00000000000E+00 0. -1.
        -11   -1    0    0    0    0 -0.00000000000E+00 -0.00000000000E+00 -0.50000000000E+02  0.50000000000E+02  0.00000000000E+00 0.  1.
         23    2    1    2    0    0  0.00000000000E+00  0.00000000000E+00  0.00000000000E+00  0.10000000000E+03  0.10000000000E+03 0.  0.
          5    1    3    3  501    0  0.12481944780E+02 -0.46008827683E+02  0.14328252852E+02  0.50000000000E+02  0.47000000000E+01 0. -1.
         -5    1    3    3    0  501 -0.12481944780E+02  0.46008827683E+02 -0.14328252852E+02  0.50000000000E+02  0.47000000000E+01 0.  1.
</event>
<event>
 5    1  0.9071520E-001  0.1000000E+03  0.7546771E-02  0.1163815E+00
         11   -1    0    0    0    0  0.00000000000E+00  0.00000000000E+00  0.50000000000E+02  0.50000000000E+02  0.00000000000E+00 0. -1.
        -11   -1    0    0    0    0 -0.00000000000E+00 -0.00000000000E+00 -0.50000000000E+02  0.50000000000E+02  0.00000000000E+00 0.  1.
         23    2    1    2    0    0  0.00000000000E+00  0.00000000000E+00  0.00000000000E+00  0.10000000000E+03  0.10000000000E+03 0.  0.
          5    1    3    3  501    0 -0.97562499273E+01 -0.89389208986E+01  0.47987720101E+02  0.50000000000E+02  0.47000000000E+01 0. -1.
         -5    1    3    3    0  501  0.97562499273E+01  0.89389208986E+01 -0.47987720101E+02  0.50000000000E+02  0.47000000000E+01 0.  1.
</event>
<event>
 5    1  0.9071520E-001  0.1000000E+03  0.7546771E-02  0.1163815E+00
         11   -1    0    0    0    0  0.00000000000E+00  0.00000000000E+00  0.50000000000E+02  0.50000000000E+02  0.00000000000E+00 0.  1.
        -11   -1    0    0    0    0 -0.00000000000E+00 -0.00000000000E+00 -0.50000000000E+02  0.50000000000E+02  0.00000000000E+00 0. -1.
         23    2    1    2    0    0  0.00000000000E+00  0.00000000000E+00  0.00000000000E+00  0.10000000000E+03  0.10000000000E+03 0.  0.
          5    1    3    3  501    0  0.15003485430E+02 -0.29841815036E+02 -0.36908962330E+02  0.50000000000E+02  0.47000000000E+01 0. -1.
         -5    1    3    3    0  501 -0.15003485430E+02  0.29841815036E+02  0.36908962330E+02  0.50000000000E+02  0.47000000000E+01 0.  1.
</event>
<event>
 5    1  0.9071520E-001  0.1000000E+03  0.7546771E-02  0.1163815E+00
         11   -1    0    0    0    0  0.00000000000E+00  0.00000000000E+00  0.50000000000E+02  0.50000000000E+02  0.00000000000E+00 0. -1.
        -11   -1    0    0    0    0 -0.00000000000E+00 -0.00000000000E+00 -0.50000000000E+02  0.50000000000E+02  0.00000000000E+00 0.  1.
         23    2    1    2    0    0  0.00000000000E+00  0.00000000000E+00  0.00000000000E+00  0.10000000000E+03  0.10000000000E+03 0.  0.
          5    1    3    3  501    0  0.49623246296E+02  0.24694935619E+01 -0.30569639461E+01  0.50000000000E+02  0.47000000000E+01 0. -1.
         -5    1    3    3    0  501 -0.49623246296E+02 -0.24694935619E+01  0.30569639461E+01  0.50000000000E+02  0.47000000000E+01 0.  1.
</event>
<event>
 5    1  0.9071520E-001  0.1000000E+03  0.7546771E-02  0.1163815E+00
         11   -1    0    0    0    0  0.00000000000E+00  0.00000000000E+00  0.50000000000E+02  0.50000000000E+02  0.00000000000E+00 0. -1.
        -11   -1    0    0    0    0 -0.00000000000E+00 -0.00000000000E+00 -0.50000000000E+02  0.50000000000E+02  0.00000000000E+00 0.  1.
         23    2    1    2    0    0  0.00000000000E+00  0.00000000000E+00  0.00000000000E+00  0.10000000000E+03  0.10000000000E+03 0.  0.
          5    1    3    3  501    0  0.23259888153E+02  0.35968451326E+02  0.25360562145E+02  0.50000000000E+02  0.47000000000E+01 0. -1.
         -5    1    3    3    0  501 -0.23259888153E+02 -0.35968451326E+02 -0.25360562145E+02  0.50000000000E+02  0.47000000000E+01 0.  1.
</event>
<event>
 5    1  0.9071520E-001  0.1000000E+03  0.7546771E-02  0.1163815E+00
         11   -1    0    0    0    0  0.00000000000E+00  0.00000000000E+00  0.50000000000E+02  0.50000000000E+02  0.00000000000E+00 0. -1.
        -11   -1    0    0    0    0 -0.00000000000E+00 -0.00000000000E+00 -0.50000000000E+02  0.50000000000E+02  0.00000000000E+00 0.  1.
         23    2    1    2    0    0  0.00000000000E+00  0.00000000000E+00  0.00000000000E+00  0.10000000000E+03  0.10000000000E+03 0.  0.
          5    1    3    3  501    0  0.32250358442E+02 -0.22125151322E+02  0.30794513462E+02  0.50000000000E+02  0.47000000000E+01 0. -1.
         -5    1    3    3    0  501 -0.32250358442E+02  0.22125151322E+02 -0.30794513462E+02  0.50000000000E+02  0.47000000000E+01 0.  1.
</event>
<event>
 5    1  0.9071520E-001  0.1000000E+03  0.7546771E-02  0.1163815E+00
         11   -1    0    0    0    0  0.00000000000E+00  0.00000000000E+00  0.50000000000E+02  0.50000000000E+02  0.00000000000E+00 0.  1.
        -11   -1    0    0    0    0 -0.00000000000E+00 -0.00000000000E+00 -0.50000000000E+02  0.50000000000E+02  0.00000000000E+00 0. -1.
         23    2    1    2    0    0  0.00000000000E+00  0.00000000000E+00  0.00000000000E+00  0.10000000000E+03  0.10000000000E+03 0.  0.
          5    1    3    3  501    0 -0.28084216211E+02 -0.25837490208E+02 -0.31962648508E+02  0.50000000000E+02  0.47000000000E+01 0. -1.
         -5    1    3    3    0  501  0.28084216211E+02  0.25837490208E+02  0.31962648508E+02  0.50000000000E+02  0.47000000000E+01 0.  1.
</event>
<event>
 5    1  0.9071520E-001  0.1000000E+03  0.7546771E-02  0.1163815E+00
         11   -1    0    0    0    0  0.00000000000E+00  0.00000000000E+00  0.50000000000E+02  0.50000000000E+02  0.00000000000E+00 0. -1.
        -11   -1    0    0    0    0 -0.00000000000E+00 -0.00000000000E+00 -0.50000000000E+02  0.50000000000E+02  0.00000000000E+00 0.  1.
         23    2    1    2    0    0  0.00000000000E+00  0.00000000000E+00  0.00000000000E+00  0.10000000000E+03  0.10000000000E+03 0.  0.
          5    1    3    3  501    0 -0.16181894755E+02 -0.47070721119E+02 -0.63521295540E+00  0.50000000000E+02  0.47000000000E+01 0. -1.
         -5    1    3    3    0  501  0.16181894755E+02  0.47070721119E+02  0.63521295540E+00  0.50000000000E+02  0.47000000000E+01 0.  1.
</event>
<event>
 5    1  0.9071520E-001  0.1000000E+03  0.7546771E-02  0.1163815E+00
         11   -1    0    0    0    0  0.00000000000E+00  0.00000000000E+00  0.50000000000E+02  0.50000000000E+02  0.00000000000E+00 0.  1.
        -11   -1    0    0    0    0 -0.00000000000E+00 -0.00000000000E+00 -0.50000000000E+02  0.50000000000E+02  0.00000000000E+00 0. -1.
         23    2    1    2    0    0  0.00000000000E+00  0.00000000000E+00  0.00000000000E+00  0.10000000000E+03  0.10000000000E+03 0.  0.
          5    1    3    3  501    0 -0.13150306956E+00 -0.39344125428E+02 -0.30494794658E+02  0.50000000000E+02  0.47000000000E+01 0. -1.
         -5    1    3    3    0  501  0.13150306956E+00  0.39344125428E+02  0.30494794658E+02  0.50000000000E+02  0.47000000000E+01 0.  1.
</event>
<event>
 5    1  0.9071520E-001  0.1000000E+03  0.7546771E-02  0.1163815E+00
         11   -1    0    0    0    0  0.00000000000E+00  0.00000000000E+00  0.50000000000E+02  0.50000000000E+02  0.00000000000E+00 0. -1.
        -11   -1    0    0    0    0 -0.00000000000E+00 -0.00000000000E+00 -0.50000000000E+02  0.50000000000E+02  0.00000000000E+00 0.  1.
         23    2    1    2    0    0  0.00000000000E+00  0.00000000000E+00  0.00000000000E+00  0.10000000000E+03  0.10000000000E+03 0.  0.
          5    1    3    3  501    0 -0.16784458367E+02 -0.46134032338E+02  0.82366872898E+01  0.50000000000E+02  0.47000000000E+01 0. -1.
         -5    1    3    3    0  501  0.16784458367E+02  0.46134032338E+02 -0.82366872898E+01  0.50000000000E+02  0.47000000000E+01 0.  1.
</event>
<event>
 5    1  0.9071520E-001  0.1000000E+03  0.7546771E-02  0.1163815E+00
         11   -1    0    0    0    0  0.00000000000E+00  0.00000000000E+00  0.50000000000E+02  0.50000000000E+02  0.00000000000E+00 0. -1.
        -11   -1    0    0    0    0 -0.00000000000E+00 -0.00000000000E+00 -0.50000000000E+02  0.50000000000E+02  0.00000000000E+00 0.  1.
         23    2    1    2    0    0  0.00000000000E+00  0.00000000000E+00  0.00000000000E+00  0.10000000000E+03  0.10000000000E+03 0.  0.
          5    1    3    3  501    0 -0.46010427532E+02  0.99773169280E+01  0.16167983958E+02  0.50000000000E+02  0.47000000000E+01 0. -1.
         -5    1    3    3    0  501  0.46010427532E+02 -0.99773169280E+01 -0.16167983958E+02  0.50000000000E+02  0.47000000000E+01 0.  1.
</event>
<event>
 5    1  0.9071520E-001  0.1000000E+03  0.7546771E-02  0.1163815E+00
         11   -1    0    0    0    0  0.00000000000E+00  0.00000000000E+00  0.50000000000E+02  0.50000000000E+02  0.00000000000E+00 0. -1.
        -11   -1    0    0    0    0 -0.00000000000E+00 -0.00000000000E+00 -0.50000000000E+02  0.50000000000E+02  0.00000000000E+00 0.  1.
         23    2    1    2    0    0  0.00000000000E+00  0.00000000000E+00  0.00000000000E+00  0.10000000000E+03  0.10000000000E+03 0.  0.
          5    1    3    3  501    0  0.12586976079E+02 -0.40854158096E+02  0.25503250762E+02  0.50000000000E+02  0.47000000000E+01 0. -1.
         -5    1    3    3    0  501 -0.12586976079E+02  0.40854158096E+02 -0.25503250762E+02  0.50000000000E+02  0.47000000000E+01 0.  1.
</event>
<event>
 5    1  0.9071520E-001  0.1000000E+03  0.7546771E-02  0.1163815E+00
         11   -1    0    0    0    0  0.00000000000E+00  0.00000000000E+00  0.50000000000E+02  0.50000000000E+02  0.00000000000E+00 0. -1.
        -11   -1    0    0    0    0 -0.00000000000E+00 -0.00000000000E+00 -0.50000000000E+02  0.50000000000E+02  0.00000000000E+00 0.  1.
         23    2    1    2    0    0  0.00000000000E+00  0.00000000000E+00  0.00000000000E+00  0.10000000000E+03  0.10000000000E+03 0.  0.
          5    1    3    3  501    0  0.30915169918E+02  0.10053529648E+02  0.37697331611E+02  0.50000000000E+02  0.47000000000E+01 0. -1.
         -5    1    3    3    0  501 -0.30915169918E+02 -0.10053529648E+02 -0.37697331611E+02  0.50000000000E+02  0.47000000000E+01 0.  1.
</event>
<event>
 5    1  0.9071520E-001  0.1000000E+03  0.7546771E-02  0.1163815E+00
         11   -1    0    0    0    0  0.00000000000E+00  0.00000000000E+00  0.50000000000E+02  0.50000000000E+02  0.00000000000E+00 0.  1.
        -11   -1    0    0    0    0 -0.00000000000E+00 -0.00000000000E+00 -0.50000000000E+02  0.50000000000E+02  0.00000000000E+00 0. -1.
         23    2    1    2    0    0  0.00000000000E+00  0.00000000000E+00  0.00000000000E+00  0.10000000000E+03  0.10000000000E+03 0.  0.
          5    1    3    3  501    0 -0.21358995272E+02  0.41288286557E+02 -0.17803952207E+02  0.50000000000E+02  0.47000000000E+01 0. -1.
         -5    1    3    3    0  501  0.21358995272E+02 -0.41288286557E+02  0.17803952207E+02  0.50000000000E+02  0.47000000000E+01 0.  1.
</event>
<event>
 5    1  0.9071520E-001  0.1000000E+03  0.7546771E-02  0.1163815E+00
         11   -1    0    0    0    0  0.00000000000E+00  0.00000000000E+00  0.50000000000E+02  0.50000000000E+02  0.00000000000E+00 0. -1.
        -11   -1    0    0    0    0 -0.00000000000E+00 -0.00000000000E+00 -0.50000000000E+02  0.50000000000E+02  0.00000000000E+00 0.  1.
         23    2    1    2    0    0  0.00000000000E+00  0.00000000000E+00  0.00000000000E+00  0.10000000000E+03  0.10000000000E+03 0.  0.
          5    1    3    3  501    0 -0.31809794456E+02  0.29340058847E+02  0.24600974036E+02  0.50000000000E+02  0.47000000000E+01 0. -1.
         -5    1    3    3    0  501  0.31809794456E+02 -0.29340058847E+02 -0.24600974036E+02  0.50000000000E+02  0.47000000000E+01 0.  1.
</event>
<event>
 5    1  0.9071520E-001  0.1000000E+03  0.7546771E-02  0.1163815E+00
         11   -1    0    0    0    0  0.00000000000E+00  0.00000000000E+00  0.50000000000E+02  0.50000000000E+02  0.00000000000E+00 0. -1.
        -11   -1    0    0    0    0 -0.00000000000E+00 -0.00000000000E+00 -0.50000000000E+02  0.50000000000E+02  0.00000000000E+00 0.  1.
         23    2    1    2    0    0  0.00000000000E+00  0.00000000000E+00  0.00000000000E+00  0.10000000000E+03  0.10000000000E+03 0.  0.
          5    1    3    3  501    0  0.38265698734E+02 -0.25412275761E+01  0.31736232650E+02  0.50000000000E+02  0.47000000000E+01 0. -1.
         -5    1    3    3    0  501 -0.38265698734E+02  0.25412275761E+01 -0.31736232650E+02  0.50000000000E+02  0.47000000000E+01 0.  1.
</event>
<event>
 5    1  0.9071520E-001  0.1000000E+03  0.7546771E-02  0.1163815E+00
         11   -1    0    0    0    0  0.00000000000E+00  0.00000000000E+00  0.50000000000E+02  0.50000000000E+02  0.00000000000E+00 0.  1.
        -11   -1    0    0    0    0 -0.00000000000E+00 -0.00000000000E+00 -0.50000000000E+02  0.50000000000E+02  0.00000000000E+00 0. -1.
         23    2    1    2    0    0  0.00000000000E+00  0.00000000000E+00  0.00000000000E+00  0.10000000000E+03  0.10000000000E+03 0.  0.
          5    1    3    3  501    0 -0.45943345115E+02  0.13973386286E+02 -0.13109672587E+02  0.50000000000E+02  0.47000000000E+01 0. -1.
         -5    1    3    3    0  501  0.45943345115E+02 -0.13973386286E+02  0.13109672587E+02  0.50000000000E+02  0.47000000000E+01 0.  1.
</event>
<event>
 5    1  0.9071520E-001  0.1000000E+03  0.7546771E-02  0.1163815E+00
         11   -1    0    0    0    0  0.00000000000E+00  0.00000000000E+00  0.50000000000E+02  0.50000000000E+02  0.00000000000E+00 0. -1.
        -11   -1    0    0    0    0 -0.00000000000E+00 -0.00000000000E+00 -0.50000000000E+02  0.50000000000E+02  0.00000000000E+00 0.  1.
         23    2    1    2    0    0  0.00000000000E+00  0.00000000000E+00  0.00000000000E+00  0.10000000000E+03  0.10000000000E+03 0.  0.
          5    1    3    3  501    0 -0.14233331732E+02  0.15454433082E+02  0.45127405929E+02  0.50000000000E+02  0.47000000000E+01 0. -1.
         -5    1    3    3    0  501  0.14233331732E+02 -0.15454433082E+02 -0.45127405929E+02  0.50000000000E+02  0.47000000000E+01 0.  1.
</event>
<event>
 5    1  0.9071520E-001  0.1000000E+03  0.7546771E-02  0.1163815E+00
         11   -1    0    0    0    0  0.00000000000E+00  0.00000000000E+00  0.50000000000E+02  0.50000000000E+02  0.00000000000E+00 0. -1.
        -11   -1    0    0    0    0 -0.00000000000E+00 -0.00000000000E+00 -0.50000000000E+02  0.50000000000E+02  0.00000000000E+00 0.  1.
         23    2    1    2    0    0  0.00000000000E+00  0.00000000000E+00  0.00000000000E+00  0.10000000000E+03  0.10000000000E+03 0.  0.
          5    1    3    3  501    0 -0.38673766099E+01  0.35769717794E+02  0.34401754128E+02  0.50000000000E+02  0.47000000000E+01 0. -1.
         -5    1    3    3    0  501  0.38673766099E+01 -0.35769717794E+02 -0.34401754128E+02  0.50000000000E+02  0.47000000000E+01 0.  1.
</event>
<event>
 5    1  0.9071520E-001  0.1000000E+03  0.7546771E-02  0.1163815E+00
         11   -1    0    0    0    0  0.00000000000E+00  0.00000000000E+00  0.50000000000E+02  0.50000000000E+02  0.00000000000E+00 0.  1.
        -11   -1    0    0    0    0 -0.00000000000E+00 -0.00000000000E+00 -0.50000000000E+02  0.50000000000E+02  0.00000000000E+00 0. -1.
         23    2    1    2    0    0  0.00000000000E+00  0.00000000000E+00  0.00000000000E+00  0.10000000000E+03  0.10000000000E+03 0.  0.
          5    1    3    3  501    0 -0.39957770941E+02  0.28148886873E+02  0.94300959269E+01  0.50000000000E+02  0.47000000000E+01 0. -1.
         -5    1    3    3    0  501  0.39957770941E+02 -0.28148886873E+02 -0.94300959269E+01  0.50000000000E+02  0.47000000000E+01 0.  1.
</event>
<event>
 5    1  0.9071520E-001  0.1000000E+03  0.7546771E-02  0.1163815E+00
         11   -1    0    0    0    0  0.00000000000E+00  0.00000000000E+00  0.50000000000E+02  0.50000000000E+02  0.00000000000E+00 0. -1.
        -11   -1    0    0    0    0 -0.00000000000E+00 -0.00000000000E+00 -0.50000000000E+02  0.50000000000E+02  0.00000000000E+00 0.  1.
         23    2    1    2    0    0  0.00000000000E+00  0.00000000000E+00  0.00000000000E+00  0.10000000000E+03  0.10000000000E+03 0.  0.
          5    1    3    3  501    0  0.22807437185E+02 -0.98571176443E+01  0.43134302369E+02  0.50000000000E+02  0.47000000000E+01 0. -1.
         -5    1    3    3    0  501 -0.22807437185E+02  0.98571176443E+01 -0.43134302369E+02  0.50000000000E+02  0.47000000000E+01 0.  1.
</event>
<event>
 5    1  0.9071520E-001  0.1000000E+03  0.7546771E-02  0.1163815E+00
         11   -1    0    0    0    0  0.00000000000E+00  0.00000000000E+00  0.50000000000E+02  0.50000000000E+02  0.00000000000E+00 0.  1.
        -11   -1    0    0    0    0 -0.00000000000E+00 -0.00000000000E+00 -0.50000000000E+02  0.50000000000E+02  0.00000000000E+00 0. -1.
         23    2    1    2    0    0  0.00000000000E+00  0.00000000000E+00  0.00000000000E+00  0.10000000000E+03  0.10000000000E+03 0.  0.
          5    1    3    3  501    0  0.16680153001E+02 -0.39171371484E+02 -0.25793141568E+02  0.50000000000E+02  0.47000000000E+01 0. -1.
         -5    1    3    3    0  501 -0.16680153001E+02  0.39171371484E+02  0.25793141568E+02  0.50000000000E+02  0.47000000000E+01 0.  1.
</event>
<event>
 5    1  0.9071520E-001  0.1000000E+03  0.7546771E-02  0.1163815E+00
         11   -1    0    0    0    0  0.00000000000E+00  0.00000000000E+00  0.50000000000E+02  0.50000000000E+02  0.00000000000E+00 0.  1.
        -11   -1    0    0    0    0 -0.00000000000E+00 -0.00000000000E+00 -0.50000000000E+02  0.50000000000E+02  0.00000000000E+00 0. -1.
         23    2    1    2    0    0  0.00000000000E+00  0.00000000000E+00  0.00000000000E+00  0.10000000000E+03  0.10000000000E+03 0.  0.
          5    1    3    3  501    0 -0.13437377104E+01 -0.15275457643E+02 -0.47357837395E+02  0.50000000000E+02  0.47000000000E+01 0. -1.
         -5    1    3    3    0  501  0.13437377104E+01  0.15275457643E+02  0.47357837395E+02  0.50000000000E+02  0.47000000000E+01 0.  1.
</event>
<event>
 5    1  0.9071520E-001  0.1000000E+03  0.7546771E-02  0.1163815E+00
         11   -1    0    0    0    0  0.00000000000E+00  0.00000000000E+00  0.50000000000E+02  0.50000000000E+02  0.00000000000E+00 0.  1.
        -11   -1    0    0    0    0 -0.00000000000E+00 -0.00000000000E+00 -0.50000000000E+02  0.50000000000E+02  0.00000000000E+00 0. -1.
         23    2    1    2    0    0  0.00000000000E+00  0.00000000000E+00  0.00000000000E+00  0.10000000000E+03  0.10000000000E+03 0.  0.
          5    1    3    3  501    0 -0.35157688655E+02 -0.13840483926E+02 -0.32408146092E+02  0.50000000000E+02  0.47000000000E+01 0. -1.
         -5    1    3    3    0  501  0.35157688655E+02  0.13840483926E+02  0.32408146092E+02  0.50000000000E+02  0.47000000000E+01 0.  1.
</event>
<event>
 5    1  0.9071520E-001  0.1000000E+03  0.7546771E-02  0.1163815E+00
         11   -1    0    0    0    0  0.00000000000E+00  0.00000000000E+00  0.50000000000E+02  0.50000000000E+02  0.00000000000E+00 0. -1.
        -11   -1    0    0    0    0 -0.00000000000E+00 -0.00000000000E+00 -0.50000000000E+02  0.50000000000E+02  0.00000000000E+00 0.  1.
         23    2    1    2    0    0  0.00000000000E+00  0.00000000000E+00  0.00000000000E+00  0.10000000000E+03  0.10000000000E+03 0.  0.
          5    1    3    3  501    0 -0.42364324918E+02  0.18516536345E+02  0.18447543359E+02  0.50000000000E+02  0.47000000000E+01 0. -1.
         -5    1    3    3    0  501  0.42364324918E+02 -0.18516536345E+02 -0.18447543359E+02  0.50000000000E+02  0.47000000000E+01 0.  1.
</event>
<event>
 5    1  0.9071520E-001  0.1000000E+03  0.7546771E-02  0.1163815E+00
         11   -1    0    0    0    0  0.00000000000E+00  0.00000000000E+00  0.50000000000E+02  0.50000000000E+02  0.00000000000E+00 0.  1.
        -11   -1    0    0    0    0 -0.00000000000E+00 -0.00000000000E+00 -0.50000000000E+02  0.50000000000E+02  0.00000000000E+00 0. -1.
         23    2    1    2    0    0  0.00000000000E+00  0.00000000000E+00  0.00000000000E+00  0.10000000000E+03  0.10000000000E+03 0.  0.
          5    1    3    3  501    0 -0.31100277238E+02 -0.51387894316E+01 -0.38526297498E+02  0.50000000000E+02  0.47000000000E+01 0. -1.
         -5    1    3    3    0  501  0.31100277238E+02  0.51387894316E+01  0.38526297498E+02  0.50000000000E+02  0.47000000000E+01 0.  1.
</event>
<event>
 5    1  0.9071520E-001  0.1000000E+03  0.7546771E-02  0.1163815E+00
         11   -1    0    0    0    0  0.00000000000E+00  0.00000000000E+00  0.50000000000E+02  0.50000000000E+02  0.00000000000E+00 0.  1.
        -11   -1    0    0    0    0 -0.00000000000E+00 -0.00000000000E+00 -0.50000000000E+02  0.50000000000E+02  0.00000000000E+00 0. -1.
         23    2    1    2    0    0  0.00000000000E+00  0.00000000000E+00  0.00000000000E+00  0.10000000000E+03  0.10000000000E+03 0.  0.
          5    1    3    3  501    0  0.15171073270E+02  0.11996616495E+02 -0.45867523680E+02  0.50000000000E+02  0.47000000000E+01 0. -1.
         -5    1    3    3    0  501 -0.15171073270E+02 -0.11996616495E+02  0.45867523680E+02  0.50000000000E+02  0.47000000000E+01 0.  1.
</event>
<event>
 5    1  0.9071520E-001  0.1000000E+03  0.7546771E-02  0.1163815E+00
         11   -1    0    0    0    0  0.00000000000E+00  0.00000000000E+00  0.50000000000E+02  0.50000000000E+02  0.00000000000E+00 0.  1.
        -11   -1    0    0    0    0 -0.00000000000E+00 -0.00000000000E+00 -0.50000000000E+02  0.50000000000E+02  0.00000000000E+00 0. -1.
         23    2    1    2    0    0  0.00000000000E+00  0.00000000000E+00  0.00000000000E+00  0.10000000000E+03  0.10000000000E+03 0.  0.
          5    1    3    3  501    0 -0.31498995496E+02 -0.16298240096E+02 -0.34929796056E+02  0.50000000000E+02  0.47000000000E+01 0. -1.
         -5    1    3    3    0  501  0.31498995496E+02  0.16298240096E+02  0.34929796056E+02  0.50000000000E+02  0.47000000000E+01 0.  1.
</event>
<event>
 5    1  0.9071520E-001  0.1000000E+03  0.7546771E-02  0.1163815E+00
         11   -1    0    0    0    0  0.00000000000E+00  0.00000000000E+00  0.50000000000E+02  0.50000000000E+02  0.00000000000E+00 0. -1.
        -11   -1    0    0    0    0 -0.00000000000E+00 -0.00000000000E+00 -0.50000000000E+02  0.50000000000E+02  0.00000000000E+00 0.  1.
         23    2    1    2    0    0  0.00000000000E+00  0.00000000000E+00  0.00000000000E+00  0.10000000000E+03  0.10000000000E+03 0.  0.
          5    1    3    3  501    0 -0.29150210164E+02  0.39694029088E+02  0.72497794527E+01  0.50000000000E+02  0.47000000000E+01 0. -1.
         -5    1    3    3    0  501  0.29150210164E+02 -0.39694029088E+02 -0.72497794527E+01  0.50000000000E+02  0.47000000000E+01 0.  1.
</event>
<event>
 5    1  0.9071520E-001  0.1000000E+03  0.7546771E-02  0.1163815E+00
         11   -1    0    0    0    0  0.00000000000E+00  0.00000000000E+00  0.50000000000E+02  0.50000000000E+02  0.00000000000E+00 0. -1.
        -11   -1    0    0    0    0 -0.00000000000E+00 -0.00000000000E+00 -0.50000000000E+02  0.50000000000E+02  0.00000000000E+00 0.  1.
         23    2    1    2    0    0  0.00000000000E+00  0.00000000000E+00  0.00000000000E+00  0.10000000000E+03  0.10000000000E+03 0.  0.
          5    1    3    3  501    0  0.39476007866E+02 -0.98971982088E+01  0.28663570443E+02  0.50000000000E+02  0.47000000000E+01 0. -1.
         -5    1    3    3    0  501 -0.39476007866E+02  0.98971982088E+01 -0.28663570443E+02  0.50000000000E+02  0.47000000000E+01 0.  1.
</event>
<event>
 5    1  0.9071520E-001  0.1000000E+03  0.7546771E-02  0.1163815E+00
         11   -1    0    0    0    0  0.00000000000E+00  0.00000000000E+00  0.50000000000E+02  0.50000000000E+02  0.00000000000E+00 0. -1.
        -11   -1    0    0    0    0 -0.00000000000E+00 -0.00000000000E+00 -0.50000000000E+02  0.50000000000E+02  0.00000000000E+00 0.  1.
         23    2    1    2    0    0  0.00000000000E+00  0.00000000000E+00  0.00000000000E+00  0.10000000000E+03  0.10000000000E+03 0.  0.
          5    1    3    3  501    0 -0.11765249966E+02  0.29859700890E+02  0.38051112415E+02  0.50000000000E+02  0.47000000000E+01 0. -1.
         -5    1    3    3    0  501  0.11765249966E+02 -0.29859700890E+02 -0.38051112415E+02  0.50000000000E+02  0.47000000000E+01 0.  1.
</event>
<event>
 5    1  0.9071520E-001  0.1000000E+03  0.7546771E-02  0.1163815E+00
         11   -1    0    0    0    0  0.00000000000E+00  0.00000000000E+00  0.50000000000E+02  0.50000000000E+02  0.00000000000E+00 0. -1.
        -11   -1    0    0    0    0 -0.00000000000E+00 -0.00000000000E+00 -0.50000000000E+02  0.50000000000E+02  0.00000000000E+00 0.  1.
         23    2    1    2    0    0  0.00000000000E+00  0.00000000000E+00  0.00000000000E+00  0.10000000000E+03  0.10000000000E+03 0.  0.
          5    1    3    3  501    0 -0.46227475113E+02  0.16772720513E+02 -0.77205175538E+01  0.50000000000E+02  0.47000000000E+01 0. -1.
         -5    1    3    3    0  501  0.46227475113E+02 -0.16772720513E+02  0.77205175538E+01  0.50000000000E+02  0.47000000000E+01 0.  1.
</event>
<event>
 5    1  0.9071520E-001  0.1000000E+03  0.7546771E-02  0.1163815E+00
         11   -1    0    0    0    0  0.00000000000E+00  0.00000000000E+00  0.50000000000E+02  0.50000000000E+02  0.00000000000E+00 0. -1.
        -11   -1    0    0    0    0 -0.00000000000E+00 -0.00000000000E+00 -0.50000000000E+02  0.50000000000E+02  0.00000000000E+00 0.  1.
         23    2    1    2    0    0  0.00000000000E+00  0.00000000000E+00  0.00000000000E+00  0.10000000000E+03  0.10000000000E+03 0.  0.
          5    1    3    3  501    0  0.17368637133E+01  0.13779497746E+02  0.47801869695E+02  0.50000000000E+02  0.47000000000E+01 0. -1.
         -5    1    3    3    0  501 -0.17368637133E+01 -0.13779497746E+02 -0.47801869695E+02  0.50000000000E+02  0.47000000000E+01 0.  1.
</event>
<event>
 5    1  0.9071520E-001  0.1000000E+03  0.7546771E-02  0.1163815E+00
         11   -1    0    0    0    0  0.00000000000E+00  0.00000000000E+00  0.50000000000E+02  0.50000000000E+02  0.00000000000E+00 0. -1.
        -11   -1    0    0    0    0 -0.00000000000E+00 -0.00000000000E+00 -0.50000000000E+02  0.50000000000E+02  0.00000000000E+00 0.  1.
         23    2    1    2    0    0  0.00000000000E+00  0.00000000000E+00  0.00000000000E+00  0.10000000000E+03  0.10000000000E+03 0.  0.
          5    1    3    3  501    0  0.45878077241E+02 -0.56044588851E+01  0.18485185129E+02  0.50000000000E+02  0.47000000000E+01 0. -1.
         -5    1    3    3    0  501 -0.45878077241E+02  0.56044588851E+01 -0.18485185129E+02  0.50000000000E+02  0.47000000000E+01 0.  1.
</event>
<event>
 5    1  0.9071520E-001  0.1000000E+03  0.7546771E-02  0.1163815E+00
         11   -1    0    0    0    0  0.00000000000E+00  0.00000000000E+00  0.50000000000E+02  0.50000000000E+02  0.00000000000E+00 0.  1.
        -11   -1    0    0    0    0 -0.00000000000E+00 -0.00000000000E+00 -0.50000000000E+02  0.50000000000E+02  0.00000000000E+00 0. -1.
         23    2    1    2    0    0  0.00000000000E+00  0.00000000000E+00  0.00000000000E+00  0.10000000000E+03  0.10000000000E+03 0.  0.
          5    1    3    3  501    0 -0.48669453647E+02 -0.10399799546E+02  0.10190442106E+01  0.50000000000E+02  0.47000000000E+01 0.  1.
         -5    1    3    3    0  501  0.48669453647E+02  0.10399799546E+02 -0.10190442106E+01  0.50000000000E+02  0.47000000000E+01 0. -1.
</event>
<event>
 5    1  0.9071520E-001  0.1000000E+03  0.7546771E-02  0.1163815E+00
         11   -1    0    0    0    0  0.00000000000E+00  0.00000000000E+00  0.50000000000E+02  0.50000000000E+02  0.00000000000E+00 0. -1.
        -11   -1    0    0    0    0 -0.00000000000E+00 -0.00000000000E+00 -0.50000000000E+02  0.50000000000E+02  0.00000000000E+00 0.  1.
         23    2    1    2    0    0  0.00000000000E+00  0.00000000000E+00  0.00000000000E+00  0.10000000000E+03  0.10000000000E+03 0.  0.
          5    1    3    3  501    0 -0.11621118840E+02  0.46196637682E+02 -0.14447500261E+02  0.50000000000E+02  0.47000000000E+01 0. -1.
         -5    1    3    3    0  501  0.11621118840E+02 -0.46196637682E+02  0.14447500261E+02  0.50000000000E+02  0.47000000000E+01 0.  1.
</event>
<event>
 5    1  0.9071520E-001  0.1000000E+03  0.7546771E-02  0.1163815E+00
         11   -1    0    0    0    0  0.00000000000E+00  0.00000000000E+00  0.50000000000E+02  0.50000000000E+02  0.00000000000E+00 0. -1.
        -11   -1    0    0    0    0 -0.00000000000E+00 -0.00000000000E+00 -0.50000000000E+02  0.50000000000E+02  0.00000000000E+00 0.  1.
         23    2    1    2    0    0  0.00000000000E+00  0.00000000000E+00  0.00000000000E+00  0.10000000000E+03  0.10000000000E+03 0.  0.
          5    1    3    3  501    0  0.99995970847E+01  0.28845142650E+02  0.39317627137E+02  0.50000000000E+02  0.47000000000E+01 0. -1.
         -5    1    3    3    0  501 -0.99995970847E+01 -0.28845142650E+02 -0.39317627137E+02  0.50000000000E+02  0.47000000000E+01 0.  1.
</event>
<event>
 5    1  0.9071520E-001  0.1000000E+03  0.7546771E-02  0.1163815E+00
         11   -1    0    0    0    0  0.00000000000E+00  0.00000000000E+00  0.50000000000E+02  0.50000000000E+02  0.00000000000E+00 0.  1.
        -11   -1    0    0    0    0 -0.00000000000E+00 -0.00000000000E+00 -0.50000000000E+02  0.50000000000E+02  0.00000000000E+00 0. -1.
         23    2    1    2    0    0  0.00000000000E+00  0.00000000000E+00  0.00000000000E+00  0.10000000000E+03  0.10000000000E+03 0.  0.
          5    1    3    3  501    0  0.61173684709E+01 -0.37806827652E+02 -0.31798295330E+02  0.50000000000E+02  0.47000000000E+01 0. -1.
         -5    1    3    3    0  501 -0.61173684709E+01  0.37806827652E+02  0.31798295330E+02  0.50000000000E+02  0.47000000000E+01 0.  1.
</event>
<event>
 5    1  0.9071520E-001  0.1000000E+03  0.7546771E-02  0.1163815E+00
         11   -1    0    0    0    0  0.00000000000E+00  0.00000000000E+00  0.50000000000E+02  0.50000000000E+02  0.00000000000E+00 0.  1.
        -11   -1    0    0    0    0 -0.00000000000E+00 -0.00000000000E+00 -0.50000000000E+02  0.50000000000E+02  0.00000000000E+00 0. -1.
         23    2    1    2    0    0  0.00000000000E+00  0.00000000000E+00  0.00000000000E+00  0.10000000000E+03  0.10000000000E+03 0.  0.
          5    1    3    3  501    0 -0.15449656961E+02 -0.46616688910E+02  0.81303391594E+01  0.50000000000E+02  0.47000000000E+01 0.  1.
         -5    1    3    3    0  501  0.15449656961E+02  0.46616688910E+02 -0.81303391594E+01  0.50000000000E+02  0.47000000000E+01 0. -1.
</event>
<event>
 5    1  0.9071520E-001  0.1000000E+03  0.7546771E-02  0.1163815E+00
         11   -1    0    0    0    0  0.00000000000E+00  0.00000000000E+00  0.50000000000E+02  0.50000000000E+02  0.00000000000E+00 0. -1.
        -11   -1    0    0    0    0 -0.00000000000E+00 -0.00000000000E+00 -0.50000000000E+02  0.50000000000E+02  0.00000000000E+00 0.  1.
         23    2    1    2    0    0  0.00000000000E+00  0.00000000000E+00  0.00000000000E+00  0.10000000000E+03  0.10000000000E+03 0.  0.
          5    1    3    3  501    0  0.21195730648E+02  0.25831790389E+02  0.36896742506E+02  0.50000000000E+02  0.47000000000E+01 0. -1.
         -5    1    3    3    0  501 -0.21195730648E+02 -0.25831790389E+02 -0.36896742506E+02  0.50000000000E+02  0.47000000000E+01 0.  1.
</event>
<event>
 5    1  0.9071520E-001  0.1000000E+03  0.7546771E-02  0.1163815E+00
         11   -1    0    0    0    0  0.00000000000E+00  0.00000000000E+00  0.50000000000E+02  0.50000000000E+02  0.00000000000E+00 0. -1.
        -11   -1    0    0    0    0 -0.00000000000E+00 -0.00000000000E+00 -0.50000000000E+02  0.50000000000E+02  0.00000000000E+00 0.  1.
         23    2    1    2    0    0  0.00000000000E+00  0.00000000000E+00  0.00000000000E+00  0.10000000000E+03  0.10000000000E+03 0.  0.
          5    1    3    3  501    0  0.35298024661E+02 -0.21571165035E+02  0.27688342205E+02  0.50000000000E+02  0.47000000000E+01 0. -1.
         -5    1    3    3    0  501 -0.35298024661E+02  0.21571165035E+02 -0.27688342205E+02  0.50000000000E+02  0.47000000000E+01 0.  1.
</event>
<event>
 5    1  0.9071520E-001  0.1000000E+03  0.7546771E-02  0.1163815E+00
         11   -1    0    0    0    0  0.00000000000E+00  0.00000000000E+00  0.50000000000E+02  0.50000000000E+02  0.00000000000E+00 0. -1.
        -11   -1    0    0    0    0 -0.00000000000E+00 -0.00000000000E+00 -0.50000000000E+02  0.50000000000E+02  0.00000000000E+00 0.  1.
         23    2    1    2    0    0  0.00000000000E+00  0.00000000000E+00  0.00000000000E+00  0.10000000000E+03  0.10000000000E+03 0.  0.
          5    1    3    3  501    0 -0.14773614103E+01  0.40933877619E+02  0.28286835566E+02  0.50000000000E+02  0.47000000000E+01 0. -1.
         -5    1    3    3    0  501  0.14773614103E+01 -0.40933877619E+02 -0.28286835566E+02  0.50000000000E+02  0.47000000000E+01 0.  1.
</event>
<event>
 5    1  0.9071520E-001  0.1000000E+03  0.7546771E-02  0.1163815E+00
         11   -1    0    0    0    0  0.00000000000E+00  0.00000000000E+00  0.50000000000E+02  0.50000000000E+02  0.00000000000E+00 0. -1.
        -11   -1    0    0    0    0 -0.00000000000E+00 -0.00000000000E+00 -0.50000000000E+02  0.50000000000E+02  0.00000000000E+00 0.  1.
         23    2    1    2    0    0  0.00000000000E+00  0.00000000000E+00  0.00000000000E+00  0.10000000000E+03  0.10000000000E+03 0.  0.
          5    1    3    3  501    0 -0.48762453844E+02 -0.69376649647E+01 -0.72112342886E+01  0.50000000000E+02  0.47000000000E+01 0. -1.
         -5    1    3    3    0  501  0.48762453844E+02  0.69376649647E+01  0.72112342886E+01  0.50000000000E+02  0.47000000000E+01 0.  1.
</event>
<event>
 5    1  0.9071520E-001  0.1000000E+03  0.7546771E-02  0.1163815E+00
         11   -1    0    0    0    0  0.00000000000E+00  0.00000000000E+00  0.50000000000E+02  0.50000000000E+02  0.00000000000E+00 0. -1.
        -11   -1    0    0    0    0 -0.00000000000E+00 -0.00000000000E+00 -0.50000000000E+02  0.50000000000E+02  0.00000000000E+00 0.  1.
         23    2    1    2    0    0  0.00000000000E+00  0.00000000000E+00  0.00000000000E+00  0.10000000000E+03  0.10000000000E+03 0.  0.
          5    1    3    3  501    0  0.36266150442E+02 -0.24667335222E+02  0.23541429547E+02  0.50000000000E+02  0.47000000000E+01 0. -1.
         -5    1    3    3    0  501 -0.36266150442E+02  0.24667335222E+02 -0.23541429547E+02  0.50000000000E+02  0.47000000000E+01 0.  1.
</event>
<event>
 5    1  0.9071520E-001  0.1000000E+03  0.7546771E-02  0.1163815E+00
         11   -1    0    0    0    0  0.00000000000E+00  0.00000000000E+00  0.50000000000E+02  0.50000000000E+02  0.00000000000E+00 0. -1.
        -11   -1    0    0    0    0 -0.00000000000E+00 -0.00000000000E+00 -0.50000000000E+02  0.50000000000E+02  0.00000000000E+00 0.  1.
         23    2    1    2    0    0  0.00000000000E+00  0.00000000000E+00  0.00000000000E+00  0.10000000000E+03  0.10000000000E+03 0.  0.
          5    1    3    3  501    0 -0.46042187417E+02 -0.15968786954E+02  0.10150114341E+02  0.50000000000E+02  0.47000000000E+01 0. -1.
         -5    1    3    3    0  501  0.46042187417E+02  0.15968786954E+02 -0.10150114341E+02  0.50000000000E+02  0.47000000000E+01 0.  1.
</event>
<event>
 5    1  0.9071520E-001  0.1000000E+03  0.7546771E-02  0.1163815E+00
         11   -1    0    0    0    0  0.00000000000E+00  0.00000000000E+00  0.50000000000E+02  0.50000000000E+02  0.00000000000E+00 0. -1.
        -11   -1    0    0    0    0 -0.00000000000E+00 -0.00000000000E+00 -0.50000000000E+02  0.50000000000E+02  0.00000000000E+00 0.  1.
         23    2    1    2    0    0  0.00000000000E+00  0.00000000000E+00  0.00000000000E+00  0.10000000000E+03  0.10000000000E+03 0.  0.
          5    1    3    3  501    0  0.10596494540E+02  0.39393734840E+02  0.28526443150E+02  0.50000000000E+02  0.47000000000E+01 0. -1.
         -5    1    3    3    0  501 -0.10596494540E+02 -0.39393734840E+02 -0.28526443150E+02  0.50000000000E+02  0.47000000000E+01 0.  1.
</event>
<event>
 5    1  0.9071520E-001  0.1000000E+03  0.7546771E-02  0.1163815E+00
         11   -1    0    0    0    0  0.00000000000E+00  0.00000000000E+00  0.50000000000E+02  0.50000000000E+02  0.00000000000E+00 0. -1.
        -11   -1    0    0    0    0 -0.00000000000E+00 -0.00000000000E+00 -0.50000000000E+02  0.50000000000E+02  0.00000000000E+00 0.  1.
         23    2    1    2    0    0  0.00000000000E+00  0.00000000000E+00  0.00000000000E+00  0.10000000000E+03  0.10000000000E+03 0.  0.
          5    1    3    3  501    0  0.42548115754E+02  0.22468543373E+02  0.12756661179E+02  0.50000000000E+02  0.47000000000E+01 0. -1.
         -5    1    3    3    0  501 -0.42548115754E+02 -0.22468543373E+02 -0.12756661179E+02  0.50000000000E+02  0.47000000000E+01 0.  1.
</event>
<event>
 5    1  0.9071520E-001  0.1000000E+03  0.7546771E-02  0.1163815E+00
         11   -1    0    0    0    0  0.00000000000E+00  0.00000000000E+00  0.50000000000E+02  0.50000000000E+02  0.00000000000E+00 0. -1.
        -11   -1    0    0    0    0 -0.00000000000E+00 -0.00000000000E+00 -0.50000000000E+02  0.50000000000E+02  0.00000000000E+00 0.  1.
         23    2    1    2    0    0  0.00000000000E+00  0.00000000000E+00  0.00000000000E+00  0.10000000000E+03  0.10000000000E+03 0.  0.
          5    1    3    3  501    0 -0.19529152054E+02  0.77153700521E+01  0.45133084151E+02  0.50000000000E+02  0.47000000000E+01 0. -1.
         -5    1    3    3    0  501  0.19529152054E+02 -0.77153700521E+01 -0.45133084151E+02  0.50000000000E+02  0.47000000000E+01 0.  1.
</event>
<event>
 5    1  0.9071520E-001  0.1000000E+03  0.7546771E-02  0.1163815E+00
         11   -1    0    0    0    0  0.00000000000E+00  0.00000000000E+00  0.50000000000E+02  0.50000000000E+02  0.00000000000E+00 0. -1.
        -11   -1    0    0    0    0 -0.00000000000E+00 -0.00000000000E+00 -0.50000000000E+02  0.50000000000E+02  0.00000000000E+00 0.  1.
         23    2    1    2    0    0  0.00000000000E+00  0.00000000000E+00  0.00000000000E+00  0.10000000000E+03  0.10000000000E+03 0.  0.
          5    1    3    3  501    0 -0.28289711251E+02  0.25391618465E+02  0.32138263006E+02  0.50000000000E+02  0.47000000000E+01 0. -1.
         -5    1    3    3    0  501  0.28289711251E+02 -0.25391618465E+02 -0.32138263006E+02  0.50000000000E+02  0.47000000000E+01 0.  1.
</event>
<event>
 5    1  0.9071520E-001  0.1000000E+03  0.7546771E-02  0.1163815E+00
         11   -1    0    0    0    0  0.00000000000E+00  0.00000000000E+00  0.50000000000E+02  0.50000000000E+02  0.00000000000E+00 0. -1.
        -11   -1    0    0    0    0 -0.00000000000E+00 -0.00000000000E+00 -0.50000000000E+02  0.50000000000E+02  0.00000000000E+00 0.  1.
         23    2    1    2    0    0  0.00000000000E+00  0.00000000000E+00  0.00000000000E+00  0.10000000000E+03  0.10000000000E+03 0.  0.
          5    1    3    3  501    0 -0.20155985762E+02 -0.66687557686E+01  0.45024148348E+02  0.50000000000E+02  0.47000000000E+01 0. -1.
         -5    1    3    3    0  501  0.20155985762E+02  0.66687557686E+01 -0.45024148348E+02  0.50000000000E+02  0.47000000000E+01 0.  1.
</event>
<event>
 5    1  0.9071520E-001  0.1000000E+03  0.7546771E-02  0.1163815E+00
         11   -1    0    0    0    0  0.00000000000E+00  0.00000000000E+00  0.50000000000E+02  0.50000000000E+02  0.00000000000E+00 0. -1.
        -11   -1    0    0    0    0 -0.00000000000E+00 -0.00000000000E+00 -0.50000000000E+02  0.50000000000E+02  0.00000000000E+00 0.  1.
         23    2    1    2    0    0  0.00000000000E+00  0.00000000000E+00  0.00000000000E+00  0.10000000000E+03  0.10000000000E+03 0.  0.
          5    1    3    3  501    0  0.18840269476E+02 -0.35530491800E+02  0.29334934779E+02  0.50000000000E+02  0.47000000000E+01 0. -1.
         -5    1    3    3    0  501 -0.18840269476E+02  0.35530491800E+02 -0.29334934779E+02  0.50000000000E+02  0.47000000000E+01 0.  1.
</event>
<event>
 5    1  0.9071520E-001  0.1000000E+03  0.7546771E-02  0.1163815E+00
         11   -1    0    0    0    0  0.00000000000E+00  0.00000000000E+00  0.50000000000E+02  0.50000000000E+02  0.00000000000E+00 0.  1.
        -11   -1    0    0    0    0 -0.00000000000E+00 -0.00000000000E+00 -0.50000000000E+02  0.50000000000E+02  0.00000000000E+00 0. -1.
         23    2    1    2    0    0  0.00000000000E+00  0.00000000000E+00  0.00000000000E+00  0.10000000000E+03  0.10000000000E+03 0.  0.
          5    1    3    3  501    0  0.97899094301E+01  0.24875745534E+02 -0.41991248582E+02  0.50000000000E+02  0.47000000000E+01 0. -1.
         -5    1    3    3    0  501 -0.97899094301E+01 -0.24875745534E+02  0.41991248582E+02  0.50000000000E+02  0.47000000000E+01 0.  1.
</event>
<event>
 5    1  0.9071520E-001  0.1000000E+03  0.7546771E-02  0.1163815E+00
         11   -1    0    0    0    0  0.00000000000E+00  0.00000000000E+00  0.50000000000E+02  0.50000000000E+02  0.00000000000E+00 0.  1.
        -11   -1    0    0    0    0 -0.00000000000E+00 -0.00000000000E+00 -0.50000000000E+02  0.50000000000E+02  0.00000000000E+00 0. -1.
         23    2    1    2    0    0  0.00000000000E+00  0.00000000000E+00  0.00000000000E+00  0.10000000000E+03  0.10000000000E+03 0.  0.
          5    1    3    3  501    0 -0.24976068407E+02 -0.34158387226E+02 -0.26216609030E+02  0.50000000000E+02  0.47000000000E+01 0. -1.
         -5    1    3    3    0  501  0.24976068407E+02  0.34158387226E+02  0.26216609030E+02  0.50000000000E+02  0.47000000000E+01 0.  1.
</event>
<event>
 5    1  0.9071520E-001  0.1000000E+03  0.7546771E-02  0.1163815E+00
         11   -1    0    0    0    0  0.00000000000E+00  0.00000000000E+00  0.50000000000E+02  0.50000000000E+02  0.00000000000E+00 0. -1.
        -11   -1    0    0    0    0 -0.00000000000E+00 -0.00000000000E+00 -0.50000000000E+02  0.50000000000E+02  0.00000000000E+00 0.  1.
         23    2    1    2    0    0  0.00000000000E+00  0.00000000000E+00  0.00000000000E+00  0.10000000000E+03  0.10000000000E+03 0.  0.
          5    1    3    3  501    0  0.40424070480E+02  0.24749113296E+02  0.15208087219E+02  0.50000000000E+02  0.47000000000E+01 0. -1.
         -5    1    3    3    0  501 -0.40424070480E+02 -0.24749113296E+02 -0.15208087219E+02  0.50000000000E+02  0.47000000000E+01 0.  1.
</event>
<event>
 5    1  0.9071520E-001  0.1000000E+03  0.7546771E-02  0.1163815E+00
         11   -1    0    0    0    0  0.00000000000E+00  0.00000000000E+00  0.50000000000E+02  0.50000000000E+02  0.00000000000E+00 0. -1.
        -11   -1    0    0    0    0 -0.00000000000E+00 -0.00000000000E+00 -0.50000000000E+02  0.50000000000E+02  0.00000000000E+00 0.  1.
         23    2    1    2    0    0  0.00000000000E+00  0.00000000000E+00  0.00000000000E+00  0.10000000000E+03  0.10000000000E+03 0.  0.
          5    1    3    3  501    0  0.12609028606E+02  0.47011020652E+02  0.10434861518E+02  0.50000000000E+02  0.47000000000E+01 0. -1.
         -5    1    3    3    0  501 -0.12609028606E+02 -0.47011020652E+02 -0.10434861518E+02  0.50000000000E+02  0.47000000000E+01 0.  1.
</event>
<event>
 5    1  0.9071520E-001  0.1000000E+03  0.7546771E-02  0.1163815E+00
         11   -1    0    0    0    0  0.00000000000E+00  0.00000000000E+00  0.50000000000E+02  0.50000000000E+02  0.00000000000E+00 0. -1.
        -11   -1    0    0    0    0 -0.00000000000E+00 -0.00000000000E+00 -0.50000000000E+02  0.50000000000E+02  0.00000000000E+00 0.  1.
         23    2    1    2    0    0  0.00000000000E+00  0.00000000000E+00  0.00000000000E+00  0.10000000000E+03  0.10000000000E+03 0.  0.
          5    1    3    3  501    0  0.36251661041E+02 -0.17187905793E+02  0.29466980949E+02  0.50000000000E+02  0.47000000000E+01 0. -1.
         -5    1    3    3    0  501 -0.36251661041E+02  0.17187905793E+02 -0.29466980949E+02  0.50000000000E+02  0.47000000000E+01 0.  1.
</event>
<event>
 5    1  0.9071520E-001  0.1000000E+03  0.7546771E-02  0.1163815E+00
         11   -1    0    0    0    0  0.00000000000E+00  0.00000000000E+00  0.50000000000E+02  0.50000000000E+02  0.00000000000E+00 0. -1.
        -11   -1    0    0    0    0 -0.00000000000E+00 -0.00000000000E+00 -0.50000000000E+02  0.50000000000E+02  0.00000000000E+00 0.  1.
         23    2    1    2    0    0  0.00000000000E+00  0.00000000000E+00  0.00000000000E+00  0.10000000000E+03  0.10000000000E+03 0.  0.
          5    1    3    3  501    0  0.34903098202E+02  0.23502274889E+02 -0.26595616386E+02  0.50000000000E+02  0.47000000000E+01 0. -1.
         -5    1    3    3    0  501 -0.34903098202E+02 -0.23502274889E+02  0.26595616386E+02  0.50000000000E+02  0.47000000000E+01 0.  1.
</event>
<event>
 5    1  0.9071520E-001  0.1000000E+03  0.7546771E-02  0.1163815E+00
         11   -1    0    0    0    0  0.00000000000E+00  0.00000000000E+00  0.50000000000E+02  0.50000000000E+02  0.00000000000E+00 0. -1.
        -11   -1    0    0    0    0 -0.00000000000E+00 -0.00000000000E+00 -0.50000000000E+02  0.50000000000E+02  0.00000000000E+00 0.  1.
         23    2    1    2    0    0  0.00000000000E+00  0.00000000000E+00  0.00000000000E+00  0.10000000000E+03  0.10000000000E+03 0.  0.
          5    1    3    3  501    0  0.12634173910E+02  0.94917107830E+01  0.47203761249E+02  0.50000000000E+02  0.47000000000E+01 0. -1.
         -5    1    3    3    0  501 -0.12634173910E+02 -0.94917107830E+01 -0.47203761249E+02  0.50000000000E+02  0.47000000000E+01 0.  1.
</event>
<event>
 5    1  0.9071520E-001  0.1000000E+03  0.7546771E-02  0.1163815E+00
         11   -1    0    0    0    0  0.00000000000E+00  0.00000000000E+00  0.50000000000E+02  0.50000000000E+02  0.00000000000E+00 0. -1.
        -11   -1    0    0    0    0 -0.00000000000E+00 -0.00000000000E+00 -0.50000000000E+02  0.50000000000E+02  0.00000000000E+00 0.  1.
         23    2    1    2    0    0  0.00000000000E+00  0.00000000000E+00  0.00000000000E+00  0.10000000000E+03  0.10000000000E+03 0.  0.
          5    1    3    3  501    0  0.37263312622E+01  0.26279653903E+02  0.42111806492E+02  0.50000000000E+02  0.47000000000E+01 0. -1.
         -5    1    3    3    0  501 -0.37263312622E+01 -0.26279653903E+02 -0.42111806492E+02  0.50000000000E+02  0.47000000000E+01 0.  1.
</event>
<event>
 5    1  0.9071520E-001  0.1000000E+03  0.7546771E-02  0.1163815E+00
         11   -1    0    0    0    0  0.00000000000E+00  0.00000000000E+00  0.50000000000E+02  0.50000000000E+02  0.00000000000E+00 0.  1.
        -11   -1    0    0    0    0 -0.00000000000E+00 -0.00000000000E+00 -0.50000000000E+02  0.50000000000E+02  0.00000000000E+00 0. -1.
         23    2    1    2    0    0  0.00000000000E+00  0.00000000000E+00  0.00000000000E+00  0.10000000000E+03  0.10000000000E+03 0.  0.
          5    1    3    3  501    0 -0.39776592191E+02  0.22752520435E+02 -0.19443650057E+02  0.50000000000E+02  0.47000000000E+01 0. -1.
         -5    1    3    3    0  501  0.39776592191E+02 -0.22752520435E+02  0.19443650057E+02  0.50000000000E+02  0.47000000000E+01 0.  1.
</event>
<event>
 5    1  0.9071520E-001  0.1000000E+03  0.7546771E-02  0.1163815E+00
         11   -1    0    0    0    0  0.00000000000E+00  0.00000000000E+00  0.50000000000E+02  0.50000000000E+02  0.00000000000E+00 0. -1.
        -11   -1    0    0    0    0 -0.00000000000E+00 -0.00000000000E+00 -0.50000000000E+02  0.50000000000E+02  0.00000000000E+00 0.  1.
         23    2    1    2    0    0  0.00000000000E+00  0.00000000000E+00  0.00000000000E+00  0.10000000000E+03  0.10000000000E+03 0.  0.
          5    1    3    3  501    0 -0.11260478547E+01  0.92990825765E+01  0.48889355482E+02  0.50000000000E+02  0.47000000000E+01 0. -1.
         -5    1    3    3    0  501  0.11260478547E+01 -0.92990825765E+01 -0.48889355482E+02  0.50000000000E+02  0.47000000000E+01 0.  1.
</event>
<event>
 5    1  0.9071520E-001  0.1000000E+03  0.7546771E-02  0.1163815E+00
         11   -1    0    0    0    0  0.00000000000E+00  0.00000000000E+00  0.50000000000E+02  0.50000000000E+02  0.00000000000E+00 0. -1.
        -11   -1    0    0    0    0 -0.00000000000E+00 -0.00000000000E+00 -0.50000000000E+02  0.50000000000E+02  0.00000000000E+00 0.  1.
         23    2    1    2    0    0  0.00000000000E+00  0.00000000000E+00  0.00000000000E+00  0.10000000000E+03  0.10000000000E+03 0.  0.
          5    1    3    3  501    0  0.26439908946E+02 -0.37360767644E+02  0.19570750010E+02  0.50000000000E+02  0.47000000000E+01 0. -1.
         -5    1    3    3    0  501 -0.26439908946E+02  0.37360767644E+02 -0.19570750010E+02  0.50000000000E+02  0.47000000000E+01 0.  1.
</event>
<event>
 5    1  0.9071520E-001  0.1000000E+03  0.7546771E-02  0.1163815E+00
         11   -1    0    0    0    0  0.00000000000E+00  0.00000000000E+00  0.50000000000E+02  0.50000000000E+02  0.00000000000E+00 0. -1.
        -11   -1    0    0    0    0 -0.00000000000E+00 -0.00000000000E+00 -0.50000000000E+02  0.50000000000E+02  0.00000000000E+00 0.  1.
         23    2    1    2    0    0  0.00000000000E+00  0.00000000000E+00  0.00000000000E+00  0.10000000000E+03  0.10000000000E+03 0.  0.
          5    1    3    3  501    0 -0.35926811796E+02  0.34137006359E+02  0.46732206271E+01  0.50000000000E+02  0.47000000000E+01 0. -1.
         -5    1    3    3    0  501  0.35926811796E+02 -0.34137006359E+02 -0.46732206271E+01  0.50000000000E+02  0.47000000000E+01 0.  1.
</event>
<event>
 5    1  0.9071520E-001  0.1000000E+03  0.7546771E-02  0.1163815E+00
         11   -1    0    0    0    0  0.00000000000E+00  0.00000000000E+00  0.50000000000E+02  0.50000000000E+02  0.00000000000E+00 0. -1.
        -11   -1    0    0    0    0 -0.00000000000E+00 -0.00000000000E+00 -0.50000000000E+02  0.50000000000E+02  0.00000000000E+00 0.  1.
         23    2    1    2    0    0  0.00000000000E+00  0.00000000000E+00  0.00000000000E+00  0.10000000000E+03  0.10000000000E+03 0.  0.
          5    1    3    3  501    0 -0.21806175857E+02 -0.10547694806E+02  0.43487318022E+02  0.50000000000E+02  0.47000000000E+01 0. -1.
         -5    1    3    3    0  501  0.21806175857E+02  0.10547694806E+02 -0.43487318022E+02  0.50000000000E+02  0.47000000000E+01 0.  1.
</event>
<event>
 5    1  0.9071520E-001  0.1000000E+03  0.7546771E-02  0.1163815E+00
         11   -1    0    0    0    0  0.00000000000E+00  0.00000000000E+00  0.50000000000E+02  0.50000000000E+02  0.00000000000E+00 0. -1.
        -11   -1    0    0    0    0 -0.00000000000E+00 -0.00000000000E+00 -0.50000000000E+02  0.50000000000E+02  0.00000000000E+00 0.  1.
         23    2    1    2    0    0  0.00000000000E+00  0.00000000000E+00  0.00000000000E+00  0.10000000000E+03  0.10000000000E+03 0.  0.
          5    1    3    3  501    0 -0.34839672828E+02  0.35512077965E+02 -0.17319110363E+01  0.50000000000E+02  0.47000000000E+01 0. -1.
         -5    1    3    3    0  501  0.34839672828E+02 -0.35512077965E+02  0.17319110363E+01  0.50000000000E+02  0.47000000000E+01 0.  1.
</event>
<event>
 5    1  0.9071520E-001  0.1000000E+03  0.7546771E-02  0.1163815E+00
         11   -1    0    0    0    0  0.00000000000E+00  0.00000000000E+00  0.50000000000E+02  0.50000000000E+02  0.00000000000E+00 0.  1.
        -11   -1    0    0    0    0 -0.00000000000E+00 -0.00000000000E+00 -0.50000000000E+02  0.50000000000E+02  0.00000000000E+00 0. -1.
         23    2    1    2    0    0  0.00000000000E+00  0.00000000000E+00  0.00000000000E+00  0.10000000000E+03  0.10000000000E+03 0.  0.
          5    1    3    3  501    0 -0.44695458667E+02  0.14206818733E+02  0.16685091429E+02  0.50000000000E+02  0.47000000000E+01 0. -1.
         -5    1    3    3    0  501  0.44695458667E+02 -0.14206818733E+02 -0.16685091429E+02  0.50000000000E+02  0.47000000000E+01 0.  1.
</event>
<event>
 5    1  0.9071520E-001  0.1000000E+03  0.7546771E-02  0.1163815E+00
         11   -1    0    0    0    0  0.00000000000E+00  0.00000000000E+00  0.50000000000E+02  0.50000000000E+02  0.00000000000E+00 0. -1.
        -11   -1    0    0    0    0 -0.00000000000E+00 -0.00000000000E+00 -0.50000000000E+02  0.50000000000E+02  0.00000000000E+00 0.  1.
         23    2    1    2    0    0  0.00000000000E+00  0.00000000000E+00  0.00000000000E+00  0.10000000000E+03  0.10000000000E+03 0.  0.
          5    1    3    3  501    0 -0.59765019144E+01  0.20143814527E+02  0.45126690120E+02  0.50000000000E+02  0.47000000000E+01 0. -1.
         -5    1    3    3    0  501  0.59765019144E+01 -0.20143814527E+02 -0.45126690120E+02  0.50000000000E+02  0.47000000000E+01 0.  1.
</event>
<event>
 5    1  0.9071520E-001  0.1000000E+03  0.7546771E-02  0.1163815E+00
         11   -1    0    0    0    0  0.00000000000E+00  0.00000000000E+00  0.50000000000E+02  0.50000000000E+02  0.00000000000E+00 0. -1.
        -11   -1    0    0    0    0 -0.00000000000E+00 -0.00000000000E+00 -0.50000000000E+02  0.50000000000E+02  0.00000000000E+00 0.  1.
         23    2    1    2    0    0  0.00000000000E+00  0.00000000000E+00  0.00000000000E+00  0.10000000000E+03  0.10000000000E+03 0.  0.
          5    1    3    3  501    0 -0.15826357808E+02 -0.40361049248E+01  0.47022826963E+02  0.50000000000E+02  0.47000000000E+01 0. -1.
         -5    1    3    3    0  501  0.15826357808E+02  0.40361049248E+01 -0.47022826963E+02  0.50000000000E+02  0.47000000000E+01 0.  1.
</event>
<event>
 5    1  0.9071520E-001  0.1000000E+03  0.7546771E-02  0.1163815E+00
         11   -1    0    0    0    0  0.00000000000E+00  0.00000000000E+00  0.50000000000E+02  0.50000000000E+02  0.00000000000E+00 0. -1.
        -11   -1    0    0    0    0 -0.00000000000E+00 -0.00000000000E+00 -0.50000000000E+02  0.50000000000E+02  0.00000000000E+00 0.  1.
         23    2    1    2    0    0  0.00000000000E+00  0.00000000000E+00  0.00000000000E+00  0.10000000000E+03  0.10000000000E+03 0.  0.
          5    1    3    3  501    0  0.48829752721E+02  0.57519879016E+01 -0.77768814046E+01  0.50000000000E+02  0.47000000000E+01 0. -1.
         -5    1    3    3    0  501 -0.48829752721E+02 -0.57519879016E+01  0.77768814046E+01  0.50000000000E+02  0.47000000000E+01 0.  1.
</event>
<event>
 5    1  0.9071520E-001  0.1000000E+03  0.7546771E-02  0.1163815E+00
         11   -1    0    0    0    0  0.00000000000E+00  0.00000000000E+00  0.50000000000E+02  0.50000000000E+02  0.00000000000E+00 0. -1.
        -11   -1    0    0    0    0 -0.00000000000E+00 -0.00000000000E+00 -0.50000000000E+02  0.50000000000E+02  0.00000000000E+00 0.  1.
         23    2    1    2    0    0  0.00000000000E+00  0.00000000000E+00  0.00000000000E+00  0.10000000000E+03  0.10000000000E+03 0.  0.
          5    1    3    3  501    0  0.28341581959E+02 -0.73840511966E+01  0.40250969181E+02  0.50000000000E+02  0.47000000000E+01 0. -1.
         -5    1    3    3    0  501 -0.28341581959E+02  0.73840511966E+01 -0.40250969181E+02  0.50000000000E+02  0.47000000000E+01 0.  1.
</event>
<event>
 5    1  0.9071520E-001  0.1000000E+03  0.7546771E-02  0.1163815E+00
         11   -1    0    0    0    0  0.00000000000E+00  0.00000000000E+00  0.50000000000E+02  0.50000000000E+02  0.00000000000E+00 0. -1.
        -11   -1    0    0    0    0 -0.00000000000E+00 -0.00000000000E+00 -0.50000000000E+02  0.50000000000E+02  0.00000000000E+00 0.  1.
         23    2    1    2    0    0  0.00000000000E+00  0.00000000000E+00  0.00000000000E+00  0.10000000000E+03  0.10000000000E+03 0.  0.
          5    1    3    3  501    0  0.24235227291E+01  0.25068817179E+02  0.42937057920E+02  0.50000000000E+02  0.47000000000E+01 0. -1.
         -5    1    3    3    0  501 -0.24235227291E+01 -0.25068817179E+02 -0.42937057920E+02  0.50000000000E+02  0.47000000000E+01 0.  1.
</event>
<event>
 5    1  0.9071520E-001  0.1000000E+03  0.7546771E-02  0.1163815E+00
         11   -1    0    0    0    0  0.00000000000E+00  0.00000000000E+00  0.50000000000E+02  0.50000000000E+02  0.00000000000E+00 0. -1.
        -11   -1    0    0    0    0 -0.00000000000E+00 -0.00000000000E+00 -0.50000000000E+02  0.50000000000E+02  0.00000000000E+00 0.  1.
         23    2    1    2    0    0  0.00000000000E+00  0.00000000000E+00  0.00000000000E+00  0.10000000000E+03  0.10000000000E+03 0.  0.
          5    1    3    3  501    0 -0.33444949958E+02  0.21592508879E+02  0.29884927348E+02  0.50000000000E+02  0.47000000000E+01 0. -1.
         -5    1    3    3    0  501  0.33444949958E+02 -0.21592508879E+02 -0.29884927348E+02  0.50000000000E+02  0.47000000000E+01 0.  1.
</event>
<event>
 5    1  0.9071520E-001  0.1000000E+03  0.7546771E-02  0.1163815E+00
         11   -1    0    0    0    0  0.00000000000E+00  0.00000000000E+00  0.50000000000E+02  0.50000000000E+02  0.00000000000E+00 0.  1.
        -11   -1    0    0    0    0 -0.00000000000E+00 -0.00000000000E+00 -0.50000000000E+02  0.50000000000E+02  0.00000000000E+00 0. -1.
         23    2    1    2    0    0  0.00000000000E+00  0.00000000000E+00  0.00000000000E+00  0.10000000000E+03  0.10000000000E+03 0.  0.
          5    1    3    3  501    0  0.45195547964E+02  0.56570790991E+01 -0.20081581120E+02  0.50000000000E+02  0.47000000000E+01 0. -1.
         -5    1    3    3    0  501 -0.45195547964E+02 -0.56570790991E+01  0.20081581120E+02  0.50000000000E+02  0.47000000000E+01 0.  1.
</event>
<event>
 5    1  0.9071520E-001  0.1000000E+03  0.7546771E-02  0.1163815E+00
         11   -1    0    0    0    0  0.00000000000E+00  0.00000000000E+00  0.50000000000E+02  0.50000000000E+02  0.00000000000E+00 0. -1.
        -11   -1    0    0    0    0 -0.00000000000E+00 -0.00000000000E+00 -0.50000000000E+02  0.50000000000E+02  0.00000000000E+00 0.  1.
         23    2    1    2    0    0  0.00000000000E+00  0.00000000000E+00  0.00000000000E+00  0.10000000000E+03  0.10000000000E+03 0.  0.
          5    1    3    3  501    0  0.36144480553E+02 -0.33716826087E+02 -0.58874582133E+01  0.50000000000E+02  0.47000000000E+01 0. -1.
         -5    1    3    3    0  501 -0.36144480553E+02  0.33716826087E+02  0.58874582133E+01  0.50000000000E+02  0.47000000000E+01 0.  1.
</event>
<event>
 5    1  0.9071520E-001  0.1000000E+03  0.7546771E-02  0.1163815E+00
         11   -1    0    0    0    0  0.00000000000E+00  0.00000000000E+00  0.50000000000E+02  0.50000000000E+02  0.00000000000E+00 0. -1.
        -11   -1    0    0    0    0 -0.00000000000E+00 -0.00000000000E+00 -0.50000000000E+02  0.50000000000E+02  0.00000000000E+00 0.  1.
         23    2    1    2    0    0  0.00000000000E+00  0.00000000000E+00  0.00000000000E+00  0.10000000000E+03  0.10000000000E+03 0.  0.
          5    1    3    3  501    0  0.19907922869E+02  0.10369198912E+02  0.44430443628E+02  0.50000000000E+02  0.47000000000E+01 0. -1.
         -5    1    3    3    0  501 -0.19907922869E+02 -0.10369198912E+02 -0.44430443628E+02  0.50000000000E+02  0.47000000000E+01 0.  1.
</event>
<event>
 5    1  0.9071520E-001  0.1000000E+03  0.7546771E-02  0.1163815E+00
         11   -1    0    0    0    0  0.00000000000E+00  0.00000000000E+00  0.50000000000E+02  0.50000000000E+02  0.00000000000E+00 0.  1.
        -11   -1    0    0    0    0 -0.00000000000E+00 -0.00000000000E+00 -0.50000000000E+02  0.50000000000E+02  0.00000000000E+00 0. -1.
         23    2    1    2    0    0  0.00000000000E+00  0.00000000000E+00  0.00000000000E+00  0.10000000000E+03  0.10000000000E+03 0.  0.
          5    1    3    3  501    0 -0.30654989139E+02 -0.22492475606E+01  0.39155108560E+02  0.50000000000E+02  0.47000000000E+01 0.  1.
         -5    1    3    3    0  501  0.30654989139E+02  0.22492475606E+01 -0.39155108560E+02  0.50000000000E+02  0.47000000000E+01 0. -1.
</event>
<event>
 5    1  0.9071520E-001  0.1000000E+03  0.7546771E-02  0.1163815E+00
         11   -1    0    0    0    0  0.00000000000E+00  0.00000000000E+00  0.50000000000E+02  0.50000000000E+02  0.00000000000E+00 0.  1.
        -11   -1    0    0    0    0 -0.00000000000E+00 -0.00000000000E+00 -0.50000000000E+02  0.50000000000E+02  0.00000000000E+00 0. -1.
         23    2    1    2    0    0  0.00000000000E+00  0.00000000000E+00  0.00000000000E+00  0.10000000000E+03  0.10000000000E+03 0.  0.
          5    1    3    3  501    0 -0.23660888306E+02 -0.11455997266E+02 -0.42270941452E+02  0.50000000000E+02  0.47000000000E+01 0. -1.
         -5    1    3    3    0  501  0.23660888306E+02  0.11455997266E+02  0.42270941452E+02  0.50000000000E+02  0.47000000000E+01 0.  1.
</event>
<event>
 5    1  0.9071520E-001  0.1000000E+03  0.7546771E-02  0.1163815E+00
         11   -1    0    0    0    0  0.00000000000E+00  0.00000000000E+00  0.50000000000E+02  0.50000000000E+02  0.00000000000E+00 0. -1.
        -11   -1    0    0    0    0 -0.00000000000E+00 -0.00000000000E+00 -0.50000000000E+02  0.50000000000E+02  0.00000000000E+00 0.  1.
         23    2    1    2    0    0  0.00000000000E+00  0.00000000000E+00  0.00000000000E+00  0.10000000000E+03  0.10000000000E+03 0.  0.
          5    1    3    3  501    0  0.46164366859E+02 -0.16738765660E+02 -0.81593478118E+01  0.50000000000E+02  0.47000000000E+01 0. -1.
         -5    1    3    3    0  501 -0.46164366859E+02  0.16738765660E+02  0.81593478118E+01  0.50000000000E+02  0.47000000000E+01 0.  1.
</event>
<event>
 5    1  0.9071520E-001  0.1000000E+03  0.7546771E-02  0.1163815E+00
         11   -1    0    0    0    0  0.00000000000E+00  0.00000000000E+00  0.50000000000E+02  0.50000000000E+02  0.00000000000E+00 0.  1.
        -11   -1    0    0    0    0 -0.00000000000E+00 -0.00000000000E+00 -0.50000000000E+02  0.50000000000E+02  0.00000000000E+00 0. -1.
         23    2    1    2    0    0  0.00000000000E+00  0.00000000000E+00  0.00000000000E+00  0.10000000000E+03  0.10000000000E+03 0.  0.
          5    1    3    3  501    0 -0.21622856929E+02 -0.10203405030E+02 -0.43660652583E+02  0.50000000000E+02  0.47000000000E+01 0. -1.
         -5    1    3    3    0  501  0.21622856929E+02  0.10203405030E+02  0.43660652583E+02  0.50000000000E+02  0.47000000000E+01 0.  1.
</event>
<event>
 5    1  0.9071520E-001  0.1000000E+03  0.7546771E-02  0.1163815E+00
         11   -1    0    0    0    0  0.00000000000E+00  0.00000000000E+00  0.50000000000E+02  0.50000000000E+02  0.00000000000E+00 0. -1.
        -11   -1    0    0    0    0 -0.00000000000E+00 -0.00000000000E+00 -0.50000000000E+02  0.50000000000E+02  0.00000000000E+00 0.  1.
         23    2    1    2    0    0  0.00000000000E+00  0.00000000000E+00  0.00000000000E+00  0.10000000000E+03  0.10000000000E+03 0.  0.
          5    1    3    3  501    0  0.32483848162E+02 -0.10218903216E+02  0.36308175741E+02  0.50000000000E+02  0.47000000000E+01 0. -1.
         -5    1    3    3    0  501 -0.32483848162E+02  0.10218903216E+02 -0.36308175741E+02  0.50000000000E+02  0.47000000000E+01 0.  1.
</event>
<event>
 5    1  0.9071520E-001  0.1000000E+03  0.7546771E-02  0.1163815E+00
         11   -1    0    0    0    0  0.00000000000E+00  0.00000000000E+00  0.50000000000E+02  0.50000000000E+02  0.00000000000E+00 0.  1.
        -11   -1    0    0    0    0 -0.00000000000E+00 -0.00000000000E+00 -0.50000000000E+02  0.50000000000E+02  0.00000000000E+00 0. -1.
         23    2    1    2    0    0  0.00000000000E+00  0.00000000000E+00  0.00000000000E+00  0.10000000000E+03  0.10000000000E+03 0.  0.
          5    1    3    3  501    0 -0.17283587487E+02  0.18287218796E+02 -0.42950730288E+02  0.50000000000E+02  0.47000000000E+01 0. -1.
         -5    1    3    3    0  501  0.17283587487E+02 -0.18287218796E+02  0.42950730288E+02  0.50000000000E+02  0.47000000000E+01 0.  1.
</event>
<event>
 5    1  0.9071520E-001  0.1000000E+03  0.7546771E-02  0.1163815E+00
         11   -1    0    0    0    0  0.00000000000E+00  0.00000000000E+00  0.50000000000E+02  0.50000000000E+02  0.00000000000E+00 0.  1.
        -11   -1    0    0    0    0 -0.00000000000E+00 -0.00000000000E+00 -0.50000000000E+02  0.50000000000E+02  0.00000000000E+00 0. -1.
         23    2    1    2    0    0  0.00000000000E+00  0.00000000000E+00  0.00000000000E+00  0.10000000000E+03  0.10000000000E+03 0.  0.
          5    1    3    3  501    0  0.47232005499E+01 -0.56688411588E+00 -0.49550782224E+02  0.50000000000E+02  0.47000000000E+01 0. -1.
         -5    1    3    3    0  501 -0.47232005499E+01  0.56688411588E+00  0.49550782224E+02  0.50000000000E+02  0.47000000000E+01 0.  1.
</event>
<event>
 5    1  0.9071520E-001  0.1000000E+03  0.7546771E-02  0.1163815E+00
         11   -1    0    0    0    0  0.00000000000E+00  0.00000000000E+00  0.50000000000E+02  0.50000000000E+02  0.00000000000E+00 0. -1.
        -11   -1    0    0    0    0 -0.00000000000E+00 -0.00000000000E+00 -0.50000000000E+02  0.50000000000E+02  0.00000000000E+00 0.  1.
         23    2    1    2    0    0  0.00000000000E+00  0.00000000000E+00  0.00000000000E+00  0.10000000000E+03  0.10000000000E+03 0.  0.
          5    1    3    3  501    0 -0.42466532022E+02  0.22679074523E+02 -0.12655561498E+02  0.50000000000E+02  0.47000000000E+01 0. -1.
         -5    1    3    3    0  501  0.42466532022E+02 -0.22679074523E+02  0.12655561498E+02  0.50000000000E+02  0.47000000000E+01 0.  1.
</event>
<event>
 5    1  0.9071520E-001  0.1000000E+03  0.7546771E-02  0.1163815E+00
         11   -1    0    0    0    0  0.00000000000E+00  0.00000000000E+00  0.50000000000E+02  0.50000000000E+02  0.00000000000E+00 0. -1.
        -11   -1    0    0    0    0 -0.00000000000E+00 -0.00000000000E+00 -0.50000000000E+02  0.50000000000E+02  0.00000000000E+00 0.  1.
         23    2    1    2    0    0  0.00000000000E+00  0.00000000000E+00  0.00000000000E+00  0.10000000000E+03  0.10000000000E+03 0.  0.
          5    1    3    3  501    0  0.74382359187E+01 -0.44319791944E+02  0.21408846034E+02  0.50000000000E+02  0.47000000000E+01 0. -1.
         -5    1    3    3    0  501 -0.74382359187E+01  0.44319791944E+02 -0.21408846034E+02  0.50000000000E+02  0.47000000000E+01 0.  1.
</event>
<event>
 5    1  0.9071520E-001  0.1000000E+03  0.7546771E-02  0.1163815E+00
         11   -1    0    0    0    0  0.00000000000E+00  0.00000000000E+00  0.50000000000E+02  0.50000000000E+02  0.00000000000E+00 0. -1.
        -11   -1    0    0    0    0 -0.00000000000E+00 -0.00000000000E+00 -0.50000000000E+02  0.50000000000E+02  0.00000000000E+00 0.  1.
         23    2    1    2    0    0  0.00000000000E+00  0.00000000000E+00  0.00000000000E+00  0.10000000000E+03  0.10000000000E+03 0.  0.
          5    1    3    3  501    0 -0.84210597380E+01  0.16819879776E+02  0.46087822656E+02  0.50000000000E+02  0.47000000000E+01 0. -1.
         -5    1    3    3    0  501  0.84210597380E+01 -0.16819879776E+02 -0.46087822656E+02  0.50000000000E+02  0.47000000000E+01 0.  1.
</event>
<event>
 5    1  0.9071520E-001  0.1000000E+03  0.7546771E-02  0.1163815E+00
         11   -1    0    0    0    0  0.00000000000E+00  0.00000000000E+00  0.50000000000E+02  0.50000000000E+02  0.00000000000E+00 0. -1.
        -11   -1    0    0    0    0 -0.00000000000E+00 -0.00000000000E+00 -0.50000000000E+02  0.50000000000E+02  0.00000000000E+00 0.  1.
         23    2    1    2    0    0  0.00000000000E+00  0.00000000000E+00  0.00000000000E+00  0.10000000000E+03  0.10000000000E+03 0.  0.
          5    1    3    3  501    0 -0.42233047335E+02  0.64960464525E+01  0.25535878549E+02  0.50000000000E+02  0.47000000000E+01 0. -1.
         -5    1    3    3    0  501  0.42233047335E+02 -0.64960464525E+01 -0.25535878549E+02  0.50000000000E+02  0.47000000000E+01 0.  1.
</event>
<event>
 5    1  0.9071520E-001  0.1000000E+03  0.7546771E-02  0.1163815E+00
         11   -1    0    0    0    0  0.00000000000E+00  0.00000000000E+00  0.50000000000E+02  0.50000000000E+02  0.00000000000E+00 0. -1.
        -11   -1    0    0    0    0 -0.00000000000E+00 -0.00000000000E+00 -0.50000000000E+02  0.50000000000E+02  0.00000000000E+00 0.  1.
         23    2    1    2    0    0  0.00000000000E+00  0.00000000000E+00  0.00000000000E+00  0.10000000000E+03  0.10000000000E+03 0.  0.
          5    1    3    3  501    0  0.32454861767E+02 -0.12120070595E+02  0.35744871470E+02  0.50000000000E+02  0.47000000000E+01 0. -1.
         -5    1    3    3    0  501 -0.32454861767E+02  0.12120070595E+02 -0.35744871470E+02  0.50000000000E+02  0.47000000000E+01 0.  1.
</event>
<event>
 5    1  0.9071520E-001  0.1000000E+03  0.7546771E-02  0.1163815E+00
         11   -1    0    0    0    0  0.00000000000E+00  0.00000000000E+00  0.50000000000E+02  0.50000000000E+02  0.00000000000E+00 0.  1.
        -11   -1    0    0    0    0 -0.00000000000E+00 -0.00000000000E+00 -0.50000000000E+02  0.50000000000E+02  0.00000000000E+00 0. -1.
         23    2    1    2    0    0  0.00000000000E+00  0.00000000000E+00  0.00000000000E+00  0.10000000000E+03  0.10000000000E+03 0.  0.
          5    1    3    3  501    0 -0.24391897741E+02  0.37163102767E+02 -0.22401989138E+02  0.50000000000E+02  0.47000000000E+01 0. -1.
         -5    1    3    3    0  501  0.24391897741E+02 -0.37163102767E+02  0.22401989138E+02  0.50000000000E+02  0.47000000000E+01 0.  1.
</event>
<event>
 5    1  0.9071520E-001  0.1000000E+03  0.7546771E-02  0.1163815E+00
         11   -1    0    0    0    0  0.00000000000E+00  0.00000000000E+00  0.50000000000E+02  0.50000000000E+02  0.00000000000E+00 0. -1.
        -11   -1    0    0    0    0 -0.00000000000E+00 -0.00000000000E+00 -0.50000000000E+02  0.50000000000E+02  0.00000000000E+00 0.  1.
         23    2    1    2    0    0  0.00000000000E+00  0.00000000000E+00  0.00000000000E+00  0.10000000000E+03  0.10000000000E+03 0.  0.
          5    1    3    3  501    0 -0.17460145511E+02  0.29751177470E+02  0.35887612875E+02  0.50000000000E+02  0.47000000000E+01 0. -1.
         -5    1    3    3    0  501  0.17460145511E+02 -0.29751177470E+02 -0.35887612875E+02  0.50000000000E+02  0.47000000000E+01 0.  1.
</event>
<event>
 5    1  0.9071520E-001  0.1000000E+03  0.7546771E-02  0.1163815E+00
         11   -1    0    0    0    0  0.00000000000E+00  0.00000000000E+00  0.50000000000E+02  0.50000000000E+02  0.00000000000E+00 0. -1.
        -11   -1    0    0    0    0 -0.00000000000E+00 -0.00000000000E+00 -0.50000000000E+02  0.50000000000E+02  0.00000000000E+00 0.  1.
         23    2    1    2    0    0  0.00000000000E+00  0.00000000000E+00  0.00000000000E+00  0.10000000000E+03  0.10000000000E+03 0.  0.
          5    1    3    3  501    0  0.20631070018E+02 -0.83526885836E+01  0.44525291053E+02  0.50000000000E+02  0.47000000000E+01 0. -1.
         -5    1    3    3    0  501 -0.20631070018E+02  0.83526885836E+01 -0.44525291053E+02  0.50000000000E+02  0.47000000000E+01 0.  1.
</event>
<event>
 5    1  0.9071520E-001  0.1000000E+03  0.7546771E-02  0.1163815E+00
         11   -1    0    0    0    0  0.00000000000E+00  0.00000000000E+00  0.50000000000E+02  0.50000000000E+02  0.00000000000E+00 0.  1.
        -11   -1    0    0    0    0 -0.00000000000E+00 -0.00000000000E+00 -0.50000000000E+02  0.50000000000E+02  0.00000000000E+00 0. -1.
         23    2    1    2    0    0  0.00000000000E+00  0.00000000000E+00  0.00000000000E+00  0.10000000000E+03  0.10000000000E+03 0.  0.
          5    1    3    3  501    0  0.18754664379E+02  0.14366101365E+02 -0.43815381952E+02  0.50000000000E+02  0.47000000000E+01 0. -1.
         -5    1    3    3    0  501 -0.18754664379E+02 -0.14366101365E+02  0.43815381952E+02  0.50000000000E+02  0.47000000000E+01 0.  1.
</event>
<event>
 5    1  0.9071520E-001  0.1000000E+03  0.7546771E-02  0.1163815E+00
         11   -1    0    0    0    0  0.00000000000E+00  0.00000000000E+00  0.50000000000E+02  0.50000000000E+02  0.00000000000E+00 0. -1.
        -11   -1    0    0    0    0 -0.00000000000E+00 -0.00000000000E+00 -0.50000000000E+02  0.50000000000E+02  0.00000000000E+00 0.  1.
         23    2    1    2    0    0  0.00000000000E+00  0.00000000000E+00  0.00000000000E+00  0.10000000000E+03  0.10000000000E+03 0.  0.
          5    1    3    3  501    0 -0.19089444307E+02  0.10890971667E+02  0.44664189819E+02  0.50000000000E+02  0.47000000000E+01 0. -1.
         -5    1    3    3    0  501  0.19089444307E+02 -0.10890971667E+02 -0.44664189819E+02  0.50000000000E+02  0.47000000000E+01 0.  1.
</event>
<event>
 5    1  0.9071520E-001  0.1000000E+03  0.7546771E-02  0.1163815E+00
         11   -1    0    0    0    0  0.00000000000E+00  0.00000000000E+00  0.50000000000E+02  0.50000000000E+02  0.00000000000E+00 0. -1.
        -11   -1    0    0    0    0 -0.00000000000E+00 -0.00000000000E+00 -0.50000000000E+02  0.50000000000E+02  0.00000000000E+00 0.  1.
         23    2    1    2    0    0  0.00000000000E+00  0.00000000000E+00  0.00000000000E+00  0.10000000000E+03  0.10000000000E+03 0.  0.
          5    1    3    3  501    0  0.92551231973E+01  0.47743947091E+01  0.48677077252E+02  0.50000000000E+02  0.47000000000E+01 0. -1.
         -5    1    3    3    0  501 -0.92551231973E+01 -0.47743947091E+01 -0.48677077252E+02  0.50000000000E+02  0.47000000000E+01 0.  1.
</event>
<event>
 5    1  0.9071520E-001  0.1000000E+03  0.7546771E-02  0.1163815E+00
         11   -1    0    0    0    0  0.00000000000E+00  0.00000000000E+00  0.50000000000E+02  0.50000000000E+02  0.00000000000E+00 0. -1.
        -11   -1    0    0    0    0 -0.00000000000E+00 -0.00000000000E+00 -0.50000000000E+02  0.50000000000E+02  0.00000000000E+00 0.  1.
         23    2    1    2    0    0  0.00000000000E+00  0.00000000000E+00  0.00000000000E+00  0.10000000000E+03  0.10000000000E+03 0.  0.
          5    1    3    3  501    0 -0.25001276599E+01 -0.38879193262E+02  0.30984959141E+02  0.50000000000E+02  0.47000000000E+01 0. -1.
         -5    1    3    3    0  501  0.25001276599E+01  0.38879193262E+02 -0.30984959141E+02  0.50000000000E+02  0.47000000000E+01 0.  1.
</event>
<event>
 5    1  0.9071520E-001  0.1000000E+03  0.7546771E-02  0.1163815E+00
         11   -1    0    0    0    0  0.00000000000E+00  0.00000000000E+00  0.50000000000E+02  0.50000000000E+02  0.00000000000E+00 0.  1.
        -11   -1    0    0    0    0 -0.00000000000E+00 -0.00000000000E+00 -0.50000000000E+02  0.50000000000E+02  0.00000000000E+00 0. -1.
         23    2    1    2    0    0  0.00000000000E+00  0.00000000000E+00  0.00000000000E+00  0.10000000000E+03  0.10000000000E+03 0.  0.
          5    1    3    3  501    0  0.34827265713E+02  0.34861427394E+02 -0.70464489604E+01  0.50000000000E+02  0.47000000000E+01 0. -1.
         -5    1    3    3    0  501 -0.34827265713E+02 -0.34861427394E+02  0.70464489604E+01  0.50000000000E+02  0.47000000000E+01 0.  1.
</event>
<event>
 5    1  0.9071520E-001  0.1000000E+03  0.7546771E-02  0.1163815E+00
         11   -1    0    0    0    0  0.00000000000E+00  0.00000000000E+00  0.50000000000E+02  0.50000000000E+02  0.00000000000E+00 0. -1.
        -11   -1    0    0    0    0 -0.00000000000E+00 -0.00000000000E+00 -0.50000000000E+02  0.50000000000E+02  0.00000000000E+00 0.  1.
         23    2    1    2    0    0  0.00000000000E+00  0.00000000000E+00  0.00000000000E+00  0.10000000000E+03  0.10000000000E+03 0.  0.
          5    1    3    3  501    0  0.15749632498E+02 -0.11050939379E+02  0.45910084023E+02  0.50000000000E+02  0.47000000000E+01 0. -1.
         -5    1    3    3    0  501 -0.15749632498E+02  0.11050939379E+02 -0.45910084023E+02  0.50000000000E+02  0.47000000000E+01 0.  1.
</event>
<event>
 5    1  0.9071520E-001  0.1000000E+03  0.7546771E-02  0.1163815E+00
         11   -1    0    0    0    0  0.00000000000E+00  0.00000000000E+00  0.50000000000E+02  0.50000000000E+02  0.00000000000E+00 0. -1.
        -11   -1    0    0    0    0 -0.00000000000E+00 -0.00000000000E+00 -0.50000000000E+02  0.50000000000E+02  0.00000000000E+00 0.  1.
         23    2    1    2    0    0  0.00000000000E+00  0.00000000000E+00  0.00000000000E+00  0.10000000000E+03  0.10000000000E+03 0.  0.
          5    1    3    3  501    0  0.32409643906E+02 -0.17759826026E+02  0.33348366698E+02  0.50000000000E+02  0.47000000000E+01 0. -1.
         -5    1    3    3    0  501 -0.32409643906E+02  0.17759826026E+02 -0.33348366698E+02  0.50000000000E+02  0.47000000000E+01 0.  1.
</event>
<event>
 5    1  0.9071520E-001  0.1000000E+03  0.7546771E-02  0.1163815E+00
         11   -1    0    0    0    0  0.00000000000E+00  0.00000000000E+00  0.50000000000E+02  0.50000000000E+02  0.00000000000E+00 0.  1.
        -11   -1    0    0    0    0 -0.00000000000E+00 -0.00000000000E+00 -0.50000000000E+02  0.50000000000E+02  0.00000000000E+00 0. -1.
         23    2    1    2    0    0  0.00000000000E+00  0.00000000000E+00  0.00000000000E+00  0.10000000000E+03  0.10000000000E+03 0.  0.
          5    1    3    3  501    0  0.33533138254E+02  0.23857486105E+02 -0.28004624539E+02  0.50000000000E+02  0.47000000000E+01 0. -1.
         -5    1    3    3    0  501 -0.33533138254E+02 -0.23857486105E+02  0.28004624539E+02  0.50000000000E+02  0.47000000000E+01 0.  1.
</event>
<event>
 5    1  0.9071520E-001  0.1000000E+03  0.7546771E-02  0.1163815E+00
         11   -1    0    0    0    0  0.00000000000E+00  0.00000000000E+00  0.50000000000E+02  0.50000000000E+02  0.00000000000E+00 0.  1.
        -11   -1    0    0    0    0 -0.00000000000E+00 -0.00000000000E+00 -0.50000000000E+02  0.50000000000E+02  0.00000000000E+00 0. -1.
         23    2    1    2    0    0  0.00000000000E+00  0.00000000000E+00  0.00000000000E+00  0.10000000000E+03  0.10000000000E+03 0.  0.
          5    1    3    3  501    0 -0.45974053969E+02 -0.17839826424E+02  0.67850537854E+01  0.50000000000E+02  0.47000000000E+01 0.  1.
         -5    1    3    3    0  501  0.45974053969E+02  0.17839826424E+02 -0.67850537854E+01  0.50000000000E+02  0.47000000000E+01 0. -1.
</event>
<event>
 5    1  0.9071520E-001  0.1000000E+03  0.7546771E-02  0.1163815E+00
         11   -1    0    0    0    0  0.00000000000E+00  0.00000000000E+00  0.50000000000E+02  0.50000000000E+02  0.00000000000E+00 0. -1.
        -11   -1    0    0    0    0 -0.00000000000E+00 -0.00000000000E+00 -0.50000000000E+02  0.50000000000E+02  0.00000000000E+00 0.  1.
         23    2    1    2    0    0  0.00000000000E+00  0.00000000000E+00  0.00000000000E+00  0.10000000000E+03  0.10000000000E+03 0.  0.
          5    1    3    3  501    0 -0.52180125412E+01 -0.38419440571E+02  0.31219047572E+02  0.50000000000E+02  0.47000000000E+01 0. -1.
         -5    1    3    3    0  501  0.52180125412E+01  0.38419440571E+02 -0.31219047572E+02  0.50000000000E+02  0.47000000000E+01 0.  1.
</event>
<event>
 5    1  0.9071520E-001  0.1000000E+03  0.7546771E-02  0.1163815E+00
         11   -1    0    0    0    0  0.00000000000E+00  0.00000000000E+00  0.50000000000E+02  0.50000000000E+02  0.00000000000E+00 0.  1.
        -11   -1    0    0    0    0 -0.00000000000E+00 -0.00000000000E+00 -0.50000000000E+02  0.50000000000E+02  0.00000000000E+00 0. -1.
         23    2    1    2    0    0  0.00000000000E+00  0.00000000000E+00  0.00000000000E+00  0.10000000000E+03  0.10000000000E+03 0.  0.
          5    1    3    3  501    0  0.40804928931E+02  0.26934634513E+02  0.93484350847E+01  0.50000000000E+02  0.47000000000E+01 0. -1.
         -5    1    3    3    0  501 -0.40804928931E+02 -0.26934634513E+02 -0.93484350847E+01  0.50000000000E+02  0.47000000000E+01 0.  1.
</event>
<event>
 5    1  0.9071520E-001  0.1000000E+03  0.7546771E-02  0.1163815E+00
         11   -1    0    0    0    0  0.00000000000E+00  0.00000000000E+00  0.50000000000E+02  0.50000000000E+02  0.00000000000E+00 0.  1.
        -11   -1    0    0    0    0 -0.00000000000E+00 -0.00000000000E+00 -0.50000000000E+02  0.50000000000E+02  0.00000000000E+00 0. -1.
         23    2    1    2    0    0  0.00000000000E+00  0.00000000000E+00  0.00000000000E+00  0.10000000000E+03  0.10000000000E+03 0.  0.
          5    1    3    3  501    0 -0.11035643003E+02 -0.21658358443E+02 -0.43440074736E+02  0.50000000000E+02  0.47000000000E+01 0. -1.
         -5    1    3    3    0  501  0.11035643003E+02  0.21658358443E+02  0.43440074736E+02  0.50000000000E+02  0.47000000000E+01 0.  1.
</event>
<event>
 5    1  0.9071520E-001  0.1000000E+03  0.7546771E-02  0.1163815E+00
         11   -1    0    0    0    0  0.00000000000E+00  0.00000000000E+00  0.50000000000E+02  0.50000000000E+02  0.00000000000E+00 0.  1.
        -11   -1    0    0    0    0 -0.00000000000E+00 -0.00000000000E+00 -0.50000000000E+02  0.50000000000E+02  0.00000000000E+00 0. -1.
         23    2    1    2    0    0  0.00000000000E+00  0.00000000000E+00  0.00000000000E+00  0.10000000000E+03  0.10000000000E+03 0.  0.
          5    1    3    3  501    0  0.23119218546E+02 -0.20557679636E+02 -0.38997353010E+02  0.50000000000E+02  0.47000000000E+01 0. -1.
         -5    1    3    3    0  501 -0.23119218546E+02  0.20557679636E+02  0.38997353010E+02  0.50000000000E+02  0.47000000000E+01 0.  1.
</event>
<event>
 5    1  0.9071520E-001  0.1000000E+03  0.7546771E-02  0.1163815E+00
         11   -1    0    0    0    0  0.00000000000E+00  0.00000000000E+00  0.50000000000E+02  0.50000000000E+02  0.00000000000E+00 0. -1.
        -11   -1    0    0    0    0 -0.00000000000E+00 -0.00000000000E+00 -0.50000000000E+02  0.50000000000E+02  0.00000000000E+00 0.  1.
         23    2    1    2    0    0  0.00000000000E+00  0.00000000000E+00  0.00000000000E+00  0.10000000000E+03  0.10000000000E+03 0.  0.
          5    1    3    3  501    0 -0.63294232294E+01 -0.21678720770E+02  0.44360810040E+02  0.50000000000E+02  0.47000000000E+01 0. -1.
         -5    1    3    3    0  501  0.63294232294E+01  0.21678720770E+02 -0.44360810040E+02  0.50000000000E+02  0.47000000000E+01 0.  1.
</event>
<event>
 5    1  0.9071520E-001  0.1000000E+03  0.7546771E-02  0.1163815E+00
         11   -1    0    0    0    0  0.00000000000E+00  0.00000000000E+00  0.50000000000E+02  0.50000000000E+02  0.00000000000E+00 0. -1.
        -11   -1    0    0    0    0 -0.00000000000E+00 -0.00000000000E+00 -0.50000000000E+02  0.50000000000E+02  0.00000000000E+00 0.  1.
         23    2    1    2    0    0  0.00000000000E+00  0.00000000000E+00  0.00000000000E+00  0.10000000000E+03  0.10000000000E+03 0.  0.
          5    1    3    3  501    0 -0.19082856771E+02 -0.48874932503E+00  0.45972988825E+02  0.50000000000E+02  0.47000000000E+01 0. -1.
         -5    1    3    3    0  501  0.19082856771E+02  0.48874932503E+00 -0.45972988825E+02  0.50000000000E+02  0.47000000000E+01 0.  1.
</event>
<event>
 5    1  0.9071520E-001  0.1000000E+03  0.7546771E-02  0.1163815E+00
         11   -1    0    0    0    0  0.00000000000E+00  0.00000000000E+00  0.50000000000E+02  0.50000000000E+02  0.00000000000E+00 0. -1.
        -11   -1    0    0    0    0 -0.00000000000E+00 -0.00000000000E+00 -0.50000000000E+02  0.50000000000E+02  0.00000000000E+00 0.  1.
         23    2    1    2    0    0  0.00000000000E+00  0.00000000000E+00  0.00000000000E+00  0.10000000000E+03  0.10000000000E+03 0.  0.
          5    1    3    3  501    0  0.17554551272E+02  0.28110125794E+02  0.37142543767E+02  0.50000000000E+02  0.47000000000E+01 0. -1.
         -5    1    3    3    0  501 -0.17554551272E+02 -0.28110125794E+02 -0.37142543767E+02  0.50000000000E+02  0.47000000000E+01 0.  1.
</event>
<event>
 5    1  0.9071520E-001  0.1000000E+03  0.7546771E-02  0.1163815E+00
         11   -1    0    0    0    0  0.00000000000E+00  0.00000000000E+00  0.50000000000E+02  0.50000000000E+02  0.00000000000E+00 0. -1.
        -11   -1    0    0    0    0 -0.00000000000E+00 -0.00000000000E+00 -0.50000000000E+02  0.50000000000E+02  0.00000000000E+00 0.  1.
         23    2    1    2    0    0  0.00000000000E+00  0.00000000000E+00  0.00000000000E+00  0.10000000000E+03  0.10000000000E+03 0.  0.
          5    1    3    3  501    0  0.33300692902E+02 -0.35296951827E+02 -0.11095000856E+02  0.50000000000E+02  0.47000000000E+01 0. -1.
         -5    1    3    3    0  501 -0.33300692902E+02  0.35296951827E+02  0.11095000856E+02  0.50000000000E+02  0.47000000000E+01 0.  1.
</event>
<event>
 5    1  0.9071520E-001  0.1000000E+03  0.7546771E-02  0.1163815E+00
         11   -1    0    0    0    0  0.00000000000E+00  0.00000000000E+00  0.50000000000E+02  0.50000000000E+02  0.00000000000E+00 0. -1.
        -11   -1    0    0    0    0 -0.00000000000E+00 -0.00000000000E+00 -0.50000000000E+02  0.50000000000E+02  0.00000000000E+00 0.  1.
         23    2    1    2    0    0  0.00000000000E+00  0.00000000000E+00  0.00000000000E+00  0.10000000000E+03  0.10000000000E+03 0.  0.
          5    1    3    3  501    0  0.20925931318E+02  0.20840829931E+02  0.40070877283E+02  0.50000000000E+02  0.47000000000E+01 0. -1.
         -5    1    3    3    0  501 -0.20925931318E+02 -0.20840829931E+02 -0.40070877283E+02  0.50000000000E+02  0.47000000000E+01 0.  1.
</event>
<event>
 5    1  0.9071520E-001  0.1000000E+03  0.7546771E-02  0.1163815E+00
         11   -1    0    0    0    0  0.00000000000E+00  0.00000000000E+00  0.50000000000E+02  0.50000000000E+02  0.00000000000E+00 0. -1.
        -11   -1    0    0    0    0 -0.00000000000E+00 -0.00000000000E+00 -0.50000000000E+02  0.50000000000E+02  0.00000000000E+00 0.  1.
         23    2    1    2    0    0  0.00000000000E+00  0.00000000000E+00  0.00000000000E+00  0.10000000000E+03  0.10000000000E+03 0.  0.
          5    1    3    3  501    0  0.42669345009E+02  0.48556390161E+01  0.25172599513E+02  0.50000000000E+02  0.47000000000E+01 0. -1.
         -5    1    3    3    0  501 -0.42669345009E+02 -0.48556390161E+01 -0.25172599513E+02  0.50000000000E+02  0.47000000000E+01 0.  1.
</event>
<event>
 5    1  0.9071520E-001  0.1000000E+03  0.7546771E-02  0.1163815E+00
         11   -1    0    0    0    0  0.00000000000E+00  0.00000000000E+00  0.50000000000E+02  0.50000000000E+02  0.00000000000E+00 0. -1.
        -11   -1    0    0    0    0 -0.00000000000E+00 -0.00000000000E+00 -0.50000000000E+02  0.50000000000E+02  0.00000000000E+00 0.  1.
         23    2    1    2    0    0  0.00000000000E+00  0.00000000000E+00  0.00000000000E+00  0.10000000000E+03  0.10000000000E+03 0.  0.
          5    1    3    3  501    0  0.39017974342E+02  0.15056225637E+02  0.26996624748E+02  0.50000000000E+02  0.47000000000E+01 0. -1.
         -5    1    3    3    0  501 -0.39017974342E+02 -0.15056225637E+02 -0.26996624748E+02  0.50000000000E+02  0.47000000000E+01 0.  1.
</event>
<event>
 5    1  0.9071520E-001  0.1000000E+03  0.7546771E-02  0.1163815E+00
         11   -1    0    0    0    0  0.00000000000E+00  0.00000000000E+00  0.50000000000E+02  0.50000000000E+02  0.00000000000E+00 0.  1.
        -11   -1    0    0    0    0 -0.00000000000E+00 -0.00000000000E+00 -0.50000000000E+02  0.50000000000E+02  0.00000000000E+00 0. -1.
         23    2    1    2    0    0  0.00000000000E+00  0.00000000000E+00  0.00000000000E+00  0.10000000000E+03  0.10000000000E+03 0.  0.
          5    1    3    3  501    0 -0.31012167368E+02  0.37762368999E+02  0.94952073546E+01  0.50000000000E+02  0.47000000000E+01 0. -1.
         -5    1    3    3    0  501  0.31012167368E+02 -0.37762368999E+02 -0.94952073546E+01  0.50000000000E+02  0.47000000000E+01 0.  1.
</event>
<event>
 5    1  0.9071520E-001  0.1000000E+03  0.7546771E-02  0.1163815E+00
         11   -1    0    0    0    0  0.00000000000E+00  0.00000000000E+00  0.50000000000E+02  0.50000000000E+02  0.00000000000E+00 0. -1.
        -11   -1    0    0    0    0 -0.00000000000E+00 -0.00000000000E+00 -0.50000000000E+02  0.50000000000E+02  0.00000000000E+00 0.  1.
         23    2    1    2    0    0  0.00000000000E+00  0.00000000000E+00  0.00000000000E+00  0.10000000000E+03  0.10000000000E+03 0.  0.
          5    1    3    3  501    0 -0.24273192424E+02  0.18659510000E+02  0.39249774727E+02  0.50000000000E+02  0.47000000000E+01 0. -1.
         -5    1    3    3    0  501  0.24273192424E+02 -0.18659510000E+02 -0.39249774727E+02  0.50000000000E+02  0.47000000000E+01 0.  1.
</event>
<event>
 5    1  0.9071520E-001  0.1000000E+03  0.7546771E-02  0.1163815E+00
         11   -1    0    0    0    0  0.00000000000E+00  0.00000000000E+00  0.50000000000E+02  0.50000000000E+02  0.00000000000E+00 0.  1.
        -11   -1    0    0    0    0 -0.00000000000E+00 -0.00000000000E+00 -0.50000000000E+02  0.50000000000E+02  0.00000000000E+00 0. -1.
         23    2    1    2    0    0  0.00000000000E+00  0.00000000000E+00  0.00000000000E+00  0.10000000000E+03  0.10000000000E+03 0.  0.
          5    1    3    3  501    0 -0.14754218270E+02 -0.46728848798E+02  0.87542979895E+01  0.50000000000E+02  0.47000000000E+01 0. -1.
         -5    1    3    3    0  501  0.14754218270E+02  0.46728848798E+02 -0.87542979895E+01  0.50000000000E+02  0.47000000000E+01 0.  1.
</event>
<event>
 5    1  0.9071520E-001  0.1000000E+03  0.7546771E-02  0.1163815E+00
         11   -1    0    0    0    0  0.00000000000E+00  0.00000000000E+00  0.50000000000E+02  0.50000000000E+02  0.00000000000E+00 0.  1.
        -11   -1    0    0    0    0 -0.00000000000E+00 -0.00000000000E+00 -0.50000000000E+02  0.50000000000E+02  0.00000000000E+00 0. -1.
         23    2    1    2    0    0  0.00000000000E+00  0.00000000000E+00  0.00000000000E+00  0.10000000000E+03  0.10000000000E+03 0.  0.
          5    1    3    3  501    0 -0.20392455306E+02 -0.27847639429E+02 -0.35868743284E+02  0.50000000000E+02  0.47000000000E+01 0. -1.
         -5    1    3    3    0  501  0.20392455306E+02  0.27847639429E+02  0.35868743284E+02  0.50000000000E+02  0.47000000000E+01 0.  1.
</event>
<event>
 5    1  0.9071520E-001  0.1000000E+03  0.7546771E-02  0.1163815E+00
         11   -1    0    0    0    0  0.00000000000E+00  0.00000000000E+00  0.50000000000E+02  0.50000000000E+02  0.00000000000E+00 0.  1.
        -11   -1    0    0    0    0 -0.00000000000E+00 -0.00000000000E+00 -0.50000000000E+02  0.50000000000E+02  0.00000000000E+00 0. -1.
         23    2    1    2    0    0  0.00000000000E+00  0.00000000000E+00  0.00000000000E+00  0.10000000000E+03  0.10000000000E+03 0.  0.
          5    1    3    3  501    0 -0.36735719470E+02  0.85388683625E+01 -0.32488223129E+02  0.50000000000E+02  0.47000000000E+01 0. -1.
         -5    1    3    3    0  501  0.36735719470E+02 -0.85388683625E+01  0.32488223129E+02  0.50000000000E+02  0.47000000000E+01 0.  1.
</event>
<event>
 5    1  0.9071520E-001  0.1000000E+03  0.7546771E-02  0.1163815E+00
         11   -1    0    0    0    0  0.00000000000E+00  0.00000000000E+00  0.50000000000E+02  0.50000000000E+02  0.00000000000E+00 0.  1.
        -11   -1    0    0    0    0 -0.00000000000E+00 -0.00000000000E+00 -0.50000000000E+02  0.50000000000E+02  0.00000000000E+00 0. -1.
         23    2    1    2    0    0  0.00000000000E+00  0.00000000000E+00  0.00000000000E+00  0.10000000000E+03  0.10000000000E+03 0.  0.
          5    1    3    3  501    0 -0.45199612409E+02 -0.42135807684E+01 -0.20424269269E+02  0.50000000000E+02  0.47000000000E+01 0. -1.
         -5    1    3    3    0  501  0.45199612409E+02  0.42135807684E+01  0.20424269269E+02  0.50000000000E+02  0.47000000000E+01 0.  1.
</event>
<event>
 5    1  0.9071520E-001  0.1000000E+03  0.7546771E-02  0.1163815E+00
         11   -1    0    0    0    0  0.00000000000E+00  0.00000000000E+00  0.50000000000E+02  0.50000000000E+02  0.00000000000E+00 0.  1.
        -11   -1    0    0    0    0 -0.00000000000E+00 -0.00000000000E+00 -0.50000000000E+02  0.50000000000E+02  0.00000000000E+00 0. -1.
         23    2    1    2    0    0  0.00000000000E+00  0.00000000000E+00  0.00000000000E+00  0.10000000000E+03  0.10000000000E+03 0.  0.
          5    1    3    3  501    0 -0.43267203721E+01 -0.41466820659E+01 -0.49416540942E+02  0.50000000000E+02  0.47000000000E+01 0. -1.
         -5    1    3    3    0  501  0.43267203721E+01  0.41466820659E+01  0.49416540942E+02  0.50000000000E+02  0.47000000000E+01 0.  1.
</event>
<event>
 5    1  0.9071520E-001  0.1000000E+03  0.7546771E-02  0.1163815E+00
         11   -1    0    0    0    0  0.00000000000E+00  0.00000000000E+00  0.50000000000E+02  0.50000000000E+02  0.00000000000E+00 0. -1.
        -11   -1    0    0    0    0 -0.00000000000E+00 -0.00000000000E+00 -0.50000000000E+02  0.50000000000E+02  0.00000000000E+00 0.  1.
         23    2    1    2    0    0  0.00000000000E+00  0.00000000000E+00  0.00000000000E+00  0.10000000000E+03  0.10000000000E+03 0.  0.
          5    1    3    3  501    0  0.40515011484E+01 -0.48862392055E+02  0.86001151786E+01  0.50000000000E+02  0.47000000000E+01 0. -1.
         -5    1    3    3    0  501 -0.40515011484E+01  0.48862392055E+02 -0.86001151786E+01  0.50000000000E+02  0.47000000000E+01 0.  1.
</event>
<event>
 5    1  0.9071520E-001  0.1000000E+03  0.7546771E-02  0.1163815E+00
         11   -1    0    0    0    0  0.00000000000E+00  0.00000000000E+00  0.50000000000E+02  0.50000000000E+02  0.00000000000E+00 0.  1.
        -11   -1    0    0    0    0 -0.00000000000E+00 -0.00000000000E+00 -0.50000000000E+02  0.50000000000E+02  0.00000000000E+00 0. -1.
         23    2    1    2    0    0  0.00000000000E+00  0.00000000000E+00  0.00000000000E+00  0.10000000000E+03  0.10000000000E+03 0.  0.
          5    1    3    3  501    0  0.40649558413E+02 -0.63442401970E+01 -0.28022741071E+02  0.50000000000E+02  0.47000000000E+01 0. -1.
         -5    1    3    3    0  501 -0.40649558413E+02  0.63442401970E+01  0.28022741071E+02  0.50000000000E+02  0.47000000000E+01 0.  1.
</event>
<event>
 5    1  0.9071520E-001  0.1000000E+03  0.7546771E-02  0.1163815E+00
         11   -1    0    0    0    0  0.00000000000E+00  0.00000000000E+00  0.50000000000E+02  0.50000000000E+02  0.00000000000E+00 0. -1.
        -11   -1    0    0    0    0 -0.00000000000E+00 -0.00000000000E+00 -0.50000000000E+02  0.50000000000E+02  0.00000000000E+00 0.  1.
         23    2    1    2    0    0  0.00000000000E+00  0.00000000000E+00  0.00000000000E+00  0.10000000000E+03  0.10000000000E+03 0.  0.
          5    1    3    3  501    0 -0.12899580798E+02  0.15333586086E+02  0.45567444003E+02  0.50000000000E+02  0.47000000000E+01 0. -1.
         -5    1    3    3    0  501  0.12899580798E+02 -0.15333586086E+02 -0.45567444003E+02  0.50000000000E+02  0.47000000000E+01 0.  1.
</event>
<event>
 5    1  0.9071520E-001  0.1000000E+03  0.7546771E-02  0.1163815E+00
         11   -1    0    0    0    0  0.00000000000E+00  0.00000000000E+00  0.50000000000E+02  0.50000000000E+02  0.00000000000E+00 0. -1.
        -11   -1    0    0    0    0 -0.00000000000E+00 -0.00000000000E+00 -0.50000000000E+02  0.50000000000E+02  0.00000000000E+00 0.  1.
         23    2    1    2    0    0  0.00000000000E+00  0.00000000000E+00  0.00000000000E+00  0.10000000000E+03  0.10000000000E+03 0.  0.
          5    1    3    3  501    0 -0.48233299642E+02 -0.18851654735E+01 -0.12161618182E+02  0.50000000000E+02  0.47000000000E+01 0. -1.
         -5    1    3    3    0  501  0.48233299642E+02  0.18851654735E+01  0.12161618182E+02  0.50000000000E+02  0.47000000000E+01 0.  1.
</event>
<event>
 5    1  0.9071520E-001  0.1000000E+03  0.7546771E-02  0.1163815E+00
         11   -1    0    0    0    0  0.00000000000E+00  0.00000000000E+00  0.50000000000E+02  0.50000000000E+02  0.00000000000E+00 0.  1.
        -11   -1    0    0    0    0 -0.00000000000E+00 -0.00000000000E+00 -0.50000000000E+02  0.50000000000E+02  0.00000000000E+00 0. -1.
         23    2    1    2    0    0  0.00000000000E+00  0.00000000000E+00  0.00000000000E+00  0.10000000000E+03  0.10000000000E+03 0.  0.
          5    1    3    3  501    0  0.91023290651E+00  0.47051240754E+02 -0.16225357301E+02  0.50000000000E+02  0.47000000000E+01 0. -1.
         -5    1    3    3    0  501 -0.91023290651E+00 -0.47051240754E+02  0.16225357301E+02  0.50000000000E+02  0.47000000000E+01 0.  1.
</event>
<event>
 5    1  0.9071520E-001  0.1000000E+03  0.7546771E-02  0.1163815E+00
         11   -1    0    0    0    0  0.00000000000E+00  0.00000000000E+00  0.50000000000E+02  0.50000000000E+02  0.00000000000E+00 0.  1.
        -11   -1    0    0    0    0 -0.00000000000E+00 -0.00000000000E+00 -0.50000000000E+02  0.50000000000E+02  0.00000000000E+00 0. -1.
         23    2    1    2    0    0  0.00000000000E+00  0.00000000000E+00  0.00000000000E+00  0.10000000000E+03  0.10000000000E+03 0.  0.
          5    1    3    3  501    0 -0.30851667684E+02 -0.27140931881E+02  0.28097231496E+02  0.50000000000E+02  0.47000000000E+01 0.  1.
         -5    1    3    3    0  501  0.30851667684E+02  0.27140931881E+02 -0.28097231496E+02  0.50000000000E+02  0.47000000000E+01 0. -1.
</event>
<event>
 5    1  0.9071520E-001  0.1000000E+03  0.7546771E-02  0.1163815E+00
         11   -1    0    0    0    0  0.00000000000E+00  0.00000000000E+00  0.50000000000E+02  0.50000000000E+02  0.00000000000E+00 0.  1.
        -11   -1    0    0    0    0 -0.00000000000E+00 -0.00000000000E+00 -0.50000000000E+02  0.50000000000E+02  0.00000000000E+00 0. -1.
         23    2    1    2    0    0  0.00000000000E+00  0.00000000000E+00  0.00000000000E+00  0.10000000000E+03  0.10000000000E+03 0.  0.
          5    1    3    3  501    0  0.86158354242E+00 -0.12852283660E+02 -0.48083120516E+02  0.50000000000E+02  0.47000000000E+01 0. -1.
         -5    1    3    3    0  501 -0.86158354242E+00  0.12852283660E+02  0.48083120516E+02  0.50000000000E+02  0.47000000000E+01 0.  1.
</event>
<event>
 5    1  0.9071520E-001  0.1000000E+03  0.7546771E-02  0.1163815E+00
         11   -1    0    0    0    0  0.00000000000E+00  0.00000000000E+00  0.50000000000E+02  0.50000000000E+02  0.00000000000E+00 0.  1.
        -11   -1    0    0    0    0 -0.00000000000E+00 -0.00000000000E+00 -0.50000000000E+02  0.50000000000E+02  0.00000000000E+00 0. -1.
         23    2    1    2    0    0  0.00000000000E+00  0.00000000000E+00  0.00000000000E+00  0.10000000000E+03  0.10000000000E+03 0.  0.
          5    1    3    3  501    0  0.42126347028E+02  0.46303656823E+00 -0.26515400868E+02  0.50000000000E+02  0.47000000000E+01 0. -1.
         -5    1    3    3    0  501 -0.42126347028E+02 -0.46303656823E+00  0.26515400868E+02  0.50000000000E+02  0.47000000000E+01 0.  1.
</event>
<event>
 5    1  0.9071520E-001  0.1000000E+03  0.7546771E-02  0.1163815E+00
         11   -1    0    0    0    0  0.00000000000E+00  0.00000000000E+00  0.50000000000E+02  0.50000000000E+02  0.00000000000E+00 0. -1.
        -11   -1    0    0    0    0 -0.00000000000E+00 -0.00000000000E+00 -0.50000000000E+02  0.50000000000E+02  0.00000000000E+00 0.  1.
         23    2    1    2    0    0  0.00000000000E+00  0.00000000000E+00  0.00000000000E+00  0.10000000000E+03  0.10000000000E+03 0.  0.
          5    1    3    3  501    0  0.10855908403E+02  0.42765251213E+02  0.23047614659E+02  0.50000000000E+02  0.47000000000E+01 0. -1.
         -5    1    3    3    0  501 -0.10855908403E+02 -0.42765251213E+02 -0.23047614659E+02  0.50000000000E+02  0.47000000000E+01 0.  1.
</event>
<event>
 5    1  0.9071520E-001  0.1000000E+03  0.7546771E-02  0.1163815E+00
         11   -1    0    0    0    0  0.00000000000E+00  0.00000000000E+00  0.50000000000E+02  0.50000000000E+02  0.00000000000E+00 0. -1.
        -11   -1    0    0    0    0 -0.00000000000E+00 -0.00000000000E+00 -0.50000000000E+02  0.50000000000E+02  0.00000000000E+00 0.  1.
         23    2    1    2    0    0  0.00000000000E+00  0.00000000000E+00  0.00000000000E+00  0.10000000000E+03  0.10000000000E+03 0.  0.
          5    1    3    3  501    0 -0.22366406664E+01  0.36520052159E+02  0.33751936668E+02  0.50000000000E+02  0.47000000000E+01 0. -1.
         -5    1    3    3    0  501  0.22366406664E+01 -0.36520052159E+02 -0.33751936668E+02  0.50000000000E+02  0.47000000000E+01 0.  1.
</event>
<event>
 5    1  0.9071520E-001  0.1000000E+03  0.7546771E-02  0.1163815E+00
         11   -1    0    0    0    0  0.00000000000E+00  0.00000000000E+00  0.50000000000E+02  0.50000000000E+02  0.00000000000E+00 0.  1.
        -11   -1    0    0    0    0 -0.00000000000E+00 -0.00000000000E+00 -0.50000000000E+02  0.50000000000E+02  0.00000000000E+00 0. -1.
         23    2    1    2    0    0  0.00000000000E+00  0.00000000000E+00  0.00000000000E+00  0.10000000000E+03  0.10000000000E+03 0.  0.
          5    1    3    3  501    0  0.29391042118E+02 -0.11056933985E+02 -0.38624096806E+02  0.50000000000E+02  0.47000000000E+01 0. -1.
         -5    1    3    3    0  501 -0.29391042118E+02  0.11056933985E+02  0.38624096806E+02  0.50000000000E+02  0.47000000000E+01 0.  1.
</event>
<event>
 5    1  0.9071520E-001  0.1000000E+03  0.7546771E-02  0.1163815E+00
         11   -1    0    0    0    0  0.00000000000E+00  0.00000000000E+00  0.50000000000E+02  0.50000000000E+02  0.00000000000E+00 0. -1.
        -11   -1    0    0    0    0 -0.00000000000E+00 -0.00000000000E+00 -0.50000000000E+02  0.50000000000E+02  0.00000000000E+00 0.  1.
         23    2    1    2    0    0  0.00000000000E+00  0.00000000000E+00  0.00000000000E+00  0.10000000000E+03  0.10000000000E+03 0.  0.
          5    1    3    3  501    0 -0.44673177767E+02 -0.12410136475E+02  0.18116448351E+02  0.50000000000E+02  0.47000000000E+01 0. -1.
         -5    1    3    3    0  501  0.44673177767E+02  0.12410136475E+02 -0.18116448351E+02  0.50000000000E+02  0.47000000000E+01 0.  1.
</event>
<event>
 5    1  0.9071520E-001  0.1000000E+03  0.7546771E-02  0.1163815E+00
         11   -1    0    0    0    0  0.00000000000E+00  0.00000000000E+00  0.50000000000E+02  0.50000000000E+02  0.00000000000E+00 0. -1.
        -11   -1    0    0    0    0 -0.00000000000E+00 -0.00000000000E+00 -0.50000000000E+02  0.50000000000E+02  0.00000000000E+00 0.  1.
         23    2    1    2    0    0  0.00000000000E+00  0.00000000000E+00  0.00000000000E+00  0.10000000000E+03  0.10000000000E+03 0.  0.
          5    1    3    3  501    0 -0.14503226648E+02 -0.45398509063E+02  0.14371561908E+02  0.50000000000E+02  0.47000000000E+01 0. -1.
         -5    1    3    3    0  501  0.14503226648E+02  0.45398509063E+02 -0.14371561908E+02  0.50000000000E+02  0.47000000000E+01 0.  1.
</event>
<event>
 5    1  0.9071520E-001  0.1000000E+03  0.7546771E-02  0.1163815E+00
         11   -1    0    0    0    0  0.00000000000E+00  0.00000000000E+00  0.50000000000E+02  0.50000000000E+02  0.00000000000E+00 0.  1.
        -11   -1    0    0    0    0 -0.00000000000E+00 -0.00000000000E+00 -0.50000000000E+02  0.50000000000E+02  0.00000000000E+00 0. -1.
         23    2    1    2    0    0  0.00000000000E+00  0.00000000000E+00  0.00000000000E+00  0.10000000000E+03  0.10000000000E+03 0.  0.
          5    1    3    3  501    0  0.65438151791E+00 -0.45676032842E+02 -0.19778316628E+02  0.50000000000E+02  0.47000000000E+01 0. -1.
         -5    1    3    3    0  501 -0.65438151791E+00  0.45676032842E+02  0.19778316628E+02  0.50000000000E+02  0.47000000000E+01 0.  1.
</event>
<event>
 5    1  0.9071520E-001  0.1000000E+03  0.7546771E-02  0.1163815E+00
         11   -1    0    0    0    0  0.00000000000E+00  0.00000000000E+00  0.50000000000E+02  0.50000000000E+02  0.00000000000E+00 0. -1.
        -11   -1    0    0    0    0 -0.00000000000E+00 -0.00000000000E+00 -0.50000000000E+02  0.50000000000E+02  0.00000000000E+00 0.  1.
         23    2    1    2    0    0  0.00000000000E+00  0.00000000000E+00  0.00000000000E+00  0.10000000000E+03  0.10000000000E+03 0.  0.
          5    1    3    3  501    0 -0.27632800320E+02  0.26333649528E+01  0.41320742194E+02  0.50000000000E+02  0.47000000000E+01 0. -1.
         -5    1    3    3    0  501  0.27632800320E+02 -0.26333649528E+01 -0.41320742194E+02  0.50000000000E+02  0.47000000000E+01 0.  1.
</event>
<event>
 5    1  0.9071520E-001  0.1000000E+03  0.7546771E-02  0.1163815E+00
         11   -1    0    0    0    0  0.00000000000E+00  0.00000000000E+00  0.50000000000E+02  0.50000000000E+02  0.00000000000E+00 0. -1.
        -11   -1    0    0    0    0 -0.00000000000E+00 -0.00000000000E+00 -0.50000000000E+02  0.50000000000E+02  0.00000000000E+00 0.  1.
         23    2    1    2    0    0  0.00000000000E+00  0.00000000000E+00  0.00000000000E+00  0.10000000000E+03  0.10000000000E+03 0.  0.
          5    1    3    3  501    0  0.15878566493E+02  0.46582925965E+02  0.74707519514E+01  0.50000000000E+02  0.47000000000E+01 0. -1.
         -5    1    3    3    0  501 -0.15878566493E+02 -0.46582925965E+02 -0.74707519514E+01  0.50000000000E+02  0.47000000000E+01 0.  1.
</event>
<event>
 5    1  0.9071520E-001  0.1000000E+03  0.7546771E-02  0.1163815E+00
         11   -1    0    0    0    0  0.00000000000E+00  0.00000000000E+00  0.50000000000E+02  0.50000000000E+02  0.00000000000E+00 0. -1.
        -11   -1    0    0    0    0 -0.00000000000E+00 -0.00000000000E+00 -0.50000000000E+02  0.50000000000E+02  0.00000000000E+00 0.  1.
         23    2    1    2    0    0  0.00000000000E+00  0.00000000000E+00  0.00000000000E+00  0.10000000000E+03  0.10000000000E+03 0.  0.
          5    1    3    3  501    0  0.30971023085E+02  0.33582362212E+02  0.19771966957E+02  0.50000000000E+02  0.47000000000E+01 0. -1.
         -5    1    3    3    0  501 -0.30971023085E+02 -0.33582362212E+02 -0.19771966957E+02  0.50000000000E+02  0.47000000000E+01 0.  1.
</event>
<event>
 5    1  0.9071520E-001  0.1000000E+03  0.7546771E-02  0.1163815E+00
         11   -1    0    0    0    0  0.00000000000E+00  0.00000000000E+00  0.50000000000E+02  0.50000000000E+02  0.00000000000E+00 0. -1.
        -11   -1    0    0    0    0 -0.00000000000E+00 -0.00000000000E+00 -0.50000000000E+02  0.50000000000E+02  0.00000000000E+00 0.  1.
         23    2    1    2    0    0  0.00000000000E+00  0.00000000000E+00  0.00000000000E+00  0.10000000000E+03  0.10000000000E+03 0.  0.
          5    1    3    3  501    0 -0.71566662353E+01 -0.48343737072E+02  0.94644183267E+01  0.50000000000E+02  0.47000000000E+01 0. -1.
         -5    1    3    3    0  501  0.71566662353E+01  0.48343737072E+02 -0.94644183267E+01  0.50000000000E+02  0.47000000000E+01 0.  1.
</event>
<event>
 5    1  0.9071520E-001  0.1000000E+03  0.7546771E-02  0.1163815E+00
         11   -1    0    0    0    0  0.00000000000E+00  0.00000000000E+00  0.50000000000E+02  0.50000000000E+02  0.00000000000E+00 0. -1.
        -11   -1    0    0    0    0 -0.00000000000E+00 -0.00000000000E+00 -0.50000000000E+02  0.50000000000E+02  0.00000000000E+00 0.  1.
         23    2    1    2    0    0  0.00000000000E+00  0.00000000000E+00  0.00000000000E+00  0.10000000000E+03  0.10000000000E+03 0.  0.
          5    1    3    3  501    0  0.48041234721E+02 -0.10634806186E+02 -0.75399379200E+01  0.50000000000E+02  0.47000000000E+01 0. -1.
         -5    1    3    3    0  501 -0.48041234721E+02  0.10634806186E+02  0.75399379200E+01  0.50000000000E+02  0.47000000000E+01 0.  1.
</event>
<event>
 5    1  0.9071520E-001  0.1000000E+03  0.7546771E-02  0.1163815E+00
         11   -1    0    0    0    0  0.00000000000E+00  0.00000000000E+00  0.50000000000E+02  0.50000000000E+02  0.00000000000E+00 0.  1.
        -11   -1    0    0    0    0 -0.00000000000E+00 -0.00000000000E+00 -0.50000000000E+02  0.50000000000E+02  0.00000000000E+00 0. -1.
         23    2    1    2    0    0  0.00000000000E+00  0.00000000000E+00  0.00000000000E+00  0.10000000000E+03  0.10000000000E+03 0.  0.
          5    1    3    3  501    0  0.70188123937E+01 -0.21860938186E+02 -0.44167246396E+02  0.50000000000E+02  0.47000000000E+01 0. -1.
         -5    1    3    3    0  501 -0.70188123937E+01  0.21860938186E+02  0.44167246396E+02  0.50000000000E+02  0.47000000000E+01 0.  1.
</event>
<event>
 5    1  0.9071520E-001  0.1000000E+03  0.7546771E-02  0.1163815E+00
         11   -1    0    0    0    0  0.00000000000E+00  0.00000000000E+00  0.50000000000E+02  0.50000000000E+02  0.00000000000E+00 0. -1.
        -11   -1    0    0    0    0 -0.00000000000E+00 -0.00000000000E+00 -0.50000000000E+02  0.50000000000E+02  0.00000000000E+00 0.  1.
         23    2    1    2    0    0  0.00000000000E+00  0.00000000000E+00  0.00000000000E+00  0.10000000000E+03  0.10000000000E+03 0.  0.
          5    1    3    3  501    0 -0.26156005460E+02  0.41795062204E+02 -0.68517263325E+01  0.50000000000E+02  0.47000000000E+01 0. -1.
         -5    1    3    3    0  501  0.26156005460E+02 -0.41795062204E+02  0.68517263325E+01  0.50000000000E+02  0.47000000000E+01 0.  1.
</event>
<event>
 5    1  0.9071520E-001  0.1000000E+03  0.7546771E-02  0.1163815E+00
         11   -1    0    0    0    0  0.00000000000E+00  0.00000000000E+00  0.50000000000E+02  0.50000000000E+02  0.00000000000E+00 0.  1.
        -11   -1    0    0    0    0 -0.00000000000E+00 -0.00000000000E+00 -0.50000000000E+02  0.50000000000E+02  0.00000000000E+00 0. -1.
         23    2    1    2    0    0  0.00000000000E+00  0.00000000000E+00  0.00000000000E+00  0.10000000000E+03  0.10000000000E+03 0.  0.
          5    1    3    3  501    0  0.17881492351E+02  0.62751946724E+01 -0.46030252694E+02  0.50000000000E+02  0.47000000000E+01 0. -1.
         -5    1    3    3    0  501 -0.17881492351E+02 -0.62751946724E+01  0.46030252694E+02  0.50000000000E+02  0.47000000000E+01 0.  1.
</event>
<event>
 5    1  0.9071520E-001  0.1000000E+03  0.7546771E-02  0.1163815E+00
         11   -1    0    0    0    0  0.00000000000E+00  0.00000000000E+00  0.50000000000E+02  0.50000000000E+02  0.00000000000E+00 0.  1.
        -11   -1    0    0    0    0 -0.00000000000E+00 -0.00000000000E+00 -0.50000000000E+02  0.50000000000E+02  0.00000000000E+00 0. -1.
         23    2    1    2    0    0  0.00000000000E+00  0.00000000000E+00  0.00000000000E+00  0.10000000000E+03  0.10000000000E+03 0.  0.
          5    1    3    3  501    0 -0.13849042510E+02 -0.55358616955E+01 -0.47491770412E+02  0.50000000000E+02  0.47000000000E+01 0. -1.
         -5    1    3    3    0  501  0.13849042510E+02  0.55358616955E+01  0.47491770412E+02  0.50000000000E+02  0.47000000000E+01 0.  1.
</event>
<event>
 5    1  0.9071520E-001  0.1000000E+03  0.7546771E-02  0.1163815E+00
         11   -1    0    0    0    0  0.00000000000E+00  0.00000000000E+00  0.50000000000E+02  0.50000000000E+02  0.00000000000E+00 0.  1.
        -11   -1    0    0    0    0 -0.00000000000E+00 -0.00000000000E+00 -0.50000000000E+02  0.50000000000E+02  0.00000000000E+00 0. -1.
         23    2    1    2    0    0  0.00000000000E+00  0.00000000000E+00  0.00000000000E+00  0.10000000000E+03  0.10000000000E+03 0.  0.
          5    1    3    3  501    0 -0.38432192345E+01 -0.26689829856E+02 -0.41842474212E+02  0.50000000000E+02  0.47000000000E+01 0. -1.
         -5    1    3    3    0  501  0.38432192345E+01  0.26689829856E+02  0.41842474212E+02  0.50000000000E+02  0.47000000000E+01 0.  1.
</event>
<event>
 5    1  0.9071520E-001  0.1000000E+03  0.7546771E-02  0.1163815E+00
         11   -1    0    0    0    0  0.00000000000E+00  0.00000000000E+00  0.50000000000E+02  0.50000000000E+02  0.00000000000E+00 0.  1.
        -11   -1    0    0    0    0 -0.00000000000E+00 -0.00000000000E+00 -0.50000000000E+02  0.50000000000E+02  0.00000000000E+00 0. -1.
         23    2    1    2    0    0  0.00000000000E+00  0.00000000000E+00  0.00000000000E+00  0.10000000000E+03  0.10000000000E+03 0.  0.
          5    1    3    3  501    0 -0.44214643078E+02  0.12873716309E+02  0.18900866803E+02  0.50000000000E+02  0.47000000000E+01 0. -1.
         -5    1    3    3    0  501  0.44214643078E+02 -0.12873716309E+02 -0.18900866803E+02  0.50000000000E+02  0.47000000000E+01 0.  1.
</event>
<event>
 5    1  0.9071520E-001  0.1000000E+03  0.7546771E-02  0.1163815E+00
         11   -1    0    0    0    0  0.00000000000E+00  0.00000000000E+00  0.50000000000E+02  0.50000000000E+02  0.00000000000E+00 0. -1.
        -11   -1    0    0    0    0 -0.00000000000E+00 -0.00000000000E+00 -0.50000000000E+02  0.50000000000E+02  0.00000000000E+00 0.  1.
         23    2    1    2    0    0  0.00000000000E+00  0.00000000000E+00  0.00000000000E+00  0.10000000000E+03  0.10000000000E+03 0.  0.
          5    1    3    3  501    0 -0.46628131510E+02  0.13475300085E+02  0.11051861357E+02  0.50000000000E+02  0.47000000000E+01 0. -1.
         -5    1    3    3    0  501  0.46628131510E+02 -0.13475300085E+02 -0.11051861357E+02  0.50000000000E+02  0.47000000000E+01 0.  1.
</event>
<event>
 5    1  0.9071520E-001  0.1000000E+03  0.7546771E-02  0.1163815E+00
         11   -1    0    0    0    0  0.00000000000E+00  0.00000000000E+00  0.50000000000E+02  0.50000000000E+02  0.00000000000E+00 0.  1.
        -11   -1    0    0    0    0 -0.00000000000E+00 -0.00000000000E+00 -0.50000000000E+02  0.50000000000E+02  0.00000000000E+00 0. -1.
         23    2    1    2    0    0  0.00000000000E+00  0.00000000000E+00  0.00000000000E+00  0.10000000000E+03  0.10000000000E+03 0.  0.
          5    1    3    3  501    0 -0.82097737455E+00  0.14069006063E+02 -0.47742005242E+02  0.50000000000E+02  0.47000000000E+01 0. -1.
         -5    1    3    3    0  501  0.82097737455E+00 -0.14069006063E+02  0.47742005242E+02  0.50000000000E+02  0.47000000000E+01 0.  1.
</event>
<event>
 5    1  0.9071520E-001  0.1000000E+03  0.7546771E-02  0.1163815E+00
         11   -1    0    0    0    0  0.00000000000E+00  0.00000000000E+00  0.50000000000E+02  0.50000000000E+02  0.00000000000E+00 0. -1.
        -11   -1    0    0    0    0 -0.00000000000E+00 -0.00000000000E+00 -0.50000000000E+02  0.50000000000E+02  0.00000000000E+00 0.  1.
         23    2    1    2    0    0  0.00000000000E+00  0.00000000000E+00  0.00000000000E+00  0.10000000000E+03  0.10000000000E+03 0.  0.
          5    1    3    3  501    0  0.22472701735E+02  0.42510010392E+02  0.12875818157E+02  0.50000000000E+02  0.47000000000E+01 0. -1.
         -5    1    3    3    0  501 -0.22472701735E+02 -0.42510010392E+02 -0.12875818157E+02  0.50000000000E+02  0.47000000000E+01 0.  1.
</event>
<event>
 5    1  0.9071520E-001  0.1000000E+03  0.7546771E-02  0.1163815E+00
         11   -1    0    0    0    0  0.00000000000E+00  0.00000000000E+00  0.50000000000E+02  0.50000000000E+02  0.00000000000E+00 0. -1.
        -11   -1    0    0    0    0 -0.00000000000E+00 -0.00000000000E+00 -0.50000000000E+02  0.50000000000E+02  0.00000000000E+00 0.  1.
         23    2    1    2    0    0  0.00000000000E+00  0.00000000000E+00  0.00000000000E+00  0.10000000000E+03  0.10000000000E+03 0.  0.
          5    1    3    3  501    0  0.47193170280E+02  0.15665215507E+02 -0.23055806226E+01  0.50000000000E+02  0.47000000000E+01 0. -1.
         -5    1    3    3    0  501 -0.47193170280E+02 -0.15665215507E+02  0.23055806226E+01  0.50000000000E+02  0.47000000000E+01 0.  1.
</event>
<event>
 5    1  0.9071520E-001  0.1000000E+03  0.7546771E-02  0.1163815E+00
         11   -1    0    0    0    0  0.00000000000E+00  0.00000000000E+00  0.50000000000E+02  0.50000000000E+02  0.00000000000E+00 0. -1.
        -11   -1    0    0    0    0 -0.00000000000E+00 -0.00000000000E+00 -0.50000000000E+02  0.50000000000E+02  0.00000000000E+00 0.  1.
         23    2    1    2    0    0  0.00000000000E+00  0.00000000000E+00  0.00000000000E+00  0.10000000000E+03  0.10000000000E+03 0.  0.
          5    1    3    3  501    0 -0.22763349712E+02  0.42105012309E+02  0.13671424517E+02  0.50000000000E+02  0.47000000000E+01 0. -1.
         -5    1    3    3    0  501  0.22763349712E+02 -0.42105012309E+02 -0.13671424517E+02  0.50000000000E+02  0.47000000000E+01 0.  1.
</event>
<event>
 5    1  0.9071520E-001  0.1000000E+03  0.7546771E-02  0.1163815E+00
         11   -1    0    0    0    0  0.00000000000E+00  0.00000000000E+00  0.50000000000E+02  0.50000000000E+02  0.00000000000E+00 0. -1.
        -11   -1    0    0    0    0 -0.00000000000E+00 -0.00000000000E+00 -0.50000000000E+02  0.50000000000E+02  0.00000000000E+00 0.  1.
         23    2    1    2    0    0  0.00000000000E+00  0.00000000000E+00  0.00000000000E+00  0.10000000000E+03  0.10000000000E+03 0.  0.
          5    1    3    3  501    0  0.34841686495E+02  0.80905332513E+01  0.34619505397E+02  0.50000000000E+02  0.47000000000E+01 0. -1.
         -5    1    3    3    0  501 -0.34841686495E+02 -0.80905332513E+01 -0.34619505397E+02  0.50000000000E+02  0.47000000000E+01 0.  1.
</event>
<event>
 5    1  0.9071520E-001  0.1000000E+03  0.7546771E-02  0.1163815E+00
         11   -1    0    0    0    0  0.00000000000E+00  0.00000000000E+00  0.50000000000E+02  0.50000000000E+02  0.00000000000E+00 0. -1.
        -11   -1    0    0    0    0 -0.00000000000E+00 -0.00000000000E+00 -0.50000000000E+02  0.50000000000E+02  0.00000000000E+00 0.  1.
         23    2    1    2    0    0  0.00000000000E+00  0.00000000000E+00  0.00000000000E+00  0.10000000000E+03  0.10000000000E+03 0.  0.
          5    1    3    3  501    0 -0.44426264082E+02  0.21813666478E+02  0.53273834594E+01  0.50000000000E+02  0.47000000000E+01 0. -1.
         -5    1    3    3    0  501  0.44426264082E+02 -0.21813666478E+02 -0.53273834594E+01  0.50000000000E+02  0.47000000000E+01 0.  1.
</event>
<event>
 5    1  0.9071520E-001  0.1000000E+03  0.7546771E-02  0.1163815E+00
         11   -1    0    0    0    0  0.00000000000E+00  0.00000000000E+00  0.50000000000E+02  0.50000000000E+02  0.00000000000E+00 0. -1.
        -11   -1    0    0    0    0 -0.00000000000E+00 -0.00000000000E+00 -0.50000000000E+02  0.50000000000E+02  0.00000000000E+00 0.  1.
         23    2    1    2    0    0  0.00000000000E+00  0.00000000000E+00  0.00000000000E+00  0.10000000000E+03  0.10000000000E+03 0.  0.
          5    1    3    3  501    0  0.29639871329E+02 -0.25648403627E+02  0.30684644678E+02  0.50000000000E+02  0.47000000000E+01 0. -1.
         -5    1    3    3    0  501 -0.29639871329E+02  0.25648403627E+02 -0.30684644678E+02  0.50000000000E+02  0.47000000000E+01 0.  1.
</event>
<event>
 5    1  0.9071520E-001  0.1000000E+03  0.7546771E-02  0.1163815E+00
         11   -1    0    0    0    0  0.00000000000E+00  0.00000000000E+00  0.50000000000E+02  0.50000000000E+02  0.00000000000E+00 0. -1.
        -11   -1    0    0    0    0 -0.00000000000E+00 -0.00000000000E+00 -0.50000000000E+02  0.50000000000E+02  0.00000000000E+00 0.  1.
         23    2    1    2    0    0  0.00000000000E+00  0.00000000000E+00  0.00000000000E+00  0.10000000000E+03  0.10000000000E+03 0.  0.
          5    1    3    3  501    0 -0.27335705498E+02 -0.39601926863E+02 -0.12741922684E+02  0.50000000000E+02  0.47000000000E+01 0. -1.
         -5    1    3    3    0  501  0.27335705498E+02  0.39601926863E+02  0.12741922684E+02  0.50000000000E+02  0.47000000000E+01 0.  1.
</event>
<event>
 5    1  0.9071520E-001  0.1000000E+03  0.7546771E-02  0.1163815E+00
         11   -1    0    0    0    0  0.00000000000E+00  0.00000000000E+00  0.50000000000E+02  0.50000000000E+02  0.00000000000E+00 0. -1.
        -11   -1    0    0    0    0 -0.00000000000E+00 -0.00000000000E+00 -0.50000000000E+02  0.50000000000E+02  0.00000000000E+00 0.  1.
         23    2    1    2    0    0  0.00000000000E+00  0.00000000000E+00  0.00000000000E+00  0.10000000000E+03  0.10000000000E+03 0.  0.
          5    1    3    3  501    0  0.24699040971E+02  0.42799114812E+02  0.60085893847E+01  0.50000000000E+02  0.47000000000E+01 0. -1.
         -5    1    3    3    0  501 -0.24699040971E+02 -0.42799114812E+02 -0.60085893847E+01  0.50000000000E+02  0.47000000000E+01 0.  1.
</event>
<event>
 5    1  0.9071520E-001  0.1000000E+03  0.7546771E-02  0.1163815E+00
         11   -1    0    0    0    0  0.00000000000E+00  0.00000000000E+00  0.50000000000E+02  0.50000000000E+02  0.00000000000E+00 0. -1.
        -11   -1    0    0    0    0 -0.00000000000E+00 -0.00000000000E+00 -0.50000000000E+02  0.50000000000E+02  0.00000000000E+00 0.  1.
         23    2    1    2    0    0  0.00000000000E+00  0.00000000000E+00  0.00000000000E+00  0.10000000000E+03  0.10000000000E+03 0.  0.
          5    1    3    3  501    0 -0.12233364749E+02  0.11134759624E+01  0.48239143423E+02  0.50000000000E+02  0.47000000000E+01 0. -1.
         -5    1    3    3    0  501  0.12233364749E+02 -0.11134759624E+01 -0.48239143423E+02  0.50000000000E+02  0.47000000000E+01 0.  1.
</event>
<event>
 5    1  0.9071520E-001  0.1000000E+03  0.7546771E-02  0.1163815E+00
         11   -1    0    0    0    0  0.00000000000E+00  0.00000000000E+00  0.50000000000E+02  0.50000000000E+02  0.00000000000E+00 0. -1.
        -11   -1    0    0    0    0 -0.00000000000E+00 -0.00000000000E+00 -0.50000000000E+02  0.50000000000E+02  0.00000000000E+00 0.  1.
         23    2    1    2    0    0  0.00000000000E+00  0.00000000000E+00  0.00000000000E+00  0.10000000000E+03  0.10000000000E+03 0.  0.
          5    1    3    3  501    0  0.39318209574E+02 -0.29694860854E+02  0.70854523343E+01  0.50000000000E+02  0.47000000000E+01 0. -1.
         -5    1    3    3    0  501 -0.39318209574E+02  0.29694860854E+02 -0.70854523343E+01  0.50000000000E+02  0.47000000000E+01 0.  1.
</event>
<event>
 5    1  0.9071520E-001  0.1000000E+03  0.7546771E-02  0.1163815E+00
         11   -1    0    0    0    0  0.00000000000E+00  0.00000000000E+00  0.50000000000E+02  0.50000000000E+02  0.00000000000E+00 0. -1.
        -11   -1    0    0    0    0 -0.00000000000E+00 -0.00000000000E+00 -0.50000000000E+02  0.50000000000E+02  0.00000000000E+00 0.  1.
         23    2    1    2    0    0  0.00000000000E+00  0.00000000000E+00  0.00000000000E+00  0.10000000000E+03  0.10000000000E+03 0.  0.
          5    1    3    3  501    0  0.48029842278E+02  0.12634401667E+02  0.33787786641E+01  0.50000000000E+02  0.47000000000E+01 0. -1.
         -5    1    3    3    0  501 -0.48029842278E+02 -0.12634401667E+02 -0.33787786641E+01  0.50000000000E+02  0.47000000000E+01 0.  1.
</event>
<event>
 5    1  0.9071520E-001  0.1000000E+03  0.7546771E-02  0.1163815E+00
         11   -1    0    0    0    0  0.00000000000E+00  0.00000000000E+00  0.50000000000E+02  0.50000000000E+02  0.00000000000E+00 0.  1.
        -11   -1    0    0    0    0 -0.00000000000E+00 -0.00000000000E+00 -0.50000000000E+02  0.50000000000E+02  0.00000000000E+00 0. -1.
         23    2    1    2    0    0  0.00000000000E+00  0.00000000000E+00  0.00000000000E+00  0.10000000000E+03  0.10000000000E+03 0.  0.
          5    1    3    3  501    0 -0.34342557811E+02  0.25875627544E+02 -0.25078887978E+02  0.50000000000E+02  0.47000000000E+01 0. -1.
         -5    1    3    3    0  501  0.34342557811E+02 -0.25875627544E+02  0.25078887978E+02  0.50000000000E+02  0.47000000000E+01 0.  1.
</event>
<event>
 5    1  0.9071520E-001  0.1000000E+03  0.7546771E-02  0.1163815E+00
         11   -1    0    0    0    0  0.00000000000E+00  0.00000000000E+00  0.50000000000E+02  0.50000000000E+02  0.00000000000E+00 0. -1.
        -11   -1    0    0    0    0 -0.00000000000E+00 -0.00000000000E+00 -0.50000000000E+02  0.50000000000E+02  0.00000000000E+00 0.  1.
         23    2    1    2    0    0  0.00000000000E+00  0.00000000000E+00  0.00000000000E+00  0.10000000000E+03  0.10000000000E+03 0.  0.
          5    1    3    3  501    0 -0.41009365016E+02 -0.88655290993E+01  0.26787018773E+02  0.50000000000E+02  0.47000000000E+01 0. -1.
         -5    1    3    3    0  501  0.41009365016E+02  0.88655290993E+01 -0.26787018773E+02  0.50000000000E+02  0.47000000000E+01 0.  1.
</event>
<event>
 5    1  0.9071520E-001  0.1000000E+03  0.7546771E-02  0.1163815E+00
         11   -1    0    0    0    0  0.00000000000E+00  0.00000000000E+00  0.50000000000E+02  0.50000000000E+02  0.00000000000E+00 0. -1.
        -11   -1    0    0    0    0 -0.00000000000E+00 -0.00000000000E+00 -0.50000000000E+02  0.50000000000E+02  0.00000000000E+00 0.  1.
         23    2    1    2    0    0  0.00000000000E+00  0.00000000000E+00  0.00000000000E+00  0.10000000000E+03  0.10000000000E+03 0.  0.
          5    1    3    3  501    0 -0.38955135593E+02 -0.24513808869E+02  0.18959973251E+02  0.50000000000E+02  0.47000000000E+01 0. -1.
         -5    1    3    3    0  501  0.38955135593E+02  0.24513808869E+02 -0.18959973251E+02  0.50000000000E+02  0.47000000000E+01 0.  1.
</event>
<event>
 5    1  0.9071520E-001  0.1000000E+03  0.7546771E-02  0.1163815E+00
         11   -1    0    0    0    0  0.00000000000E+00  0.00000000000E+00  0.50000000000E+02  0.50000000000E+02  0.00000000000E+00 0. -1.
        -11   -1    0    0    0    0 -0.00000000000E+00 -0.00000000000E+00 -0.50000000000E+02  0.50000000000E+02  0.00000000000E+00 0.  1.
         23    2    1    2    0    0  0.00000000000E+00  0.00000000000E+00  0.00000000000E+00  0.10000000000E+03  0.10000000000E+03 0.  0.
          5    1    3    3  501    0  0.26588977414E+02 -0.25334468828E+02  0.33602097692E+02  0.50000000000E+02  0.47000000000E+01 0. -1.
         -5    1    3    3    0  501 -0.26588977414E+02  0.25334468828E+02 -0.33602097692E+02  0.50000000000E+02  0.47000000000E+01 0.  1.
</event>
<event>
 5    1  0.9071520E-001  0.1000000E+03  0.7546771E-02  0.1163815E+00
         11   -1    0    0    0    0  0.00000000000E+00  0.00000000000E+00  0.50000000000E+02  0.50000000000E+02  0.00000000000E+00 0. -1.
        -11   -1    0    0    0    0 -0.00000000000E+00 -0.00000000000E+00 -0.50000000000E+02  0.50000000000E+02  0.00000000000E+00 0.  1.
         23    2    1    2    0    0  0.00000000000E+00  0.00000000000E+00  0.00000000000E+00  0.10000000000E+03  0.10000000000E+03 0.  0.
          5    1    3    3  501    0  0.15089592945E+02 -0.26430202047E+02  0.39391098036E+02  0.50000000000E+02  0.47000000000E+01 0. -1.
         -5    1    3    3    0  501 -0.15089592945E+02  0.26430202047E+02 -0.39391098036E+02  0.50000000000E+02  0.47000000000E+01 0.  1.
</event>
<event>
 5    1  0.9071520E-001  0.1000000E+03  0.7546771E-02  0.1163815E+00
         11   -1    0    0    0    0  0.00000000000E+00  0.00000000000E+00  0.50000000000E+02  0.50000000000E+02  0.00000000000E+00 0. -1.
        -11   -1    0    0    0    0 -0.00000000000E+00 -0.00000000000E+00 -0.50000000000E+02  0.50000000000E+02  0.00000000000E+00 0.  1.
         23    2    1    2    0    0  0.00000000000E+00  0.00000000000E+00  0.00000000000E+00  0.10000000000E+03  0.10000000000E+03 0.  0.
          5    1    3    3  501    0 -0.75979881973E+01  0.33747797223E+01  0.49079440066E+02  0.50000000000E+02  0.47000000000E+01 0. -1.
         -5    1    3    3    0  501  0.75979881973E+01 -0.33747797223E+01 -0.49079440066E+02  0.50000000000E+02  0.47000000000E+01 0.  1.
</event>
<event>
 5    1  0.9071520E-001  0.1000000E+03  0.7546771E-02  0.1163815E+00
         11   -1    0    0    0    0  0.00000000000E+00  0.00000000000E+00  0.50000000000E+02  0.50000000000E+02  0.00000000000E+00 0. -1.
        -11   -1    0    0    0    0 -0.00000000000E+00 -0.00000000000E+00 -0.50000000000E+02  0.50000000000E+02  0.00000000000E+00 0.  1.
         23    2    1    2    0    0  0.00000000000E+00  0.00000000000E+00  0.00000000000E+00  0.10000000000E+03  0.10000000000E+03 0.  0.
          5    1    3    3  501    0  0.33200177482E+02  0.29467260937E+02  0.22524181406E+02  0.50000000000E+02  0.47000000000E+01 0. -1.
         -5    1    3    3    0  501 -0.33200177482E+02 -0.29467260937E+02 -0.22524181406E+02  0.50000000000E+02  0.47000000000E+01 0.  1.
</event>
<event>
 5    1  0.9071520E-001  0.1000000E+03  0.7546771E-02  0.1163815E+00
         11   -1    0    0    0    0  0.00000000000E+00  0.00000000000E+00  0.50000000000E+02  0.50000000000E+02  0.00000000000E+00 0. -1.
        -11   -1    0    0    0    0 -0.00000000000E+00 -0.00000000000E+00 -0.50000000000E+02  0.50000000000E+02  0.00000000000E+00 0.  1.
         23    2    1    2    0    0  0.00000000000E+00  0.00000000000E+00  0.00000000000E+00  0.10000000000E+03  0.10000000000E+03 0.  0.
          5    1    3    3  501    0 -0.30342438752E+02  0.37035815843E+02  0.13623316609E+02  0.50000000000E+02  0.47000000000E+01 0. -1.
         -5    1    3    3    0  501  0.30342438752E+02 -0.37035815843E+02 -0.13623316609E+02  0.50000000000E+02  0.47000000000E+01 0.  1.
</event>
<event>
 5    1  0.9071520E-001  0.1000000E+03  0.7546771E-02  0.1163815E+00
         11   -1    0    0    0    0  0.00000000000E+00  0.00000000000E+00  0.50000000000E+02  0.50000000000E+02  0.00000000000E+00 0. -1.
        -11   -1    0    0    0    0 -0.00000000000E+00 -0.00000000000E+00 -0.50000000000E+02  0.50000000000E+02  0.00000000000E+00 0.  1.
         23    2    1    2    0    0  0.00000000000E+00  0.00000000000E+00  0.00000000000E+00  0.10000000000E+03  0.10000000000E+03 0.  0.
          5    1    3    3  501    0  0.10503192653E+02  0.39950868415E+02  0.27776267874E+02  0.50000000000E+02  0.47000000000E+01 0. -1.
         -5    1    3    3    0  501 -0.10503192653E+02 -0.39950868415E+02 -0.27776267874E+02  0.50000000000E+02  0.47000000000E+01 0.  1.
</event>
<event>
 5    1  0.9071520E-001  0.1000000E+03  0.7546771E-02  0.1163815E+00
         11   -1    0    0    0    0  0.00000000000E+00  0.00000000000E+00  0.50000000000E+02  0.50000000000E+02  0.00000000000E+00 0.  1.
        -11   -1    0    0    0    0 -0.00000000000E+00 -0.00000000000E+00 -0.50000000000E+02  0.50000000000E+02  0.00000000000E+00 0. -1.
         23    2    1    2    0    0  0.00000000000E+00  0.00000000000E+00  0.00000000000E+00  0.10000000000E+03  0.10000000000E+03 0.  0.
          5    1    3    3  501    0 -0.15180324676E+01  0.35533703943E+01  0.49628410576E+02  0.50000000000E+02  0.47000000000E+01 0.  1.
         -5    1    3    3    0  501  0.15180324676E+01 -0.35533703943E+01 -0.49628410576E+02  0.50000000000E+02  0.47000000000E+01 0. -1.
</event>
<event>
 5    1  0.9071520E-001  0.1000000E+03  0.7546771E-02  0.1163815E+00
         11   -1    0    0    0    0  0.00000000000E+00  0.00000000000E+00  0.50000000000E+02  0.50000000000E+02  0.00000000000E+00 0.  1.
        -11   -1    0    0    0    0 -0.00000000000E+00 -0.00000000000E+00 -0.50000000000E+02  0.50000000000E+02  0.00000000000E+00 0. -1.
         23    2    1    2    0    0  0.00000000000E+00  0.00000000000E+00  0.00000000000E+00  0.10000000000E+03  0.10000000000E+03 0.  0.
          5    1    3    3  501    0 -0.18665135981E+02 -0.19087522718E+02 -0.42014154464E+02  0.50000000000E+02  0.47000000000E+01 0. -1.
         -5    1    3    3    0  501  0.18665135981E+02  0.19087522718E+02  0.42014154464E+02  0.50000000000E+02  0.47000000000E+01 0.  1.
</event>
<event>
 5    1  0.9071520E-001  0.1000000E+03  0.7546771E-02  0.1163815E+00
         11   -1    0    0    0    0  0.00000000000E+00  0.00000000000E+00  0.50000000000E+02  0.50000000000E+02  0.00000000000E+00 0.  1.
        -11   -1    0    0    0    0 -0.00000000000E+00 -0.00000000000E+00 -0.50000000000E+02  0.50000000000E+02  0.00000000000E+00 0. -1.
         23    2    1    2    0    0  0.00000000000E+00  0.00000000000E+00  0.00000000000E+00  0.10000000000E+03  0.10000000000E+03 0.  0.
          5    1    3    3  501    0  0.49633842906E+02  0.22379651724E+01 -0.30631928280E+01  0.50000000000E+02  0.47000000000E+01 0. -1.
         -5    1    3    3    0  501 -0.49633842906E+02 -0.22379651724E+01  0.30631928280E+01  0.50000000000E+02  0.47000000000E+01 0.  1.
</event>
<event>
 5    1  0.9071520E-001  0.1000000E+03  0.7546771E-02  0.1163815E+00
         11   -1    0    0    0    0  0.00000000000E+00  0.00000000000E+00  0.50000000000E+02  0.50000000000E+02  0.00000000000E+00 0. -1.
        -11   -1    0    0    0    0 -0.00000000000E+00 -0.00000000000E+00 -0.50000000000E+02  0.50000000000E+02  0.00000000000E+00 0.  1.
         23    2    1    2    0    0  0.00000000000E+00  0.00000000000E+00  0.00000000000E+00  0.10000000000E+03  0.10000000000E+03 0.  0.
          5    1    3    3  501    0  0.31665257225E+02  0.19224743439E+01  0.38360468940E+02  0.50000000000E+02  0.47000000000E+01 0. -1.
         -5    1    3    3    0  501 -0.31665257225E+02 -0.19224743439E+01 -0.38360468940E+02  0.50000000000E+02  0.47000000000E+01 0.  1.
</event>
<event>
 5    1  0.9071520E-001  0.1000000E+03  0.7546771E-02  0.1163815E+00
         11   -1    0    0    0    0  0.00000000000E+00  0.00000000000E+00  0.50000000000E+02  0.50000000000E+02  0.00000000000E+00 0. -1.
        -11   -1    0    0    0    0 -0.00000000000E+00 -0.00000000000E+00 -0.50000000000E+02  0.50000000000E+02  0.00000000000E+00 0.  1.
         23    2    1    2    0    0  0.00000000000E+00  0.00000000000E+00  0.00000000000E+00  0.10000000000E+03  0.10000000000E+03 0.  0.
          5    1    3    3  501    0 -0.17366523657E+02  0.39292712022E+02  0.25147497649E+02  0.50000000000E+02  0.47000000000E+01 0. -1.
         -5    1    3    3    0  501  0.17366523657E+02 -0.39292712022E+02 -0.25147497649E+02  0.50000000000E+02  0.47000000000E+01 0.  1.
</event>
<event>
 5    1  0.9071520E-001  0.1000000E+03  0.7546771E-02  0.1163815E+00
         11   -1    0    0    0    0  0.00000000000E+00  0.00000000000E+00  0.50000000000E+02  0.50000000000E+02  0.00000000000E+00 0.  1.
        -11   -1    0    0    0    0 -0.00000000000E+00 -0.00000000000E+00 -0.50000000000E+02  0.50000000000E+02  0.00000000000E+00 0. -1.
         23    2    1    2    0    0  0.00000000000E+00  0.00000000000E+00  0.00000000000E+00  0.10000000000E+03  0.10000000000E+03 0.  0.
          5    1    3    3  501    0  0.33193116686E+02  0.13650026669E+02 -0.34493532388E+02  0.50000000000E+02  0.47000000000E+01 0. -1.
         -5    1    3    3    0  501 -0.33193116686E+02 -0.13650026669E+02  0.34493532388E+02  0.50000000000E+02  0.47000000000E+01 0.  1.
</event>
<event>
 5    1  0.9071520E-001  0.1000000E+03  0.7546771E-02  0.1163815E+00
         11   -1    0    0    0    0  0.00000000000E+00  0.00000000000E+00  0.50000000000E+02  0.50000000000E+02  0.00000000000E+00 0. -1.
        -11   -1    0    0    0    0 -0.00000000000E+00 -0.00000000000E+00 -0.50000000000E+02  0.50000000000E+02  0.00000000000E+00 0.  1.
         23    2    1    2    0    0  0.00000000000E+00  0.00000000000E+00  0.00000000000E+00  0.10000000000E+03  0.10000000000E+03 0.  0.
          5    1    3    3  501    0 -0.26278615723E+02 -0.32439144268E+02  0.27111736847E+02  0.50000000000E+02  0.47000000000E+01 0. -1.
         -5    1    3    3    0  501  0.26278615723E+02  0.32439144268E+02 -0.27111736847E+02  0.50000000000E+02  0.47000000000E+01 0.  1.
</event>
<event>
 5    1  0.9071520E-001  0.1000000E+03  0.7546771E-02  0.1163815E+00
         11   -1    0    0    0    0  0.00000000000E+00  0.00000000000E+00  0.50000000000E+02  0.50000000000E+02  0.00000000000E+00 0. -1.
        -11   -1    0    0    0    0 -0.00000000000E+00 -0.00000000000E+00 -0.50000000000E+02  0.50000000000E+02  0.00000000000E+00 0.  1.
         23    2    1    2    0    0  0.00000000000E+00  0.00000000000E+00  0.00000000000E+00  0.10000000000E+03  0.10000000000E+03 0.  0.
          5    1    3    3  501    0 -0.30526031958E+02  0.23374482189E+02  0.31618111191E+02  0.50000000000E+02  0.47000000000E+01 0. -1.
         -5    1    3    3    0  501  0.30526031958E+02 -0.23374482189E+02 -0.31618111191E+02  0.50000000000E+02  0.47000000000E+01 0.  1.
</event>
<event>
 5    1  0.9071520E-001  0.1000000E+03  0.7546771E-02  0.1163815E+00
         11   -1    0    0    0    0  0.00000000000E+00  0.00000000000E+00  0.50000000000E+02  0.50000000000E+02  0.00000000000E+00 0.  1.
        -11   -1    0    0    0    0 -0.00000000000E+00 -0.00000000000E+00 -0.50000000000E+02  0.50000000000E+02  0.00000000000E+00 0. -1.
         23    2    1    2    0    0  0.00000000000E+00  0.00000000000E+00  0.00000000000E+00  0.10000000000E+03  0.10000000000E+03 0.  0.
          5    1    3    3  501    0  0.67545541772E+01  0.22405869059E+02 -0.43934758786E+02  0.50000000000E+02  0.47000000000E+01 0. -1.
         -5    1    3    3    0  501 -0.67545541772E+01 -0.22405869059E+02  0.43934758786E+02  0.50000000000E+02  0.47000000000E+01 0.  1.
</event>
<event>
 5    1  0.9071520E-001  0.1000000E+03  0.7546771E-02  0.1163815E+00
         11   -1    0    0    0    0  0.00000000000E+00  0.00000000000E+00  0.50000000000E+02  0.50000000000E+02  0.00000000000E+00 0. -1.
        -11   -1    0    0    0    0 -0.00000000000E+00 -0.00000000000E+00 -0.50000000000E+02  0.50000000000E+02  0.00000000000E+00 0.  1.
         23    2    1    2    0    0  0.00000000000E+00  0.00000000000E+00  0.00000000000E+00  0.10000000000E+03  0.10000000000E+03 0.  0.
          5    1    3    3  501    0  0.23978497730E+02 -0.33899571047E+02  0.27454703231E+02  0.50000000000E+02  0.47000000000E+01 0. -1.
         -5    1    3    3    0  501 -0.23978497730E+02  0.33899571047E+02 -0.27454703231E+02  0.50000000000E+02  0.47000000000E+01 0.  1.
</event>
<event>
 5    1  0.9071520E-001  0.1000000E+03  0.7546771E-02  0.1163815E+00
         11   -1    0    0    0    0  0.00000000000E+00  0.00000000000E+00  0.50000000000E+02  0.50000000000E+02  0.00000000000E+00 0. -1.
        -11   -1    0    0    0    0 -0.00000000000E+00 -0.00000000000E+00 -0.50000000000E+02  0.50000000000E+02  0.00000000000E+00 0.  1.
         23    2    1    2    0    0  0.00000000000E+00  0.00000000000E+00  0.00000000000E+00  0.10000000000E+03  0.10000000000E+03 0.  0.
          5    1    3    3  501    0  0.10154474757E+02  0.25471653675E+02  0.41545053875E+02  0.50000000000E+02  0.47000000000E+01 0. -1.
         -5    1    3    3    0  501 -0.10154474757E+02 -0.25471653675E+02 -0.41545053875E+02  0.50000000000E+02  0.47000000000E+01 0.  1.
</event>
<event>
 5    1  0.9071520E-001  0.1000000E+03  0.7546771E-02  0.1163815E+00
         11   -1    0    0    0    0  0.00000000000E+00  0.00000000000E+00  0.50000000000E+02  0.50000000000E+02  0.00000000000E+00 0. -1.
        -11   -1    0    0    0    0 -0.00000000000E+00 -0.00000000000E+00 -0.50000000000E+02  0.50000000000E+02  0.00000000000E+00 0.  1.
         23    2    1    2    0    0  0.00000000000E+00  0.00000000000E+00  0.00000000000E+00  0.10000000000E+03  0.10000000000E+03 0.  0.
          5    1    3    3  501    0  0.20361726810E+02  0.36499050732E+02  0.27039404154E+02  0.50000000000E+02  0.47000000000E+01 0. -1.
         -5    1    3    3    0  501 -0.20361726810E+02 -0.36499050732E+02 -0.27039404154E+02  0.50000000000E+02  0.47000000000E+01 0.  1.
</event>
<event>
 5    1  0.9071520E-001  0.1000000E+03  0.7546771E-02  0.1163815E+00
         11   -1    0    0    0    0  0.00000000000E+00  0.00000000000E+00  0.50000000000E+02  0.50000000000E+02  0.00000000000E+00 0. -1.
        -11   -1    0    0    0    0 -0.00000000000E+00 -0.00000000000E+00 -0.50000000000E+02  0.50000000000E+02  0.00000000000E+00 0.  1.
         23    2    1    2    0    0  0.00000000000E+00  0.00000000000E+00  0.00000000000E+00  0.10000000000E+03  0.10000000000E+03 0.  0.
          5    1    3    3  501    0  0.12618494881E+02 -0.12528950804E+02  0.46494182202E+02  0.50000000000E+02  0.47000000000E+01 0. -1.
         -5    1    3    3    0  501 -0.12618494881E+02  0.12528950804E+02 -0.46494182202E+02  0.50000000000E+02  0.47000000000E+01 0.  1.
</event>
<event>
 5    1  0.9071520E-001  0.1000000E+03  0.7546771E-02  0.1163815E+00
         11   -1    0    0    0    0  0.00000000000E+00  0.00000000000E+00  0.50000000000E+02  0.50000000000E+02  0.00000000000E+00 0. -1.
        -11   -1    0    0    0    0 -0.00000000000E+00 -0.00000000000E+00 -0.50000000000E+02  0.50000000000E+02  0.00000000000E+00 0.  1.
         23    2    1    2    0    0  0.00000000000E+00  0.00000000000E+00  0.00000000000E+00  0.10000000000E+03  0.10000000000E+03 0.  0.
          5    1    3    3  501    0  0.47243410761E+02 -0.15454361415E+02  0.26707401456E+01  0.50000000000E+02  0.47000000000E+01 0. -1.
         -5    1    3    3    0  501 -0.47243410761E+02  0.15454361415E+02 -0.26707401456E+01  0.50000000000E+02  0.47000000000E+01 0.  1.
</event>
<event>
 5    1  0.9071520E-001  0.1000000E+03  0.7546771E-02  0.1163815E+00
         11   -1    0    0    0    0  0.00000000000E+00  0.00000000000E+00  0.50000000000E+02  0.50000000000E+02  0.00000000000E+00 0.  1.
        -11   -1    0    0    0    0 -0.00000000000E+00 -0.00000000000E+00 -0.50000000000E+02  0.50000000000E+02  0.00000000000E+00 0. -1.
         23    2    1    2    0    0  0.00000000000E+00  0.00000000000E+00  0.00000000000E+00  0.10000000000E+03  0.10000000000E+03 0.  0.
          5    1    3    3  501    0  0.13146858087E+02 -0.47854080263E+02  0.38803510979E+01  0.50000000000E+02  0.47000000000E+01 0. -1.
         -5    1    3    3    0  501 -0.13146858087E+02  0.47854080263E+02 -0.38803510979E+01  0.50000000000E+02  0.47000000000E+01 0.  1.
</event>
<event>
 5    1  0.9071520E-001  0.1000000E+03  0.7546771E-02  0.1163815E+00
         11   -1    0    0    0    0  0.00000000000E+00  0.00000000000E+00  0.50000000000E+02  0.50000000000E+02  0.00000000000E+00 0. -1.
        -11   -1    0    0    0    0 -0.00000000000E+00 -0.00000000000E+00 -0.50000000000E+02  0.50000000000E+02  0.00000000000E+00 0.  1.
         23    2    1    2    0    0  0.00000000000E+00  0.00000000000E+00  0.00000000000E+00  0.10000000000E+03  0.10000000000E+03 0.  0.
          5    1    3    3  501    0 -0.34315920211E+02  0.16659933002E+02  0.31980841960E+02  0.50000000000E+02  0.47000000000E+01 0. -1.
         -5    1    3    3    0  501  0.34315920211E+02 -0.16659933002E+02 -0.31980841960E+02  0.50000000000E+02  0.47000000000E+01 0.  1.
</event>
<event>
 5    1  0.9071520E-001  0.1000000E+03  0.7546771E-02  0.1163815E+00
         11   -1    0    0    0    0  0.00000000000E+00  0.00000000000E+00  0.50000000000E+02  0.50000000000E+02  0.00000000000E+00 0. -1.
        -11   -1    0    0    0    0 -0.00000000000E+00 -0.00000000000E+00 -0.50000000000E+02  0.50000000000E+02  0.00000000000E+00 0.  1.
         23    2    1    2    0    0  0.00000000000E+00  0.00000000000E+00  0.00000000000E+00  0.10000000000E+03  0.10000000000E+03 0.  0.
          5    1    3    3  501    0  0.25998460533E+02 -0.42181023495E+02  0.47698329983E+01  0.50000000000E+02  0.47000000000E+01 0. -1.
         -5    1    3    3    0  501 -0.25998460533E+02  0.42181023495E+02 -0.47698329983E+01  0.50000000000E+02  0.47000000000E+01 0.  1.
</event>
<event>
 5    1  0.9071520E-001  0.1000000E+03  0.7546771E-02  0.1163815E+00
         11   -1    0    0    0    0  0.00000000000E+00  0.00000000000E+00  0.50000000000E+02  0.50000000000E+02  0.00000000000E+00 0. -1.
        -11   -1    0    0    0    0 -0.00000000000E+00 -0.00000000000E+00 -0.50000000000E+02  0.50000000000E+02  0.00000000000E+00 0.  1.
         23    2    1    2    0    0  0.00000000000E+00  0.00000000000E+00  0.00000000000E+00  0.10000000000E+03  0.10000000000E+03 0.  0.
          5    1    3    3  501    0  0.35340843650E+02 -0.33913793931E+02 -0.88763365929E+01  0.50000000000E+02  0.47000000000E+01 0. -1.
         -5    1    3    3    0  501 -0.35340843650E+02  0.33913793931E+02  0.88763365929E+01  0.50000000000E+02  0.47000000000E+01 0.  1.
</event>
<event>
 5    1  0.9071520E-001  0.1000000E+03  0.7546771E-02  0.1163815E+00
         11   -1    0    0    0    0  0.00000000000E+00  0.00000000000E+00  0.50000000000E+02  0.50000000000E+02  0.00000000000E+00 0. -1.
        -11   -1    0    0    0    0 -0.00000000000E+00 -0.00000000000E+00 -0.50000000000E+02  0.50000000000E+02  0.00000000000E+00 0.  1.
         23    2    1    2    0    0  0.00000000000E+00  0.00000000000E+00  0.00000000000E+00  0.10000000000E+03  0.10000000000E+03 0.  0.
          5    1    3    3  501    0 -0.36757232895E+02  0.47031532039E+01  0.33236970076E+02  0.50000000000E+02  0.47000000000E+01 0. -1.
         -5    1    3    3    0  501  0.36757232895E+02 -0.47031532039E+01 -0.33236970076E+02  0.50000000000E+02  0.47000000000E+01 0.  1.
</event>
<event>
 5    1  0.9071520E-001  0.1000000E+03  0.7546771E-02  0.1163815E+00
         11   -1    0    0    0    0  0.00000000000E+00  0.00000000000E+00  0.50000000000E+02  0.50000000000E+02  0.00000000000E+00 0.  1.
        -11   -1    0    0    0    0 -0.00000000000E+00 -0.00000000000E+00 -0.50000000000E+02  0.50000000000E+02  0.00000000000E+00 0. -1.
         23    2    1    2    0    0  0.00000000000E+00  0.00000000000E+00  0.00000000000E+00  0.10000000000E+03  0.10000000000E+03 0.  0.
          5    1    3    3  501    0  0.34308023793E+02 -0.11713007504E+02 -0.34112680320E+02  0.50000000000E+02  0.47000000000E+01 0. -1.
         -5    1    3    3    0  501 -0.34308023793E+02  0.11713007504E+02  0.34112680320E+02  0.50000000000E+02  0.47000000000E+01 0.  1.
</event>
<event>
 5    1  0.9071520E-001  0.1000000E+03  0.7546771E-02  0.1163815E+00
         11   -1    0    0    0    0  0.00000000000E+00  0.00000000000E+00  0.50000000000E+02  0.50000000000E+02  0.00000000000E+00 0. -1.
        -11   -1    0    0    0    0 -0.00000000000E+00 -0.00000000000E+00 -0.50000000000E+02  0.50000000000E+02  0.00000000000E+00 0.  1.
         23    2    1    2    0    0  0.00000000000E+00  0.00000000000E+00  0.00000000000E+00  0.10000000000E+03  0.10000000000E+03 0.  0.
          5    1    3    3  501    0  0.22679318102E+02  0.39989154829E+02  0.19089945692E+02  0.50000000000E+02  0.47000000000E+01 0. -1.
         -5    1    3    3    0  501 -0.22679318102E+02 -0.39989154829E+02 -0.19089945692E+02  0.50000000000E+02  0.47000000000E+01 0.  1.
</event>
<event>
 5    1  0.9071520E-001  0.1000000E+03  0.7546771E-02  0.1163815E+00
         11   -1    0    0    0    0  0.00000000000E+00  0.00000000000E+00  0.50000000000E+02  0.50000000000E+02  0.00000000000E+00 0. -1.
        -11   -1    0    0    0    0 -0.00000000000E+00 -0.00000000000E+00 -0.50000000000E+02  0.50000000000E+02  0.00000000000E+00 0.  1.
         23    2    1    2    0    0  0.00000000000E+00  0.00000000000E+00  0.00000000000E+00  0.10000000000E+03  0.10000000000E+03 0.  0.
          5    1    3    3  501    0 -0.22130215009E+02  0.52024235568E+01  0.44284290361E+02  0.50000000000E+02  0.47000000000E+01 0. -1.
         -5    1    3    3    0  501  0.22130215009E+02 -0.52024235568E+01 -0.44284290361E+02  0.50000000000E+02  0.47000000000E+01 0.  1.
</event>
<event>
 5    1  0.9071520E-001  0.1000000E+03  0.7546771E-02  0.1163815E+00
         11   -1    0    0    0    0  0.00000000000E+00  0.00000000000E+00  0.50000000000E+02  0.50000000000E+02  0.00000000000E+00 0. -1.
        -11   -1    0    0    0    0 -0.00000000000E+00 -0.00000000000E+00 -0.50000000000E+02  0.50000000000E+02  0.00000000000E+00 0.  1.
         23    2    1    2    0    0  0.00000000000E+00  0.00000000000E+00  0.00000000000E+00  0.10000000000E+03  0.10000000000E+03 0.  0.
          5    1    3    3  501    0 -0.43631564534E+01  0.39833166569E+02  0.29532891948E+02  0.50000000000E+02  0.47000000000E+01 0. -1.
         -5    1    3    3    0  501  0.43631564534E+01 -0.39833166569E+02 -0.29532891948E+02  0.50000000000E+02  0.47000000000E+01 0.  1.
</event>
<event>
 5    1  0.9071520E-001  0.1000000E+03  0.7546771E-02  0.1163815E+00
         11   -1    0    0    0    0  0.00000000000E+00  0.00000000000E+00  0.50000000000E+02  0.50000000000E+02  0.00000000000E+00 0. -1.
        -11   -1    0    0    0    0 -0.00000000000E+00 -0.00000000000E+00 -0.50000000000E+02  0.50000000000E+02  0.00000000000E+00 0.  1.
         23    2    1    2    0    0  0.00000000000E+00  0.00000000000E+00  0.00000000000E+00  0.10000000000E+03  0.10000000000E+03 0.  0.
          5    1    3    3  501    0  0.27852510652E+02 -0.23563048900E+02 -0.33866360550E+02  0.50000000000E+02  0.47000000000E+01 0. -1.
         -5    1    3    3    0  501 -0.27852510652E+02  0.23563048900E+02  0.33866360550E+02  0.50000000000E+02  0.47000000000E+01 0.  1.
</event>
<event>
 5    1  0.9071520E-001  0.1000000E+03  0.7546771E-02  0.1163815E+00
         11   -1    0    0    0    0  0.00000000000E+00  0.00000000000E+00  0.50000000000E+02  0.50000000000E+02  0.00000000000E+00 0. -1.
        -11   -1    0    0    0    0 -0.00000000000E+00 -0.00000000000E+00 -0.50000000000E+02  0.50000000000E+02  0.00000000000E+00 0.  1.
         23    2    1    2    0    0  0.00000000000E+00  0.00000000000E+00  0.00000000000E+00  0.10000000000E+03  0.10000000000E+03 0.  0.
          5    1    3    3  501    0  0.29953676473E+02 -0.22054130380E+02  0.33080244844E+02  0.50000000000E+02  0.47000000000E+01 0. -1.
         -5    1    3    3    0  501 -0.29953676473E+02  0.22054130380E+02 -0.33080244844E+02  0.50000000000E+02  0.47000000000E+01 0.  1.
</event>
<event>
 5    1  0.9071520E-001  0.1000000E+03  0.7546771E-02  0.1163815E+00
         11   -1    0    0    0    0  0.00000000000E+00  0.00000000000E+00  0.50000000000E+02  0.50000000000E+02  0.00000000000E+00 0.  1.
        -11   -1    0    0    0    0 -0.00000000000E+00 -0.00000000000E+00 -0.50000000000E+02  0.50000000000E+02  0.00000000000E+00 0. -1.
         23    2    1    2    0    0  0.00000000000E+00  0.00000000000E+00  0.00000000000E+00  0.10000000000E+03  0.10000000000E+03 0.  0.
          5    1    3    3  501    0  0.16899546579E+02 -0.29974442515E+02 -0.35970100380E+02  0.50000000000E+02  0.47000000000E+01 0. -1.
         -5    1    3    3    0  501 -0.16899546579E+02  0.29974442515E+02  0.35970100380E+02  0.50000000000E+02  0.47000000000E+01 0.  1.
</event>
<event>
 5    1  0.9071520E-001  0.1000000E+03  0.7546771E-02  0.1163815E+00
         11   -1    0    0    0    0  0.00000000000E+00  0.00000000000E+00  0.50000000000E+02  0.50000000000E+02  0.00000000000E+00 0. -1.
        -11   -1    0    0    0    0 -0.00000000000E+00 -0.00000000000E+00 -0.50000000000E+02  0.50000000000E+02  0.00000000000E+00 0.  1.
         23    2    1    2    0    0  0.00000000000E+00  0.00000000000E+00  0.00000000000E+00  0.10000000000E+03  0.10000000000E+03 0.  0.
          5    1    3    3  501    0  0.21893459855E+02 -0.44697991576E+02 -0.82217070327E+00  0.50000000000E+02  0.47000000000E+01 0. -1.
         -5    1    3    3    0  501 -0.21893459855E+02  0.44697991576E+02  0.82217070327E+00  0.50000000000E+02  0.47000000000E+01 0.  1.
</event>
<event>
 5    1  0.9071520E-001  0.1000000E+03  0.7546771E-02  0.1163815E+00
         11   -1    0    0    0    0  0.00000000000E+00  0.00000000000E+00  0.50000000000E+02  0.50000000000E+02  0.00000000000E+00 0. -1.
        -11   -1    0    0    0    0 -0.00000000000E+00 -0.00000000000E+00 -0.50000000000E+02  0.50000000000E+02  0.00000000000E+00 0.  1.
         23    2    1    2    0    0  0.00000000000E+00  0.00000000000E+00  0.00000000000E+00  0.10000000000E+03  0.10000000000E+03 0.  0.
          5    1    3    3  501    0  0.13484028695E+02  0.85569980846E+01  0.47147309085E+02  0.50000000000E+02  0.47000000000E+01 0. -1.
         -5    1    3    3    0  501 -0.13484028695E+02 -0.85569980846E+01 -0.47147309085E+02  0.50000000000E+02  0.47000000000E+01 0.  1.
</event>
<event>
 5    1  0.9071520E-001  0.1000000E+03  0.7546771E-02  0.1163815E+00
         11   -1    0    0    0    0  0.00000000000E+00  0.00000000000E+00  0.50000000000E+02  0.50000000000E+02  0.00000000000E+00 0.  1.
        -11   -1    0    0    0    0 -0.00000000000E+00 -0.00000000000E+00 -0.50000000000E+02  0.50000000000E+02  0.00000000000E+00 0. -1.
         23    2    1    2    0    0  0.00000000000E+00  0.00000000000E+00  0.00000000000E+00  0.10000000000E+03  0.10000000000E+03 0.  0.
          5    1    3    3  501    0 -0.33720520914E+02  0.34628903136E+02 -0.11902753332E+02  0.50000000000E+02  0.47000000000E+01 0. -1.
         -5    1    3    3    0  501  0.33720520914E+02 -0.34628903136E+02  0.11902753332E+02  0.50000000000E+02  0.47000000000E+01 0.  1.
</event>
<event>
 5    1  0.9071520E-001  0.1000000E+03  0.7546771E-02  0.1163815E+00
         11   -1    0    0    0    0  0.00000000000E+00  0.00000000000E+00  0.50000000000E+02  0.50000000000E+02  0.00000000000E+00 0.  1.
        -11   -1    0    0    0    0 -0.00000000000E+00 -0.00000000000E+00 -0.50000000000E+02  0.50000000000E+02  0.00000000000E+00 0. -1.
         23    2    1    2    0    0  0.00000000000E+00  0.00000000000E+00  0.00000000000E+00  0.10000000000E+03  0.10000000000E+03 0.  0.
          5    1    3    3  501    0  0.18468586918E+01  0.33193497491E+02 -0.37049842608E+02  0.50000000000E+02  0.47000000000E+01 0. -1.
         -5    1    3    3    0  501 -0.18468586918E+01 -0.33193497491E+02  0.37049842608E+02  0.50000000000E+02  0.47000000000E+01 0.  1.
</event>
<event>
 5    1  0.9071520E-001  0.1000000E+03  0.7546771E-02  0.1163815E+00
         11   -1    0    0    0    0  0.00000000000E+00  0.00000000000E+00  0.50000000000E+02  0.50000000000E+02  0.00000000000E+00 0. -1.
        -11   -1    0    0    0    0 -0.00000000000E+00 -0.00000000000E+00 -0.50000000000E+02  0.50000000000E+02  0.00000000000E+00 0.  1.
         23    2    1    2    0    0  0.00000000000E+00  0.00000000000E+00  0.00000000000E+00  0.10000000000E+03  0.10000000000E+03 0.  0.
          5    1    3    3  501    0 -0.30015675520E+02  0.30777820461E+02  0.25093724130E+02  0.50000000000E+02  0.47000000000E+01 0. -1.
         -5    1    3    3    0  501  0.30015675520E+02 -0.30777820461E+02 -0.25093724130E+02  0.50000000000E+02  0.47000000000E+01 0.  1.
</event>
<event>
 5    1  0.9071520E-001  0.1000000E+03  0.7546771E-02  0.1163815E+00
         11   -1    0    0    0    0  0.00000000000E+00  0.00000000000E+00  0.50000000000E+02  0.50000000000E+02  0.00000000000E+00 0.  1.
        -11   -1    0    0    0    0 -0.00000000000E+00 -0.00000000000E+00 -0.50000000000E+02  0.50000000000E+02  0.00000000000E+00 0. -1.
         23    2    1    2    0    0  0.00000000000E+00  0.00000000000E+00  0.00000000000E+00  0.10000000000E+03  0.10000000000E+03 0.  0.
          5    1    3    3  501    0  0.88119508324E+00 -0.35886819133E+01 -0.49641261641E+02  0.50000000000E+02  0.47000000000E+01 0. -1.
         -5    1    3    3    0  501 -0.88119508324E+00  0.35886819133E+01  0.49641261641E+02  0.50000000000E+02  0.47000000000E+01 0.  1.
</event>
<event>
 5    1  0.9071520E-001  0.1000000E+03  0.7546771E-02  0.1163815E+00
         11   -1    0    0    0    0  0.00000000000E+00  0.00000000000E+00  0.50000000000E+02  0.50000000000E+02  0.00000000000E+00 0. -1.
        -11   -1    0    0    0    0 -0.00000000000E+00 -0.00000000000E+00 -0.50000000000E+02  0.50000000000E+02  0.00000000000E+00 0.  1.
         23    2    1    2    0    0  0.00000000000E+00  0.00000000000E+00  0.00000000000E+00  0.10000000000E+03  0.10000000000E+03 0.  0.
          5    1    3    3  501    0  0.36764940109E+02  0.13700352709E+02  0.30635755489E+02  0.50000000000E+02  0.47000000000E+01 0. -1.
         -5    1    3    3    0  501 -0.36764940109E+02 -0.13700352709E+02 -0.30635755489E+02  0.50000000000E+02  0.47000000000E+01 0.  1.
</event>
<event>
 5    1  0.9071520E-001  0.1000000E+03  0.7546771E-02  0.1163815E+00
         11   -1    0    0    0    0  0.00000000000E+00  0.00000000000E+00  0.50000000000E+02  0.50000000000E+02  0.00000000000E+00 0. -1.
        -11   -1    0    0    0    0 -0.00000000000E+00 -0.00000000000E+00 -0.50000000000E+02  0.50000000000E+02  0.00000000000E+00 0.  1.
         23    2    1    2    0    0  0.00000000000E+00  0.00000000000E+00  0.00000000000E+00  0.10000000000E+03  0.10000000000E+03 0.  0.
          5    1    3    3  501    0 -0.34820793755E+02 -0.22826471779E+02  0.27283227602E+02  0.50000000000E+02  0.47000000000E+01 0. -1.
         -5    1    3    3    0  501  0.34820793755E+02  0.22826471779E+02 -0.27283227602E+02  0.50000000000E+02  0.47000000000E+01 0.  1.
</event>
<event>
 5    1  0.9071520E-001  0.1000000E+03  0.7546771E-02  0.1163815E+00
         11   -1    0    0    0    0  0.00000000000E+00  0.00000000000E+00  0.50000000000E+02  0.50000000000E+02  0.00000000000E+00 0. -1.
        -11   -1    0    0    0    0 -0.00000000000E+00 -0.00000000000E+00 -0.50000000000E+02  0.50000000000E+02  0.00000000000E+00 0.  1.
         23    2    1    2    0    0  0.00000000000E+00  0.00000000000E+00  0.00000000000E+00  0.10000000000E+03  0.10000000000E+03 0.  0.
          5    1    3    3  501    0  0.55041805773E+01  0.42611152200E+02  0.25137694889E+02  0.50000000000E+02  0.47000000000E+01 0. -1.
         -5    1    3    3    0  501 -0.55041805773E+01 -0.42611152200E+02 -0.25137694889E+02  0.50000000000E+02  0.47000000000E+01 0.  1.
</event>
<event>
 5    1  0.9071520E-001  0.1000000E+03  0.7546771E-02  0.1163815E+00
         11   -1    0    0    0    0  0.00000000000E+00  0.00000000000E+00  0.50000000000E+02  0.50000000000E+02  0.00000000000E+00 0.  1.
        -11   -1    0    0    0    0 -0.00000000000E+00 -0.00000000000E+00 -0.50000000000E+02  0.50000000000E+02  0.00000000000E+00 0. -1.
         23    2    1    2    0    0  0.00000000000E+00  0.00000000000E+00  0.00000000000E+00  0.10000000000E+03  0.10000000000E+03 0.  0.
          5    1    3    3  501    0 -0.46054134144E+02 -0.82203829251E+01 -0.17010350756E+02  0.50000000000E+02  0.47000000000E+01 0. -1.
         -5    1    3    3    0  501  0.46054134144E+02  0.82203829251E+01  0.17010350756E+02  0.50000000000E+02  0.47000000000E+01 0.  1.
</event>
<event>
 5    1  0.9071520E-001  0.1000000E+03  0.7546771E-02  0.1163815E+00
         11   -1    0    0    0    0  0.00000000000E+00  0.00000000000E+00  0.50000000000E+02  0.50000000000E+02  0.00000000000E+00 0. -1.
        -11   -1    0    0    0    0 -0.00000000000E+00 -0.00000000000E+00 -0.50000000000E+02  0.50000000000E+02  0.00000000000E+00 0.  1.
         23    2    1    2    0    0  0.00000000000E+00  0.00000000000E+00  0.00000000000E+00  0.10000000000E+03  0.10000000000E+03 0.  0.
          5    1    3    3  501    0 -0.37380047113E+02  0.65472401318E+01  0.32214526607E+02  0.50000000000E+02  0.47000000000E+01 0. -1.
         -5    1    3    3    0  501  0.37380047113E+02 -0.65472401318E+01 -0.32214526607E+02  0.50000000000E+02  0.47000000000E+01 0.  1.
</event>
<event>
 5    1  0.9071520E-001  0.1000000E+03  0.7546771E-02  0.1163815E+00
         11   -1    0    0    0    0  0.00000000000E+00  0.00000000000E+00  0.50000000000E+02  0.50000000000E+02  0.00000000000E+00 0.  1.
        -11   -1    0    0    0    0 -0.00000000000E+00 -0.00000000000E+00 -0.50000000000E+02  0.50000000000E+02  0.00000000000E+00 0. -1.
         23    2    1    2    0    0  0.00000000000E+00  0.00000000000E+00  0.00000000000E+00  0.10000000000E+03  0.10000000000E+03 0.  0.
          5    1    3    3  501    0 -0.65170902080E+01 -0.26668058659E+02  0.41524115675E+02  0.50000000000E+02  0.47000000000E+01 0.  1.
         -5    1    3    3    0  501  0.65170902080E+01  0.26668058659E+02 -0.41524115675E+02  0.50000000000E+02  0.47000000000E+01 0. -1.
</event>
<event>
 5    1  0.9071520E-001  0.1000000E+03  0.7546771E-02  0.1163815E+00
         11   -1    0    0    0    0  0.00000000000E+00  0.00000000000E+00  0.50000000000E+02  0.50000000000E+02  0.00000000000E+00 0.  1.
        -11   -1    0    0    0    0 -0.00000000000E+00 -0.00000000000E+00 -0.50000000000E+02  0.50000000000E+02  0.00000000000E+00 0. -1.
         23    2    1    2    0    0  0.00000000000E+00  0.00000000000E+00  0.00000000000E+00  0.10000000000E+03  0.10000000000E+03 0.  0.
          5    1    3    3  501    0  0.54444174220E+00  0.15972647363E+01 -0.49749998277E+02  0.50000000000E+02  0.47000000000E+01 0. -1.
         -5    1    3    3    0  501 -0.54444174220E+00 -0.15972647363E+01  0.49749998277E+02  0.50000000000E+02  0.47000000000E+01 0.  1.
</event>
<event>
 5    1  0.9071520E-001  0.1000000E+03  0.7546771E-02  0.1163815E+00
         11   -1    0    0    0    0  0.00000000000E+00  0.00000000000E+00  0.50000000000E+02  0.50000000000E+02  0.00000000000E+00 0.  1.
        -11   -1    0    0    0    0 -0.00000000000E+00 -0.00000000000E+00 -0.50000000000E+02  0.50000000000E+02  0.00000000000E+00 0. -1.
         23    2    1    2    0    0  0.00000000000E+00  0.00000000000E+00  0.00000000000E+00  0.10000000000E+03  0.10000000000E+03 0.  0.
          5    1    3    3  501    0 -0.24765235657E+02 -0.39690773837E+02  0.17006927267E+02  0.50000000000E+02  0.47000000000E+01 0. -1.
         -5    1    3    3    0  501  0.24765235657E+02  0.39690773837E+02 -0.17006927267E+02  0.50000000000E+02  0.47000000000E+01 0.  1.
</event>
<event>
 5    1  0.9071520E-001  0.1000000E+03  0.7546771E-02  0.1163815E+00
         11   -1    0    0    0    0  0.00000000000E+00  0.00000000000E+00  0.50000000000E+02  0.50000000000E+02  0.00000000000E+00 0. -1.
        -11   -1    0    0    0    0 -0.00000000000E+00 -0.00000000000E+00 -0.50000000000E+02  0.50000000000E+02  0.00000000000E+00 0.  1.
         23    2    1    2    0    0  0.00000000000E+00  0.00000000000E+00  0.00000000000E+00  0.10000000000E+03  0.10000000000E+03 0.  0.
          5    1    3    3  501    0  0.15447026719E+02  0.93092870867E+01  0.46396514303E+02  0.50000000000E+02  0.47000000000E+01 0. -1.
         -5    1    3    3    0  501 -0.15447026719E+02 -0.93092870867E+01 -0.46396514303E+02  0.50000000000E+02  0.47000000000E+01 0.  1.
</event>
<event>
 5    1  0.9071520E-001  0.1000000E+03  0.7546771E-02  0.1163815E+00
         11   -1    0    0    0    0  0.00000000000E+00  0.00000000000E+00  0.50000000000E+02  0.50000000000E+02  0.00000000000E+00 0.  1.
        -11   -1    0    0    0    0 -0.00000000000E+00 -0.00000000000E+00 -0.50000000000E+02  0.50000000000E+02  0.00000000000E+00 0. -1.
         23    2    1    2    0    0  0.00000000000E+00  0.00000000000E+00  0.00000000000E+00  0.10000000000E+03  0.10000000000E+03 0.  0.
          5    1    3    3  501    0  0.68084252366E+01 -0.46706533786E+02 -0.15813128961E+02  0.50000000000E+02  0.47000000000E+01 0. -1.
         -5    1    3    3    0  501 -0.68084252366E+01  0.46706533786E+02  0.15813128961E+02  0.50000000000E+02  0.47000000000E+01 0.  1.
</event>
<event>
 5    1  0.9071520E-001  0.1000000E+03  0.7546771E-02  0.1163815E+00
         11   -1    0    0    0    0  0.00000000000E+00  0.00000000000E+00  0.50000000000E+02  0.50000000000E+02  0.00000000000E+00 0. -1.
        -11   -1    0    0    0    0 -0.00000000000E+00 -0.00000000000E+00 -0.50000000000E+02  0.50000000000E+02  0.00000000000E+00 0.  1.
         23    2    1    2    0    0  0.00000000000E+00  0.00000000000E+00  0.00000000000E+00  0.10000000000E+03  0.10000000000E+03 0.  0.
          5    1    3    3  501    0  0.47837578751E+01  0.80059110357E+01  0.48897147658E+02  0.50000000000E+02  0.47000000000E+01 0. -1.
         -5    1    3    3    0  501 -0.47837578751E+01 -0.80059110357E+01 -0.48897147658E+02  0.50000000000E+02  0.47000000000E+01 0.  1.
</event>
<event>
 5    1  0.9071520E-001  0.1000000E+03  0.7546771E-02  0.1163815E+00
         11   -1    0    0    0    0  0.00000000000E+00  0.00000000000E+00  0.50000000000E+02  0.50000000000E+02  0.00000000000E+00 0. -1.
        -11   -1    0    0    0    0 -0.00000000000E+00 -0.00000000000E+00 -0.50000000000E+02  0.50000000000E+02  0.00000000000E+00 0.  1.
         23    2    1    2    0    0  0.00000000000E+00  0.00000000000E+00  0.00000000000E+00  0.10000000000E+03  0.10000000000E+03 0.  0.
          5    1    3    3  501    0 -0.32237022730E+02 -0.26674365883E+02  0.26965952056E+02  0.50000000000E+02  0.47000000000E+01 0. -1.
         -5    1    3    3    0  501  0.32237022730E+02  0.26674365883E+02 -0.26965952056E+02  0.50000000000E+02  0.47000000000E+01 0.  1.
</event>
<event>
 5    1  0.9071520E-001  0.1000000E+03  0.7546771E-02  0.1163815E+00
         11   -1    0    0    0    0  0.00000000000E+00  0.00000000000E+00  0.50000000000E+02  0.50000000000E+02  0.00000000000E+00 0. -1.
        -11   -1    0    0    0    0 -0.00000000000E+00 -0.00000000000E+00 -0.50000000000E+02  0.50000000000E+02  0.00000000000E+00 0.  1.
         23    2    1    2    0    0  0.00000000000E+00  0.00000000000E+00  0.00000000000E+00  0.10000000000E+03  0.10000000000E+03 0.  0.
          5    1    3    3  501    0 -0.16139797720E+02 -0.11122489698E+02  0.45757044840E+02  0.50000000000E+02  0.47000000000E+01 0. -1.
         -5    1    3    3    0  501  0.16139797720E+02  0.11122489698E+02 -0.45757044840E+02  0.50000000000E+02  0.47000000000E+01 0.  1.
</event>
<event>
 5    1  0.9071520E-001  0.1000000E+03  0.7546771E-02  0.1163815E+00
         11   -1    0    0    0    0  0.00000000000E+00  0.00000000000E+00  0.50000000000E+02  0.50000000000E+02  0.00000000000E+00 0. -1.
        -11   -1    0    0    0    0 -0.00000000000E+00 -0.00000000000E+00 -0.50000000000E+02  0.50000000000E+02  0.00000000000E+00 0.  1.
         23    2    1    2    0    0  0.00000000000E+00  0.00000000000E+00  0.00000000000E+00  0.10000000000E+03  0.10000000000E+03 0.  0.
          5    1    3    3  501    0  0.21995375867E+02 -0.31910213933E+02  0.31238624925E+02  0.50000000000E+02  0.47000000000E+01 0. -1.
         -5    1    3    3    0  501 -0.21995375867E+02  0.31910213933E+02 -0.31238624925E+02  0.50000000000E+02  0.47000000000E+01 0.  1.
</event>
<event>
 5    1  0.9071520E-001  0.1000000E+03  0.7546771E-02  0.1163815E+00
         11   -1    0    0    0    0  0.00000000000E+00  0.00000000000E+00  0.50000000000E+02  0.50000000000E+02  0.00000000000E+00 0. -1.
        -11   -1    0    0    0    0 -0.00000000000E+00 -0.00000000000E+00 -0.50000000000E+02  0.50000000000E+02  0.00000000000E+00 0.  1.
         23    2    1    2    0    0  0.00000000000E+00  0.00000000000E+00  0.00000000000E+00  0.10000000000E+03  0.10000000000E+03 0.  0.
          5    1    3    3  501    0  0.42167505899E+02 -0.24904547349E+02 -0.89204802321E+01  0.50000000000E+02  0.47000000000E+01 0. -1.
         -5    1    3    3    0  501 -0.42167505899E+02  0.24904547349E+02  0.89204802321E+01  0.50000000000E+02  0.47000000000E+01 0.  1.
</event>
<event>
 5    1  0.9071520E-001  0.1000000E+03  0.7546771E-02  0.1163815E+00
         11   -1    0    0    0    0  0.00000000000E+00  0.00000000000E+00  0.50000000000E+02  0.50000000000E+02  0.00000000000E+00 0. -1.
        -11   -1    0    0    0    0 -0.00000000000E+00 -0.00000000000E+00 -0.50000000000E+02  0.50000000000E+02  0.00000000000E+00 0.  1.
         23    2    1    2    0    0  0.00000000000E+00  0.00000000000E+00  0.00000000000E+00  0.10000000000E+03  0.10000000000E+03 0.  0.
          5    1    3    3  501    0 -0.31399785524E+02  0.26078942807E+01  0.38537804251E+02  0.50000000000E+02  0.47000000000E+01 0. -1.
         -5    1    3    3    0  501  0.31399785524E+02 -0.26078942807E+01 -0.38537804251E+02  0.50000000000E+02  0.47000000000E+01 0.  1.
</event>
<event>
 5    1  0.9071520E-001  0.1000000E+03  0.7546771E-02  0.1163815E+00
         11   -1    0    0    0    0  0.00000000000E+00  0.00000000000E+00  0.50000000000E+02  0.50000000000E+02  0.00000000000E+00 0.  1.
        -11   -1    0    0    0    0 -0.00000000000E+00 -0.00000000000E+00 -0.50000000000E+02  0.50000000000E+02  0.00000000000E+00 0. -1.
         23    2    1    2    0    0  0.00000000000E+00  0.00000000000E+00  0.00000000000E+00  0.10000000000E+03  0.10000000000E+03 0.  0.
          5    1    3    3  501    0 -0.35494998559E+02 -0.74036385220E+01 -0.34105735792E+02  0.50000000000E+02  0.47000000000E+01 0. -1.
         -5    1    3    3    0  501  0.35494998559E+02  0.74036385220E+01  0.34105735792E+02  0.50000000000E+02  0.47000000000E+01 0.  1.
</event>
<event>
 5    1  0.9071520E-001  0.1000000E+03  0.7546771E-02  0.1163815E+00
         11   -1    0    0    0    0  0.00000000000E+00  0.00000000000E+00  0.50000000000E+02  0.50000000000E+02  0.00000000000E+00 0. -1.
        -11   -1    0    0    0    0 -0.00000000000E+00 -0.00000000000E+00 -0.50000000000E+02  0.50000000000E+02  0.00000000000E+00 0.  1.
         23    2    1    2    0    0  0.00000000000E+00  0.00000000000E+00  0.00000000000E+00  0.10000000000E+03  0.10000000000E+03 0.  0.
          5    1    3    3  501    0 -0.15295422076E+02  0.25266365997E+02  0.40069574652E+02  0.50000000000E+02  0.47000000000E+01 0. -1.
         -5    1    3    3    0  501  0.15295422076E+02 -0.25266365997E+02 -0.40069574652E+02  0.50000000000E+02  0.47000000000E+01 0.  1.
</event>
<event>
 5    1  0.9071520E-001  0.1000000E+03  0.7546771E-02  0.1163815E+00
         11   -1    0    0    0    0  0.00000000000E+00  0.00000000000E+00  0.50000000000E+02  0.50000000000E+02  0.00000000000E+00 0.  1.
        -11   -1    0    0    0    0 -0.00000000000E+00 -0.00000000000E+00 -0.50000000000E+02  0.50000000000E+02  0.00000000000E+00 0. -1.
         23    2    1    2    0    0  0.00000000000E+00  0.00000000000E+00  0.00000000000E+00  0.10000000000E+03  0.10000000000E+03 0.  0.
          5    1    3    3  501    0 -0.29201285108E+02  0.25955766329E+02  0.30846282471E+02  0.50000000000E+02  0.47000000000E+01 0.  1.
         -5    1    3    3    0  501  0.29201285108E+02 -0.25955766329E+02 -0.30846282471E+02  0.50000000000E+02  0.47000000000E+01 0. -1.
</event>
<event>
 5    1  0.9071520E-001  0.1000000E+03  0.7546771E-02  0.1163815E+00
         11   -1    0    0    0    0  0.00000000000E+00  0.00000000000E+00  0.50000000000E+02  0.50000000000E+02  0.00000000000E+00 0. -1.
        -11   -1    0    0    0    0 -0.00000000000E+00 -0.00000000000E+00 -0.50000000000E+02  0.50000000000E+02  0.00000000000E+00 0.  1.
         23    2    1    2    0    0  0.00000000000E+00  0.00000000000E+00  0.00000000000E+00  0.10000000000E+03  0.10000000000E+03 0.  0.
          5    1    3    3  501    0  0.42714254051E+02 -0.25194019444E+02  0.43201718864E+01  0.50000000000E+02  0.47000000000E+01 0. -1.
         -5    1    3    3    0  501 -0.42714254051E+02  0.25194019444E+02 -0.43201718864E+01  0.50000000000E+02  0.47000000000E+01 0.  1.
</event>
<event>
 5    1  0.9071520E-001  0.1000000E+03  0.7546771E-02  0.1163815E+00
         11   -1    0    0    0    0  0.00000000000E+00  0.00000000000E+00  0.50000000000E+02  0.50000000000E+02  0.00000000000E+00 0.  1.
        -11   -1    0    0    0    0 -0.00000000000E+00 -0.00000000000E+00 -0.50000000000E+02  0.50000000000E+02  0.00000000000E+00 0. -1.
         23    2    1    2    0    0  0.00000000000E+00  0.00000000000E+00  0.00000000000E+00  0.10000000000E+03  0.10000000000E+03 0.  0.
          5    1    3    3  501    0  0.34701510397E+02 -0.20408306387E+02 -0.29278254842E+02  0.50000000000E+02  0.47000000000E+01 0. -1.
         -5    1    3    3    0  501 -0.34701510397E+02  0.20408306387E+02  0.29278254842E+02  0.50000000000E+02  0.47000000000E+01 0.  1.
</event>
<event>
 5    1  0.9071520E-001  0.1000000E+03  0.7546771E-02  0.1163815E+00
         11   -1    0    0    0    0  0.00000000000E+00  0.00000000000E+00  0.50000000000E+02  0.50000000000E+02  0.00000000000E+00 0.  1.
        -11   -1    0    0    0    0 -0.00000000000E+00 -0.00000000000E+00 -0.50000000000E+02  0.50000000000E+02  0.00000000000E+00 0. -1.
         23    2    1    2    0    0  0.00000000000E+00  0.00000000000E+00  0.00000000000E+00  0.10000000000E+03  0.10000000000E+03 0.  0.
          5    1    3    3  501    0 -0.16145783763E+02  0.32744570826E+02 -0.33838096106E+02  0.50000000000E+02  0.47000000000E+01 0. -1.
         -5    1    3    3    0  501  0.16145783763E+02 -0.32744570826E+02  0.33838096106E+02  0.50000000000E+02  0.47000000000E+01 0.  1.
</event>
<event>
 5    1  0.9071520E-001  0.1000000E+03  0.7546771E-02  0.1163815E+00
         11   -1    0    0    0    0  0.00000000000E+00  0.00000000000E+00  0.50000000000E+02  0.50000000000E+02  0.00000000000E+00 0. -1.
        -11   -1    0    0    0    0 -0.00000000000E+00 -0.00000000000E+00 -0.50000000000E+02  0.50000000000E+02  0.00000000000E+00 0.  1.
         23    2    1    2    0    0  0.00000000000E+00  0.00000000000E+00  0.00000000000E+00  0.10000000000E+03  0.10000000000E+03 0.  0.
          5    1    3    3  501    0  0.14361194440E+01  0.18933196915E+02  0.46015015109E+02  0.50000000000E+02  0.47000000000E+01 0. -1.
         -5    1    3    3    0  501 -0.14361194440E+01 -0.18933196915E+02 -0.46015015109E+02  0.50000000000E+02  0.47000000000E+01 0.  1.
</event>
<event>
 5    1  0.9071520E-001  0.1000000E+03  0.7546771E-02  0.1163815E+00
         11   -1    0    0    0    0  0.00000000000E+00  0.00000000000E+00  0.50000000000E+02  0.50000000000E+02  0.00000000000E+00 0.  1.
        -11   -1    0    0    0    0 -0.00000000000E+00 -0.00000000000E+00 -0.50000000000E+02  0.50000000000E+02  0.00000000000E+00 0. -1.
         23    2    1    2    0    0  0.00000000000E+00  0.00000000000E+00  0.00000000000E+00  0.10000000000E+03  0.10000000000E+03 0.  0.
          5    1    3    3  501    0  0.15421822136E+02  0.47328884452E+02  0.23259102524E+00  0.50000000000E+02  0.47000000000E+01 0. -1.
         -5    1    3    3    0  501 -0.15421822136E+02 -0.47328884452E+02 -0.23259102524E+00  0.50000000000E+02  0.47000000000E+01 0.  1.
</event>
<event>
 5    1  0.9071520E-001  0.1000000E+03  0.7546771E-02  0.1163815E+00
         11   -1    0    0    0    0  0.00000000000E+00  0.00000000000E+00  0.50000000000E+02  0.50000000000E+02  0.00000000000E+00 0. -1.
        -11   -1    0    0    0    0 -0.00000000000E+00 -0.00000000000E+00 -0.50000000000E+02  0.50000000000E+02  0.00000000000E+00 0.  1.
         23    2    1    2    0    0  0.00000000000E+00  0.00000000000E+00  0.00000000000E+00  0.10000000000E+03  0.10000000000E+03 0.  0.
          5    1    3    3  501    0  0.12697599770E+02  0.18891469870E+02  0.44269553039E+02  0.50000000000E+02  0.47000000000E+01 0. -1.
         -5    1    3    3    0  501 -0.12697599770E+02 -0.18891469870E+02 -0.44269553039E+02  0.50000000000E+02  0.47000000000E+01 0.  1.
</event>
<event>
 5    1  0.9071520E-001  0.1000000E+03  0.7546771E-02  0.1163815E+00
         11   -1    0    0    0    0  0.00000000000E+00  0.00000000000E+00  0.50000000000E+02  0.50000000000E+02  0.00000000000E+00 0. -1.
        -11   -1    0    0    0    0 -0.00000000000E+00 -0.00000000000E+00 -0.50000000000E+02  0.50000000000E+02  0.00000000000E+00 0.  1.
         23    2    1    2    0    0  0.00000000000E+00  0.00000000000E+00  0.00000000000E+00  0.10000000000E+03  0.10000000000E+03 0.  0.
          5    1    3    3  501    0 -0.12281314174E+02  0.38541377450E+02  0.29011059036E+02  0.50000000000E+02  0.47000000000E+01 0. -1.
         -5    1    3    3    0  501  0.12281314174E+02 -0.38541377450E+02 -0.29011059036E+02  0.50000000000E+02  0.47000000000E+01 0.  1.
</event>
<event>
 5    1  0.9071520E-001  0.1000000E+03  0.7546771E-02  0.1163815E+00
         11   -1    0    0    0    0  0.00000000000E+00  0.00000000000E+00  0.50000000000E+02  0.50000000000E+02  0.00000000000E+00 0.  1.
        -11   -1    0    0    0    0 -0.00000000000E+00 -0.00000000000E+00 -0.50000000000E+02  0.50000000000E+02  0.00000000000E+00 0. -1.
         23    2    1    2    0    0  0.00000000000E+00  0.00000000000E+00  0.00000000000E+00  0.10000000000E+03  0.10000000000E+03 0.  0.
          5    1    3    3  501    0 -0.45996595024E+02  0.42025556790E+01 -0.18562375171E+02  0.50000000000E+02  0.47000000000E+01 0. -1.
         -5    1    3    3    0  501  0.45996595024E+02 -0.42025556790E+01  0.18562375171E+02  0.50000000000E+02  0.47000000000E+01 0.  1.
</event>
<event>
 5    1  0.9071520E-001  0.1000000E+03  0.7546771E-02  0.1163815E+00
         11   -1    0    0    0    0  0.00000000000E+00  0.00000000000E+00  0.50000000000E+02  0.50000000000E+02  0.00000000000E+00 0. -1.
        -11   -1    0    0    0    0 -0.00000000000E+00 -0.00000000000E+00 -0.50000000000E+02  0.50000000000E+02  0.00000000000E+00 0.  1.
         23    2    1    2    0    0  0.00000000000E+00  0.00000000000E+00  0.00000000000E+00  0.10000000000E+03  0.10000000000E+03 0.  0.
          5    1    3    3  501    0 -0.36001535178E+02 -0.31329290653E+02  0.14151855427E+02  0.50000000000E+02  0.47000000000E+01 0. -1.
         -5    1    3    3    0  501  0.36001535178E+02  0.31329290653E+02 -0.14151855427E+02  0.50000000000E+02  0.47000000000E+01 0.  1.
</event>
<event>
 5    1  0.9071520E-001  0.1000000E+03  0.7546771E-02  0.1163815E+00
         11   -1    0    0    0    0  0.00000000000E+00  0.00000000000E+00  0.50000000000E+02  0.50000000000E+02  0.00000000000E+00 0. -1.
        -11   -1    0    0    0    0 -0.00000000000E+00 -0.00000000000E+00 -0.50000000000E+02  0.50000000000E+02  0.00000000000E+00 0.  1.
         23    2    1    2    0    0  0.00000000000E+00  0.00000000000E+00  0.00000000000E+00  0.10000000000E+03  0.10000000000E+03 0.  0.
          5    1    3    3  501    0 -0.71428168568E+01  0.20002291305E+01  0.49222852932E+02  0.50000000000E+02  0.47000000000E+01 0. -1.
         -5    1    3    3    0  501  0.71428168568E+01 -0.20002291305E+01 -0.49222852932E+02  0.50000000000E+02  0.47000000000E+01 0.  1.
</event>
<event>
 5    1  0.9071520E-001  0.1000000E+03  0.7546771E-02  0.1163815E+00
         11   -1    0    0    0    0  0.00000000000E+00  0.00000000000E+00  0.50000000000E+02  0.50000000000E+02  0.00000000000E+00 0.  1.
        -11   -1    0    0    0    0 -0.00000000000E+00 -0.00000000000E+00 -0.50000000000E+02  0.50000000000E+02  0.00000000000E+00 0. -1.
         23    2    1    2    0    0  0.00000000000E+00  0.00000000000E+00  0.00000000000E+00  0.10000000000E+03  0.10000000000E+03 0.  0.
          5    1    3    3  501    0  0.22388784071E+02  0.31082370103E+02 -0.31788970046E+02  0.50000000000E+02  0.47000000000E+01 0. -1.
         -5    1    3    3    0  501 -0.22388784071E+02 -0.31082370103E+02  0.31788970046E+02  0.50000000000E+02  0.47000000000E+01 0.  1.
</event>
<event>
 5    1  0.9071520E-001  0.1000000E+03  0.7546771E-02  0.1163815E+00
         11   -1    0    0    0    0  0.00000000000E+00  0.00000000000E+00  0.50000000000E+02  0.50000000000E+02  0.00000000000E+00 0. -1.
        -11   -1    0    0    0    0 -0.00000000000E+00 -0.00000000000E+00 -0.50000000000E+02  0.50000000000E+02  0.00000000000E+00 0.  1.
         23    2    1    2    0    0  0.00000000000E+00  0.00000000000E+00  0.00000000000E+00  0.10000000000E+03  0.10000000000E+03 0.  0.
          5    1    3    3  501    0 -0.29362732079E+01 -0.23400785951E+02  0.43837102055E+02  0.50000000000E+02  0.47000000000E+01 0. -1.
         -5    1    3    3    0  501  0.29362732079E+01  0.23400785951E+02 -0.43837102055E+02  0.50000000000E+02  0.47000000000E+01 0.  1.
</event>
<event>
 5    1  0.9071520E-001  0.1000000E+03  0.7546771E-02  0.1163815E+00
         11   -1    0    0    0    0  0.00000000000E+00  0.00000000000E+00  0.50000000000E+02  0.50000000000E+02  0.00000000000E+00 0.  1.
        -11   -1    0    0    0    0 -0.00000000000E+00 -0.00000000000E+00 -0.50000000000E+02  0.50000000000E+02  0.00000000000E+00 0. -1.
         23    2    1    2    0    0  0.00000000000E+00  0.00000000000E+00  0.00000000000E+00  0.10000000000E+03  0.10000000000E+03 0.  0.
          5    1    3    3  501    0 -0.29494205406E+02 -0.20537324614E+02 -0.34441546788E+02  0.50000000000E+02  0.47000000000E+01 0. -1.
         -5    1    3    3    0  501  0.29494205406E+02  0.20537324614E+02  0.34441546788E+02  0.50000000000E+02  0.47000000000E+01 0.  1.
</event>
<event>
 5    1  0.9071520E-001  0.1000000E+03  0.7546771E-02  0.1163815E+00
         11   -1    0    0    0    0  0.00000000000E+00  0.00000000000E+00  0.50000000000E+02  0.50000000000E+02  0.00000000000E+00 0.  1.
        -11   -1    0    0    0    0 -0.00000000000E+00 -0.00000000000E+00 -0.50000000000E+02  0.50000000000E+02  0.00000000000E+00 0. -1.
         23    2    1    2    0    0  0.00000000000E+00  0.00000000000E+00  0.00000000000E+00  0.10000000000E+03  0.10000000000E+03 0.  0.
          5    1    3    3  501    0  0.59493946811E+01 -0.88015758746E+01 -0.48631748530E+02  0.50000000000E+02  0.47000000000E+01 0. -1.
         -5    1    3    3    0  501 -0.59493946811E+01  0.88015758746E+01  0.48631748530E+02  0.50000000000E+02  0.47000000000E+01 0.  1.
</event>
<event>
 5    1  0.9071520E-001  0.1000000E+03  0.7546771E-02  0.1163815E+00
         11   -1    0    0    0    0  0.00000000000E+00  0.00000000000E+00  0.50000000000E+02  0.50000000000E+02  0.00000000000E+00 0. -1.
        -11   -1    0    0    0    0 -0.00000000000E+00 -0.00000000000E+00 -0.50000000000E+02  0.50000000000E+02  0.00000000000E+00 0.  1.
         23    2    1    2    0    0  0.00000000000E+00  0.00000000000E+00  0.00000000000E+00  0.10000000000E+03  0.10000000000E+03 0.  0.
          5    1    3    3  501    0 -0.14877291344E+02  0.10722303943E+02  0.46277515063E+02  0.50000000000E+02  0.47000000000E+01 0. -1.
         -5    1    3    3    0  501  0.14877291344E+02 -0.10722303943E+02 -0.46277515063E+02  0.50000000000E+02  0.47000000000E+01 0.  1.
</event>
<event>
 5    1  0.9071520E-001  0.1000000E+03  0.7546771E-02  0.1163815E+00
         11   -1    0    0    0    0  0.00000000000E+00  0.00000000000E+00  0.50000000000E+02  0.50000000000E+02  0.00000000000E+00 0. -1.
        -11   -1    0    0    0    0 -0.00000000000E+00 -0.00000000000E+00 -0.50000000000E+02  0.50000000000E+02  0.00000000000E+00 0.  1.
         23    2    1    2    0    0  0.00000000000E+00  0.00000000000E+00  0.00000000000E+00  0.10000000000E+03  0.10000000000E+03 0.  0.
          5    1    3    3  501    0 -0.32665541467E+01  0.44644766403E+02  0.21773480586E+02  0.50000000000E+02  0.47000000000E+01 0. -1.
         -5    1    3    3    0  501  0.32665541467E+01 -0.44644766403E+02 -0.21773480586E+02  0.50000000000E+02  0.47000000000E+01 0.  1.
</event>
<event>
 5    1  0.9071520E-001  0.1000000E+03  0.7546771E-02  0.1163815E+00
         11   -1    0    0    0    0  0.00000000000E+00  0.00000000000E+00  0.50000000000E+02  0.50000000000E+02  0.00000000000E+00 0. -1.
        -11   -1    0    0    0    0 -0.00000000000E+00 -0.00000000000E+00 -0.50000000000E+02  0.50000000000E+02  0.00000000000E+00 0.  1.
         23    2    1    2    0    0  0.00000000000E+00  0.00000000000E+00  0.00000000000E+00  0.10000000000E+03  0.10000000000E+03 0.  0.
          5    1    3    3  501    0 -0.35947237389E+02  0.34426221656E+02  0.73578976479E+00  0.50000000000E+02  0.47000000000E+01 0. -1.
         -5    1    3    3    0  501  0.35947237389E+02 -0.34426221656E+02 -0.73578976479E+00  0.50000000000E+02  0.47000000000E+01 0.  1.
</event>
<event>
 5    1  0.9071520E-001  0.1000000E+03  0.7546771E-02  0.1163815E+00
         11   -1    0    0    0    0  0.00000000000E+00  0.00000000000E+00  0.50000000000E+02  0.50000000000E+02  0.00000000000E+00 0.  1.
        -11   -1    0    0    0    0 -0.00000000000E+00 -0.00000000000E+00 -0.50000000000E+02  0.50000000000E+02  0.00000000000E+00 0. -1.
         23    2    1    2    0    0  0.00000000000E+00  0.00000000000E+00  0.00000000000E+00  0.10000000000E+03  0.10000000000E+03 0.  0.
          5    1    3    3  501    0 -0.30918460019E+02 -0.32306810091E+02 -0.21868444202E+02  0.50000000000E+02  0.47000000000E+01 0. -1.
         -5    1    3    3    0  501  0.30918460019E+02  0.32306810091E+02  0.21868444202E+02  0.50000000000E+02  0.47000000000E+01 0.  1.
</event>
<event>
 5    1  0.9071520E-001  0.1000000E+03  0.7546771E-02  0.1163815E+00
         11   -1    0    0    0    0  0.00000000000E+00  0.00000000000E+00  0.50000000000E+02  0.50000000000E+02  0.00000000000E+00 0. -1.
        -11   -1    0    0    0    0 -0.00000000000E+00 -0.00000000000E+00 -0.50000000000E+02  0.50000000000E+02  0.00000000000E+00 0.  1.
         23    2    1    2    0    0  0.00000000000E+00  0.00000000000E+00  0.00000000000E+00  0.10000000000E+03  0.10000000000E+03 0.  0.
          5    1    3    3  501    0 -0.30561320051E+02 -0.75541679782E+01  0.38559697391E+02  0.50000000000E+02  0.47000000000E+01 0. -1.
         -5    1    3    3    0  501  0.30561320051E+02  0.75541679782E+01 -0.38559697391E+02  0.50000000000E+02  0.47000000000E+01 0.  1.
</event>
<event>
 5    1  0.9071520E-001  0.1000000E+03  0.7546771E-02  0.1163815E+00
         11   -1    0    0    0    0  0.00000000000E+00  0.00000000000E+00  0.50000000000E+02  0.50000000000E+02  0.00000000000E+00 0.  1.
        -11   -1    0    0    0    0 -0.00000000000E+00 -0.00000000000E+00 -0.50000000000E+02  0.50000000000E+02  0.00000000000E+00 0. -1.
         23    2    1    2    0    0  0.00000000000E+00  0.00000000000E+00  0.00000000000E+00  0.10000000000E+03  0.10000000000E+03 0.  0.
          5    1    3    3  501    0 -0.25118238092E+02 -0.15084199570E+02 -0.40242403488E+02  0.50000000000E+02  0.47000000000E+01 0. -1.
         -5    1    3    3    0  501  0.25118238092E+02  0.15084199570E+02  0.40242403488E+02  0.50000000000E+02  0.47000000000E+01 0.  1.
</event>
<event>
 5    1  0.9071520E-001  0.1000000E+03  0.7546771E-02  0.1163815E+00
         11   -1    0    0    0    0  0.00000000000E+00  0.00000000000E+00  0.50000000000E+02  0.50000000000E+02  0.00000000000E+00 0. -1.
        -11   -1    0    0    0    0 -0.00000000000E+00 -0.00000000000E+00 -0.50000000000E+02  0.50000000000E+02  0.00000000000E+00 0.  1.
         23    2    1    2    0    0  0.00000000000E+00  0.00000000000E+00  0.00000000000E+00  0.10000000000E+03  0.10000000000E+03 0.  0.
          5    1    3    3  501    0  0.35974592012E+02  0.27923481791E+02  0.20100196373E+02  0.50000000000E+02  0.47000000000E+01 0. -1.
         -5    1    3    3    0  501 -0.35974592012E+02 -0.27923481791E+02 -0.20100196373E+02  0.50000000000E+02  0.47000000000E+01 0.  1.
</event>
<event>
 5    1  0.9071520E-001  0.1000000E+03  0.7546771E-02  0.1163815E+00
         11   -1    0    0    0    0  0.00000000000E+00  0.00000000000E+00  0.50000000000E+02  0.50000000000E+02  0.00000000000E+00 0. -1.
        -11   -1    0    0    0    0 -0.00000000000E+00 -0.00000000000E+00 -0.50000000000E+02  0.50000000000E+02  0.00000000000E+00 0.  1.
         23    2    1    2    0    0  0.00000000000E+00  0.00000000000E+00  0.00000000000E+00  0.10000000000E+03  0.10000000000E+03 0.  0.
          5    1    3    3  501    0 -0.18834282445E+02  0.29823623022E+02  0.35124511593E+02  0.50000000000E+02  0.47000000000E+01 0. -1.
         -5    1    3    3    0  501  0.18834282445E+02 -0.29823623022E+02 -0.35124511593E+02  0.50000000000E+02  0.47000000000E+01 0.  1.
</event>
<event>
 5    1  0.9071520E-001  0.1000000E+03  0.7546771E-02  0.1163815E+00
         11   -1    0    0    0    0  0.00000000000E+00  0.00000000000E+00  0.50000000000E+02  0.50000000000E+02  0.00000000000E+00 0. -1.
        -11   -1    0    0    0    0 -0.00000000000E+00 -0.00000000000E+00 -0.50000000000E+02  0.50000000000E+02  0.00000000000E+00 0.  1.
         23    2    1    2    0    0  0.00000000000E+00  0.00000000000E+00  0.00000000000E+00  0.10000000000E+03  0.10000000000E+03 0.  0.
          5    1    3    3  501    0 -0.30961962294E+01  0.76797128679E+01  0.49085085099E+02  0.50000000000E+02  0.47000000000E+01 0. -1.
         -5    1    3    3    0  501  0.30961962294E+01 -0.76797128679E+01 -0.49085085099E+02  0.50000000000E+02  0.47000000000E+01 0.  1.
</event>
<event>
 5    1  0.9071520E-001  0.1000000E+03  0.7546771E-02  0.1163815E+00
         11   -1    0    0    0    0  0.00000000000E+00  0.00000000000E+00  0.50000000000E+02  0.50000000000E+02  0.00000000000E+00 0. -1.
        -11   -1    0    0    0    0 -0.00000000000E+00 -0.00000000000E+00 -0.50000000000E+02  0.50000000000E+02  0.00000000000E+00 0.  1.
         23    2    1    2    0    0  0.00000000000E+00  0.00000000000E+00  0.00000000000E+00  0.10000000000E+03  0.10000000000E+03 0.  0.
          5    1    3    3  501    0 -0.44299464846E+02  0.46623534832E+00  0.22699119784E+02  0.50000000000E+02  0.47000000000E+01 0. -1.
         -5    1    3    3    0  501  0.44299464846E+02 -0.46623534832E+00 -0.22699119784E+02  0.50000000000E+02  0.47000000000E+01 0.  1.
</event>
<event>
 5    1  0.9071520E-001  0.1000000E+03  0.7546771E-02  0.1163815E+00
         11   -1    0    0    0    0  0.00000000000E+00  0.00000000000E+00  0.50000000000E+02  0.50000000000E+02  0.00000000000E+00 0.  1.
        -11   -1    0    0    0    0 -0.00000000000E+00 -0.00000000000E+00 -0.50000000000E+02  0.50000000000E+02  0.00000000000E+00 0. -1.
         23    2    1    2    0    0  0.00000000000E+00  0.00000000000E+00  0.00000000000E+00  0.10000000000E+03  0.10000000000E+03 0.  0.
          5    1    3    3  501    0 -0.42034305609E+02  0.24796856232E+02 -0.98052574140E+01  0.50000000000E+02  0.47000000000E+01 0.  1.
         -5    1    3    3    0  501  0.42034305609E+02 -0.24796856232E+02  0.98052574140E+01  0.50000000000E+02  0.47000000000E+01 0. -1.
</event>
<event>
 5    1  0.9071520E-001  0.1000000E+03  0.7546771E-02  0.1163815E+00
         11   -1    0    0    0    0  0.00000000000E+00  0.00000000000E+00  0.50000000000E+02  0.50000000000E+02  0.00000000000E+00 0. -1.
        -11   -1    0    0    0    0 -0.00000000000E+00 -0.00000000000E+00 -0.50000000000E+02  0.50000000000E+02  0.00000000000E+00 0.  1.
         23    2    1    2    0    0  0.00000000000E+00  0.00000000000E+00  0.00000000000E+00  0.10000000000E+03  0.10000000000E+03 0.  0.
          5    1    3    3  501    0 -0.67319137231E+01  0.49279585753E+02  0.20282420107E+01  0.50000000000E+02  0.47000000000E+01 0. -1.
         -5    1    3    3    0  501  0.67319137231E+01 -0.49279585753E+02 -0.20282420107E+01  0.50000000000E+02  0.47000000000E+01 0.  1.
</event>
<event>
 5    1  0.9071520E-001  0.1000000E+03  0.7546771E-02  0.1163815E+00
         11   -1    0    0    0    0  0.00000000000E+00  0.00000000000E+00  0.50000000000E+02  0.50000000000E+02  0.00000000000E+00 0. -1.
        -11   -1    0    0    0    0 -0.00000000000E+00 -0.00000000000E+00 -0.50000000000E+02  0.50000000000E+02  0.00000000000E+00 0.  1.
         23    2    1    2    0    0  0.00000000000E+00  0.00000000000E+00  0.00000000000E+00  0.10000000000E+03  0.10000000000E+03 0.  0.
          5    1    3    3  501    0 -0.31978312876E+02  0.86600023030E+01  0.37152413996E+02  0.50000000000E+02  0.47000000000E+01 0. -1.
         -5    1    3    3    0  501  0.31978312876E+02 -0.86600023030E+01 -0.37152413996E+02  0.50000000000E+02  0.47000000000E+01 0.  1.
</event>
<event>
 5    1  0.9071520E-001  0.1000000E+03  0.7546771E-02  0.1163815E+00
         11   -1    0    0    0    0  0.00000000000E+00  0.00000000000E+00  0.50000000000E+02  0.50000000000E+02  0.00000000000E+00 0. -1.
        -11   -1    0    0    0    0 -0.00000000000E+00 -0.00000000000E+00 -0.50000000000E+02  0.50000000000E+02  0.00000000000E+00 0.  1.
         23    2    1    2    0    0  0.00000000000E+00  0.00000000000E+00  0.00000000000E+00  0.10000000000E+03  0.10000000000E+03 0.  0.
          5    1    3    3  501    0  0.64404777665E+01  0.32834414187E+01  0.49250880790E+02  0.50000000000E+02  0.47000000000E+01 0. -1.
         -5    1    3    3    0  501 -0.64404777665E+01 -0.32834414187E+01 -0.49250880790E+02  0.50000000000E+02  0.47000000000E+01 0.  1.
</event>
<event>
 5    1  0.9071520E-001  0.1000000E+03  0.7546771E-02  0.1163815E+00
         11   -1    0    0    0    0  0.00000000000E+00  0.00000000000E+00  0.50000000000E+02  0.50000000000E+02  0.00000000000E+00 0.  1.
        -11   -1    0    0    0    0 -0.00000000000E+00 -0.00000000000E+00 -0.50000000000E+02  0.50000000000E+02  0.00000000000E+00 0. -1.
         23    2    1    2    0    0  0.00000000000E+00  0.00000000000E+00  0.00000000000E+00  0.10000000000E+03  0.10000000000E+03 0.  0.
          5    1    3    3  501    0  0.10097614291E+02 -0.28926969937E+02 -0.39232366687E+02  0.50000000000E+02  0.47000000000E+01 0. -1.
         -5    1    3    3    0  501 -0.10097614291E+02  0.28926969937E+02  0.39232366687E+02  0.50000000000E+02  0.47000000000E+01 0.  1.
</event>
<event>
 5    1  0.9071520E-001  0.1000000E+03  0.7546771E-02  0.1163815E+00
         11   -1    0    0    0    0  0.00000000000E+00  0.00000000000E+00  0.50000000000E+02  0.50000000000E+02  0.00000000000E+00 0. -1.
        -11   -1    0    0    0    0 -0.00000000000E+00 -0.00000000000E+00 -0.50000000000E+02  0.50000000000E+02  0.00000000000E+00 0.  1.
         23    2    1    2    0    0  0.00000000000E+00  0.00000000000E+00  0.00000000000E+00  0.10000000000E+03  0.10000000000E+03 0.  0.
          5    1    3    3  501    0 -0.19638759232E+02 -0.13432754726E+02  0.43724023560E+02  0.50000000000E+02  0.47000000000E+01 0. -1.
         -5    1    3    3    0  501  0.19638759232E+02  0.13432754726E+02 -0.43724023560E+02  0.50000000000E+02  0.47000000000E+01 0.  1.
</event>
<event>
 5    1  0.9071520E-001  0.1000000E+03  0.7546771E-02  0.1163815E+00
         11   -1    0    0    0    0  0.00000000000E+00  0.00000000000E+00  0.50000000000E+02  0.50000000000E+02  0.00000000000E+00 0.  1.
        -11   -1    0    0    0    0 -0.00000000000E+00 -0.00000000000E+00 -0.50000000000E+02  0.50000000000E+02  0.00000000000E+00 0. -1.
         23    2    1    2    0    0  0.00000000000E+00  0.00000000000E+00  0.00000000000E+00  0.10000000000E+03  0.10000000000E+03 0.  0.
          5    1    3    3  501    0  0.36549335258E+01 -0.51488332187E+01 -0.49376522533E+02  0.50000000000E+02  0.47000000000E+01 0. -1.
         -5    1    3    3    0  501 -0.36549335258E+01  0.51488332187E+01  0.49376522533E+02  0.50000000000E+02  0.47000000000E+01 0.  1.
</event>
<event>
 5    1  0.9071520E-001  0.1000000E+03  0.7546771E-02  0.1163815E+00
         11   -1    0    0    0    0  0.00000000000E+00  0.00000000000E+00  0.50000000000E+02  0.50000000000E+02  0.00000000000E+00 0. -1.
        -11   -1    0    0    0    0 -0.00000000000E+00 -0.00000000000E+00 -0.50000000000E+02  0.50000000000E+02  0.00000000000E+00 0.  1.
         23    2    1    2    0    0  0.00000000000E+00  0.00000000000E+00  0.00000000000E+00  0.10000000000E+03  0.10000000000E+03 0.  0.
          5    1    3    3  501    0  0.41264628891E+02 -0.14633939694E+02  0.23685189708E+02  0.50000000000E+02  0.47000000000E+01 0. -1.
         -5    1    3    3    0  501 -0.41264628891E+02  0.14633939694E+02 -0.23685189708E+02  0.50000000000E+02  0.47000000000E+01 0.  1.
</event>
<event>
 5    1  0.9071520E-001  0.1000000E+03  0.7546771E-02  0.1163815E+00
         11   -1    0    0    0    0  0.00000000000E+00  0.00000000000E+00  0.50000000000E+02  0.50000000000E+02  0.00000000000E+00 0. -1.
        -11   -1    0    0    0    0 -0.00000000000E+00 -0.00000000000E+00 -0.50000000000E+02  0.50000000000E+02  0.00000000000E+00 0.  1.
         23    2    1    2    0    0  0.00000000000E+00  0.00000000000E+00  0.00000000000E+00  0.10000000000E+03  0.10000000000E+03 0.  0.
          5    1    3    3  501    0  0.24183442558E+02  0.41186685309E+02  0.14025978016E+02  0.50000000000E+02  0.47000000000E+01 0. -1.
         -5    1    3    3    0  501 -0.24183442558E+02 -0.41186685309E+02 -0.14025978016E+02  0.50000000000E+02  0.47000000000E+01 0.  1.
</event>
<event>
 5    1  0.9071520E-001  0.1000000E+03  0.7546771E-02  0.1163815E+00
         11   -1    0    0    0    0  0.00000000000E+00  0.00000000000E+00  0.50000000000E+02  0.50000000000E+02  0.00000000000E+00 0. -1.
        -11   -1    0    0    0    0 -0.00000000000E+00 -0.00000000000E+00 -0.50000000000E+02  0.50000000000E+02  0.00000000000E+00 0.  1.
         23    2    1    2    0    0  0.00000000000E+00  0.00000000000E+00  0.00000000000E+00  0.10000000000E+03  0.10000000000E+03 0.  0.
          5    1    3    3  501    0 -0.13204010981E+01  0.44967703478E+02  0.21308969586E+02  0.50000000000E+02  0.47000000000E+01 0. -1.
         -5    1    3    3    0  501  0.13204010981E+01 -0.44967703478E+02 -0.21308969586E+02  0.50000000000E+02  0.47000000000E+01 0.  1.
</event>
<event>
 5    1  0.9071520E-001  0.1000000E+03  0.7546771E-02  0.1163815E+00
         11   -1    0    0    0    0  0.00000000000E+00  0.00000000000E+00  0.50000000000E+02  0.50000000000E+02  0.00000000000E+00 0. -1.
        -11   -1    0    0    0    0 -0.00000000000E+00 -0.00000000000E+00 -0.50000000000E+02  0.50000000000E+02  0.00000000000E+00 0.  1.
         23    2    1    2    0    0  0.00000000000E+00  0.00000000000E+00  0.00000000000E+00  0.10000000000E+03  0.10000000000E+03 0.  0.
          5    1    3    3  501    0 -0.12348395016E+02 -0.45181619152E+02  0.16853736420E+02  0.50000000000E+02  0.47000000000E+01 0. -1.
         -5    1    3    3    0  501  0.12348395016E+02  0.45181619152E+02 -0.16853736420E+02  0.50000000000E+02  0.47000000000E+01 0.  1.
</event>
<event>
 5    1  0.9071520E-001  0.1000000E+03  0.7546771E-02  0.1163815E+00
         11   -1    0    0    0    0  0.00000000000E+00  0.00000000000E+00  0.50000000000E+02  0.50000000000E+02  0.00000000000E+00 0. -1.
        -11   -1    0    0    0    0 -0.00000000000E+00 -0.00000000000E+00 -0.50000000000E+02  0.50000000000E+02  0.00000000000E+00 0.  1.
         23    2    1    2    0    0  0.00000000000E+00  0.00000000000E+00  0.00000000000E+00  0.10000000000E+03  0.10000000000E+03 0.  0.
          5    1    3    3  501    0  0.58262663432E+01  0.11662592167E+02  0.48041113272E+02  0.50000000000E+02  0.47000000000E+01 0. -1.
         -5    1    3    3    0  501 -0.58262663432E+01 -0.11662592167E+02 -0.48041113272E+02  0.50000000000E+02  0.47000000000E+01 0.  1.
</event>
<event>
 5    1  0.9071520E-001  0.1000000E+03  0.7546771E-02  0.1163815E+00
         11   -1    0    0    0    0  0.00000000000E+00  0.00000000000E+00  0.50000000000E+02  0.50000000000E+02  0.00000000000E+00 0. -1.
        -11   -1    0    0    0    0 -0.00000000000E+00 -0.00000000000E+00 -0.50000000000E+02  0.50000000000E+02  0.00000000000E+00 0.  1.
         23    2    1    2    0    0  0.00000000000E+00  0.00000000000E+00  0.00000000000E+00  0.10000000000E+03  0.10000000000E+03 0.  0.
          5    1    3    3  501    0 -0.39569364758E+02  0.21459075820E+02  0.21252845400E+02  0.50000000000E+02  0.47000000000E+01 0. -1.
         -5    1    3    3    0  501  0.39569364758E+02 -0.21459075820E+02 -0.21252845400E+02  0.50000000000E+02  0.47000000000E+01 0.  1.
</event>
<event>
 5    1  0.9071520E-001  0.1000000E+03  0.7546771E-02  0.1163815E+00
         11   -1    0    0    0    0  0.00000000000E+00  0.00000000000E+00  0.50000000000E+02  0.50000000000E+02  0.00000000000E+00 0. -1.
        -11   -1    0    0    0    0 -0.00000000000E+00 -0.00000000000E+00 -0.50000000000E+02  0.50000000000E+02  0.00000000000E+00 0.  1.
         23    2    1    2    0    0  0.00000000000E+00  0.00000000000E+00  0.00000000000E+00  0.10000000000E+03  0.10000000000E+03 0.  0.
          5    1    3    3  501    0 -0.61548521040E+01  0.11843628071E+02  0.47955774102E+02  0.50000000000E+02  0.47000000000E+01 0. -1.
         -5    1    3    3    0  501  0.61548521040E+01 -0.11843628071E+02 -0.47955774102E+02  0.50000000000E+02  0.47000000000E+01 0.  1.
</event>
<event>
 5    1  0.9071520E-001  0.1000000E+03  0.7546771E-02  0.1163815E+00
         11   -1    0    0    0    0  0.00000000000E+00  0.00000000000E+00  0.50000000000E+02  0.50000000000E+02  0.00000000000E+00 0. -1.
        -11   -1    0    0    0    0 -0.00000000000E+00 -0.00000000000E+00 -0.50000000000E+02  0.50000000000E+02  0.00000000000E+00 0.  1.
         23    2    1    2    0    0  0.00000000000E+00  0.00000000000E+00  0.00000000000E+00  0.10000000000E+03  0.10000000000E+03 0.  0.
          5    1    3    3  501    0  0.37883853421E+02  0.15567681936E+02  0.28290827651E+02  0.50000000000E+02  0.47000000000E+01 0. -1.
         -5    1    3    3    0  501 -0.37883853421E+02 -0.15567681936E+02 -0.28290827651E+02  0.50000000000E+02  0.47000000000E+01 0.  1.
</event>
<event>
 5    1  0.9071520E-001  0.1000000E+03  0.7546771E-02  0.1163815E+00
         11   -1    0    0    0    0  0.00000000000E+00  0.00000000000E+00  0.50000000000E+02  0.50000000000E+02  0.00000000000E+00 0.  1.
        -11   -1    0    0    0    0 -0.00000000000E+00 -0.00000000000E+00 -0.50000000000E+02  0.50000000000E+02  0.00000000000E+00 0. -1.
         23    2    1    2    0    0  0.00000000000E+00  0.00000000000E+00  0.00000000000E+00  0.10000000000E+03  0.10000000000E+03 0.  0.
          5    1    3    3  501    0  0.25460053409E+02 -0.35075383398E+02  0.24482915674E+02  0.50000000000E+02  0.47000000000E+01 0. -1.
         -5    1    3    3    0  501 -0.25460053409E+02  0.35075383398E+02 -0.24482915674E+02  0.50000000000E+02  0.47000000000E+01 0.  1.
</event>
<event>
 5    1  0.9071520E-001  0.1000000E+03  0.7546771E-02  0.1163815E+00
         11   -1    0    0    0    0  0.00000000000E+00  0.00000000000E+00  0.50000000000E+02  0.50000000000E+02  0.00000000000E+00 0. -1.
        -11   -1    0    0    0    0 -0.00000000000E+00 -0.00000000000E+00 -0.50000000000E+02  0.50000000000E+02  0.00000000000E+00 0.  1.
         23    2    1    2    0    0  0.00000000000E+00  0.00000000000E+00  0.00000000000E+00  0.10000000000E+03  0.10000000000E+03 0.  0.
          5    1    3    3  501    0 -0.82633204114E+01 -0.39862524952E+02  0.28646232566E+02  0.50000000000E+02  0.47000000000E+01 0. -1.
         -5    1    3    3    0  501  0.82633204114E+01  0.39862524952E+02 -0.28646232566E+02  0.50000000000E+02  0.47000000000E+01 0.  1.
</event>
<event>
 5    1  0.9071520E-001  0.1000000E+03  0.7546771E-02  0.1163815E+00
         11   -1    0    0    0    0  0.00000000000E+00  0.00000000000E+00  0.50000000000E+02  0.50000000000E+02  0.00000000000E+00 0.  1.
        -11   -1    0    0    0    0 -0.00000000000E+00 -0.00000000000E+00 -0.50000000000E+02  0.50000000000E+02  0.00000000000E+00 0. -1.
         23    2    1    2    0    0  0.00000000000E+00  0.00000000000E+00  0.00000000000E+00  0.10000000000E+03  0.10000000000E+03 0.  0.
          5    1    3    3  501    0 -0.32698402998E+02  0.26804464210E+02 -0.26272516815E+02  0.50000000000E+02  0.47000000000E+01 0. -1.
         -5    1    3    3    0  501  0.32698402998E+02 -0.26804464210E+02  0.26272516815E+02  0.50000000000E+02  0.47000000000E+01 0.  1.
</event>
<event>
 5    1  0.9071520E-001  0.1000000E+03  0.7546771E-02  0.1163815E+00
         11   -1    0    0    0    0  0.00000000000E+00  0.00000000000E+00  0.50000000000E+02  0.50000000000E+02  0.00000000000E+00 0. -1.
        -11   -1    0    0    0    0 -0.00000000000E+00 -0.00000000000E+00 -0.50000000000E+02  0.50000000000E+02  0.00000000000E+00 0.  1.
         23    2    1    2    0    0  0.00000000000E+00  0.00000000000E+00  0.00000000000E+00  0.10000000000E+03  0.10000000000E+03 0.  0.
          5    1    3    3  501    0 -0.37408533200E+02  0.72143678183E+01  0.32038485307E+02  0.50000000000E+02  0.47000000000E+01 0. -1.
         -5    1    3    3    0  501  0.37408533200E+02 -0.72143678183E+01 -0.32038485307E+02  0.50000000000E+02  0.47000000000E+01 0.  1.
</event>
<event>
 5    1  0.9071520E-001  0.1000000E+03  0.7546771E-02  0.1163815E+00
         11   -1    0    0    0    0  0.00000000000E+00  0.00000000000E+00  0.50000000000E+02  0.50000000000E+02  0.00000000000E+00 0. -1.
        -11   -1    0    0    0    0 -0.00000000000E+00 -0.00000000000E+00 -0.50000000000E+02  0.50000000000E+02  0.00000000000E+00 0.  1.
         23    2    1    2    0    0  0.00000000000E+00  0.00000000000E+00  0.00000000000E+00  0.10000000000E+03  0.10000000000E+03 0.  0.
          5    1    3    3  501    0 -0.20633862534E+00 -0.19658830701E+02  0.45731802937E+02  0.50000000000E+02  0.47000000000E+01 0. -1.
         -5    1    3    3    0  501  0.20633862534E+00  0.19658830701E+02 -0.45731802937E+02  0.50000000000E+02  0.47000000000E+01 0.  1.
</event>
<event>
 5    1  0.9071520E-001  0.1000000E+03  0.7546771E-02  0.1163815E+00
         11   -1    0    0    0    0  0.00000000000E+00  0.00000000000E+00  0.50000000000E+02  0.50000000000E+02  0.00000000000E+00 0.  1.
        -11   -1    0    0    0    0 -0.00000000000E+00 -0.00000000000E+00 -0.50000000000E+02  0.50000000000E+02  0.00000000000E+00 0. -1.
         23    2    1    2    0    0  0.00000000000E+00  0.00000000000E+00  0.00000000000E+00  0.10000000000E+03  0.10000000000E+03 0.  0.
          5    1    3    3  501    0 -0.76621243550E+01  0.30399608543E+02 -0.38666078814E+02  0.50000000000E+02  0.47000000000E+01 0. -1.
         -5    1    3    3    0  501  0.76621243550E+01 -0.30399608543E+02  0.38666078814E+02  0.50000000000E+02  0.47000000000E+01 0.  1.
</event>
<event>
 5    1  0.9071520E-001  0.1000000E+03  0.7546771E-02  0.1163815E+00
         11   -1    0    0    0    0  0.00000000000E+00  0.00000000000E+00  0.50000000000E+02  0.50000000000E+02  0.00000000000E+00 0. -1.
        -11   -1    0    0    0    0 -0.00000000000E+00 -0.00000000000E+00 -0.50000000000E+02  0.50000000000E+02  0.00000000000E+00 0.  1.
         23    2    1    2    0    0  0.00000000000E+00  0.00000000000E+00  0.00000000000E+00  0.10000000000E+03  0.10000000000E+03 0.  0.
          5    1    3    3  501    0 -0.45322799088E+02 -0.19274533173E+00  0.20584380779E+02  0.50000000000E+02  0.47000000000E+01 0. -1.
         -5    1    3    3    0  501  0.45322799088E+02  0.19274533173E+00 -0.20584380779E+02  0.50000000000E+02  0.47000000000E+01 0.  1.
</event>
<event>
 5    1  0.9071520E-001  0.1000000E+03  0.7546771E-02  0.1163815E+00
         11   -1    0    0    0    0  0.00000000000E+00  0.00000000000E+00  0.50000000000E+02  0.50000000000E+02  0.00000000000E+00 0. -1.
        -11   -1    0    0    0    0 -0.00000000000E+00 -0.00000000000E+00 -0.50000000000E+02  0.50000000000E+02  0.00000000000E+00 0.  1.
         23    2    1    2    0    0  0.00000000000E+00  0.00000000000E+00  0.00000000000E+00  0.10000000000E+03  0.10000000000E+03 0.  0.
          5    1    3    3  501    0 -0.20254006619E+02  0.51383364190E+01  0.45180556822E+02  0.50000000000E+02  0.47000000000E+01 0. -1.
         -5    1    3    3    0  501  0.20254006619E+02 -0.51383364190E+01 -0.45180556822E+02  0.50000000000E+02  0.47000000000E+01 0.  1.
</event>
<event>
 5    1  0.9071520E-001  0.1000000E+03  0.7546771E-02  0.1163815E+00
         11   -1    0    0    0    0  0.00000000000E+00  0.00000000000E+00  0.50000000000E+02  0.50000000000E+02  0.00000000000E+00 0. -1.
        -11   -1    0    0    0    0 -0.00000000000E+00 -0.00000000000E+00 -0.50000000000E+02  0.50000000000E+02  0.00000000000E+00 0.  1.
         23    2    1    2    0    0  0.00000000000E+00  0.00000000000E+00  0.00000000000E+00  0.10000000000E+03  0.10000000000E+03 0.  0.
          5    1    3    3  501    0  0.33002323961E+02 -0.33190946419E+02  0.16944547471E+02  0.50000000000E+02  0.47000000000E+01 0. -1.
         -5    1    3    3    0  501 -0.33002323961E+02  0.33190946419E+02 -0.16944547471E+02  0.50000000000E+02  0.47000000000E+01 0.  1.
</event>
<event>
 5    1  0.9071520E-001  0.1000000E+03  0.7546771E-02  0.1163815E+00
         11   -1    0    0    0    0  0.00000000000E+00  0.00000000000E+00  0.50000000000E+02  0.50000000000E+02  0.00000000000E+00 0.  1.
        -11   -1    0    0    0    0 -0.00000000000E+00 -0.00000000000E+00 -0.50000000000E+02  0.50000000000E+02  0.00000000000E+00 0. -1.
         23    2    1    2    0    0  0.00000000000E+00  0.00000000000E+00  0.00000000000E+00  0.10000000000E+03  0.10000000000E+03 0.  0.
          5    1    3    3  501    0 -0.35556696113E+02 -0.34735103763E+02 -0.26653195032E+01  0.50000000000E+02  0.47000000000E+01 0. -1.
         -5    1    3    3    0  501  0.35556696113E+02  0.34735103763E+02  0.26653195032E+01  0.50000000000E+02  0.47000000000E+01 0.  1.
</event>
<event>
 5    1  0.9071520E-001  0.1000000E+03  0.7546771E-02  0.1163815E+00
         11   -1    0    0    0    0  0.00000000000E+00  0.00000000000E+00  0.50000000000E+02  0.50000000000E+02  0.00000000000E+00 0. -1.
        -11   -1    0    0    0    0 -0.00000000000E+00 -0.00000000000E+00 -0.50000000000E+02  0.50000000000E+02  0.00000000000E+00 0.  1.
         23    2    1    2    0    0  0.00000000000E+00  0.00000000000E+00  0.00000000000E+00  0.10000000000E+03  0.10000000000E+03 0.  0.
          5    1    3    3  501    0  0.41325744464E+02  0.23135753631E+02  0.15324155716E+02  0.50000000000E+02  0.47000000000E+01 0. -1.
         -5    1    3    3    0  501 -0.41325744464E+02 -0.23135753631E+02 -0.15324155716E+02  0.50000000000E+02  0.47000000000E+01 0.  1.
</event>
<event>
 5    1  0.9071520E-001  0.1000000E+03  0.7546771E-02  0.1163815E+00
         11   -1    0    0    0    0  0.00000000000E+00  0.00000000000E+00  0.50000000000E+02  0.50000000000E+02  0.00000000000E+00 0. -1.
        -11   -1    0    0    0    0 -0.00000000000E+00 -0.00000000000E+00 -0.50000000000E+02  0.50000000000E+02  0.00000000000E+00 0.  1.
         23    2    1    2    0    0  0.00000000000E+00  0.00000000000E+00  0.00000000000E+00  0.10000000000E+03  0.10000000000E+03 0.  0.
          5    1    3    3  501    0  0.35222793669E+02  0.10311752018E+01  0.35159657050E+02  0.50000000000E+02  0.47000000000E+01 0. -1.
         -5    1    3    3    0  501 -0.35222793669E+02 -0.10311752018E+01 -0.35159657050E+02  0.50000000000E+02  0.47000000000E+01 0.  1.
</event>
<event>
 5    1  0.9071520E-001  0.1000000E+03  0.7546771E-02  0.1163815E+00
         11   -1    0    0    0    0  0.00000000000E+00  0.00000000000E+00  0.50000000000E+02  0.50000000000E+02  0.00000000000E+00 0. -1.
        -11   -1    0    0    0    0 -0.00000000000E+00 -0.00000000000E+00 -0.50000000000E+02  0.50000000000E+02  0.00000000000E+00 0.  1.
         23    2    1    2    0    0  0.00000000000E+00  0.00000000000E+00  0.00000000000E+00  0.10000000000E+03  0.10000000000E+03 0.  0.
          5    1    3    3  501    0 -0.41969054883E+02 -0.58577266223E+01  0.26118871933E+02  0.50000000000E+02  0.47000000000E+01 0. -1.
         -5    1    3    3    0  501  0.41969054883E+02  0.58577266223E+01 -0.26118871933E+02  0.50000000000E+02  0.47000000000E+01 0.  1.
</event>
<event>
 5    1  0.9071520E-001  0.1000000E+03  0.7546771E-02  0.1163815E+00
         11   -1    0    0    0    0  0.00000000000E+00  0.00000000000E+00  0.50000000000E+02  0.50000000000E+02  0.00000000000E+00 0. -1.
        -11   -1    0    0    0    0 -0.00000000000E+00 -0.00000000000E+00 -0.50000000000E+02  0.50000000000E+02  0.00000000000E+00 0.  1.
         23    2    1    2    0    0  0.00000000000E+00  0.00000000000E+00  0.00000000000E+00  0.10000000000E+03  0.10000000000E+03 0.  0.
          5    1    3    3  501    0  0.28786677667E+02  0.10517197149E+02  0.39225320305E+02  0.50000000000E+02  0.47000000000E+01 0. -1.
         -5    1    3    3    0  501 -0.28786677667E+02 -0.10517197149E+02 -0.39225320305E+02  0.50000000000E+02  0.47000000000E+01 0.  1.
</event>
<event>
 5    1  0.9071520E-001  0.1000000E+03  0.7546771E-02  0.1163815E+00
         11   -1    0    0    0    0  0.00000000000E+00  0.00000000000E+00  0.50000000000E+02  0.50000000000E+02  0.00000000000E+00 0. -1.
        -11   -1    0    0    0    0 -0.00000000000E+00 -0.00000000000E+00 -0.50000000000E+02  0.50000000000E+02  0.00000000000E+00 0.  1.
         23    2    1    2    0    0  0.00000000000E+00  0.00000000000E+00  0.00000000000E+00  0.10000000000E+03  0.10000000000E+03 0.  0.
          5    1    3    3  501    0  0.28984103524E+02 -0.38702356148E+02  0.11830442573E+02  0.50000000000E+02  0.47000000000E+01 0. -1.
         -5    1    3    3    0  501 -0.28984103524E+02  0.38702356148E+02 -0.11830442573E+02  0.50000000000E+02  0.47000000000E+01 0.  1.
</event>
<event>
 5    1  0.9071520E-001  0.1000000E+03  0.7546771E-02  0.1163815E+00
         11   -1    0    0    0    0  0.00000000000E+00  0.00000000000E+00  0.50000000000E+02  0.50000000000E+02  0.00000000000E+00 0.  1.
        -11   -1    0    0    0    0 -0.00000000000E+00 -0.00000000000E+00 -0.50000000000E+02  0.50000000000E+02  0.00000000000E+00 0. -1.
         23    2    1    2    0    0  0.00000000000E+00  0.00000000000E+00  0.00000000000E+00  0.10000000000E+03  0.10000000000E+03 0.  0.
          5    1    3    3  501    0  0.19224820050E+02  0.18566016111E+02 -0.41995468087E+02  0.50000000000E+02  0.47000000000E+01 0. -1.
         -5    1    3    3    0  501 -0.19224820050E+02 -0.18566016111E+02  0.41995468087E+02  0.50000000000E+02  0.47000000000E+01 0.  1.
</event>
<event>
 5    1  0.9071520E-001  0.1000000E+03  0.7546771E-02  0.1163815E+00
         11   -1    0    0    0    0  0.00000000000E+00  0.00000000000E+00  0.50000000000E+02  0.50000000000E+02  0.00000000000E+00 0.  1.
        -11   -1    0    0    0    0 -0.00000000000E+00 -0.00000000000E+00 -0.50000000000E+02  0.50000000000E+02  0.00000000000E+00 0. -1.
         23    2    1    2    0    0  0.00000000000E+00  0.00000000000E+00  0.00000000000E+00  0.10000000000E+03  0.10000000000E+03 0.  0.
          5    1    3    3  501    0  0.38723381726E+02 -0.31279224204E+02 -0.14085789578E+00  0.50000000000E+02  0.47000000000E+01 0. -1.
         -5    1    3    3    0  501 -0.38723381726E+02  0.31279224204E+02  0.14085789578E+00  0.50000000000E+02  0.47000000000E+01 0.  1.
</event>
<event>
 5    1  0.9071520E-001  0.1000000E+03  0.7546771E-02  0.1163815E+00
         11   -1    0    0    0    0  0.00000000000E+00  0.00000000000E+00  0.50000000000E+02  0.50000000000E+02  0.00000000000E+00 0.  1.
        -11   -1    0    0    0    0 -0.00000000000E+00 -0.00000000000E+00 -0.50000000000E+02  0.50000000000E+02  0.00000000000E+00 0. -1.
         23    2    1    2    0    0  0.00000000000E+00  0.00000000000E+00  0.00000000000E+00  0.10000000000E+03  0.10000000000E+03 0.  0.
          5    1    3    3  501    0  0.46160283333E+01  0.12523652161E+02 -0.47955817363E+02  0.50000000000E+02  0.47000000000E+01 0. -1.
         -5    1    3    3    0  501 -0.46160283333E+01 -0.12523652161E+02  0.47955817363E+02  0.50000000000E+02  0.47000000000E+01 0.  1.
</event>
<event>
 5    1  0.9071520E-001  0.1000000E+03  0.7546771E-02  0.1163815E+00
         11   -1    0    0    0    0  0.00000000000E+00  0.00000000000E+00  0.50000000000E+02  0.50000000000E+02  0.00000000000E+00 0. -1.
        -11   -1    0    0    0    0 -0.00000000000E+00 -0.00000000000E+00 -0.50000000000E+02  0.50000000000E+02  0.00000000000E+00 0.  1.
         23    2    1    2    0    0  0.00000000000E+00  0.00000000000E+00  0.00000000000E+00  0.10000000000E+03  0.10000000000E+03 0.  0.
          5    1    3    3  501    0  0.18696143526E+02  0.41271925255E+02 -0.20615343874E+02  0.50000000000E+02  0.47000000000E+01 0. -1.
         -5    1    3    3    0  501 -0.18696143526E+02 -0.41271925255E+02  0.20615343874E+02  0.50000000000E+02  0.47000000000E+01 0.  1.
</event>
<event>
 5    1  0.9071520E-001  0.1000000E+03  0.7546771E-02  0.1163815E+00
         11   -1    0    0    0    0  0.00000000000E+00  0.00000000000E+00  0.50000000000E+02  0.50000000000E+02  0.00000000000E+00 0. -1.
        -11   -1    0    0    0    0 -0.00000000000E+00 -0.00000000000E+00 -0.50000000000E+02  0.50000000000E+02  0.00000000000E+00 0.  1.
         23    2    1    2    0    0  0.00000000000E+00  0.00000000000E+00  0.00000000000E+00  0.10000000000E+03  0.10000000000E+03 0.  0.
          5    1    3    3  501    0 -0.42925148304E+02  0.42594576330E+01  0.24843483325E+02  0.50000000000E+02  0.47000000000E+01 0. -1.
         -5    1    3    3    0  501  0.42925148304E+02 -0.42594576330E+01 -0.24843483325E+02  0.50000000000E+02  0.47000000000E+01 0.  1.
</event>
<event>
 5    1  0.9071520E-001  0.1000000E+03  0.7546771E-02  0.1163815E+00
         11   -1    0    0    0    0  0.00000000000E+00  0.00000000000E+00  0.50000000000E+02  0.50000000000E+02  0.00000000000E+00 0. -1.
        -11   -1    0    0    0    0 -0.00000000000E+00 -0.00000000000E+00 -0.50000000000E+02  0.50000000000E+02  0.00000000000E+00 0.  1.
         23    2    1    2    0    0  0.00000000000E+00  0.00000000000E+00  0.00000000000E+00  0.10000000000E+03  0.10000000000E+03 0.  0.
          5    1    3    3  501    0  0.36429095520E+02  0.31681937471E+02  0.12127895021E+02  0.50000000000E+02  0.47000000000E+01 0. -1.
         -5    1    3    3    0  501 -0.36429095520E+02 -0.31681937471E+02 -0.12127895021E+02  0.50000000000E+02  0.47000000000E+01 0.  1.
</event>
<event>
 5    1  0.9071520E-001  0.1000000E+03  0.7546771E-02  0.1163815E+00
         11   -1    0    0    0    0  0.00000000000E+00  0.00000000000E+00  0.50000000000E+02  0.50000000000E+02  0.00000000000E+00 0.  1.
        -11   -1    0    0    0    0 -0.00000000000E+00 -0.00000000000E+00 -0.50000000000E+02  0.50000000000E+02  0.00000000000E+00 0. -1.
         23    2    1    2    0    0  0.00000000000E+00  0.00000000000E+00  0.00000000000E+00  0.10000000000E+03  0.10000000000E+03 0.  0.
          5    1    3    3  501    0 -0.60725041560E+00 -0.26648222967E+02 -0.42040616785E+02  0.50000000000E+02  0.47000000000E+01 0. -1.
         -5    1    3    3    0  501  0.60725041560E+00  0.26648222967E+02  0.42040616785E+02  0.50000000000E+02  0.47000000000E+01 0.  1.
</event>
<event>
 5    1  0.9071520E-001  0.1000000E+03  0.7546771E-02  0.1163815E+00
         11   -1    0    0    0    0  0.00000000000E+00  0.00000000000E+00  0.50000000000E+02  0.50000000000E+02  0.00000000000E+00 0. -1.
        -11   -1    0    0    0    0 -0.00000000000E+00 -0.00000000000E+00 -0.50000000000E+02  0.50000000000E+02  0.00000000000E+00 0.  1.
         23    2    1    2    0    0  0.00000000000E+00  0.00000000000E+00  0.00000000000E+00  0.10000000000E+03  0.10000000000E+03 0.  0.
          5    1    3    3  501    0  0.10256948689E+02 -0.12410150477E+02  0.47103005941E+02  0.50000000000E+02  0.47000000000E+01 0. -1.
         -5    1    3    3    0  501 -0.10256948689E+02  0.12410150477E+02 -0.47103005941E+02  0.50000000000E+02  0.47000000000E+01 0.  1.
</event>
<event>
 5    1  0.9071520E-001  0.1000000E+03  0.7546771E-02  0.1163815E+00
         11   -1    0    0    0    0  0.00000000000E+00  0.00000000000E+00  0.50000000000E+02  0.50000000000E+02  0.00000000000E+00 0. -1.
        -11   -1    0    0    0    0 -0.00000000000E+00 -0.00000000000E+00 -0.50000000000E+02  0.50000000000E+02  0.00000000000E+00 0.  1.
         23    2    1    2    0    0  0.00000000000E+00  0.00000000000E+00  0.00000000000E+00  0.10000000000E+03  0.10000000000E+03 0.  0.
          5    1    3    3  501    0  0.26960135463E+02  0.37567169710E+02  0.18432820072E+02  0.50000000000E+02  0.47000000000E+01 0. -1.
         -5    1    3    3    0  501 -0.26960135463E+02 -0.37567169710E+02 -0.18432820072E+02  0.50000000000E+02  0.47000000000E+01 0.  1.
</event>
<event>
 5    1  0.9071520E-001  0.1000000E+03  0.7546771E-02  0.1163815E+00
         11   -1    0    0    0    0  0.00000000000E+00  0.00000000000E+00  0.50000000000E+02  0.50000000000E+02  0.00000000000E+00 0.  1.
        -11   -1    0    0    0    0 -0.00000000000E+00 -0.00000000000E+00 -0.50000000000E+02  0.50000000000E+02  0.00000000000E+00 0. -1.
         23    2    1    2    0    0  0.00000000000E+00  0.00000000000E+00  0.00000000000E+00  0.10000000000E+03  0.10000000000E+03 0.  0.
          5    1    3    3  501    0 -0.17305672231E+02 -0.27209397410E+02 -0.37921925073E+02  0.50000000000E+02  0.47000000000E+01 0. -1.
         -5    1    3    3    0  501  0.17305672231E+02  0.27209397410E+02  0.37921925073E+02  0.50000000000E+02  0.47000000000E+01 0.  1.
</event>
<event>
 5    1  0.9071520E-001  0.1000000E+03  0.7546771E-02  0.1163815E+00
         11   -1    0    0    0    0  0.00000000000E+00  0.00000000000E+00  0.50000000000E+02  0.50000000000E+02  0.00000000000E+00 0.  1.
        -11   -1    0    0    0    0 -0.00000000000E+00 -0.00000000000E+00 -0.50000000000E+02  0.50000000000E+02  0.00000000000E+00 0. -1.
         23    2    1    2    0    0  0.00000000000E+00  0.00000000000E+00  0.00000000000E+00  0.10000000000E+03  0.10000000000E+03 0.  0.
          5    1    3    3  501    0  0.16529954308E+02  0.43281065160E+02 -0.18204944636E+02  0.50000000000E+02  0.47000000000E+01 0. -1.
         -5    1    3    3    0  501 -0.16529954308E+02 -0.43281065160E+02  0.18204944636E+02  0.50000000000E+02  0.47000000000E+01 0.  1.
</event>
<event>
 5    1  0.9071520E-001  0.1000000E+03  0.7546771E-02  0.1163815E+00
         11   -1    0    0    0    0  0.00000000000E+00  0.00000000000E+00  0.50000000000E+02  0.50000000000E+02  0.00000000000E+00 0.  1.
        -11   -1    0    0    0    0 -0.00000000000E+00 -0.00000000000E+00 -0.50000000000E+02  0.50000000000E+02  0.00000000000E+00 0. -1.
         23    2    1    2    0    0  0.00000000000E+00  0.00000000000E+00  0.00000000000E+00  0.10000000000E+03  0.10000000000E+03 0.  0.
          5    1    3    3  501    0  0.12146852090E+02  0.18764215666E+02 -0.44477726951E+02  0.50000000000E+02  0.47000000000E+01 0. -1.
         -5    1    3    3    0  501 -0.12146852090E+02 -0.18764215666E+02  0.44477726951E+02  0.50000000000E+02  0.47000000000E+01 0.  1.
</event>
<event>
 5    1  0.9071520E-001  0.1000000E+03  0.7546771E-02  0.1163815E+00
         11   -1    0    0    0    0  0.00000000000E+00  0.00000000000E+00  0.50000000000E+02  0.50000000000E+02  0.00000000000E+00 0. -1.
        -11   -1    0    0    0    0 -0.00000000000E+00 -0.00000000000E+00 -0.50000000000E+02  0.50000000000E+02  0.00000000000E+00 0.  1.
         23    2    1    2    0    0  0.00000000000E+00  0.00000000000E+00  0.00000000000E+00  0.10000000000E+03  0.10000000000E+03 0.  0.
          5    1    3    3  501    0 -0.18820093551E+02  0.41569897441E+02  0.19891146409E+02  0.50000000000E+02  0.47000000000E+01 0. -1.
         -5    1    3    3    0  501  0.18820093551E+02 -0.41569897441E+02 -0.19891146409E+02  0.50000000000E+02  0.47000000000E+01 0.  1.
</event>
<event>
 5    1  0.9071520E-001  0.1000000E+03  0.7546771E-02  0.1163815E+00
         11   -1    0    0    0    0  0.00000000000E+00  0.00000000000E+00  0.50000000000E+02  0.50000000000E+02  0.00000000000E+00 0.  1.
        -11   -1    0    0    0    0 -0.00000000000E+00 -0.00000000000E+00 -0.50000000000E+02  0.50000000000E+02  0.00000000000E+00 0. -1.
         23    2    1    2    0    0  0.00000000000E+00  0.00000000000E+00  0.00000000000E+00  0.10000000000E+03  0.10000000000E+03 0.  0.
          5    1    3    3  501    0 -0.24127123982E+02  0.20764524666E+02 -0.38270437726E+02  0.50000000000E+02  0.47000000000E+01 0. -1.
         -5    1    3    3    0  501  0.24127123982E+02 -0.20764524666E+02  0.38270437726E+02  0.50000000000E+02  0.47000000000E+01 0.  1.
</event>
<event>
 5    1  0.9071520E-001  0.1000000E+03  0.7546771E-02  0.1163815E+00
         11   -1    0    0    0    0  0.00000000000E+00  0.00000000000E+00  0.50000000000E+02  0.50000000000E+02  0.00000000000E+00 0. -1.
        -11   -1    0    0    0    0 -0.00000000000E+00 -0.00000000000E+00 -0.50000000000E+02  0.50000000000E+02  0.00000000000E+00 0.  1.
         23    2    1    2    0    0  0.00000000000E+00  0.00000000000E+00  0.00000000000E+00  0.10000000000E+03  0.10000000000E+03 0.  0.
          5    1    3    3  501    0  0.23213636454E+02  0.30675137353E+02  0.31592293854E+02  0.50000000000E+02  0.47000000000E+01 0. -1.
         -5    1    3    3    0  501 -0.23213636454E+02 -0.30675137353E+02 -0.31592293854E+02  0.50000000000E+02  0.47000000000E+01 0.  1.
</event>
<event>
 5    1  0.9071520E-001  0.1000000E+03  0.7546771E-02  0.1163815E+00
         11   -1    0    0    0    0  0.00000000000E+00  0.00000000000E+00  0.50000000000E+02  0.50000000000E+02  0.00000000000E+00 0.  1.
        -11   -1    0    0    0    0 -0.00000000000E+00 -0.00000000000E+00 -0.50000000000E+02  0.50000000000E+02  0.00000000000E+00 0. -1.
         23    2    1    2    0    0  0.00000000000E+00  0.00000000000E+00  0.00000000000E+00  0.10000000000E+03  0.10000000000E+03 0.  0.
          5    1    3    3  501    0 -0.17540150304E+02 -0.44730585794E+02 -0.13016444286E+02  0.50000000000E+02  0.47000000000E+01 0. -1.
         -5    1    3    3    0  501  0.17540150304E+02  0.44730585794E+02  0.13016444286E+02  0.50000000000E+02  0.47000000000E+01 0. -1.
</event>
<event>
 5    1  0.9071520E-001  0.1000000E+03  0.7546771E-02  0.1163815E+00
         11   -1    0    0    0    0  0.00000000000E+00  0.00000000000E+00  0.50000000000E+02  0.50000000000E+02  0.00000000000E+00 0.  1.
        -11   -1    0    0    0    0 -0.00000000000E+00 -0.00000000000E+00 -0.50000000000E+02  0.50000000000E+02  0.00000000000E+00 0. -1.
         23    2    1    2    0    0  0.00000000000E+00  0.00000000000E+00  0.00000000000E+00  0.10000000000E+03  0.10000000000E+03 0.  0.
          5    1    3    3  501    0  0.39589613345E+01  0.86302812013E+01 -0.48864658717E+02  0.50000000000E+02  0.47000000000E+01 0. -1.
         -5    1    3    3    0  501 -0.39589613345E+01 -0.86302812013E+01  0.48864658717E+02  0.50000000000E+02  0.47000000000E+01 0.  1.
</event>
<event>
 5    1  0.9071520E-001  0.1000000E+03  0.7546771E-02  0.1163815E+00
         11   -1    0    0    0    0  0.00000000000E+00  0.00000000000E+00  0.50000000000E+02  0.50000000000E+02  0.00000000000E+00 0.  1.
        -11   -1    0    0    0    0 -0.00000000000E+00 -0.00000000000E+00 -0.50000000000E+02  0.50000000000E+02  0.00000000000E+00 0. -1.
         23    2    1    2    0    0  0.00000000000E+00  0.00000000000E+00  0.00000000000E+00  0.10000000000E+03  0.10000000000E+03 0.  0.
          5    1    3    3  501    0 -0.43550274966E+02 -0.67195565681E+01 -0.23154505175E+02  0.50000000000E+02  0.47000000000E+01 0. -1.
         -5    1    3    3    0  501  0.43550274966E+02  0.67195565681E+01  0.23154505175E+02  0.50000000000E+02  0.47000000000E+01 0.  1.
</event>
<event>
 5    1  0.9071520E-001  0.1000000E+03  0.7546771E-02  0.1163815E+00
         11   -1    0    0    0    0  0.00000000000E+00  0.00000000000E+00  0.50000000000E+02  0.50000000000E+02  0.00000000000E+00 0.  1.
        -11   -1    0    0    0    0 -0.00000000000E+00 -0.00000000000E+00 -0.50000000000E+02  0.50000000000E+02  0.00000000000E+00 0. -1.
         23    2    1    2    0    0  0.00000000000E+00  0.00000000000E+00  0.00000000000E+00  0.10000000000E+03  0.10000000000E+03 0.  0.
          5    1    3    3  501    0  0.25719424497E+02  0.39970623379E+02 -0.14790891463E+02  0.50000000000E+02  0.47000000000E+01 0. -1.
         -5    1    3    3    0  501 -0.25719424497E+02 -0.39970623379E+02  0.14790891463E+02  0.50000000000E+02  0.47000000000E+01 0.  1.
</event>
<event>
 5    1  0.9071520E-001  0.1000000E+03  0.7546771E-02  0.1163815E+00
         11   -1    0    0    0    0  0.00000000000E+00  0.00000000000E+00  0.50000000000E+02  0.50000000000E+02  0.00000000000E+00 0. -1.
        -11   -1    0    0    0    0 -0.00000000000E+00 -0.00000000000E+00 -0.50000000000E+02  0.50000000000E+02  0.00000000000E+00 0.  1.
         23    2    1    2    0    0  0.00000000000E+00  0.00000000000E+00  0.00000000000E+00  0.10000000000E+03  0.10000000000E+03 0.  0.
          5    1    3    3  501    0 -0.28944618752E+02 -0.36473562087E+02  0.17601088432E+02  0.50000000000E+02  0.47000000000E+01 0. -1.
         -5    1    3    3    0  501  0.28944618752E+02  0.36473562087E+02 -0.17601088432E+02  0.50000000000E+02  0.47000000000E+01 0.  1.
</event>
<event>
 5    1  0.9071520E-001  0.1000000E+03  0.7546771E-02  0.1163815E+00
         11   -1    0    0    0    0  0.00000000000E+00  0.00000000000E+00  0.50000000000E+02  0.50000000000E+02  0.00000000000E+00 0. -1.
        -11   -1    0    0    0    0 -0.00000000000E+00 -0.00000000000E+00 -0.50000000000E+02  0.50000000000E+02  0.00000000000E+00 0.  1.
         23    2    1    2    0    0  0.00000000000E+00  0.00000000000E+00  0.00000000000E+00  0.10000000000E+03  0.10000000000E+03 0.  0.
          5    1    3    3  501    0  0.31485841727E+02 -0.29848143109E+02  0.24405739565E+02  0.50000000000E+02  0.47000000000E+01 0. -1.
         -5    1    3    3    0  501 -0.31485841727E+02  0.29848143109E+02 -0.24405739565E+02  0.50000000000E+02  0.47000000000E+01 0.  1.
</event>
<event>
 5    1  0.9071520E-001  0.1000000E+03  0.7546771E-02  0.1163815E+00
         11   -1    0    0    0    0  0.00000000000E+00  0.00000000000E+00  0.50000000000E+02  0.50000000000E+02  0.00000000000E+00 0. -1.
        -11   -1    0    0    0    0 -0.00000000000E+00 -0.00000000000E+00 -0.50000000000E+02  0.50000000000E+02  0.00000000000E+00 0.  1.
         23    2    1    2    0    0  0.00000000000E+00  0.00000000000E+00  0.00000000000E+00  0.10000000000E+03  0.10000000000E+03 0.  0.
          5    1    3    3  501    0 -0.44267552424E+02  0.22741223572E+02  0.10632745917E+01  0.50000000000E+02  0.47000000000E+01 0. -1.
         -5    1    3    3    0  501  0.44267552424E+02 -0.22741223572E+02 -0.10632745917E+01  0.50000000000E+02  0.47000000000E+01 0.  1.
</event>
<event>
 5    1  0.9071520E-001  0.1000000E+03  0.7546771E-02  0.1163815E+00
         11   -1    0    0    0    0  0.00000000000E+00  0.00000000000E+00  0.50000000000E+02  0.50000000000E+02  0.00000000000E+00 0. -1.
        -11   -1    0    0    0    0 -0.00000000000E+00 -0.00000000000E+00 -0.50000000000E+02  0.50000000000E+02  0.00000000000E+00 0.  1.
         23    2    1    2    0    0  0.00000000000E+00  0.00000000000E+00  0.00000000000E+00  0.10000000000E+03  0.10000000000E+03 0.  0.
          5    1    3    3  501    0  0.25162395699E+02 -0.34526582385E+02  0.25547582106E+02  0.50000000000E+02  0.47000000000E+01 0. -1.
         -5    1    3    3    0  501 -0.25162395699E+02  0.34526582385E+02 -0.25547582106E+02  0.50000000000E+02  0.47000000000E+01 0.  1.
</event>
<event>
 5    1  0.9071520E-001  0.1000000E+03  0.7546771E-02  0.1163815E+00
         11   -1    0    0    0    0  0.00000000000E+00  0.00000000000E+00  0.50000000000E+02  0.50000000000E+02  0.00000000000E+00 0. -1.
        -11   -1    0    0    0    0 -0.00000000000E+00 -0.00000000000E+00 -0.50000000000E+02  0.50000000000E+02  0.00000000000E+00 0.  1.
         23    2    1    2    0    0  0.00000000000E+00  0.00000000000E+00  0.00000000000E+00  0.10000000000E+03  0.10000000000E+03 0.  0.
          5    1    3    3  501    0 -0.32310645302E+02 -0.34910624135E+02  0.14669032779E+02  0.50000000000E+02  0.47000000000E+01 0. -1.
         -5    1    3    3    0  501  0.32310645302E+02  0.34910624135E+02 -0.14669032779E+02  0.50000000000E+02  0.47000000000E+01 0.  1.
</event>
<event>
 5    1  0.9071520E-001  0.1000000E+03  0.7546771E-02  0.1163815E+00
         11   -1    0    0    0    0  0.00000000000E+00  0.00000000000E+00  0.50000000000E+02  0.50000000000E+02  0.00000000000E+00 0. -1.
        -11   -1    0    0    0    0 -0.00000000000E+00 -0.00000000000E+00 -0.50000000000E+02  0.50000000000E+02  0.00000000000E+00 0.  1.
         23    2    1    2    0    0  0.00000000000E+00  0.00000000000E+00  0.00000000000E+00  0.10000000000E+03  0.10000000000E+03 0.  0.
          5    1    3    3  501    0  0.80327885098E-01 -0.49723612582E+02  0.23379262589E+01  0.50000000000E+02  0.47000000000E+01 0. -1.
         -5    1    3    3    0  501 -0.80327885098E-01  0.49723612582E+02 -0.23379262589E+01  0.50000000000E+02  0.47000000000E+01 0.  1.
</event>
<event>
 5    1  0.9071520E-001  0.1000000E+03  0.7546771E-02  0.1163815E+00
         11   -1    0    0    0    0  0.00000000000E+00  0.00000000000E+00  0.50000000000E+02  0.50000000000E+02  0.00000000000E+00 0. -1.
        -11   -1    0    0    0    0 -0.00000000000E+00 -0.00000000000E+00 -0.50000000000E+02  0.50000000000E+02  0.00000000000E+00 0.  1.
         23    2    1    2    0    0  0.00000000000E+00  0.00000000000E+00  0.00000000000E+00  0.10000000000E+03  0.10000000000E+03 0.  0.
          5    1    3    3  501    0 -0.42042679543E+02 -0.25695382120E+02  0.70760465338E+01  0.50000000000E+02  0.47000000000E+01 0. -1.
         -5    1    3    3    0  501  0.42042679543E+02  0.25695382120E+02 -0.70760465338E+01  0.50000000000E+02  0.47000000000E+01 0.  1.
</event>
<event>
 5    1  0.9071520E-001  0.1000000E+03  0.7546771E-02  0.1163815E+00
         11   -1    0    0    0    0  0.00000000000E+00  0.00000000000E+00  0.50000000000E+02  0.50000000000E+02  0.00000000000E+00 0. -1.
        -11   -1    0    0    0    0 -0.00000000000E+00 -0.00000000000E+00 -0.50000000000E+02  0.50000000000E+02  0.00000000000E+00 0.  1.
         23    2    1    2    0    0  0.00000000000E+00  0.00000000000E+00  0.00000000000E+00  0.10000000000E+03  0.10000000000E+03 0.  0.
          5    1    3    3  501    0 -0.32058984059E+02 -0.29719193455E+02  0.23809684617E+02  0.50000000000E+02  0.47000000000E+01 0. -1.
         -5    1    3    3    0  501  0.32058984059E+02  0.29719193455E+02 -0.23809684617E+02  0.50000000000E+02  0.47000000000E+01 0.  1.
</event>
<event>
 5    1  0.9071520E-001  0.1000000E+03  0.7546771E-02  0.1163815E+00
         11   -1    0    0    0    0  0.00000000000E+00  0.00000000000E+00  0.50000000000E+02  0.50000000000E+02  0.00000000000E+00 0.  1.
        -11   -1    0    0    0    0 -0.00000000000E+00 -0.00000000000E+00 -0.50000000000E+02  0.50000000000E+02  0.00000000000E+00 0. -1.
         23    2    1    2    0    0  0.00000000000E+00  0.00000000000E+00  0.00000000000E+00  0.10000000000E+03  0.10000000000E+03 0.  0.
          5    1    3    3  501    0 -0.26689097185E+02 -0.33381070634E+02 -0.25520701691E+02  0.50000000000E+02  0.47000000000E+01 0. -1.
         -5    1    3    3    0  501  0.26689097185E+02  0.33381070634E+02  0.25520701691E+02  0.50000000000E+02  0.47000000000E+01 0.  1.
</event>
<event>
 5    1  0.9071520E-001  0.1000000E+03  0.7546771E-02  0.1163815E+00
         11   -1    0    0    0    0  0.00000000000E+00  0.00000000000E+00  0.50000000000E+02  0.50000000000E+02  0.00000000000E+00 0. -1.
        -11   -1    0    0    0    0 -0.00000000000E+00 -0.00000000000E+00 -0.50000000000E+02  0.50000000000E+02  0.00000000000E+00 0.  1.
         23    2    1    2    0    0  0.00000000000E+00  0.00000000000E+00  0.00000000000E+00  0.10000000000E+03  0.10000000000E+03 0.  0.
          5    1    3    3  501    0  0.41576048576E+02 -0.19658231499E+02 -0.19049832523E+02  0.50000000000E+02  0.47000000000E+01 0. -1.
         -5    1    3    3    0  501 -0.41576048576E+02  0.19658231499E+02  0.19049832523E+02  0.50000000000E+02  0.47000000000E+01 0.  1.
</event>
<event>
 5    1  0.9071520E-001  0.1000000E+03  0.7546771E-02  0.1163815E+00
         11   -1    0    0    0    0  0.00000000000E+00  0.00000000000E+00  0.50000000000E+02  0.50000000000E+02  0.00000000000E+00 0. -1.
        -11   -1    0    0    0    0 -0.00000000000E+00 -0.00000000000E+00 -0.50000000000E+02  0.50000000000E+02  0.00000000000E+00 0.  1.
         23    2    1    2    0    0  0.00000000000E+00  0.00000000000E+00  0.00000000000E+00  0.10000000000E+03  0.10000000000E+03 0.  0.
          5    1    3    3  501    0  0.31662968311E+02 -0.36053029186E+02  0.13249359390E+02  0.50000000000E+02  0.47000000000E+01 0. -1.
         -5    1    3    3    0  501 -0.31662968311E+02  0.36053029186E+02 -0.13249359390E+02  0.50000000000E+02  0.47000000000E+01 0.  1.
</event>
<event>
 5    1  0.9071520E-001  0.1000000E+03  0.7546771E-02  0.1163815E+00
         11   -1    0    0    0    0  0.00000000000E+00  0.00000000000E+00  0.50000000000E+02  0.50000000000E+02  0.00000000000E+00 0.  1.
        -11   -1    0    0    0    0 -0.00000000000E+00 -0.00000000000E+00 -0.50000000000E+02  0.50000000000E+02  0.00000000000E+00 0. -1.
         23    2    1    2    0    0  0.00000000000E+00  0.00000000000E+00  0.00000000000E+00  0.10000000000E+03  0.10000000000E+03 0.  0.
          5    1    3    3  501    0 -0.41576672441E+02  0.14733052593E+02 -0.23070055701E+02  0.50000000000E+02  0.47000000000E+01 0.  1.
         -5    1    3    3    0  501  0.41576672441E+02 -0.14733052593E+02  0.23070055701E+02  0.50000000000E+02  0.47000000000E+01 0. -1.
</event>
<event>
 5    1  0.9071520E-001  0.1000000E+03  0.7546771E-02  0.1163815E+00
         11   -1    0    0    0    0  0.00000000000E+00  0.00000000000E+00  0.50000000000E+02  0.50000000000E+02  0.00000000000E+00 0. -1.
        -11   -1    0    0    0    0 -0.00000000000E+00 -0.00000000000E+00 -0.50000000000E+02  0.50000000000E+02  0.00000000000E+00 0.  1.
         23    2    1    2    0    0  0.00000000000E+00  0.00000000000E+00  0.00000000000E+00  0.10000000000E+03  0.10000000000E+03 0.  0.
          5    1    3    3  501    0  0.37779771251E+01 -0.30836022477E+02  0.38894428993E+02  0.50000000000E+02  0.47000000000E+01 0. -1.
         -5    1    3    3    0  501 -0.37779771251E+01  0.30836022477E+02 -0.38894428993E+02  0.50000000000E+02  0.47000000000E+01 0.  1.
</event>
<event>
 5    1  0.9071520E-001  0.1000000E+03  0.7546771E-02  0.1163815E+00
         11   -1    0    0    0    0  0.00000000000E+00  0.00000000000E+00  0.50000000000E+02  0.50000000000E+02  0.00000000000E+00 0. -1.
        -11   -1    0    0    0    0 -0.00000000000E+00 -0.00000000000E+00 -0.50000000000E+02  0.50000000000E+02  0.00000000000E+00 0.  1.
         23    2    1    2    0    0  0.00000000000E+00  0.00000000000E+00  0.00000000000E+00  0.10000000000E+03  0.10000000000E+03 0.  0.
          5    1    3    3  501    0 -0.18620428145E+02 -0.27171784044E+02  0.37321358598E+02  0.50000000000E+02  0.47000000000E+01 0. -1.
         -5    1    3    3    0  501  0.18620428145E+02  0.27171784044E+02 -0.37321358598E+02  0.50000000000E+02  0.47000000000E+01 0.  1.
</event>
<event>
 5    1  0.9071520E-001  0.1000000E+03  0.7546771E-02  0.1163815E+00
         11   -1    0    0    0    0  0.00000000000E+00  0.00000000000E+00  0.50000000000E+02  0.50000000000E+02  0.00000000000E+00 0.  1.
        -11   -1    0    0    0    0 -0.00000000000E+00 -0.00000000000E+00 -0.50000000000E+02  0.50000000000E+02  0.00000000000E+00 0. -1.
         23    2    1    2    0    0  0.00000000000E+00  0.00000000000E+00  0.00000000000E+00  0.10000000000E+03  0.10000000000E+03 0.  0.
          5    1    3    3  501    0 -0.43651752559E+02 -0.16533179512E+02  0.17294174561E+02  0.50000000000E+02  0.47000000000E+01 0. -1.
         -5    1    3    3    0  501  0.43651752559E+02  0.16533179512E+02 -0.17294174561E+02  0.50000000000E+02  0.47000000000E+01 0.  1.
</event>
<event>
 5    1  0.9071520E-001  0.1000000E+03  0.7546771E-02  0.1163815E+00
         11   -1    0    0    0    0  0.00000000000E+00  0.00000000000E+00  0.50000000000E+02  0.50000000000E+02  0.00000000000E+00 0.  1.
        -11   -1    0    0    0    0 -0.00000000000E+00 -0.00000000000E+00 -0.50000000000E+02  0.50000000000E+02  0.00000000000E+00 0. -1.
         23    2    1    2    0    0  0.00000000000E+00  0.00000000000E+00  0.00000000000E+00  0.10000000000E+03  0.10000000000E+03 0.  0.
          5    1    3    3  501    0 -0.33679210861E+02 -0.33560746696E+01 -0.36501472828E+02  0.50000000000E+02  0.47000000000E+01 0. -1.
         -5    1    3    3    0  501  0.33679210861E+02  0.33560746696E+01  0.36501472828E+02  0.50000000000E+02  0.47000000000E+01 0.  1.
</event>
<event>
 5    1  0.9071520E-001  0.1000000E+03  0.7546771E-02  0.1163815E+00
         11   -1    0    0    0    0  0.00000000000E+00  0.00000000000E+00  0.50000000000E+02  0.50000000000E+02  0.00000000000E+00 0.  1.
        -11   -1    0    0    0    0 -0.00000000000E+00 -0.00000000000E+00 -0.50000000000E+02  0.50000000000E+02  0.00000000000E+00 0. -1.
         23    2    1    2    0    0  0.00000000000E+00  0.00000000000E+00  0.00000000000E+00  0.10000000000E+03  0.10000000000E+03 0.  0.
          5    1    3    3  501    0 -0.19237811324E+02 -0.20272713119E+02 -0.41192641555E+02  0.50000000000E+02  0.47000000000E+01 0. -1.
         -5    1    3    3    0  501  0.19237811324E+02  0.20272713119E+02  0.41192641555E+02  0.50000000000E+02  0.47000000000E+01 0.  1.
</event>
<event>
 5    1  0.9071520E-001  0.1000000E+03  0.7546771E-02  0.1163815E+00
         11   -1    0    0    0    0  0.00000000000E+00  0.00000000000E+00  0.50000000000E+02  0.50000000000E+02  0.00000000000E+00 0.  1.
        -11   -1    0    0    0    0 -0.00000000000E+00 -0.00000000000E+00 -0.50000000000E+02  0.50000000000E+02  0.00000000000E+00 0. -1.
         23    2    1    2    0    0  0.00000000000E+00  0.00000000000E+00  0.00000000000E+00  0.10000000000E+03  0.10000000000E+03 0.  0.
          5    1    3    3  501    0 -0.19825534167E+02 -0.32973179252E+02  0.31585244102E+02  0.50000000000E+02  0.47000000000E+01 0.  1.
         -5    1    3    3    0  501  0.19825534167E+02  0.32973179252E+02 -0.31585244102E+02  0.50000000000E+02  0.47000000000E+01 0. -1.
</event>
<event>
 5    1  0.9071520E-001  0.1000000E+03  0.7546771E-02  0.1163815E+00
         11   -1    0    0    0    0  0.00000000000E+00  0.00000000000E+00  0.50000000000E+02  0.50000000000E+02  0.00000000000E+00 0.  1.
        -11   -1    0    0    0    0 -0.00000000000E+00 -0.00000000000E+00 -0.50000000000E+02  0.50000000000E+02  0.00000000000E+00 0. -1.
         23    2    1    2    0    0  0.00000000000E+00  0.00000000000E+00  0.00000000000E+00  0.10000000000E+03  0.10000000000E+03 0.  0.
          5    1    3    3  501    0  0.24017104149E+02  0.29182751202E+02 -0.32395304298E+02  0.50000000000E+02  0.47000000000E+01 0. -1.
         -5    1    3    3    0  501 -0.24017104149E+02 -0.29182751202E+02  0.32395304298E+02  0.50000000000E+02  0.47000000000E+01 0.  1.
</event>
<event>
 5    1  0.9071520E-001  0.1000000E+03  0.7546771E-02  0.1163815E+00
         11   -1    0    0    0    0  0.00000000000E+00  0.00000000000E+00  0.50000000000E+02  0.50000000000E+02  0.00000000000E+00 0. -1.
        -11   -1    0    0    0    0 -0.00000000000E+00 -0.00000000000E+00 -0.50000000000E+02  0.50000000000E+02  0.00000000000E+00 0.  1.
         23    2    1    2    0    0  0.00000000000E+00  0.00000000000E+00  0.00000000000E+00  0.10000000000E+03  0.10000000000E+03 0.  0.
          5    1    3    3  501    0  0.11752423411E+02  0.14828970691E+01  0.48348645899E+02  0.50000000000E+02  0.47000000000E+01 0. -1.
         -5    1    3    3    0  501 -0.11752423411E+02 -0.14828970691E+01 -0.48348645899E+02  0.50000000000E+02  0.47000000000E+01 0.  1.
</event>
<event>
 5    1  0.9071520E-001  0.1000000E+03  0.7546771E-02  0.1163815E+00
         11   -1    0    0    0    0  0.00000000000E+00  0.00000000000E+00  0.50000000000E+02  0.50000000000E+02  0.00000000000E+00 0.  1.
        -11   -1    0    0    0    0 -0.00000000000E+00 -0.00000000000E+00 -0.50000000000E+02  0.50000000000E+02  0.00000000000E+00 0. -1.
         23    2    1    2    0    0  0.00000000000E+00  0.00000000000E+00  0.00000000000E+00  0.10000000000E+03  0.10000000000E+03 0.  0.
          5    1    3    3  501    0 -0.29781212319E+02 -0.16498746586E+02 -0.36315021051E+02  0.50000000000E+02  0.47000000000E+01 0. -1.
         -5    1    3    3    0  501  0.29781212319E+02  0.16498746586E+02  0.36315021051E+02  0.50000000000E+02  0.47000000000E+01 0.  1.
</event>
<event>
 5    1  0.9071520E-001  0.1000000E+03  0.7546771E-02  0.1163815E+00
         11   -1    0    0    0    0  0.00000000000E+00  0.00000000000E+00  0.50000000000E+02  0.50000000000E+02  0.00000000000E+00 0.  1.
        -11   -1    0    0    0    0 -0.00000000000E+00 -0.00000000000E+00 -0.50000000000E+02  0.50000000000E+02  0.00000000000E+00 0. -1.
         23    2    1    2    0    0  0.00000000000E+00  0.00000000000E+00  0.00000000000E+00  0.10000000000E+03  0.10000000000E+03 0.  0.
          5    1    3    3  501    0 -0.44095762495E+02  0.12470088510E+02  0.19441466573E+02  0.50000000000E+02  0.47000000000E+01 0.  1.
         -5    1    3    3    0  501  0.44095762495E+02 -0.12470088510E+02 -0.19441466573E+02  0.50000000000E+02  0.47000000000E+01 0. -1.
</event>
<event>
 5    1  0.9071520E-001  0.1000000E+03  0.7546771E-02  0.1163815E+00
         11   -1    0    0    0    0  0.00000000000E+00  0.00000000000E+00  0.50000000000E+02  0.50000000000E+02  0.00000000000E+00 0.  1.
        -11   -1    0    0    0    0 -0.00000000000E+00 -0.00000000000E+00 -0.50000000000E+02  0.50000000000E+02  0.00000000000E+00 0. -1.
         23    2    1    2    0    0  0.00000000000E+00  0.00000000000E+00  0.00000000000E+00  0.10000000000E+03  0.10000000000E+03 0.  0.
          5    1    3    3  501    0  0.16378692402E+02 -0.43806732575E+02 -0.17047539890E+02  0.50000000000E+02  0.47000000000E+01 0. -1.
         -5    1    3    3    0  501 -0.16378692402E+02  0.43806732575E+02  0.17047539890E+02  0.50000000000E+02  0.47000000000E+01 0.  1.
</event>
<event>
 5    1  0.9071520E-001  0.1000000E+03  0.7546771E-02  0.1163815E+00
         11   -1    0    0    0    0  0.00000000000E+00  0.00000000000E+00  0.50000000000E+02  0.50000000000E+02  0.00000000000E+00 0. -1.
        -11   -1    0    0    0    0 -0.00000000000E+00 -0.00000000000E+00 -0.50000000000E+02  0.50000000000E+02  0.00000000000E+00 0.  1.
         23    2    1    2    0    0  0.00000000000E+00  0.00000000000E+00  0.00000000000E+00  0.10000000000E+03  0.10000000000E+03 0.  0.
          5    1    3    3  501    0 -0.15901098505E+02  0.67807496237E+01  0.46680686594E+02  0.50000000000E+02  0.47000000000E+01 0. -1.
         -5    1    3    3    0  501  0.15901098505E+02 -0.67807496237E+01 -0.46680686594E+02  0.50000000000E+02  0.47000000000E+01 0.  1.
</event>
<event>
 5    1  0.9071520E-001  0.1000000E+03  0.7546771E-02  0.1163815E+00
         11   -1    0    0    0    0  0.00000000000E+00  0.00000000000E+00  0.50000000000E+02  0.50000000000E+02  0.00000000000E+00 0.  1.
        -11   -1    0    0    0    0 -0.00000000000E+00 -0.00000000000E+00 -0.50000000000E+02  0.50000000000E+02  0.00000000000E+00 0. -1.
         23    2    1    2    0    0  0.00000000000E+00  0.00000000000E+00  0.00000000000E+00  0.10000000000E+03  0.10000000000E+03 0.  0.
          5    1    3    3  501    0  0.69290780123E+01  0.45718122220E+02 -0.18432340562E+02  0.50000000000E+02  0.47000000000E+01 0. -1.
         -5    1    3    3    0  501 -0.69290780123E+01 -0.45718122220E+02  0.18432340562E+02  0.50000000000E+02  0.47000000000E+01 0.  1.
</event>
<event>
 5    1  0.9071520E-001  0.1000000E+03  0.7546771E-02  0.1163815E+00
         11   -1    0    0    0    0  0.00000000000E+00  0.00000000000E+00  0.50000000000E+02  0.50000000000E+02  0.00000000000E+00 0. -1.
        -11   -1    0    0    0    0 -0.00000000000E+00 -0.00000000000E+00 -0.50000000000E+02  0.50000000000E+02  0.00000000000E+00 0.  1.
         23    2    1    2    0    0  0.00000000000E+00  0.00000000000E+00  0.00000000000E+00  0.10000000000E+03  0.10000000000E+03 0.  0.
          5    1    3    3  501    0  0.41820606515E+01 -0.92037113748E+01  0.48741276816E+02  0.50000000000E+02  0.47000000000E+01 0. -1.
         -5    1    3    3    0  501 -0.41820606515E+01  0.92037113748E+01 -0.48741276816E+02  0.50000000000E+02  0.47000000000E+01 0.  1.
</event>
<event>
 5    1  0.9071520E-001  0.1000000E+03  0.7546771E-02  0.1163815E+00
         11   -1    0    0    0    0  0.00000000000E+00  0.00000000000E+00  0.50000000000E+02  0.50000000000E+02  0.00000000000E+00 0. -1.
        -11   -1    0    0    0    0 -0.00000000000E+00 -0.00000000000E+00 -0.50000000000E+02  0.50000000000E+02  0.00000000000E+00 0.  1.
         23    2    1    2    0    0  0.00000000000E+00  0.00000000000E+00  0.00000000000E+00  0.10000000000E+03  0.10000000000E+03 0.  0.
          5    1    3    3  501    0  0.83471444414E+01  0.83470062818E+01  0.48358687594E+02  0.50000000000E+02  0.47000000000E+01 0. -1.
         -5    1    3    3    0  501 -0.83471444414E+01 -0.83470062818E+01 -0.48358687594E+02  0.50000000000E+02  0.47000000000E+01 0.  1.
</event>
<event>
 5    1  0.9071520E-001  0.1000000E+03  0.7546771E-02  0.1163815E+00
         11   -1    0    0    0    0  0.00000000000E+00  0.00000000000E+00  0.50000000000E+02  0.50000000000E+02  0.00000000000E+00 0.  1.
        -11   -1    0    0    0    0 -0.00000000000E+00 -0.00000000000E+00 -0.50000000000E+02  0.50000000000E+02  0.00000000000E+00 0. -1.
         23    2    1    2    0    0  0.00000000000E+00  0.00000000000E+00  0.00000000000E+00  0.10000000000E+03  0.10000000000E+03 0.  0.
          5    1    3    3  501    0  0.16427644385E+02  0.32822953539E+02 -0.33625826695E+02  0.50000000000E+02  0.47000000000E+01 0. -1.
         -5    1    3    3    0  501 -0.16427644385E+02 -0.32822953539E+02  0.33625826695E+02  0.50000000000E+02  0.47000000000E+01 0.  1.
</event>
<event>
 5    1  0.9071520E-001  0.1000000E+03  0.7546771E-02  0.1163815E+00
         11   -1    0    0    0    0  0.00000000000E+00  0.00000000000E+00  0.50000000000E+02  0.50000000000E+02  0.00000000000E+00 0. -1.
        -11   -1    0    0    0    0 -0.00000000000E+00 -0.00000000000E+00 -0.50000000000E+02  0.50000000000E+02  0.00000000000E+00 0.  1.
         23    2    1    2    0    0  0.00000000000E+00  0.00000000000E+00  0.00000000000E+00  0.10000000000E+03  0.10000000000E+03 0.  0.
          5    1    3    3  501    0  0.70599723178E+01 -0.42262320321E+02  0.25336990192E+02  0.50000000000E+02  0.47000000000E+01 0. -1.
         -5    1    3    3    0  501 -0.70599723178E+01  0.42262320321E+02 -0.25336990192E+02  0.50000000000E+02  0.47000000000E+01 0.  1.
</event>
<event>
 5    1  0.9071520E-001  0.1000000E+03  0.7546771E-02  0.1163815E+00
         11   -1    0    0    0    0  0.00000000000E+00  0.00000000000E+00  0.50000000000E+02  0.50000000000E+02  0.00000000000E+00 0.  1.
        -11   -1    0    0    0    0 -0.00000000000E+00 -0.00000000000E+00 -0.50000000000E+02  0.50000000000E+02  0.00000000000E+00 0. -1.
         23    2    1    2    0    0  0.00000000000E+00  0.00000000000E+00  0.00000000000E+00  0.10000000000E+03  0.10000000000E+03 0.  0.
          5    1    3    3  501    0  0.41888642993E+02 -0.14622377450E+02 -0.22570725862E+02  0.50000000000E+02  0.47000000000E+01 0. -1.
         -5    1    3    3    0  501 -0.41888642993E+02  0.14622377450E+02  0.22570725862E+02  0.50000000000E+02  0.47000000000E+01 0.  1.
</event>
<event>
 5    1  0.9071520E-001  0.1000000E+03  0.7546771E-02  0.1163815E+00
         11   -1    0    0    0    0  0.00000000000E+00  0.00000000000E+00  0.50000000000E+02  0.50000000000E+02  0.00000000000E+00 0.  1.
        -11   -1    0    0    0    0 -0.00000000000E+00 -0.00000000000E+00 -0.50000000000E+02  0.50000000000E+02  0.00000000000E+00 0. -1.
         23    2    1    2    0    0  0.00000000000E+00  0.00000000000E+00  0.00000000000E+00  0.10000000000E+03  0.10000000000E+03 0.  0.
          5    1    3    3  501    0 -0.55303990212E+01  0.20970636996E+02 -0.44805770506E+02  0.50000000000E+02  0.47000000000E+01 0. -1.
         -5    1    3    3    0  501  0.55303990212E+01 -0.20970636996E+02  0.44805770506E+02  0.50000000000E+02  0.47000000000E+01 0.  1.
</event>
<event>
 5    1  0.9071520E-001  0.1000000E+03  0.7546771E-02  0.1163815E+00
         11   -1    0    0    0    0  0.00000000000E+00  0.00000000000E+00  0.50000000000E+02  0.50000000000E+02  0.00000000000E+00 0. -1.
        -11   -1    0    0    0    0 -0.00000000000E+00 -0.00000000000E+00 -0.50000000000E+02  0.50000000000E+02  0.00000000000E+00 0.  1.
         23    2    1    2    0    0  0.00000000000E+00  0.00000000000E+00  0.00000000000E+00  0.10000000000E+03  0.10000000000E+03 0.  0.
          5    1    3    3  501    0  0.21131801867E+02 -0.26928225531E+02  0.36141771119E+02  0.50000000000E+02  0.47000000000E+01 0. -1.
         -5    1    3    3    0  501 -0.21131801867E+02  0.26928225531E+02 -0.36141771119E+02  0.50000000000E+02  0.47000000000E+01 0.  1.
</event>
<event>
 5    1  0.9071520E-001  0.1000000E+03  0.7546771E-02  0.1163815E+00
         11   -1    0    0    0    0  0.00000000000E+00  0.00000000000E+00  0.50000000000E+02  0.50000000000E+02  0.00000000000E+00 0. -1.
        -11   -1    0    0    0    0 -0.00000000000E+00 -0.00000000000E+00 -0.50000000000E+02  0.50000000000E+02  0.00000000000E+00 0.  1.
         23    2    1    2    0    0  0.00000000000E+00  0.00000000000E+00  0.00000000000E+00  0.10000000000E+03  0.10000000000E+03 0.  0.
          5    1    3    3  501    0  0.12642195912E+02  0.61472762223E+01  0.47752443682E+02  0.50000000000E+02  0.47000000000E+01 0. -1.
         -5    1    3    3    0  501 -0.12642195912E+02 -0.61472762223E+01 -0.47752443682E+02  0.50000000000E+02  0.47000000000E+01 0.  1.
</event>
<event>
 5    1  0.9071520E-001  0.1000000E+03  0.7546771E-02  0.1163815E+00
         11   -1    0    0    0    0  0.00000000000E+00  0.00000000000E+00  0.50000000000E+02  0.50000000000E+02  0.00000000000E+00 0. -1.
        -11   -1    0    0    0    0 -0.00000000000E+00 -0.00000000000E+00 -0.50000000000E+02  0.50000000000E+02  0.00000000000E+00 0.  1.
         23    2    1    2    0    0  0.00000000000E+00  0.00000000000E+00  0.00000000000E+00  0.10000000000E+03  0.10000000000E+03 0.  0.
          5    1    3    3  501    0  0.87045951955E+01  0.28282808181E+02  0.40027775155E+02  0.50000000000E+02  0.47000000000E+01 0. -1.
         -5    1    3    3    0  501 -0.87045951955E+01 -0.28282808181E+02 -0.40027775155E+02  0.50000000000E+02  0.47000000000E+01 0.  1.
</event>
<event>
 5    1  0.9071520E-001  0.1000000E+03  0.7546771E-02  0.1163815E+00
         11   -1    0    0    0    0  0.00000000000E+00  0.00000000000E+00  0.50000000000E+02  0.50000000000E+02  0.00000000000E+00 0. -1.
        -11   -1    0    0    0    0 -0.00000000000E+00 -0.00000000000E+00 -0.50000000000E+02  0.50000000000E+02  0.00000000000E+00 0.  1.
         23    2    1    2    0    0  0.00000000000E+00  0.00000000000E+00  0.00000000000E+00  0.10000000000E+03  0.10000000000E+03 0.  0.
          5    1    3    3  501    0  0.19315487091E+02  0.44649387687E+02  0.10547707694E+02  0.50000000000E+02  0.47000000000E+01 0. -1.
         -5    1    3    3    0  501 -0.19315487091E+02 -0.44649387687E+02 -0.10547707694E+02  0.50000000000E+02  0.47000000000E+01 0.  1.
</event>
<event>
 5    1  0.9071520E-001  0.1000000E+03  0.7546771E-02  0.1163815E+00
         11   -1    0    0    0    0  0.00000000000E+00  0.00000000000E+00  0.50000000000E+02  0.50000000000E+02  0.00000000000E+00 0. -1.
        -11   -1    0    0    0    0 -0.00000000000E+00 -0.00000000000E+00 -0.50000000000E+02  0.50000000000E+02  0.00000000000E+00 0.  1.
         23    2    1    2    0    0  0.00000000000E+00  0.00000000000E+00  0.00000000000E+00  0.10000000000E+03  0.10000000000E+03 0.  0.
          5    1    3    3  501    0  0.28864670445E+02 -0.56837172324E+01  0.40155151083E+02  0.50000000000E+02  0.47000000000E+01 0. -1.
         -5    1    3    3    0  501 -0.28864670445E+02  0.56837172324E+01 -0.40155151083E+02  0.50000000000E+02  0.47000000000E+01 0.  1.
</event>
<event>
 5    1  0.9071520E-001  0.1000000E+03  0.7546771E-02  0.1163815E+00
         11   -1    0    0    0    0  0.00000000000E+00  0.00000000000E+00  0.50000000000E+02  0.50000000000E+02  0.00000000000E+00 0. -1.
        -11   -1    0    0    0    0 -0.00000000000E+00 -0.00000000000E+00 -0.50000000000E+02  0.50000000000E+02  0.00000000000E+00 0.  1.
         23    2    1    2    0    0  0.00000000000E+00  0.00000000000E+00  0.00000000000E+00  0.10000000000E+03  0.10000000000E+03 0.  0.
          5    1    3    3  501    0  0.27510136375E+02  0.41201606134E+02  0.48507781450E+01  0.50000000000E+02  0.47000000000E+01 0. -1.
         -5    1    3    3    0  501 -0.27510136375E+02 -0.41201606134E+02 -0.48507781450E+01  0.50000000000E+02  0.47000000000E+01 0.  1.
</event>
<event>
 5    1  0.9071520E-001  0.1000000E+03  0.7546771E-02  0.1163815E+00
         11   -1    0    0    0    0  0.00000000000E+00  0.00000000000E+00  0.50000000000E+02  0.50000000000E+02  0.00000000000E+00 0. -1.
        -11   -1    0    0    0    0 -0.00000000000E+00 -0.00000000000E+00 -0.50000000000E+02  0.50000000000E+02  0.00000000000E+00 0.  1.
         23    2    1    2    0    0  0.00000000000E+00  0.00000000000E+00  0.00000000000E+00  0.10000000000E+03  0.10000000000E+03 0.  0.
          5    1    3    3  501    0  0.20712348629E+01  0.41938121234E+02  0.26736005190E+02  0.50000000000E+02  0.47000000000E+01 0. -1.
         -5    1    3    3    0  501 -0.20712348629E+01 -0.41938121234E+02 -0.26736005190E+02  0.50000000000E+02  0.47000000000E+01 0.  1.
</event>
<event>
 5    1  0.9071520E-001  0.1000000E+03  0.7546771E-02  0.1163815E+00
         11   -1    0    0    0    0  0.00000000000E+00  0.00000000000E+00  0.50000000000E+02  0.50000000000E+02  0.00000000000E+00 0. -1.
        -11   -1    0    0    0    0 -0.00000000000E+00 -0.00000000000E+00 -0.50000000000E+02  0.50000000000E+02  0.00000000000E+00 0.  1.
         23    2    1    2    0    0  0.00000000000E+00  0.00000000000E+00  0.00000000000E+00  0.10000000000E+03  0.10000000000E+03 0.  0.
          5    1    3    3  501    0  0.51590405128E+01  0.16987419012E+01  0.49481396271E+02  0.50000000000E+02  0.47000000000E+01 0. -1.
         -5    1    3    3    0  501 -0.51590405128E+01 -0.16987419012E+01 -0.49481396271E+02  0.50000000000E+02  0.47000000000E+01 0.  1.
</event>
<event>
 5    1  0.9071520E-001  0.1000000E+03  0.7546771E-02  0.1163815E+00
         11   -1    0    0    0    0  0.00000000000E+00  0.00000000000E+00  0.50000000000E+02  0.50000000000E+02  0.00000000000E+00 0. -1.
        -11   -1    0    0    0    0 -0.00000000000E+00 -0.00000000000E+00 -0.50000000000E+02  0.50000000000E+02  0.00000000000E+00 0.  1.
         23    2    1    2    0    0  0.00000000000E+00  0.00000000000E+00  0.00000000000E+00  0.10000000000E+03  0.10000000000E+03 0.  0.
          5    1    3    3  501    0  0.95872996382E+00 -0.35408949250E+02  0.34974235515E+02  0.50000000000E+02  0.47000000000E+01 0. -1.
         -5    1    3    3    0  501 -0.95872996382E+00  0.35408949250E+02 -0.34974235515E+02  0.50000000000E+02  0.47000000000E+01 0.  1.
</event>
<event>
 5    1  0.9071520E-001  0.1000000E+03  0.7546771E-02  0.1163815E+00
         11   -1    0    0    0    0  0.00000000000E+00  0.00000000000E+00  0.50000000000E+02  0.50000000000E+02  0.00000000000E+00 0. -1.
        -11   -1    0    0    0    0 -0.00000000000E+00 -0.00000000000E+00 -0.50000000000E+02  0.50000000000E+02  0.00000000000E+00 0.  1.
         23    2    1    2    0    0  0.00000000000E+00  0.00000000000E+00  0.00000000000E+00  0.10000000000E+03  0.10000000000E+03 0.  0.
          5    1    3    3  501    0 -0.93578700943E+01  0.63108166530E+01  0.48482098351E+02  0.50000000000E+02  0.47000000000E+01 0. -1.
         -5    1    3    3    0  501  0.93578700943E+01 -0.63108166530E+01 -0.48482098351E+02  0.50000000000E+02  0.47000000000E+01 0.  1.
</event>
<event>
 5    1  0.9071520E-001  0.1000000E+03  0.7546771E-02  0.1163815E+00
         11   -1    0    0    0    0  0.00000000000E+00  0.00000000000E+00  0.50000000000E+02  0.50000000000E+02  0.00000000000E+00 0. -1.
        -11   -1    0    0    0    0 -0.00000000000E+00 -0.00000000000E+00 -0.50000000000E+02  0.50000000000E+02  0.00000000000E+00 0.  1.
         23    2    1    2    0    0  0.00000000000E+00  0.00000000000E+00  0.00000000000E+00  0.10000000000E+03  0.10000000000E+03 0.  0.
          5    1    3    3  501    0 -0.13496187604E+02  0.82625187039E+01  0.47196331476E+02  0.50000000000E+02  0.47000000000E+01 0. -1.
         -5    1    3    3    0  501  0.13496187604E+02 -0.82625187039E+01 -0.47196331476E+02  0.50000000000E+02  0.47000000000E+01 0.  1.
</event>
<event>
 5    1  0.9071520E-001  0.1000000E+03  0.7546771E-02  0.1163815E+00
         11   -1    0    0    0    0  0.00000000000E+00  0.00000000000E+00  0.50000000000E+02  0.50000000000E+02  0.00000000000E+00 0.  1.
        -11   -1    0    0    0    0 -0.00000000000E+00 -0.00000000000E+00 -0.50000000000E+02  0.50000000000E+02  0.00000000000E+00 0. -1.
         23    2    1    2    0    0  0.00000000000E+00  0.00000000000E+00  0.00000000000E+00  0.10000000000E+03  0.10000000000E+03 0.  0.
          5    1    3    3  501    0 -0.47004973414E+02  0.21858987890E+01 -0.16237743712E+02  0.50000000000E+02  0.47000000000E+01 0. -1.
         -5    1    3    3    0  501  0.47004973414E+02 -0.21858987890E+01  0.16237743712E+02  0.50000000000E+02  0.47000000000E+01 0.  1.
</event>
<event>
 5    1  0.9071520E-001  0.1000000E+03  0.7546771E-02  0.1163815E+00
         11   -1    0    0    0    0  0.00000000000E+00  0.00000000000E+00  0.50000000000E+02  0.50000000000E+02  0.00000000000E+00 0. -1.
        -11   -1    0    0    0    0 -0.00000000000E+00 -0.00000000000E+00 -0.50000000000E+02  0.50000000000E+02  0.00000000000E+00 0.  1.
         23    2    1    2    0    0  0.00000000000E+00  0.00000000000E+00  0.00000000000E+00  0.10000000000E+03  0.10000000000E+03 0.  0.
          5    1    3    3  501    0 -0.47003762296E+02  0.14912810234E+02  0.67944404425E+01  0.50000000000E+02  0.47000000000E+01 0. -1.
         -5    1    3    3    0  501  0.47003762296E+02 -0.14912810234E+02 -0.67944404425E+01  0.50000000000E+02  0.47000000000E+01 0.  1.
</event>
<event>
 5    1  0.9071520E-001  0.1000000E+03  0.7546771E-02  0.1163815E+00
         11   -1    0    0    0    0  0.00000000000E+00  0.00000000000E+00  0.50000000000E+02  0.50000000000E+02  0.00000000000E+00 0. -1.
        -11   -1    0    0    0    0 -0.00000000000E+00 -0.00000000000E+00 -0.50000000000E+02  0.50000000000E+02  0.00000000000E+00 0.  1.
         23    2    1    2    0    0  0.00000000000E+00  0.00000000000E+00  0.00000000000E+00  0.10000000000E+03  0.10000000000E+03 0.  0.
          5    1    3    3  501    0 -0.15960461583E+02  0.20427431393E+02  0.42495808179E+02  0.50000000000E+02  0.47000000000E+01 0. -1.
         -5    1    3    3    0  501  0.15960461583E+02 -0.20427431393E+02 -0.42495808179E+02  0.50000000000E+02  0.47000000000E+01 0.  1.
</event>
<event>
 5    1  0.9071520E-001  0.1000000E+03  0.7546771E-02  0.1163815E+00
         11   -1    0    0    0    0  0.00000000000E+00  0.00000000000E+00  0.50000000000E+02  0.50000000000E+02  0.00000000000E+00 0. -1.
        -11   -1    0    0    0    0 -0.00000000000E+00 -0.00000000000E+00 -0.50000000000E+02  0.50000000000E+02  0.00000000000E+00 0.  1.
         23    2    1    2    0    0  0.00000000000E+00  0.00000000000E+00  0.00000000000E+00  0.10000000000E+03  0.10000000000E+03 0.  0.
          5    1    3    3  501    0 -0.26560667644E+02  0.39704379048E+01  0.41912725480E+02  0.50000000000E+02  0.47000000000E+01 0. -1.
         -5    1    3    3    0  501  0.26560667644E+02 -0.39704379048E+01 -0.41912725480E+02  0.50000000000E+02  0.47000000000E+01 0.  1.
</event>
<event>
 5    1  0.9071520E-001  0.1000000E+03  0.7546771E-02  0.1163815E+00
         11   -1    0    0    0    0  0.00000000000E+00  0.00000000000E+00  0.50000000000E+02  0.50000000000E+02  0.00000000000E+00 0. -1.
        -11   -1    0    0    0    0 -0.00000000000E+00 -0.00000000000E+00 -0.50000000000E+02  0.50000000000E+02  0.00000000000E+00 0.  1.
         23    2    1    2    0    0  0.00000000000E+00  0.00000000000E+00  0.00000000000E+00  0.10000000000E+03  0.10000000000E+03 0.  0.
          5    1    3    3  501    0 -0.84913970904E+01  0.11175156968E+02  0.47758999594E+02  0.50000000000E+02  0.47000000000E+01 0. -1.
         -5    1    3    3    0  501  0.84913970904E+01 -0.11175156968E+02 -0.47758999594E+02  0.50000000000E+02  0.47000000000E+01 0.  1.
</event>
<event>
 5    1  0.9071520E-001  0.1000000E+03  0.7546771E-02  0.1163815E+00
         11   -1    0    0    0    0  0.00000000000E+00  0.00000000000E+00  0.50000000000E+02  0.50000000000E+02  0.00000000000E+00 0.  1.
        -11   -1    0    0    0    0 -0.00000000000E+00 -0.00000000000E+00 -0.50000000000E+02  0.50000000000E+02  0.00000000000E+00 0. -1.
         23    2    1    2    0    0  0.00000000000E+00  0.00000000000E+00  0.00000000000E+00  0.10000000000E+03  0.10000000000E+03 0.  0.
          5    1    3    3  501    0 -0.27293412389E+02  0.39962077270E+02 -0.11662419150E+02  0.50000000000E+02  0.47000000000E+01 0. -1.
         -5    1    3    3    0  501  0.27293412389E+02 -0.39962077270E+02  0.11662419150E+02  0.50000000000E+02  0.47000000000E+01 0.  1.
</event>
<event>
 5    1  0.9071520E-001  0.1000000E+03  0.7546771E-02  0.1163815E+00
         11   -1    0    0    0    0  0.00000000000E+00  0.00000000000E+00  0.50000000000E+02  0.50000000000E+02  0.00000000000E+00 0. -1.
        -11   -1    0    0    0    0 -0.00000000000E+00 -0.00000000000E+00 -0.50000000000E+02  0.50000000000E+02  0.00000000000E+00 0.  1.
         23    2    1    2    0    0  0.00000000000E+00  0.00000000000E+00  0.00000000000E+00  0.10000000000E+03  0.10000000000E+03 0.  0.
          5    1    3    3  501    0 -0.20214156745E+02  0.25731637129E+02  0.37512407517E+02  0.50000000000E+02  0.47000000000E+01 0. -1.
         -5    1    3    3    0  501  0.20214156745E+02 -0.25731637129E+02 -0.37512407517E+02  0.50000000000E+02  0.47000000000E+01 0.  1.
</event>
<event>
 5    1  0.9071520E-001  0.1000000E+03  0.7546771E-02  0.1163815E+00
         11   -1    0    0    0    0  0.00000000000E+00  0.00000000000E+00  0.50000000000E+02  0.50000000000E+02  0.00000000000E+00 0. -1.
        -11   -1    0    0    0    0 -0.00000000000E+00 -0.00000000000E+00 -0.50000000000E+02  0.50000000000E+02  0.00000000000E+00 0.  1.
         23    2    1    2    0    0  0.00000000000E+00  0.00000000000E+00  0.00000000000E+00  0.10000000000E+03  0.10000000000E+03 0.  0.
          5    1    3    3  501    0  0.16962458342E+02 -0.46062097979E+02  0.82745475282E+01  0.50000000000E+02  0.47000000000E+01 0. -1.
         -5    1    3    3    0  501 -0.16962458342E+02  0.46062097979E+02 -0.82745475282E+01  0.50000000000E+02  0.47000000000E+01 0.  1.
</event>
<event>
 5    1  0.9071520E-001  0.1000000E+03  0.7546771E-02  0.1163815E+00
         11   -1    0    0    0    0  0.00000000000E+00  0.00000000000E+00  0.50000000000E+02  0.50000000000E+02  0.00000000000E+00 0.  1.
        -11   -1    0    0    0    0 -0.00000000000E+00 -0.00000000000E+00 -0.50000000000E+02  0.50000000000E+02  0.00000000000E+00 0. -1.
         23    2    1    2    0    0  0.00000000000E+00  0.00000000000E+00  0.00000000000E+00  0.10000000000E+03  0.10000000000E+03 0.  0.
          5    1    3    3  501    0  0.40638808079E+02 -0.98843971817E+01 -0.26994369233E+02  0.50000000000E+02  0.47000000000E+01 0. -1.
         -5    1    3    3    0  501 -0.40638808079E+02  0.98843971817E+01  0.26994369233E+02  0.50000000000E+02  0.47000000000E+01 0.  1.
</event>
<event>
 5    1  0.9071520E-001  0.1000000E+03  0.7546771E-02  0.1163815E+00
         11   -1    0    0    0    0  0.00000000000E+00  0.00000000000E+00  0.50000000000E+02  0.50000000000E+02  0.00000000000E+00 0. -1.
        -11   -1    0    0    0    0 -0.00000000000E+00 -0.00000000000E+00 -0.50000000000E+02  0.50000000000E+02  0.00000000000E+00 0.  1.
         23    2    1    2    0    0  0.00000000000E+00  0.00000000000E+00  0.00000000000E+00  0.10000000000E+03  0.10000000000E+03 0.  0.
          5    1    3    3  501    0  0.13550985014E+02  0.42654921193E+02  0.21790789410E+02  0.50000000000E+02  0.47000000000E+01 0. -1.
         -5    1    3    3    0  501 -0.13550985014E+02 -0.42654921193E+02 -0.21790789410E+02  0.50000000000E+02  0.47000000000E+01 0.  1.
</event>
<event>
 5    1  0.9071520E-001  0.1000000E+03  0.7546771E-02  0.1163815E+00
         11   -1    0    0    0    0  0.00000000000E+00  0.00000000000E+00  0.50000000000E+02  0.50000000000E+02  0.00000000000E+00 0. -1.
        -11   -1    0    0    0    0 -0.00000000000E+00 -0.00000000000E+00 -0.50000000000E+02  0.50000000000E+02  0.00000000000E+00 0.  1.
         23    2    1    2    0    0  0.00000000000E+00  0.00000000000E+00  0.00000000000E+00  0.10000000000E+03  0.10000000000E+03 0.  0.
          5    1    3    3  501    0  0.24190589086E+00  0.44026509540E+02  0.23227525466E+02  0.50000000000E+02  0.47000000000E+01 0. -1.
         -5    1    3    3    0  501 -0.24190589086E+00 -0.44026509540E+02 -0.23227525466E+02  0.50000000000E+02  0.47000000000E+01 0.  1.
</event>
<event>
 5    1  0.9071520E-001  0.1000000E+03  0.7546771E-02  0.1163815E+00
         11   -1    0    0    0    0  0.00000000000E+00  0.00000000000E+00  0.50000000000E+02  0.50000000000E+02  0.00000000000E+00 0. -1.
        -11   -1    0    0    0    0 -0.00000000000E+00 -0.00000000000E+00 -0.50000000000E+02  0.50000000000E+02  0.00000000000E+00 0.  1.
         23    2    1    2    0    0  0.00000000000E+00  0.00000000000E+00  0.00000000000E+00  0.10000000000E+03  0.10000000000E+03 0.  0.
          5    1    3    3  501    0 -0.24718291553E+02  0.27236261641E+02  0.33542541861E+02  0.50000000000E+02  0.47000000000E+01 0. -1.
         -5    1    3    3    0  501  0.24718291553E+02 -0.27236261641E+02 -0.33542541861E+02  0.50000000000E+02  0.47000000000E+01 0.  1.
</event>
<event>
 5    1  0.9071520E-001  0.1000000E+03  0.7546771E-02  0.1163815E+00
         11   -1    0    0    0    0  0.00000000000E+00  0.00000000000E+00  0.50000000000E+02  0.50000000000E+02  0.00000000000E+00 0. -1.
        -11   -1    0    0    0    0 -0.00000000000E+00 -0.00000000000E+00 -0.50000000000E+02  0.50000000000E+02  0.00000000000E+00 0.  1.
         23    2    1    2    0    0  0.00000000000E+00  0.00000000000E+00  0.00000000000E+00  0.10000000000E+03  0.10000000000E+03 0.  0.
          5    1    3    3  501    0  0.35165217033E+02 -0.28209742102E+02  0.21107533289E+02  0.50000000000E+02  0.47000000000E+01 0. -1.
         -5    1    3    3    0  501 -0.35165217033E+02  0.28209742102E+02 -0.21107533289E+02  0.50000000000E+02  0.47000000000E+01 0.  1.
</event>
<event>
 5    1  0.9071520E-001  0.1000000E+03  0.7546771E-02  0.1163815E+00
         11   -1    0    0    0    0  0.00000000000E+00  0.00000000000E+00  0.50000000000E+02  0.50000000000E+02  0.00000000000E+00 0. -1.
        -11   -1    0    0    0    0 -0.00000000000E+00 -0.00000000000E+00 -0.50000000000E+02  0.50000000000E+02  0.00000000000E+00 0.  1.
         23    2    1    2    0    0  0.00000000000E+00  0.00000000000E+00  0.00000000000E+00  0.10000000000E+03  0.10000000000E+03 0.  0.
          5    1    3    3  501    0  0.24820298748E+02  0.42434609793E+02 -0.78209118247E+01  0.50000000000E+02  0.47000000000E+01 0. -1.
         -5    1    3    3    0  501 -0.24820298748E+02 -0.42434609793E+02  0.78209118247E+01  0.50000000000E+02  0.47000000000E+01 0.  1.
</event>
<event>
 5    1  0.9071520E-001  0.1000000E+03  0.7546771E-02  0.1163815E+00
         11   -1    0    0    0    0  0.00000000000E+00  0.00000000000E+00  0.50000000000E+02  0.50000000000E+02  0.00000000000E+00 0. -1.
        -11   -1    0    0    0    0 -0.00000000000E+00 -0.00000000000E+00 -0.50000000000E+02  0.50000000000E+02  0.00000000000E+00 0.  1.
         23    2    1    2    0    0  0.00000000000E+00  0.00000000000E+00  0.00000000000E+00  0.10000000000E+03  0.10000000000E+03 0.  0.
          5    1    3    3  501    0 -0.47250193777E+02 -0.36623747539E+01  0.15228795066E+02  0.50000000000E+02  0.47000000000E+01 0. -1.
         -5    1    3    3    0  501  0.47250193777E+02  0.36623747539E+01 -0.15228795066E+02  0.50000000000E+02  0.47000000000E+01 0.  1.
</event>
<event>
 5    1  0.9071520E-001  0.1000000E+03  0.7546771E-02  0.1163815E+00
         11   -1    0    0    0    0  0.00000000000E+00  0.00000000000E+00  0.50000000000E+02  0.50000000000E+02  0.00000000000E+00 0.  1.
        -11   -1    0    0    0    0 -0.00000000000E+00 -0.00000000000E+00 -0.50000000000E+02  0.50000000000E+02  0.00000000000E+00 0. -1.
         23    2    1    2    0    0  0.00000000000E+00  0.00000000000E+00  0.00000000000E+00  0.10000000000E+03  0.10000000000E+03 0.  0.
          5    1    3    3  501    0  0.14470159475E+02  0.25485463056E+01 -0.47560796845E+02  0.50000000000E+02  0.47000000000E+01 0. -1.
         -5    1    3    3    0  501 -0.14470159475E+02 -0.25485463056E+01  0.47560796845E+02  0.50000000000E+02  0.47000000000E+01 0.  1.
</event>
<event>
 5    1  0.9071520E-001  0.1000000E+03  0.7546771E-02  0.1163815E+00
         11   -1    0    0    0    0  0.00000000000E+00  0.00000000000E+00  0.50000000000E+02  0.50000000000E+02  0.00000000000E+00 0. -1.
        -11   -1    0    0    0    0 -0.00000000000E+00 -0.00000000000E+00 -0.50000000000E+02  0.50000000000E+02  0.00000000000E+00 0.  1.
         23    2    1    2    0    0  0.00000000000E+00  0.00000000000E+00  0.00000000000E+00  0.10000000000E+03  0.10000000000E+03 0.  0.
          5    1    3    3  501    0 -0.11250087583E+02  0.32123583404E+02  0.36323834030E+02  0.50000000000E+02  0.47000000000E+01 0. -1.
         -5    1    3    3    0  501  0.11250087583E+02 -0.32123583404E+02 -0.36323834030E+02  0.50000000000E+02  0.47000000000E+01 0.  1.
</event>
<event>
 5    1  0.9071520E-001  0.1000000E+03  0.7546771E-02  0.1163815E+00
         11   -1    0    0    0    0  0.00000000000E+00  0.00000000000E+00  0.50000000000E+02  0.50000000000E+02  0.00000000000E+00 0. -1.
        -11   -1    0    0    0    0 -0.00000000000E+00 -0.00000000000E+00 -0.50000000000E+02  0.50000000000E+02  0.00000000000E+00 0.  1.
         23    2    1    2    0    0  0.00000000000E+00  0.00000000000E+00  0.00000000000E+00  0.10000000000E+03  0.10000000000E+03 0.  0.
          5    1    3    3  501    0 -0.70479198966E+01 -0.81047192095E+01  0.48606073197E+02  0.50000000000E+02  0.47000000000E+01 0. -1.
         -5    1    3    3    0  501  0.70479198966E+01  0.81047192095E+01 -0.48606073197E+02  0.50000000000E+02  0.47000000000E+01 0.  1.
</event>
<event>
 5    1  0.9071520E-001  0.1000000E+03  0.7546771E-02  0.1163815E+00
         11   -1    0    0    0    0  0.00000000000E+00  0.00000000000E+00  0.50000000000E+02  0.50000000000E+02  0.00000000000E+00 0.  1.
        -11   -1    0    0    0    0 -0.00000000000E+00 -0.00000000000E+00 -0.50000000000E+02  0.50000000000E+02  0.00000000000E+00 0. -1.
         23    2    1    2    0    0  0.00000000000E+00  0.00000000000E+00  0.00000000000E+00  0.10000000000E+03  0.10000000000E+03 0.  0.
          5    1    3    3  501    0  0.35263767574E+02 -0.22453464681E+02  0.27022557620E+02  0.50000000000E+02  0.47000000000E+01 0. -1.
         -5    1    3    3    0  501 -0.35263767574E+02  0.22453464681E+02 -0.27022557620E+02  0.50000000000E+02  0.47000000000E+01 0.  1.
</event>
<event>
 5    1  0.9071520E-001  0.1000000E+03  0.7546771E-02  0.1163815E+00
         11   -1    0    0    0    0  0.00000000000E+00  0.00000000000E+00  0.50000000000E+02  0.50000000000E+02  0.00000000000E+00 0. -1.
        -11   -1    0    0    0    0 -0.00000000000E+00 -0.00000000000E+00 -0.50000000000E+02  0.50000000000E+02  0.00000000000E+00 0.  1.
         23    2    1    2    0    0  0.00000000000E+00  0.00000000000E+00  0.00000000000E+00  0.10000000000E+03  0.10000000000E+03 0.  0.
          5    1    3    3  501    0  0.14312531770E+02 -0.34498474175E+02  0.32907699919E+02  0.50000000000E+02  0.47000000000E+01 0. -1.
         -5    1    3    3    0  501 -0.14312531770E+02  0.34498474175E+02 -0.32907699919E+02  0.50000000000E+02  0.47000000000E+01 0.  1.
</event>
<event>
 5    1  0.9071520E-001  0.1000000E+03  0.7546771E-02  0.1163815E+00
         11   -1    0    0    0    0  0.00000000000E+00  0.00000000000E+00  0.50000000000E+02  0.50000000000E+02  0.00000000000E+00 0. -1.
        -11   -1    0    0    0    0 -0.00000000000E+00 -0.00000000000E+00 -0.50000000000E+02  0.50000000000E+02  0.00000000000E+00 0.  1.
         23    2    1    2    0    0  0.00000000000E+00  0.00000000000E+00  0.00000000000E+00  0.10000000000E+03  0.10000000000E+03 0.  0.
          5    1    3    3  501    0 -0.21976981209E+02  0.91771098143E+01  0.43711588308E+02  0.50000000000E+02  0.47000000000E+01 0. -1.
         -5    1    3    3    0  501  0.21976981209E+02 -0.91771098143E+01 -0.43711588308E+02  0.50000000000E+02  0.47000000000E+01 0.  1.
</event>
<event>
 5    1  0.9071520E-001  0.1000000E+03  0.7546771E-02  0.1163815E+00
         11   -1    0    0    0    0  0.00000000000E+00  0.00000000000E+00  0.50000000000E+02  0.50000000000E+02  0.00000000000E+00 0. -1.
        -11   -1    0    0    0    0 -0.00000000000E+00 -0.00000000000E+00 -0.50000000000E+02  0.50000000000E+02  0.00000000000E+00 0.  1.
         23    2    1    2    0    0  0.00000000000E+00  0.00000000000E+00  0.00000000000E+00  0.10000000000E+03  0.10000000000E+03 0.  0.
          5    1    3    3  501    0 -0.17849439510E+02 -0.14271462994E+02  0.44222537842E+02  0.50000000000E+02  0.47000000000E+01 0. -1.
         -5    1    3    3    0  501  0.17849439510E+02  0.14271462994E+02 -0.44222537842E+02  0.50000000000E+02  0.47000000000E+01 0.  1.
</event>
<event>
 5    1  0.9071520E-001  0.1000000E+03  0.7546771E-02  0.1163815E+00
         11   -1    0    0    0    0  0.00000000000E+00  0.00000000000E+00  0.50000000000E+02  0.50000000000E+02  0.00000000000E+00 0.  1.
        -11   -1    0    0    0    0 -0.00000000000E+00 -0.00000000000E+00 -0.50000000000E+02  0.50000000000E+02  0.00000000000E+00 0. -1.
         23    2    1    2    0    0  0.00000000000E+00  0.00000000000E+00  0.00000000000E+00  0.10000000000E+03  0.10000000000E+03 0.  0.
          5    1    3    3  501    0 -0.45048283897E+02 -0.29149634326E+01 -0.20977728812E+02  0.50000000000E+02  0.47000000000E+01 0. -1.
         -5    1    3    3    0  501  0.45048283897E+02  0.29149634326E+01  0.20977728812E+02  0.50000000000E+02  0.47000000000E+01 0.  1.
</event>
<event>
 5    1  0.9071520E-001  0.1000000E+03  0.7546771E-02  0.1163815E+00
         11   -1    0    0    0    0  0.00000000000E+00  0.00000000000E+00  0.50000000000E+02  0.50000000000E+02  0.00000000000E+00 0. -1.
        -11   -1    0    0    0    0 -0.00000000000E+00 -0.00000000000E+00 -0.50000000000E+02  0.50000000000E+02  0.00000000000E+00 0.  1.
         23    2    1    2    0    0  0.00000000000E+00  0.00000000000E+00  0.00000000000E+00  0.10000000000E+03  0.10000000000E+03 0.  0.
          5    1    3    3  501    0  0.41066715865E+02 -0.19329773105E+02  0.20440027392E+02  0.50000000000E+02  0.47000000000E+01 0. -1.
         -5    1    3    3    0  501 -0.41066715865E+02  0.19329773105E+02 -0.20440027392E+02  0.50000000000E+02  0.47000000000E+01 0.  1.
</event>
<event>
 5    1  0.9071520E-001  0.1000000E+03  0.7546771E-02  0.1163815E+00
         11   -1    0    0    0    0  0.00000000000E+00  0.00000000000E+00  0.50000000000E+02  0.50000000000E+02  0.00000000000E+00 0.  1.
        -11   -1    0    0    0    0 -0.00000000000E+00 -0.00000000000E+00 -0.50000000000E+02  0.50000000000E+02  0.00000000000E+00 0. -1.
         23    2    1    2    0    0  0.00000000000E+00  0.00000000000E+00  0.00000000000E+00  0.10000000000E+03  0.10000000000E+03 0.  0.
          5    1    3    3  501    0 -0.20337833761E+02 -0.23734604023E+00 -0.45433756006E+02  0.50000000000E+02  0.47000000000E+01 0. -1.
         -5    1    3    3    0  501  0.20337833761E+02  0.23734604023E+00  0.45433756006E+02  0.50000000000E+02  0.47000000000E+01 0.  1.
</event>
<event>
 5    1  0.9071520E-001  0.1000000E+03  0.7546771E-02  0.1163815E+00
         11   -1    0    0    0    0  0.00000000000E+00  0.00000000000E+00  0.50000000000E+02  0.50000000000E+02  0.00000000000E+00 0. -1.
        -11   -1    0    0    0    0 -0.00000000000E+00 -0.00000000000E+00 -0.50000000000E+02  0.50000000000E+02  0.00000000000E+00 0.  1.
         23    2    1    2    0    0  0.00000000000E+00  0.00000000000E+00  0.00000000000E+00  0.10000000000E+03  0.10000000000E+03 0.  0.
          5    1    3    3  501    0 -0.47083049340E+02 -0.12355524862E+02  0.10413331371E+02  0.50000000000E+02  0.47000000000E+01 0. -1.
         -5    1    3    3    0  501  0.47083049340E+02  0.12355524862E+02 -0.10413331371E+02  0.50000000000E+02  0.47000000000E+01 0.  1.
</event>
<event>
 5    1  0.9071520E-001  0.1000000E+03  0.7546771E-02  0.1163815E+00
         11   -1    0    0    0    0  0.00000000000E+00  0.00000000000E+00  0.50000000000E+02  0.50000000000E+02  0.00000000000E+00 0.  1.
        -11   -1    0    0    0    0 -0.00000000000E+00 -0.00000000000E+00 -0.50000000000E+02  0.50000000000E+02  0.00000000000E+00 0. -1.
         23    2    1    2    0    0  0.00000000000E+00  0.00000000000E+00  0.00000000000E+00  0.10000000000E+03  0.10000000000E+03 0.  0.
          5    1    3    3  501    0 -0.33702663485E+01 -0.44147150549E+01 -0.49467783412E+02  0.50000000000E+02  0.47000000000E+01 0. -1.
         -5    1    3    3    0  501  0.33702663485E+01  0.44147150549E+01  0.49467783412E+02  0.50000000000E+02  0.47000000000E+01 0.  1.
</event>
<event>
 5    1  0.9071520E-001  0.1000000E+03  0.7546771E-02  0.1163815E+00
         11   -1    0    0    0    0  0.00000000000E+00  0.00000000000E+00  0.50000000000E+02  0.50000000000E+02  0.00000000000E+00 0. -1.
        -11   -1    0    0    0    0 -0.00000000000E+00 -0.00000000000E+00 -0.50000000000E+02  0.50000000000E+02  0.00000000000E+00 0.  1.
         23    2    1    2    0    0  0.00000000000E+00  0.00000000000E+00  0.00000000000E+00  0.10000000000E+03  0.10000000000E+03 0.  0.
          5    1    3    3  501    0 -0.13590491932E+02  0.63108715656E+01  0.47469794914E+02  0.50000000000E+02  0.47000000000E+01 0. -1.
         -5    1    3    3    0  501  0.13590491932E+02 -0.63108715656E+01 -0.47469794914E+02  0.50000000000E+02  0.47000000000E+01 0.  1.
</event>
<event>
 5    1  0.9071520E-001  0.1000000E+03  0.7546771E-02  0.1163815E+00
         11   -1    0    0    0    0  0.00000000000E+00  0.00000000000E+00  0.50000000000E+02  0.50000000000E+02  0.00000000000E+00 0. -1.
        -11   -1    0    0    0    0 -0.00000000000E+00 -0.00000000000E+00 -0.50000000000E+02  0.50000000000E+02  0.00000000000E+00 0.  1.
         23    2    1    2    0    0  0.00000000000E+00  0.00000000000E+00  0.00000000000E+00  0.10000000000E+03  0.10000000000E+03 0.  0.
          5    1    3    3  501    0 -0.24864888662E+02  0.55742083721E+00  0.43120025439E+02  0.50000000000E+02  0.47000000000E+01 0. -1.
         -5    1    3    3    0  501  0.24864888662E+02 -0.55742083721E+00 -0.43120025439E+02  0.50000000000E+02  0.47000000000E+01 0.  1.
</event>
<event>
 5    1  0.9071520E-001  0.1000000E+03  0.7546771E-02  0.1163815E+00
         11   -1    0    0    0    0  0.00000000000E+00  0.00000000000E+00  0.50000000000E+02  0.50000000000E+02  0.00000000000E+00 0. -1.
        -11   -1    0    0    0    0 -0.00000000000E+00 -0.00000000000E+00 -0.50000000000E+02  0.50000000000E+02  0.00000000000E+00 0.  1.
         23    2    1    2    0    0  0.00000000000E+00  0.00000000000E+00  0.00000000000E+00  0.10000000000E+03  0.10000000000E+03 0.  0.
          5    1    3    3  501    0 -0.27435594325E+01 -0.40177666900E+02  0.29259835340E+02  0.50000000000E+02  0.47000000000E+01 0. -1.
         -5    1    3    3    0  501  0.27435594325E+01  0.40177666900E+02 -0.29259835340E+02  0.50000000000E+02  0.47000000000E+01 0.  1.
</event>
<event>
 5    1  0.9071520E-001  0.1000000E+03  0.7546771E-02  0.1163815E+00
         11   -1    0    0    0    0  0.00000000000E+00  0.00000000000E+00  0.50000000000E+02  0.50000000000E+02  0.00000000000E+00 0. -1.
        -11   -1    0    0    0    0 -0.00000000000E+00 -0.00000000000E+00 -0.50000000000E+02  0.50000000000E+02  0.00000000000E+00 0.  1.
         23    2    1    2    0    0  0.00000000000E+00  0.00000000000E+00  0.00000000000E+00  0.10000000000E+03  0.10000000000E+03 0.  0.
          5    1    3    3  501    0 -0.18821939291E+02  0.41704194043E+02  0.19606243918E+02  0.50000000000E+02  0.47000000000E+01 0. -1.
         -5    1    3    3    0  501  0.18821939291E+02 -0.41704194043E+02 -0.19606243918E+02  0.50000000000E+02  0.47000000000E+01 0.  1.
</event>
<event>
 5    1  0.9071520E-001  0.1000000E+03  0.7546771E-02  0.1163815E+00
         11   -1    0    0    0    0  0.00000000000E+00  0.00000000000E+00  0.50000000000E+02  0.50000000000E+02  0.00000000000E+00 0. -1.
        -11   -1    0    0    0    0 -0.00000000000E+00 -0.00000000000E+00 -0.50000000000E+02  0.50000000000E+02  0.00000000000E+00 0.  1.
         23    2    1    2    0    0  0.00000000000E+00  0.00000000000E+00  0.00000000000E+00  0.10000000000E+03  0.10000000000E+03 0.  0.
          5    1    3    3  501    0 -0.24231523580E+02  0.30720305485E+02  0.30773464152E+02  0.50000000000E+02  0.47000000000E+01 0. -1.
         -5    1    3    3    0  501  0.24231523580E+02 -0.30720305485E+02 -0.30773464152E+02  0.50000000000E+02  0.47000000000E+01 0.  1.
</event>
<event>
 5    1  0.9071520E-001  0.1000000E+03  0.7546771E-02  0.1163815E+00
         11   -1    0    0    0    0  0.00000000000E+00  0.00000000000E+00  0.50000000000E+02  0.50000000000E+02  0.00000000000E+00 0.  1.
        -11   -1    0    0    0    0 -0.00000000000E+00 -0.00000000000E+00 -0.50000000000E+02  0.50000000000E+02  0.00000000000E+00 0. -1.
         23    2    1    2    0    0  0.00000000000E+00  0.00000000000E+00  0.00000000000E+00  0.10000000000E+03  0.10000000000E+03 0.  0.
          5    1    3    3  501    0  0.48531864614E+02 -0.45243042952E+01  0.10104394476E+02  0.50000000000E+02  0.47000000000E+01 0. -1.
         -5    1    3    3    0  501 -0.48531864614E+02  0.45243042952E+01 -0.10104394476E+02  0.50000000000E+02  0.47000000000E+01 0.  1.
</event>
<event>
 5    1  0.9071520E-001  0.1000000E+03  0.7546771E-02  0.1163815E+00
         11   -1    0    0    0    0  0.00000000000E+00  0.00000000000E+00  0.50000000000E+02  0.50000000000E+02  0.00000000000E+00 0.  1.
        -11   -1    0    0    0    0 -0.00000000000E+00 -0.00000000000E+00 -0.50000000000E+02  0.50000000000E+02  0.00000000000E+00 0. -1.
         23    2    1    2    0    0  0.00000000000E+00  0.00000000000E+00  0.00000000000E+00  0.10000000000E+03  0.10000000000E+03 0.  0.
          5    1    3    3  501    0  0.25895137546E+02 -0.34837865603E+02 -0.24365446265E+02  0.50000000000E+02  0.47000000000E+01 0. -1.
         -5    1    3    3    0  501 -0.25895137546E+02  0.34837865603E+02  0.24365446265E+02  0.50000000000E+02  0.47000000000E+01 0.  1.
</event>
<event>
 5    1  0.9071520E-001  0.1000000E+03  0.7546771E-02  0.1163815E+00
         11   -1    0    0    0    0  0.00000000000E+00  0.00000000000E+00  0.50000000000E+02  0.50000000000E+02  0.00000000000E+00 0.  1.
        -11   -1    0    0    0    0 -0.00000000000E+00 -0.00000000000E+00 -0.50000000000E+02  0.50000000000E+02  0.00000000000E+00 0. -1.
         23    2    1    2    0    0  0.00000000000E+00  0.00000000000E+00  0.00000000000E+00  0.10000000000E+03  0.10000000000E+03 0.  0.
          5    1    3    3  501    0 -0.40724493790E+02 -0.16444982120E+02 -0.23430496551E+02  0.50000000000E+02  0.47000000000E+01 0. -1.
         -5    1    3    3    0  501  0.40724493790E+02  0.16444982120E+02  0.23430496551E+02  0.50000000000E+02  0.47000000000E+01 0.  1.
</event>
<event>
 5    1  0.9071520E-001  0.1000000E+03  0.7546771E-02  0.1163815E+00
         11   -1    0    0    0    0  0.00000000000E+00  0.00000000000E+00  0.50000000000E+02  0.50000000000E+02  0.00000000000E+00 0. -1.
        -11   -1    0    0    0    0 -0.00000000000E+00 -0.00000000000E+00 -0.50000000000E+02  0.50000000000E+02  0.00000000000E+00 0.  1.
         23    2    1    2    0    0  0.00000000000E+00  0.00000000000E+00  0.00000000000E+00  0.10000000000E+03  0.10000000000E+03 0.  0.
          5    1    3    3  501    0  0.38884262147E+02  0.26520276475E+02  0.16204909532E+02  0.50000000000E+02  0.47000000000E+01 0. -1.
         -5    1    3    3    0  501 -0.38884262147E+02 -0.26520276475E+02 -0.16204909532E+02  0.50000000000E+02  0.47000000000E+01 0.  1.
</event>
<event>
 5    1  0.9071520E-001  0.1000000E+03  0.7546771E-02  0.1163815E+00
         11   -1    0    0    0    0  0.00000000000E+00  0.00000000000E+00  0.50000000000E+02  0.50000000000E+02  0.00000000000E+00 0. -1.
        -11   -1    0    0    0    0 -0.00000000000E+00 -0.00000000000E+00 -0.50000000000E+02  0.50000000000E+02  0.00000000000E+00 0.  1.
         23    2    1    2    0    0  0.00000000000E+00  0.00000000000E+00  0.00000000000E+00  0.10000000000E+03  0.10000000000E+03 0.  0.
          5    1    3    3  501    0  0.17310481746E+02 -0.11702368847E+02  0.45180878534E+02  0.50000000000E+02  0.47000000000E+01 0. -1.
         -5    1    3    3    0  501 -0.17310481746E+02  0.11702368847E+02 -0.45180878534E+02  0.50000000000E+02  0.47000000000E+01 0.  1.
</event>
<event>
 5    1  0.9071520E-001  0.1000000E+03  0.7546771E-02  0.1163815E+00
         11   -1    0    0    0    0  0.00000000000E+00  0.00000000000E+00  0.50000000000E+02  0.50000000000E+02  0.00000000000E+00 0.  1.
        -11   -1    0    0    0    0 -0.00000000000E+00 -0.00000000000E+00 -0.50000000000E+02  0.50000000000E+02  0.00000000000E+00 0. -1.
         23    2    1    2    0    0  0.00000000000E+00  0.00000000000E+00  0.00000000000E+00  0.10000000000E+03  0.10000000000E+03 0.  0.
          5    1    3    3  501    0  0.25583039125E+02 -0.50660167152E+01 -0.42399924337E+02  0.50000000000E+02  0.47000000000E+01 0. -1.
         -5    1    3    3    0  501 -0.25583039125E+02  0.50660167152E+01  0.42399924337E+02  0.50000000000E+02  0.47000000000E+01 0.  1.
</event>
<event>
 5    1  0.9071520E-001  0.1000000E+03  0.7546771E-02  0.1163815E+00
         11   -1    0    0    0    0  0.00000000000E+00  0.00000000000E+00  0.50000000000E+02  0.50000000000E+02  0.00000000000E+00 0. -1.
        -11   -1    0    0    0    0 -0.00000000000E+00 -0.00000000000E+00 -0.50000000000E+02  0.50000000000E+02  0.00000000000E+00 0.  1.
         23    2    1    2    0    0  0.00000000000E+00  0.00000000000E+00  0.00000000000E+00  0.10000000000E+03  0.10000000000E+03 0.  0.
          5    1    3    3  501    0  0.96916526825E+01  0.68312666276E+01  0.48345792625E+02  0.50000000000E+02  0.47000000000E+01 0. -1.
         -5    1    3    3    0  501 -0.96916526825E+01 -0.68312666276E+01 -0.48345792625E+02  0.50000000000E+02  0.47000000000E+01 0.  1.
</event>
<event>
 5    1  0.9071520E-001  0.1000000E+03  0.7546771E-02  0.1163815E+00
         11   -1    0    0    0    0  0.00000000000E+00  0.00000000000E+00  0.50000000000E+02  0.50000000000E+02  0.00000000000E+00 0.  1.
        -11   -1    0    0    0    0 -0.00000000000E+00 -0.00000000000E+00 -0.50000000000E+02  0.50000000000E+02  0.00000000000E+00 0. -1.
         23    2    1    2    0    0  0.00000000000E+00  0.00000000000E+00  0.00000000000E+00  0.10000000000E+03  0.10000000000E+03 0.  0.
          5    1    3    3  501    0  0.30054701548E+02  0.35633200555E+02 -0.17461384053E+02  0.50000000000E+02  0.47000000000E+01 0. -1.
         -5    1    3    3    0  501 -0.30054701548E+02 -0.35633200555E+02  0.17461384053E+02  0.50000000000E+02  0.47000000000E+01 0.  1.
</event>
<event>
 5    1  0.9071520E-001  0.1000000E+03  0.7546771E-02  0.1163815E+00
         11   -1    0    0    0    0  0.00000000000E+00  0.00000000000E+00  0.50000000000E+02  0.50000000000E+02  0.00000000000E+00 0. -1.
        -11   -1    0    0    0    0 -0.00000000000E+00 -0.00000000000E+00 -0.50000000000E+02  0.50000000000E+02  0.00000000000E+00 0.  1.
         23    2    1    2    0    0  0.00000000000E+00  0.00000000000E+00  0.00000000000E+00  0.10000000000E+03  0.10000000000E+03 0.  0.
          5    1    3    3  501    0 -0.78435453116E+01  0.11627966369E+02  0.47761691711E+02  0.50000000000E+02  0.47000000000E+01 0. -1.
         -5    1    3    3    0  501  0.78435453116E+01 -0.11627966369E+02 -0.47761691711E+02  0.50000000000E+02  0.47000000000E+01 0.  1.
</event>
<event>
 5    1  0.9071520E-001  0.1000000E+03  0.7546771E-02  0.1163815E+00
         11   -1    0    0    0    0  0.00000000000E+00  0.00000000000E+00  0.50000000000E+02  0.50000000000E+02  0.00000000000E+00 0. -1.
        -11   -1    0    0    0    0 -0.00000000000E+00 -0.00000000000E+00 -0.50000000000E+02  0.50000000000E+02  0.00000000000E+00 0.  1.
         23    2    1    2    0    0  0.00000000000E+00  0.00000000000E+00  0.00000000000E+00  0.10000000000E+03  0.10000000000E+03 0.  0.
          5    1    3    3  501    0  0.49594532011E+02 -0.41276580797E+01  0.11201934617E+01  0.50000000000E+02  0.47000000000E+01 0. -1.
         -5    1    3    3    0  501 -0.49594532011E+02  0.41276580797E+01 -0.11201934617E+01  0.50000000000E+02  0.47000000000E+01 0.  1.
</event>
<event>
 5    1  0.9071520E-001  0.1000000E+03  0.7546771E-02  0.1163815E+00
         11   -1    0    0    0    0  0.00000000000E+00  0.00000000000E+00  0.50000000000E+02  0.50000000000E+02  0.00000000000E+00 0. -1.
        -11   -1    0    0    0    0 -0.00000000000E+00 -0.00000000000E+00 -0.50000000000E+02  0.50000000000E+02  0.00000000000E+00 0.  1.
         23    2    1    2    0    0  0.00000000000E+00  0.00000000000E+00  0.00000000000E+00  0.10000000000E+03  0.10000000000E+03 0.  0.
          5    1    3    3  501    0  0.16685816778E+01  0.75105333348E+01  0.49180460797E+02  0.50000000000E+02  0.47000000000E+01 0. -1.
         -5    1    3    3    0  501 -0.16685816778E+01 -0.75105333348E+01 -0.49180460797E+02  0.50000000000E+02  0.47000000000E+01 0.  1.
</event>
<event>
 5    1  0.9071520E-001  0.1000000E+03  0.7546771E-02  0.1163815E+00
         11   -1    0    0    0    0  0.00000000000E+00  0.00000000000E+00  0.50000000000E+02  0.50000000000E+02  0.00000000000E+00 0. -1.
        -11   -1    0    0    0    0 -0.00000000000E+00 -0.00000000000E+00 -0.50000000000E+02  0.50000000000E+02  0.00000000000E+00 0.  1.
         23    2    1    2    0    0  0.00000000000E+00  0.00000000000E+00  0.00000000000E+00  0.10000000000E+03  0.10000000000E+03 0.  0.
          5    1    3    3  501    0  0.38828206469E+02  0.15738330498E+00  0.31148926353E+02  0.50000000000E+02  0.47000000000E+01 0. -1.
         -5    1    3    3    0  501 -0.38828206469E+02 -0.15738330498E+00 -0.31148926353E+02  0.50000000000E+02  0.47000000000E+01 0.  1.
</event>
<event>
 5    1  0.9071520E-001  0.1000000E+03  0.7546771E-02  0.1163815E+00
         11   -1    0    0    0    0  0.00000000000E+00  0.00000000000E+00  0.50000000000E+02  0.50000000000E+02  0.00000000000E+00 0. -1.
        -11   -1    0    0    0    0 -0.00000000000E+00 -0.00000000000E+00 -0.50000000000E+02  0.50000000000E+02  0.00000000000E+00 0.  1.
         23    2    1    2    0    0  0.00000000000E+00  0.00000000000E+00  0.00000000000E+00  0.10000000000E+03  0.10000000000E+03 0.  0.
          5    1    3    3  501    0  0.10788164628E+02 -0.47015777936E+02  0.12289919815E+02  0.50000000000E+02  0.47000000000E+01 0. -1.
         -5    1    3    3    0  501 -0.10788164628E+02  0.47015777936E+02 -0.12289919815E+02  0.50000000000E+02  0.47000000000E+01 0.  1.
</event>
<event>
 5    1  0.9071520E-001  0.1000000E+03  0.7546771E-02  0.1163815E+00
         11   -1    0    0    0    0  0.00000000000E+00  0.00000000000E+00  0.50000000000E+02  0.50000000000E+02  0.00000000000E+00 0. -1.
        -11   -1    0    0    0    0 -0.00000000000E+00 -0.00000000000E+00 -0.50000000000E+02  0.50000000000E+02  0.00000000000E+00 0.  1.
         23    2    1    2    0    0  0.00000000000E+00  0.00000000000E+00  0.00000000000E+00  0.10000000000E+03  0.10000000000E+03 0.  0.
          5    1    3    3  501    0  0.34216648743E+02 -0.23368341761E+02  0.27587162815E+02  0.50000000000E+02  0.47000000000E+01 0. -1.
         -5    1    3    3    0  501 -0.34216648743E+02  0.23368341761E+02 -0.27587162815E+02  0.50000000000E+02  0.47000000000E+01 0.  1.
</event>
<event>
 5    1  0.9071520E-001  0.1000000E+03  0.7546771E-02  0.1163815E+00
         11   -1    0    0    0    0  0.00000000000E+00  0.00000000000E+00  0.50000000000E+02  0.50000000000E+02  0.00000000000E+00 0. -1.
        -11   -1    0    0    0    0 -0.00000000000E+00 -0.00000000000E+00 -0.50000000000E+02  0.50000000000E+02  0.00000000000E+00 0.  1.
         23    2    1    2    0    0  0.00000000000E+00  0.00000000000E+00  0.00000000000E+00  0.10000000000E+03  0.10000000000E+03 0.  0.
          5    1    3    3  501    0  0.22398023060E+02  0.42290214646E+02  0.13703149572E+02  0.50000000000E+02  0.47000000000E+01 0. -1.
         -5    1    3    3    0  501 -0.22398023060E+02 -0.42290214646E+02 -0.13703149572E+02  0.50000000000E+02  0.47000000000E+01 0.  1.
</event>
<event>
 5    1  0.9071520E-001  0.1000000E+03  0.7546771E-02  0.1163815E+00
         11   -1    0    0    0    0  0.00000000000E+00  0.00000000000E+00  0.50000000000E+02  0.50000000000E+02  0.00000000000E+00 0. -1.
        -11   -1    0    0    0    0 -0.00000000000E+00 -0.00000000000E+00 -0.50000000000E+02  0.50000000000E+02  0.00000000000E+00 0.  1.
         23    2    1    2    0    0  0.00000000000E+00  0.00000000000E+00  0.00000000000E+00  0.10000000000E+03  0.10000000000E+03 0.  0.
          5    1    3    3  501    0 -0.19896549409E+02 -0.29594989882E+01  0.45533270115E+02  0.50000000000E+02  0.47000000000E+01 0. -1.
         -5    1    3    3    0  501  0.19896549409E+02  0.29594989882E+01 -0.45533270115E+02  0.50000000000E+02  0.47000000000E+01 0.  1.
</event>
<event>
 5    1  0.9071520E-001  0.1000000E+03  0.7546771E-02  0.1163815E+00
         11   -1    0    0    0    0  0.00000000000E+00  0.00000000000E+00  0.50000000000E+02  0.50000000000E+02  0.00000000000E+00 0. -1.
        -11   -1    0    0    0    0 -0.00000000000E+00 -0.00000000000E+00 -0.50000000000E+02  0.50000000000E+02  0.00000000000E+00 0.  1.
         23    2    1    2    0    0  0.00000000000E+00  0.00000000000E+00  0.00000000000E+00  0.10000000000E+03  0.10000000000E+03 0.  0.
          5    1    3    3  501    0  0.21004717800E+02  0.26642461388E+02  0.36426516185E+02  0.50000000000E+02  0.47000000000E+01 0. -1.
         -5    1    3    3    0  501 -0.21004717800E+02 -0.26642461388E+02 -0.36426516185E+02  0.50000000000E+02  0.47000000000E+01 0.  1.
</event>
<event>
 5    1  0.9071520E-001  0.1000000E+03  0.7546771E-02  0.1163815E+00
         11   -1    0    0    0    0  0.00000000000E+00  0.00000000000E+00  0.50000000000E+02  0.50000000000E+02  0.00000000000E+00 0.  1.
        -11   -1    0    0    0    0 -0.00000000000E+00 -0.00000000000E+00 -0.50000000000E+02  0.50000000000E+02  0.00000000000E+00 0. -1.
         23    2    1    2    0    0  0.00000000000E+00  0.00000000000E+00  0.00000000000E+00  0.10000000000E+03  0.10000000000E+03 0.  0.
          5    1    3    3  501    0  0.38496383236E+00 -0.20006782748E+02 -0.45579495905E+02  0.50000000000E+02  0.47000000000E+01 0. -1.
         -5    1    3    3    0  501 -0.38496383236E+00  0.20006782748E+02  0.45579495905E+02  0.50000000000E+02  0.47000000000E+01 0.  1.
</event>
<event>
 5    1  0.9071520E-001  0.1000000E+03  0.7546771E-02  0.1163815E+00
         11   -1    0    0    0    0  0.00000000000E+00  0.00000000000E+00  0.50000000000E+02  0.50000000000E+02  0.00000000000E+00 0. -1.
        -11   -1    0    0    0    0 -0.00000000000E+00 -0.00000000000E+00 -0.50000000000E+02  0.50000000000E+02  0.00000000000E+00 0.  1.
         23    2    1    2    0    0  0.00000000000E+00  0.00000000000E+00  0.00000000000E+00  0.10000000000E+03  0.10000000000E+03 0.  0.
          5    1    3    3  501    0  0.30762317278E+02 -0.32895248505E+02  0.21201237264E+02  0.50000000000E+02  0.47000000000E+01 0. -1.
         -5    1    3    3    0  501 -0.30762317278E+02  0.32895248505E+02 -0.21201237264E+02  0.50000000000E+02  0.47000000000E+01 0.  1.
</event>
<event>
 5    1  0.9071520E-001  0.1000000E+03  0.7546771E-02  0.1163815E+00
         11   -1    0    0    0    0  0.00000000000E+00  0.00000000000E+00  0.50000000000E+02  0.50000000000E+02  0.00000000000E+00 0. -1.
        -11   -1    0    0    0    0 -0.00000000000E+00 -0.00000000000E+00 -0.50000000000E+02  0.50000000000E+02  0.00000000000E+00 0.  1.
         23    2    1    2    0    0  0.00000000000E+00  0.00000000000E+00  0.00000000000E+00  0.10000000000E+03  0.10000000000E+03 0.  0.
          5    1    3    3  501    0 -0.32701803687E+02 -0.37490535231E+02 -0.17209891539E+01  0.50000000000E+02  0.47000000000E+01 0. -1.
         -5    1    3    3    0  501  0.32701803687E+02  0.37490535231E+02  0.17209891539E+01  0.50000000000E+02  0.47000000000E+01 0.  1.
</event>
<event>
 5    1  0.9071520E-001  0.1000000E+03  0.7546771E-02  0.1163815E+00
         11   -1    0    0    0    0  0.00000000000E+00  0.00000000000E+00  0.50000000000E+02  0.50000000000E+02  0.00000000000E+00 0. -1.
        -11   -1    0    0    0    0 -0.00000000000E+00 -0.00000000000E+00 -0.50000000000E+02  0.50000000000E+02  0.00000000000E+00 0.  1.
         23    2    1    2    0    0  0.00000000000E+00  0.00000000000E+00  0.00000000000E+00  0.10000000000E+03  0.10000000000E+03 0.  0.
          5    1    3    3  501    0  0.19895408785E+01 -0.18907225736E+02  0.46005092567E+02  0.50000000000E+02  0.47000000000E+01 0. -1.
         -5    1    3    3    0  501 -0.19895408785E+01  0.18907225736E+02 -0.46005092567E+02  0.50000000000E+02  0.47000000000E+01 0.  1.
</event>
<event>
 5    1  0.9071520E-001  0.1000000E+03  0.7546771E-02  0.1163815E+00
         11   -1    0    0    0    0  0.00000000000E+00  0.00000000000E+00  0.50000000000E+02  0.50000000000E+02  0.00000000000E+00 0. -1.
        -11   -1    0    0    0    0 -0.00000000000E+00 -0.00000000000E+00 -0.50000000000E+02  0.50000000000E+02  0.00000000000E+00 0.  1.
         23    2    1    2    0    0  0.00000000000E+00  0.00000000000E+00  0.00000000000E+00  0.10000000000E+03  0.10000000000E+03 0.  0.
          5    1    3    3  501    0 -0.11029377401E+01  0.30371536750E+02  0.39424145949E+02  0.50000000000E+02  0.47000000000E+01 0. -1.
         -5    1    3    3    0  501  0.11029377401E+01 -0.30371536750E+02 -0.39424145949E+02  0.50000000000E+02  0.47000000000E+01 0.  1.
</event>
<event>
 5    1  0.9071520E-001  0.1000000E+03  0.7546771E-02  0.1163815E+00
         11   -1    0    0    0    0  0.00000000000E+00  0.00000000000E+00  0.50000000000E+02  0.50000000000E+02  0.00000000000E+00 0.  1.
        -11   -1    0    0    0    0 -0.00000000000E+00 -0.00000000000E+00 -0.50000000000E+02  0.50000000000E+02  0.00000000000E+00 0. -1.
         23    2    1    2    0    0  0.00000000000E+00  0.00000000000E+00  0.00000000000E+00  0.10000000000E+03  0.10000000000E+03 0.  0.
          5    1    3    3  501    0  0.36800419488E+02 -0.32430720012E+02 -0.84786511287E+01  0.50000000000E+02  0.47000000000E+01 0. -1.
         -5    1    3    3    0  501 -0.36800419488E+02  0.32430720012E+02  0.84786511287E+01  0.50000000000E+02  0.47000000000E+01 0.  1.
</event>
<event>
 5    1  0.9071520E-001  0.1000000E+03  0.7546771E-02  0.1163815E+00
         11   -1    0    0    0    0  0.00000000000E+00  0.00000000000E+00  0.50000000000E+02  0.50000000000E+02  0.00000000000E+00 0. -1.
        -11   -1    0    0    0    0 -0.00000000000E+00 -0.00000000000E+00 -0.50000000000E+02  0.50000000000E+02  0.00000000000E+00 0.  1.
         23    2    1    2    0    0  0.00000000000E+00  0.00000000000E+00  0.00000000000E+00  0.10000000000E+03  0.10000000000E+03 0.  0.
          5    1    3    3  501    0  0.18902789991E+02  0.31207113201E+02  0.33863115866E+02  0.50000000000E+02  0.47000000000E+01 0. -1.
         -5    1    3    3    0  501 -0.18902789991E+02 -0.31207113201E+02 -0.33863115866E+02  0.50000000000E+02  0.47000000000E+01 0.  1.
</event>
<event>
 5    1  0.9071520E-001  0.1000000E+03  0.7546771E-02  0.1163815E+00
         11   -1    0    0    0    0  0.00000000000E+00  0.00000000000E+00  0.50000000000E+02  0.50000000000E+02  0.00000000000E+00 0. -1.
        -11   -1    0    0    0    0 -0.00000000000E+00 -0.00000000000E+00 -0.50000000000E+02  0.50000000000E+02  0.00000000000E+00 0.  1.
         23    2    1    2    0    0  0.00000000000E+00  0.00000000000E+00  0.00000000000E+00  0.10000000000E+03  0.10000000000E+03 0.  0.
          5    1    3    3  501    0  0.23793087014E+02  0.30176929807E+02  0.31640984779E+02  0.50000000000E+02  0.47000000000E+01 0. -1.
         -5    1    3    3    0  501 -0.23793087014E+02 -0.30176929807E+02 -0.31640984779E+02  0.50000000000E+02  0.47000000000E+01 0.  1.
</event>
<event>
 5    1  0.9071520E-001  0.1000000E+03  0.7546771E-02  0.1163815E+00
         11   -1    0    0    0    0  0.00000000000E+00  0.00000000000E+00  0.50000000000E+02  0.50000000000E+02  0.00000000000E+00 0. -1.
        -11   -1    0    0    0    0 -0.00000000000E+00 -0.00000000000E+00 -0.50000000000E+02  0.50000000000E+02  0.00000000000E+00 0.  1.
         23    2    1    2    0    0  0.00000000000E+00  0.00000000000E+00  0.00000000000E+00  0.10000000000E+03  0.10000000000E+03 0.  0.
          5    1    3    3  501    0 -0.11420072963E+02  0.43188649136E+02  0.21959793244E+02  0.50000000000E+02  0.47000000000E+01 0. -1.
         -5    1    3    3    0  501  0.11420072963E+02 -0.43188649136E+02 -0.21959793244E+02  0.50000000000E+02  0.47000000000E+01 0.  1.
</event>
<event>
 5    1  0.9071520E-001  0.1000000E+03  0.7546771E-02  0.1163815E+00
         11   -1    0    0    0    0  0.00000000000E+00  0.00000000000E+00  0.50000000000E+02  0.50000000000E+02  0.00000000000E+00 0.  1.
        -11   -1    0    0    0    0 -0.00000000000E+00 -0.00000000000E+00 -0.50000000000E+02  0.50000000000E+02  0.00000000000E+00 0. -1.
         23    2    1    2    0    0  0.00000000000E+00  0.00000000000E+00  0.00000000000E+00  0.10000000000E+03  0.10000000000E+03 0.  0.
          5    1    3    3  501    0  0.16585461712E+02  0.29238855959E+02  0.36714054012E+02  0.50000000000E+02  0.47000000000E+01 0.  1.
         -5    1    3    3    0  501 -0.16585461712E+02 -0.29238855959E+02 -0.36714054012E+02  0.50000000000E+02  0.47000000000E+01 0. -1.
</event>
<event>
 5    1  0.9071520E-001  0.1000000E+03  0.7546771E-02  0.1163815E+00
         11   -1    0    0    0    0  0.00000000000E+00  0.00000000000E+00  0.50000000000E+02  0.50000000000E+02  0.00000000000E+00 0. -1.
        -11   -1    0    0    0    0 -0.00000000000E+00 -0.00000000000E+00 -0.50000000000E+02  0.50000000000E+02  0.00000000000E+00 0.  1.
         23    2    1    2    0    0  0.00000000000E+00  0.00000000000E+00  0.00000000000E+00  0.10000000000E+03  0.10000000000E+03 0.  0.
          5    1    3    3  501    0  0.96671688975E+01 -0.26551946837E+02  0.40981092771E+02  0.50000000000E+02  0.47000000000E+01 0. -1.
         -5    1    3    3    0  501 -0.96671688975E+01  0.26551946837E+02 -0.40981092771E+02  0.50000000000E+02  0.47000000000E+01 0.  1.
</event>
<event>
 5    1  0.9071520E-001  0.1000000E+03  0.7546771E-02  0.1163815E+00
         11   -1    0    0    0    0  0.00000000000E+00  0.00000000000E+00  0.50000000000E+02  0.50000000000E+02  0.00000000000E+00 0. -1.
        -11   -1    0    0    0    0 -0.00000000000E+00 -0.00000000000E+00 -0.50000000000E+02  0.50000000000E+02  0.00000000000E+00 0.  1.
         23    2    1    2    0    0  0.00000000000E+00  0.00000000000E+00  0.00000000000E+00  0.10000000000E+03  0.10000000000E+03 0.  0.
          5    1    3    3  501    0  0.32871682241E+02 -0.32059947761E+02  0.19222961693E+02  0.50000000000E+02  0.47000000000E+01 0. -1.
         -5    1    3    3    0  501 -0.32871682241E+02  0.32059947761E+02 -0.19222961693E+02  0.50000000000E+02  0.47000000000E+01 0.  1.
</event>
<event>
 5    1  0.9071520E-001  0.1000000E+03  0.7546771E-02  0.1163815E+00
         11   -1    0    0    0    0  0.00000000000E+00  0.00000000000E+00  0.50000000000E+02  0.50000000000E+02  0.00000000000E+00 0. -1.
        -11   -1    0    0    0    0 -0.00000000000E+00 -0.00000000000E+00 -0.50000000000E+02  0.50000000000E+02  0.00000000000E+00 0.  1.
         23    2    1    2    0    0  0.00000000000E+00  0.00000000000E+00  0.00000000000E+00  0.10000000000E+03  0.10000000000E+03 0.  0.
          5    1    3    3  501    0  0.18427237861E+02 -0.29256398237E+02  0.35810753511E+02  0.50000000000E+02  0.47000000000E+01 0. -1.
         -5    1    3    3    0  501 -0.18427237861E+02  0.29256398237E+02 -0.35810753511E+02  0.50000000000E+02  0.47000000000E+01 0.  1.
</event>
<event>
 5    1  0.9071520E-001  0.1000000E+03  0.7546771E-02  0.1163815E+00
         11   -1    0    0    0    0  0.00000000000E+00  0.00000000000E+00  0.50000000000E+02  0.50000000000E+02  0.00000000000E+00 0. -1.
        -11   -1    0    0    0    0 -0.00000000000E+00 -0.00000000000E+00 -0.50000000000E+02  0.50000000000E+02  0.00000000000E+00 0.  1.
         23    2    1    2    0    0  0.00000000000E+00  0.00000000000E+00  0.00000000000E+00  0.10000000000E+03  0.10000000000E+03 0.  0.
          5    1    3    3  501    0 -0.30630684596E+02 -0.27241001886E+02  0.28241794868E+02  0.50000000000E+02  0.47000000000E+01 0. -1.
         -5    1    3    3    0  501  0.30630684596E+02  0.27241001886E+02 -0.28241794868E+02  0.50000000000E+02  0.47000000000E+01 0.  1.
</event>
<event>
 5    1  0.9071520E-001  0.1000000E+03  0.7546771E-02  0.1163815E+00
         11   -1    0    0    0    0  0.00000000000E+00  0.00000000000E+00  0.50000000000E+02  0.50000000000E+02  0.00000000000E+00 0.  1.
        -11   -1    0    0    0    0 -0.00000000000E+00 -0.00000000000E+00 -0.50000000000E+02  0.50000000000E+02  0.00000000000E+00 0. -1.
         23    2    1    2    0    0  0.00000000000E+00  0.00000000000E+00  0.00000000000E+00  0.10000000000E+03  0.10000000000E+03 0.  0.
          5    1    3    3  501    0 -0.33127782625E+02  0.35522660365E+02 -0.10890391131E+02  0.50000000000E+02  0.47000000000E+01 0. -1.
         -5    1    3    3    0  501  0.33127782625E+02 -0.35522660365E+02  0.10890391131E+02  0.50000000000E+02  0.47000000000E+01 0.  1.
</event>
<event>
 5    1  0.9071520E-001  0.1000000E+03  0.7546771E-02  0.1163815E+00
         11   -1    0    0    0    0  0.00000000000E+00  0.00000000000E+00  0.50000000000E+02  0.50000000000E+02  0.00000000000E+00 0. -1.
        -11   -1    0    0    0    0 -0.00000000000E+00 -0.00000000000E+00 -0.50000000000E+02  0.50000000000E+02  0.00000000000E+00 0.  1.
         23    2    1    2    0    0  0.00000000000E+00  0.00000000000E+00  0.00000000000E+00  0.10000000000E+03  0.10000000000E+03 0.  0.
          5    1    3    3  501    0 -0.44774695526E+00 -0.47193581818E+02 -0.15826413297E+02  0.50000000000E+02  0.47000000000E+01 0. -1.
         -5    1    3    3    0  501  0.44774695526E+00  0.47193581818E+02  0.15826413297E+02  0.50000000000E+02  0.47000000000E+01 0.  1.
</event>
<event>
 5    1  0.9071520E-001  0.1000000E+03  0.7546771E-02  0.1163815E+00
         11   -1    0    0    0    0  0.00000000000E+00  0.00000000000E+00  0.50000000000E+02  0.50000000000E+02  0.00000000000E+00 0. -1.
        -11   -1    0    0    0    0 -0.00000000000E+00 -0.00000000000E+00 -0.50000000000E+02  0.50000000000E+02  0.00000000000E+00 0.  1.
         23    2    1    2    0    0  0.00000000000E+00  0.00000000000E+00  0.00000000000E+00  0.10000000000E+03  0.10000000000E+03 0.  0.
          5    1    3    3  501    0 -0.49106593042E+01  0.58703069821E+01  0.49186735215E+02  0.50000000000E+02  0.47000000000E+01 0. -1.
         -5    1    3    3    0  501  0.49106593042E+01 -0.58703069821E+01 -0.49186735215E+02  0.50000000000E+02  0.47000000000E+01 0.  1.
</event>
<event>
 5    1  0.9071520E-001  0.1000000E+03  0.7546771E-02  0.1163815E+00
         11   -1    0    0    0    0  0.00000000000E+00  0.00000000000E+00  0.50000000000E+02  0.50000000000E+02  0.00000000000E+00 0. -1.
        -11   -1    0    0    0    0 -0.00000000000E+00 -0.00000000000E+00 -0.50000000000E+02  0.50000000000E+02  0.00000000000E+00 0.  1.
         23    2    1    2    0    0  0.00000000000E+00  0.00000000000E+00  0.00000000000E+00  0.10000000000E+03  0.10000000000E+03 0.  0.
          5    1    3    3  501    0  0.29567097357E+02  0.39826352668E+02 -0.41902729060E+01  0.50000000000E+02  0.47000000000E+01 0. -1.
         -5    1    3    3    0  501 -0.29567097357E+02 -0.39826352668E+02  0.41902729060E+01  0.50000000000E+02  0.47000000000E+01 0.  1.
</event>
<event>
 5    1  0.9071520E-001  0.1000000E+03  0.7546771E-02  0.1163815E+00
         11   -1    0    0    0    0  0.00000000000E+00  0.00000000000E+00  0.50000000000E+02  0.50000000000E+02  0.00000000000E+00 0. -1.
        -11   -1    0    0    0    0 -0.00000000000E+00 -0.00000000000E+00 -0.50000000000E+02  0.50000000000E+02  0.00000000000E+00 0.  1.
         23    2    1    2    0    0  0.00000000000E+00  0.00000000000E+00  0.00000000000E+00  0.10000000000E+03  0.10000000000E+03 0.  0.
          5    1    3    3  501    0  0.28551094753E+02 -0.35195201679E+02  0.20592298735E+02  0.50000000000E+02  0.47000000000E+01 0. -1.
         -5    1    3    3    0  501 -0.28551094753E+02  0.35195201679E+02 -0.20592298735E+02  0.50000000000E+02  0.47000000000E+01 0.  1.
</event>
<event>
 5    1  0.9071520E-001  0.1000000E+03  0.7546771E-02  0.1163815E+00
         11   -1    0    0    0    0  0.00000000000E+00  0.00000000000E+00  0.50000000000E+02  0.50000000000E+02  0.00000000000E+00 0.  1.
        -11   -1    0    0    0    0 -0.00000000000E+00 -0.00000000000E+00 -0.50000000000E+02  0.50000000000E+02  0.00000000000E+00 0. -1.
         23    2    1    2    0    0  0.00000000000E+00  0.00000000000E+00  0.00000000000E+00  0.10000000000E+03  0.10000000000E+03 0.  0.
          5    1    3    3  501    0  0.36353715132E+02  0.59613135851E+01  0.33478054550E+02  0.50000000000E+02  0.47000000000E+01 0.  1.
         -5    1    3    3    0  501 -0.36353715132E+02 -0.59613135851E+01 -0.33478054550E+02  0.50000000000E+02  0.47000000000E+01 0. -1.
</event>
<event>
 5    1  0.9071520E-001  0.1000000E+03  0.7546771E-02  0.1163815E+00
         11   -1    0    0    0    0  0.00000000000E+00  0.00000000000E+00  0.50000000000E+02  0.50000000000E+02  0.00000000000E+00 0.  1.
        -11   -1    0    0    0    0 -0.00000000000E+00 -0.00000000000E+00 -0.50000000000E+02  0.50000000000E+02  0.00000000000E+00 0. -1.
         23    2    1    2    0    0  0.00000000000E+00  0.00000000000E+00  0.00000000000E+00  0.10000000000E+03  0.10000000000E+03 0.  0.
          5    1    3    3  501    0 -0.35514556749E+02 -0.33612103684E+02 -0.93194820058E+01  0.50000000000E+02  0.47000000000E+01 0. -1.
         -5    1    3    3    0  501  0.35514556749E+02  0.33612103684E+02  0.93194820058E+01  0.50000000000E+02  0.47000000000E+01 0.  1.
</event>
<event>
 5    1  0.9071520E-001  0.1000000E+03  0.7546771E-02  0.1163815E+00
         11   -1    0    0    0    0  0.00000000000E+00  0.00000000000E+00  0.50000000000E+02  0.50000000000E+02  0.00000000000E+00 0. -1.
        -11   -1    0    0    0    0 -0.00000000000E+00 -0.00000000000E+00 -0.50000000000E+02  0.50000000000E+02  0.00000000000E+00 0.  1.
         23    2    1    2    0    0  0.00000000000E+00  0.00000000000E+00  0.00000000000E+00  0.10000000000E+03  0.10000000000E+03 0.  0.
          5    1    3    3  501    0  0.32696774107E+02 -0.62273584449E+01  0.37014199569E+02  0.50000000000E+02  0.47000000000E+01 0. -1.
         -5    1    3    3    0  501 -0.32696774107E+02  0.62273584449E+01 -0.37014199569E+02  0.50000000000E+02  0.47000000000E+01 0.  1.
</event>
<event>
 5    1  0.9071520E-001  0.1000000E+03  0.7546771E-02  0.1163815E+00
         11   -1    0    0    0    0  0.00000000000E+00  0.00000000000E+00  0.50000000000E+02  0.50000000000E+02  0.00000000000E+00 0. -1.
        -11   -1    0    0    0    0 -0.00000000000E+00 -0.00000000000E+00 -0.50000000000E+02  0.50000000000E+02  0.00000000000E+00 0.  1.
         23    2    1    2    0    0  0.00000000000E+00  0.00000000000E+00  0.00000000000E+00  0.10000000000E+03  0.10000000000E+03 0.  0.
          5    1    3    3  501    0 -0.11492201955E+02 -0.13437972623E+01  0.48415219747E+02  0.50000000000E+02  0.47000000000E+01 0. -1.
         -5    1    3    3    0  501  0.11492201955E+02  0.13437972623E+01 -0.48415219747E+02  0.50000000000E+02  0.47000000000E+01 0.  1.
</event>
<event>
 5    1  0.9071520E-001  0.1000000E+03  0.7546771E-02  0.1163815E+00
         11   -1    0    0    0    0  0.00000000000E+00  0.00000000000E+00  0.50000000000E+02  0.50000000000E+02  0.00000000000E+00 0. -1.
        -11   -1    0    0    0    0 -0.00000000000E+00 -0.00000000000E+00 -0.50000000000E+02  0.50000000000E+02  0.00000000000E+00 0.  1.
         23    2    1    2    0    0  0.00000000000E+00  0.00000000000E+00  0.00000000000E+00  0.10000000000E+03  0.10000000000E+03 0.  0.
          5    1    3    3  501    0 -0.15430156965E+02  0.62892070657E+01  0.46906994473E+02  0.50000000000E+02  0.47000000000E+01 0. -1.
         -5    1    3    3    0  501  0.15430156965E+02 -0.62892070657E+01 -0.46906994473E+02  0.50000000000E+02  0.47000000000E+01 0.  1.
</event>
<event>
 5    1  0.9071520E-001  0.1000000E+03  0.7546771E-02  0.1163815E+00
         11   -1    0    0    0    0  0.00000000000E+00  0.00000000000E+00  0.50000000000E+02  0.50000000000E+02  0.00000000000E+00 0. -1.
        -11   -1    0    0    0    0 -0.00000000000E+00 -0.00000000000E+00 -0.50000000000E+02  0.50000000000E+02  0.00000000000E+00 0.  1.
         23    2    1    2    0    0  0.00000000000E+00  0.00000000000E+00  0.00000000000E+00  0.10000000000E+03  0.10000000000E+03 0.  0.
          5    1    3    3  501    0 -0.31745442944E+02  0.30387573709E+02  0.23382305625E+02  0.50000000000E+02  0.47000000000E+01 0. -1.
         -5    1    3    3    0  501  0.31745442944E+02 -0.30387573709E+02 -0.23382305625E+02  0.50000000000E+02  0.47000000000E+01 0.  1.
</event>
<event>
 5    1  0.9071520E-001  0.1000000E+03  0.7546771E-02  0.1163815E+00
         11   -1    0    0    0    0  0.00000000000E+00  0.00000000000E+00  0.50000000000E+02  0.50000000000E+02  0.00000000000E+00 0. -1.
        -11   -1    0    0    0    0 -0.00000000000E+00 -0.00000000000E+00 -0.50000000000E+02  0.50000000000E+02  0.00000000000E+00 0.  1.
         23    2    1    2    0    0  0.00000000000E+00  0.00000000000E+00  0.00000000000E+00  0.10000000000E+03  0.10000000000E+03 0.  0.
          5    1    3    3  501    0  0.11405220881E+02 -0.25636965795E+02  0.41116625852E+02  0.50000000000E+02  0.47000000000E+01 0. -1.
         -5    1    3    3    0  501 -0.11405220881E+02  0.25636965795E+02 -0.41116625852E+02  0.50000000000E+02  0.47000000000E+01 0.  1.
</event>
<event>
 5    1  0.9071520E-001  0.1000000E+03  0.7546771E-02  0.1163815E+00
         11   -1    0    0    0    0  0.00000000000E+00  0.00000000000E+00  0.50000000000E+02  0.50000000000E+02  0.00000000000E+00 0.  1.
        -11   -1    0    0    0    0 -0.00000000000E+00 -0.00000000000E+00 -0.50000000000E+02  0.50000000000E+02  0.00000000000E+00 0. -1.
         23    2    1    2    0    0  0.00000000000E+00  0.00000000000E+00  0.00000000000E+00  0.10000000000E+03  0.10000000000E+03 0.  0.
          5    1    3    3  501    0  0.39499737669E+01 -0.29495450324E+02  0.39903961174E+02  0.50000000000E+02  0.47000000000E+01 0. -1.
         -5    1    3    3    0  501 -0.39499737669E+01  0.29495450324E+02 -0.39903961174E+02  0.50000000000E+02  0.47000000000E+01 0.  1.
</event>
<event>
 5    1  0.9071520E-001  0.1000000E+03  0.7546771E-02  0.1163815E+00
         11   -1    0    0    0    0  0.00000000000E+00  0.00000000000E+00  0.50000000000E+02  0.50000000000E+02  0.00000000000E+00 0. -1.
        -11   -1    0    0    0    0 -0.00000000000E+00 -0.00000000000E+00 -0.50000000000E+02  0.50000000000E+02  0.00000000000E+00 0.  1.
         23    2    1    2    0    0  0.00000000000E+00  0.00000000000E+00  0.00000000000E+00  0.10000000000E+03  0.10000000000E+03 0.  0.
          5    1    3    3  501    0  0.17438008627E+02 -0.44630265518E+01  0.46410206303E+02  0.50000000000E+02  0.47000000000E+01 0. -1.
         -5    1    3    3    0  501 -0.17438008627E+02  0.44630265518E+01 -0.46410206303E+02  0.50000000000E+02  0.47000000000E+01 0.  1.
</event>
<event>
 5    1  0.9071520E-001  0.1000000E+03  0.7546771E-02  0.1163815E+00
         11   -1    0    0    0    0  0.00000000000E+00  0.00000000000E+00  0.50000000000E+02  0.50000000000E+02  0.00000000000E+00 0. -1.
        -11   -1    0    0    0    0 -0.00000000000E+00 -0.00000000000E+00 -0.50000000000E+02  0.50000000000E+02  0.00000000000E+00 0.  1.
         23    2    1    2    0    0  0.00000000000E+00  0.00000000000E+00  0.00000000000E+00  0.10000000000E+03  0.10000000000E+03 0.  0.
          5    1    3    3  501    0 -0.39952076461E+02 -0.15958455109E+02  0.25041351741E+02  0.50000000000E+02  0.47000000000E+01 0. -1.
         -5    1    3    3    0  501  0.39952076461E+02  0.15958455109E+02 -0.25041351741E+02  0.50000000000E+02  0.47000000000E+01 0.  1.
</event>
<event>
 5    1  0.9071520E-001  0.1000000E+03  0.7546771E-02  0.1163815E+00
         11   -1    0    0    0    0  0.00000000000E+00  0.00000000000E+00  0.50000000000E+02  0.50000000000E+02  0.00000000000E+00 0.  1.
        -11   -1    0    0    0    0 -0.00000000000E+00 -0.00000000000E+00 -0.50000000000E+02  0.50000000000E+02  0.00000000000E+00 0. -1.
         23    2    1    2    0    0  0.00000000000E+00  0.00000000000E+00  0.00000000000E+00  0.10000000000E+03  0.10000000000E+03 0.  0.
          5    1    3    3  501    0  0.28754838425E+02  0.38457167643E+02 -0.13119280620E+02  0.50000000000E+02  0.47000000000E+01 0. -1.
         -5    1    3    3    0  501 -0.28754838425E+02 -0.38457167643E+02  0.13119280620E+02  0.50000000000E+02  0.47000000000E+01 0.  1.
</event>
<event>
 5    1  0.9071520E-001  0.1000000E+03  0.7546771E-02  0.1163815E+00
         11   -1    0    0    0    0  0.00000000000E+00  0.00000000000E+00  0.50000000000E+02  0.50000000000E+02  0.00000000000E+00 0. -1.
        -11   -1    0    0    0    0 -0.00000000000E+00 -0.00000000000E+00 -0.50000000000E+02  0.50000000000E+02  0.00000000000E+00 0.  1.
         23    2    1    2    0    0  0.00000000000E+00  0.00000000000E+00  0.00000000000E+00  0.10000000000E+03  0.10000000000E+03 0.  0.
          5    1    3    3  501    0  0.25362539357E+02 -0.24511411741E+02  0.35126091326E+02  0.50000000000E+02  0.47000000000E+01 0. -1.
         -5    1    3    3    0  501 -0.25362539357E+02  0.24511411741E+02 -0.35126091326E+02  0.50000000000E+02  0.47000000000E+01 0.  1.
</event>
<event>
 5    1  0.9071520E-001  0.1000000E+03  0.7546771E-02  0.1163815E+00
         11   -1    0    0    0    0  0.00000000000E+00  0.00000000000E+00  0.50000000000E+02  0.50000000000E+02  0.00000000000E+00 0. -1.
        -11   -1    0    0    0    0 -0.00000000000E+00 -0.00000000000E+00 -0.50000000000E+02  0.50000000000E+02  0.00000000000E+00 0.  1.
         23    2    1    2    0    0  0.00000000000E+00  0.00000000000E+00  0.00000000000E+00  0.10000000000E+03  0.10000000000E+03 0.  0.
          5    1    3    3  501    0  0.15072343903E+02  0.28876143298E+02  0.37641769320E+02  0.50000000000E+02  0.47000000000E+01 0. -1.
         -5    1    3    3    0  501 -0.15072343903E+02 -0.28876143298E+02 -0.37641769320E+02  0.50000000000E+02  0.47000000000E+01 0.  1.
</event>
<event>
 5    1  0.9071520E-001  0.1000000E+03  0.7546771E-02  0.1163815E+00
         11   -1    0    0    0    0  0.00000000000E+00  0.00000000000E+00  0.50000000000E+02  0.50000000000E+02  0.00000000000E+00 0. -1.
        -11   -1    0    0    0    0 -0.00000000000E+00 -0.00000000000E+00 -0.50000000000E+02  0.50000000000E+02  0.00000000000E+00 0.  1.
         23    2    1    2    0    0  0.00000000000E+00  0.00000000000E+00  0.00000000000E+00  0.10000000000E+03  0.10000000000E+03 0.  0.
          5    1    3    3  501    0 -0.42612957786E+02 -0.72933535485E+01 -0.24674943216E+02  0.50000000000E+02  0.47000000000E+01 0. -1.
         -5    1    3    3    0  501  0.42612957786E+02  0.72933535485E+01  0.24674943216E+02  0.50000000000E+02  0.47000000000E+01 0.  1.
</event>
<event>
 5    1  0.9071520E-001  0.1000000E+03  0.7546771E-02  0.1163815E+00
         11   -1    0    0    0    0  0.00000000000E+00  0.00000000000E+00  0.50000000000E+02  0.50000000000E+02  0.00000000000E+00 0. -1.
        -11   -1    0    0    0    0 -0.00000000000E+00 -0.00000000000E+00 -0.50000000000E+02  0.50000000000E+02  0.00000000000E+00 0.  1.
         23    2    1    2    0    0  0.00000000000E+00  0.00000000000E+00  0.00000000000E+00  0.10000000000E+03  0.10000000000E+03 0.  0.
          5    1    3    3  501    0 -0.35798624260E+02 -0.12383393548E+02  0.32295821175E+02  0.50000000000E+02  0.47000000000E+01 0. -1.
         -5    1    3    3    0  501  0.35798624260E+02  0.12383393548E+02 -0.32295821175E+02  0.50000000000E+02  0.47000000000E+01 0.  1.
</event>
<event>
 5    1  0.9071520E-001  0.1000000E+03  0.7546771E-02  0.1163815E+00
         11   -1    0    0    0    0  0.00000000000E+00  0.00000000000E+00  0.50000000000E+02  0.50000000000E+02  0.00000000000E+00 0. -1.
        -11   -1    0    0    0    0 -0.00000000000E+00 -0.00000000000E+00 -0.50000000000E+02  0.50000000000E+02  0.00000000000E+00 0.  1.
         23    2    1    2    0    0  0.00000000000E+00  0.00000000000E+00  0.00000000000E+00  0.10000000000E+03  0.10000000000E+03 0.  0.
          5    1    3    3  501    0  0.44987607501E+02 -0.13720369251E+02  0.16302657419E+02  0.50000000000E+02  0.47000000000E+01 0. -1.
         -5    1    3    3    0  501 -0.44987607501E+02  0.13720369251E+02 -0.16302657419E+02  0.50000000000E+02  0.47000000000E+01 0.  1.
</event>
<event>
 5    1  0.9071520E-001  0.1000000E+03  0.7546771E-02  0.1163815E+00
         11   -1    0    0    0    0  0.00000000000E+00  0.00000000000E+00  0.50000000000E+02  0.50000000000E+02  0.00000000000E+00 0.  1.
        -11   -1    0    0    0    0 -0.00000000000E+00 -0.00000000000E+00 -0.50000000000E+02  0.50000000000E+02  0.00000000000E+00 0. -1.
         23    2    1    2    0    0  0.00000000000E+00  0.00000000000E+00  0.00000000000E+00  0.10000000000E+03  0.10000000000E+03 0.  0.
          5    1    3    3  501    0 -0.41782763812E+02  0.65056412391E+00 -0.27049721155E+02  0.50000000000E+02  0.47000000000E+01 0. -1.
         -5    1    3    3    0  501  0.41782763812E+02 -0.65056412391E+00  0.27049721155E+02  0.50000000000E+02  0.47000000000E+01 0.  1.
</event>
<event>
 5    1  0.9071520E-001  0.1000000E+03  0.7546771E-02  0.1163815E+00
         11   -1    0    0    0    0  0.00000000000E+00  0.00000000000E+00  0.50000000000E+02  0.50000000000E+02  0.00000000000E+00 0. -1.
        -11   -1    0    0    0    0 -0.00000000000E+00 -0.00000000000E+00 -0.50000000000E+02  0.50000000000E+02  0.00000000000E+00 0.  1.
         23    2    1    2    0    0  0.00000000000E+00  0.00000000000E+00  0.00000000000E+00  0.10000000000E+03  0.10000000000E+03 0.  0.
          5    1    3    3  501    0  0.78598752109E+01 -0.16097063605E+02  0.46443696074E+02  0.50000000000E+02  0.47000000000E+01 0. -1.
         -5    1    3    3    0  501 -0.78598752109E+01  0.16097063605E+02 -0.46443696074E+02  0.50000000000E+02  0.47000000000E+01 0.  1.
</event>
<event>
 5    1  0.9071520E-001  0.1000000E+03  0.7546771E-02  0.1163815E+00
         11   -1    0    0    0    0  0.00000000000E+00  0.00000000000E+00  0.50000000000E+02  0.50000000000E+02  0.00000000000E+00 0. -1.
        -11   -1    0    0    0    0 -0.00000000000E+00 -0.00000000000E+00 -0.50000000000E+02  0.50000000000E+02  0.00000000000E+00 0.  1.
         23    2    1    2    0    0  0.00000000000E+00  0.00000000000E+00  0.00000000000E+00  0.10000000000E+03  0.10000000000E+03 0.  0.
          5    1    3    3  501    0 -0.36193507967E+02  0.72741400231E+01  0.33392018027E+02  0.50000000000E+02  0.47000000000E+01 0. -1.
         -5    1    3    3    0  501  0.36193507967E+02 -0.72741400231E+01 -0.33392018027E+02  0.50000000000E+02  0.47000000000E+01 0.  1.
</event>
<event>
 5    1  0.9071520E-001  0.1000000E+03  0.7546771E-02  0.1163815E+00
         11   -1    0    0    0    0  0.00000000000E+00  0.00000000000E+00  0.50000000000E+02  0.50000000000E+02  0.00000000000E+00 0. -1.
        -11   -1    0    0    0    0 -0.00000000000E+00 -0.00000000000E+00 -0.50000000000E+02  0.50000000000E+02  0.00000000000E+00 0.  1.
         23    2    1    2    0    0  0.00000000000E+00  0.00000000000E+00  0.00000000000E+00  0.10000000000E+03  0.10000000000E+03 0.  0.
          5    1    3    3  501    0 -0.14882698512E+02 -0.36200590816E+02  0.30756015827E+02  0.50000000000E+02  0.47000000000E+01 0. -1.
         -5    1    3    3    0  501  0.14882698512E+02  0.36200590816E+02 -0.30756015827E+02  0.50000000000E+02  0.47000000000E+01 0.  1.
</event>
<event>
 5    1  0.9071520E-001  0.1000000E+03  0.7546771E-02  0.1163815E+00
         11   -1    0    0    0    0  0.00000000000E+00  0.00000000000E+00  0.50000000000E+02  0.50000000000E+02  0.00000000000E+00 0. -1.
        -11   -1    0    0    0    0 -0.00000000000E+00 -0.00000000000E+00 -0.50000000000E+02  0.50000000000E+02  0.00000000000E+00 0.  1.
         23    2    1    2    0    0  0.00000000000E+00  0.00000000000E+00  0.00000000000E+00  0.10000000000E+03  0.10000000000E+03 0.  0.
          5    1    3    3  501    0  0.15882701392E+02  0.32450394271E+02  0.34243564478E+02  0.50000000000E+02  0.47000000000E+01 0. -1.
         -5    1    3    3    0  501 -0.15882701392E+02 -0.32450394271E+02 -0.34243564478E+02  0.50000000000E+02  0.47000000000E+01 0.  1.
</event>
<event>
 5    1  0.9071520E-001  0.1000000E+03  0.7546771E-02  0.1163815E+00
         11   -1    0    0    0    0  0.00000000000E+00  0.00000000000E+00  0.50000000000E+02  0.50000000000E+02  0.00000000000E+00 0.  1.
        -11   -1    0    0    0    0 -0.00000000000E+00 -0.00000000000E+00 -0.50000000000E+02  0.50000000000E+02  0.00000000000E+00 0. -1.
         23    2    1    2    0    0  0.00000000000E+00  0.00000000000E+00  0.00000000000E+00  0.10000000000E+03  0.10000000000E+03 0.  0.
          5    1    3    3  501    0 -0.49084658728E+02 -0.64405465239E+01 -0.52082279205E+01  0.50000000000E+02  0.47000000000E+01 0. -1.
         -5    1    3    3    0  501  0.49084658728E+02  0.64405465239E+01  0.52082279205E+01  0.50000000000E+02  0.47000000000E+01 0.  1.
</event>
<event>
 5    1  0.9071520E-001  0.1000000E+03  0.7546771E-02  0.1163815E+00
         11   -1    0    0    0    0  0.00000000000E+00  0.00000000000E+00  0.50000000000E+02  0.50000000000E+02  0.00000000000E+00 0.  1.
        -11   -1    0    0    0    0 -0.00000000000E+00 -0.00000000000E+00 -0.50000000000E+02  0.50000000000E+02  0.00000000000E+00 0. -1.
         23    2    1    2    0    0  0.00000000000E+00  0.00000000000E+00  0.00000000000E+00  0.10000000000E+03  0.10000000000E+03 0.  0.
          5    1    3    3  501    0 -0.38292759052E+01  0.42536538002E+02 -0.25571264748E+02  0.50000000000E+02  0.47000000000E+01 0. -1.
         -5    1    3    3    0  501  0.38292759052E+01 -0.42536538002E+02  0.25571264748E+02  0.50000000000E+02  0.47000000000E+01 0.  1.
</event>
<event>
 5    1  0.9071520E-001  0.1000000E+03  0.7546771E-02  0.1163815E+00
         11   -1    0    0    0    0  0.00000000000E+00  0.00000000000E+00  0.50000000000E+02  0.50000000000E+02  0.00000000000E+00 0. -1.
        -11   -1    0    0    0    0 -0.00000000000E+00 -0.00000000000E+00 -0.50000000000E+02  0.50000000000E+02  0.00000000000E+00 0.  1.
         23    2    1    2    0    0  0.00000000000E+00  0.00000000000E+00  0.00000000000E+00  0.10000000000E+03  0.10000000000E+03 0.  0.
          5    1    3    3  501    0  0.17030572610E+02  0.46773787923E+02 -0.28698413904E+00  0.50000000000E+02  0.47000000000E+01 0.  1.
         -5    1    3    3    0  501 -0.17030572610E+02 -0.46773787923E+02  0.28698413904E+00  0.50000000000E+02  0.47000000000E+01 0.  1.
</event>
<event>
 5    1  0.9071520E-001  0.1000000E+03  0.7546771E-02  0.1163815E+00
         11   -1    0    0    0    0  0.00000000000E+00  0.00000000000E+00  0.50000000000E+02  0.50000000000E+02  0.00000000000E+00 0.  1.
        -11   -1    0    0    0    0 -0.00000000000E+00 -0.00000000000E+00 -0.50000000000E+02  0.50000000000E+02  0.00000000000E+00 0. -1.
         23    2    1    2    0    0  0.00000000000E+00  0.00000000000E+00  0.00000000000E+00  0.10000000000E+03  0.10000000000E+03 0.  0.
          5    1    3    3  501    0  0.47587508423E+02 -0.61073043491E+01  0.13268001948E+02  0.50000000000E+02  0.47000000000E+01 0.  1.
         -5    1    3    3    0  501 -0.47587508423E+02  0.61073043491E+01 -0.13268001948E+02  0.50000000000E+02  0.47000000000E+01 0. -1.
</event>
<event>
 5    1  0.9071520E-001  0.1000000E+03  0.7546771E-02  0.1163815E+00
         11   -1    0    0    0    0  0.00000000000E+00  0.00000000000E+00  0.50000000000E+02  0.50000000000E+02  0.00000000000E+00 0. -1.
        -11   -1    0    0    0    0 -0.00000000000E+00 -0.00000000000E+00 -0.50000000000E+02  0.50000000000E+02  0.00000000000E+00 0.  1.
         23    2    1    2    0    0  0.00000000000E+00  0.00000000000E+00  0.00000000000E+00  0.10000000000E+03  0.10000000000E+03 0.  0.
          5    1    3    3  501    0  0.14580168291E+01 -0.10736908601E+02  0.48585007776E+02  0.50000000000E+02  0.47000000000E+01 0. -1.
         -5    1    3    3    0  501 -0.14580168291E+01  0.10736908601E+02 -0.48585007776E+02  0.50000000000E+02  0.47000000000E+01 0.  1.
</event>
<event>
 5    1  0.9071520E-001  0.1000000E+03  0.7546771E-02  0.1163815E+00
         11   -1    0    0    0    0  0.00000000000E+00  0.00000000000E+00  0.50000000000E+02  0.50000000000E+02  0.00000000000E+00 0.  1.
        -11   -1    0    0    0    0 -0.00000000000E+00 -0.00000000000E+00 -0.50000000000E+02  0.50000000000E+02  0.00000000000E+00 0. -1.
         23    2    1    2    0    0  0.00000000000E+00  0.00000000000E+00  0.00000000000E+00  0.10000000000E+03  0.10000000000E+03 0.  0.
          5    1    3    3  501    0  0.43205106851E+02 -0.24552312748E+02  0.29004621533E+01  0.50000000000E+02  0.47000000000E+01 0.  1.
         -5    1    3    3    0  501 -0.43205106851E+02  0.24552312748E+02 -0.29004621533E+01  0.50000000000E+02  0.47000000000E+01 0. -1.
</event>
<event>
 5    1  0.9071520E-001  0.1000000E+03  0.7546771E-02  0.1163815E+00
         11   -1    0    0    0    0  0.00000000000E+00  0.00000000000E+00  0.50000000000E+02  0.50000000000E+02  0.00000000000E+00 0. -1.
        -11   -1    0    0    0    0 -0.00000000000E+00 -0.00000000000E+00 -0.50000000000E+02  0.50000000000E+02  0.00000000000E+00 0.  1.
         23    2    1    2    0    0  0.00000000000E+00  0.00000000000E+00  0.00000000000E+00  0.10000000000E+03  0.10000000000E+03 0.  0.
          5    1    3    3  501    0 -0.38557406633E+02 -0.29018230988E+02  0.12213871790E+02  0.50000000000E+02  0.47000000000E+01 0. -1.
         -5    1    3    3    0  501  0.38557406633E+02  0.29018230988E+02 -0.12213871790E+02  0.50000000000E+02  0.47000000000E+01 0.  1.
</event>
<event>
 5    1  0.9071520E-001  0.1000000E+03  0.7546771E-02  0.1163815E+00
         11   -1    0    0    0    0  0.00000000000E+00  0.00000000000E+00  0.50000000000E+02  0.50000000000E+02  0.00000000000E+00 0. -1.
        -11   -1    0    0    0    0 -0.00000000000E+00 -0.00000000000E+00 -0.50000000000E+02  0.50000000000E+02  0.00000000000E+00 0.  1.
         23    2    1    2    0    0  0.00000000000E+00  0.00000000000E+00  0.00000000000E+00  0.10000000000E+03  0.10000000000E+03 0.  0.
          5    1    3    3  501    0 -0.43438596108E+02  0.23542514343E+02 -0.60620447529E+01  0.50000000000E+02  0.47000000000E+01 0. -1.
         -5    1    3    3    0  501  0.43438596108E+02 -0.23542514343E+02  0.60620447529E+01  0.50000000000E+02  0.47000000000E+01 0.  1.
</event>
<event>
 5    1  0.9071520E-001  0.1000000E+03  0.7546771E-02  0.1163815E+00
         11   -1    0    0    0    0  0.00000000000E+00  0.00000000000E+00  0.50000000000E+02  0.50000000000E+02  0.00000000000E+00 0. -1.
        -11   -1    0    0    0    0 -0.00000000000E+00 -0.00000000000E+00 -0.50000000000E+02  0.50000000000E+02  0.00000000000E+00 0.  1.
         23    2    1    2    0    0  0.00000000000E+00  0.00000000000E+00  0.00000000000E+00  0.10000000000E+03  0.10000000000E+03 0.  0.
          5    1    3    3  501    0  0.19165502297E+02  0.67912711661E+01  0.45436462865E+02  0.50000000000E+02  0.47000000000E+01 0. -1.
         -5    1    3    3    0  501 -0.19165502297E+02 -0.67912711661E+01 -0.45436462865E+02  0.50000000000E+02  0.47000000000E+01 0.  1.
</event>
<event>
 5    1  0.9071520E-001  0.1000000E+03  0.7546771E-02  0.1163815E+00
         11   -1    0    0    0    0  0.00000000000E+00  0.00000000000E+00  0.50000000000E+02  0.50000000000E+02  0.00000000000E+00 0. -1.
        -11   -1    0    0    0    0 -0.00000000000E+00 -0.00000000000E+00 -0.50000000000E+02  0.50000000000E+02  0.00000000000E+00 0.  1.
         23    2    1    2    0    0  0.00000000000E+00  0.00000000000E+00  0.00000000000E+00  0.10000000000E+03  0.10000000000E+03 0.  0.
          5    1    3    3  501    0 -0.54761462847E+01  0.69724083269E+01  0.48982724955E+02  0.50000000000E+02  0.47000000000E+01 0. -1.
         -5    1    3    3    0  501  0.54761462847E+01 -0.69724083269E+01 -0.48982724955E+02  0.50000000000E+02  0.47000000000E+01 0.  1.
</event>
<event>
 5    1  0.9071520E-001  0.1000000E+03  0.7546771E-02  0.1163815E+00
         11   -1    0    0    0    0  0.00000000000E+00  0.00000000000E+00  0.50000000000E+02  0.50000000000E+02  0.00000000000E+00 0. -1.
        -11   -1    0    0    0    0 -0.00000000000E+00 -0.00000000000E+00 -0.50000000000E+02  0.50000000000E+02  0.00000000000E+00 0.  1.
         23    2    1    2    0    0  0.00000000000E+00  0.00000000000E+00  0.00000000000E+00  0.10000000000E+03  0.10000000000E+03 0.  0.
          5    1    3    3  501    0  0.50966523872E+01  0.30468524712E+02 -0.39033359275E+02  0.50000000000E+02  0.47000000000E+01 0. -1.
         -5    1    3    3    0  501 -0.50966523872E+01 -0.30468524712E+02  0.39033359275E+02  0.50000000000E+02  0.47000000000E+01 0.  1.
</event>
<event>
 5    1  0.9071520E-001  0.1000000E+03  0.7546771E-02  0.1163815E+00
         11   -1    0    0    0    0  0.00000000000E+00  0.00000000000E+00  0.50000000000E+02  0.50000000000E+02  0.00000000000E+00 0.  1.
        -11   -1    0    0    0    0 -0.00000000000E+00 -0.00000000000E+00 -0.50000000000E+02  0.50000000000E+02  0.00000000000E+00 0. -1.
         23    2    1    2    0    0  0.00000000000E+00  0.00000000000E+00  0.00000000000E+00  0.10000000000E+03  0.10000000000E+03 0.  0.
          5    1    3    3  501    0 -0.11660067914E+02  0.12377323021E+02 -0.46784128624E+02  0.50000000000E+02  0.47000000000E+01 0. -1.
         -5    1    3    3    0  501  0.11660067914E+02 -0.12377323021E+02  0.46784128624E+02  0.50000000000E+02  0.47000000000E+01 0.  1.
</event>
<event>
 5    1  0.9071520E-001  0.1000000E+03  0.7546771E-02  0.1163815E+00
         11   -1    0    0    0    0  0.00000000000E+00  0.00000000000E+00  0.50000000000E+02  0.50000000000E+02  0.00000000000E+00 0.  1.
        -11   -1    0    0    0    0 -0.00000000000E+00 -0.00000000000E+00 -0.50000000000E+02  0.50000000000E+02  0.00000000000E+00 0. -1.
         23    2    1    2    0    0  0.00000000000E+00  0.00000000000E+00  0.00000000000E+00  0.10000000000E+03  0.10000000000E+03 0.  0.
          5    1    3    3  501    0  0.28404534996E+02 -0.40869085014E+02 -0.90015653346E+00  0.50000000000E+02  0.47000000000E+01 0. -1.
         -5    1    3    3    0  501 -0.28404534996E+02  0.40869085014E+02  0.90015653346E+00  0.50000000000E+02  0.47000000000E+01 0.  1.
</event>
<event>
 5    1  0.9071520E-001  0.1000000E+03  0.7546771E-02  0.1163815E+00
         11   -1    0    0    0    0  0.00000000000E+00  0.00000000000E+00  0.50000000000E+02  0.50000000000E+02  0.00000000000E+00 0. -1.
        -11   -1    0    0    0    0 -0.00000000000E+00 -0.00000000000E+00 -0.50000000000E+02  0.50000000000E+02  0.00000000000E+00 0.  1.
         23    2    1    2    0    0  0.00000000000E+00  0.00000000000E+00  0.00000000000E+00  0.10000000000E+03  0.10000000000E+03 0.  0.
          5    1    3    3  501    0  0.10318719167E+02 -0.29598525671E+02  0.38669901899E+02  0.50000000000E+02  0.47000000000E+01 0. -1.
         -5    1    3    3    0  501 -0.10318719167E+02  0.29598525671E+02 -0.38669901899E+02  0.50000000000E+02  0.47000000000E+01 0.  1.
</event>
<event>
 5    1  0.9071520E-001  0.1000000E+03  0.7546771E-02  0.1163815E+00
         11   -1    0    0    0    0  0.00000000000E+00  0.00000000000E+00  0.50000000000E+02  0.50000000000E+02  0.00000000000E+00 0. -1.
        -11   -1    0    0    0    0 -0.00000000000E+00 -0.00000000000E+00 -0.50000000000E+02  0.50000000000E+02  0.00000000000E+00 0.  1.
         23    2    1    2    0    0  0.00000000000E+00  0.00000000000E+00  0.00000000000E+00  0.10000000000E+03  0.10000000000E+03 0.  0.
          5    1    3    3  501    0  0.49605661309E+02  0.17039175695E+01 -0.37795543377E+01  0.50000000000E+02  0.47000000000E+01 0. -1.
         -5    1    3    3    0  501 -0.49605661309E+02 -0.17039175695E+01  0.37795543377E+01  0.50000000000E+02  0.47000000000E+01 0.  1.
</event>
<event>
 5    1  0.9071520E-001  0.1000000E+03  0.7546771E-02  0.1163815E+00
         11   -1    0    0    0    0  0.00000000000E+00  0.00000000000E+00  0.50000000000E+02  0.50000000000E+02  0.00000000000E+00 0.  1.
        -11   -1    0    0    0    0 -0.00000000000E+00 -0.00000000000E+00 -0.50000000000E+02  0.50000000000E+02  0.00000000000E+00 0. -1.
         23    2    1    2    0    0  0.00000000000E+00  0.00000000000E+00  0.00000000000E+00  0.10000000000E+03  0.10000000000E+03 0.  0.
          5    1    3    3  501    0 -0.95604411388E+01  0.10593440231E+02 -0.47689485102E+02  0.50000000000E+02  0.47000000000E+01 0. -1.
         -5    1    3    3    0  501  0.95604411388E+01 -0.10593440231E+02  0.47689485102E+02  0.50000000000E+02  0.47000000000E+01 0.  1.
</event>
<event>
 5    1  0.9071520E-001  0.1000000E+03  0.7546771E-02  0.1163815E+00
         11   -1    0    0    0    0  0.00000000000E+00  0.00000000000E+00  0.50000000000E+02  0.50000000000E+02  0.00000000000E+00 0. -1.
        -11   -1    0    0    0    0 -0.00000000000E+00 -0.00000000000E+00 -0.50000000000E+02  0.50000000000E+02  0.00000000000E+00 0.  1.
         23    2    1    2    0    0  0.00000000000E+00  0.00000000000E+00  0.00000000000E+00  0.10000000000E+03  0.10000000000E+03 0.  0.
          5    1    3    3  501    0 -0.38463905563E+01 -0.40887455814E+02  0.28130610315E+02  0.50000000000E+02  0.47000000000E+01 0. -1.
         -5    1    3    3    0  501  0.38463905563E+01  0.40887455814E+02 -0.28130610315E+02  0.50000000000E+02  0.47000000000E+01 0.  1.
</event>
<event>
 5    1  0.9071520E-001  0.1000000E+03  0.7546771E-02  0.1163815E+00
         11   -1    0    0    0    0  0.00000000000E+00  0.00000000000E+00  0.50000000000E+02  0.50000000000E+02  0.00000000000E+00 0.  1.
        -11   -1    0    0    0    0 -0.00000000000E+00 -0.00000000000E+00 -0.50000000000E+02  0.50000000000E+02  0.00000000000E+00 0. -1.
         23    2    1    2    0    0  0.00000000000E+00  0.00000000000E+00  0.00000000000E+00  0.10000000000E+03  0.10000000000E+03 0.  0.
          5    1    3    3  501    0  0.53539055205E+01  0.37127214970E+02 -0.32723318967E+02  0.50000000000E+02  0.47000000000E+01 0. -1.
         -5    1    3    3    0  501 -0.53539055205E+01 -0.37127214970E+02  0.32723318967E+02  0.50000000000E+02  0.47000000000E+01 0.  1.
</event>
<event>
 5    1  0.9071520E-001  0.1000000E+03  0.7546771E-02  0.1163815E+00
         11   -1    0    0    0    0  0.00000000000E+00  0.00000000000E+00  0.50000000000E+02  0.50000000000E+02  0.00000000000E+00 0. -1.
        -11   -1    0    0    0    0 -0.00000000000E+00 -0.00000000000E+00 -0.50000000000E+02  0.50000000000E+02  0.00000000000E+00 0.  1.
         23    2    1    2    0    0  0.00000000000E+00  0.00000000000E+00  0.00000000000E+00  0.10000000000E+03  0.10000000000E+03 0.  0.
          5    1    3    3  501    0 -0.19591577490E+01  0.47061010904E+02 -0.16103817981E+02  0.50000000000E+02  0.47000000000E+01 0. -1.
         -5    1    3    3    0  501  0.19591577490E+01 -0.47061010904E+02  0.16103817981E+02  0.50000000000E+02  0.47000000000E+01 0.  1.
</event>
<event>
 5    1  0.9071520E-001  0.1000000E+03  0.7546771E-02  0.1163815E+00
         11   -1    0    0    0    0  0.00000000000E+00  0.00000000000E+00  0.50000000000E+02  0.50000000000E+02  0.00000000000E+00 0. -1.
        -11   -1    0    0    0    0 -0.00000000000E+00 -0.00000000000E+00 -0.50000000000E+02  0.50000000000E+02  0.00000000000E+00 0.  1.
         23    2    1    2    0    0  0.00000000000E+00  0.00000000000E+00  0.00000000000E+00  0.10000000000E+03  0.10000000000E+03 0.  0.
          5    1    3    3  501    0  0.15093635635E+02 -0.13822919409E+02  0.45376415265E+02  0.50000000000E+02  0.47000000000E+01 0. -1.
         -5    1    3    3    0  501 -0.15093635635E+02  0.13822919409E+02 -0.45376415265E+02  0.50000000000E+02  0.47000000000E+01 0.  1.
</event>
<event>
 5    1  0.9071520E-001  0.1000000E+03  0.7546771E-02  0.1163815E+00
         11   -1    0    0    0    0  0.00000000000E+00  0.00000000000E+00  0.50000000000E+02  0.50000000000E+02  0.00000000000E+00 0. -1.
        -11   -1    0    0    0    0 -0.00000000000E+00 -0.00000000000E+00 -0.50000000000E+02  0.50000000000E+02  0.00000000000E+00 0.  1.
         23    2    1    2    0    0  0.00000000000E+00  0.00000000000E+00  0.00000000000E+00  0.10000000000E+03  0.10000000000E+03 0.  0.
          5    1    3    3  501    0 -0.23186834484E+02  0.20928180959E+02  0.38759411094E+02  0.50000000000E+02  0.47000000000E+01 0. -1.
         -5    1    3    3    0  501  0.23186834484E+02 -0.20928180959E+02 -0.38759411094E+02  0.50000000000E+02  0.47000000000E+01 0.  1.
</event>
<event>
 5    1  0.9071520E-001  0.1000000E+03  0.7546771E-02  0.1163815E+00
         11   -1    0    0    0    0  0.00000000000E+00  0.00000000000E+00  0.50000000000E+02  0.50000000000E+02  0.00000000000E+00 0. -1.
        -11   -1    0    0    0    0 -0.00000000000E+00 -0.00000000000E+00 -0.50000000000E+02  0.50000000000E+02  0.00000000000E+00 0.  1.
         23    2    1    2    0    0  0.00000000000E+00  0.00000000000E+00  0.00000000000E+00  0.10000000000E+03  0.10000000000E+03 0.  0.
          5    1    3    3  501    0 -0.31870638008E+02  0.27718385655E+02  0.26341289446E+02  0.50000000000E+02  0.47000000000E+01 0. -1.
         -5    1    3    3    0  501  0.31870638008E+02 -0.27718385655E+02 -0.26341289446E+02  0.50000000000E+02  0.47000000000E+01 0.  1.
</event>
<event>
 5    1  0.9071520E-001  0.1000000E+03  0.7546771E-02  0.1163815E+00
         11   -1    0    0    0    0  0.00000000000E+00  0.00000000000E+00  0.50000000000E+02  0.50000000000E+02  0.00000000000E+00 0. -1.
        -11   -1    0    0    0    0 -0.00000000000E+00 -0.00000000000E+00 -0.50000000000E+02  0.50000000000E+02  0.00000000000E+00 0.  1.
         23    2    1    2    0    0  0.00000000000E+00  0.00000000000E+00  0.00000000000E+00  0.10000000000E+03  0.10000000000E+03 0.  0.
          5    1    3    3  501    0 -0.36073125984E+02  0.20375099769E+02  0.27595196885E+02  0.50000000000E+02  0.47000000000E+01 0. -1.
         -5    1    3    3    0  501  0.36073125984E+02 -0.20375099769E+02 -0.27595196885E+02  0.50000000000E+02  0.47000000000E+01 0.  1.
</event>
<event>
 5    1  0.9071520E-001  0.1000000E+03  0.7546771E-02  0.1163815E+00
         11   -1    0    0    0    0  0.00000000000E+00  0.00000000000E+00  0.50000000000E+02  0.50000000000E+02  0.00000000000E+00 0. -1.
        -11   -1    0    0    0    0 -0.00000000000E+00 -0.00000000000E+00 -0.50000000000E+02  0.50000000000E+02  0.00000000000E+00 0.  1.
         23    2    1    2    0    0  0.00000000000E+00  0.00000000000E+00  0.00000000000E+00  0.10000000000E+03  0.10000000000E+03 0.  0.
          5    1    3    3  501    0  0.10644934126E+02 -0.34535858201E+01  0.48504310349E+02  0.50000000000E+02  0.47000000000E+01 0. -1.
         -5    1    3    3    0  501 -0.10644934126E+02  0.34535858201E+01 -0.48504310349E+02  0.50000000000E+02  0.47000000000E+01 0.  1.
</event>
<event>
 5    1  0.9071520E-001  0.1000000E+03  0.7546771E-02  0.1163815E+00
         11   -1    0    0    0    0  0.00000000000E+00  0.00000000000E+00  0.50000000000E+02  0.50000000000E+02  0.00000000000E+00 0.  1.
        -11   -1    0    0    0    0 -0.00000000000E+00 -0.00000000000E+00 -0.50000000000E+02  0.50000000000E+02  0.00000000000E+00 0. -1.
         23    2    1    2    0    0  0.00000000000E+00  0.00000000000E+00  0.00000000000E+00  0.10000000000E+03  0.10000000000E+03 0.  0.
          5    1    3    3  501    0  0.11367465916E+02 -0.18177103678E+02 -0.44925311579E+02  0.50000000000E+02  0.47000000000E+01 0. -1.
         -5    1    3    3    0  501 -0.11367465916E+02  0.18177103678E+02  0.44925311579E+02  0.50000000000E+02  0.47000000000E+01 0.  1.
</event>
<event>
 5    1  0.9071520E-001  0.1000000E+03  0.7546771E-02  0.1163815E+00
         11   -1    0    0    0    0  0.00000000000E+00  0.00000000000E+00  0.50000000000E+02  0.50000000000E+02  0.00000000000E+00 0.  1.
        -11   -1    0    0    0    0 -0.00000000000E+00 -0.00000000000E+00 -0.50000000000E+02  0.50000000000E+02  0.00000000000E+00 0. -1.
         23    2    1    2    0    0  0.00000000000E+00  0.00000000000E+00  0.00000000000E+00  0.10000000000E+03  0.10000000000E+03 0.  0.
          5    1    3    3  501    0  0.31786759712E+02 -0.26969183562E+02 -0.27206158218E+02  0.50000000000E+02  0.47000000000E+01 0. -1.
         -5    1    3    3    0  501 -0.31786759712E+02  0.26969183562E+02  0.27206158218E+02  0.50000000000E+02  0.47000000000E+01 0.  1.
</event>
<event>
 5    1  0.9071520E-001  0.1000000E+03  0.7546771E-02  0.1163815E+00
         11   -1    0    0    0    0  0.00000000000E+00  0.00000000000E+00  0.50000000000E+02  0.50000000000E+02  0.00000000000E+00 0.  1.
        -11   -1    0    0    0    0 -0.00000000000E+00 -0.00000000000E+00 -0.50000000000E+02  0.50000000000E+02  0.00000000000E+00 0. -1.
         23    2    1    2    0    0  0.00000000000E+00  0.00000000000E+00  0.00000000000E+00  0.10000000000E+03  0.10000000000E+03 0.  0.
          5    1    3    3  501    0  0.50839809557E+01 -0.48070201434E+02 -0.11887761425E+02  0.50000000000E+02  0.47000000000E+01 0. -1.
         -5    1    3    3    0  501 -0.50839809557E+01  0.48070201434E+02  0.11887761425E+02  0.50000000000E+02  0.47000000000E+01 0.  1.
</event>
<event>
 5    1  0.9071520E-001  0.1000000E+03  0.7546771E-02  0.1163815E+00
         11   -1    0    0    0    0  0.00000000000E+00  0.00000000000E+00  0.50000000000E+02  0.50000000000E+02  0.00000000000E+00 0.  1.
        -11   -1    0    0    0    0 -0.00000000000E+00 -0.00000000000E+00 -0.50000000000E+02  0.50000000000E+02  0.00000000000E+00 0. -1.
         23    2    1    2    0    0  0.00000000000E+00  0.00000000000E+00  0.00000000000E+00  0.10000000000E+03  0.10000000000E+03 0.  0.
          5    1    3    3  501    0  0.16312381538E+02  0.42495735697E+02  0.20147671234E+02  0.50000000000E+02  0.47000000000E+01 0. -1.
         -5    1    3    3    0  501 -0.16312381538E+02 -0.42495735697E+02 -0.20147671234E+02  0.50000000000E+02  0.47000000000E+01 0.  1.
</event>
<event>
 5    1  0.9071520E-001  0.1000000E+03  0.7546771E-02  0.1163815E+00
         11   -1    0    0    0    0  0.00000000000E+00  0.00000000000E+00  0.50000000000E+02  0.50000000000E+02  0.00000000000E+00 0. -1.
        -11   -1    0    0    0    0 -0.00000000000E+00 -0.00000000000E+00 -0.50000000000E+02  0.50000000000E+02  0.00000000000E+00 0.  1.
         23    2    1    2    0    0  0.00000000000E+00  0.00000000000E+00  0.00000000000E+00  0.10000000000E+03  0.10000000000E+03 0.  0.
          5    1    3    3  501    0  0.39943488362E+02  0.26923617712E+02 -0.12551754730E+02  0.50000000000E+02  0.47000000000E+01 0. -1.
         -5    1    3    3    0  501 -0.39943488362E+02 -0.26923617712E+02  0.12551754730E+02  0.50000000000E+02  0.47000000000E+01 0.  1.
</event>
<event>
 5    1  0.9071520E-001  0.1000000E+03  0.7546771E-02  0.1163815E+00
         11   -1    0    0    0    0  0.00000000000E+00  0.00000000000E+00  0.50000000000E+02  0.50000000000E+02  0.00000000000E+00 0. -1.
        -11   -1    0    0    0    0 -0.00000000000E+00 -0.00000000000E+00 -0.50000000000E+02  0.50000000000E+02  0.00000000000E+00 0.  1.
         23    2    1    2    0    0  0.00000000000E+00  0.00000000000E+00  0.00000000000E+00  0.10000000000E+03  0.10000000000E+03 0.  0.
          5    1    3    3  501    0 -0.25085665738E+02 -0.23631131518E+02  0.35919200961E+02  0.50000000000E+02  0.47000000000E+01 0. -1.
         -5    1    3    3    0  501  0.25085665738E+02  0.23631131518E+02 -0.35919200961E+02  0.50000000000E+02  0.47000000000E+01 0.  1.
</event>
<event>
 5    1  0.9071520E-001  0.1000000E+03  0.7546771E-02  0.1163815E+00
         11   -1    0    0    0    0  0.00000000000E+00  0.00000000000E+00  0.50000000000E+02  0.50000000000E+02  0.00000000000E+00 0. -1.
        -11   -1    0    0    0    0 -0.00000000000E+00 -0.00000000000E+00 -0.50000000000E+02  0.50000000000E+02  0.00000000000E+00 0.  1.
         23    2    1    2    0    0  0.00000000000E+00  0.00000000000E+00  0.00000000000E+00  0.10000000000E+03  0.10000000000E+03 0.  0.
          5    1    3    3  501    0 -0.23149938919E+02  0.42896244694E+02  0.10094677768E+02  0.50000000000E+02  0.47000000000E+01 0. -1.
         -5    1    3    3    0  501  0.23149938919E+02 -0.42896244694E+02 -0.10094677768E+02  0.50000000000E+02  0.47000000000E+01 0.  1.
</event>
<event>
 5    1  0.9071520E-001  0.1000000E+03  0.7546771E-02  0.1163815E+00
         11   -1    0    0    0    0  0.00000000000E+00  0.00000000000E+00  0.50000000000E+02  0.50000000000E+02  0.00000000000E+00 0. -1.
        -11   -1    0    0    0    0 -0.00000000000E+00 -0.00000000000E+00 -0.50000000000E+02  0.50000000000E+02  0.00000000000E+00 0.  1.
         23    2    1    2    0    0  0.00000000000E+00  0.00000000000E+00  0.00000000000E+00  0.10000000000E+03  0.10000000000E+03 0.  0.
          5    1    3    3  501    0  0.16268440945E+02  0.38022164552E+02  0.27704924328E+02  0.50000000000E+02  0.47000000000E+01 0. -1.
         -5    1    3    3    0  501 -0.16268440945E+02 -0.38022164552E+02 -0.27704924328E+02  0.50000000000E+02  0.47000000000E+01 0.  1.
</event>
<event>
 5    1  0.9071520E-001  0.1000000E+03  0.7546771E-02  0.1163815E+00
         11   -1    0    0    0    0  0.00000000000E+00  0.00000000000E+00  0.50000000000E+02  0.50000000000E+02  0.00000000000E+00 0. -1.
        -11   -1    0    0    0    0 -0.00000000000E+00 -0.00000000000E+00 -0.50000000000E+02  0.50000000000E+02  0.00000000000E+00 0.  1.
         23    2    1    2    0    0  0.00000000000E+00  0.00000000000E+00  0.00000000000E+00  0.10000000000E+03  0.10000000000E+03 0.  0.
          5    1    3    3  501    0 -0.24521741349E+02  0.12285556365E+02  0.41541055668E+02  0.50000000000E+02  0.47000000000E+01 0. -1.
         -5    1    3    3    0  501  0.24521741349E+02 -0.12285556365E+02 -0.41541055668E+02  0.50000000000E+02  0.47000000000E+01 0.  1.
</event>
<event>
 5    1  0.9071520E-001  0.1000000E+03  0.7546771E-02  0.1163815E+00
         11   -1    0    0    0    0  0.00000000000E+00  0.00000000000E+00  0.50000000000E+02  0.50000000000E+02  0.00000000000E+00 0. -1.
        -11   -1    0    0    0    0 -0.00000000000E+00 -0.00000000000E+00 -0.50000000000E+02  0.50000000000E+02  0.00000000000E+00 0.  1.
         23    2    1    2    0    0  0.00000000000E+00  0.00000000000E+00  0.00000000000E+00  0.10000000000E+03  0.10000000000E+03 0.  0.
          5    1    3    3  501    0  0.40585180182E+02 -0.24820696504E+02  0.14652173036E+02  0.50000000000E+02  0.47000000000E+01 0. -1.
         -5    1    3    3    0  501 -0.40585180182E+02  0.24820696504E+02 -0.14652173036E+02  0.50000000000E+02  0.47000000000E+01 0.  1.
</event>
<event>
 5    1  0.9071520E-001  0.1000000E+03  0.7546771E-02  0.1163815E+00
         11   -1    0    0    0    0  0.00000000000E+00  0.00000000000E+00  0.50000000000E+02  0.50000000000E+02  0.00000000000E+00 0.  1.
        -11   -1    0    0    0    0 -0.00000000000E+00 -0.00000000000E+00 -0.50000000000E+02  0.50000000000E+02  0.00000000000E+00 0. -1.
         23    2    1    2    0    0  0.00000000000E+00  0.00000000000E+00  0.00000000000E+00  0.10000000000E+03  0.10000000000E+03 0.  0.
          5    1    3    3  501    0  0.42279536448E+00 -0.46987952649E+02 -0.16427524157E+02  0.50000000000E+02  0.47000000000E+01 0. -1.
         -5    1    3    3    0  501 -0.42279536448E+00  0.46987952649E+02  0.16427524157E+02  0.50000000000E+02  0.47000000000E+01 0.  1.
</event>
<event>
 5    1  0.9071520E-001  0.1000000E+03  0.7546771E-02  0.1163815E+00
         11   -1    0    0    0    0  0.00000000000E+00  0.00000000000E+00  0.50000000000E+02  0.50000000000E+02  0.00000000000E+00 0. -1.
        -11   -1    0    0    0    0 -0.00000000000E+00 -0.00000000000E+00 -0.50000000000E+02  0.50000000000E+02  0.00000000000E+00 0.  1.
         23    2    1    2    0    0  0.00000000000E+00  0.00000000000E+00  0.00000000000E+00  0.10000000000E+03  0.10000000000E+03 0.  0.
          5    1    3    3  501    0  0.35561727395E+02 -0.30702438561E+02  0.16450951677E+02  0.50000000000E+02  0.47000000000E+01 0. -1.
         -5    1    3    3    0  501 -0.35561727395E+02  0.30702438561E+02 -0.16450951677E+02  0.50000000000E+02  0.47000000000E+01 0.  1.
</event>
<event>
 5    1  0.9071520E-001  0.1000000E+03  0.7546771E-02  0.1163815E+00
         11   -1    0    0    0    0  0.00000000000E+00  0.00000000000E+00  0.50000000000E+02  0.50000000000E+02  0.00000000000E+00 0. -1.
        -11   -1    0    0    0    0 -0.00000000000E+00 -0.00000000000E+00 -0.50000000000E+02  0.50000000000E+02  0.00000000000E+00 0.  1.
         23    2    1    2    0    0  0.00000000000E+00  0.00000000000E+00  0.00000000000E+00  0.10000000000E+03  0.10000000000E+03 0.  0.
          5    1    3    3  501    0 -0.27891009667E+02  0.21090890757E+01  0.41177097069E+02  0.50000000000E+02  0.47000000000E+01 0. -1.
         -5    1    3    3    0  501  0.27891009667E+02 -0.21090890757E+01 -0.41177097069E+02  0.50000000000E+02  0.47000000000E+01 0.  1.
</event>
<event>
 5    1  0.9071520E-001  0.1000000E+03  0.7546771E-02  0.1163815E+00
         11   -1    0    0    0    0  0.00000000000E+00  0.00000000000E+00  0.50000000000E+02  0.50000000000E+02  0.00000000000E+00 0.  1.
        -11   -1    0    0    0    0 -0.00000000000E+00 -0.00000000000E+00 -0.50000000000E+02  0.50000000000E+02  0.00000000000E+00 0. -1.
         23    2    1    2    0    0  0.00000000000E+00  0.00000000000E+00  0.00000000000E+00  0.10000000000E+03  0.10000000000E+03 0.  0.
          5    1    3    3  501    0 -0.33060355523E+02 -0.18518492990E+02 -0.32279843712E+02  0.50000000000E+02  0.47000000000E+01 0. -1.
         -5    1    3    3    0  501  0.33060355523E+02  0.18518492990E+02  0.32279843712E+02  0.50000000000E+02  0.47000000000E+01 0.  1.
</event>
<event>
 5    1  0.9071520E-001  0.1000000E+03  0.7546771E-02  0.1163815E+00
         11   -1    0    0    0    0  0.00000000000E+00  0.00000000000E+00  0.50000000000E+02  0.50000000000E+02  0.00000000000E+00 0.  1.
        -11   -1    0    0    0    0 -0.00000000000E+00 -0.00000000000E+00 -0.50000000000E+02  0.50000000000E+02  0.00000000000E+00 0. -1.
         23    2    1    2    0    0  0.00000000000E+00  0.00000000000E+00  0.00000000000E+00  0.10000000000E+03  0.10000000000E+03 0.  0.
          5    1    3    3  501    0 -0.12887902725E+02 -0.46224824471E+02 -0.13231687949E+02  0.50000000000E+02  0.47000000000E+01 0. -1.
         -5    1    3    3    0  501  0.12887902725E+02  0.46224824471E+02  0.13231687949E+02  0.50000000000E+02  0.47000000000E+01 0.  1.
</event>
<event>
 5    1  0.9071520E-001  0.1000000E+03  0.7546771E-02  0.1163815E+00
         11   -1    0    0    0    0  0.00000000000E+00  0.00000000000E+00  0.50000000000E+02  0.50000000000E+02  0.00000000000E+00 0. -1.
        -11   -1    0    0    0    0 -0.00000000000E+00 -0.00000000000E+00 -0.50000000000E+02  0.50000000000E+02  0.00000000000E+00 0.  1.
         23    2    1    2    0    0  0.00000000000E+00  0.00000000000E+00  0.00000000000E+00  0.10000000000E+03  0.10000000000E+03 0.  0.
          5    1    3    3  501    0 -0.12356310147E+02  0.68459893173E+01  0.47732211659E+02  0.50000000000E+02  0.47000000000E+01 0. -1.
         -5    1    3    3    0  501  0.12356310147E+02 -0.68459893173E+01 -0.47732211659E+02  0.50000000000E+02  0.47000000000E+01 0.  1.
</event>
<event>
 5    1  0.9071520E-001  0.1000000E+03  0.7546771E-02  0.1163815E+00
         11   -1    0    0    0    0  0.00000000000E+00  0.00000000000E+00  0.50000000000E+02  0.50000000000E+02  0.00000000000E+00 0. -1.
        -11   -1    0    0    0    0 -0.00000000000E+00 -0.00000000000E+00 -0.50000000000E+02  0.50000000000E+02  0.00000000000E+00 0.  1.
         23    2    1    2    0    0  0.00000000000E+00  0.00000000000E+00  0.00000000000E+00  0.10000000000E+03  0.10000000000E+03 0.  0.
          5    1    3    3  501    0  0.19258305009E+02  0.28313931024E+02  0.36129613867E+02  0.50000000000E+02  0.47000000000E+01 0. -1.
         -5    1    3    3    0  501 -0.19258305009E+02 -0.28313931024E+02 -0.36129613867E+02  0.50000000000E+02  0.47000000000E+01 0.  1.
</event>
<event>
 5    1  0.9071520E-001  0.1000000E+03  0.7546771E-02  0.1163815E+00
         11   -1    0    0    0    0  0.00000000000E+00  0.00000000000E+00  0.50000000000E+02  0.50000000000E+02  0.00000000000E+00 0.  1.
        -11   -1    0    0    0    0 -0.00000000000E+00 -0.00000000000E+00 -0.50000000000E+02  0.50000000000E+02  0.00000000000E+00 0. -1.
         23    2    1    2    0    0  0.00000000000E+00  0.00000000000E+00  0.00000000000E+00  0.10000000000E+03  0.10000000000E+03 0.  0.
          5    1    3    3  501    0 -0.47242094844E+02 -0.13665701585E+02  0.77034456551E+01  0.50000000000E+02  0.47000000000E+01 0. -1.
         -5    1    3    3    0  501  0.47242094844E+02  0.13665701585E+02 -0.77034456551E+01  0.50000000000E+02  0.47000000000E+01 0.  1.
</event>
<event>
 5    1  0.9071520E-001  0.1000000E+03  0.7546771E-02  0.1163815E+00
         11   -1    0    0    0    0  0.00000000000E+00  0.00000000000E+00  0.50000000000E+02  0.50000000000E+02  0.00000000000E+00 0.  1.
        -11   -1    0    0    0    0 -0.00000000000E+00 -0.00000000000E+00 -0.50000000000E+02  0.50000000000E+02  0.00000000000E+00 0. -1.
         23    2    1    2    0    0  0.00000000000E+00  0.00000000000E+00  0.00000000000E+00  0.10000000000E+03  0.10000000000E+03 0.  0.
          5    1    3    3  501    0 -0.40081729850E+02  0.18447797765E+02 -0.23044385214E+02  0.50000000000E+02  0.47000000000E+01 0. -1.
         -5    1    3    3    0  501  0.40081729850E+02 -0.18447797765E+02  0.23044385214E+02  0.50000000000E+02  0.47000000000E+01 0.  1.
</event>
<event>
 5    1  0.9071520E-001  0.1000000E+03  0.7546771E-02  0.1163815E+00
         11   -1    0    0    0    0  0.00000000000E+00  0.00000000000E+00  0.50000000000E+02  0.50000000000E+02  0.00000000000E+00 0. -1.
        -11   -1    0    0    0    0 -0.00000000000E+00 -0.00000000000E+00 -0.50000000000E+02  0.50000000000E+02  0.00000000000E+00 0.  1.
         23    2    1    2    0    0  0.00000000000E+00  0.00000000000E+00  0.00000000000E+00  0.10000000000E+03  0.10000000000E+03 0.  0.
          5    1    3    3  501    0 -0.68543456812E+01  0.19659077815E+02  0.45215579226E+02  0.50000000000E+02  0.47000000000E+01 0. -1.
         -5    1    3    3    0  501  0.68543456812E+01 -0.19659077815E+02 -0.45215579226E+02  0.50000000000E+02  0.47000000000E+01 0.  1.
</event>
<event>
 5    1  0.9071520E-001  0.1000000E+03  0.7546771E-02  0.1163815E+00
         11   -1    0    0    0    0  0.00000000000E+00  0.00000000000E+00  0.50000000000E+02  0.50000000000E+02  0.00000000000E+00 0. -1.
        -11   -1    0    0    0    0 -0.00000000000E+00 -0.00000000000E+00 -0.50000000000E+02  0.50000000000E+02  0.00000000000E+00 0.  1.
         23    2    1    2    0    0  0.00000000000E+00  0.00000000000E+00  0.00000000000E+00  0.10000000000E+03  0.10000000000E+03 0.  0.
          5    1    3    3  501    0  0.15145651352E+02 -0.25328221480E+02  0.40087410016E+02  0.50000000000E+02  0.47000000000E+01 0. -1.
         -5    1    3    3    0  501 -0.15145651352E+02  0.25328221480E+02 -0.40087410016E+02  0.50000000000E+02  0.47000000000E+01 0.  1.
</event>
<event>
 5    1  0.9071520E-001  0.1000000E+03  0.7546771E-02  0.1163815E+00
         11   -1    0    0    0    0  0.00000000000E+00  0.00000000000E+00  0.50000000000E+02  0.50000000000E+02  0.00000000000E+00 0.  1.
        -11   -1    0    0    0    0 -0.00000000000E+00 -0.00000000000E+00 -0.50000000000E+02  0.50000000000E+02  0.00000000000E+00 0. -1.
         23    2    1    2    0    0  0.00000000000E+00  0.00000000000E+00  0.00000000000E+00  0.10000000000E+03  0.10000000000E+03 0.  0.
          5    1    3    3  501    0  0.19032373731E+02  0.34571841431E+02 -0.30339191324E+02  0.50000000000E+02  0.47000000000E+01 0. -1.
         -5    1    3    3    0  501 -0.19032373731E+02 -0.34571841431E+02  0.30339191324E+02  0.50000000000E+02  0.47000000000E+01 0.  1.
</event>
<event>
 5    1  0.9071520E-001  0.1000000E+03  0.7546771E-02  0.1163815E+00
         11   -1    0    0    0    0  0.00000000000E+00  0.00000000000E+00  0.50000000000E+02  0.50000000000E+02  0.00000000000E+00 0. -1.
        -11   -1    0    0    0    0 -0.00000000000E+00 -0.00000000000E+00 -0.50000000000E+02  0.50000000000E+02  0.00000000000E+00 0.  1.
         23    2    1    2    0    0  0.00000000000E+00  0.00000000000E+00  0.00000000000E+00  0.10000000000E+03  0.10000000000E+03 0.  0.
          5    1    3    3  501    0  0.13347732700E+02  0.15151544347E+02  0.45499216869E+02  0.50000000000E+02  0.47000000000E+01 0. -1.
         -5    1    3    3    0  501 -0.13347732700E+02 -0.15151544347E+02 -0.45499216869E+02  0.50000000000E+02  0.47000000000E+01 0.  1.
</event>
<event>
 5    1  0.9071520E-001  0.1000000E+03  0.7546771E-02  0.1163815E+00
         11   -1    0    0    0    0  0.00000000000E+00  0.00000000000E+00  0.50000000000E+02  0.50000000000E+02  0.00000000000E+00 0. -1.
        -11   -1    0    0    0    0 -0.00000000000E+00 -0.00000000000E+00 -0.50000000000E+02  0.50000000000E+02  0.00000000000E+00 0.  1.
         23    2    1    2    0    0  0.00000000000E+00  0.00000000000E+00  0.00000000000E+00  0.10000000000E+03  0.10000000000E+03 0.  0.
          5    1    3    3  501    0  0.47744171652E+02 -0.90519861758E+01 -0.10791923810E+02  0.50000000000E+02  0.47000000000E+01 0. -1.
         -5    1    3    3    0  501 -0.47744171652E+02  0.90519861758E+01  0.10791923810E+02  0.50000000000E+02  0.47000000000E+01 0.  1.
</event>
<event>
 5    1  0.9071520E-001  0.1000000E+03  0.7546771E-02  0.1163815E+00
         11   -1    0    0    0    0  0.00000000000E+00  0.00000000000E+00  0.50000000000E+02  0.50000000000E+02  0.00000000000E+00 0.  1.
        -11   -1    0    0    0    0 -0.00000000000E+00 -0.00000000000E+00 -0.50000000000E+02  0.50000000000E+02  0.00000000000E+00 0. -1.
         23    2    1    2    0    0  0.00000000000E+00  0.00000000000E+00  0.00000000000E+00  0.10000000000E+03  0.10000000000E+03 0.  0.
          5    1    3    3  501    0  0.85767288654E+01  0.13587186492E+02 -0.47114096460E+02  0.50000000000E+02  0.47000000000E+01 0. -1.
         -5    1    3    3    0  501 -0.85767288654E+01 -0.13587186492E+02  0.47114096460E+02  0.50000000000E+02  0.47000000000E+01 0.  1.
</event>
<event>
 5    1  0.9071520E-001  0.1000000E+03  0.7546771E-02  0.1163815E+00
         11   -1    0    0    0    0  0.00000000000E+00  0.00000000000E+00  0.50000000000E+02  0.50000000000E+02  0.00000000000E+00 0.  1.
        -11   -1    0    0    0    0 -0.00000000000E+00 -0.00000000000E+00 -0.50000000000E+02  0.50000000000E+02  0.00000000000E+00 0. -1.
         23    2    1    2    0    0  0.00000000000E+00  0.00000000000E+00  0.00000000000E+00  0.10000000000E+03  0.10000000000E+03 0.  0.
          5    1    3    3  501    0 -0.18581656150E+02  0.29871643653E+02 -0.35218133968E+02  0.50000000000E+02  0.47000000000E+01 0. -1.
         -5    1    3    3    0  501  0.18581656150E+02 -0.29871643653E+02  0.35218133968E+02  0.50000000000E+02  0.47000000000E+01 0.  1.
</event>
<event>
 5    1  0.9071520E-001  0.1000000E+03  0.7546771E-02  0.1163815E+00
         11   -1    0    0    0    0  0.00000000000E+00  0.00000000000E+00  0.50000000000E+02  0.50000000000E+02  0.00000000000E+00 0. -1.
        -11   -1    0    0    0    0 -0.00000000000E+00 -0.00000000000E+00 -0.50000000000E+02  0.50000000000E+02  0.00000000000E+00 0.  1.
         23    2    1    2    0    0  0.00000000000E+00  0.00000000000E+00  0.00000000000E+00  0.10000000000E+03  0.10000000000E+03 0.  0.
          5    1    3    3  501    0  0.23905445129E+02  0.85024602565E+01  0.42826952527E+02  0.50000000000E+02  0.47000000000E+01 0. -1.
         -5    1    3    3    0  501 -0.23905445129E+02 -0.85024602565E+01 -0.42826952527E+02  0.50000000000E+02  0.47000000000E+01 0.  1.
</event>
<event>
 5    1  0.9071520E-001  0.1000000E+03  0.7546771E-02  0.1163815E+00
         11   -1    0    0    0    0  0.00000000000E+00  0.00000000000E+00  0.50000000000E+02  0.50000000000E+02  0.00000000000E+00 0. -1.
        -11   -1    0    0    0    0 -0.00000000000E+00 -0.00000000000E+00 -0.50000000000E+02  0.50000000000E+02  0.00000000000E+00 0.  1.
         23    2    1    2    0    0  0.00000000000E+00  0.00000000000E+00  0.00000000000E+00  0.10000000000E+03  0.10000000000E+03 0.  0.
          5    1    3    3  501    0 -0.51960631379E+00 -0.35392173576E+02  0.35000486551E+02  0.50000000000E+02  0.47000000000E+01 0. -1.
         -5    1    3    3    0  501  0.51960631379E+00  0.35392173576E+02 -0.35000486551E+02  0.50000000000E+02  0.47000000000E+01 0.  1.
</event>
<event>
 5    1  0.9071520E-001  0.1000000E+03  0.7546771E-02  0.1163815E+00
         11   -1    0    0    0    0  0.00000000000E+00  0.00000000000E+00  0.50000000000E+02  0.50000000000E+02  0.00000000000E+00 0.  1.
        -11   -1    0    0    0    0 -0.00000000000E+00 -0.00000000000E+00 -0.50000000000E+02  0.50000000000E+02  0.00000000000E+00 0. -1.
         23    2    1    2    0    0  0.00000000000E+00  0.00000000000E+00  0.00000000000E+00  0.10000000000E+03  0.10000000000E+03 0.  0.
          5    1    3    3  501    0 -0.36501709854E+02 -0.19842193303E+02 -0.27419382610E+02  0.50000000000E+02  0.47000000000E+01 0. -1.
         -5    1    3    3    0  501  0.36501709854E+02  0.19842193303E+02  0.27419382610E+02  0.50000000000E+02  0.47000000000E+01 0.  1.
</event>
<event>
 5    1  0.9071520E-001  0.1000000E+03  0.7546771E-02  0.1163815E+00
         11   -1    0    0    0    0  0.00000000000E+00  0.00000000000E+00  0.50000000000E+02  0.50000000000E+02  0.00000000000E+00 0.  1.
        -11   -1    0    0    0    0 -0.00000000000E+00 -0.00000000000E+00 -0.50000000000E+02  0.50000000000E+02  0.00000000000E+00 0. -1.
         23    2    1    2    0    0  0.00000000000E+00  0.00000000000E+00  0.00000000000E+00  0.10000000000E+03  0.10000000000E+03 0.  0.
          5    1    3    3  501    0  0.12174418444E+02  0.47563640021E+02  0.82093655988E+01  0.50000000000E+02  0.47000000000E+01 0. -1.
         -5    1    3    3    0  501 -0.12174418444E+02 -0.47563640021E+02 -0.82093655988E+01  0.50000000000E+02  0.47000000000E+01 0.  1.
</event>
<event>
 5    1  0.9071520E-001  0.1000000E+03  0.7546771E-02  0.1163815E+00
         11   -1    0    0    0    0  0.00000000000E+00  0.00000000000E+00  0.50000000000E+02  0.50000000000E+02  0.00000000000E+00 0. -1.
        -11   -1    0    0    0    0 -0.00000000000E+00 -0.00000000000E+00 -0.50000000000E+02  0.50000000000E+02  0.00000000000E+00 0.  1.
         23    2    1    2    0    0  0.00000000000E+00  0.00000000000E+00  0.00000000000E+00  0.10000000000E+03  0.10000000000E+03 0.  0.
          5    1    3    3  501    0  0.27987345785E+02  0.29171524245E+02  0.29045492751E+02  0.50000000000E+02  0.47000000000E+01 0. -1.
         -5    1    3    3    0  501 -0.27987345785E+02 -0.29171524245E+02 -0.29045492751E+02  0.50000000000E+02  0.47000000000E+01 0.  1.
</event>
<event>
 5    1  0.9071520E-001  0.1000000E+03  0.7546771E-02  0.1163815E+00
         11   -1    0    0    0    0  0.00000000000E+00  0.00000000000E+00  0.50000000000E+02  0.50000000000E+02  0.00000000000E+00 0. -1.
        -11   -1    0    0    0    0 -0.00000000000E+00 -0.00000000000E+00 -0.50000000000E+02  0.50000000000E+02  0.00000000000E+00 0.  1.
         23    2    1    2    0    0  0.00000000000E+00  0.00000000000E+00  0.00000000000E+00  0.10000000000E+03  0.10000000000E+03 0.  0.
          5    1    3    3  501    0 -0.97804431233E+01  0.23102339871E+02  0.42994590646E+02  0.50000000000E+02  0.47000000000E+01 0. -1.
         -5    1    3    3    0  501  0.97804431233E+01 -0.23102339871E+02 -0.42994590646E+02  0.50000000000E+02  0.47000000000E+01 0.  1.
</event>
<event>
 5    1  0.9071520E-001  0.1000000E+03  0.7546771E-02  0.1163815E+00
         11   -1    0    0    0    0  0.00000000000E+00  0.00000000000E+00  0.50000000000E+02  0.50000000000E+02  0.00000000000E+00 0. -1.
        -11   -1    0    0    0    0 -0.00000000000E+00 -0.00000000000E+00 -0.50000000000E+02  0.50000000000E+02  0.00000000000E+00 0.  1.
         23    2    1    2    0    0  0.00000000000E+00  0.00000000000E+00  0.00000000000E+00  0.10000000000E+03  0.10000000000E+03 0.  0.
          5    1    3    3  501    0  0.10245267861E+02 -0.21693028383E+02  0.43616017769E+02  0.50000000000E+02  0.47000000000E+01 0. -1.
         -5    1    3    3    0  501 -0.10245267861E+02  0.21693028383E+02 -0.43616017769E+02  0.50000000000E+02  0.47000000000E+01 0.  1.
</event>
<event>
 5    1  0.9071520E-001  0.1000000E+03  0.7546771E-02  0.1163815E+00
         11   -1    0    0    0    0  0.00000000000E+00  0.00000000000E+00  0.50000000000E+02  0.50000000000E+02  0.00000000000E+00 0. -1.
        -11   -1    0    0    0    0 -0.00000000000E+00 -0.00000000000E+00 -0.50000000000E+02  0.50000000000E+02  0.00000000000E+00 0.  1.
         23    2    1    2    0    0  0.00000000000E+00  0.00000000000E+00  0.00000000000E+00  0.10000000000E+03  0.10000000000E+03 0.  0.
          5    1    3    3  501    0 -0.23862178986E+02 -0.14779711828E+02  0.41110418781E+02  0.50000000000E+02  0.47000000000E+01 0. -1.
         -5    1    3    3    0  501  0.23862178986E+02  0.14779711828E+02 -0.41110418781E+02  0.50000000000E+02  0.47000000000E+01 0.  1.
</event>
<event>
 5    1  0.9071520E-001  0.1000000E+03  0.7546771E-02  0.1163815E+00
         11   -1    0    0    0    0  0.00000000000E+00  0.00000000000E+00  0.50000000000E+02  0.50000000000E+02  0.00000000000E+00 0. -1.
        -11   -1    0    0    0    0 -0.00000000000E+00 -0.00000000000E+00 -0.50000000000E+02  0.50000000000E+02  0.00000000000E+00 0.  1.
         23    2    1    2    0    0  0.00000000000E+00  0.00000000000E+00  0.00000000000E+00  0.10000000000E+03  0.10000000000E+03 0.  0.
          5    1    3    3  501    0  0.88106048794E+01  0.72956317104E+01  0.48446434333E+02  0.50000000000E+02  0.47000000000E+01 0. -1.
         -5    1    3    3    0  501 -0.88106048794E+01 -0.72956317104E+01 -0.48446434333E+02  0.50000000000E+02  0.47000000000E+01 0.  1.
</event>
<event>
 5    1  0.9071520E-001  0.1000000E+03  0.7546771E-02  0.1163815E+00
         11   -1    0    0    0    0  0.00000000000E+00  0.00000000000E+00  0.50000000000E+02  0.50000000000E+02  0.00000000000E+00 0. -1.
        -11   -1    0    0    0    0 -0.00000000000E+00 -0.00000000000E+00 -0.50000000000E+02  0.50000000000E+02  0.00000000000E+00 0.  1.
         23    2    1    2    0    0  0.00000000000E+00  0.00000000000E+00  0.00000000000E+00  0.10000000000E+03  0.10000000000E+03 0.  0.
          5    1    3    3  501    0 -0.32744375643E+02 -0.37384173685E+02  0.28529671729E+01  0.50000000000E+02  0.47000000000E+01 0. -1.
         -5    1    3    3    0  501  0.32744375643E+02  0.37384173685E+02 -0.28529671729E+01  0.50000000000E+02  0.47000000000E+01 0.  1.
</event>
<event>
 5    1  0.9071520E-001  0.1000000E+03  0.7546771E-02  0.1163815E+00
         11   -1    0    0    0    0  0.00000000000E+00  0.00000000000E+00  0.50000000000E+02  0.50000000000E+02  0.00000000000E+00 0. -1.
        -11   -1    0    0    0    0 -0.00000000000E+00 -0.00000000000E+00 -0.50000000000E+02  0.50000000000E+02  0.00000000000E+00 0.  1.
         23    2    1    2    0    0  0.00000000000E+00  0.00000000000E+00  0.00000000000E+00  0.10000000000E+03  0.10000000000E+03 0.  0.
          5    1    3    3  501    0 -0.36810058485E+02  0.28732512266E+02  0.17244487038E+02  0.50000000000E+02  0.47000000000E+01 0. -1.
         -5    1    3    3    0  501  0.36810058485E+02 -0.28732512266E+02 -0.17244487038E+02  0.50000000000E+02  0.47000000000E+01 0.  1.
</event>
<event>
 5    1  0.9071520E-001  0.1000000E+03  0.7546771E-02  0.1163815E+00
         11   -1    0    0    0    0  0.00000000000E+00  0.00000000000E+00  0.50000000000E+02  0.50000000000E+02  0.00000000000E+00 0. -1.
        -11   -1    0    0    0    0 -0.00000000000E+00 -0.00000000000E+00 -0.50000000000E+02  0.50000000000E+02  0.00000000000E+00 0.  1.
         23    2    1    2    0    0  0.00000000000E+00  0.00000000000E+00  0.00000000000E+00  0.10000000000E+03  0.10000000000E+03 0.  0.
          5    1    3    3  501    0 -0.10348539692E+00 -0.17550792399E+02  0.46581852442E+02  0.50000000000E+02  0.47000000000E+01 0. -1.
         -5    1    3    3    0  501  0.10348539692E+00  0.17550792399E+02 -0.46581852442E+02  0.50000000000E+02  0.47000000000E+01 0.  1.
</event>
<event>
 5    1  0.9071520E-001  0.1000000E+03  0.7546771E-02  0.1163815E+00
         11   -1    0    0    0    0  0.00000000000E+00  0.00000000000E+00  0.50000000000E+02  0.50000000000E+02  0.00000000000E+00 0. -1.
        -11   -1    0    0    0    0 -0.00000000000E+00 -0.00000000000E+00 -0.50000000000E+02  0.50000000000E+02  0.00000000000E+00 0.  1.
         23    2    1    2    0    0  0.00000000000E+00  0.00000000000E+00  0.00000000000E+00  0.10000000000E+03  0.10000000000E+03 0.  0.
          5    1    3    3  501    0 -0.12552850920E+02 -0.48121072146E+02 -0.21675675929E+01  0.50000000000E+02  0.47000000000E+01 0. -1.
         -5    1    3    3    0  501  0.12552850920E+02  0.48121072146E+02  0.21675675929E+01  0.50000000000E+02  0.47000000000E+01 0.  1.
</event>
<event>
 5    1  0.9071520E-001  0.1000000E+03  0.7546771E-02  0.1163815E+00
         11   -1    0    0    0    0  0.00000000000E+00  0.00000000000E+00  0.50000000000E+02  0.50000000000E+02  0.00000000000E+00 0. -1.
        -11   -1    0    0    0    0 -0.00000000000E+00 -0.00000000000E+00 -0.50000000000E+02  0.50000000000E+02  0.00000000000E+00 0.  1.
         23    2    1    2    0    0  0.00000000000E+00  0.00000000000E+00  0.00000000000E+00  0.10000000000E+03  0.10000000000E+03 0.  0.
          5    1    3    3  501    0  0.18120872295E+02  0.11425794590E+02  0.44933230523E+02  0.50000000000E+02  0.47000000000E+01 0. -1.
         -5    1    3    3    0  501 -0.18120872295E+02 -0.11425794590E+02 -0.44933230523E+02  0.50000000000E+02  0.47000000000E+01 0.  1.
</event>
<event>
 5    1  0.9071520E-001  0.1000000E+03  0.7546771E-02  0.1163815E+00
         11   -1    0    0    0    0  0.00000000000E+00  0.00000000000E+00  0.50000000000E+02  0.50000000000E+02  0.00000000000E+00 0. -1.
        -11   -1    0    0    0    0 -0.00000000000E+00 -0.00000000000E+00 -0.50000000000E+02  0.50000000000E+02  0.00000000000E+00 0.  1.
         23    2    1    2    0    0  0.00000000000E+00  0.00000000000E+00  0.00000000000E+00  0.10000000000E+03  0.10000000000E+03 0.  0.
          5    1    3    3  501    0 -0.30756536336E+02 -0.36257156993E+02  0.14743270988E+02  0.50000000000E+02  0.47000000000E+01 0. -1.
         -5    1    3    3    0  501  0.30756536336E+02  0.36257156993E+02 -0.14743270988E+02  0.50000000000E+02  0.47000000000E+01 0.  1.
</event>
<event>
 5    1  0.9071520E-001  0.1000000E+03  0.7546771E-02  0.1163815E+00
         11   -1    0    0    0    0  0.00000000000E+00  0.00000000000E+00  0.50000000000E+02  0.50000000000E+02  0.00000000000E+00 0. -1.
        -11   -1    0    0    0    0 -0.00000000000E+00 -0.00000000000E+00 -0.50000000000E+02  0.50000000000E+02  0.00000000000E+00 0.  1.
         23    2    1    2    0    0  0.00000000000E+00  0.00000000000E+00  0.00000000000E+00  0.10000000000E+03  0.10000000000E+03 0.  0.
          5    1    3    3  501    0  0.23546144549E+02 -0.22732967855E+02  0.37506016176E+02  0.50000000000E+02  0.47000000000E+01 0. -1.
         -5    1    3    3    0  501 -0.23546144549E+02  0.22732967855E+02 -0.37506016176E+02  0.50000000000E+02  0.47000000000E+01 0.  1.
</event>
<event>
 5    1  0.9071520E-001  0.1000000E+03  0.7546771E-02  0.1163815E+00
         11   -1    0    0    0    0  0.00000000000E+00  0.00000000000E+00  0.50000000000E+02  0.50000000000E+02  0.00000000000E+00 0.  1.
        -11   -1    0    0    0    0 -0.00000000000E+00 -0.00000000000E+00 -0.50000000000E+02  0.50000000000E+02  0.00000000000E+00 0. -1.
         23    2    1    2    0    0  0.00000000000E+00  0.00000000000E+00  0.00000000000E+00  0.10000000000E+03  0.10000000000E+03 0.  0.
          5    1    3    3  501    0 -0.19565895567E+02  0.38282125261E+02 -0.25091126244E+02  0.50000000000E+02  0.47000000000E+01 0. -1.
         -5    1    3    3    0  501  0.19565895567E+02 -0.38282125261E+02  0.25091126244E+02  0.50000000000E+02  0.47000000000E+01 0.  1.
</event>
<event>
 5    1  0.9071520E-001  0.1000000E+03  0.7546771E-02  0.1163815E+00
         11   -1    0    0    0    0  0.00000000000E+00  0.00000000000E+00  0.50000000000E+02  0.50000000000E+02  0.00000000000E+00 0. -1.
        -11   -1    0    0    0    0 -0.00000000000E+00 -0.00000000000E+00 -0.50000000000E+02  0.50000000000E+02  0.00000000000E+00 0.  1.
         23    2    1    2    0    0  0.00000000000E+00  0.00000000000E+00  0.00000000000E+00  0.10000000000E+03  0.10000000000E+03 0.  0.
          5    1    3    3  501    0 -0.18328674252E+02 -0.61405053895E+00  0.46277344804E+02  0.50000000000E+02  0.47000000000E+01 0. -1.
         -5    1    3    3    0  501  0.18328674252E+02  0.61405053895E+00 -0.46277344804E+02  0.50000000000E+02  0.47000000000E+01 0.  1.
</event>
<event>
 5    1  0.9071520E-001  0.1000000E+03  0.7546771E-02  0.1163815E+00
         11   -1    0    0    0    0  0.00000000000E+00  0.00000000000E+00  0.50000000000E+02  0.50000000000E+02  0.00000000000E+00 0. -1.
        -11   -1    0    0    0    0 -0.00000000000E+00 -0.00000000000E+00 -0.50000000000E+02  0.50000000000E+02  0.00000000000E+00 0.  1.
         23    2    1    2    0    0  0.00000000000E+00  0.00000000000E+00  0.00000000000E+00  0.10000000000E+03  0.10000000000E+03 0.  0.
          5    1    3    3  501    0  0.53824590985E+01 -0.46140222338E+02  0.17889075342E+02  0.50000000000E+02  0.47000000000E+01 0. -1.
         -5    1    3    3    0  501 -0.53824590985E+01  0.46140222338E+02 -0.17889075342E+02  0.50000000000E+02  0.47000000000E+01 0.  1.
</event>
<event>
 5    1  0.9071520E-001  0.1000000E+03  0.7546771E-02  0.1163815E+00
         11   -1    0    0    0    0  0.00000000000E+00  0.00000000000E+00  0.50000000000E+02  0.50000000000E+02  0.00000000000E+00 0. -1.
        -11   -1    0    0    0    0 -0.00000000000E+00 -0.00000000000E+00 -0.50000000000E+02  0.50000000000E+02  0.00000000000E+00 0.  1.
         23    2    1    2    0    0  0.00000000000E+00  0.00000000000E+00  0.00000000000E+00  0.10000000000E+03  0.10000000000E+03 0.  0.
          5    1    3    3  501    0 -0.16490642261E+02  0.77374373871E+01  0.46326027031E+02  0.50000000000E+02  0.47000000000E+01 0. -1.
         -5    1    3    3    0  501  0.16490642261E+02 -0.77374373871E+01 -0.46326027031E+02  0.50000000000E+02  0.47000000000E+01 0.  1.
</event>
<event>
 5    1  0.9071520E-001  0.1000000E+03  0.7546771E-02  0.1163815E+00
         11   -1    0    0    0    0  0.00000000000E+00  0.00000000000E+00  0.50000000000E+02  0.50000000000E+02  0.00000000000E+00 0. -1.
        -11   -1    0    0    0    0 -0.00000000000E+00 -0.00000000000E+00 -0.50000000000E+02  0.50000000000E+02  0.00000000000E+00 0.  1.
         23    2    1    2    0    0  0.00000000000E+00  0.00000000000E+00  0.00000000000E+00  0.10000000000E+03  0.10000000000E+03 0.  0.
          5    1    3    3  501    0  0.39611448219E+02 -0.85063181871E+01  0.28922062874E+02  0.50000000000E+02  0.47000000000E+01 0. -1.
         -5    1    3    3    0  501 -0.39611448219E+02  0.85063181871E+01 -0.28922062874E+02  0.50000000000E+02  0.47000000000E+01 0.  1.
</event>
<event>
 5    1  0.9071520E-001  0.1000000E+03  0.7546771E-02  0.1163815E+00
         11   -1    0    0    0    0  0.00000000000E+00  0.00000000000E+00  0.50000000000E+02  0.50000000000E+02  0.00000000000E+00 0.  1.
        -11   -1    0    0    0    0 -0.00000000000E+00 -0.00000000000E+00 -0.50000000000E+02  0.50000000000E+02  0.00000000000E+00 0. -1.
         23    2    1    2    0    0  0.00000000000E+00  0.00000000000E+00  0.00000000000E+00  0.10000000000E+03  0.10000000000E+03 0.  0.
          5    1    3    3  501    0 -0.44279507771E+02 -0.18422001374E+02 -0.13336605901E+02  0.50000000000E+02  0.47000000000E+01 0. -1.
         -5    1    3    3    0  501  0.44279507771E+02  0.18422001374E+02  0.13336605901E+02  0.50000000000E+02  0.47000000000E+01 0.  1.
</event>
<event>
 5    1  0.9071520E-001  0.1000000E+03  0.7546771E-02  0.1163815E+00
         11   -1    0    0    0    0  0.00000000000E+00  0.00000000000E+00  0.50000000000E+02  0.50000000000E+02  0.00000000000E+00 0. -1.
        -11   -1    0    0    0    0 -0.00000000000E+00 -0.00000000000E+00 -0.50000000000E+02  0.50000000000E+02  0.00000000000E+00 0.  1.
         23    2    1    2    0    0  0.00000000000E+00  0.00000000000E+00  0.00000000000E+00  0.10000000000E+03  0.10000000000E+03 0.  0.
          5    1    3    3  501    0  0.91944991684E+01 -0.17668404010E+02  0.45620156562E+02  0.50000000000E+02  0.47000000000E+01 0. -1.
         -5    1    3    3    0  501 -0.91944991684E+01  0.17668404010E+02 -0.45620156562E+02  0.50000000000E+02  0.47000000000E+01 0.  1.
</event>
<event>
 5    1  0.9071520E-001  0.1000000E+03  0.7546771E-02  0.1163815E+00
         11   -1    0    0    0    0  0.00000000000E+00  0.00000000000E+00  0.50000000000E+02  0.50000000000E+02  0.00000000000E+00 0.  1.
        -11   -1    0    0    0    0 -0.00000000000E+00 -0.00000000000E+00 -0.50000000000E+02  0.50000000000E+02  0.00000000000E+00 0. -1.
         23    2    1    2    0    0  0.00000000000E+00  0.00000000000E+00  0.00000000000E+00  0.10000000000E+03  0.10000000000E+03 0.  0.
          5    1    3    3  501    0  0.13582623185E+02 -0.43429320905E+02 -0.20182081983E+02  0.50000000000E+02  0.47000000000E+01 0. -1.
         -5    1    3    3    0  501 -0.13582623185E+02  0.43429320905E+02  0.20182081983E+02  0.50000000000E+02  0.47000000000E+01 0.  1.
</event>
<event>
 5    1  0.9071520E-001  0.1000000E+03  0.7546771E-02  0.1163815E+00
         11   -1    0    0    0    0  0.00000000000E+00  0.00000000000E+00  0.50000000000E+02  0.50000000000E+02  0.00000000000E+00 0. -1.
        -11   -1    0    0    0    0 -0.00000000000E+00 -0.00000000000E+00 -0.50000000000E+02  0.50000000000E+02  0.00000000000E+00 0.  1.
         23    2    1    2    0    0  0.00000000000E+00  0.00000000000E+00  0.00000000000E+00  0.10000000000E+03  0.10000000000E+03 0.  0.
          5    1    3    3  501    0 -0.92905783879E+01  0.26827051141E+02  0.40888928579E+02  0.50000000000E+02  0.47000000000E+01 0. -1.
         -5    1    3    3    0  501  0.92905783879E+01 -0.26827051141E+02 -0.40888928579E+02  0.50000000000E+02  0.47000000000E+01 0.  1.
</event>
<event>
 5    1  0.9071520E-001  0.1000000E+03  0.7546771E-02  0.1163815E+00
         11   -1    0    0    0    0  0.00000000000E+00  0.00000000000E+00  0.50000000000E+02  0.50000000000E+02  0.00000000000E+00 0. -1.
        -11   -1    0    0    0    0 -0.00000000000E+00 -0.00000000000E+00 -0.50000000000E+02  0.50000000000E+02  0.00000000000E+00 0.  1.
         23    2    1    2    0    0  0.00000000000E+00  0.00000000000E+00  0.00000000000E+00  0.10000000000E+03  0.10000000000E+03 0.  0.
          5    1    3    3  501    0 -0.94245192183E+01  0.43587138564E+02  0.22118991598E+02  0.50000000000E+02  0.47000000000E+01 0. -1.
         -5    1    3    3    0  501  0.94245192183E+01 -0.43587138564E+02 -0.22118991598E+02  0.50000000000E+02  0.47000000000E+01 0.  1.
</event>
<event>
 5    1  0.9071520E-001  0.1000000E+03  0.7546771E-02  0.1163815E+00
         11   -1    0    0    0    0  0.00000000000E+00  0.00000000000E+00  0.50000000000E+02  0.50000000000E+02  0.00000000000E+00 0. -1.
        -11   -1    0    0    0    0 -0.00000000000E+00 -0.00000000000E+00 -0.50000000000E+02  0.50000000000E+02  0.00000000000E+00 0.  1.
         23    2    1    2    0    0  0.00000000000E+00  0.00000000000E+00  0.00000000000E+00  0.10000000000E+03  0.10000000000E+03 0.  0.
          5    1    3    3  501    0 -0.14843659972E+02  0.35264297845E+02  0.31843446046E+02  0.50000000000E+02  0.47000000000E+01 0. -1.
         -5    1    3    3    0  501  0.14843659972E+02 -0.35264297845E+02 -0.31843446046E+02  0.50000000000E+02  0.47000000000E+01 0.  1.
</event>
<event>
 5    1  0.9071520E-001  0.1000000E+03  0.7546771E-02  0.1163815E+00
         11   -1    0    0    0    0  0.00000000000E+00  0.00000000000E+00  0.50000000000E+02  0.50000000000E+02  0.00000000000E+00 0. -1.
        -11   -1    0    0    0    0 -0.00000000000E+00 -0.00000000000E+00 -0.50000000000E+02  0.50000000000E+02  0.00000000000E+00 0.  1.
         23    2    1    2    0    0  0.00000000000E+00  0.00000000000E+00  0.00000000000E+00  0.10000000000E+03  0.10000000000E+03 0.  0.
          5    1    3    3  501    0  0.41026484415E+02  0.62067683781E+01  0.27499338225E+02  0.50000000000E+02  0.47000000000E+01 0. -1.
         -5    1    3    3    0  501 -0.41026484415E+02 -0.62067683781E+01 -0.27499338225E+02  0.50000000000E+02  0.47000000000E+01 0.  1.
</event>
<event>
 5    1  0.9071520E-001  0.1000000E+03  0.7546771E-02  0.1163815E+00
         11   -1    0    0    0    0  0.00000000000E+00  0.00000000000E+00  0.50000000000E+02  0.50000000000E+02  0.00000000000E+00 0.  1.
        -11   -1    0    0    0    0 -0.00000000000E+00 -0.00000000000E+00 -0.50000000000E+02  0.50000000000E+02  0.00000000000E+00 0. -1.
         23    2    1    2    0    0  0.00000000000E+00  0.00000000000E+00  0.00000000000E+00  0.10000000000E+03  0.10000000000E+03 0.  0.
          5    1    3    3  501    0  0.18176834378E+01  0.43303808120E+02 -0.24482365679E+02  0.50000000000E+02  0.47000000000E+01 0. -1.
         -5    1    3    3    0  501 -0.18176834378E+01 -0.43303808120E+02  0.24482365679E+02  0.50000000000E+02  0.47000000000E+01 0.  1.
</event>
<event>
 5    1  0.9071520E-001  0.1000000E+03  0.7546771E-02  0.1163815E+00
         11   -1    0    0    0    0  0.00000000000E+00  0.00000000000E+00  0.50000000000E+02  0.50000000000E+02  0.00000000000E+00 0. -1.
        -11   -1    0    0    0    0 -0.00000000000E+00 -0.00000000000E+00 -0.50000000000E+02  0.50000000000E+02  0.00000000000E+00 0.  1.
         23    2    1    2    0    0  0.00000000000E+00  0.00000000000E+00  0.00000000000E+00  0.10000000000E+03  0.10000000000E+03 0.  0.
          5    1    3    3  501    0  0.42177190777E+02 -0.76633266209E+01  0.25303517606E+02  0.50000000000E+02  0.47000000000E+01 0. -1.
         -5    1    3    3    0  501 -0.42177190777E+02  0.76633266209E+01 -0.25303517606E+02  0.50000000000E+02  0.47000000000E+01 0.  1.
</event>
<event>
 5    1  0.9071520E-001  0.1000000E+03  0.7546771E-02  0.1163815E+00
         11   -1    0    0    0    0  0.00000000000E+00  0.00000000000E+00  0.50000000000E+02  0.50000000000E+02  0.00000000000E+00 0.  1.
        -11   -1    0    0    0    0 -0.00000000000E+00 -0.00000000000E+00 -0.50000000000E+02  0.50000000000E+02  0.00000000000E+00 0. -1.
         23    2    1    2    0    0  0.00000000000E+00  0.00000000000E+00  0.00000000000E+00  0.10000000000E+03  0.10000000000E+03 0.  0.
          5    1    3    3  501    0 -0.40860788977E+01  0.22437076764E+02 -0.44246938261E+02  0.50000000000E+02  0.47000000000E+01 0. -1.
         -5    1    3    3    0  501  0.40860788977E+01 -0.22437076764E+02  0.44246938261E+02  0.50000000000E+02  0.47000000000E+01 0.  1.
</event>
<event>
 5    1  0.9071520E-001  0.1000000E+03  0.7546771E-02  0.1163815E+00
         11   -1    0    0    0    0  0.00000000000E+00  0.00000000000E+00  0.50000000000E+02  0.50000000000E+02  0.00000000000E+00 0.  1.
        -11   -1    0    0    0    0 -0.00000000000E+00 -0.00000000000E+00 -0.50000000000E+02  0.50000000000E+02  0.00000000000E+00 0. -1.
         23    2    1    2    0    0  0.00000000000E+00  0.00000000000E+00  0.00000000000E+00  0.10000000000E+03  0.10000000000E+03 0.  0.
          5    1    3    3  501    0  0.13033463629E+02  0.42138690895E+02  0.23073134931E+02  0.50000000000E+02  0.47000000000E+01 0. -1.
         -5    1    3    3    0  501 -0.13033463629E+02 -0.42138690895E+02 -0.23073134931E+02  0.50000000000E+02  0.47000000000E+01 0.  1.
</event>
<event>
 5    1  0.9071520E-001  0.1000000E+03  0.7546771E-02  0.1163815E+00
         11   -1    0    0    0    0  0.00000000000E+00  0.00000000000E+00  0.50000000000E+02  0.50000000000E+02  0.00000000000E+00 0.  1.
        -11   -1    0    0    0    0 -0.00000000000E+00 -0.00000000000E+00 -0.50000000000E+02  0.50000000000E+02  0.00000000000E+00 0. -1.
         23    2    1    2    0    0  0.00000000000E+00  0.00000000000E+00  0.00000000000E+00  0.10000000000E+03  0.10000000000E+03 0.  0.
          5    1    3    3  501    0  0.44172123725E+01  0.48995771258E+02 -0.76034619524E+01  0.50000000000E+02  0.47000000000E+01 0. -1.
         -5    1    3    3    0  501 -0.44172123725E+01 -0.48995771258E+02  0.76034619524E+01  0.50000000000E+02  0.47000000000E+01 0.  1.
</event>
<event>
 5    1  0.9071520E-001  0.1000000E+03  0.7546771E-02  0.1163815E+00
         11   -1    0    0    0    0  0.00000000000E+00  0.00000000000E+00  0.50000000000E+02  0.50000000000E+02  0.00000000000E+00 0.  1.
        -11   -1    0    0    0    0 -0.00000000000E+00 -0.00000000000E+00 -0.50000000000E+02  0.50000000000E+02  0.00000000000E+00 0. -1.
         23    2    1    2    0    0  0.00000000000E+00  0.00000000000E+00  0.00000000000E+00  0.10000000000E+03  0.10000000000E+03 0.  0.
          5    1    3    3  501    0  0.19119327932E+02  0.30136257833E+02 -0.34701113286E+02  0.50000000000E+02  0.47000000000E+01 0. -1.
         -5    1    3    3    0  501 -0.19119327932E+02 -0.30136257833E+02  0.34701113286E+02  0.50000000000E+02  0.47000000000E+01 0.  1.
</event>
<event>
 5    1  0.9071520E-001  0.1000000E+03  0.7546771E-02  0.1163815E+00
         11   -1    0    0    0    0  0.00000000000E+00  0.00000000000E+00  0.50000000000E+02  0.50000000000E+02  0.00000000000E+00 0.  1.
        -11   -1    0    0    0    0 -0.00000000000E+00 -0.00000000000E+00 -0.50000000000E+02  0.50000000000E+02  0.00000000000E+00 0. -1.
         23    2    1    2    0    0  0.00000000000E+00  0.00000000000E+00  0.00000000000E+00  0.10000000000E+03  0.10000000000E+03 0.  0.
          5    1    3    3  501    0 -0.33190025386E+02  0.56171016826E+01 -0.36671247369E+02  0.50000000000E+02  0.47000000000E+01 0. -1.
         -5    1    3    3    0  501  0.33190025386E+02 -0.56171016826E+01  0.36671247369E+02  0.50000000000E+02  0.47000000000E+01 0.  1.
</event>
<event>
 5    1  0.9071520E-001  0.1000000E+03  0.7546771E-02  0.1163815E+00
         11   -1    0    0    0    0  0.00000000000E+00  0.00000000000E+00  0.50000000000E+02  0.50000000000E+02  0.00000000000E+00 0. -1.
        -11   -1    0    0    0    0 -0.00000000000E+00 -0.00000000000E+00 -0.50000000000E+02  0.50000000000E+02  0.00000000000E+00 0.  1.
         23    2    1    2    0    0  0.00000000000E+00  0.00000000000E+00  0.00000000000E+00  0.10000000000E+03  0.10000000000E+03 0.  0.
          5    1    3    3  501    0 -0.31624469714E+02 -0.67153195072E+01  0.37851121505E+02  0.50000000000E+02  0.47000000000E+01 0. -1.
         -5    1    3    3    0  501  0.31624469714E+02  0.67153195072E+01 -0.37851121505E+02  0.50000000000E+02  0.47000000000E+01 0.  1.
</event>
<event>
 5    1  0.9071520E-001  0.1000000E+03  0.7546771E-02  0.1163815E+00
         11   -1    0    0    0    0  0.00000000000E+00  0.00000000000E+00  0.50000000000E+02  0.50000000000E+02  0.00000000000E+00 0.  1.
        -11   -1    0    0    0    0 -0.00000000000E+00 -0.00000000000E+00 -0.50000000000E+02  0.50000000000E+02  0.00000000000E+00 0. -1.
         23    2    1    2    0    0  0.00000000000E+00  0.00000000000E+00  0.00000000000E+00  0.10000000000E+03  0.10000000000E+03 0.  0.
          5    1    3    3  501    0 -0.33294517297E+02  0.13954079178E+02 -0.34273441500E+02  0.50000000000E+02  0.47000000000E+01 0. -1.
         -5    1    3    3    0  501  0.33294517297E+02 -0.13954079178E+02  0.34273441500E+02  0.50000000000E+02  0.47000000000E+01 0.  1.
</event>
<event>
 5    1  0.9071520E-001  0.1000000E+03  0.7546771E-02  0.1163815E+00
         11   -1    0    0    0    0  0.00000000000E+00  0.00000000000E+00  0.50000000000E+02  0.50000000000E+02  0.00000000000E+00 0.  1.
        -11   -1    0    0    0    0 -0.00000000000E+00 -0.00000000000E+00 -0.50000000000E+02  0.50000000000E+02  0.00000000000E+00 0. -1.
         23    2    1    2    0    0  0.00000000000E+00  0.00000000000E+00  0.00000000000E+00  0.10000000000E+03  0.10000000000E+03 0.  0.
          5    1    3    3  501    0 -0.20318549674E+02 -0.43664556424E+02  0.12588608005E+02  0.50000000000E+02  0.47000000000E+01 0. -1.
         -5    1    3    3    0  501  0.20318549674E+02  0.43664556424E+02 -0.12588608005E+02  0.50000000000E+02  0.47000000000E+01 0.  1.
</event>
<event>
 5    1  0.9071520E-001  0.1000000E+03  0.7546771E-02  0.1163815E+00
         11   -1    0    0    0    0  0.00000000000E+00  0.00000000000E+00  0.50000000000E+02  0.50000000000E+02  0.00000000000E+00 0.  1.
        -11   -1    0    0    0    0 -0.00000000000E+00 -0.00000000000E+00 -0.50000000000E+02  0.50000000000E+02  0.00000000000E+00 0. -1.
         23    2    1    2    0    0  0.00000000000E+00  0.00000000000E+00  0.00000000000E+00  0.10000000000E+03  0.10000000000E+03 0.  0.
          5    1    3    3  501    0 -0.48088599971E+02  0.14099979372E+01  0.12783131800E+02  0.50000000000E+02  0.47000000000E+01 0. -1.
         -5    1    3    3    0  501  0.48088599971E+02 -0.14099979372E+01 -0.12783131800E+02  0.50000000000E+02  0.47000000000E+01 0.  1.
</event>
<event>
 5    1  0.9071520E-001  0.1000000E+03  0.7546771E-02  0.1163815E+00
         11   -1    0    0    0    0  0.00000000000E+00  0.00000000000E+00  0.50000000000E+02  0.50000000000E+02  0.00000000000E+00 0. -1.
        -11   -1    0    0    0    0 -0.00000000000E+00 -0.00000000000E+00 -0.50000000000E+02  0.50000000000E+02  0.00000000000E+00 0.  1.
         23    2    1    2    0    0  0.00000000000E+00  0.00000000000E+00  0.00000000000E+00  0.10000000000E+03  0.10000000000E+03 0.  0.
          5    1    3    3  501    0  0.86583460320E+01  0.49018066690E+02  0.41494810177E+00  0.50000000000E+02  0.47000000000E+01 0. -1.
         -5    1    3    3    0  501 -0.86583460320E+01 -0.49018066690E+02 -0.41494810177E+00  0.50000000000E+02  0.47000000000E+01 0.  1.
</event>
<event>
 5    1  0.9071520E-001  0.1000000E+03  0.7546771E-02  0.1163815E+00
         11   -1    0    0    0    0  0.00000000000E+00  0.00000000000E+00  0.50000000000E+02  0.50000000000E+02  0.00000000000E+00 0. -1.
        -11   -1    0    0    0    0 -0.00000000000E+00 -0.00000000000E+00 -0.50000000000E+02  0.50000000000E+02  0.00000000000E+00 0.  1.
         23    2    1    2    0    0  0.00000000000E+00  0.00000000000E+00  0.00000000000E+00  0.10000000000E+03  0.10000000000E+03 0.  0.
          5    1    3    3  501    0 -0.40275946861E+02 -0.23692317588E+02  0.17159026540E+02  0.50000000000E+02  0.47000000000E+01 0. -1.
         -5    1    3    3    0  501  0.40275946861E+02  0.23692317588E+02 -0.17159026540E+02  0.50000000000E+02  0.47000000000E+01 0.  1.
</event>
<event>
 5    1  0.9071520E-001  0.1000000E+03  0.7546771E-02  0.1163815E+00
         11   -1    0    0    0    0  0.00000000000E+00  0.00000000000E+00  0.50000000000E+02  0.50000000000E+02  0.00000000000E+00 0. -1.
        -11   -1    0    0    0    0 -0.00000000000E+00 -0.00000000000E+00 -0.50000000000E+02  0.50000000000E+02  0.00000000000E+00 0.  1.
         23    2    1    2    0    0  0.00000000000E+00  0.00000000000E+00  0.00000000000E+00  0.10000000000E+03  0.10000000000E+03 0.  0.
          5    1    3    3  501    0  0.46179797277E+02  0.16999901473E+02  0.75059758444E+01  0.50000000000E+02  0.47000000000E+01 0. -1.
         -5    1    3    3    0  501 -0.46179797277E+02 -0.16999901473E+02 -0.75059758444E+01  0.50000000000E+02  0.47000000000E+01 0.  1.
</event>
<event>
 5    1  0.9071520E-001  0.1000000E+03  0.7546771E-02  0.1163815E+00
         11   -1    0    0    0    0  0.00000000000E+00  0.00000000000E+00  0.50000000000E+02  0.50000000000E+02  0.00000000000E+00 0. -1.
        -11   -1    0    0    0    0 -0.00000000000E+00 -0.00000000000E+00 -0.50000000000E+02  0.50000000000E+02  0.00000000000E+00 0.  1.
         23    2    1    2    0    0  0.00000000000E+00  0.00000000000E+00  0.00000000000E+00  0.10000000000E+03  0.10000000000E+03 0.  0.
          5    1    3    3  501    0  0.28656310309E+02 -0.74436554126E+01  0.40016470029E+02  0.50000000000E+02  0.47000000000E+01 0. -1.
         -5    1    3    3    0  501 -0.28656310309E+02  0.74436554126E+01 -0.40016470029E+02  0.50000000000E+02  0.47000000000E+01 0.  1.
</event>
<event>
 5    1  0.9071520E-001  0.1000000E+03  0.7546771E-02  0.1163815E+00
         11   -1    0    0    0    0  0.00000000000E+00  0.00000000000E+00  0.50000000000E+02  0.50000000000E+02  0.00000000000E+00 0.  1.
        -11   -1    0    0    0    0 -0.00000000000E+00 -0.00000000000E+00 -0.50000000000E+02  0.50000000000E+02  0.00000000000E+00 0. -1.
         23    2    1    2    0    0  0.00000000000E+00  0.00000000000E+00  0.00000000000E+00  0.10000000000E+03  0.10000000000E+03 0.  0.
          5    1    3    3  501    0 -0.30943194341E+02 -0.37092270167E+01 -0.38815851902E+02  0.50000000000E+02  0.47000000000E+01 0. -1.
         -5    1    3    3    0  501  0.30943194341E+02  0.37092270167E+01  0.38815851902E+02  0.50000000000E+02  0.47000000000E+01 0.  1.
</event>
<event>
 5    1  0.9071520E-001  0.1000000E+03  0.7546771E-02  0.1163815E+00
         11   -1    0    0    0    0  0.00000000000E+00  0.00000000000E+00  0.50000000000E+02  0.50000000000E+02  0.00000000000E+00 0. -1.
        -11   -1    0    0    0    0 -0.00000000000E+00 -0.00000000000E+00 -0.50000000000E+02  0.50000000000E+02  0.00000000000E+00 0.  1.
         23    2    1    2    0    0  0.00000000000E+00  0.00000000000E+00  0.00000000000E+00  0.10000000000E+03  0.10000000000E+03 0.  0.
          5    1    3    3  501    0 -0.39493309943E+02 -0.80075022269E+01  0.29224448289E+02  0.50000000000E+02  0.47000000000E+01 0. -1.
         -5    1    3    3    0  501  0.39493309943E+02  0.80075022269E+01 -0.29224448289E+02  0.50000000000E+02  0.47000000000E+01 0.  1.
</event>
<event>
 5    1  0.9071520E-001  0.1000000E+03  0.7546771E-02  0.1163815E+00
         11   -1    0    0    0    0  0.00000000000E+00  0.00000000000E+00  0.50000000000E+02  0.50000000000E+02  0.00000000000E+00 0. -1.
        -11   -1    0    0    0    0 -0.00000000000E+00 -0.00000000000E+00 -0.50000000000E+02  0.50000000000E+02  0.00000000000E+00 0.  1.
         23    2    1    2    0    0  0.00000000000E+00  0.00000000000E+00  0.00000000000E+00  0.10000000000E+03  0.10000000000E+03 0.  0.
          5    1    3    3  501    0 -0.15312453323E+02  0.24559465120E+01  0.47301237827E+02  0.50000000000E+02  0.47000000000E+01 0. -1.
         -5    1    3    3    0  501  0.15312453323E+02 -0.24559465120E+01 -0.47301237827E+02  0.50000000000E+02  0.47000000000E+01 0.  1.
</event>
<event>
 5    1  0.9071520E-001  0.1000000E+03  0.7546771E-02  0.1163815E+00
         11   -1    0    0    0    0  0.00000000000E+00  0.00000000000E+00  0.50000000000E+02  0.50000000000E+02  0.00000000000E+00 0.  1.
        -11   -1    0    0    0    0 -0.00000000000E+00 -0.00000000000E+00 -0.50000000000E+02  0.50000000000E+02  0.00000000000E+00 0. -1.
         23    2    1    2    0    0  0.00000000000E+00  0.00000000000E+00  0.00000000000E+00  0.10000000000E+03  0.10000000000E+03 0.  0.
          5    1    3    3  501    0 -0.98920566607E+01 -0.38054362531E+02 -0.30527409117E+02  0.50000000000E+02  0.47000000000E+01 0. -1.
         -5    1    3    3    0  501  0.98920566607E+01  0.38054362531E+02  0.30527409117E+02  0.50000000000E+02  0.47000000000E+01 0.  1.
</event>
<event>
 5    1  0.9071520E-001  0.1000000E+03  0.7546771E-02  0.1163815E+00
         11   -1    0    0    0    0  0.00000000000E+00  0.00000000000E+00  0.50000000000E+02  0.50000000000E+02  0.00000000000E+00 0. -1.
        -11   -1    0    0    0    0 -0.00000000000E+00 -0.00000000000E+00 -0.50000000000E+02  0.50000000000E+02  0.00000000000E+00 0.  1.
         23    2    1    2    0    0  0.00000000000E+00  0.00000000000E+00  0.00000000000E+00  0.10000000000E+03  0.10000000000E+03 0.  0.
          5    1    3    3  501    0 -0.15588860031E+02  0.32881996737E+02  0.33965743530E+02  0.50000000000E+02  0.47000000000E+01 0. -1.
         -5    1    3    3    0  501  0.15588860031E+02 -0.32881996737E+02 -0.33965743530E+02  0.50000000000E+02  0.47000000000E+01 0.  1.
</event>
<event>
 5    1  0.9071520E-001  0.1000000E+03  0.7546771E-02  0.1163815E+00
         11   -1    0    0    0    0  0.00000000000E+00  0.00000000000E+00  0.50000000000E+02  0.50000000000E+02  0.00000000000E+00 0. -1.
        -11   -1    0    0    0    0 -0.00000000000E+00 -0.00000000000E+00 -0.50000000000E+02  0.50000000000E+02  0.00000000000E+00 0.  1.
         23    2    1    2    0    0  0.00000000000E+00  0.00000000000E+00  0.00000000000E+00  0.10000000000E+03  0.10000000000E+03 0.  0.
          5    1    3    3  501    0  0.20231438030E+02 -0.10900366262E+02  0.44156323789E+02  0.50000000000E+02  0.47000000000E+01 0. -1.
         -5    1    3    3    0  501 -0.20231438030E+02  0.10900366262E+02 -0.44156323789E+02  0.50000000000E+02  0.47000000000E+01 0.  1.
</event>
<event>
 5    1  0.9071520E-001  0.1000000E+03  0.7546771E-02  0.1163815E+00
         11   -1    0    0    0    0  0.00000000000E+00  0.00000000000E+00  0.50000000000E+02  0.50000000000E+02  0.00000000000E+00 0. -1.
        -11   -1    0    0    0    0 -0.00000000000E+00 -0.00000000000E+00 -0.50000000000E+02  0.50000000000E+02  0.00000000000E+00 0.  1.
         23    2    1    2    0    0  0.00000000000E+00  0.00000000000E+00  0.00000000000E+00  0.10000000000E+03  0.10000000000E+03 0.  0.
          5    1    3    3  501    0  0.11462746178E+02  0.85624879913E+01  0.47678079339E+02  0.50000000000E+02  0.47000000000E+01 0. -1.
         -5    1    3    3    0  501 -0.11462746178E+02 -0.85624879913E+01 -0.47678079339E+02  0.50000000000E+02  0.47000000000E+01 0.  1.
</event>
<event>
 5    1  0.9071520E-001  0.1000000E+03  0.7546771E-02  0.1163815E+00
         11   -1    0    0    0    0  0.00000000000E+00  0.00000000000E+00  0.50000000000E+02  0.50000000000E+02  0.00000000000E+00 0.  1.
        -11   -1    0    0    0    0 -0.00000000000E+00 -0.00000000000E+00 -0.50000000000E+02  0.50000000000E+02  0.00000000000E+00 0. -1.
         23    2    1    2    0    0  0.00000000000E+00  0.00000000000E+00  0.00000000000E+00  0.10000000000E+03  0.10000000000E+03 0.  0.
          5    1    3    3  501    0  0.28426406374E+02  0.32163565807E+01 -0.40737015981E+02  0.50000000000E+02  0.47000000000E+01 0. -1.
         -5    1    3    3    0  501 -0.28426406374E+02 -0.32163565807E+01  0.40737015981E+02  0.50000000000E+02  0.47000000000E+01 0.  1.
</event>
<event>
 5    1  0.9071520E-001  0.1000000E+03  0.7546771E-02  0.1163815E+00
         11   -1    0    0    0    0  0.00000000000E+00  0.00000000000E+00  0.50000000000E+02  0.50000000000E+02  0.00000000000E+00 0.  1.
        -11   -1    0    0    0    0 -0.00000000000E+00 -0.00000000000E+00 -0.50000000000E+02  0.50000000000E+02  0.00000000000E+00 0. -1.
         23    2    1    2    0    0  0.00000000000E+00  0.00000000000E+00  0.00000000000E+00  0.10000000000E+03  0.10000000000E+03 0.  0.
          5    1    3    3  501    0 -0.23371079269E+02  0.40912989855E+02 -0.16057083014E+02  0.50000000000E+02  0.47000000000E+01 0. -1.
         -5    1    3    3    0  501  0.23371079269E+02 -0.40912989855E+02  0.16057083014E+02  0.50000000000E+02  0.47000000000E+01 0.  1.
</event>
<event>
 5    1  0.9071520E-001  0.1000000E+03  0.7546771E-02  0.1163815E+00
         11   -1    0    0    0    0  0.00000000000E+00  0.00000000000E+00  0.50000000000E+02  0.50000000000E+02  0.00000000000E+00 0.  1.
        -11   -1    0    0    0    0 -0.00000000000E+00 -0.00000000000E+00 -0.50000000000E+02  0.50000000000E+02  0.00000000000E+00 0. -1.
         23    2    1    2    0    0  0.00000000000E+00  0.00000000000E+00  0.00000000000E+00  0.10000000000E+03  0.10000000000E+03 0.  0.
          5    1    3    3  501    0  0.26428252181E+02 -0.36605146372E+02 -0.20964750075E+02  0.50000000000E+02  0.47000000000E+01 0. -1.
         -5    1    3    3    0  501 -0.26428252181E+02  0.36605146372E+02  0.20964750075E+02  0.50000000000E+02  0.47000000000E+01 0.  1.
</event>
<event>
 5    1  0.9071520E-001  0.1000000E+03  0.7546771E-02  0.1163815E+00
         11   -1    0    0    0    0  0.00000000000E+00  0.00000000000E+00  0.50000000000E+02  0.50000000000E+02  0.00000000000E+00 0.  1.
        -11   -1    0    0    0    0 -0.00000000000E+00 -0.00000000000E+00 -0.50000000000E+02  0.50000000000E+02  0.00000000000E+00 0. -1.
         23    2    1    2    0    0  0.00000000000E+00  0.00000000000E+00  0.00000000000E+00  0.10000000000E+03  0.10000000000E+03 0.  0.
          5    1    3    3  501    0  0.61538434820E+01 -0.36869576901E+02 -0.32873614184E+02  0.50000000000E+02  0.47000000000E+01 0. -1.
         -5    1    3    3    0  501 -0.61538434820E+01  0.36869576901E+02  0.32873614184E+02  0.50000000000E+02  0.47000000000E+01 0.  1.
</event>
<event>
 5    1  0.9071520E-001  0.1000000E+03  0.7546771E-02  0.1163815E+00
         11   -1    0    0    0    0  0.00000000000E+00  0.00000000000E+00  0.50000000000E+02  0.50000000000E+02  0.00000000000E+00 0.  1.
        -11   -1    0    0    0    0 -0.00000000000E+00 -0.00000000000E+00 -0.50000000000E+02  0.50000000000E+02  0.00000000000E+00 0. -1.
         23    2    1    2    0    0  0.00000000000E+00  0.00000000000E+00  0.00000000000E+00  0.10000000000E+03  0.10000000000E+03 0.  0.
          5    1    3    3  501    0  0.15955117663E+02  0.44372300218E+02 -0.15951275614E+02  0.50000000000E+02  0.47000000000E+01 0. -1.
         -5    1    3    3    0  501 -0.15955117663E+02 -0.44372300218E+02  0.15951275614E+02  0.50000000000E+02  0.47000000000E+01 0.  1.
</event>
<event>
 5    1  0.9071520E-001  0.1000000E+03  0.7546771E-02  0.1163815E+00
         11   -1    0    0    0    0  0.00000000000E+00  0.00000000000E+00  0.50000000000E+02  0.50000000000E+02  0.00000000000E+00 0. -1.
        -11   -1    0    0    0    0 -0.00000000000E+00 -0.00000000000E+00 -0.50000000000E+02  0.50000000000E+02  0.00000000000E+00 0.  1.
         23    2    1    2    0    0  0.00000000000E+00  0.00000000000E+00  0.00000000000E+00  0.10000000000E+03  0.10000000000E+03 0.  0.
          5    1    3    3  501    0  0.24108215410E+02  0.42445015575E+02 -0.97531842289E+01  0.50000000000E+02  0.47000000000E+01 0. -1.
         -5    1    3    3    0  501 -0.24108215410E+02 -0.42445015575E+02  0.97531842289E+01  0.50000000000E+02  0.47000000000E+01 0.  1.
</event>
<event>
 5    1  0.9071520E-001  0.1000000E+03  0.7546771E-02  0.1163815E+00
         11   -1    0    0    0    0  0.00000000000E+00  0.00000000000E+00  0.50000000000E+02  0.50000000000E+02  0.00000000000E+00 0.  1.
        -11   -1    0    0    0    0 -0.00000000000E+00 -0.00000000000E+00 -0.50000000000E+02  0.50000000000E+02  0.00000000000E+00 0. -1.
         23    2    1    2    0    0  0.00000000000E+00  0.00000000000E+00  0.00000000000E+00  0.10000000000E+03  0.10000000000E+03 0.  0.
          5    1    3    3  501    0 -0.23097636940E+02 -0.18761379759E+02 -0.39905134975E+02  0.50000000000E+02  0.47000000000E+01 0. -1.
         -5    1    3    3    0  501  0.23097636940E+02  0.18761379759E+02  0.39905134975E+02  0.50000000000E+02  0.47000000000E+01 0.  1.
</event>
<event>
 5    1  0.9071520E-001  0.1000000E+03  0.7546771E-02  0.1163815E+00
         11   -1    0    0    0    0  0.00000000000E+00  0.00000000000E+00  0.50000000000E+02  0.50000000000E+02  0.00000000000E+00 0.  1.
        -11   -1    0    0    0    0 -0.00000000000E+00 -0.00000000000E+00 -0.50000000000E+02  0.50000000000E+02  0.00000000000E+00 0. -1.
         23    2    1    2    0    0  0.00000000000E+00  0.00000000000E+00  0.00000000000E+00  0.10000000000E+03  0.10000000000E+03 0.  0.
          5    1    3    3  501    0  0.46736814089E+02  0.16945798562E+02  0.25337955578E+01  0.50000000000E+02  0.47000000000E+01 0. -1.
         -5    1    3    3    0  501 -0.46736814089E+02 -0.16945798562E+02 -0.25337955578E+01  0.50000000000E+02  0.47000000000E+01 0.  1.
</event>
<event>
 5    1  0.9071520E-001  0.1000000E+03  0.7546771E-02  0.1163815E+00
         11   -1    0    0    0    0  0.00000000000E+00  0.00000000000E+00  0.50000000000E+02  0.50000000000E+02  0.00000000000E+00 0. -1.
        -11   -1    0    0    0    0 -0.00000000000E+00 -0.00000000000E+00 -0.50000000000E+02  0.50000000000E+02  0.00000000000E+00 0.  1.
         23    2    1    2    0    0  0.00000000000E+00  0.00000000000E+00  0.00000000000E+00  0.10000000000E+03  0.10000000000E+03 0.  0.
          5    1    3    3  501    0 -0.19613311542E+02  0.35857172783E+01  0.45611080254E+02  0.50000000000E+02  0.47000000000E+01 0. -1.
         -5    1    3    3    0  501  0.19613311542E+02 -0.35857172783E+01 -0.45611080254E+02  0.50000000000E+02  0.47000000000E+01 0.  1.
</event>
<event>
 5    1  0.9071520E-001  0.1000000E+03  0.7546771E-02  0.1163815E+00
         11   -1    0    0    0    0  0.00000000000E+00  0.00000000000E+00  0.50000000000E+02  0.50000000000E+02  0.00000000000E+00 0. -1.
        -11   -1    0    0    0    0 -0.00000000000E+00 -0.00000000000E+00 -0.50000000000E+02  0.50000000000E+02  0.00000000000E+00 0.  1.
         23    2    1    2    0    0  0.00000000000E+00  0.00000000000E+00  0.00000000000E+00  0.10000000000E+03  0.10000000000E+03 0.  0.
          5    1    3    3  501    0  0.19229811351E+02 -0.18440388090E+02  0.42048501073E+02  0.50000000000E+02  0.47000000000E+01 0. -1.
         -5    1    3    3    0  501 -0.19229811351E+02  0.18440388090E+02 -0.42048501073E+02  0.50000000000E+02  0.47000000000E+01 0.  1.
</event>
<event>
 5    1  0.9071520E-001  0.1000000E+03  0.7546771E-02  0.1163815E+00
         11   -1    0    0    0    0  0.00000000000E+00  0.00000000000E+00  0.50000000000E+02  0.50000000000E+02  0.00000000000E+00 0. -1.
        -11   -1    0    0    0    0 -0.00000000000E+00 -0.00000000000E+00 -0.50000000000E+02  0.50000000000E+02  0.00000000000E+00 0.  1.
         23    2    1    2    0    0  0.00000000000E+00  0.00000000000E+00  0.00000000000E+00  0.10000000000E+03  0.10000000000E+03 0.  0.
          5    1    3    3  501    0  0.26997107808E+01  0.10063759184E+02  0.48675890467E+02  0.50000000000E+02  0.47000000000E+01 0. -1.
         -5    1    3    3    0  501 -0.26997107808E+01 -0.10063759184E+02 -0.48675890467E+02  0.50000000000E+02  0.47000000000E+01 0.  1.
</event>
<event>
 5    1  0.9071520E-001  0.1000000E+03  0.7546771E-02  0.1163815E+00
         11   -1    0    0    0    0  0.00000000000E+00  0.00000000000E+00  0.50000000000E+02  0.50000000000E+02  0.00000000000E+00 0.  1.
        -11   -1    0    0    0    0 -0.00000000000E+00 -0.00000000000E+00 -0.50000000000E+02  0.50000000000E+02  0.00000000000E+00 0. -1.
         23    2    1    2    0    0  0.00000000000E+00  0.00000000000E+00  0.00000000000E+00  0.10000000000E+03  0.10000000000E+03 0.  0.
          5    1    3    3  501    0 -0.44900286727E+02  0.19213230967E+02 -0.96294344391E+01  0.50000000000E+02  0.47000000000E+01 0. -1.
         -5    1    3    3    0  501  0.44900286727E+02 -0.19213230967E+02  0.96294344391E+01  0.50000000000E+02  0.47000000000E+01 0.  1.
</event>
<event>
 5    1  0.9071520E-001  0.1000000E+03  0.7546771E-02  0.1163815E+00
         11   -1    0    0    0    0  0.00000000000E+00  0.00000000000E+00  0.50000000000E+02  0.50000000000E+02  0.00000000000E+00 0. -1.
        -11   -1    0    0    0    0 -0.00000000000E+00 -0.00000000000E+00 -0.50000000000E+02  0.50000000000E+02  0.00000000000E+00 0.  1.
         23    2    1    2    0    0  0.00000000000E+00  0.00000000000E+00  0.00000000000E+00  0.10000000000E+03  0.10000000000E+03 0.  0.
          5    1    3    3  501    0  0.84317360364E+01 -0.38512836248E+02  0.30390414139E+02  0.50000000000E+02  0.47000000000E+01 0. -1.
         -5    1    3    3    0  501 -0.84317360364E+01  0.38512836248E+02 -0.30390414139E+02  0.50000000000E+02  0.47000000000E+01 0.  1.
</event>
<event>
 5    1  0.9071520E-001  0.1000000E+03  0.7546771E-02  0.1163815E+00
         11   -1    0    0    0    0  0.00000000000E+00  0.00000000000E+00  0.50000000000E+02  0.50000000000E+02  0.00000000000E+00 0. -1.
        -11   -1    0    0    0    0 -0.00000000000E+00 -0.00000000000E+00 -0.50000000000E+02  0.50000000000E+02  0.00000000000E+00 0.  1.
         23    2    1    2    0    0  0.00000000000E+00  0.00000000000E+00  0.00000000000E+00  0.10000000000E+03  0.10000000000E+03 0.  0.
          5    1    3    3  501    0 -0.33925366631E+02  0.85042263344E+00  0.36417801695E+02  0.50000000000E+02  0.47000000000E+01 0. -1.
         -5    1    3    3    0  501  0.33925366631E+02 -0.85042263344E+00 -0.36417801695E+02  0.50000000000E+02  0.47000000000E+01 0.  1.
</event>
<event>
 5    1  0.9071520E-001  0.1000000E+03  0.7546771E-02  0.1163815E+00
         11   -1    0    0    0    0  0.00000000000E+00  0.00000000000E+00  0.50000000000E+02  0.50000000000E+02  0.00000000000E+00 0. -1.
        -11   -1    0    0    0    0 -0.00000000000E+00 -0.00000000000E+00 -0.50000000000E+02  0.50000000000E+02  0.00000000000E+00 0.  1.
         23    2    1    2    0    0  0.00000000000E+00  0.00000000000E+00  0.00000000000E+00  0.10000000000E+03  0.10000000000E+03 0.  0.
          5    1    3    3  501    0 -0.33546829880E+01 -0.49148629942E+02  0.71462071686E+01  0.50000000000E+02  0.47000000000E+01 0. -1.
         -5    1    3    3    0  501  0.33546829880E+01  0.49148629942E+02 -0.71462071686E+01  0.50000000000E+02  0.47000000000E+01 0.  1.
</event>
<event>
 5    1  0.9071520E-001  0.1000000E+03  0.7546771E-02  0.1163815E+00
         11   -1    0    0    0    0  0.00000000000E+00  0.00000000000E+00  0.50000000000E+02  0.50000000000E+02  0.00000000000E+00 0. -1.
        -11   -1    0    0    0    0 -0.00000000000E+00 -0.00000000000E+00 -0.50000000000E+02  0.50000000000E+02  0.00000000000E+00 0.  1.
         23    2    1    2    0    0  0.00000000000E+00  0.00000000000E+00  0.00000000000E+00  0.10000000000E+03  0.10000000000E+03 0.  0.
          5    1    3    3  501    0 -0.45555482609E+01  0.18760807100E+02  0.45882339707E+02  0.50000000000E+02  0.47000000000E+01 0. -1.
         -5    1    3    3    0  501  0.45555482609E+01 -0.18760807100E+02 -0.45882339707E+02  0.50000000000E+02  0.47000000000E+01 0.  1.
</event>
<event>
 5    1  0.9071520E-001  0.1000000E+03  0.7546771E-02  0.1163815E+00
         11   -1    0    0    0    0  0.00000000000E+00  0.00000000000E+00  0.50000000000E+02  0.50000000000E+02  0.00000000000E+00 0. -1.
        -11   -1    0    0    0    0 -0.00000000000E+00 -0.00000000000E+00 -0.50000000000E+02  0.50000000000E+02  0.00000000000E+00 0.  1.
         23    2    1    2    0    0  0.00000000000E+00  0.00000000000E+00  0.00000000000E+00  0.10000000000E+03  0.10000000000E+03 0.  0.
          5    1    3    3  501    0  0.27048885101E+02 -0.96074111772E+01  0.40668974234E+02  0.50000000000E+02  0.47000000000E+01 0. -1.
         -5    1    3    3    0  501 -0.27048885101E+02  0.96074111772E+01 -0.40668974234E+02  0.50000000000E+02  0.47000000000E+01 0.  1.
</event>
<event>
 5    1  0.9071520E-001  0.1000000E+03  0.7546771E-02  0.1163815E+00
         11   -1    0    0    0    0  0.00000000000E+00  0.00000000000E+00  0.50000000000E+02  0.50000000000E+02  0.00000000000E+00 0. -1.
        -11   -1    0    0    0    0 -0.00000000000E+00 -0.00000000000E+00 -0.50000000000E+02  0.50000000000E+02  0.00000000000E+00 0.  1.
         23    2    1    2    0    0  0.00000000000E+00  0.00000000000E+00  0.00000000000E+00  0.10000000000E+03  0.10000000000E+03 0.  0.
          5    1    3    3  501    0 -0.17579318559E+02  0.27942487439E+02  0.37257146358E+02  0.50000000000E+02  0.47000000000E+01 0. -1.
         -5    1    3    3    0  501  0.17579318559E+02 -0.27942487439E+02 -0.37257146358E+02  0.50000000000E+02  0.47000000000E+01 0.  1.
</event>
<event>
 5    1  0.9071520E-001  0.1000000E+03  0.7546771E-02  0.1163815E+00
         11   -1    0    0    0    0  0.00000000000E+00  0.00000000000E+00  0.50000000000E+02  0.50000000000E+02  0.00000000000E+00 0. -1.
        -11   -1    0    0    0    0 -0.00000000000E+00 -0.00000000000E+00 -0.50000000000E+02  0.50000000000E+02  0.00000000000E+00 0.  1.
         23    2    1    2    0    0  0.00000000000E+00  0.00000000000E+00  0.00000000000E+00  0.10000000000E+03  0.10000000000E+03 0.  0.
          5    1    3    3  501    0  0.19915432372E+01  0.42956381043E+02  0.25073752875E+02  0.50000000000E+02  0.47000000000E+01 0. -1.
         -5    1    3    3    0  501 -0.19915432372E+01 -0.42956381043E+02 -0.25073752875E+02  0.50000000000E+02  0.47000000000E+01 0.  1.
</event>
<event>
 5    1  0.9071520E-001  0.1000000E+03  0.7546771E-02  0.1163815E+00
         11   -1    0    0    0    0  0.00000000000E+00  0.00000000000E+00  0.50000000000E+02  0.50000000000E+02  0.00000000000E+00 0. -1.
        -11   -1    0    0    0    0 -0.00000000000E+00 -0.00000000000E+00 -0.50000000000E+02  0.50000000000E+02  0.00000000000E+00 0.  1.
         23    2    1    2    0    0  0.00000000000E+00  0.00000000000E+00  0.00000000000E+00  0.10000000000E+03  0.10000000000E+03 0.  0.
          5    1    3    3  501    0 -0.34999363999E+02  0.25696508388E+02  0.24344280156E+02  0.50000000000E+02  0.47000000000E+01 0. -1.
         -5    1    3    3    0  501  0.34999363999E+02 -0.25696508388E+02 -0.24344280156E+02  0.50000000000E+02  0.47000000000E+01 0.  1.
</event>
<event>
 5    1  0.9071520E-001  0.1000000E+03  0.7546771E-02  0.1163815E+00
         11   -1    0    0    0    0  0.00000000000E+00  0.00000000000E+00  0.50000000000E+02  0.50000000000E+02  0.00000000000E+00 0. -1.
        -11   -1    0    0    0    0 -0.00000000000E+00 -0.00000000000E+00 -0.50000000000E+02  0.50000000000E+02  0.00000000000E+00 0.  1.
         23    2    1    2    0    0  0.00000000000E+00  0.00000000000E+00  0.00000000000E+00  0.10000000000E+03  0.10000000000E+03 0.  0.
          5    1    3    3  501    0  0.10289105579E+01  0.48755581022E+02  0.99872249521E+01  0.50000000000E+02  0.47000000000E+01 0. -1.
         -5    1    3    3    0  501 -0.10289105579E+01 -0.48755581022E+02 -0.99872249521E+01  0.50000000000E+02  0.47000000000E+01 0.  1.
</event>
<event>
 5    1  0.9071520E-001  0.1000000E+03  0.7546771E-02  0.1163815E+00
         11   -1    0    0    0    0  0.00000000000E+00  0.00000000000E+00  0.50000000000E+02  0.50000000000E+02  0.00000000000E+00 0. -1.
        -11   -1    0    0    0    0 -0.00000000000E+00 -0.00000000000E+00 -0.50000000000E+02  0.50000000000E+02  0.00000000000E+00 0.  1.
         23    2    1    2    0    0  0.00000000000E+00  0.00000000000E+00  0.00000000000E+00  0.10000000000E+03  0.10000000000E+03 0.  0.
          5    1    3    3  501    0 -0.33749433664E+02  0.35727519329E+02  0.79012714173E+01  0.50000000000E+02  0.47000000000E+01 0. -1.
         -5    1    3    3    0  501  0.33749433664E+02 -0.35727519329E+02 -0.79012714173E+01  0.50000000000E+02  0.47000000000E+01 0.  1.
</event>
<event>
 5    1  0.9071520E-001  0.1000000E+03  0.7546771E-02  0.1163815E+00
         11   -1    0    0    0    0  0.00000000000E+00  0.00000000000E+00  0.50000000000E+02  0.50000000000E+02  0.00000000000E+00 0. -1.
        -11   -1    0    0    0    0 -0.00000000000E+00 -0.00000000000E+00 -0.50000000000E+02  0.50000000000E+02  0.00000000000E+00 0.  1.
         23    2    1    2    0    0  0.00000000000E+00  0.00000000000E+00  0.00000000000E+00  0.10000000000E+03  0.10000000000E+03 0.  0.
          5    1    3    3  501    0 -0.13482273311E+02  0.17721473308E+02  0.44520643416E+02  0.50000000000E+02  0.47000000000E+01 0. -1.
         -5    1    3    3    0  501  0.13482273311E+02 -0.17721473308E+02 -0.44520643416E+02  0.50000000000E+02  0.47000000000E+01 0.  1.
</event>
<event>
 5    1  0.9071520E-001  0.1000000E+03  0.7546771E-02  0.1163815E+00
         11   -1    0    0    0    0  0.00000000000E+00  0.00000000000E+00  0.50000000000E+02  0.50000000000E+02  0.00000000000E+00 0. -1.
        -11   -1    0    0    0    0 -0.00000000000E+00 -0.00000000000E+00 -0.50000000000E+02  0.50000000000E+02  0.00000000000E+00 0.  1.
         23    2    1    2    0    0  0.00000000000E+00  0.00000000000E+00  0.00000000000E+00  0.10000000000E+03  0.10000000000E+03 0.  0.
          5    1    3    3  501    0 -0.92607249947E+01  0.40850992102E+02  0.26895081648E+02  0.50000000000E+02  0.47000000000E+01 0. -1.
         -5    1    3    3    0  501  0.92607249947E+01 -0.40850992102E+02 -0.26895081648E+02  0.50000000000E+02  0.47000000000E+01 0.  1.
</event>
<event>
 5    1  0.9071520E-001  0.1000000E+03  0.7546771E-02  0.1163815E+00
         11   -1    0    0    0    0  0.00000000000E+00  0.00000000000E+00  0.50000000000E+02  0.50000000000E+02  0.00000000000E+00 0.  1.
        -11   -1    0    0    0    0 -0.00000000000E+00 -0.00000000000E+00 -0.50000000000E+02  0.50000000000E+02  0.00000000000E+00 0. -1.
         23    2    1    2    0    0  0.00000000000E+00  0.00000000000E+00  0.00000000000E+00  0.10000000000E+03  0.10000000000E+03 0.  0.
          5    1    3    3  501    0  0.32295823940E+02 -0.37876789824E+02  0.48841447169E+00  0.50000000000E+02  0.47000000000E+01 0. -1.
         -5    1    3    3    0  501 -0.32295823940E+02  0.37876789824E+02 -0.48841447169E+00  0.50000000000E+02  0.47000000000E+01 0.  1.
</event>
<event>
 5    1  0.9071520E-001  0.1000000E+03  0.7546771E-02  0.1163815E+00
         11   -1    0    0    0    0  0.00000000000E+00  0.00000000000E+00  0.50000000000E+02  0.50000000000E+02  0.00000000000E+00 0.  1.
        -11   -1    0    0    0    0 -0.00000000000E+00 -0.00000000000E+00 -0.50000000000E+02  0.50000000000E+02  0.00000000000E+00 0. -1.
         23    2    1    2    0    0  0.00000000000E+00  0.00000000000E+00  0.00000000000E+00  0.10000000000E+03  0.10000000000E+03 0.  0.
          5    1    3    3  501    0 -0.49182432892E+02 -0.71807098783E+01  0.27268480855E+01  0.50000000000E+02  0.47000000000E+01 0. -1.
         -5    1    3    3    0  501  0.49182432892E+02  0.71807098783E+01 -0.27268480855E+01  0.50000000000E+02  0.47000000000E+01 0.  1.
</event>
<event>
 5    1  0.9071520E-001  0.1000000E+03  0.7546771E-02  0.1163815E+00
         11   -1    0    0    0    0  0.00000000000E+00  0.00000000000E+00  0.50000000000E+02  0.50000000000E+02  0.00000000000E+00 0.  1.
        -11   -1    0    0    0    0 -0.00000000000E+00 -0.00000000000E+00 -0.50000000000E+02  0.50000000000E+02  0.00000000000E+00 0. -1.
         23    2    1    2    0    0  0.00000000000E+00  0.00000000000E+00  0.00000000000E+00  0.10000000000E+03  0.10000000000E+03 0.  0.
          5    1    3    3  501    0 -0.49326274278E+01  0.20604956756E+01 -0.49490742005E+02  0.50000000000E+02  0.47000000000E+01 0. -1.
         -5    1    3    3    0  501  0.49326274278E+01 -0.20604956756E+01  0.49490742005E+02  0.50000000000E+02  0.47000000000E+01 0.  1.
</event>
<event>
 5    1  0.9071520E-001  0.1000000E+03  0.7546771E-02  0.1163815E+00
         11   -1    0    0    0    0  0.00000000000E+00  0.00000000000E+00  0.50000000000E+02  0.50000000000E+02  0.00000000000E+00 0. -1.
        -11   -1    0    0    0    0 -0.00000000000E+00 -0.00000000000E+00 -0.50000000000E+02  0.50000000000E+02  0.00000000000E+00 0.  1.
         23    2    1    2    0    0  0.00000000000E+00  0.00000000000E+00  0.00000000000E+00  0.10000000000E+03  0.10000000000E+03 0.  0.
          5    1    3    3  501    0 -0.32758081428E+02 -0.23182330432E+02  0.29451615523E+02  0.50000000000E+02  0.47000000000E+01 0. -1.
         -5    1    3    3    0  501  0.32758081428E+02  0.23182330432E+02 -0.29451615523E+02  0.50000000000E+02  0.47000000000E+01 0.  1.
</event>
<event>
 5    1  0.9071520E-001  0.1000000E+03  0.7546771E-02  0.1163815E+00
         11   -1    0    0    0    0  0.00000000000E+00  0.00000000000E+00  0.50000000000E+02  0.50000000000E+02  0.00000000000E+00 0.  1.
        -11   -1    0    0    0    0 -0.00000000000E+00 -0.00000000000E+00 -0.50000000000E+02  0.50000000000E+02  0.00000000000E+00 0. -1.
         23    2    1    2    0    0  0.00000000000E+00  0.00000000000E+00  0.00000000000E+00  0.10000000000E+03  0.10000000000E+03 0.  0.
          5    1    3    3  501    0 -0.22804914472E+01  0.24065667093E+02 -0.43514974734E+02  0.50000000000E+02  0.47000000000E+01 0. -1.
         -5    1    3    3    0  501  0.22804914472E+01 -0.24065667093E+02  0.43514974734E+02  0.50000000000E+02  0.47000000000E+01 0.  1.
</event>
<event>
 5    1  0.9071520E-001  0.1000000E+03  0.7546771E-02  0.1163815E+00
         11   -1    0    0    0    0  0.00000000000E+00  0.00000000000E+00  0.50000000000E+02  0.50000000000E+02  0.00000000000E+00 0. -1.
        -11   -1    0    0    0    0 -0.00000000000E+00 -0.00000000000E+00 -0.50000000000E+02  0.50000000000E+02  0.00000000000E+00 0.  1.
         23    2    1    2    0    0  0.00000000000E+00  0.00000000000E+00  0.00000000000E+00  0.10000000000E+03  0.10000000000E+03 0.  0.
          5    1    3    3  501    0  0.39281111269E+02 -0.11692735919E+02  0.28252154329E+02  0.50000000000E+02  0.47000000000E+01 0. -1.
         -5    1    3    3    0  501 -0.39281111269E+02  0.11692735919E+02 -0.28252154329E+02  0.50000000000E+02  0.47000000000E+01 0.  1.
</event>
<event>
 5    1  0.9071520E-001  0.1000000E+03  0.7546771E-02  0.1163815E+00
         11   -1    0    0    0    0  0.00000000000E+00  0.00000000000E+00  0.50000000000E+02  0.50000000000E+02  0.00000000000E+00 0.  1.
        -11   -1    0    0    0    0 -0.00000000000E+00 -0.00000000000E+00 -0.50000000000E+02  0.50000000000E+02  0.00000000000E+00 0. -1.
         23    2    1    2    0    0  0.00000000000E+00  0.00000000000E+00  0.00000000000E+00  0.10000000000E+03  0.10000000000E+03 0.  0.
          5    1    3    3  501    0  0.39374438518E+02  0.30293161693E+02 -0.31445104626E+01  0.50000000000E+02  0.47000000000E+01 0. -1.
         -5    1    3    3    0  501 -0.39374438518E+02 -0.30293161693E+02  0.31445104626E+01  0.50000000000E+02  0.47000000000E+01 0.  1.
</event>
<event>
 5    1  0.9071520E-001  0.1000000E+03  0.7546771E-02  0.1163815E+00
         11   -1    0    0    0    0  0.00000000000E+00  0.00000000000E+00  0.50000000000E+02  0.50000000000E+02  0.00000000000E+00 0. -1.
        -11   -1    0    0    0    0 -0.00000000000E+00 -0.00000000000E+00 -0.50000000000E+02  0.50000000000E+02  0.00000000000E+00 0.  1.
         23    2    1    2    0    0  0.00000000000E+00  0.00000000000E+00  0.00000000000E+00  0.10000000000E+03  0.10000000000E+03 0.  0.
          5    1    3    3  501    0 -0.11630939345E+02  0.46535413636E+02  0.13307386209E+02  0.50000000000E+02  0.47000000000E+01 0. -1.
         -5    1    3    3    0  501  0.11630939345E+02 -0.46535413636E+02 -0.13307386209E+02  0.50000000000E+02  0.47000000000E+01 0.  1.
</event>
<event>
 5    1  0.9071520E-001  0.1000000E+03  0.7546771E-02  0.1163815E+00
         11   -1    0    0    0    0  0.00000000000E+00  0.00000000000E+00  0.50000000000E+02  0.50000000000E+02  0.00000000000E+00 0.  1.
        -11   -1    0    0    0    0 -0.00000000000E+00 -0.00000000000E+00 -0.50000000000E+02  0.50000000000E+02  0.00000000000E+00 0. -1.
         23    2    1    2    0    0  0.00000000000E+00  0.00000000000E+00  0.00000000000E+00  0.10000000000E+03  0.10000000000E+03 0.  0.
          5    1    3    3  501    0  0.69361910208E+01  0.47557930092E+02 -0.12963122291E+02  0.50000000000E+02  0.47000000000E+01 0. -1.
         -5    1    3    3    0  501 -0.69361910208E+01 -0.47557930092E+02  0.12963122291E+02  0.50000000000E+02  0.47000000000E+01 0.  1.
</event>
<event>
 5    1  0.9071520E-001  0.1000000E+03  0.7546771E-02  0.1163815E+00
         11   -1    0    0    0    0  0.00000000000E+00  0.00000000000E+00  0.50000000000E+02  0.50000000000E+02  0.00000000000E+00 0. -1.
        -11   -1    0    0    0    0 -0.00000000000E+00 -0.00000000000E+00 -0.50000000000E+02  0.50000000000E+02  0.00000000000E+00 0.  1.
         23    2    1    2    0    0  0.00000000000E+00  0.00000000000E+00  0.00000000000E+00  0.10000000000E+03  0.10000000000E+03 0.  0.
          5    1    3    3  501    0 -0.23691242488E+02 -0.30989355006E+02  0.30924018266E+02  0.50000000000E+02  0.47000000000E+01 0. -1.
         -5    1    3    3    0  501  0.23691242488E+02  0.30989355006E+02 -0.30924018266E+02  0.50000000000E+02  0.47000000000E+01 0.  1.
</event>
<event>
 5    1  0.9071520E-001  0.1000000E+03  0.7546771E-02  0.1163815E+00
         11   -1    0    0    0    0  0.00000000000E+00  0.00000000000E+00  0.50000000000E+02  0.50000000000E+02  0.00000000000E+00 0. -1.
        -11   -1    0    0    0    0 -0.00000000000E+00 -0.00000000000E+00 -0.50000000000E+02  0.50000000000E+02  0.00000000000E+00 0.  1.
         23    2    1    2    0    0  0.00000000000E+00  0.00000000000E+00  0.00000000000E+00  0.10000000000E+03  0.10000000000E+03 0.  0.
          5    1    3    3  501    0 -0.18778687127E+02  0.11605223039E+02  0.44616025238E+02  0.50000000000E+02  0.47000000000E+01 0. -1.
         -5    1    3    3    0  501  0.18778687127E+02 -0.11605223039E+02 -0.44616025238E+02  0.50000000000E+02  0.47000000000E+01 0.  1.
</event>
<event>
 5    1  0.9071520E-001  0.1000000E+03  0.7546771E-02  0.1163815E+00
         11   -1    0    0    0    0  0.00000000000E+00  0.00000000000E+00  0.50000000000E+02  0.50000000000E+02  0.00000000000E+00 0. -1.
        -11   -1    0    0    0    0 -0.00000000000E+00 -0.00000000000E+00 -0.50000000000E+02  0.50000000000E+02  0.00000000000E+00 0.  1.
         23    2    1    2    0    0  0.00000000000E+00  0.00000000000E+00  0.00000000000E+00  0.10000000000E+03  0.10000000000E+03 0.  0.
          5    1    3    3  501    0 -0.22939336908E+02  0.92690634124E+01  0.43194690480E+02  0.50000000000E+02  0.47000000000E+01 0. -1.
         -5    1    3    3    0  501  0.22939336908E+02 -0.92690634124E+01 -0.43194690480E+02  0.50000000000E+02  0.47000000000E+01 0.  1.
</event>
<event>
 5    1  0.9071520E-001  0.1000000E+03  0.7546771E-02  0.1163815E+00
         11   -1    0    0    0    0  0.00000000000E+00  0.00000000000E+00  0.50000000000E+02  0.50000000000E+02  0.00000000000E+00 0. -1.
        -11   -1    0    0    0    0 -0.00000000000E+00 -0.00000000000E+00 -0.50000000000E+02  0.50000000000E+02  0.00000000000E+00 0.  1.
         23    2    1    2    0    0  0.00000000000E+00  0.00000000000E+00  0.00000000000E+00  0.10000000000E+03  0.10000000000E+03 0.  0.
          5    1    3    3  501    0 -0.19900069305E+02  0.15528544222E+02  0.42904097194E+02  0.50000000000E+02  0.47000000000E+01 0. -1.
         -5    1    3    3    0  501  0.19900069305E+02 -0.15528544222E+02 -0.42904097194E+02  0.50000000000E+02  0.47000000000E+01 0.  1.
</event>
<event>
 5    1  0.9071520E-001  0.1000000E+03  0.7546771E-02  0.1163815E+00
         11   -1    0    0    0    0  0.00000000000E+00  0.00000000000E+00  0.50000000000E+02  0.50000000000E+02  0.00000000000E+00 0. -1.
        -11   -1    0    0    0    0 -0.00000000000E+00 -0.00000000000E+00 -0.50000000000E+02  0.50000000000E+02  0.00000000000E+00 0.  1.
         23    2    1    2    0    0  0.00000000000E+00  0.00000000000E+00  0.00000000000E+00  0.10000000000E+03  0.10000000000E+03 0.  0.
          5    1    3    3  501    0 -0.11278244143E+01  0.28900730809E+02  0.40514019435E+02  0.50000000000E+02  0.47000000000E+01 0. -1.
         -5    1    3    3    0  501  0.11278244143E+01 -0.28900730809E+02 -0.40514019435E+02  0.50000000000E+02  0.47000000000E+01 0.  1.
</event>
<event>
 5    1  0.9071520E-001  0.1000000E+03  0.7546771E-02  0.1163815E+00
         11   -1    0    0    0    0  0.00000000000E+00  0.00000000000E+00  0.50000000000E+02  0.50000000000E+02  0.00000000000E+00 0.  1.
        -11   -1    0    0    0    0 -0.00000000000E+00 -0.00000000000E+00 -0.50000000000E+02  0.50000000000E+02  0.00000000000E+00 0. -1.
         23    2    1    2    0    0  0.00000000000E+00  0.00000000000E+00  0.00000000000E+00  0.10000000000E+03  0.10000000000E+03 0.  0.
          5    1    3    3  501    0  0.18117933704E+02 -0.11449771539E+02 -0.44928311898E+02  0.50000000000E+02  0.47000000000E+01 0. -1.
         -5    1    3    3    0  501 -0.18117933704E+02  0.11449771539E+02  0.44928311898E+02  0.50000000000E+02  0.47000000000E+01 0.  1.
</event>
<event>
 5    1  0.9071520E-001  0.1000000E+03  0.7546771E-02  0.1163815E+00
         11   -1    0    0    0    0  0.00000000000E+00  0.00000000000E+00  0.50000000000E+02  0.50000000000E+02  0.00000000000E+00 0. -1.
        -11   -1    0    0    0    0 -0.00000000000E+00 -0.00000000000E+00 -0.50000000000E+02  0.50000000000E+02  0.00000000000E+00 0.  1.
         23    2    1    2    0    0  0.00000000000E+00  0.00000000000E+00  0.00000000000E+00  0.10000000000E+03  0.10000000000E+03 0.  0.
          5    1    3    3  501    0  0.65609229299E+00 -0.35959833520E+02  0.34414675883E+02  0.50000000000E+02  0.47000000000E+01 0. -1.
         -5    1    3    3    0  501 -0.65609229299E+00  0.35959833520E+02 -0.34414675883E+02  0.50000000000E+02  0.47000000000E+01 0.  1.
</event>
<event>
 5    1  0.9071520E-001  0.1000000E+03  0.7546771E-02  0.1163815E+00
         11   -1    0    0    0    0  0.00000000000E+00  0.00000000000E+00  0.50000000000E+02  0.50000000000E+02  0.00000000000E+00 0.  1.
        -11   -1    0    0    0    0 -0.00000000000E+00 -0.00000000000E+00 -0.50000000000E+02  0.50000000000E+02  0.00000000000E+00 0. -1.
         23    2    1    2    0    0  0.00000000000E+00  0.00000000000E+00  0.00000000000E+00  0.10000000000E+03  0.10000000000E+03 0.  0.
          5    1    3    3  501    0 -0.27854349244E+02  0.10700637689E+02 -0.39843965431E+02  0.50000000000E+02  0.47000000000E+01 0. -1.
         -5    1    3    3    0  501  0.27854349244E+02 -0.10700637689E+02  0.39843965431E+02  0.50000000000E+02  0.47000000000E+01 0.  1.
</event>
<event>
 5    1  0.9071520E-001  0.1000000E+03  0.7546771E-02  0.1163815E+00
         11   -1    0    0    0    0  0.00000000000E+00  0.00000000000E+00  0.50000000000E+02  0.50000000000E+02  0.00000000000E+00 0.  1.
        -11   -1    0    0    0    0 -0.00000000000E+00 -0.00000000000E+00 -0.50000000000E+02  0.50000000000E+02  0.00000000000E+00 0. -1.
         23    2    1    2    0    0  0.00000000000E+00  0.00000000000E+00  0.00000000000E+00  0.10000000000E+03  0.10000000000E+03 0.  0.
          5    1    3    3  501    0 -0.14136552247E+02  0.17913096555E+02  0.44240127287E+02  0.50000000000E+02  0.47000000000E+01 0.  1.
         -5    1    3    3    0  501  0.14136552247E+02 -0.17913096555E+02 -0.44240127287E+02  0.50000000000E+02  0.47000000000E+01 0. -1.
</event>
<event>
 5    1  0.9071520E-001  0.1000000E+03  0.7546771E-02  0.1163815E+00
         11   -1    0    0    0    0  0.00000000000E+00  0.00000000000E+00  0.50000000000E+02  0.50000000000E+02  0.00000000000E+00 0. -1.
        -11   -1    0    0    0    0 -0.00000000000E+00 -0.00000000000E+00 -0.50000000000E+02  0.50000000000E+02  0.00000000000E+00 0.  1.
         23    2    1    2    0    0  0.00000000000E+00  0.00000000000E+00  0.00000000000E+00  0.10000000000E+03  0.10000000000E+03 0.  0.
          5    1    3    3  501    0 -0.48494691737E+02 -0.86503526283E+01  0.71656313589E+01  0.50000000000E+02  0.47000000000E+01 0. -1.
         -5    1    3    3    0  501  0.48494691737E+02  0.86503526283E+01 -0.71656313589E+01  0.50000000000E+02  0.47000000000E+01 0.  1.
</event>
<event>
 5    1  0.9071520E-001  0.1000000E+03  0.7546771E-02  0.1163815E+00
         11   -1    0    0    0    0  0.00000000000E+00  0.00000000000E+00  0.50000000000E+02  0.50000000000E+02  0.00000000000E+00 0. -1.
        -11   -1    0    0    0    0 -0.00000000000E+00 -0.00000000000E+00 -0.50000000000E+02  0.50000000000E+02  0.00000000000E+00 0.  1.
         23    2    1    2    0    0  0.00000000000E+00  0.00000000000E+00  0.00000000000E+00  0.10000000000E+03  0.10000000000E+03 0.  0.
          5    1    3    3  501    0 -0.33337844923E+01  0.35392673622E+02  0.34844720330E+02  0.50000000000E+02  0.47000000000E+01 0. -1.
         -5    1    3    3    0  501  0.33337844923E+01 -0.35392673622E+02 -0.34844720330E+02  0.50000000000E+02  0.47000000000E+01 0.  1.
</event>
<event>
 5    1  0.9071520E-001  0.1000000E+03  0.7546771E-02  0.1163815E+00
         11   -1    0    0    0    0  0.00000000000E+00  0.00000000000E+00  0.50000000000E+02  0.50000000000E+02  0.00000000000E+00 0. -1.
        -11   -1    0    0    0    0 -0.00000000000E+00 -0.00000000000E+00 -0.50000000000E+02  0.50000000000E+02  0.00000000000E+00 0.  1.
         23    2    1    2    0    0  0.00000000000E+00  0.00000000000E+00  0.00000000000E+00  0.10000000000E+03  0.10000000000E+03 0.  0.
          5    1    3    3  501    0 -0.48843897210E+02 -0.70458223474E+01 -0.65222766588E+01  0.50000000000E+02  0.47000000000E+01 0. -1.
         -5    1    3    3    0  501  0.48843897210E+02  0.70458223474E+01  0.65222766588E+01  0.50000000000E+02  0.47000000000E+01 0.  1.
</event>
<event>
 5    1  0.9071520E-001  0.1000000E+03  0.7546771E-02  0.1163815E+00
         11   -1    0    0    0    0  0.00000000000E+00  0.00000000000E+00  0.50000000000E+02  0.50000000000E+02  0.00000000000E+00 0. -1.
        -11   -1    0    0    0    0 -0.00000000000E+00 -0.00000000000E+00 -0.50000000000E+02  0.50000000000E+02  0.00000000000E+00 0.  1.
         23    2    1    2    0    0  0.00000000000E+00  0.00000000000E+00  0.00000000000E+00  0.10000000000E+03  0.10000000000E+03 0.  0.
          5    1    3    3  501    0  0.26549028813E+01 -0.29767738264E+02  0.39808833810E+02  0.50000000000E+02  0.47000000000E+01 0. -1.
         -5    1    3    3    0  501 -0.26549028813E+01  0.29767738264E+02 -0.39808833810E+02  0.50000000000E+02  0.47000000000E+01 0.  1.
</event>
<event>
 5    1  0.9071520E-001  0.1000000E+03  0.7546771E-02  0.1163815E+00
         11   -1    0    0    0    0  0.00000000000E+00  0.00000000000E+00  0.50000000000E+02  0.50000000000E+02  0.00000000000E+00 0.  1.
        -11   -1    0    0    0    0 -0.00000000000E+00 -0.00000000000E+00 -0.50000000000E+02  0.50000000000E+02  0.00000000000E+00 0. -1.
         23    2    1    2    0    0  0.00000000000E+00  0.00000000000E+00  0.00000000000E+00  0.10000000000E+03  0.10000000000E+03 0.  0.
          5    1    3    3  501    0  0.24908729740E+02  0.35908120495E+02  0.23834262423E+02  0.50000000000E+02  0.47000000000E+01 0.  1.
         -5    1    3    3    0  501 -0.24908729740E+02 -0.35908120495E+02 -0.23834262423E+02  0.50000000000E+02  0.47000000000E+01 0. -1.
</event>
<event>
 5    1  0.9071520E-001  0.1000000E+03  0.7546771E-02  0.1163815E+00
         11   -1    0    0    0    0  0.00000000000E+00  0.00000000000E+00  0.50000000000E+02  0.50000000000E+02  0.00000000000E+00 0. -1.
        -11   -1    0    0    0    0 -0.00000000000E+00 -0.00000000000E+00 -0.50000000000E+02  0.50000000000E+02  0.00000000000E+00 0.  1.
         23    2    1    2    0    0  0.00000000000E+00  0.00000000000E+00  0.00000000000E+00  0.10000000000E+03  0.10000000000E+03 0.  0.
          5    1    3    3  501    0  0.88602592195E+01 -0.47243659833E+02  0.12939954101E+02  0.50000000000E+02  0.47000000000E+01 0. -1.
         -5    1    3    3    0  501 -0.88602592195E+01  0.47243659833E+02 -0.12939954101E+02  0.50000000000E+02  0.47000000000E+01 0.  1.
</event>
<event>
 5    1  0.9071520E-001  0.1000000E+03  0.7546771E-02  0.1163815E+00
         11   -1    0    0    0    0  0.00000000000E+00  0.00000000000E+00  0.50000000000E+02  0.50000000000E+02  0.00000000000E+00 0. -1.
        -11   -1    0    0    0    0 -0.00000000000E+00 -0.00000000000E+00 -0.50000000000E+02  0.50000000000E+02  0.00000000000E+00 0.  1.
         23    2    1    2    0    0  0.00000000000E+00  0.00000000000E+00  0.00000000000E+00  0.10000000000E+03  0.10000000000E+03 0.  0.
          5    1    3    3  501    0  0.34245458157E+01 -0.26506279343E+02  0.41995233555E+02  0.50000000000E+02  0.47000000000E+01 0. -1.
         -5    1    3    3    0  501 -0.34245458157E+01  0.26506279343E+02 -0.41995233555E+02  0.50000000000E+02  0.47000000000E+01 0.  1.
</event>
<event>
 5    1  0.9071520E-001  0.1000000E+03  0.7546771E-02  0.1163815E+00
         11   -1    0    0    0    0  0.00000000000E+00  0.00000000000E+00  0.50000000000E+02  0.50000000000E+02  0.00000000000E+00 0. -1.
        -11   -1    0    0    0    0 -0.00000000000E+00 -0.00000000000E+00 -0.50000000000E+02  0.50000000000E+02  0.00000000000E+00 0.  1.
         23    2    1    2    0    0  0.00000000000E+00  0.00000000000E+00  0.00000000000E+00  0.10000000000E+03  0.10000000000E+03 0.  0.
          5    1    3    3  501    0  0.59206811639E+01  0.43581301616E+02  0.23313637297E+02  0.50000000000E+02  0.47000000000E+01 0. -1.
         -5    1    3    3    0  501 -0.59206811639E+01 -0.43581301616E+02 -0.23313637297E+02  0.50000000000E+02  0.47000000000E+01 0.  1.
</event>
<event>
 5    1  0.9071520E-001  0.1000000E+03  0.7546771E-02  0.1163815E+00
         11   -1    0    0    0    0  0.00000000000E+00  0.00000000000E+00  0.50000000000E+02  0.50000000000E+02  0.00000000000E+00 0.  1.
        -11   -1    0    0    0    0 -0.00000000000E+00 -0.00000000000E+00 -0.50000000000E+02  0.50000000000E+02  0.00000000000E+00 0. -1.
         23    2    1    2    0    0  0.00000000000E+00  0.00000000000E+00  0.00000000000E+00  0.10000000000E+03  0.10000000000E+03 0.  0.
          5    1    3    3  501    0  0.29066758180E+02 -0.11171520867E+02 -0.38835945855E+02  0.50000000000E+02  0.47000000000E+01 0. -1.
         -5    1    3    3    0  501 -0.29066758180E+02  0.11171520867E+02  0.38835945855E+02  0.50000000000E+02  0.47000000000E+01 0.  1.
</event>
<event>
 5    1  0.9071520E-001  0.1000000E+03  0.7546771E-02  0.1163815E+00
         11   -1    0    0    0    0  0.00000000000E+00  0.00000000000E+00  0.50000000000E+02  0.50000000000E+02  0.00000000000E+00 0. -1.
        -11   -1    0    0    0    0 -0.00000000000E+00 -0.00000000000E+00 -0.50000000000E+02  0.50000000000E+02  0.00000000000E+00 0.  1.
         23    2    1    2    0    0  0.00000000000E+00  0.00000000000E+00  0.00000000000E+00  0.10000000000E+03  0.10000000000E+03 0.  0.
          5    1    3    3  501    0 -0.19308973997E+02  0.29943652280E+02  0.34762784861E+02  0.50000000000E+02  0.47000000000E+01 0. -1.
         -5    1    3    3    0  501  0.19308973997E+02 -0.29943652280E+02 -0.34762784861E+02  0.50000000000E+02  0.47000000000E+01 0.  1.
</event>
<event>
 5    1  0.9071520E-001  0.1000000E+03  0.7546771E-02  0.1163815E+00
         11   -1    0    0    0    0  0.00000000000E+00  0.00000000000E+00  0.50000000000E+02  0.50000000000E+02  0.00000000000E+00 0.  1.
        -11   -1    0    0    0    0 -0.00000000000E+00 -0.00000000000E+00 -0.50000000000E+02  0.50000000000E+02  0.00000000000E+00 0. -1.
         23    2    1    2    0    0  0.00000000000E+00  0.00000000000E+00  0.00000000000E+00  0.10000000000E+03  0.10000000000E+03 0.  0.
          5    1    3    3  501    0  0.13238042903E+02  0.40254341611E+02 -0.26119957917E+02  0.50000000000E+02  0.47000000000E+01 0. -1.
         -5    1    3    3    0  501 -0.13238042903E+02 -0.40254341611E+02  0.26119957917E+02  0.50000000000E+02  0.47000000000E+01 0.  1.
</event>
<event>
 5    1  0.9071520E-001  0.1000000E+03  0.7546771E-02  0.1163815E+00
         11   -1    0    0    0    0  0.00000000000E+00  0.00000000000E+00  0.50000000000E+02  0.50000000000E+02  0.00000000000E+00 0.  1.
        -11   -1    0    0    0    0 -0.00000000000E+00 -0.00000000000E+00 -0.50000000000E+02  0.50000000000E+02  0.00000000000E+00 0. -1.
         23    2    1    2    0    0  0.00000000000E+00  0.00000000000E+00  0.00000000000E+00  0.10000000000E+03  0.10000000000E+03 0.  0.
          5    1    3    3  501    0  0.30220632412E+02  0.24982708063E+01 -0.39476347597E+02  0.50000000000E+02  0.47000000000E+01 0. -1.
         -5    1    3    3    0  501 -0.30220632412E+02 -0.24982708063E+01  0.39476347597E+02  0.50000000000E+02  0.47000000000E+01 0.  1.
</event>
<event>
 5    1  0.9071520E-001  0.1000000E+03  0.7546771E-02  0.1163815E+00
         11   -1    0    0    0    0  0.00000000000E+00  0.00000000000E+00  0.50000000000E+02  0.50000000000E+02  0.00000000000E+00 0. -1.
        -11   -1    0    0    0    0 -0.00000000000E+00 -0.00000000000E+00 -0.50000000000E+02  0.50000000000E+02  0.00000000000E+00 0.  1.
         23    2    1    2    0    0  0.00000000000E+00  0.00000000000E+00  0.00000000000E+00  0.10000000000E+03  0.10000000000E+03 0.  0.
          5    1    3    3  501    0 -0.28617214190E+02 -0.34897044695E+02  0.21003840685E+02  0.50000000000E+02  0.47000000000E+01 0. -1.
         -5    1    3    3    0  501  0.28617214190E+02  0.34897044695E+02 -0.21003840685E+02  0.50000000000E+02  0.47000000000E+01 0.  1.
</event>
<event>
 5    1  0.9071520E-001  0.1000000E+03  0.7546771E-02  0.1163815E+00
         11   -1    0    0    0    0  0.00000000000E+00  0.00000000000E+00  0.50000000000E+02  0.50000000000E+02  0.00000000000E+00 0. -1.
        -11   -1    0    0    0    0 -0.00000000000E+00 -0.00000000000E+00 -0.50000000000E+02  0.50000000000E+02  0.00000000000E+00 0.  1.
         23    2    1    2    0    0  0.00000000000E+00  0.00000000000E+00  0.00000000000E+00  0.10000000000E+03  0.10000000000E+03 0.  0.
          5    1    3    3  501    0 -0.97912014475E+01 -0.48045631446E+02  0.85825213777E+01  0.50000000000E+02  0.47000000000E+01 0. -1.
         -5    1    3    3    0  501  0.97912014475E+01  0.48045631446E+02 -0.85825213777E+01  0.50000000000E+02  0.47000000000E+01 0.  1.
</event>
<event>
 5    1  0.9071520E-001  0.1000000E+03  0.7546771E-02  0.1163815E+00
         11   -1    0    0    0    0  0.00000000000E+00  0.00000000000E+00  0.50000000000E+02  0.50000000000E+02  0.00000000000E+00 0. -1.
        -11   -1    0    0    0    0 -0.00000000000E+00 -0.00000000000E+00 -0.50000000000E+02  0.50000000000E+02  0.00000000000E+00 0.  1.
         23    2    1    2    0    0  0.00000000000E+00  0.00000000000E+00  0.00000000000E+00  0.10000000000E+03  0.10000000000E+03 0.  0.
          5    1    3    3  501    0 -0.11094688594E+01 -0.15245254519E+02  0.47373635004E+02  0.50000000000E+02  0.47000000000E+01 0. -1.
         -5    1    3    3    0  501  0.11094688594E+01  0.15245254519E+02 -0.47373635004E+02  0.50000000000E+02  0.47000000000E+01 0.  1.
</event>
<event>
 5    1  0.9071520E-001  0.1000000E+03  0.7546771E-02  0.1163815E+00
         11   -1    0    0    0    0  0.00000000000E+00  0.00000000000E+00  0.50000000000E+02  0.50000000000E+02  0.00000000000E+00 0. -1.
        -11   -1    0    0    0    0 -0.00000000000E+00 -0.00000000000E+00 -0.50000000000E+02  0.50000000000E+02  0.00000000000E+00 0.  1.
         23    2    1    2    0    0  0.00000000000E+00  0.00000000000E+00  0.00000000000E+00  0.10000000000E+03  0.10000000000E+03 0.  0.
          5    1    3    3  501    0 -0.11388262379E+02 -0.31300487746E+02  0.36993201360E+02  0.50000000000E+02  0.47000000000E+01 0. -1.
         -5    1    3    3    0  501  0.11388262379E+02  0.31300487746E+02 -0.36993201360E+02  0.50000000000E+02  0.47000000000E+01 0.  1.
</event>
<event>
 5    1  0.9071520E-001  0.1000000E+03  0.7546771E-02  0.1163815E+00
         11   -1    0    0    0    0  0.00000000000E+00  0.00000000000E+00  0.50000000000E+02  0.50000000000E+02  0.00000000000E+00 0. -1.
        -11   -1    0    0    0    0 -0.00000000000E+00 -0.00000000000E+00 -0.50000000000E+02  0.50000000000E+02  0.00000000000E+00 0.  1.
         23    2    1    2    0    0  0.00000000000E+00  0.00000000000E+00  0.00000000000E+00  0.10000000000E+03  0.10000000000E+03 0.  0.
          5    1    3    3  501    0  0.44366901953E+01 -0.33361809524E+02  0.36677178809E+02  0.50000000000E+02  0.47000000000E+01 0. -1.
         -5    1    3    3    0  501 -0.44366901953E+01  0.33361809524E+02 -0.36677178809E+02  0.50000000000E+02  0.47000000000E+01 0.  1.
</event>
<event>
 5    1  0.9071520E-001  0.1000000E+03  0.7546771E-02  0.1163815E+00
         11   -1    0    0    0    0  0.00000000000E+00  0.00000000000E+00  0.50000000000E+02  0.50000000000E+02  0.00000000000E+00 0. -1.
        -11   -1    0    0    0    0 -0.00000000000E+00 -0.00000000000E+00 -0.50000000000E+02  0.50000000000E+02  0.00000000000E+00 0.  1.
         23    2    1    2    0    0  0.00000000000E+00  0.00000000000E+00  0.00000000000E+00  0.10000000000E+03  0.10000000000E+03 0.  0.
          5    1    3    3  501    0 -0.38120752364E+02 -0.12170841147E+02  0.29607243455E+02  0.50000000000E+02  0.47000000000E+01 0. -1.
         -5    1    3    3    0  501  0.38120752364E+02  0.12170841147E+02 -0.29607243455E+02  0.50000000000E+02  0.47000000000E+01 0.  1.
</event>
<event>
 5    1  0.9071520E-001  0.1000000E+03  0.7546771E-02  0.1163815E+00
         11   -1    0    0    0    0  0.00000000000E+00  0.00000000000E+00  0.50000000000E+02  0.50000000000E+02  0.00000000000E+00 0.  1.
        -11   -1    0    0    0    0 -0.00000000000E+00 -0.00000000000E+00 -0.50000000000E+02  0.50000000000E+02  0.00000000000E+00 0. -1.
         23    2    1    2    0    0  0.00000000000E+00  0.00000000000E+00  0.00000000000E+00  0.10000000000E+03  0.10000000000E+03 0.  0.
          5    1    3    3  501    0 -0.34862771443E+02 -0.29638477550E+02 -0.19597393088E+02  0.50000000000E+02  0.47000000000E+01 0. -1.
         -5    1    3    3    0  501  0.34862771443E+02  0.29638477550E+02  0.19597393088E+02  0.50000000000E+02  0.47000000000E+01 0.  1.
</event>
<event>
 5    1  0.9071520E-001  0.1000000E+03  0.7546771E-02  0.1163815E+00
         11   -1    0    0    0    0  0.00000000000E+00  0.00000000000E+00  0.50000000000E+02  0.50000000000E+02  0.00000000000E+00 0. -1.
        -11   -1    0    0    0    0 -0.00000000000E+00 -0.00000000000E+00 -0.50000000000E+02  0.50000000000E+02  0.00000000000E+00 0.  1.
         23    2    1    2    0    0  0.00000000000E+00  0.00000000000E+00  0.00000000000E+00  0.10000000000E+03  0.10000000000E+03 0.  0.
          5    1    3    3  501    0 -0.34479605610E+02 -0.17256882617E+02  0.31484389773E+02  0.50000000000E+02  0.47000000000E+01 0. -1.
         -5    1    3    3    0  501  0.34479605610E+02  0.17256882617E+02 -0.31484389773E+02  0.50000000000E+02  0.47000000000E+01 0.  1.
</event>
<event>
 5    1  0.9071520E-001  0.1000000E+03  0.7546771E-02  0.1163815E+00
         11   -1    0    0    0    0  0.00000000000E+00  0.00000000000E+00  0.50000000000E+02  0.50000000000E+02  0.00000000000E+00 0. -1.
        -11   -1    0    0    0    0 -0.00000000000E+00 -0.00000000000E+00 -0.50000000000E+02  0.50000000000E+02  0.00000000000E+00 0.  1.
         23    2    1    2    0    0  0.00000000000E+00  0.00000000000E+00  0.00000000000E+00  0.10000000000E+03  0.10000000000E+03 0.  0.
          5    1    3    3  501    0  0.27834611984E+02  0.33222913143E+02  0.24482287843E+02  0.50000000000E+02  0.47000000000E+01 0. -1.
         -5    1    3    3    0  501 -0.27834611984E+02 -0.33222913143E+02 -0.24482287843E+02  0.50000000000E+02  0.47000000000E+01 0.  1.
</event>
<event>
 5    1  0.9071520E-001  0.1000000E+03  0.7546771E-02  0.1163815E+00
         11   -1    0    0    0    0  0.00000000000E+00  0.00000000000E+00  0.50000000000E+02  0.50000000000E+02  0.00000000000E+00 0. -1.
        -11   -1    0    0    0    0 -0.00000000000E+00 -0.00000000000E+00 -0.50000000000E+02  0.50000000000E+02  0.00000000000E+00 0.  1.
         23    2    1    2    0    0  0.00000000000E+00  0.00000000000E+00  0.00000000000E+00  0.10000000000E+03  0.10000000000E+03 0.  0.
          5    1    3    3  501    0 -0.33662471883E+02 -0.20235252737E+02  0.30582389269E+02  0.50000000000E+02  0.47000000000E+01 0. -1.
         -5    1    3    3    0  501  0.33662471883E+02  0.20235252737E+02 -0.30582389269E+02  0.50000000000E+02  0.47000000000E+01 0.  1.
</event>
<event>
 5    1  0.9071520E-001  0.1000000E+03  0.7546771E-02  0.1163815E+00
         11   -1    0    0    0    0  0.00000000000E+00  0.00000000000E+00  0.50000000000E+02  0.50000000000E+02  0.00000000000E+00 0. -1.
        -11   -1    0    0    0    0 -0.00000000000E+00 -0.00000000000E+00 -0.50000000000E+02  0.50000000000E+02  0.00000000000E+00 0.  1.
         23    2    1    2    0    0  0.00000000000E+00  0.00000000000E+00  0.00000000000E+00  0.10000000000E+03  0.10000000000E+03 0.  0.
          5    1    3    3  501    0  0.75897402114E+00  0.49750407676E+02 -0.14936179312E+01  0.50000000000E+02  0.47000000000E+01 0. -1.
         -5    1    3    3    0  501 -0.75897402114E+00 -0.49750407676E+02  0.14936179312E+01  0.50000000000E+02  0.47000000000E+01 0.  1.
</event>
<event>
 5    1  0.9071520E-001  0.1000000E+03  0.7546771E-02  0.1163815E+00
         11   -1    0    0    0    0  0.00000000000E+00  0.00000000000E+00  0.50000000000E+02  0.50000000000E+02  0.00000000000E+00 0. -1.
        -11   -1    0    0    0    0 -0.00000000000E+00 -0.00000000000E+00 -0.50000000000E+02  0.50000000000E+02  0.00000000000E+00 0.  1.
         23    2    1    2    0    0  0.00000000000E+00  0.00000000000E+00  0.00000000000E+00  0.10000000000E+03  0.10000000000E+03 0.  0.
          5    1    3    3  501    0  0.21216697188E+02 -0.44284579088E+02 -0.81631988479E+01  0.50000000000E+02  0.47000000000E+01 0. -1.
         -5    1    3    3    0  501 -0.21216697188E+02  0.44284579088E+02  0.81631988479E+01  0.50000000000E+02  0.47000000000E+01 0.  1.
</event>
<event>
 5    1  0.9071520E-001  0.1000000E+03  0.7546771E-02  0.1163815E+00
         11   -1    0    0    0    0  0.00000000000E+00  0.00000000000E+00  0.50000000000E+02  0.50000000000E+02  0.00000000000E+00 0. -1.
        -11   -1    0    0    0    0 -0.00000000000E+00 -0.00000000000E+00 -0.50000000000E+02  0.50000000000E+02  0.00000000000E+00 0.  1.
         23    2    1    2    0    0  0.00000000000E+00  0.00000000000E+00  0.00000000000E+00  0.10000000000E+03  0.10000000000E+03 0.  0.
          5    1    3    3  501    0  0.45425738331E+02  0.15962248709E+02  0.12634037883E+02  0.50000000000E+02  0.47000000000E+01 0. -1.
         -5    1    3    3    0  501 -0.45425738331E+02 -0.15962248709E+02 -0.12634037883E+02  0.50000000000E+02  0.47000000000E+01 0.  1.
</event>
<event>
 5    1  0.9071520E-001  0.1000000E+03  0.7546771E-02  0.1163815E+00
         11   -1    0    0    0    0  0.00000000000E+00  0.00000000000E+00  0.50000000000E+02  0.50000000000E+02  0.00000000000E+00 0. -1.
        -11   -1    0    0    0    0 -0.00000000000E+00 -0.00000000000E+00 -0.50000000000E+02  0.50000000000E+02  0.00000000000E+00 0.  1.
         23    2    1    2    0    0  0.00000000000E+00  0.00000000000E+00  0.00000000000E+00  0.10000000000E+03  0.10000000000E+03 0.  0.
          5    1    3    3  501    0  0.62510306247E+01 -0.15901199879E+02  0.46754534096E+02  0.50000000000E+02  0.47000000000E+01 0. -1.
         -5    1    3    3    0  501 -0.62510306247E+01  0.15901199879E+02 -0.46754534096E+02  0.50000000000E+02  0.47000000000E+01 0.  1.
</event>
<event>
 5    1  0.9071520E-001  0.1000000E+03  0.7546771E-02  0.1163815E+00
         11   -1    0    0    0    0  0.00000000000E+00  0.00000000000E+00  0.50000000000E+02  0.50000000000E+02  0.00000000000E+00 0. -1.
        -11   -1    0    0    0    0 -0.00000000000E+00 -0.00000000000E+00 -0.50000000000E+02  0.50000000000E+02  0.00000000000E+00 0.  1.
         23    2    1    2    0    0  0.00000000000E+00  0.00000000000E+00  0.00000000000E+00  0.10000000000E+03  0.10000000000E+03 0.  0.
          5    1    3    3  501    0  0.27960696987E+02  0.23690415494E+02  0.33687885622E+02  0.50000000000E+02  0.47000000000E+01 0. -1.
         -5    1    3    3    0  501 -0.27960696987E+02 -0.23690415494E+02 -0.33687885622E+02  0.50000000000E+02  0.47000000000E+01 0.  1.
</event>
<event>
 5    1  0.9071520E-001  0.1000000E+03  0.7546771E-02  0.1163815E+00
         11   -1    0    0    0    0  0.00000000000E+00  0.00000000000E+00  0.50000000000E+02  0.50000000000E+02  0.00000000000E+00 0.  1.
        -11   -1    0    0    0    0 -0.00000000000E+00 -0.00000000000E+00 -0.50000000000E+02  0.50000000000E+02  0.00000000000E+00 0. -1.
         23    2    1    2    0    0  0.00000000000E+00  0.00000000000E+00  0.00000000000E+00  0.10000000000E+03  0.10000000000E+03 0.  0.
          5    1    3    3  501    0 -0.16295087742E+02 -0.10937411324E+02 -0.45746618990E+02  0.50000000000E+02  0.47000000000E+01 0. -1.
         -5    1    3    3    0  501  0.16295087742E+02  0.10937411324E+02  0.45746618990E+02  0.50000000000E+02  0.47000000000E+01 0.  1.
</event>
<event>
 5    1  0.9071520E-001  0.1000000E+03  0.7546771E-02  0.1163815E+00
         11   -1    0    0    0    0  0.00000000000E+00  0.00000000000E+00  0.50000000000E+02  0.50000000000E+02  0.00000000000E+00 0. -1.
        -11   -1    0    0    0    0 -0.00000000000E+00 -0.00000000000E+00 -0.50000000000E+02  0.50000000000E+02  0.00000000000E+00 0.  1.
         23    2    1    2    0    0  0.00000000000E+00  0.00000000000E+00  0.00000000000E+00  0.10000000000E+03  0.10000000000E+03 0.  0.
          5    1    3    3  501    0  0.14570531119E+02  0.37386867880E+02  0.29458983910E+02  0.50000000000E+02  0.47000000000E+01 0. -1.
         -5    1    3    3    0  501 -0.14570531119E+02 -0.37386867880E+02 -0.29458983910E+02  0.50000000000E+02  0.47000000000E+01 0.  1.
</event>
<event>
 5    1  0.9071520E-001  0.1000000E+03  0.7546771E-02  0.1163815E+00
         11   -1    0    0    0    0  0.00000000000E+00  0.00000000000E+00  0.50000000000E+02  0.50000000000E+02  0.00000000000E+00 0.  1.
        -11   -1    0    0    0    0 -0.00000000000E+00 -0.00000000000E+00 -0.50000000000E+02  0.50000000000E+02  0.00000000000E+00 0. -1.
         23    2    1    2    0    0  0.00000000000E+00  0.00000000000E+00  0.00000000000E+00  0.10000000000E+03  0.10000000000E+03 0.  0.
          5    1    3    3  501    0 -0.28513665292E+02 -0.30055367441E+02 -0.27596300107E+02  0.50000000000E+02  0.47000000000E+01 0. -1.
         -5    1    3    3    0  501  0.28513665292E+02  0.30055367441E+02  0.27596300107E+02  0.50000000000E+02  0.47000000000E+01 0.  1.
</event>
<event>
 5    1  0.9071520E-001  0.1000000E+03  0.7546771E-02  0.1163815E+00
         11   -1    0    0    0    0  0.00000000000E+00  0.00000000000E+00  0.50000000000E+02  0.50000000000E+02  0.00000000000E+00 0.  1.
        -11   -1    0    0    0    0 -0.00000000000E+00 -0.00000000000E+00 -0.50000000000E+02  0.50000000000E+02  0.00000000000E+00 0. -1.
         23    2    1    2    0    0  0.00000000000E+00  0.00000000000E+00  0.00000000000E+00  0.10000000000E+03  0.10000000000E+03 0.  0.
          5    1    3    3  501    0  0.10043861772E+02  0.13596402182E+02 -0.46820601111E+02  0.50000000000E+02  0.47000000000E+01 0. -1.
         -5    1    3    3    0  501 -0.10043861772E+02 -0.13596402182E+02  0.46820601111E+02  0.50000000000E+02  0.47000000000E+01 0.  1.
</event>
<event>
 5    1  0.9071520E-001  0.1000000E+03  0.7546771E-02  0.1163815E+00
         11   -1    0    0    0    0  0.00000000000E+00  0.00000000000E+00  0.50000000000E+02  0.50000000000E+02  0.00000000000E+00 0.  1.
        -11   -1    0    0    0    0 -0.00000000000E+00 -0.00000000000E+00 -0.50000000000E+02  0.50000000000E+02  0.00000000000E+00 0. -1.
         23    2    1    2    0    0  0.00000000000E+00  0.00000000000E+00  0.00000000000E+00  0.10000000000E+03  0.10000000000E+03 0.  0.
          5    1    3    3  501    0  0.13748058136E+01 -0.39537393059E+02 -0.30212819449E+02  0.50000000000E+02  0.47000000000E+01 0. -1.
         -5    1    3    3    0  501 -0.13748058136E+01  0.39537393059E+02  0.30212819449E+02  0.50000000000E+02  0.47000000000E+01 0.  1.
</event>
<event>
 5    1  0.9071520E-001  0.1000000E+03  0.7546771E-02  0.1163815E+00
         11   -1    0    0    0    0  0.00000000000E+00  0.00000000000E+00  0.50000000000E+02  0.50000000000E+02  0.00000000000E+00 0. -1.
        -11   -1    0    0    0    0 -0.00000000000E+00 -0.00000000000E+00 -0.50000000000E+02  0.50000000000E+02  0.00000000000E+00 0.  1.
         23    2    1    2    0    0  0.00000000000E+00  0.00000000000E+00  0.00000000000E+00  0.10000000000E+03  0.10000000000E+03 0.  0.
          5    1    3    3  501    0 -0.26776870591E+02 -0.20242484485E+02  0.36758006247E+02  0.50000000000E+02  0.47000000000E+01 0. -1.
         -5    1    3    3    0  501  0.26776870591E+02  0.20242484485E+02 -0.36758006247E+02  0.50000000000E+02  0.47000000000E+01 0.  1.
</event>
<event>
 5    1  0.9071520E-001  0.1000000E+03  0.7546771E-02  0.1163815E+00
         11   -1    0    0    0    0  0.00000000000E+00  0.00000000000E+00  0.50000000000E+02  0.50000000000E+02  0.00000000000E+00 0.  1.
        -11   -1    0    0    0    0 -0.00000000000E+00 -0.00000000000E+00 -0.50000000000E+02  0.50000000000E+02  0.00000000000E+00 0. -1.
         23    2    1    2    0    0  0.00000000000E+00  0.00000000000E+00  0.00000000000E+00  0.10000000000E+03  0.10000000000E+03 0.  0.
          5    1    3    3  501    0  0.29210576432E+02 -0.39550486772E+02  0.77724655411E+01  0.50000000000E+02  0.47000000000E+01 0.  1.
         -5    1    3    3    0  501 -0.29210576432E+02  0.39550486772E+02 -0.77724655411E+01  0.50000000000E+02  0.47000000000E+01 0. -1.
</event>
<event>
 5    1  0.9071520E-001  0.1000000E+03  0.7546771E-02  0.1163815E+00
         11   -1    0    0    0    0  0.00000000000E+00  0.00000000000E+00  0.50000000000E+02  0.50000000000E+02  0.00000000000E+00 0.  1.
        -11   -1    0    0    0    0 -0.00000000000E+00 -0.00000000000E+00 -0.50000000000E+02  0.50000000000E+02  0.00000000000E+00 0. -1.
         23    2    1    2    0    0  0.00000000000E+00  0.00000000000E+00  0.00000000000E+00  0.10000000000E+03  0.10000000000E+03 0.  0.
          5    1    3    3  501    0 -0.15926526492E+02 -0.39584975618E+01 -0.46995596080E+02  0.50000000000E+02  0.47000000000E+01 0. -1.
         -5    1    3    3    0  501  0.15926526492E+02  0.39584975618E+01  0.46995596080E+02  0.50000000000E+02  0.47000000000E+01 0.  1.
</event>
<event>
 5    1  0.9071520E-001  0.1000000E+03  0.7546771E-02  0.1163815E+00
         11   -1    0    0    0    0  0.00000000000E+00  0.00000000000E+00  0.50000000000E+02  0.50000000000E+02  0.00000000000E+00 0.  1.
        -11   -1    0    0    0    0 -0.00000000000E+00 -0.00000000000E+00 -0.50000000000E+02  0.50000000000E+02  0.00000000000E+00 0. -1.
         23    2    1    2    0    0  0.00000000000E+00  0.00000000000E+00  0.00000000000E+00  0.10000000000E+03  0.10000000000E+03 0.  0.
          5    1    3    3  501    0 -0.21237362976E+01  0.14161292750E+02 -0.47674495611E+02  0.50000000000E+02  0.47000000000E+01 0. -1.
         -5    1    3    3    0  501  0.21237362976E+01 -0.14161292750E+02  0.47674495611E+02  0.50000000000E+02  0.47000000000E+01 0.  1.
</event>
<event>
 5    1  0.9071520E-001  0.1000000E+03  0.7546771E-02  0.1163815E+00
         11   -1    0    0    0    0  0.00000000000E+00  0.00000000000E+00  0.50000000000E+02  0.50000000000E+02  0.00000000000E+00 0. -1.
        -11   -1    0    0    0    0 -0.00000000000E+00 -0.00000000000E+00 -0.50000000000E+02  0.50000000000E+02  0.00000000000E+00 0.  1.
         23    2    1    2    0    0  0.00000000000E+00  0.00000000000E+00  0.00000000000E+00  0.10000000000E+03  0.10000000000E+03 0.  0.
          5    1    3    3  501    0 -0.48464593011E+00  0.34094162337E+02  0.36266557775E+02  0.50000000000E+02  0.47000000000E+01 0. -1.
         -5    1    3    3    0  501  0.48464593011E+00 -0.34094162337E+02 -0.36266557775E+02  0.50000000000E+02  0.47000000000E+01 0.  1.
</event>
<event>
 5    1  0.9071520E-001  0.1000000E+03  0.7546771E-02  0.1163815E+00
         11   -1    0    0    0    0  0.00000000000E+00  0.00000000000E+00  0.50000000000E+02  0.50000000000E+02  0.00000000000E+00 0. -1.
        -11   -1    0    0    0    0 -0.00000000000E+00 -0.00000000000E+00 -0.50000000000E+02  0.50000000000E+02  0.00000000000E+00 0.  1.
         23    2    1    2    0    0  0.00000000000E+00  0.00000000000E+00  0.00000000000E+00  0.10000000000E+03  0.10000000000E+03 0.  0.
          5    1    3    3  501    0 -0.24460430721E+02  0.40685902760E+02 -0.14975134241E+02  0.50000000000E+02  0.47000000000E+01 0. -1.
         -5    1    3    3    0  501  0.24460430721E+02 -0.40685902760E+02  0.14975134241E+02  0.50000000000E+02  0.47000000000E+01 0.  1.
</event>
<event>
 5    1  0.9071520E-001  0.1000000E+03  0.7546771E-02  0.1163815E+00
         11   -1    0    0    0    0  0.00000000000E+00  0.00000000000E+00  0.50000000000E+02  0.50000000000E+02  0.00000000000E+00 0. -1.
        -11   -1    0    0    0    0 -0.00000000000E+00 -0.00000000000E+00 -0.50000000000E+02  0.50000000000E+02  0.00000000000E+00 0.  1.
         23    2    1    2    0    0  0.00000000000E+00  0.00000000000E+00  0.00000000000E+00  0.10000000000E+03  0.10000000000E+03 0.  0.
          5    1    3    3  501    0 -0.40586965050E+02 -0.27082066610E+02  0.98574812286E+01  0.50000000000E+02  0.47000000000E+01 0. -1.
         -5    1    3    3    0  501  0.40586965050E+02  0.27082066610E+02 -0.98574812286E+01  0.50000000000E+02  0.47000000000E+01 0.  1.
</event>
<event>
 5    1  0.9071520E-001  0.1000000E+03  0.7546771E-02  0.1163815E+00
         11   -1    0    0    0    0  0.00000000000E+00  0.00000000000E+00  0.50000000000E+02  0.50000000000E+02  0.00000000000E+00 0. -1.
        -11   -1    0    0    0    0 -0.00000000000E+00 -0.00000000000E+00 -0.50000000000E+02  0.50000000000E+02  0.00000000000E+00 0.  1.
         23    2    1    2    0    0  0.00000000000E+00  0.00000000000E+00  0.00000000000E+00  0.10000000000E+03  0.10000000000E+03 0.  0.
          5    1    3    3  501    0 -0.13227693767E+02  0.47566168176E+02  0.63559234263E+01  0.50000000000E+02  0.47000000000E+01 0. -1.
         -5    1    3    3    0  501  0.13227693767E+02 -0.47566168176E+02 -0.63559234263E+01  0.50000000000E+02  0.47000000000E+01 0.  1.
</event>
<event>
 5    1  0.9071520E-001  0.1000000E+03  0.7546771E-02  0.1163815E+00
         11   -1    0    0    0    0  0.00000000000E+00  0.00000000000E+00  0.50000000000E+02  0.50000000000E+02  0.00000000000E+00 0.  1.
        -11   -1    0    0    0    0 -0.00000000000E+00 -0.00000000000E+00 -0.50000000000E+02  0.50000000000E+02  0.00000000000E+00 0. -1.
         23    2    1    2    0    0  0.00000000000E+00  0.00000000000E+00  0.00000000000E+00  0.10000000000E+03  0.10000000000E+03 0.  0.
          5    1    3    3  501    0  0.21674124401E+02 -0.20640867024E+02 -0.39775582208E+02  0.50000000000E+02  0.47000000000E+01 0. -1.
         -5    1    3    3    0  501 -0.21674124401E+02  0.20640867024E+02  0.39775582208E+02  0.50000000000E+02  0.47000000000E+01 0.  1.
</event>
<event>
 5    1  0.9071520E-001  0.1000000E+03  0.7546771E-02  0.1163815E+00
         11   -1    0    0    0    0  0.00000000000E+00  0.00000000000E+00  0.50000000000E+02  0.50000000000E+02  0.00000000000E+00 0. -1.
        -11   -1    0    0    0    0 -0.00000000000E+00 -0.00000000000E+00 -0.50000000000E+02  0.50000000000E+02  0.00000000000E+00 0.  1.
         23    2    1    2    0    0  0.00000000000E+00  0.00000000000E+00  0.00000000000E+00  0.10000000000E+03  0.10000000000E+03 0.  0.
          5    1    3    3  501    0 -0.15622655535E+02  0.26632516173E+02  0.39045508273E+02  0.50000000000E+02  0.47000000000E+01 0. -1.
         -5    1    3    3    0  501  0.15622655535E+02 -0.26632516173E+02 -0.39045508273E+02  0.50000000000E+02  0.47000000000E+01 0.  1.
</event>
<event>
 5    1  0.9071520E-001  0.1000000E+03  0.7546771E-02  0.1163815E+00
         11   -1    0    0    0    0  0.00000000000E+00  0.00000000000E+00  0.50000000000E+02  0.50000000000E+02  0.00000000000E+00 0.  1.
        -11   -1    0    0    0    0 -0.00000000000E+00 -0.00000000000E+00 -0.50000000000E+02  0.50000000000E+02  0.00000000000E+00 0. -1.
         23    2    1    2    0    0  0.00000000000E+00  0.00000000000E+00  0.00000000000E+00  0.10000000000E+03  0.10000000000E+03 0.  0.
          5    1    3    3  501    0 -0.18398343611E+02 -0.25270592050E+02 -0.38740264968E+02  0.50000000000E+02  0.47000000000E+01 0. -1.
         -5    1    3    3    0  501  0.18398343611E+02  0.25270592050E+02  0.38740264968E+02  0.50000000000E+02  0.47000000000E+01 0.  1.
</event>
<event>
 5    1  0.9071520E-001  0.1000000E+03  0.7546771E-02  0.1163815E+00
         11   -1    0    0    0    0  0.00000000000E+00  0.00000000000E+00  0.50000000000E+02  0.50000000000E+02  0.00000000000E+00 0. -1.
        -11   -1    0    0    0    0 -0.00000000000E+00 -0.00000000000E+00 -0.50000000000E+02  0.50000000000E+02  0.00000000000E+00 0.  1.
         23    2    1    2    0    0  0.00000000000E+00  0.00000000000E+00  0.00000000000E+00  0.10000000000E+03  0.10000000000E+03 0.  0.
          5    1    3    3  501    0  0.43484602595E+02  0.91004804619E+01  0.22453966076E+02  0.50000000000E+02  0.47000000000E+01 0. -1.
         -5    1    3    3    0  501 -0.43484602595E+02 -0.91004804619E+01 -0.22453966076E+02  0.50000000000E+02  0.47000000000E+01 0.  1.
</event>
<event>
 5    1  0.9071520E-001  0.1000000E+03  0.7546771E-02  0.1163815E+00
         11   -1    0    0    0    0  0.00000000000E+00  0.00000000000E+00  0.50000000000E+02  0.50000000000E+02  0.00000000000E+00 0. -1.
        -11   -1    0    0    0    0 -0.00000000000E+00 -0.00000000000E+00 -0.50000000000E+02  0.50000000000E+02  0.00000000000E+00 0.  1.
         23    2    1    2    0    0  0.00000000000E+00  0.00000000000E+00  0.00000000000E+00  0.10000000000E+03  0.10000000000E+03 0.  0.
          5    1    3    3  501    0  0.41661556538E+02  0.27059398360E+02 -0.31644379019E+01  0.50000000000E+02  0.47000000000E+01 0. -1.
         -5    1    3    3    0  501 -0.41661556538E+02 -0.27059398360E+02  0.31644379019E+01  0.50000000000E+02  0.47000000000E+01 0.  1.
</event>
<event>
 5    1  0.9071520E-001  0.1000000E+03  0.7546771E-02  0.1163815E+00
         11   -1    0    0    0    0  0.00000000000E+00  0.00000000000E+00  0.50000000000E+02  0.50000000000E+02  0.00000000000E+00 0.  1.
        -11   -1    0    0    0    0 -0.00000000000E+00 -0.00000000000E+00 -0.50000000000E+02  0.50000000000E+02  0.00000000000E+00 0. -1.
         23    2    1    2    0    0  0.00000000000E+00  0.00000000000E+00  0.00000000000E+00  0.10000000000E+03  0.10000000000E+03 0.  0.
          5    1    3    3  501    0 -0.29215263978E+02  0.18487688127E+02 -0.35813178278E+02  0.50000000000E+02  0.47000000000E+01 0. -1.
         -5    1    3    3    0  501  0.29215263978E+02 -0.18487688127E+02  0.35813178278E+02  0.50000000000E+02  0.47000000000E+01 0.  1.
</event>
<event>
 5    1  0.9071520E-001  0.1000000E+03  0.7546771E-02  0.1163815E+00
         11   -1    0    0    0    0  0.00000000000E+00  0.00000000000E+00  0.50000000000E+02  0.50000000000E+02  0.00000000000E+00 0.  1.
        -11   -1    0    0    0    0 -0.00000000000E+00 -0.00000000000E+00 -0.50000000000E+02  0.50000000000E+02  0.00000000000E+00 0. -1.
         23    2    1    2    0    0  0.00000000000E+00  0.00000000000E+00  0.00000000000E+00  0.10000000000E+03  0.10000000000E+03 0.  0.
          5    1    3    3  501    0  0.29443398523E+02  0.10134269593E+02 -0.38836746301E+02  0.50000000000E+02  0.47000000000E+01 0. -1.
         -5    1    3    3    0  501 -0.29443398523E+02 -0.10134269593E+02  0.38836746301E+02  0.50000000000E+02  0.47000000000E+01 0.  1.
</event>
<event>
 5    1  0.9071520E-001  0.1000000E+03  0.7546771E-02  0.1163815E+00
         11   -1    0    0    0    0  0.00000000000E+00  0.00000000000E+00  0.50000000000E+02  0.50000000000E+02  0.00000000000E+00 0. -1.
        -11   -1    0    0    0    0 -0.00000000000E+00 -0.00000000000E+00 -0.50000000000E+02  0.50000000000E+02  0.00000000000E+00 0.  1.
         23    2    1    2    0    0  0.00000000000E+00  0.00000000000E+00  0.00000000000E+00  0.10000000000E+03  0.10000000000E+03 0.  0.
          5    1    3    3  501    0 -0.42180805129E+02  0.17613436228E+02 -0.19709300924E+02  0.50000000000E+02  0.47000000000E+01 0. -1.
         -5    1    3    3    0  501  0.42180805129E+02 -0.17613436228E+02  0.19709300924E+02  0.50000000000E+02  0.47000000000E+01 0.  1.
</event>
<event>
 5    1  0.9071520E-001  0.1000000E+03  0.7546771E-02  0.1163815E+00
         11   -1    0    0    0    0  0.00000000000E+00  0.00000000000E+00  0.50000000000E+02  0.50000000000E+02  0.00000000000E+00 0. -1.
        -11   -1    0    0    0    0 -0.00000000000E+00 -0.00000000000E+00 -0.50000000000E+02  0.50000000000E+02  0.00000000000E+00 0.  1.
         23    2    1    2    0    0  0.00000000000E+00  0.00000000000E+00  0.00000000000E+00  0.10000000000E+03  0.10000000000E+03 0.  0.
          5    1    3    3  501    0 -0.25490437942E+02  0.38675742128E+02  0.18230045101E+02  0.50000000000E+02  0.47000000000E+01 0. -1.
         -5    1    3    3    0  501  0.25490437942E+02 -0.38675742128E+02 -0.18230045101E+02  0.50000000000E+02  0.47000000000E+01 0.  1.
</event>
<event>
 5    1  0.9071520E-001  0.1000000E+03  0.7546771E-02  0.1163815E+00
         11   -1    0    0    0    0  0.00000000000E+00  0.00000000000E+00  0.50000000000E+02  0.50000000000E+02  0.00000000000E+00 0.  1.
        -11   -1    0    0    0    0 -0.00000000000E+00 -0.00000000000E+00 -0.50000000000E+02  0.50000000000E+02  0.00000000000E+00 0. -1.
         23    2    1    2    0    0  0.00000000000E+00  0.00000000000E+00  0.00000000000E+00  0.10000000000E+03  0.10000000000E+03 0.  0.
          5    1    3    3  501    0 -0.37242025505E+01  0.26652778644E+02 -0.41876839732E+02  0.50000000000E+02  0.47000000000E+01 0. -1.
         -5    1    3    3    0  501  0.37242025505E+01 -0.26652778644E+02  0.41876839732E+02  0.50000000000E+02  0.47000000000E+01 0.  1.
</event>
<event>
 5    1  0.9071520E-001  0.1000000E+03  0.7546771E-02  0.1163815E+00
         11   -1    0    0    0    0  0.00000000000E+00  0.00000000000E+00  0.50000000000E+02  0.50000000000E+02  0.00000000000E+00 0. -1.
        -11   -1    0    0    0    0 -0.00000000000E+00 -0.00000000000E+00 -0.50000000000E+02  0.50000000000E+02  0.00000000000E+00 0.  1.
         23    2    1    2    0    0  0.00000000000E+00  0.00000000000E+00  0.00000000000E+00  0.10000000000E+03  0.10000000000E+03 0.  0.
          5    1    3    3  501    0  0.36871468527E+02  0.33186409257E+02 -0.41312285461E+01  0.50000000000E+02  0.47000000000E+01 0. -1.
         -5    1    3    3    0  501 -0.36871468527E+02 -0.33186409257E+02  0.41312285461E+01  0.50000000000E+02  0.47000000000E+01 0.  1.
</event>
<event>
 5    1  0.9071520E-001  0.1000000E+03  0.7546771E-02  0.1163815E+00
         11   -1    0    0    0    0  0.00000000000E+00  0.00000000000E+00  0.50000000000E+02  0.50000000000E+02  0.00000000000E+00 0. -1.
        -11   -1    0    0    0    0 -0.00000000000E+00 -0.00000000000E+00 -0.50000000000E+02  0.50000000000E+02  0.00000000000E+00 0.  1.
         23    2    1    2    0    0  0.00000000000E+00  0.00000000000E+00  0.00000000000E+00  0.10000000000E+03  0.10000000000E+03 0.  0.
          5    1    3    3  501    0 -0.10234396708E+01  0.10359388336E+02  0.48677979052E+02  0.50000000000E+02  0.47000000000E+01 0. -1.
         -5    1    3    3    0  501  0.10234396708E+01 -0.10359388336E+02 -0.48677979052E+02  0.50000000000E+02  0.47000000000E+01 0.  1.
</event>
<event>
 5    1  0.9071520E-001  0.1000000E+03  0.7546771E-02  0.1163815E+00
         11   -1    0    0    0    0  0.00000000000E+00  0.00000000000E+00  0.50000000000E+02  0.50000000000E+02  0.00000000000E+00 0. -1.
        -11   -1    0    0    0    0 -0.00000000000E+00 -0.00000000000E+00 -0.50000000000E+02  0.50000000000E+02  0.00000000000E+00 0.  1.
         23    2    1    2    0    0  0.00000000000E+00  0.00000000000E+00  0.00000000000E+00  0.10000000000E+03  0.10000000000E+03 0.  0.
          5    1    3    3  501    0 -0.12990888529E+02 -0.47909139441E+02 -0.37230596687E+01  0.50000000000E+02  0.47000000000E+01 0. -1.
         -5    1    3    3    0  501  0.12990888529E+02  0.47909139441E+02  0.37230596687E+01  0.50000000000E+02  0.47000000000E+01 0.  1.
</event>
<event>
 5    1  0.9071520E-001  0.1000000E+03  0.7546771E-02  0.1163815E+00
         11   -1    0    0    0    0  0.00000000000E+00  0.00000000000E+00  0.50000000000E+02  0.50000000000E+02  0.00000000000E+00 0. -1.
        -11   -1    0    0    0    0 -0.00000000000E+00 -0.00000000000E+00 -0.50000000000E+02  0.50000000000E+02  0.00000000000E+00 0.  1.
         23    2    1    2    0    0  0.00000000000E+00  0.00000000000E+00  0.00000000000E+00  0.10000000000E+03  0.10000000000E+03 0.  0.
          5    1    3    3  501    0 -0.10149739513E+02 -0.16355854512E+02  0.45906195780E+02  0.50000000000E+02  0.47000000000E+01 0. -1.
         -5    1    3    3    0  501  0.10149739513E+02  0.16355854512E+02 -0.45906195780E+02  0.50000000000E+02  0.47000000000E+01 0.  1.
</event>
<event>
 5    1  0.9071520E-001  0.1000000E+03  0.7546771E-02  0.1163815E+00
         11   -1    0    0    0    0  0.00000000000E+00  0.00000000000E+00  0.50000000000E+02  0.50000000000E+02  0.00000000000E+00 0. -1.
        -11   -1    0    0    0    0 -0.00000000000E+00 -0.00000000000E+00 -0.50000000000E+02  0.50000000000E+02  0.00000000000E+00 0.  1.
         23    2    1    2    0    0  0.00000000000E+00  0.00000000000E+00  0.00000000000E+00  0.10000000000E+03  0.10000000000E+03 0.  0.
          5    1    3    3  501    0  0.18123944396E+02  0.40497744190E+02  0.22569123932E+02  0.50000000000E+02  0.47000000000E+01 0. -1.
         -5    1    3    3    0  501 -0.18123944396E+02 -0.40497744190E+02 -0.22569123932E+02  0.50000000000E+02  0.47000000000E+01 0.  1.
</event>
<event>
 5    1  0.9071520E-001  0.1000000E+03  0.7546771E-02  0.1163815E+00
         11   -1    0    0    0    0  0.00000000000E+00  0.00000000000E+00  0.50000000000E+02  0.50000000000E+02  0.00000000000E+00 0.  1.
        -11   -1    0    0    0    0 -0.00000000000E+00 -0.00000000000E+00 -0.50000000000E+02  0.50000000000E+02  0.00000000000E+00 0. -1.
         23    2    1    2    0    0  0.00000000000E+00  0.00000000000E+00  0.00000000000E+00  0.10000000000E+03  0.10000000000E+03 0.  0.
          5    1    3    3  501    0  0.13036686908E+02 -0.26604160122E+02 -0.40002168175E+02  0.50000000000E+02  0.47000000000E+01 0. -1.
         -5    1    3    3    0  501 -0.13036686908E+02  0.26604160122E+02  0.40002168175E+02  0.50000000000E+02  0.47000000000E+01 0.  1.
</event>
<event>
 5    1  0.9071520E-001  0.1000000E+03  0.7546771E-02  0.1163815E+00
         11   -1    0    0    0    0  0.00000000000E+00  0.00000000000E+00  0.50000000000E+02  0.50000000000E+02  0.00000000000E+00 0. -1.
        -11   -1    0    0    0    0 -0.00000000000E+00 -0.00000000000E+00 -0.50000000000E+02  0.50000000000E+02  0.00000000000E+00 0.  1.
         23    2    1    2    0    0  0.00000000000E+00  0.00000000000E+00  0.00000000000E+00  0.10000000000E+03  0.10000000000E+03 0.  0.
          5    1    3    3  501    0 -0.18815878568E+02  0.12709402655E+02 -0.44298349832E+02  0.50000000000E+02  0.47000000000E+01 0.  1.
         -5    1    3    3    0  501  0.18815878568E+02 -0.12709402655E+02  0.44298349832E+02  0.50000000000E+02  0.47000000000E+01 0. -1.
</event>
<event>
 5    1  0.9071520E-001  0.1000000E+03  0.7546771E-02  0.1163815E+00
         11   -1    0    0    0    0  0.00000000000E+00  0.00000000000E+00  0.50000000000E+02  0.50000000000E+02  0.00000000000E+00 0. -1.
        -11   -1    0    0    0    0 -0.00000000000E+00 -0.00000000000E+00 -0.50000000000E+02  0.50000000000E+02  0.00000000000E+00 0.  1.
         23    2    1    2    0    0  0.00000000000E+00  0.00000000000E+00  0.00000000000E+00  0.10000000000E+03  0.10000000000E+03 0.  0.
          5    1    3    3  501    0 -0.37927498063E+01 -0.22284950318E+02  0.44349814410E+02  0.50000000000E+02  0.47000000000E+01 0. -1.
         -5    1    3    3    0  501  0.37927498063E+01  0.22284950318E+02 -0.44349814410E+02  0.50000000000E+02  0.47000000000E+01 0.  1.
</event>
<event>
 5    1  0.9071520E-001  0.1000000E+03  0.7546771E-02  0.1163815E+00
         11   -1    0    0    0    0  0.00000000000E+00  0.00000000000E+00  0.50000000000E+02  0.50000000000E+02  0.00000000000E+00 0.  1.
        -11   -1    0    0    0    0 -0.00000000000E+00 -0.00000000000E+00 -0.50000000000E+02  0.50000000000E+02  0.00000000000E+00 0. -1.
         23    2    1    2    0    0  0.00000000000E+00  0.00000000000E+00  0.00000000000E+00  0.10000000000E+03  0.10000000000E+03 0.  0.
          5    1    3    3  501    0 -0.76301048677E+01  0.47256811893E+02 -0.13655959483E+02  0.50000000000E+02  0.47000000000E+01 0. -1.
         -5    1    3    3    0  501  0.76301048677E+01 -0.47256811893E+02  0.13655959483E+02  0.50000000000E+02  0.47000000000E+01 0.  1.
</event>
<event>
 5    1  0.9071520E-001  0.1000000E+03  0.7546771E-02  0.1163815E+00
         11   -1    0    0    0    0  0.00000000000E+00  0.00000000000E+00  0.50000000000E+02  0.50000000000E+02  0.00000000000E+00 0. -1.
        -11   -1    0    0    0    0 -0.00000000000E+00 -0.00000000000E+00 -0.50000000000E+02  0.50000000000E+02  0.00000000000E+00 0.  1.
         23    2    1    2    0    0  0.00000000000E+00  0.00000000000E+00  0.00000000000E+00  0.10000000000E+03  0.10000000000E+03 0.  0.
          5    1    3    3  501    0 -0.19374067224E+02 -0.22743614461E+02  0.39815619051E+02  0.50000000000E+02  0.47000000000E+01 0. -1.
         -5    1    3    3    0  501  0.19374067224E+02  0.22743614461E+02 -0.39815619051E+02  0.50000000000E+02  0.47000000000E+01 0.  1.
</event>
<event>
 5    1  0.9071520E-001  0.1000000E+03  0.7546771E-02  0.1163815E+00
         11   -1    0    0    0    0  0.00000000000E+00  0.00000000000E+00  0.50000000000E+02  0.50000000000E+02  0.00000000000E+00 0. -1.
        -11   -1    0    0    0    0 -0.00000000000E+00 -0.00000000000E+00 -0.50000000000E+02  0.50000000000E+02  0.00000000000E+00 0.  1.
         23    2    1    2    0    0  0.00000000000E+00  0.00000000000E+00  0.00000000000E+00  0.10000000000E+03  0.10000000000E+03 0.  0.
          5    1    3    3  501    0 -0.34339676815E+02 -0.30189488256E+02  0.19679720401E+02  0.50000000000E+02  0.47000000000E+01 0. -1.
         -5    1    3    3    0  501  0.34339676815E+02  0.30189488256E+02 -0.19679720401E+02  0.50000000000E+02  0.47000000000E+01 0.  1.
</event>
<event>
 5    1  0.9071520E-001  0.1000000E+03  0.7546771E-02  0.1163815E+00
         11   -1    0    0    0    0  0.00000000000E+00  0.00000000000E+00  0.50000000000E+02  0.50000000000E+02  0.00000000000E+00 0. -1.
        -11   -1    0    0    0    0 -0.00000000000E+00 -0.00000000000E+00 -0.50000000000E+02  0.50000000000E+02  0.00000000000E+00 0.  1.
         23    2    1    2    0    0  0.00000000000E+00  0.00000000000E+00  0.00000000000E+00  0.10000000000E+03  0.10000000000E+03 0.  0.
          5    1    3    3  501    0  0.95018765187E+01 -0.78157561805E+01  0.48234202574E+02  0.50000000000E+02  0.47000000000E+01 0. -1.
         -5    1    3    3    0  501 -0.95018765187E+01  0.78157561805E+01 -0.48234202574E+02  0.50000000000E+02  0.47000000000E+01 0.  1.
</event>
<event>
 5    1  0.9071520E-001  0.1000000E+03  0.7546771E-02  0.1163815E+00
         11   -1    0    0    0    0  0.00000000000E+00  0.00000000000E+00  0.50000000000E+02  0.50000000000E+02  0.00000000000E+00 0.  1.
        -11   -1    0    0    0    0 -0.00000000000E+00 -0.00000000000E+00 -0.50000000000E+02  0.50000000000E+02  0.00000000000E+00 0. -1.
         23    2    1    2    0    0  0.00000000000E+00  0.00000000000E+00  0.00000000000E+00  0.10000000000E+03  0.10000000000E+03 0.  0.
          5    1    3    3  501    0 -0.12861212538E+02  0.87292194325E+01 -0.47289533093E+02  0.50000000000E+02  0.47000000000E+01 0. -1.
         -5    1    3    3    0  501  0.12861212538E+02 -0.87292194325E+01  0.47289533093E+02  0.50000000000E+02  0.47000000000E+01 0.  1.
</event>
<event>
 5    1  0.9071520E-001  0.1000000E+03  0.7546771E-02  0.1163815E+00
         11   -1    0    0    0    0  0.00000000000E+00  0.00000000000E+00  0.50000000000E+02  0.50000000000E+02  0.00000000000E+00 0. -1.
        -11   -1    0    0    0    0 -0.00000000000E+00 -0.00000000000E+00 -0.50000000000E+02  0.50000000000E+02  0.00000000000E+00 0.  1.
         23    2    1    2    0    0  0.00000000000E+00  0.00000000000E+00  0.00000000000E+00  0.10000000000E+03  0.10000000000E+03 0.  0.
          5    1    3    3  501    0 -0.26552426835E+02 -0.60851725946E+01  0.41663524859E+02  0.50000000000E+02  0.47000000000E+01 0. -1.
         -5    1    3    3    0  501  0.26552426835E+02  0.60851725946E+01 -0.41663524859E+02  0.50000000000E+02  0.47000000000E+01 0.  1.
</event>
<event>
 5    1  0.9071520E-001  0.1000000E+03  0.7546771E-02  0.1163815E+00
         11   -1    0    0    0    0  0.00000000000E+00  0.00000000000E+00  0.50000000000E+02  0.50000000000E+02  0.00000000000E+00 0. -1.
        -11   -1    0    0    0    0 -0.00000000000E+00 -0.00000000000E+00 -0.50000000000E+02  0.50000000000E+02  0.00000000000E+00 0.  1.
         23    2    1    2    0    0  0.00000000000E+00  0.00000000000E+00  0.00000000000E+00  0.10000000000E+03  0.10000000000E+03 0.  0.
          5    1    3    3  501    0 -0.35040641954E+02  0.52288065892E+01 -0.34967456200E+02  0.50000000000E+02  0.47000000000E+01 0. -1.
         -5    1    3    3    0  501  0.35040641954E+02 -0.52288065892E+01  0.34967456200E+02  0.50000000000E+02  0.47000000000E+01 0.  1.
</event>
<event>
 5    1  0.9071520E-001  0.1000000E+03  0.7546771E-02  0.1163815E+00
         11   -1    0    0    0    0  0.00000000000E+00  0.00000000000E+00  0.50000000000E+02  0.50000000000E+02  0.00000000000E+00 0. -1.
        -11   -1    0    0    0    0 -0.00000000000E+00 -0.00000000000E+00 -0.50000000000E+02  0.50000000000E+02  0.00000000000E+00 0.  1.
         23    2    1    2    0    0  0.00000000000E+00  0.00000000000E+00  0.00000000000E+00  0.10000000000E+03  0.10000000000E+03 0.  0.
          5    1    3    3  501    0 -0.26978033031E+02  0.33058100553E+02  0.25637038081E+02  0.50000000000E+02  0.47000000000E+01 0. -1.
         -5    1    3    3    0  501  0.26978033031E+02 -0.33058100553E+02 -0.25637038081E+02  0.50000000000E+02  0.47000000000E+01 0.  1.
</event>
<event>
 5    1  0.9071520E-001  0.1000000E+03  0.7546771E-02  0.1163815E+00
         11   -1    0    0    0    0  0.00000000000E+00  0.00000000000E+00  0.50000000000E+02  0.50000000000E+02  0.00000000000E+00 0.  1.
        -11   -1    0    0    0    0 -0.00000000000E+00 -0.00000000000E+00 -0.50000000000E+02  0.50000000000E+02  0.00000000000E+00 0. -1.
         23    2    1    2    0    0  0.00000000000E+00  0.00000000000E+00  0.00000000000E+00  0.10000000000E+03  0.10000000000E+03 0.  0.
          5    1    3    3  501    0 -0.83383277145E+00  0.29743808740E+02 -0.39906397539E+02  0.50000000000E+02  0.47000000000E+01 0. -1.
         -5    1    3    3    0  501  0.83383277145E+00 -0.29743808740E+02  0.39906397539E+02  0.50000000000E+02  0.47000000000E+01 0.  1.
</event>
<event>
 5    1  0.9071520E-001  0.1000000E+03  0.7546771E-02  0.1163815E+00
         11   -1    0    0    0    0  0.00000000000E+00  0.00000000000E+00  0.50000000000E+02  0.50000000000E+02  0.00000000000E+00 0. -1.
        -11   -1    0    0    0    0 -0.00000000000E+00 -0.00000000000E+00 -0.50000000000E+02  0.50000000000E+02  0.00000000000E+00 0.  1.
         23    2    1    2    0    0  0.00000000000E+00  0.00000000000E+00  0.00000000000E+00  0.10000000000E+03  0.10000000000E+03 0.  0.
          5    1    3    3  501    0  0.30040493167E+02 -0.23428612372E+02 -0.32040269858E+02  0.50000000000E+02  0.47000000000E+01 0. -1.
         -5    1    3    3    0  501 -0.30040493167E+02  0.23428612372E+02  0.32040269858E+02  0.50000000000E+02  0.47000000000E+01 0.  1.
</event>
<event>
 5    1  0.9071520E-001  0.1000000E+03  0.7546771E-02  0.1163815E+00
         11   -1    0    0    0    0  0.00000000000E+00  0.00000000000E+00  0.50000000000E+02  0.50000000000E+02  0.00000000000E+00 0.  1.
        -11   -1    0    0    0    0 -0.00000000000E+00 -0.00000000000E+00 -0.50000000000E+02  0.50000000000E+02  0.00000000000E+00 0. -1.
         23    2    1    2    0    0  0.00000000000E+00  0.00000000000E+00  0.00000000000E+00  0.10000000000E+03  0.10000000000E+03 0.  0.
          5    1    3    3  501    0 -0.17440323130E+02  0.33727300280E+02 -0.32190283393E+02  0.50000000000E+02  0.47000000000E+01 0. -1.
         -5    1    3    3    0  501  0.17440323130E+02 -0.33727300280E+02  0.32190283393E+02  0.50000000000E+02  0.47000000000E+01 0.  1.
</event>
<event>
 5    1  0.9071520E-001  0.1000000E+03  0.7546771E-02  0.1163815E+00
         11   -1    0    0    0    0  0.00000000000E+00  0.00000000000E+00  0.50000000000E+02  0.50000000000E+02  0.00000000000E+00 0.  1.
        -11   -1    0    0    0    0 -0.00000000000E+00 -0.00000000000E+00 -0.50000000000E+02  0.50000000000E+02  0.00000000000E+00 0. -1.
         23    2    1    2    0    0  0.00000000000E+00  0.00000000000E+00  0.00000000000E+00  0.10000000000E+03  0.10000000000E+03 0.  0.
          5    1    3    3  501    0 -0.42249147649E+02 -0.26197941183E+02  0.25665932112E+01  0.50000000000E+02  0.47000000000E+01 0. -1.
         -5    1    3    3    0  501  0.42249147649E+02  0.26197941183E+02 -0.25665932112E+01  0.50000000000E+02  0.47000000000E+01 0.  1.
</event>
<event>
 5    1  0.9071520E-001  0.1000000E+03  0.7546771E-02  0.1163815E+00
         11   -1    0    0    0    0  0.00000000000E+00  0.00000000000E+00  0.50000000000E+02  0.50000000000E+02  0.00000000000E+00 0.  1.
        -11   -1    0    0    0    0 -0.00000000000E+00 -0.00000000000E+00 -0.50000000000E+02  0.50000000000E+02  0.00000000000E+00 0. -1.
         23    2    1    2    0    0  0.00000000000E+00  0.00000000000E+00  0.00000000000E+00  0.10000000000E+03  0.10000000000E+03 0.  0.
          5    1    3    3  501    0  0.17349390766E+02  0.30819825333E+02 -0.35029230744E+02  0.50000000000E+02  0.47000000000E+01 0. -1.
         -5    1    3    3    0  501 -0.17349390766E+02 -0.30819825333E+02  0.35029230744E+02  0.50000000000E+02  0.47000000000E+01 0.  1.
</event>
<event>
 5    1  0.9071520E-001  0.1000000E+03  0.7546771E-02  0.1163815E+00
         11   -1    0    0    0    0  0.00000000000E+00  0.00000000000E+00  0.50000000000E+02  0.50000000000E+02  0.00000000000E+00 0.  1.
        -11   -1    0    0    0    0 -0.00000000000E+00 -0.00000000000E+00 -0.50000000000E+02  0.50000000000E+02  0.00000000000E+00 0. -1.
         23    2    1    2    0    0  0.00000000000E+00  0.00000000000E+00  0.00000000000E+00  0.10000000000E+03  0.10000000000E+03 0.  0.
          5    1    3    3  501    0  0.42292403930E+02 -0.26215638002E+02  0.14152363598E+01  0.50000000000E+02  0.47000000000E+01 0. -1.
         -5    1    3    3    0  501 -0.42292403930E+02  0.26215638002E+02 -0.14152363598E+01  0.50000000000E+02  0.47000000000E+01 0.  1.
</event>
<event>
 5    1  0.9071520E-001  0.1000000E+03  0.7546771E-02  0.1163815E+00
         11   -1    0    0    0    0  0.00000000000E+00  0.00000000000E+00  0.50000000000E+02  0.50000000000E+02  0.00000000000E+00 0. -1.
        -11   -1    0    0    0    0 -0.00000000000E+00 -0.00000000000E+00 -0.50000000000E+02  0.50000000000E+02  0.00000000000E+00 0.  1.
         23    2    1    2    0    0  0.00000000000E+00  0.00000000000E+00  0.00000000000E+00  0.10000000000E+03  0.10000000000E+03 0.  0.
          5    1    3    3  501    0  0.46387090219E+02 -0.17277733685E+02 -0.52562134451E+01  0.50000000000E+02  0.47000000000E+01 0. -1.
         -5    1    3    3    0  501 -0.46387090219E+02  0.17277733685E+02  0.52562134451E+01  0.50000000000E+02  0.47000000000E+01 0.  1.
</event>
<event>
 5    1  0.9071520E-001  0.1000000E+03  0.7546771E-02  0.1163815E+00
         11   -1    0    0    0    0  0.00000000000E+00  0.00000000000E+00  0.50000000000E+02  0.50000000000E+02  0.00000000000E+00 0. -1.
        -11   -1    0    0    0    0 -0.00000000000E+00 -0.00000000000E+00 -0.50000000000E+02  0.50000000000E+02  0.00000000000E+00 0.  1.
         23    2    1    2    0    0  0.00000000000E+00  0.00000000000E+00  0.00000000000E+00  0.10000000000E+03  0.10000000000E+03 0.  0.
          5    1    3    3  501    0 -0.32359839149E+01 -0.16802441729E+02  0.46745228206E+02  0.50000000000E+02  0.47000000000E+01 0. -1.
         -5    1    3    3    0  501  0.32359839149E+01  0.16802441729E+02 -0.46745228206E+02  0.50000000000E+02  0.47000000000E+01 0.  1.
</event>
<event>
 5    1  0.9071520E-001  0.1000000E+03  0.7546771E-02  0.1163815E+00
         11   -1    0    0    0    0  0.00000000000E+00  0.00000000000E+00  0.50000000000E+02  0.50000000000E+02  0.00000000000E+00 0. -1.
        -11   -1    0    0    0    0 -0.00000000000E+00 -0.00000000000E+00 -0.50000000000E+02  0.50000000000E+02  0.00000000000E+00 0.  1.
         23    2    1    2    0    0  0.00000000000E+00  0.00000000000E+00  0.00000000000E+00  0.10000000000E+03  0.10000000000E+03 0.  0.
          5    1    3    3  501    0  0.98980711555E+01  0.45365933707E+01  0.48573218011E+02  0.50000000000E+02  0.47000000000E+01 0. -1.
         -5    1    3    3    0  501 -0.98980711555E+01 -0.45365933707E+01 -0.48573218011E+02  0.50000000000E+02  0.47000000000E+01 0.  1.
</event>
<event>
 5    1  0.9071520E-001  0.1000000E+03  0.7546771E-02  0.1163815E+00
         11   -1    0    0    0    0  0.00000000000E+00  0.00000000000E+00  0.50000000000E+02  0.50000000000E+02  0.00000000000E+00 0.  1.
        -11   -1    0    0    0    0 -0.00000000000E+00 -0.00000000000E+00 -0.50000000000E+02  0.50000000000E+02  0.00000000000E+00 0. -1.
         23    2    1    2    0    0  0.00000000000E+00  0.00000000000E+00  0.00000000000E+00  0.10000000000E+03  0.10000000000E+03 0.  0.
          5    1    3    3  501    0 -0.76623562515E+00 -0.39934379606E+02 -0.29708049556E+02  0.50000000000E+02  0.47000000000E+01 0. -1.
         -5    1    3    3    0  501  0.76623562515E+00  0.39934379606E+02  0.29708049556E+02  0.50000000000E+02  0.47000000000E+01 0.  1.
</event>
<event>
 5    1  0.9071520E-001  0.1000000E+03  0.7546771E-02  0.1163815E+00
         11   -1    0    0    0    0  0.00000000000E+00  0.00000000000E+00  0.50000000000E+02  0.50000000000E+02  0.00000000000E+00 0.  1.
        -11   -1    0    0    0    0 -0.00000000000E+00 -0.00000000000E+00 -0.50000000000E+02  0.50000000000E+02  0.00000000000E+00 0. -1.
         23    2    1    2    0    0  0.00000000000E+00  0.00000000000E+00  0.00000000000E+00  0.10000000000E+03  0.10000000000E+03 0.  0.
          5    1    3    3  501    0  0.47005084442E+02  0.16048985923E+02 -0.32957681100E+01  0.50000000000E+02  0.47000000000E+01 0.  1.
         -5    1    3    3    0  501 -0.47005084442E+02 -0.16048985923E+02  0.32957681100E+01  0.50000000000E+02  0.47000000000E+01 0. -1.
</event>
<event>
 5    1  0.9071520E-001  0.1000000E+03  0.7546771E-02  0.1163815E+00
         11   -1    0    0    0    0  0.00000000000E+00  0.00000000000E+00  0.50000000000E+02  0.50000000000E+02  0.00000000000E+00 0. -1.
        -11   -1    0    0    0    0 -0.00000000000E+00 -0.00000000000E+00 -0.50000000000E+02  0.50000000000E+02  0.00000000000E+00 0.  1.
         23    2    1    2    0    0  0.00000000000E+00  0.00000000000E+00  0.00000000000E+00  0.10000000000E+03  0.10000000000E+03 0.  0.
          5    1    3    3  501    0 -0.17432283962E+02  0.36954759257E+02  0.28431870219E+02  0.50000000000E+02  0.47000000000E+01 0. -1.
         -5    1    3    3    0  501  0.17432283962E+02 -0.36954759257E+02 -0.28431870219E+02  0.50000000000E+02  0.47000000000E+01 0.  1.
</event>
<event>
 5    1  0.9071520E-001  0.1000000E+03  0.7546771E-02  0.1163815E+00
         11   -1    0    0    0    0  0.00000000000E+00  0.00000000000E+00  0.50000000000E+02  0.50000000000E+02  0.00000000000E+00 0. -1.
        -11   -1    0    0    0    0 -0.00000000000E+00 -0.00000000000E+00 -0.50000000000E+02  0.50000000000E+02  0.00000000000E+00 0.  1.
         23    2    1    2    0    0  0.00000000000E+00  0.00000000000E+00  0.00000000000E+00  0.10000000000E+03  0.10000000000E+03 0.  0.
          5    1    3    3  501    0  0.12949218740E+02  0.35452491434E+02  0.32455332153E+02  0.50000000000E+02  0.47000000000E+01 0. -1.
         -5    1    3    3    0  501 -0.12949218740E+02 -0.35452491434E+02 -0.32455332153E+02  0.50000000000E+02  0.47000000000E+01 0.  1.
</event>
<event>
 5    1  0.9071520E-001  0.1000000E+03  0.7546771E-02  0.1163815E+00
         11   -1    0    0    0    0  0.00000000000E+00  0.00000000000E+00  0.50000000000E+02  0.50000000000E+02  0.00000000000E+00 0. -1.
        -11   -1    0    0    0    0 -0.00000000000E+00 -0.00000000000E+00 -0.50000000000E+02  0.50000000000E+02  0.00000000000E+00 0.  1.
         23    2    1    2    0    0  0.00000000000E+00  0.00000000000E+00  0.00000000000E+00  0.10000000000E+03  0.10000000000E+03 0.  0.
          5    1    3    3  501    0 -0.32735848906E+02  0.70582309320E+01  0.36830090585E+02  0.50000000000E+02  0.47000000000E+01 0. -1.
         -5    1    3    3    0  501  0.32735848906E+02 -0.70582309320E+01 -0.36830090585E+02  0.50000000000E+02  0.47000000000E+01 0.  1.
</event>
<event>
 5    1  0.9071520E-001  0.1000000E+03  0.7546771E-02  0.1163815E+00
         11   -1    0    0    0    0  0.00000000000E+00  0.00000000000E+00  0.50000000000E+02  0.50000000000E+02  0.00000000000E+00 0. -1.
        -11   -1    0    0    0    0 -0.00000000000E+00 -0.00000000000E+00 -0.50000000000E+02  0.50000000000E+02  0.00000000000E+00 0.  1.
         23    2    1    2    0    0  0.00000000000E+00  0.00000000000E+00  0.00000000000E+00  0.10000000000E+03  0.10000000000E+03 0.  0.
          5    1    3    3  501    0  0.48424491324E+02  0.63928229273E+01  0.95974191863E+01  0.50000000000E+02  0.47000000000E+01 0. -1.
         -5    1    3    3    0  501 -0.48424491324E+02 -0.63928229273E+01 -0.95974191863E+01  0.50000000000E+02  0.47000000000E+01 0.  1.
</event>
<event>
 5    1  0.9071520E-001  0.1000000E+03  0.7546771E-02  0.1163815E+00
         11   -1    0    0    0    0  0.00000000000E+00  0.00000000000E+00  0.50000000000E+02  0.50000000000E+02  0.00000000000E+00 0. -1.
        -11   -1    0    0    0    0 -0.00000000000E+00 -0.00000000000E+00 -0.50000000000E+02  0.50000000000E+02  0.00000000000E+00 0.  1.
         23    2    1    2    0    0  0.00000000000E+00  0.00000000000E+00  0.00000000000E+00  0.10000000000E+03  0.10000000000E+03 0.  0.
          5    1    3    3  501    0  0.13179292176E+02 -0.33404650414E+02  0.34472388784E+02  0.50000000000E+02  0.47000000000E+01 0. -1.
         -5    1    3    3    0  501 -0.13179292176E+02  0.33404650414E+02 -0.34472388784E+02  0.50000000000E+02  0.47000000000E+01 0.  1.
</event>
<event>
 5    1  0.9071520E-001  0.1000000E+03  0.7546771E-02  0.1163815E+00
         11   -1    0    0    0    0  0.00000000000E+00  0.00000000000E+00  0.50000000000E+02  0.50000000000E+02  0.00000000000E+00 0.  1.
        -11   -1    0    0    0    0 -0.00000000000E+00 -0.00000000000E+00 -0.50000000000E+02  0.50000000000E+02  0.00000000000E+00 0. -1.
         23    2    1    2    0    0  0.00000000000E+00  0.00000000000E+00  0.00000000000E+00  0.10000000000E+03  0.10000000000E+03 0.  0.
          5    1    3    3  501    0 -0.13907093851E+02 -0.11607096802E+02 -0.46365699008E+02  0.50000000000E+02  0.47000000000E+01 0. -1.
         -5    1    3    3    0  501  0.13907093851E+02  0.11607096802E+02  0.46365699008E+02  0.50000000000E+02  0.47000000000E+01 0.  1.
</event>
<event>
 5    1  0.9071520E-001  0.1000000E+03  0.7546771E-02  0.1163815E+00
         11   -1    0    0    0    0  0.00000000000E+00  0.00000000000E+00  0.50000000000E+02  0.50000000000E+02  0.00000000000E+00 0. -1.
        -11   -1    0    0    0    0 -0.00000000000E+00 -0.00000000000E+00 -0.50000000000E+02  0.50000000000E+02  0.00000000000E+00 0.  1.
         23    2    1    2    0    0  0.00000000000E+00  0.00000000000E+00  0.00000000000E+00  0.10000000000E+03  0.10000000000E+03 0.  0.
          5    1    3    3  501    0 -0.45253422043E+02  0.15288194126E+02  0.14011028290E+02  0.50000000000E+02  0.47000000000E+01 0. -1.
         -5    1    3    3    0  501  0.45253422043E+02 -0.15288194126E+02 -0.14011028290E+02  0.50000000000E+02  0.47000000000E+01 0.  1.
</event>
<event>
 5    1  0.9071520E-001  0.1000000E+03  0.7546771E-02  0.1163815E+00
         11   -1    0    0    0    0  0.00000000000E+00  0.00000000000E+00  0.50000000000E+02  0.50000000000E+02  0.00000000000E+00 0. -1.
        -11   -1    0    0    0    0 -0.00000000000E+00 -0.00000000000E+00 -0.50000000000E+02  0.50000000000E+02  0.00000000000E+00 0.  1.
         23    2    1    2    0    0  0.00000000000E+00  0.00000000000E+00  0.00000000000E+00  0.10000000000E+03  0.10000000000E+03 0.  0.
          5    1    3    3  501    0  0.25610266414E+02  0.32844474989E+02  0.27262881669E+02  0.50000000000E+02  0.47000000000E+01 0. -1.
         -5    1    3    3    0  501 -0.25610266414E+02 -0.32844474989E+02 -0.27262881669E+02  0.50000000000E+02  0.47000000000E+01 0.  1.
</event>
<event>
 5    1  0.9071520E-001  0.1000000E+03  0.7546771E-02  0.1163815E+00
         11   -1    0    0    0    0  0.00000000000E+00  0.00000000000E+00  0.50000000000E+02  0.50000000000E+02  0.00000000000E+00 0. -1.
        -11   -1    0    0    0    0 -0.00000000000E+00 -0.00000000000E+00 -0.50000000000E+02  0.50000000000E+02  0.00000000000E+00 0.  1.
         23    2    1    2    0    0  0.00000000000E+00  0.00000000000E+00  0.00000000000E+00  0.10000000000E+03  0.10000000000E+03 0.  0.
          5    1    3    3  501    0 -0.26397476020E+02 -0.98469625791E+01  0.41038038303E+02  0.50000000000E+02  0.47000000000E+01 0. -1.
         -5    1    3    3    0  501  0.26397476020E+02  0.98469625791E+01 -0.41038038303E+02  0.50000000000E+02  0.47000000000E+01 0.  1.
</event>
<event>
 5    1  0.9071520E-001  0.1000000E+03  0.7546771E-02  0.1163815E+00
         11   -1    0    0    0    0  0.00000000000E+00  0.00000000000E+00  0.50000000000E+02  0.50000000000E+02  0.00000000000E+00 0. -1.
        -11   -1    0    0    0    0 -0.00000000000E+00 -0.00000000000E+00 -0.50000000000E+02  0.50000000000E+02  0.00000000000E+00 0.  1.
         23    2    1    2    0    0  0.00000000000E+00  0.00000000000E+00  0.00000000000E+00  0.10000000000E+03  0.10000000000E+03 0.  0.
          5    1    3    3  501    0 -0.11665441766E+02  0.71791516020E+01  0.47856945689E+02  0.50000000000E+02  0.47000000000E+01 0. -1.
         -5    1    3    3    0  501  0.11665441766E+02 -0.71791516020E+01 -0.47856945689E+02  0.50000000000E+02  0.47000000000E+01 0.  1.
</event>
<event>
 5    1  0.9071520E-001  0.1000000E+03  0.7546771E-02  0.1163815E+00
         11   -1    0    0    0    0  0.00000000000E+00  0.00000000000E+00  0.50000000000E+02  0.50000000000E+02  0.00000000000E+00 0.  1.
        -11   -1    0    0    0    0 -0.00000000000E+00 -0.00000000000E+00 -0.50000000000E+02  0.50000000000E+02  0.00000000000E+00 0. -1.
         23    2    1    2    0    0  0.00000000000E+00  0.00000000000E+00  0.00000000000E+00  0.10000000000E+03  0.10000000000E+03 0.  0.
          5    1    3    3  501    0 -0.21099784055E+01  0.49703497204E+02 -0.17379173812E+01  0.50000000000E+02  0.47000000000E+01 0. -1.
         -5    1    3    3    0  501  0.21099784055E+01 -0.49703497204E+02  0.17379173812E+01  0.50000000000E+02  0.47000000000E+01 0.  1.
</event>
<event>
 5    1  0.9071520E-001  0.1000000E+03  0.7546771E-02  0.1163815E+00
         11   -1    0    0    0    0  0.00000000000E+00  0.00000000000E+00  0.50000000000E+02  0.50000000000E+02  0.00000000000E+00 0. -1.
        -11   -1    0    0    0    0 -0.00000000000E+00 -0.00000000000E+00 -0.50000000000E+02  0.50000000000E+02  0.00000000000E+00 0.  1.
         23    2    1    2    0    0  0.00000000000E+00  0.00000000000E+00  0.00000000000E+00  0.10000000000E+03  0.10000000000E+03 0.  0.
          5    1    3    3  501    0  0.37121840041E+02 -0.20498494133E+02  0.26070878970E+02  0.50000000000E+02  0.47000000000E+01 0. -1.
         -5    1    3    3    0  501 -0.37121840041E+02  0.20498494133E+02 -0.26070878970E+02  0.50000000000E+02  0.47000000000E+01 0.  1.
</event>
<event>
 5    1  0.9071520E-001  0.1000000E+03  0.7546771E-02  0.1163815E+00
         11   -1    0    0    0    0  0.00000000000E+00  0.00000000000E+00  0.50000000000E+02  0.50000000000E+02  0.00000000000E+00 0. -1.
        -11   -1    0    0    0    0 -0.00000000000E+00 -0.00000000000E+00 -0.50000000000E+02  0.50000000000E+02  0.00000000000E+00 0.  1.
         23    2    1    2    0    0  0.00000000000E+00  0.00000000000E+00  0.00000000000E+00  0.10000000000E+03  0.10000000000E+03 0.  0.
          5    1    3    3  501    0  0.10646953901E+02  0.47046594389E+02  0.12295134365E+02  0.50000000000E+02  0.47000000000E+01 0. -1.
         -5    1    3    3    0  501 -0.10646953901E+02 -0.47046594389E+02 -0.12295134365E+02  0.50000000000E+02  0.47000000000E+01 0.  1.
</event>
<event>
 5    1  0.9071520E-001  0.1000000E+03  0.7546771E-02  0.1163815E+00
         11   -1    0    0    0    0  0.00000000000E+00  0.00000000000E+00  0.50000000000E+02  0.50000000000E+02  0.00000000000E+00 0. -1.
        -11   -1    0    0    0    0 -0.00000000000E+00 -0.00000000000E+00 -0.50000000000E+02  0.50000000000E+02  0.00000000000E+00 0.  1.
         23    2    1    2    0    0  0.00000000000E+00  0.00000000000E+00  0.00000000000E+00  0.10000000000E+03  0.10000000000E+03 0.  0.
          5    1    3    3  501    0 -0.36125903715E+02 -0.18626035317E+02  0.28738474023E+02  0.50000000000E+02  0.47000000000E+01 0. -1.
         -5    1    3    3    0  501  0.36125903715E+02  0.18626035317E+02 -0.28738474023E+02  0.50000000000E+02  0.47000000000E+01 0.  1.
</event>
<event>
 5    1  0.9071520E-001  0.1000000E+03  0.7546771E-02  0.1163815E+00
         11   -1    0    0    0    0  0.00000000000E+00  0.00000000000E+00  0.50000000000E+02  0.50000000000E+02  0.00000000000E+00 0.  1.
        -11   -1    0    0    0    0 -0.00000000000E+00 -0.00000000000E+00 -0.50000000000E+02  0.50000000000E+02  0.00000000000E+00 0. -1.
         23    2    1    2    0    0  0.00000000000E+00  0.00000000000E+00  0.00000000000E+00  0.10000000000E+03  0.10000000000E+03 0.  0.
          5    1    3    3  501    0 -0.39774103274E+02 -0.29117979379E+02 -0.69335406285E+01  0.50000000000E+02  0.47000000000E+01 0. -1.
         -5    1    3    3    0  501  0.39774103274E+02  0.29117979379E+02  0.69335406285E+01  0.50000000000E+02  0.47000000000E+01 0.  1.
</event>
<event>
 5    1  0.9071520E-001  0.1000000E+03  0.7546771E-02  0.1163815E+00
         11   -1    0    0    0    0  0.00000000000E+00  0.00000000000E+00  0.50000000000E+02  0.50000000000E+02  0.00000000000E+00 0. -1.
        -11   -1    0    0    0    0 -0.00000000000E+00 -0.00000000000E+00 -0.50000000000E+02  0.50000000000E+02  0.00000000000E+00 0.  1.
         23    2    1    2    0    0  0.00000000000E+00  0.00000000000E+00  0.00000000000E+00  0.10000000000E+03  0.10000000000E+03 0.  0.
          5    1    3    3  501    0  0.17709158163E+02  0.44018181886E+02 -0.15056406631E+02  0.50000000000E+02  0.47000000000E+01 0. -1.
         -5    1    3    3    0  501 -0.17709158163E+02 -0.44018181886E+02  0.15056406631E+02  0.50000000000E+02  0.47000000000E+01 0.  1.
</event>
<event>
 5    1  0.9071520E-001  0.1000000E+03  0.7546771E-02  0.1163815E+00
         11   -1    0    0    0    0  0.00000000000E+00  0.00000000000E+00  0.50000000000E+02  0.50000000000E+02  0.00000000000E+00 0.  1.
        -11   -1    0    0    0    0 -0.00000000000E+00 -0.00000000000E+00 -0.50000000000E+02  0.50000000000E+02  0.00000000000E+00 0. -1.
         23    2    1    2    0    0  0.00000000000E+00  0.00000000000E+00  0.00000000000E+00  0.10000000000E+03  0.10000000000E+03 0.  0.
          5    1    3    3  501    0  0.17607374491E+02 -0.19636112743E+02 -0.42217454209E+02  0.50000000000E+02  0.47000000000E+01 0. -1.
         -5    1    3    3    0  501 -0.17607374491E+02  0.19636112743E+02  0.42217454209E+02  0.50000000000E+02  0.47000000000E+01 0.  1.
</event>
<event>
 5    1  0.9071520E-001  0.1000000E+03  0.7546771E-02  0.1163815E+00
         11   -1    0    0    0    0  0.00000000000E+00  0.00000000000E+00  0.50000000000E+02  0.50000000000E+02  0.00000000000E+00 0.  1.
        -11   -1    0    0    0    0 -0.00000000000E+00 -0.00000000000E+00 -0.50000000000E+02  0.50000000000E+02  0.00000000000E+00 0. -1.
         23    2    1    2    0    0  0.00000000000E+00  0.00000000000E+00  0.00000000000E+00  0.10000000000E+03  0.10000000000E+03 0.  0.
          5    1    3    3  501    0 -0.22818324105E+02 -0.43113884686E+02 -0.99210398820E+01  0.50000000000E+02  0.47000000000E+01 0. -1.
         -5    1    3    3    0  501  0.22818324105E+02  0.43113884686E+02  0.99210398820E+01  0.50000000000E+02  0.47000000000E+01 0.  1.
</event>
<event>
 5    1  0.9071520E-001  0.1000000E+03  0.7546771E-02  0.1163815E+00
         11   -1    0    0    0    0  0.00000000000E+00  0.00000000000E+00  0.50000000000E+02  0.50000000000E+02  0.00000000000E+00 0. -1.
        -11   -1    0    0    0    0 -0.00000000000E+00 -0.00000000000E+00 -0.50000000000E+02  0.50000000000E+02  0.00000000000E+00 0.  1.
         23    2    1    2    0    0  0.00000000000E+00  0.00000000000E+00  0.00000000000E+00  0.10000000000E+03  0.10000000000E+03 0.  0.
          5    1    3    3  501    0  0.13207537668E+02 -0.39845290084E+02  0.26754883796E+02  0.50000000000E+02  0.47000000000E+01 0. -1.
         -5    1    3    3    0  501 -0.13207537668E+02  0.39845290084E+02 -0.26754883796E+02  0.50000000000E+02  0.47000000000E+01 0.  1.
</event>
<event>
 5    1  0.9071520E-001  0.1000000E+03  0.7546771E-02  0.1163815E+00
         11   -1    0    0    0    0  0.00000000000E+00  0.00000000000E+00  0.50000000000E+02  0.50000000000E+02  0.00000000000E+00 0. -1.
        -11   -1    0    0    0    0 -0.00000000000E+00 -0.00000000000E+00 -0.50000000000E+02  0.50000000000E+02  0.00000000000E+00 0.  1.
         23    2    1    2    0    0  0.00000000000E+00  0.00000000000E+00  0.00000000000E+00  0.10000000000E+03  0.10000000000E+03 0.  0.
          5    1    3    3  501    0 -0.47095032291E+02  0.16072262620E+02  0.12846430469E+01  0.50000000000E+02  0.47000000000E+01 0. -1.
         -5    1    3    3    0  501  0.47095032291E+02 -0.16072262620E+02 -0.12846430469E+01  0.50000000000E+02  0.47000000000E+01 0.  1.
</event>
<event>
 5    1  0.9071520E-001  0.1000000E+03  0.7546771E-02  0.1163815E+00
         11   -1    0    0    0    0  0.00000000000E+00  0.00000000000E+00  0.50000000000E+02  0.50000000000E+02  0.00000000000E+00 0.  1.
        -11   -1    0    0    0    0 -0.00000000000E+00 -0.00000000000E+00 -0.50000000000E+02  0.50000000000E+02  0.00000000000E+00 0. -1.
         23    2    1    2    0    0  0.00000000000E+00  0.00000000000E+00  0.00000000000E+00  0.10000000000E+03  0.10000000000E+03 0.  0.
          5    1    3    3  501    0 -0.38751080589E+02  0.15778505660E+02 -0.26968546722E+02  0.50000000000E+02  0.47000000000E+01 0. -1.
         -5    1    3    3    0  501  0.38751080589E+02 -0.15778505660E+02  0.26968546722E+02  0.50000000000E+02  0.47000000000E+01 0.  1.
</event>
<event>
 5    1  0.9071520E-001  0.1000000E+03  0.7546771E-02  0.1163815E+00
         11   -1    0    0    0    0  0.00000000000E+00  0.00000000000E+00  0.50000000000E+02  0.50000000000E+02  0.00000000000E+00 0. -1.
        -11   -1    0    0    0    0 -0.00000000000E+00 -0.00000000000E+00 -0.50000000000E+02  0.50000000000E+02  0.00000000000E+00 0.  1.
         23    2    1    2    0    0  0.00000000000E+00  0.00000000000E+00  0.00000000000E+00  0.10000000000E+03  0.10000000000E+03 0.  0.
          5    1    3    3  501    0  0.19084792690E+02  0.43021090607E+02  0.16213156723E+02  0.50000000000E+02  0.47000000000E+01 0. -1.
         -5    1    3    3    0  501 -0.19084792690E+02 -0.43021090607E+02 -0.16213156723E+02  0.50000000000E+02  0.47000000000E+01 0.  1.
</event>
<event>
 5    1  0.9071520E-001  0.1000000E+03  0.7546771E-02  0.1163815E+00
         11   -1    0    0    0    0  0.00000000000E+00  0.00000000000E+00  0.50000000000E+02  0.50000000000E+02  0.00000000000E+00 0. -1.
        -11   -1    0    0    0    0 -0.00000000000E+00 -0.00000000000E+00 -0.50000000000E+02  0.50000000000E+02  0.00000000000E+00 0.  1.
         23    2    1    2    0    0  0.00000000000E+00  0.00000000000E+00  0.00000000000E+00  0.10000000000E+03  0.10000000000E+03 0.  0.
          5    1    3    3  501    0 -0.22552190416E+02  0.43267343725E+02  0.98613221426E+01  0.50000000000E+02  0.47000000000E+01 0. -1.
         -5    1    3    3    0  501  0.22552190416E+02 -0.43267343725E+02 -0.98613221426E+01  0.50000000000E+02  0.47000000000E+01 0.  1.
</event>
<event>
 5    1  0.9071520E-001  0.1000000E+03  0.7546771E-02  0.1163815E+00
         11   -1    0    0    0    0  0.00000000000E+00  0.00000000000E+00  0.50000000000E+02  0.50000000000E+02  0.00000000000E+00 0.  1.
        -11   -1    0    0    0    0 -0.00000000000E+00 -0.00000000000E+00 -0.50000000000E+02  0.50000000000E+02  0.00000000000E+00 0. -1.
         23    2    1    2    0    0  0.00000000000E+00  0.00000000000E+00  0.00000000000E+00  0.10000000000E+03  0.10000000000E+03 0.  0.
          5    1    3    3  501    0  0.41905554644E+02 -0.57501169531E+01 -0.26244440269E+02  0.50000000000E+02  0.47000000000E+01 0. -1.
         -5    1    3    3    0  501 -0.41905554644E+02  0.57501169531E+01  0.26244440269E+02  0.50000000000E+02  0.47000000000E+01 0.  1.
</event>
<event>
 5    1  0.9071520E-001  0.1000000E+03  0.7546771E-02  0.1163815E+00
         11   -1    0    0    0    0  0.00000000000E+00  0.00000000000E+00  0.50000000000E+02  0.50000000000E+02  0.00000000000E+00 0. -1.
        -11   -1    0    0    0    0 -0.00000000000E+00 -0.00000000000E+00 -0.50000000000E+02  0.50000000000E+02  0.00000000000E+00 0.  1.
         23    2    1    2    0    0  0.00000000000E+00  0.00000000000E+00  0.00000000000E+00  0.10000000000E+03  0.10000000000E+03 0.  0.
          5    1    3    3  501    0  0.44661131368E+01  0.48630129466E+02  0.96475044196E+01  0.50000000000E+02  0.47000000000E+01 0. -1.
         -5    1    3    3    0  501 -0.44661131368E+01 -0.48630129466E+02 -0.96475044196E+01  0.50000000000E+02  0.47000000000E+01 0.  1.
</event>
<event>
 5    1  0.9071520E-001  0.1000000E+03  0.7546771E-02  0.1163815E+00
         11   -1    0    0    0    0  0.00000000000E+00  0.00000000000E+00  0.50000000000E+02  0.50000000000E+02  0.00000000000E+00 0. -1.
        -11   -1    0    0    0    0 -0.00000000000E+00 -0.00000000000E+00 -0.50000000000E+02  0.50000000000E+02  0.00000000000E+00 0.  1.
         23    2    1    2    0    0  0.00000000000E+00  0.00000000000E+00  0.00000000000E+00  0.10000000000E+03  0.10000000000E+03 0.  0.
          5    1    3    3  501    0  0.44785008723E+02 -0.19093921350E+02  0.10374736680E+02  0.50000000000E+02  0.47000000000E+01 0. -1.
         -5    1    3    3    0  501 -0.44785008723E+02  0.19093921350E+02 -0.10374736680E+02  0.50000000000E+02  0.47000000000E+01 0.  1.
</event>
<event>
 5    1  0.9071520E-001  0.1000000E+03  0.7546771E-02  0.1163815E+00
         11   -1    0    0    0    0  0.00000000000E+00  0.00000000000E+00  0.50000000000E+02  0.50000000000E+02  0.00000000000E+00 0.  1.
        -11   -1    0    0    0    0 -0.00000000000E+00 -0.00000000000E+00 -0.50000000000E+02  0.50000000000E+02  0.00000000000E+00 0. -1.
         23    2    1    2    0    0  0.00000000000E+00  0.00000000000E+00  0.00000000000E+00  0.10000000000E+03  0.10000000000E+03 0.  0.
          5    1    3    3  501    0 -0.37602025677E+02  0.11259616322E+02 -0.30614027916E+02  0.50000000000E+02  0.47000000000E+01 0. -1.
         -5    1    3    3    0  501  0.37602025677E+02 -0.11259616322E+02  0.30614027916E+02  0.50000000000E+02  0.47000000000E+01 0.  1.
</event>
<event>
 5    1  0.9071520E-001  0.1000000E+03  0.7546771E-02  0.1163815E+00
         11   -1    0    0    0    0  0.00000000000E+00  0.00000000000E+00  0.50000000000E+02  0.50000000000E+02  0.00000000000E+00 0. -1.
        -11   -1    0    0    0    0 -0.00000000000E+00 -0.00000000000E+00 -0.50000000000E+02  0.50000000000E+02  0.00000000000E+00 0.  1.
         23    2    1    2    0    0  0.00000000000E+00  0.00000000000E+00  0.00000000000E+00  0.10000000000E+03  0.10000000000E+03 0.  0.
          5    1    3    3  501    0 -0.25829884184E+02  0.24026105195E+02  0.35120839287E+02  0.50000000000E+02  0.47000000000E+01 0. -1.
         -5    1    3    3    0  501  0.25829884184E+02 -0.24026105195E+02 -0.35120839287E+02  0.50000000000E+02  0.47000000000E+01 0.  1.
</event>
<event>
 5    1  0.9071520E-001  0.1000000E+03  0.7546771E-02  0.1163815E+00
         11   -1    0    0    0    0  0.00000000000E+00  0.00000000000E+00  0.50000000000E+02  0.50000000000E+02  0.00000000000E+00 0. -1.
        -11   -1    0    0    0    0 -0.00000000000E+00 -0.00000000000E+00 -0.50000000000E+02  0.50000000000E+02  0.00000000000E+00 0.  1.
         23    2    1    2    0    0  0.00000000000E+00  0.00000000000E+00  0.00000000000E+00  0.10000000000E+03  0.10000000000E+03 0.  0.
          5    1    3    3  501    0 -0.17159159915E+02  0.18505300307E+00  0.46727283105E+02  0.50000000000E+02  0.47000000000E+01 0. -1.
         -5    1    3    3    0  501  0.17159159915E+02 -0.18505300307E+00 -0.46727283105E+02  0.50000000000E+02  0.47000000000E+01 0.  1.
</event>
<event>
 5    1  0.9071520E-001  0.1000000E+03  0.7546771E-02  0.1163815E+00
         11   -1    0    0    0    0  0.00000000000E+00  0.00000000000E+00  0.50000000000E+02  0.50000000000E+02  0.00000000000E+00 0. -1.
        -11   -1    0    0    0    0 -0.00000000000E+00 -0.00000000000E+00 -0.50000000000E+02  0.50000000000E+02  0.00000000000E+00 0.  1.
         23    2    1    2    0    0  0.00000000000E+00  0.00000000000E+00  0.00000000000E+00  0.10000000000E+03  0.10000000000E+03 0.  0.
          5    1    3    3  501    0 -0.73587427974E+01  0.20730628448E+02  0.44654226548E+02  0.50000000000E+02  0.47000000000E+01 0. -1.
         -5    1    3    3    0  501  0.73587427974E+01 -0.20730628448E+02 -0.44654226548E+02  0.50000000000E+02  0.47000000000E+01 0.  1.
</event>
<event>
 5    1  0.9071520E-001  0.1000000E+03  0.7546771E-02  0.1163815E+00
         11   -1    0    0    0    0  0.00000000000E+00  0.00000000000E+00  0.50000000000E+02  0.50000000000E+02  0.00000000000E+00 0. -1.
        -11   -1    0    0    0    0 -0.00000000000E+00 -0.00000000000E+00 -0.50000000000E+02  0.50000000000E+02  0.00000000000E+00 0.  1.
         23    2    1    2    0    0  0.00000000000E+00  0.00000000000E+00  0.00000000000E+00  0.10000000000E+03  0.10000000000E+03 0.  0.
          5    1    3    3  501    0 -0.42087273933E+02 -0.92872419685E+01  0.24906194199E+02  0.50000000000E+02  0.47000000000E+01 0. -1.
         -5    1    3    3    0  501  0.42087273933E+02  0.92872419685E+01 -0.24906194199E+02  0.50000000000E+02  0.47000000000E+01 0.  1.
</event>
<event>
 5    1  0.9071520E-001  0.1000000E+03  0.7546771E-02  0.1163815E+00
         11   -1    0    0    0    0  0.00000000000E+00  0.00000000000E+00  0.50000000000E+02  0.50000000000E+02  0.00000000000E+00 0.  1.
        -11   -1    0    0    0    0 -0.00000000000E+00 -0.00000000000E+00 -0.50000000000E+02  0.50000000000E+02  0.00000000000E+00 0. -1.
         23    2    1    2    0    0  0.00000000000E+00  0.00000000000E+00  0.00000000000E+00  0.10000000000E+03  0.10000000000E+03 0.  0.
          5    1    3    3  501    0  0.22631616099E+02  0.34447293688E+02  0.27912432898E+02  0.50000000000E+02  0.47000000000E+01 0.  1.
         -5    1    3    3    0  501 -0.22631616099E+02 -0.34447293688E+02 -0.27912432898E+02  0.50000000000E+02  0.47000000000E+01 0. -1.
</event>
<event>
 5    1  0.9071520E-001  0.1000000E+03  0.7546771E-02  0.1163815E+00
         11   -1    0    0    0    0  0.00000000000E+00  0.00000000000E+00  0.50000000000E+02  0.50000000000E+02  0.00000000000E+00 0. -1.
        -11   -1    0    0    0    0 -0.00000000000E+00 -0.00000000000E+00 -0.50000000000E+02  0.50000000000E+02  0.00000000000E+00 0.  1.
         23    2    1    2    0    0  0.00000000000E+00  0.00000000000E+00  0.00000000000E+00  0.10000000000E+03  0.10000000000E+03 0.  0.
          5    1    3    3  501    0  0.67714632915E+01  0.29818088209E+02  0.39280260952E+02  0.50000000000E+02  0.47000000000E+01 0. -1.
         -5    1    3    3    0  501 -0.67714632915E+01 -0.29818088209E+02 -0.39280260952E+02  0.50000000000E+02  0.47000000000E+01 0.  1.
</event>
<event>
 5    1  0.9071520E-001  0.1000000E+03  0.7546771E-02  0.1163815E+00
         11   -1    0    0    0    0  0.00000000000E+00  0.00000000000E+00  0.50000000000E+02  0.50000000000E+02  0.00000000000E+00 0.  1.
        -11   -1    0    0    0    0 -0.00000000000E+00 -0.00000000000E+00 -0.50000000000E+02  0.50000000000E+02  0.00000000000E+00 0. -1.
         23    2    1    2    0    0  0.00000000000E+00  0.00000000000E+00  0.00000000000E+00  0.10000000000E+03  0.10000000000E+03 0.  0.
          5    1    3    3  501    0  0.44044918016E+02  0.14759273657E+02  0.17891870726E+02  0.50000000000E+02  0.47000000000E+01 0. -1.
         -5    1    3    3    0  501 -0.44044918016E+02 -0.14759273657E+02 -0.17891870726E+02  0.50000000000E+02  0.47000000000E+01 0.  1.
</event>
<event>
 5    1  0.9071520E-001  0.1000000E+03  0.7546771E-02  0.1163815E+00
         11   -1    0    0    0    0  0.00000000000E+00  0.00000000000E+00  0.50000000000E+02  0.50000000000E+02  0.00000000000E+00 0.  1.
        -11   -1    0    0    0    0 -0.00000000000E+00 -0.00000000000E+00 -0.50000000000E+02  0.50000000000E+02  0.00000000000E+00 0. -1.
         23    2    1    2    0    0  0.00000000000E+00  0.00000000000E+00  0.00000000000E+00  0.10000000000E+03  0.10000000000E+03 0.  0.
          5    1    3    3  501    0  0.47845208737E+02  0.78960701944E+01 -0.11242689909E+02  0.50000000000E+02  0.47000000000E+01 0. -1.
         -5    1    3    3    0  501 -0.47845208737E+02 -0.78960701944E+01  0.11242689909E+02  0.50000000000E+02  0.47000000000E+01 0.  1.
</event>
<event>
 5    1  0.9071520E-001  0.1000000E+03  0.7546771E-02  0.1163815E+00
         11   -1    0    0    0    0  0.00000000000E+00  0.00000000000E+00  0.50000000000E+02  0.50000000000E+02  0.00000000000E+00 0. -1.
        -11   -1    0    0    0    0 -0.00000000000E+00 -0.00000000000E+00 -0.50000000000E+02  0.50000000000E+02  0.00000000000E+00 0.  1.
         23    2    1    2    0    0  0.00000000000E+00  0.00000000000E+00  0.00000000000E+00  0.10000000000E+03  0.10000000000E+03 0.  0.
          5    1    3    3  501    0 -0.15578080348E+02  0.14549635335E+02  0.44983791796E+02  0.50000000000E+02  0.47000000000E+01 0. -1.
         -5    1    3    3    0  501  0.15578080348E+02 -0.14549635335E+02 -0.44983791796E+02  0.50000000000E+02  0.47000000000E+01 0.  1.
</event>
<event>
 5    1  0.9071520E-001  0.1000000E+03  0.7546771E-02  0.1163815E+00
         11   -1    0    0    0    0  0.00000000000E+00  0.00000000000E+00  0.50000000000E+02  0.50000000000E+02  0.00000000000E+00 0. -1.
        -11   -1    0    0    0    0 -0.00000000000E+00 -0.00000000000E+00 -0.50000000000E+02  0.50000000000E+02  0.00000000000E+00 0.  1.
         23    2    1    2    0    0  0.00000000000E+00  0.00000000000E+00  0.00000000000E+00  0.10000000000E+03  0.10000000000E+03 0.  0.
          5    1    3    3  501    0  0.45257948655E+02 -0.18351128964E+02  0.96366046543E+01  0.50000000000E+02  0.47000000000E+01 0. -1.
         -5    1    3    3    0  501 -0.45257948655E+02  0.18351128964E+02 -0.96366046543E+01  0.50000000000E+02  0.47000000000E+01 0.  1.
</event>
<event>
 5    1  0.9071520E-001  0.1000000E+03  0.7546771E-02  0.1163815E+00
         11   -1    0    0    0    0  0.00000000000E+00  0.00000000000E+00  0.50000000000E+02  0.50000000000E+02  0.00000000000E+00 0. -1.
        -11   -1    0    0    0    0 -0.00000000000E+00 -0.00000000000E+00 -0.50000000000E+02  0.50000000000E+02  0.00000000000E+00 0.  1.
         23    2    1    2    0    0  0.00000000000E+00  0.00000000000E+00  0.00000000000E+00  0.10000000000E+03  0.10000000000E+03 0.  0.
          5    1    3    3  501    0 -0.23511717819E+02 -0.18978842988E+02  0.39558976782E+02  0.50000000000E+02  0.47000000000E+01 0. -1.
         -5    1    3    3    0  501  0.23511717819E+02  0.18978842988E+02 -0.39558976782E+02  0.50000000000E+02  0.47000000000E+01 0.  1.
</event>
<event>
 5    1  0.9071520E-001  0.1000000E+03  0.7546771E-02  0.1163815E+00
         11   -1    0    0    0    0  0.00000000000E+00  0.00000000000E+00  0.50000000000E+02  0.50000000000E+02  0.00000000000E+00 0.  1.
        -11   -1    0    0    0    0 -0.00000000000E+00 -0.00000000000E+00 -0.50000000000E+02  0.50000000000E+02  0.00000000000E+00 0. -1.
         23    2    1    2    0    0  0.00000000000E+00  0.00000000000E+00  0.00000000000E+00  0.10000000000E+03  0.10000000000E+03 0.  0.
          5    1    3    3  501    0 -0.77529694714E+01  0.21143687521E+02  0.44393084398E+02  0.50000000000E+02  0.47000000000E+01 0.  1.
         -5    1    3    3    0  501  0.77529694714E+01 -0.21143687521E+02 -0.44393084398E+02  0.50000000000E+02  0.47000000000E+01 0. -1.
</event>
<event>
 5    1  0.9071520E-001  0.1000000E+03  0.7546771E-02  0.1163815E+00
         11   -1    0    0    0    0  0.00000000000E+00  0.00000000000E+00  0.50000000000E+02  0.50000000000E+02  0.00000000000E+00 0. -1.
        -11   -1    0    0    0    0 -0.00000000000E+00 -0.00000000000E+00 -0.50000000000E+02  0.50000000000E+02  0.00000000000E+00 0.  1.
         23    2    1    2    0    0  0.00000000000E+00  0.00000000000E+00  0.00000000000E+00  0.10000000000E+03  0.10000000000E+03 0.  0.
          5    1    3    3  501    0 -0.58129369742E+01  0.44088932183E+02  0.22367070052E+02  0.50000000000E+02  0.47000000000E+01 0. -1.
         -5    1    3    3    0  501  0.58129369742E+01 -0.44088932183E+02 -0.22367070052E+02  0.50000000000E+02  0.47000000000E+01 0.  1.
</event>
<event>
 5    1  0.9071520E-001  0.1000000E+03  0.7546771E-02  0.1163815E+00
         11   -1    0    0    0    0  0.00000000000E+00  0.00000000000E+00  0.50000000000E+02  0.50000000000E+02  0.00000000000E+00 0.  1.
        -11   -1    0    0    0    0 -0.00000000000E+00 -0.00000000000E+00 -0.50000000000E+02  0.50000000000E+02  0.00000000000E+00 0. -1.
         23    2    1    2    0    0  0.00000000000E+00  0.00000000000E+00  0.00000000000E+00  0.10000000000E+03  0.10000000000E+03 0.  0.
          5    1    3    3  501    0  0.81439591839E+01  0.48347276536E+02  0.86096910703E+01  0.50000000000E+02  0.47000000000E+01 0. -1.
         -5    1    3    3    0  501 -0.81439591839E+01 -0.48347276536E+02 -0.86096910703E+01  0.50000000000E+02  0.47000000000E+01 0.  1.
</event>
<event>
 5    1  0.9071520E-001  0.1000000E+03  0.7546771E-02  0.1163815E+00
         11   -1    0    0    0    0  0.00000000000E+00  0.00000000000E+00  0.50000000000E+02  0.50000000000E+02  0.00000000000E+00 0. -1.
        -11   -1    0    0    0    0 -0.00000000000E+00 -0.00000000000E+00 -0.50000000000E+02  0.50000000000E+02  0.00000000000E+00 0.  1.
         23    2    1    2    0    0  0.00000000000E+00  0.00000000000E+00  0.00000000000E+00  0.10000000000E+03  0.10000000000E+03 0.  0.
          5    1    3    3  501    0  0.28776751065E+01  0.18676155873E+02  0.46052472114E+02  0.50000000000E+02  0.47000000000E+01 0. -1.
         -5    1    3    3    0  501 -0.28776751065E+01 -0.18676155873E+02 -0.46052472114E+02  0.50000000000E+02  0.47000000000E+01 0.  1.
</event>
<event>
 5    1  0.9071520E-001  0.1000000E+03  0.7546771E-02  0.1163815E+00
         11   -1    0    0    0    0  0.00000000000E+00  0.00000000000E+00  0.50000000000E+02  0.50000000000E+02  0.00000000000E+00 0.  1.
        -11   -1    0    0    0    0 -0.00000000000E+00 -0.00000000000E+00 -0.50000000000E+02  0.50000000000E+02  0.00000000000E+00 0. -1.
         23    2    1    2    0    0  0.00000000000E+00  0.00000000000E+00  0.00000000000E+00  0.10000000000E+03  0.10000000000E+03 0.  0.
          5    1    3    3  501    0  0.55141058050E+01 -0.47813010654E+02  0.12705142636E+02  0.50000000000E+02  0.47000000000E+01 0. -1.
         -5    1    3    3    0  501 -0.55141058050E+01  0.47813010654E+02 -0.12705142636E+02  0.50000000000E+02  0.47000000000E+01 0.  1.
</event>
<event>
 5    1  0.9071520E-001  0.1000000E+03  0.7546771E-02  0.1163815E+00
         11   -1    0    0    0    0  0.00000000000E+00  0.00000000000E+00  0.50000000000E+02  0.50000000000E+02  0.00000000000E+00 0. -1.
        -11   -1    0    0    0    0 -0.00000000000E+00 -0.00000000000E+00 -0.50000000000E+02  0.50000000000E+02  0.00000000000E+00 0.  1.
         23    2    1    2    0    0  0.00000000000E+00  0.00000000000E+00  0.00000000000E+00  0.10000000000E+03  0.10000000000E+03 0.  0.
          5    1    3    3  501    0  0.34516846910E+02 -0.24378782764E+02  0.26309166279E+02  0.50000000000E+02  0.47000000000E+01 0. -1.
         -5    1    3    3    0  501 -0.34516846910E+02  0.24378782764E+02 -0.26309166279E+02  0.50000000000E+02  0.47000000000E+01 0.  1.
</event>
<event>
 5    1  0.9071520E-001  0.1000000E+03  0.7546771E-02  0.1163815E+00
         11   -1    0    0    0    0  0.00000000000E+00  0.00000000000E+00  0.50000000000E+02  0.50000000000E+02  0.00000000000E+00 0.  1.
        -11   -1    0    0    0    0 -0.00000000000E+00 -0.00000000000E+00 -0.50000000000E+02  0.50000000000E+02  0.00000000000E+00 0. -1.
         23    2    1    2    0    0  0.00000000000E+00  0.00000000000E+00  0.00000000000E+00  0.10000000000E+03  0.10000000000E+03 0.  0.
          5    1    3    3  501    0  0.25450459890E+02  0.85945155861E+01 -0.41908452527E+02  0.50000000000E+02  0.47000000000E+01 0. -1.
         -5    1    3    3    0  501 -0.25450459890E+02 -0.85945155861E+01  0.41908452527E+02  0.50000000000E+02  0.47000000000E+01 0.  1.
</event>
<event>
 5    1  0.9071520E-001  0.1000000E+03  0.7546771E-02  0.1163815E+00
         11   -1    0    0    0    0  0.00000000000E+00  0.00000000000E+00  0.50000000000E+02  0.50000000000E+02  0.00000000000E+00 0.  1.
        -11   -1    0    0    0    0 -0.00000000000E+00 -0.00000000000E+00 -0.50000000000E+02  0.50000000000E+02  0.00000000000E+00 0. -1.
         23    2    1    2    0    0  0.00000000000E+00  0.00000000000E+00  0.00000000000E+00  0.10000000000E+03  0.10000000000E+03 0.  0.
          5    1    3    3  501    0  0.16354960274E+02  0.41043870573E+01 -0.46835662495E+02  0.50000000000E+02  0.47000000000E+01 0. -1.
         -5    1    3    3    0  501 -0.16354960274E+02 -0.41043870573E+01  0.46835662495E+02  0.50000000000E+02  0.47000000000E+01 0.  1.
</event>
<event>
 5    1  0.9071520E-001  0.1000000E+03  0.7546771E-02  0.1163815E+00
         11   -1    0    0    0    0  0.00000000000E+00  0.00000000000E+00  0.50000000000E+02  0.50000000000E+02  0.00000000000E+00 0. -1.
        -11   -1    0    0    0    0 -0.00000000000E+00 -0.00000000000E+00 -0.50000000000E+02  0.50000000000E+02  0.00000000000E+00 0.  1.
         23    2    1    2    0    0  0.00000000000E+00  0.00000000000E+00  0.00000000000E+00  0.10000000000E+03  0.10000000000E+03 0.  0.
          5    1    3    3  501    0 -0.39628997645E+02  0.29626088039E+02 -0.54541225815E+01  0.50000000000E+02  0.47000000000E+01 0. -1.
         -5    1    3    3    0  501  0.39628997645E+02 -0.29626088039E+02  0.54541225815E+01  0.50000000000E+02  0.47000000000E+01 0.  1.
</event>
<event>
 5    1  0.9071520E-001  0.1000000E+03  0.7546771E-02  0.1163815E+00
         11   -1    0    0    0    0  0.00000000000E+00  0.00000000000E+00  0.50000000000E+02  0.50000000000E+02  0.00000000000E+00 0. -1.
        -11   -1    0    0    0    0 -0.00000000000E+00 -0.00000000000E+00 -0.50000000000E+02  0.50000000000E+02  0.00000000000E+00 0.  1.
         23    2    1    2    0    0  0.00000000000E+00  0.00000000000E+00  0.00000000000E+00  0.10000000000E+03  0.10000000000E+03 0.  0.
          5    1    3    3  501    0 -0.49498962018E+02  0.49325401434E+01 -0.18527835500E+01  0.50000000000E+02  0.47000000000E+01 0. -1.
         -5    1    3    3    0  501  0.49498962018E+02 -0.49325401434E+01  0.18527835500E+01  0.50000000000E+02  0.47000000000E+01 0.  1.
</event>
<event>
 5    1  0.9071520E-001  0.1000000E+03  0.7546771E-02  0.1163815E+00
         11   -1    0    0    0    0  0.00000000000E+00  0.00000000000E+00  0.50000000000E+02  0.50000000000E+02  0.00000000000E+00 0.  1.
        -11   -1    0    0    0    0 -0.00000000000E+00 -0.00000000000E+00 -0.50000000000E+02  0.50000000000E+02  0.00000000000E+00 0. -1.
         23    2    1    2    0    0  0.00000000000E+00  0.00000000000E+00  0.00000000000E+00  0.10000000000E+03  0.10000000000E+03 0.  0.
          5    1    3    3  501    0  0.39429258674E+02  0.17770166744E+02 -0.24646799676E+02  0.50000000000E+02  0.47000000000E+01 0. -1.
         -5    1    3    3    0  501 -0.39429258674E+02 -0.17770166744E+02  0.24646799676E+02  0.50000000000E+02  0.47000000000E+01 0.  1.
</event>
<event>
 5    1  0.9071520E-001  0.1000000E+03  0.7546771E-02  0.1163815E+00
         11   -1    0    0    0    0  0.00000000000E+00  0.00000000000E+00  0.50000000000E+02  0.50000000000E+02  0.00000000000E+00 0. -1.
        -11   -1    0    0    0    0 -0.00000000000E+00 -0.00000000000E+00 -0.50000000000E+02  0.50000000000E+02  0.00000000000E+00 0.  1.
         23    2    1    2    0    0  0.00000000000E+00  0.00000000000E+00  0.00000000000E+00  0.10000000000E+03  0.10000000000E+03 0.  0.
          5    1    3    3  501    0  0.77461041582E+01 -0.26380547760E+02  0.41496681436E+02  0.50000000000E+02  0.47000000000E+01 0. -1.
         -5    1    3    3    0  501 -0.77461041582E+01  0.26380547760E+02 -0.41496681436E+02  0.50000000000E+02  0.47000000000E+01 0.  1.
</event>
<event>
 5    1  0.9071520E-001  0.1000000E+03  0.7546771E-02  0.1163815E+00
         11   -1    0    0    0    0  0.00000000000E+00  0.00000000000E+00  0.50000000000E+02  0.50000000000E+02  0.00000000000E+00 0. -1.
        -11   -1    0    0    0    0 -0.00000000000E+00 -0.00000000000E+00 -0.50000000000E+02  0.50000000000E+02  0.00000000000E+00 0.  1.
         23    2    1    2    0    0  0.00000000000E+00  0.00000000000E+00  0.00000000000E+00  0.10000000000E+03  0.10000000000E+03 0.  0.
          5    1    3    3  501    0 -0.22342214184E+02  0.21489193442E+02  0.38948042705E+02  0.50000000000E+02  0.47000000000E+01 0. -1.
         -5    1    3    3    0  501  0.22342214184E+02 -0.21489193442E+02 -0.38948042705E+02  0.50000000000E+02  0.47000000000E+01 0.  1.
</event>
<event>
 5    1  0.9071520E-001  0.1000000E+03  0.7546771E-02  0.1163815E+00
         11   -1    0    0    0    0  0.00000000000E+00  0.00000000000E+00  0.50000000000E+02  0.50000000000E+02  0.00000000000E+00 0.  1.
        -11   -1    0    0    0    0 -0.00000000000E+00 -0.00000000000E+00 -0.50000000000E+02  0.50000000000E+02  0.00000000000E+00 0. -1.
         23    2    1    2    0    0  0.00000000000E+00  0.00000000000E+00  0.00000000000E+00  0.10000000000E+03  0.10000000000E+03 0.  0.
          5    1    3    3  501    0  0.22132175295E+02  0.14396762135E+02 -0.42199645221E+02  0.50000000000E+02  0.47000000000E+01 0. -1.
         -5    1    3    3    0  501 -0.22132175295E+02 -0.14396762135E+02  0.42199645221E+02  0.50000000000E+02  0.47000000000E+01 0.  1.
</event>
<event>
 5    1  0.9071520E-001  0.1000000E+03  0.7546771E-02  0.1163815E+00
         11   -1    0    0    0    0  0.00000000000E+00  0.00000000000E+00  0.50000000000E+02  0.50000000000E+02  0.00000000000E+00 0.  1.
        -11   -1    0    0    0    0 -0.00000000000E+00 -0.00000000000E+00 -0.50000000000E+02  0.50000000000E+02  0.00000000000E+00 0. -1.
         23    2    1    2    0    0  0.00000000000E+00  0.00000000000E+00  0.00000000000E+00  0.10000000000E+03  0.10000000000E+03 0.  0.
          5    1    3    3  501    0  0.30967496576E+02  0.23284095273E+02  0.31253400825E+02  0.50000000000E+02  0.47000000000E+01 0. -1.
         -5    1    3    3    0  501 -0.30967496576E+02 -0.23284095273E+02 -0.31253400825E+02  0.50000000000E+02  0.47000000000E+01 0.  1.
</event>
<event>
 5    1  0.9071520E-001  0.1000000E+03  0.7546771E-02  0.1163815E+00
         11   -1    0    0    0    0  0.00000000000E+00  0.00000000000E+00  0.50000000000E+02  0.50000000000E+02  0.00000000000E+00 0.  1.
        -11   -1    0    0    0    0 -0.00000000000E+00 -0.00000000000E+00 -0.50000000000E+02  0.50000000000E+02  0.00000000000E+00 0. -1.
         23    2    1    2    0    0  0.00000000000E+00  0.00000000000E+00  0.00000000000E+00  0.10000000000E+03  0.10000000000E+03 0.  0.
          5    1    3    3  501    0  0.40602463653E+02 -0.19596998349E+02 -0.21102312693E+02  0.50000000000E+02  0.47000000000E+01 0. -1.
         -5    1    3    3    0  501 -0.40602463653E+02  0.19596998349E+02  0.21102312693E+02  0.50000000000E+02  0.47000000000E+01 0.  1.
</event>
<event>
 5    1  0.9071520E-001  0.1000000E+03  0.7546771E-02  0.1163815E+00
         11   -1    0    0    0    0  0.00000000000E+00  0.00000000000E+00  0.50000000000E+02  0.50000000000E+02  0.00000000000E+00 0.  1.
        -11   -1    0    0    0    0 -0.00000000000E+00 -0.00000000000E+00 -0.50000000000E+02  0.50000000000E+02  0.00000000000E+00 0. -1.
         23    2    1    2    0    0  0.00000000000E+00  0.00000000000E+00  0.00000000000E+00  0.10000000000E+03  0.10000000000E+03 0.  0.
          5    1    3    3  501    0 -0.98202226325E+01  0.78674021681E+01 -0.48161989271E+02  0.50000000000E+02  0.47000000000E+01 0. -1.
         -5    1    3    3    0  501  0.98202226325E+01 -0.78674021681E+01  0.48161989271E+02  0.50000000000E+02  0.47000000000E+01 0.  1.
</event>
<event>
 5    1  0.9071520E-001  0.1000000E+03  0.7546771E-02  0.1163815E+00
         11   -1    0    0    0    0  0.00000000000E+00  0.00000000000E+00  0.50000000000E+02  0.50000000000E+02  0.00000000000E+00 0.  1.
        -11   -1    0    0    0    0 -0.00000000000E+00 -0.00000000000E+00 -0.50000000000E+02  0.50000000000E+02  0.00000000000E+00 0. -1.
         23    2    1    2    0    0  0.00000000000E+00  0.00000000000E+00  0.00000000000E+00  0.10000000000E+03  0.10000000000E+03 0.  0.
          5    1    3    3  501    0  0.43931013220E+02  0.19868594115E+02  0.12378006517E+02  0.50000000000E+02  0.47000000000E+01 0. -1.
         -5    1    3    3    0  501 -0.43931013220E+02 -0.19868594115E+02 -0.12378006517E+02  0.50000000000E+02  0.47000000000E+01 0.  1.
</event>
<event>
 5    1  0.9071520E-001  0.1000000E+03  0.7546771E-02  0.1163815E+00
         11   -1    0    0    0    0  0.00000000000E+00  0.00000000000E+00  0.50000000000E+02  0.50000000000E+02  0.00000000000E+00 0.  1.
        -11   -1    0    0    0    0 -0.00000000000E+00 -0.00000000000E+00 -0.50000000000E+02  0.50000000000E+02  0.00000000000E+00 0. -1.
         23    2    1    2    0    0  0.00000000000E+00  0.00000000000E+00  0.00000000000E+00  0.10000000000E+03  0.10000000000E+03 0.  0.
          5    1    3    3  501    0  0.18127166058E+02 -0.44000556399E+02  0.14603660064E+02  0.50000000000E+02  0.47000000000E+01 0.  1.
         -5    1    3    3    0  501 -0.18127166058E+02  0.44000556399E+02 -0.14603660064E+02  0.50000000000E+02  0.47000000000E+01 0. -1.
</event>
<event>
 5    1  0.9071520E-001  0.1000000E+03  0.7546771E-02  0.1163815E+00
         11   -1    0    0    0    0  0.00000000000E+00  0.00000000000E+00  0.50000000000E+02  0.50000000000E+02  0.00000000000E+00 0. -1.
        -11   -1    0    0    0    0 -0.00000000000E+00 -0.00000000000E+00 -0.50000000000E+02  0.50000000000E+02  0.00000000000E+00 0.  1.
         23    2    1    2    0    0  0.00000000000E+00  0.00000000000E+00  0.00000000000E+00  0.10000000000E+03  0.10000000000E+03 0.  0.
          5    1    3    3  501    0  0.15368744294E+02  0.10439696606E+02  0.46181429532E+02  0.50000000000E+02  0.47000000000E+01 0. -1.
         -5    1    3    3    0  501 -0.15368744294E+02 -0.10439696606E+02 -0.46181429532E+02  0.50000000000E+02  0.47000000000E+01 0.  1.
</event>
<event>
 5    1  0.9071520E-001  0.1000000E+03  0.7546771E-02  0.1163815E+00
         11   -1    0    0    0    0  0.00000000000E+00  0.00000000000E+00  0.50000000000E+02  0.50000000000E+02  0.00000000000E+00 0.  1.
        -11   -1    0    0    0    0 -0.00000000000E+00 -0.00000000000E+00 -0.50000000000E+02  0.50000000000E+02  0.00000000000E+00 0. -1.
         23    2    1    2    0    0  0.00000000000E+00  0.00000000000E+00  0.00000000000E+00  0.10000000000E+03  0.10000000000E+03 0.  0.
          5    1    3    3  501    0  0.52611479887E+01  0.27550151898E+02 -0.41124438625E+02  0.50000000000E+02  0.47000000000E+01 0. -1.
         -5    1    3    3    0  501 -0.52611479887E+01 -0.27550151898E+02  0.41124438625E+02  0.50000000000E+02  0.47000000000E+01 0.  1.
</event>
<event>
 5    1  0.9071520E-001  0.1000000E+03  0.7546771E-02  0.1163815E+00
         11   -1    0    0    0    0  0.00000000000E+00  0.00000000000E+00  0.50000000000E+02  0.50000000000E+02  0.00000000000E+00 0. -1.
        -11   -1    0    0    0    0 -0.00000000000E+00 -0.00000000000E+00 -0.50000000000E+02  0.50000000000E+02  0.00000000000E+00 0.  1.
         23    2    1    2    0    0  0.00000000000E+00  0.00000000000E+00  0.00000000000E+00  0.10000000000E+03  0.10000000000E+03 0.  0.
          5    1    3    3  501    0 -0.21765700658E+02  0.17779333832E+02  0.41086002037E+02  0.50000000000E+02  0.47000000000E+01 0. -1.
         -5    1    3    3    0  501  0.21765700658E+02 -0.17779333832E+02 -0.41086002037E+02  0.50000000000E+02  0.47000000000E+01 0.  1.
</event>
<event>
 5    1  0.9071520E-001  0.1000000E+03  0.7546771E-02  0.1163815E+00
         11   -1    0    0    0    0  0.00000000000E+00  0.00000000000E+00  0.50000000000E+02  0.50000000000E+02  0.00000000000E+00 0. -1.
        -11   -1    0    0    0    0 -0.00000000000E+00 -0.00000000000E+00 -0.50000000000E+02  0.50000000000E+02  0.00000000000E+00 0.  1.
         23    2    1    2    0    0  0.00000000000E+00  0.00000000000E+00  0.00000000000E+00  0.10000000000E+03  0.10000000000E+03 0.  0.
          5    1    3    3  501    0 -0.25634011925E+02 -0.52805350319E+01  0.42342926002E+02  0.50000000000E+02  0.47000000000E+01 0. -1.
         -5    1    3    3    0  501  0.25634011925E+02  0.52805350319E+01 -0.42342926002E+02  0.50000000000E+02  0.47000000000E+01 0.  1.
</event>
<event>
 5    1  0.9071520E-001  0.1000000E+03  0.7546771E-02  0.1163815E+00
         11   -1    0    0    0    0  0.00000000000E+00  0.00000000000E+00  0.50000000000E+02  0.50000000000E+02  0.00000000000E+00 0.  1.
        -11   -1    0    0    0    0 -0.00000000000E+00 -0.00000000000E+00 -0.50000000000E+02  0.50000000000E+02  0.00000000000E+00 0. -1.
         23    2    1    2    0    0  0.00000000000E+00  0.00000000000E+00  0.00000000000E+00  0.10000000000E+03  0.10000000000E+03 0.  0.
          5    1    3    3  501    0 -0.47338731720E+02 -0.14238944603E+02  0.58486695724E+01  0.50000000000E+02  0.47000000000E+01 0. -1.
         -5    1    3    3    0  501  0.47338731720E+02  0.14238944603E+02 -0.58486695724E+01  0.50000000000E+02  0.47000000000E+01 0.  1.
</event>
<event>
 5    1  0.9071520E-001  0.1000000E+03  0.7546771E-02  0.1163815E+00
         11   -1    0    0    0    0  0.00000000000E+00  0.00000000000E+00  0.50000000000E+02  0.50000000000E+02  0.00000000000E+00 0. -1.
        -11   -1    0    0    0    0 -0.00000000000E+00 -0.00000000000E+00 -0.50000000000E+02  0.50000000000E+02  0.00000000000E+00 0.  1.
         23    2    1    2    0    0  0.00000000000E+00  0.00000000000E+00  0.00000000000E+00  0.10000000000E+03  0.10000000000E+03 0.  0.
          5    1    3    3  501    0  0.28311283616E+02 -0.39688474935E+02  0.10060128097E+02  0.50000000000E+02  0.47000000000E+01 0. -1.
         -5    1    3    3    0  501 -0.28311283616E+02  0.39688474935E+02 -0.10060128097E+02  0.50000000000E+02  0.47000000000E+01 0.  1.
</event>
<event>
 5    1  0.9071520E-001  0.1000000E+03  0.7546771E-02  0.1163815E+00
         11   -1    0    0    0    0  0.00000000000E+00  0.00000000000E+00  0.50000000000E+02  0.50000000000E+02  0.00000000000E+00 0.  1.
        -11   -1    0    0    0    0 -0.00000000000E+00 -0.00000000000E+00 -0.50000000000E+02  0.50000000000E+02  0.00000000000E+00 0. -1.
         23    2    1    2    0    0  0.00000000000E+00  0.00000000000E+00  0.00000000000E+00  0.10000000000E+03  0.10000000000E+03 0.  0.
          5    1    3    3  501    0 -0.32099271352E+02  0.23628968453E+02 -0.29819769089E+02  0.50000000000E+02  0.47000000000E+01 0. -1.
         -5    1    3    3    0  501  0.32099271352E+02 -0.23628968453E+02  0.29819769089E+02  0.50000000000E+02  0.47000000000E+01 0.  1.
</event>
<event>
 5    1  0.9071520E-001  0.1000000E+03  0.7546771E-02  0.1163815E+00
         11   -1    0    0    0    0  0.00000000000E+00  0.00000000000E+00  0.50000000000E+02  0.50000000000E+02  0.00000000000E+00 0.  1.
        -11   -1    0    0    0    0 -0.00000000000E+00 -0.00000000000E+00 -0.50000000000E+02  0.50000000000E+02  0.00000000000E+00 0. -1.
         23    2    1    2    0    0  0.00000000000E+00  0.00000000000E+00  0.00000000000E+00  0.10000000000E+03  0.10000000000E+03 0.  0.
          5    1    3    3  501    0 -0.67057549006E+01 -0.48460299005E+02 -0.91946871378E+01  0.50000000000E+02  0.47000000000E+01 0. -1.
         -5    1    3    3    0  501  0.67057549006E+01  0.48460299005E+02  0.91946871378E+01  0.50000000000E+02  0.47000000000E+01 0.  1.
</event>
