<event>
 5    1  0.9081766E-001  0.1000000E+03  0.7546771E-02  0.1163815E+00
         11   -1    0    0    0    0  0.00000000000E+00  0.00000000000E+00  0.50000000000E+02  0.50000000000E+02  0.00000000000E+00 0.  1.
        -11   -1    0    0    0    0 -0.00000000000E+00 -0.00000000000E+00 -0.50000000000E+02  0.50000000000E+02  0.00000000000E+00 0. -1.
         23    2    1    2    0    0  0.00000000000E+00  0.00000000000E+00  0.00000000000E+00  0.10000000000E+03  0.10000000000E+03 0.  0.
          5    1    3    3  501    0 -0.15273366189E+02  0.53891159402E+00  0.47374506431E+02  0.50000000000E+02  0.47000000000E+01 0.  1.
         -5    1    3    3    0  501  0.15273366189E+02 -0.53891159402E+00 -0.47374506431E+02  0.50000000000E+02  0.47000000000E+01 0. -1.
</event>
<event>
 5    1  0.9081766E-001  0.1000000E+03  0.7546771E-02  0.1163815E+00
         11   -1    0    0    0    0  0.00000000000E+00  0.00000000000E+00  0.50000000000E+02  0.50000000000E+02  0.00000000000E+00 0. -1.
        -11   -1    0    0    0    0 -0.00000000000E+00 -0.00000000000E+00 -0.50000000000E+02  0.50000000000E+02  0.00000000000E+00 0.  1.
         23    2    1    2    0    0  0.00000000000E+00  0.00000000000E+00  0.00000000000E+00  0.10000000000E+03  0.10000000000E+03 0.  0.
          5    1    3    3  501    0  0.41727043981E+02  0.10801521386E+02  0.24901625175E+02  0.50000000000E+02  0.47000000000E+01 0. -1.
         -5    1    3    3    0  501 -0.41727043981E+02 -0.10801521386E+02 -0.24901625175E+02  0.50000000000E+02  0.47000000000E+01 0.  1.
</event>
<event>
 5    1  0.9081766E-001  0.1000000E+03  0.7546771E-02  0.1163815E+00
         11   -1    0    0    0    0  0.00000000000E+00  0.00000000000E+00  0.50000000000E+02  0.50000000000E+02  0.00000000000E+00 0.  1.
        -11   -1    0    0    0    0 -0.00000000000E+00 -0.00000000000E+00 -0.50000000000E+02  0.50000000000E+02  0.00000000000E+00 0. -1.
         23    2    1    2    0    0  0.00000000000E+00  0.00000000000E+00  0.00000000000E+00  0.10000000000E+03  0.10000000000E+03 0.  0.
          5    1    3    3  501    0 -0.48533807898E+02 -0.86297106751E+01  0.69215305073E+01  0.50000000000E+02  0.47000000000E+01 0.  1.
         -5    1    3    3    0  501  0.48533807898E+02  0.86297106751E+01 -0.69215305073E+01  0.50000000000E+02  0.47000000000E+01 0. -1.
</event>
<event>
 5    1  0.9081766E-001  0.1000000E+03  0.7546771E-02  0.1163815E+00
         11   -1    0    0    0    0  0.00000000000E+00  0.00000000000E+00  0.50000000000E+02  0.50000000000E+02  0.00000000000E+00 0. -1.
        -11   -1    0    0    0    0 -0.00000000000E+00 -0.00000000000E+00 -0.50000000000E+02  0.50000000000E+02  0.00000000000E+00 0.  1.
         23    2    1    2    0    0  0.00000000000E+00  0.00000000000E+00  0.00000000000E+00  0.10000000000E+03  0.10000000000E+03 0.  0.
          5    1    3    3  501    0  0.15286818442E+02 -0.13114994655E+02  0.45521644271E+02  0.50000000000E+02  0.47000000000E+01 0. -1.
         -5    1    3    3    0  501 -0.15286818442E+02  0.13114994655E+02 -0.45521644271E+02  0.50000000000E+02  0.47000000000E+01 0.  1.
</event>
<event>
 5    1  0.9081766E-001  0.1000000E+03  0.7546771E-02  0.1163815E+00
         11   -1    0    0    0    0  0.00000000000E+00  0.00000000000E+00  0.50000000000E+02  0.50000000000E+02  0.00000000000E+00 0.  1.
        -11   -1    0    0    0    0 -0.00000000000E+00 -0.00000000000E+00 -0.50000000000E+02  0.50000000000E+02  0.00000000000E+00 0. -1.
         23    2    1    2    0    0  0.00000000000E+00  0.00000000000E+00  0.00000000000E+00  0.10000000000E+03  0.10000000000E+03 0.  0.
          5    1    3    3  501    0 -0.36117769919E+01  0.35009292729E+02 -0.35202478458E+02  0.50000000000E+02  0.47000000000E+01 0. -1.
         -5    1    3    3    0  501  0.36117769919E+01 -0.35009292729E+02  0.35202478458E+02  0.50000000000E+02  0.47000000000E+01 0.  1.
</event>
<event>
 5    1  0.9081766E-001  0.1000000E+03  0.7546771E-02  0.1163815E+00
         11   -1    0    0    0    0  0.00000000000E+00  0.00000000000E+00  0.50000000000E+02  0.50000000000E+02  0.00000000000E+00 0.  1.
        -11   -1    0    0    0    0 -0.00000000000E+00 -0.00000000000E+00 -0.50000000000E+02  0.50000000000E+02  0.00000000000E+00 0. -1.
         23    2    1    2    0    0  0.00000000000E+00  0.00000000000E+00  0.00000000000E+00  0.10000000000E+03  0.10000000000E+03 0.  0.
          5    1    3    3  501    0 -0.40395157149E+01 -0.10143049300E+02 -0.48566561168E+02  0.50000000000E+02  0.47000000000E+01 0. -1.
         -5    1    3    3    0  501  0.40395157149E+01  0.10143049300E+02  0.48566561168E+02  0.50000000000E+02  0.47000000000E+01 0.  1.
</event>
<event>
 5    1  0.9081766E-001  0.1000000E+03  0.7546771E-02  0.1163815E+00
         11   -1    0    0    0    0  0.00000000000E+00  0.00000000000E+00  0.50000000000E+02  0.50000000000E+02  0.00000000000E+00 0.  1.
        -11   -1    0    0    0    0 -0.00000000000E+00 -0.00000000000E+00 -0.50000000000E+02  0.50000000000E+02  0.00000000000E+00 0. -1.
         23    2    1    2    0    0  0.00000000000E+00  0.00000000000E+00  0.00000000000E+00  0.10000000000E+03  0.10000000000E+03 0.  0.
          5    1    3    3  501    0  0.13871731789E+02 -0.47685944185E+02 -0.33964370141E+01  0.50000000000E+02  0.47000000000E+01 0. -1.
         -5    1    3    3    0  501 -0.13871731789E+02  0.47685944185E+02  0.33964370141E+01  0.50000000000E+02  0.47000000000E+01 0.  1.
</event>
<event>
 5    1  0.9081766E-001  0.1000000E+03  0.7546771E-02  0.1163815E+00
         11   -1    0    0    0    0  0.00000000000E+00  0.00000000000E+00  0.50000000000E+02  0.50000000000E+02  0.00000000000E+00 0. -1.
        -11   -1    0    0    0    0 -0.00000000000E+00 -0.00000000000E+00 -0.50000000000E+02  0.50000000000E+02  0.00000000000E+00 0.  1.
         23    2    1    2    0    0  0.00000000000E+00  0.00000000000E+00  0.00000000000E+00  0.10000000000E+03  0.10000000000E+03 0.  0.
          5    1    3    3  501    0  0.15028244125E+02  0.46143515495E+02 -0.11083224094E+02  0.50000000000E+02  0.47000000000E+01 0. -1.
         -5    1    3    3    0  501 -0.15028244125E+02 -0.46143515495E+02  0.11083224094E+02  0.50000000000E+02  0.47000000000E+01 0.  1.
</event>
<event>
 5    1  0.9081766E-001  0.1000000E+03  0.7546771E-02  0.1163815E+00
         11   -1    0    0    0    0  0.00000000000E+00  0.00000000000E+00  0.50000000000E+02  0.50000000000E+02  0.00000000000E+00 0.  1.
        -11   -1    0    0    0    0 -0.00000000000E+00 -0.00000000000E+00 -0.50000000000E+02  0.50000000000E+02  0.00000000000E+00 0. -1.
         23    2    1    2    0    0  0.00000000000E+00  0.00000000000E+00  0.00000000000E+00  0.10000000000E+03  0.10000000000E+03 0.  0.
          5    1    3    3  501    0 -0.46719210460E+02  0.15049540051E+02  0.82907610160E+01  0.50000000000E+02  0.47000000000E+01 0. -1.
         -5    1    3    3    0  501  0.46719210460E+02 -0.15049540051E+02 -0.82907610160E+01  0.50000000000E+02  0.47000000000E+01 0.  1.
</event>
<event>
 5    1  0.9081766E-001  0.1000000E+03  0.7546771E-02  0.1163815E+00
         11   -1    0    0    0    0  0.00000000000E+00  0.00000000000E+00  0.50000000000E+02  0.50000000000E+02  0.00000000000E+00 0.  1.
        -11   -1    0    0    0    0 -0.00000000000E+00 -0.00000000000E+00 -0.50000000000E+02  0.50000000000E+02  0.00000000000E+00 0. -1.
         23    2    1    2    0    0  0.00000000000E+00  0.00000000000E+00  0.00000000000E+00  0.10000000000E+03  0.10000000000E+03 0.  0.
          5    1    3    3  501    0 -0.12275847697E+02  0.15152425994E+01 -0.48217399382E+02  0.50000000000E+02  0.47000000000E+01 0. -1.
         -5    1    3    3    0  501  0.12275847697E+02 -0.15152425994E+01  0.48217399382E+02  0.50000000000E+02  0.47000000000E+01 0.  1.
</event>
<event>
 5    1  0.9081766E-001  0.1000000E+03  0.7546771E-02  0.1163815E+00
         11   -1    0    0    0    0  0.00000000000E+00  0.00000000000E+00  0.50000000000E+02  0.50000000000E+02  0.00000000000E+00 0.  1.
        -11   -1    0    0    0    0 -0.00000000000E+00 -0.00000000000E+00 -0.50000000000E+02  0.50000000000E+02  0.00000000000E+00 0. -1.
         23    2    1    2    0    0  0.00000000000E+00  0.00000000000E+00  0.00000000000E+00  0.10000000000E+03  0.10000000000E+03 0.  0.
          5    1    3    3  501    0 -0.13452570492E+02  0.20759301299E+02  0.43197103569E+02  0.50000000000E+02  0.47000000000E+01 0.  1.
         -5    1    3    3    0  501  0.13452570492E+02 -0.20759301299E+02 -0.43197103569E+02  0.50000000000E+02  0.47000000000E+01 0. -1.
</event>
<event>
 5    1  0.9081766E-001  0.1000000E+03  0.7546771E-02  0.1163815E+00
         11   -1    0    0    0    0  0.00000000000E+00  0.00000000000E+00  0.50000000000E+02  0.50000000000E+02  0.00000000000E+00 0. -1.
        -11   -1    0    0    0    0 -0.00000000000E+00 -0.00000000000E+00 -0.50000000000E+02  0.50000000000E+02  0.00000000000E+00 0.  1.
         23    2    1    2    0    0  0.00000000000E+00  0.00000000000E+00  0.00000000000E+00  0.10000000000E+03  0.10000000000E+03 0.  0.
          5    1    3    3  501    0 -0.26302357906E+02 -0.10873908021E+02  0.40839369399E+02  0.50000000000E+02  0.47000000000E+01 0. -1.
         -5    1    3    3    0  501  0.26302357906E+02  0.10873908021E+02 -0.40839369399E+02  0.50000000000E+02  0.47000000000E+01 0.  1.
</event>
<event>
 5    1  0.9081766E-001  0.1000000E+03  0.7546771E-02  0.1163815E+00
         11   -1    0    0    0    0  0.00000000000E+00  0.00000000000E+00  0.50000000000E+02  0.50000000000E+02  0.00000000000E+00 0. -1.
        -11   -1    0    0    0    0 -0.00000000000E+00 -0.00000000000E+00 -0.50000000000E+02  0.50000000000E+02  0.00000000000E+00 0.  1.
         23    2    1    2    0    0  0.00000000000E+00  0.00000000000E+00  0.00000000000E+00  0.10000000000E+03  0.10000000000E+03 0.  0.
          5    1    3    3  501    0 -0.52131004896E+01 -0.46833918005E+02  0.16041125507E+02  0.50000000000E+02  0.47000000000E+01 0. -1.
         -5    1    3    3    0  501  0.52131004896E+01  0.46833918005E+02 -0.16041125507E+02  0.50000000000E+02  0.47000000000E+01 0.  1.
</event>
<event>
 5    1  0.9081766E-001  0.1000000E+03  0.7546771E-02  0.1163815E+00
         11   -1    0    0    0    0  0.00000000000E+00  0.00000000000E+00  0.50000000000E+02  0.50000000000E+02  0.00000000000E+00 0. -1.
        -11   -1    0    0    0    0 -0.00000000000E+00 -0.00000000000E+00 -0.50000000000E+02  0.50000000000E+02  0.00000000000E+00 0.  1.
         23    2    1    2    0    0  0.00000000000E+00  0.00000000000E+00  0.00000000000E+00  0.10000000000E+03  0.10000000000E+03 0.  0.
          5    1    3    3  501    0  0.29332289135E+02 -0.30893877742E+02  0.25750633627E+02  0.50000000000E+02  0.47000000000E+01 0. -1.
         -5    1    3    3    0  501 -0.29332289135E+02  0.30893877742E+02 -0.25750633627E+02  0.50000000000E+02  0.47000000000E+01 0.  1.
</event>
<event>
 5    1  0.9081766E-001  0.1000000E+03  0.7546771E-02  0.1163815E+00
         11   -1    0    0    0    0  0.00000000000E+00  0.00000000000E+00  0.50000000000E+02  0.50000000000E+02  0.00000000000E+00 0. -1.
        -11   -1    0    0    0    0 -0.00000000000E+00 -0.00000000000E+00 -0.50000000000E+02  0.50000000000E+02  0.00000000000E+00 0.  1.
         23    2    1    2    0    0  0.00000000000E+00  0.00000000000E+00  0.00000000000E+00  0.10000000000E+03  0.10000000000E+03 0.  0.
          5    1    3    3  501    0 -0.39427634024E+02  0.19681161293E+02  0.23152182736E+02  0.50000000000E+02  0.47000000000E+01 0. -1.
         -5    1    3    3    0  501  0.39427634024E+02 -0.19681161293E+02 -0.23152182736E+02  0.50000000000E+02  0.47000000000E+01 0.  1.
</event>
<event>
 5    1  0.9081766E-001  0.1000000E+03  0.7546771E-02  0.1163815E+00
         11   -1    0    0    0    0  0.00000000000E+00  0.00000000000E+00  0.50000000000E+02  0.50000000000E+02  0.00000000000E+00 0.  1.
        -11   -1    0    0    0    0 -0.00000000000E+00 -0.00000000000E+00 -0.50000000000E+02  0.50000000000E+02  0.00000000000E+00 0. -1.
         23    2    1    2    0    0  0.00000000000E+00  0.00000000000E+00  0.00000000000E+00  0.10000000000E+03  0.10000000000E+03 0.  0.
          5    1    3    3  501    0 -0.17550867380E+02  0.94553386868E+01 -0.45612209161E+02  0.50000000000E+02  0.47000000000E+01 0. -1.
         -5    1    3    3    0  501  0.17550867380E+02 -0.94553386868E+01  0.45612209161E+02  0.50000000000E+02  0.47000000000E+01 0.  1.
</event>
<event>
 5    1  0.9081766E-001  0.1000000E+03  0.7546771E-02  0.1163815E+00
         11   -1    0    0    0    0  0.00000000000E+00  0.00000000000E+00  0.50000000000E+02  0.50000000000E+02  0.00000000000E+00 0. -1.
        -11   -1    0    0    0    0 -0.00000000000E+00 -0.00000000000E+00 -0.50000000000E+02  0.50000000000E+02  0.00000000000E+00 0.  1.
         23    2    1    2    0    0  0.00000000000E+00  0.00000000000E+00  0.00000000000E+00  0.10000000000E+03  0.10000000000E+03 0.  0.
          5    1    3    3  501    0  0.29423736753E+02 -0.32974721649E+02  0.22908981813E+02  0.50000000000E+02  0.47000000000E+01 0. -1.
         -5    1    3    3    0  501 -0.29423736753E+02  0.32974721649E+02 -0.22908981813E+02  0.50000000000E+02  0.47000000000E+01 0.  1.
</event>
<event>
 5    1  0.9081766E-001  0.1000000E+03  0.7546771E-02  0.1163815E+00
         11   -1    0    0    0    0  0.00000000000E+00  0.00000000000E+00  0.50000000000E+02  0.50000000000E+02  0.00000000000E+00 0. -1.
        -11   -1    0    0    0    0 -0.00000000000E+00 -0.00000000000E+00 -0.50000000000E+02  0.50000000000E+02  0.00000000000E+00 0.  1.
         23    2    1    2    0    0  0.00000000000E+00  0.00000000000E+00  0.00000000000E+00  0.10000000000E+03  0.10000000000E+03 0.  0.
          5    1    3    3  501    0  0.20189068452E+02 -0.19056301876E+02  0.41317900163E+02  0.50000000000E+02  0.47000000000E+01 0. -1.
         -5    1    3    3    0  501 -0.20189068452E+02  0.19056301876E+02 -0.41317900163E+02  0.50000000000E+02  0.47000000000E+01 0.  1.
</event>
<event>
 5    1  0.9081766E-001  0.1000000E+03  0.7546771E-02  0.1163815E+00
         11   -1    0    0    0    0  0.00000000000E+00  0.00000000000E+00  0.50000000000E+02  0.50000000000E+02  0.00000000000E+00 0.  1.
        -11   -1    0    0    0    0 -0.00000000000E+00 -0.00000000000E+00 -0.50000000000E+02  0.50000000000E+02  0.00000000000E+00 0. -1.
         23    2    1    2    0    0  0.00000000000E+00  0.00000000000E+00  0.00000000000E+00  0.10000000000E+03  0.10000000000E+03 0.  0.
          5    1    3    3  501    0  0.31021016855E+02 -0.31771748100E+01 -0.38800928771E+02  0.50000000000E+02  0.47000000000E+01 0. -1.
         -5    1    3    3    0  501 -0.31021016855E+02  0.31771748100E+01  0.38800928771E+02  0.50000000000E+02  0.47000000000E+01 0.  1.
</event>
<event>
 5    1  0.9081766E-001  0.1000000E+03  0.7546771E-02  0.1163815E+00
         11   -1    0    0    0    0  0.00000000000E+00  0.00000000000E+00  0.50000000000E+02  0.50000000000E+02  0.00000000000E+00 0. -1.
        -11   -1    0    0    0    0 -0.00000000000E+00 -0.00000000000E+00 -0.50000000000E+02  0.50000000000E+02  0.00000000000E+00 0.  1.
         23    2    1    2    0    0  0.00000000000E+00  0.00000000000E+00  0.00000000000E+00  0.10000000000E+03  0.10000000000E+03 0.  0.
          5    1    3    3  501    0  0.25954967165E+02  0.29387186813E+02 -0.30669902685E+02  0.50000000000E+02  0.47000000000E+01 0. -1.
         -5    1    3    3    0  501 -0.25954967165E+02 -0.29387186813E+02  0.30669902685E+02  0.50000000000E+02  0.47000000000E+01 0.  1.
</event>
<event>
 5    1  0.9081766E-001  0.1000000E+03  0.7546771E-02  0.1163815E+00
         11   -1    0    0    0    0  0.00000000000E+00  0.00000000000E+00  0.50000000000E+02  0.50000000000E+02  0.00000000000E+00 0. -1.
        -11   -1    0    0    0    0 -0.00000000000E+00 -0.00000000000E+00 -0.50000000000E+02  0.50000000000E+02  0.00000000000E+00 0.  1.
         23    2    1    2    0    0  0.00000000000E+00  0.00000000000E+00  0.00000000000E+00  0.10000000000E+03  0.10000000000E+03 0.  0.
          5    1    3    3  501    0  0.36812635630E-01  0.37966473883E+02  0.32194029039E+02  0.50000000000E+02  0.47000000000E+01 0. -1.
         -5    1    3    3    0  501 -0.36812635630E-01 -0.37966473883E+02 -0.32194029039E+02  0.50000000000E+02  0.47000000000E+01 0.  1.
</event>
<event>
 5    1  0.9081766E-001  0.1000000E+03  0.7546771E-02  0.1163815E+00
         11   -1    0    0    0    0  0.00000000000E+00  0.00000000000E+00  0.50000000000E+02  0.50000000000E+02  0.00000000000E+00 0. -1.
        -11   -1    0    0    0    0 -0.00000000000E+00 -0.00000000000E+00 -0.50000000000E+02  0.50000000000E+02  0.00000000000E+00 0.  1.
         23    2    1    2    0    0  0.00000000000E+00  0.00000000000E+00  0.00000000000E+00  0.10000000000E+03  0.10000000000E+03 0.  0.
          5    1    3    3  501    0  0.19042901805E+02 -0.16063800594E+02  0.43095616962E+02  0.50000000000E+02  0.47000000000E+01 0. -1.
         -5    1    3    3    0  501 -0.19042901805E+02  0.16063800594E+02 -0.43095616962E+02  0.50000000000E+02  0.47000000000E+01 0.  1.
</event>
<event>
 5    1  0.9081766E-001  0.1000000E+03  0.7546771E-02  0.1163815E+00
         11   -1    0    0    0    0  0.00000000000E+00  0.00000000000E+00  0.50000000000E+02  0.50000000000E+02  0.00000000000E+00 0.  1.
        -11   -1    0    0    0    0 -0.00000000000E+00 -0.00000000000E+00 -0.50000000000E+02  0.50000000000E+02  0.00000000000E+00 0. -1.
         23    2    1    2    0    0  0.00000000000E+00  0.00000000000E+00  0.00000000000E+00  0.10000000000E+03  0.10000000000E+03 0.  0.
          5    1    3    3  501    0 -0.14292507930E+02  0.10776965598E+02 -0.46448802241E+02  0.50000000000E+02  0.47000000000E+01 0. -1.
         -5    1    3    3    0  501  0.14292507930E+02 -0.10776965598E+02  0.46448802241E+02  0.50000000000E+02  0.47000000000E+01 0.  1.
</event>
<event>
 5    1  0.9081766E-001  0.1000000E+03  0.7546771E-02  0.1163815E+00
         11   -1    0    0    0    0  0.00000000000E+00  0.00000000000E+00  0.50000000000E+02  0.50000000000E+02  0.00000000000E+00 0. -1.
        -11   -1    0    0    0    0 -0.00000000000E+00 -0.00000000000E+00 -0.50000000000E+02  0.50000000000E+02  0.00000000000E+00 0.  1.
         23    2    1    2    0    0  0.00000000000E+00  0.00000000000E+00  0.00000000000E+00  0.10000000000E+03  0.10000000000E+03 0.  0.
          5    1    3    3  501    0 -0.44716776452E+02 -0.11651863279E+02  0.18508214011E+02  0.50000000000E+02  0.47000000000E+01 0. -1.
         -5    1    3    3    0  501  0.44716776452E+02  0.11651863279E+02 -0.18508214011E+02  0.50000000000E+02  0.47000000000E+01 0.  1.
</event>
<event>
 5    1  0.9081766E-001  0.1000000E+03  0.7546771E-02  0.1163815E+00
         11   -1    0    0    0    0  0.00000000000E+00  0.00000000000E+00  0.50000000000E+02  0.50000000000E+02  0.00000000000E+00 0. -1.
        -11   -1    0    0    0    0 -0.00000000000E+00 -0.00000000000E+00 -0.50000000000E+02  0.50000000000E+02  0.00000000000E+00 0.  1.
         23    2    1    2    0    0  0.00000000000E+00  0.00000000000E+00  0.00000000000E+00  0.10000000000E+03  0.10000000000E+03 0.  0.
          5    1    3    3  501    0  0.16480793586E+02 -0.41336141372E+02  0.22307327479E+02  0.50000000000E+02  0.47000000000E+01 0. -1.
         -5    1    3    3    0  501 -0.16480793586E+02  0.41336141372E+02 -0.22307327479E+02  0.50000000000E+02  0.47000000000E+01 0.  1.
</event>
<event>
 5    1  0.9081766E-001  0.1000000E+03  0.7546771E-02  0.1163815E+00
         11   -1    0    0    0    0  0.00000000000E+00  0.00000000000E+00  0.50000000000E+02  0.50000000000E+02  0.00000000000E+00 0. -1.
        -11   -1    0    0    0    0 -0.00000000000E+00 -0.00000000000E+00 -0.50000000000E+02  0.50000000000E+02  0.00000000000E+00 0.  1.
         23    2    1    2    0    0  0.00000000000E+00  0.00000000000E+00  0.00000000000E+00  0.10000000000E+03  0.10000000000E+03 0.  0.
          5    1    3    3  501    0  0.80498137328E+01 -0.39977285808E+02  0.28546928351E+02  0.50000000000E+02  0.47000000000E+01 0. -1.
         -5    1    3    3    0  501 -0.80498137328E+01  0.39977285808E+02 -0.28546928351E+02  0.50000000000E+02  0.47000000000E+01 0.  1.
</event>
<event>
 5    1  0.9081766E-001  0.1000000E+03  0.7546771E-02  0.1163815E+00
         11   -1    0    0    0    0  0.00000000000E+00  0.00000000000E+00  0.50000000000E+02  0.50000000000E+02  0.00000000000E+00 0. -1.
        -11   -1    0    0    0    0 -0.00000000000E+00 -0.00000000000E+00 -0.50000000000E+02  0.50000000000E+02  0.00000000000E+00 0.  1.
         23    2    1    2    0    0  0.00000000000E+00  0.00000000000E+00  0.00000000000E+00  0.10000000000E+03  0.10000000000E+03 0.  0.
          5    1    3    3  501    0  0.72819575944E+01 -0.25081495266E+02  0.42376900415E+02  0.50000000000E+02  0.47000000000E+01 0. -1.
         -5    1    3    3    0  501 -0.72819575944E+01  0.25081495266E+02 -0.42376900415E+02  0.50000000000E+02  0.47000000000E+01 0.  1.
</event>
<event>
 5    1  0.9081766E-001  0.1000000E+03  0.7546771E-02  0.1163815E+00
         11   -1    0    0    0    0  0.00000000000E+00  0.00000000000E+00  0.50000000000E+02  0.50000000000E+02  0.00000000000E+00 0. -1.
        -11   -1    0    0    0    0 -0.00000000000E+00 -0.00000000000E+00 -0.50000000000E+02  0.50000000000E+02  0.00000000000E+00 0.  1.
         23    2    1    2    0    0  0.00000000000E+00  0.00000000000E+00  0.00000000000E+00  0.10000000000E+03  0.10000000000E+03 0.  0.
          5    1    3    3  501    0  0.35921932709E+02  0.17881040249E+02  0.29458329044E+02  0.50000000000E+02  0.47000000000E+01 0. -1.
         -5    1    3    3    0  501 -0.35921932709E+02 -0.17881040249E+02 -0.29458329044E+02  0.50000000000E+02  0.47000000000E+01 0.  1.
</event>
<event>
 5    1  0.9081766E-001  0.1000000E+03  0.7546771E-02  0.1163815E+00
         11   -1    0    0    0    0  0.00000000000E+00  0.00000000000E+00  0.50000000000E+02  0.50000000000E+02  0.00000000000E+00 0. -1.
        -11   -1    0    0    0    0 -0.00000000000E+00 -0.00000000000E+00 -0.50000000000E+02  0.50000000000E+02  0.00000000000E+00 0.  1.
         23    2    1    2    0    0  0.00000000000E+00  0.00000000000E+00  0.00000000000E+00  0.10000000000E+03  0.10000000000E+03 0.  0.
          5    1    3    3  501    0 -0.14729878477E+02 -0.34899531238E+02  0.32294943868E+02  0.50000000000E+02  0.47000000000E+01 0. -1.
         -5    1    3    3    0  501  0.14729878477E+02  0.34899531238E+02 -0.32294943868E+02  0.50000000000E+02  0.47000000000E+01 0.  1.
</event>
<event>
 5    1  0.9081766E-001  0.1000000E+03  0.7546771E-02  0.1163815E+00
         11   -1    0    0    0    0  0.00000000000E+00  0.00000000000E+00  0.50000000000E+02  0.50000000000E+02  0.00000000000E+00 0. -1.
        -11   -1    0    0    0    0 -0.00000000000E+00 -0.00000000000E+00 -0.50000000000E+02  0.50000000000E+02  0.00000000000E+00 0.  1.
         23    2    1    2    0    0  0.00000000000E+00  0.00000000000E+00  0.00000000000E+00  0.10000000000E+03  0.10000000000E+03 0.  0.
          5    1    3    3  501    0 -0.44001988554E+01 -0.46885200180E+02  0.16134629037E+02  0.50000000000E+02  0.47000000000E+01 0. -1.
         -5    1    3    3    0  501  0.44001988554E+01  0.46885200180E+02 -0.16134629037E+02  0.50000000000E+02  0.47000000000E+01 0.  1.
</event>
<event>
 5    1  0.9081766E-001  0.1000000E+03  0.7546771E-02  0.1163815E+00
         11   -1    0    0    0    0  0.00000000000E+00  0.00000000000E+00  0.50000000000E+02  0.50000000000E+02  0.00000000000E+00 0.  1.
        -11   -1    0    0    0    0 -0.00000000000E+00 -0.00000000000E+00 -0.50000000000E+02  0.50000000000E+02  0.00000000000E+00 0. -1.
         23    2    1    2    0    0  0.00000000000E+00  0.00000000000E+00  0.00000000000E+00  0.10000000000E+03  0.10000000000E+03 0.  0.
          5    1    3    3  501    0 -0.40030130152E+02 -0.26040300913E+02 -0.14049961151E+02  0.50000000000E+02  0.47000000000E+01 0. -1.
         -5    1    3    3    0  501  0.40030130152E+02  0.26040300913E+02  0.14049961151E+02  0.50000000000E+02  0.47000000000E+01 0.  1.
</event>
<event>
 5    1  0.9081766E-001  0.1000000E+03  0.7546771E-02  0.1163815E+00
         11   -1    0    0    0    0  0.00000000000E+00  0.00000000000E+00  0.50000000000E+02  0.50000000000E+02  0.00000000000E+00 0. -1.
        -11   -1    0    0    0    0 -0.00000000000E+00 -0.00000000000E+00 -0.50000000000E+02  0.50000000000E+02  0.00000000000E+00 0.  1.
         23    2    1    2    0    0  0.00000000000E+00  0.00000000000E+00  0.00000000000E+00  0.10000000000E+03  0.10000000000E+03 0.  0.
          5    1    3    3  501    0  0.41137695793E+02 -0.28015306835E+02 -0.86172375349E+00  0.50000000000E+02  0.47000000000E+01 0. -1.
         -5    1    3    3    0  501 -0.41137695793E+02  0.28015306835E+02  0.86172375349E+00  0.50000000000E+02  0.47000000000E+01 0.  1.
</event>
<event>
 5    1  0.9081766E-001  0.1000000E+03  0.7546771E-02  0.1163815E+00
         11   -1    0    0    0    0  0.00000000000E+00  0.00000000000E+00  0.50000000000E+02  0.50000000000E+02  0.00000000000E+00 0.  1.
        -11   -1    0    0    0    0 -0.00000000000E+00 -0.00000000000E+00 -0.50000000000E+02  0.50000000000E+02  0.00000000000E+00 0. -1.
         23    2    1    2    0    0  0.00000000000E+00  0.00000000000E+00  0.00000000000E+00  0.10000000000E+03  0.10000000000E+03 0.  0.
          5    1    3    3  501    0  0.25867792782E+02 -0.17626911920E+02 -0.38704770671E+02  0.50000000000E+02  0.47000000000E+01 0. -1.
         -5    1    3    3    0  501 -0.25867792782E+02  0.17626911920E+02  0.38704770671E+02  0.50000000000E+02  0.47000000000E+01 0.  1.
</event>
<event>
 5    1  0.9081766E-001  0.1000000E+03  0.7546771E-02  0.1163815E+00
         11   -1    0    0    0    0  0.00000000000E+00  0.00000000000E+00  0.50000000000E+02  0.50000000000E+02  0.00000000000E+00 0. -1.
        -11   -1    0    0    0    0 -0.00000000000E+00 -0.00000000000E+00 -0.50000000000E+02  0.50000000000E+02  0.00000000000E+00 0.  1.
         23    2    1    2    0    0  0.00000000000E+00  0.00000000000E+00  0.00000000000E+00  0.10000000000E+03  0.10000000000E+03 0.  0.
          5    1    3    3  501    0  0.83859758858E+01  0.44401517123E+02  0.20882784433E+02  0.50000000000E+02  0.47000000000E+01 0. -1.
         -5    1    3    3    0  501 -0.83859758858E+01 -0.44401517123E+02 -0.20882784433E+02  0.50000000000E+02  0.47000000000E+01 0.  1.
</event>
<event>
 5    1  0.9081766E-001  0.1000000E+03  0.7546771E-02  0.1163815E+00
         11   -1    0    0    0    0  0.00000000000E+00  0.00000000000E+00  0.50000000000E+02  0.50000000000E+02  0.00000000000E+00 0.  1.
        -11   -1    0    0    0    0 -0.00000000000E+00 -0.00000000000E+00 -0.50000000000E+02  0.50000000000E+02  0.00000000000E+00 0. -1.
         23    2    1    2    0    0  0.00000000000E+00  0.00000000000E+00  0.00000000000E+00  0.10000000000E+03  0.10000000000E+03 0.  0.
          5    1    3    3  501    0 -0.69329199923E+01  0.26087716624E+02 -0.41824342933E+02  0.50000000000E+02  0.47000000000E+01 0. -1.
         -5    1    3    3    0  501  0.69329199923E+01 -0.26087716624E+02  0.41824342933E+02  0.50000000000E+02  0.47000000000E+01 0.  1.
</event>
<event>
 5    1  0.9081766E-001  0.1000000E+03  0.7546771E-02  0.1163815E+00
         11   -1    0    0    0    0  0.00000000000E+00  0.00000000000E+00  0.50000000000E+02  0.50000000000E+02  0.00000000000E+00 0. -1.
        -11   -1    0    0    0    0 -0.00000000000E+00 -0.00000000000E+00 -0.50000000000E+02  0.50000000000E+02  0.00000000000E+00 0.  1.
         23    2    1    2    0    0  0.00000000000E+00  0.00000000000E+00  0.00000000000E+00  0.10000000000E+03  0.10000000000E+03 0.  0.
          5    1    3    3  501    0 -0.91584873694E+01  0.32048555346E+02  0.36971911086E+02  0.50000000000E+02  0.47000000000E+01 0. -1.
         -5    1    3    3    0  501  0.91584873694E+01 -0.32048555346E+02 -0.36971911086E+02  0.50000000000E+02  0.47000000000E+01 0.  1.
</event>
<event>
 5    1  0.9081766E-001  0.1000000E+03  0.7546771E-02  0.1163815E+00
         11   -1    0    0    0    0  0.00000000000E+00  0.00000000000E+00  0.50000000000E+02  0.50000000000E+02  0.00000000000E+00 0.  1.
        -11   -1    0    0    0    0 -0.00000000000E+00 -0.00000000000E+00 -0.50000000000E+02  0.50000000000E+02  0.00000000000E+00 0. -1.
         23    2    1    2    0    0  0.00000000000E+00  0.00000000000E+00  0.00000000000E+00  0.10000000000E+03  0.10000000000E+03 0.  0.
          5    1    3    3  501    0  0.31671665013E+02  0.46980120745E+01  0.38114883154E+02  0.50000000000E+02  0.47000000000E+01 0. -1.
         -5    1    3    3    0  501 -0.31671665013E+02 -0.46980120745E+01 -0.38114883154E+02  0.50000000000E+02  0.47000000000E+01 0.  1.
</event>
<event>
 5    1  0.9081766E-001  0.1000000E+03  0.7546771E-02  0.1163815E+00
         11   -1    0    0    0    0  0.00000000000E+00  0.00000000000E+00  0.50000000000E+02  0.50000000000E+02  0.00000000000E+00 0. -1.
        -11   -1    0    0    0    0 -0.00000000000E+00 -0.00000000000E+00 -0.50000000000E+02  0.50000000000E+02  0.00000000000E+00 0.  1.
         23    2    1    2    0    0  0.00000000000E+00  0.00000000000E+00  0.00000000000E+00  0.10000000000E+03  0.10000000000E+03 0.  0.
          5    1    3    3  501    0 -0.35609663972E+01 -0.16298671099E+02  0.46899710433E+02  0.50000000000E+02  0.47000000000E+01 0. -1.
         -5    1    3    3    0  501  0.35609663972E+01  0.16298671099E+02 -0.46899710433E+02  0.50000000000E+02  0.47000000000E+01 0.  1.
</event>
<event>
 5    1  0.9081766E-001  0.1000000E+03  0.7546771E-02  0.1163815E+00
         11   -1    0    0    0    0  0.00000000000E+00  0.00000000000E+00  0.50000000000E+02  0.50000000000E+02  0.00000000000E+00 0. -1.
        -11   -1    0    0    0    0 -0.00000000000E+00 -0.00000000000E+00 -0.50000000000E+02  0.50000000000E+02  0.00000000000E+00 0.  1.
         23    2    1    2    0    0  0.00000000000E+00  0.00000000000E+00  0.00000000000E+00  0.10000000000E+03  0.10000000000E+03 0.  0.
          5    1    3    3  501    0  0.39885683364E+02 -0.20397166617E+02  0.21702485032E+02  0.50000000000E+02  0.47000000000E+01 0. -1.
         -5    1    3    3    0  501 -0.39885683364E+02  0.20397166617E+02 -0.21702485032E+02  0.50000000000E+02  0.47000000000E+01 0.  1.
</event>
<event>
 5    1  0.9081766E-001  0.1000000E+03  0.7546771E-02  0.1163815E+00
         11   -1    0    0    0    0  0.00000000000E+00  0.00000000000E+00  0.50000000000E+02  0.50000000000E+02  0.00000000000E+00 0. -1.
        -11   -1    0    0    0    0 -0.00000000000E+00 -0.00000000000E+00 -0.50000000000E+02  0.50000000000E+02  0.00000000000E+00 0.  1.
         23    2    1    2    0    0  0.00000000000E+00  0.00000000000E+00  0.00000000000E+00  0.10000000000E+03  0.10000000000E+03 0.  0.
          5    1    3    3  501    0 -0.24116597058E+02 -0.26400837618E+01  0.43466420419E+02  0.50000000000E+02  0.47000000000E+01 0. -1.
         -5    1    3    3    0  501  0.24116597058E+02  0.26400837618E+01 -0.43466420419E+02  0.50000000000E+02  0.47000000000E+01 0.  1.
</event>
<event>
 5    1  0.9081766E-001  0.1000000E+03  0.7546771E-02  0.1163815E+00
         11   -1    0    0    0    0  0.00000000000E+00  0.00000000000E+00  0.50000000000E+02  0.50000000000E+02  0.00000000000E+00 0. -1.
        -11   -1    0    0    0    0 -0.00000000000E+00 -0.00000000000E+00 -0.50000000000E+02  0.50000000000E+02  0.00000000000E+00 0.  1.
         23    2    1    2    0    0  0.00000000000E+00  0.00000000000E+00  0.00000000000E+00  0.10000000000E+03  0.10000000000E+03 0.  0.
          5    1    3    3  501    0 -0.11559687676E+02  0.47434704850E+02 -0.97073372584E+01  0.50000000000E+02  0.47000000000E+01 0. -1.
         -5    1    3    3    0  501  0.11559687676E+02 -0.47434704850E+02  0.97073372584E+01  0.50000000000E+02  0.47000000000E+01 0.  1.
</event>
<event>
 5    1  0.9081766E-001  0.1000000E+03  0.7546771E-02  0.1163815E+00
         11   -1    0    0    0    0  0.00000000000E+00  0.00000000000E+00  0.50000000000E+02  0.50000000000E+02  0.00000000000E+00 0. -1.
        -11   -1    0    0    0    0 -0.00000000000E+00 -0.00000000000E+00 -0.50000000000E+02  0.50000000000E+02  0.00000000000E+00 0.  1.
         23    2    1    2    0    0  0.00000000000E+00  0.00000000000E+00  0.00000000000E+00  0.10000000000E+03  0.10000000000E+03 0.  0.
          5    1    3    3  501    0 -0.86905265024E+01 -0.40432010304E+02  0.27706268098E+02  0.50000000000E+02  0.47000000000E+01 0. -1.
         -5    1    3    3    0  501  0.86905265024E+01  0.40432010304E+02 -0.27706268098E+02  0.50000000000E+02  0.47000000000E+01 0.  1.
</event>
<event>
 5    1  0.9081766E-001  0.1000000E+03  0.7546771E-02  0.1163815E+00
         11   -1    0    0    0    0  0.00000000000E+00  0.00000000000E+00  0.50000000000E+02  0.50000000000E+02  0.00000000000E+00 0. -1.
        -11   -1    0    0    0    0 -0.00000000000E+00 -0.00000000000E+00 -0.50000000000E+02  0.50000000000E+02  0.00000000000E+00 0.  1.
         23    2    1    2    0    0  0.00000000000E+00  0.00000000000E+00  0.00000000000E+00  0.10000000000E+03  0.10000000000E+03 0.  0.
          5    1    3    3  501    0  0.54304286835E+01  0.55800108641E+01  0.49165881697E+02  0.50000000000E+02  0.47000000000E+01 0. -1.
         -5    1    3    3    0  501 -0.54304286835E+01 -0.55800108641E+01 -0.49165881697E+02  0.50000000000E+02  0.47000000000E+01 0.  1.
</event>
<event>
 5    1  0.9081766E-001  0.1000000E+03  0.7546771E-02  0.1163815E+00
         11   -1    0    0    0    0  0.00000000000E+00  0.00000000000E+00  0.50000000000E+02  0.50000000000E+02  0.00000000000E+00 0. -1.
        -11   -1    0    0    0    0 -0.00000000000E+00 -0.00000000000E+00 -0.50000000000E+02  0.50000000000E+02  0.00000000000E+00 0.  1.
         23    2    1    2    0    0  0.00000000000E+00  0.00000000000E+00  0.00000000000E+00  0.10000000000E+03  0.10000000000E+03 0.  0.
          5    1    3    3  501    0  0.12352370103E+02  0.48116303401E+02 -0.31859535248E+01  0.50000000000E+02  0.47000000000E+01 0. -1.
         -5    1    3    3    0  501 -0.12352370103E+02 -0.48116303401E+02  0.31859535248E+01  0.50000000000E+02  0.47000000000E+01 0.  1.
</event>
<event>
 5    1  0.9081766E-001  0.1000000E+03  0.7546771E-02  0.1163815E+00
         11   -1    0    0    0    0  0.00000000000E+00  0.00000000000E+00  0.50000000000E+02  0.50000000000E+02  0.00000000000E+00 0.  1.
        -11   -1    0    0    0    0 -0.00000000000E+00 -0.00000000000E+00 -0.50000000000E+02  0.50000000000E+02  0.00000000000E+00 0. -1.
         23    2    1    2    0    0  0.00000000000E+00  0.00000000000E+00  0.00000000000E+00  0.10000000000E+03  0.10000000000E+03 0.  0.
          5    1    3    3  501    0 -0.24273844584E+02 -0.41896589556E+02 -0.11548430744E+02  0.50000000000E+02  0.47000000000E+01 0. -1.
         -5    1    3    3    0  501  0.24273844584E+02  0.41896589556E+02  0.11548430744E+02  0.50000000000E+02  0.47000000000E+01 0.  1.
</event>
<event>
 5    1  0.9081766E-001  0.1000000E+03  0.7546771E-02  0.1163815E+00
         11   -1    0    0    0    0  0.00000000000E+00  0.00000000000E+00  0.50000000000E+02  0.50000000000E+02  0.00000000000E+00 0.  1.
        -11   -1    0    0    0    0 -0.00000000000E+00 -0.00000000000E+00 -0.50000000000E+02  0.50000000000E+02  0.00000000000E+00 0. -1.
         23    2    1    2    0    0  0.00000000000E+00  0.00000000000E+00  0.00000000000E+00  0.10000000000E+03  0.10000000000E+03 0.  0.
          5    1    3    3  501    0 -0.31333118284E+02  0.13802636616E+02 -0.36133542880E+02  0.50000000000E+02  0.47000000000E+01 0. -1.
         -5    1    3    3    0  501  0.31333118284E+02 -0.13802636616E+02  0.36133542880E+02  0.50000000000E+02  0.47000000000E+01 0.  1.
</event>
<event>
 5    1  0.9081766E-001  0.1000000E+03  0.7546771E-02  0.1163815E+00
         11   -1    0    0    0    0  0.00000000000E+00  0.00000000000E+00  0.50000000000E+02  0.50000000000E+02  0.00000000000E+00 0. -1.
        -11   -1    0    0    0    0 -0.00000000000E+00 -0.00000000000E+00 -0.50000000000E+02  0.50000000000E+02  0.00000000000E+00 0.  1.
         23    2    1    2    0    0  0.00000000000E+00  0.00000000000E+00  0.00000000000E+00  0.10000000000E+03  0.10000000000E+03 0.  0.
          5    1    3    3  501    0  0.18462288096E+02  0.40463459323E+02  0.22355365752E+02  0.50000000000E+02  0.47000000000E+01 0. -1.
         -5    1    3    3    0  501 -0.18462288096E+02 -0.40463459323E+02 -0.22355365752E+02  0.50000000000E+02  0.47000000000E+01 0.  1.
</event>
<event>
 5    1  0.9081766E-001  0.1000000E+03  0.7546771E-02  0.1163815E+00
         11   -1    0    0    0    0  0.00000000000E+00  0.00000000000E+00  0.50000000000E+02  0.50000000000E+02  0.00000000000E+00 0. -1.
        -11   -1    0    0    0    0 -0.00000000000E+00 -0.00000000000E+00 -0.50000000000E+02  0.50000000000E+02  0.00000000000E+00 0.  1.
         23    2    1    2    0    0  0.00000000000E+00  0.00000000000E+00  0.00000000000E+00  0.10000000000E+03  0.10000000000E+03 0.  0.
          5    1    3    3  501    0  0.48603933447E+02  0.61272726329E+01 -0.88331298829E+01  0.50000000000E+02  0.47000000000E+01 0. -1.
         -5    1    3    3    0  501 -0.48603933447E+02 -0.61272726329E+01  0.88331298829E+01  0.50000000000E+02  0.47000000000E+01 0.  1.
</event>
<event>
 5    1  0.9081766E-001  0.1000000E+03  0.7546771E-02  0.1163815E+00
         11   -1    0    0    0    0  0.00000000000E+00  0.00000000000E+00  0.50000000000E+02  0.50000000000E+02  0.00000000000E+00 0. -1.
        -11   -1    0    0    0    0 -0.00000000000E+00 -0.00000000000E+00 -0.50000000000E+02  0.50000000000E+02  0.00000000000E+00 0.  1.
         23    2    1    2    0    0  0.00000000000E+00  0.00000000000E+00  0.00000000000E+00  0.10000000000E+03  0.10000000000E+03 0.  0.
          5    1    3    3  501    0 -0.18203817857E+02 -0.12673341587E+01  0.46313333712E+02  0.50000000000E+02  0.47000000000E+01 0. -1.
         -5    1    3    3    0  501  0.18203817857E+02  0.12673341587E+01 -0.46313333712E+02  0.50000000000E+02  0.47000000000E+01 0.  1.
</event>
<event>
 5    1  0.9081766E-001  0.1000000E+03  0.7546771E-02  0.1163815E+00
         11   -1    0    0    0    0  0.00000000000E+00  0.00000000000E+00  0.50000000000E+02  0.50000000000E+02  0.00000000000E+00 0.  1.
        -11   -1    0    0    0    0 -0.00000000000E+00 -0.00000000000E+00 -0.50000000000E+02  0.50000000000E+02  0.00000000000E+00 0. -1.
         23    2    1    2    0    0  0.00000000000E+00  0.00000000000E+00  0.00000000000E+00  0.10000000000E+03  0.10000000000E+03 0.  0.
          5    1    3    3  501    0 -0.19484244097E+02  0.16287778355E+02 -0.42813344978E+02  0.50000000000E+02  0.47000000000E+01 0. -1.
         -5    1    3    3    0  501  0.19484244097E+02 -0.16287778355E+02  0.42813344978E+02  0.50000000000E+02  0.47000000000E+01 0.  1.
</event>
<event>
 5    1  0.9081766E-001  0.1000000E+03  0.7546771E-02  0.1163815E+00
         11   -1    0    0    0    0  0.00000000000E+00  0.00000000000E+00  0.50000000000E+02  0.50000000000E+02  0.00000000000E+00 0. -1.
        -11   -1    0    0    0    0 -0.00000000000E+00 -0.00000000000E+00 -0.50000000000E+02  0.50000000000E+02  0.00000000000E+00 0.  1.
         23    2    1    2    0    0  0.00000000000E+00  0.00000000000E+00  0.00000000000E+00  0.10000000000E+03  0.10000000000E+03 0.  0.
          5    1    3    3  501    0  0.36605900516E+01  0.22910895634E+02  0.44040900782E+02  0.50000000000E+02  0.47000000000E+01 0. -1.
         -5    1    3    3    0  501 -0.36605900516E+01 -0.22910895634E+02 -0.44040900782E+02  0.50000000000E+02  0.47000000000E+01 0.  1.
</event>
<event>
 5    1  0.9081766E-001  0.1000000E+03  0.7546771E-02  0.1163815E+00
         11   -1    0    0    0    0  0.00000000000E+00  0.00000000000E+00  0.50000000000E+02  0.50000000000E+02  0.00000000000E+00 0. -1.
        -11   -1    0    0    0    0 -0.00000000000E+00 -0.00000000000E+00 -0.50000000000E+02  0.50000000000E+02  0.00000000000E+00 0.  1.
         23    2    1    2    0    0  0.00000000000E+00  0.00000000000E+00  0.00000000000E+00  0.10000000000E+03  0.10000000000E+03 0.  0.
          5    1    3    3  501    0  0.49282499296E+01  0.10942868222E+02  0.48310205834E+02  0.50000000000E+02  0.47000000000E+01 0. -1.
         -5    1    3    3    0  501 -0.49282499296E+01 -0.10942868222E+02 -0.48310205834E+02  0.50000000000E+02  0.47000000000E+01 0.  1.
</event>
<event>
 5    1  0.9081766E-001  0.1000000E+03  0.7546771E-02  0.1163815E+00
         11   -1    0    0    0    0  0.00000000000E+00  0.00000000000E+00  0.50000000000E+02  0.50000000000E+02  0.00000000000E+00 0. -1.
        -11   -1    0    0    0    0 -0.00000000000E+00 -0.00000000000E+00 -0.50000000000E+02  0.50000000000E+02  0.00000000000E+00 0.  1.
         23    2    1    2    0    0  0.00000000000E+00  0.00000000000E+00  0.00000000000E+00  0.10000000000E+03  0.10000000000E+03 0.  0.
          5    1    3    3  501    0 -0.16831046108E+02 -0.22360505334E+02  0.41165928729E+02  0.50000000000E+02  0.47000000000E+01 0. -1.
         -5    1    3    3    0  501  0.16831046108E+02  0.22360505334E+02 -0.41165928729E+02  0.50000000000E+02  0.47000000000E+01 0.  1.
</event>
<event>
 5    1  0.9081766E-001  0.1000000E+03  0.7546771E-02  0.1163815E+00
         11   -1    0    0    0    0  0.00000000000E+00  0.00000000000E+00  0.50000000000E+02  0.50000000000E+02  0.00000000000E+00 0. -1.
        -11   -1    0    0    0    0 -0.00000000000E+00 -0.00000000000E+00 -0.50000000000E+02  0.50000000000E+02  0.00000000000E+00 0.  1.
         23    2    1    2    0    0  0.00000000000E+00  0.00000000000E+00  0.00000000000E+00  0.10000000000E+03  0.10000000000E+03 0.  0.
          5    1    3    3  501    0 -0.10912920572E+02  0.88196302710E+01  0.47760153753E+02  0.50000000000E+02  0.47000000000E+01 0. -1.
         -5    1    3    3    0  501  0.10912920572E+02 -0.88196302710E+01 -0.47760153753E+02  0.50000000000E+02  0.47000000000E+01 0.  1.
</event>
<event>
 5    1  0.9081766E-001  0.1000000E+03  0.7546771E-02  0.1163815E+00
         11   -1    0    0    0    0  0.00000000000E+00  0.00000000000E+00  0.50000000000E+02  0.50000000000E+02  0.00000000000E+00 0. -1.
        -11   -1    0    0    0    0 -0.00000000000E+00 -0.00000000000E+00 -0.50000000000E+02  0.50000000000E+02  0.00000000000E+00 0.  1.
         23    2    1    2    0    0  0.00000000000E+00  0.00000000000E+00  0.00000000000E+00  0.10000000000E+03  0.10000000000E+03 0.  0.
          5    1    3    3  501    0  0.19995259910E+01  0.42881561507E+02  0.25200864639E+02  0.50000000000E+02  0.47000000000E+01 0. -1.
         -5    1    3    3    0  501 -0.19995259910E+01 -0.42881561507E+02 -0.25200864639E+02  0.50000000000E+02  0.47000000000E+01 0.  1.
</event>
<event>
 5    1  0.9081766E-001  0.1000000E+03  0.7546771E-02  0.1163815E+00
         11   -1    0    0    0    0  0.00000000000E+00  0.00000000000E+00  0.50000000000E+02  0.50000000000E+02  0.00000000000E+00 0.  1.
        -11   -1    0    0    0    0 -0.00000000000E+00 -0.00000000000E+00 -0.50000000000E+02  0.50000000000E+02  0.00000000000E+00 0. -1.
         23    2    1    2    0    0  0.00000000000E+00  0.00000000000E+00  0.00000000000E+00  0.10000000000E+03  0.10000000000E+03 0.  0.
          5    1    3    3  501    0 -0.29612808491E+02  0.39722247426E+02 -0.48098474734E+01  0.50000000000E+02  0.47000000000E+01 0. -1.
         -5    1    3    3    0  501  0.29612808491E+02 -0.39722247426E+02  0.48098474734E+01  0.50000000000E+02  0.47000000000E+01 0.  1.
</event>
<event>
 5    1  0.9081766E-001  0.1000000E+03  0.7546771E-02  0.1163815E+00
         11   -1    0    0    0    0  0.00000000000E+00  0.00000000000E+00  0.50000000000E+02  0.50000000000E+02  0.00000000000E+00 0. -1.
        -11   -1    0    0    0    0 -0.00000000000E+00 -0.00000000000E+00 -0.50000000000E+02  0.50000000000E+02  0.00000000000E+00 0.  1.
         23    2    1    2    0    0  0.00000000000E+00  0.00000000000E+00  0.00000000000E+00  0.10000000000E+03  0.10000000000E+03 0.  0.
          5    1    3    3  501    0 -0.21582779642E+02 -0.24535120231E+02  0.37551584496E+02  0.50000000000E+02  0.47000000000E+01 0. -1.
         -5    1    3    3    0  501  0.21582779642E+02  0.24535120231E+02 -0.37551584496E+02  0.50000000000E+02  0.47000000000E+01 0.  1.
</event>
<event>
 5    1  0.9081766E-001  0.1000000E+03  0.7546771E-02  0.1163815E+00
         11   -1    0    0    0    0  0.00000000000E+00  0.00000000000E+00  0.50000000000E+02  0.50000000000E+02  0.00000000000E+00 0. -1.
        -11   -1    0    0    0    0 -0.00000000000E+00 -0.00000000000E+00 -0.50000000000E+02  0.50000000000E+02  0.00000000000E+00 0.  1.
         23    2    1    2    0    0  0.00000000000E+00  0.00000000000E+00  0.00000000000E+00  0.10000000000E+03  0.10000000000E+03 0.  0.
          5    1    3    3  501    0 -0.21631700101E+02  0.40418971626E+02  0.19398099995E+02  0.50000000000E+02  0.47000000000E+01 0. -1.
         -5    1    3    3    0  501  0.21631700101E+02 -0.40418971626E+02 -0.19398099995E+02  0.50000000000E+02  0.47000000000E+01 0.  1.
</event>
<event>
 5    1  0.9081766E-001  0.1000000E+03  0.7546771E-02  0.1163815E+00
         11   -1    0    0    0    0  0.00000000000E+00  0.00000000000E+00  0.50000000000E+02  0.50000000000E+02  0.00000000000E+00 0. -1.
        -11   -1    0    0    0    0 -0.00000000000E+00 -0.00000000000E+00 -0.50000000000E+02  0.50000000000E+02  0.00000000000E+00 0.  1.
         23    2    1    2    0    0  0.00000000000E+00  0.00000000000E+00  0.00000000000E+00  0.10000000000E+03  0.10000000000E+03 0.  0.
          5    1    3    3  501    0  0.81635470005E+01 -0.15564691235E+02  0.46572598029E+02  0.50000000000E+02  0.47000000000E+01 0. -1.
         -5    1    3    3    0  501 -0.81635470005E+01  0.15564691235E+02 -0.46572598029E+02  0.50000000000E+02  0.47000000000E+01 0.  1.
</event>
<event>
 5    1  0.9081766E-001  0.1000000E+03  0.7546771E-02  0.1163815E+00
         11   -1    0    0    0    0  0.00000000000E+00  0.00000000000E+00  0.50000000000E+02  0.50000000000E+02  0.00000000000E+00 0.  1.
        -11   -1    0    0    0    0 -0.00000000000E+00 -0.00000000000E+00 -0.50000000000E+02  0.50000000000E+02  0.00000000000E+00 0. -1.
         23    2    1    2    0    0  0.00000000000E+00  0.00000000000E+00  0.00000000000E+00  0.10000000000E+03  0.10000000000E+03 0.  0.
          5    1    3    3  501    0  0.10018030198E+02 -0.21695474599E+02 -0.43667556067E+02  0.50000000000E+02  0.47000000000E+01 0. -1.
         -5    1    3    3    0  501 -0.10018030198E+02  0.21695474599E+02  0.43667556067E+02  0.50000000000E+02  0.47000000000E+01 0.  1.
</event>
<event>
 5    1  0.9081766E-001  0.1000000E+03  0.7546771E-02  0.1163815E+00
         11   -1    0    0    0    0  0.00000000000E+00  0.00000000000E+00  0.50000000000E+02  0.50000000000E+02  0.00000000000E+00 0.  1.
        -11   -1    0    0    0    0 -0.00000000000E+00 -0.00000000000E+00 -0.50000000000E+02  0.50000000000E+02  0.00000000000E+00 0. -1.
         23    2    1    2    0    0  0.00000000000E+00  0.00000000000E+00  0.00000000000E+00  0.10000000000E+03  0.10000000000E+03 0.  0.
          5    1    3    3  501    0  0.32220388266E+02 -0.30914711416E+02 -0.22000845395E+02  0.50000000000E+02  0.47000000000E+01 0. -1.
         -5    1    3    3    0  501 -0.32220388266E+02  0.30914711416E+02  0.22000845395E+02  0.50000000000E+02  0.47000000000E+01 0.  1.
</event>
<event>
 5    1  0.9081766E-001  0.1000000E+03  0.7546771E-02  0.1163815E+00
         11   -1    0    0    0    0  0.00000000000E+00  0.00000000000E+00  0.50000000000E+02  0.50000000000E+02  0.00000000000E+00 0. -1.
        -11   -1    0    0    0    0 -0.00000000000E+00 -0.00000000000E+00 -0.50000000000E+02  0.50000000000E+02  0.00000000000E+00 0.  1.
         23    2    1    2    0    0  0.00000000000E+00  0.00000000000E+00  0.00000000000E+00  0.10000000000E+03  0.10000000000E+03 0.  0.
          5    1    3    3  501    0  0.24396770657E+02 -0.33356450765E+02  0.27749860790E+02  0.50000000000E+02  0.47000000000E+01 0. -1.
         -5    1    3    3    0  501 -0.24396770657E+02  0.33356450765E+02 -0.27749860790E+02  0.50000000000E+02  0.47000000000E+01 0.  1.
</event>
<event>
 5    1  0.9081766E-001  0.1000000E+03  0.7546771E-02  0.1163815E+00
         11   -1    0    0    0    0  0.00000000000E+00  0.00000000000E+00  0.50000000000E+02  0.50000000000E+02  0.00000000000E+00 0.  1.
        -11   -1    0    0    0    0 -0.00000000000E+00 -0.00000000000E+00 -0.50000000000E+02  0.50000000000E+02  0.00000000000E+00 0. -1.
         23    2    1    2    0    0  0.00000000000E+00  0.00000000000E+00  0.00000000000E+00  0.10000000000E+03  0.10000000000E+03 0.  0.
          5    1    3    3  501    0 -0.39226113219E+01 -0.10712342090E+02 -0.48453780527E+02  0.50000000000E+02  0.47000000000E+01 0. -1.
         -5    1    3    3    0  501  0.39226113219E+01  0.10712342090E+02  0.48453780527E+02  0.50000000000E+02  0.47000000000E+01 0.  1.
</event>
<event>
 5    1  0.9081766E-001  0.1000000E+03  0.7546771E-02  0.1163815E+00
         11   -1    0    0    0    0  0.00000000000E+00  0.00000000000E+00  0.50000000000E+02  0.50000000000E+02  0.00000000000E+00 0. -1.
        -11   -1    0    0    0    0 -0.00000000000E+00 -0.00000000000E+00 -0.50000000000E+02  0.50000000000E+02  0.00000000000E+00 0.  1.
         23    2    1    2    0    0  0.00000000000E+00  0.00000000000E+00  0.00000000000E+00  0.10000000000E+03  0.10000000000E+03 0.  0.
          5    1    3    3  501    0  0.24986410436E+02 -0.39270872205E+02  0.17646186267E+02  0.50000000000E+02  0.47000000000E+01 0. -1.
         -5    1    3    3    0  501 -0.24986410436E+02  0.39270872205E+02 -0.17646186267E+02  0.50000000000E+02  0.47000000000E+01 0.  1.
</event>
<event>
 5    1  0.9081766E-001  0.1000000E+03  0.7546771E-02  0.1163815E+00
         11   -1    0    0    0    0  0.00000000000E+00  0.00000000000E+00  0.50000000000E+02  0.50000000000E+02  0.00000000000E+00 0. -1.
        -11   -1    0    0    0    0 -0.00000000000E+00 -0.00000000000E+00 -0.50000000000E+02  0.50000000000E+02  0.00000000000E+00 0.  1.
         23    2    1    2    0    0  0.00000000000E+00  0.00000000000E+00  0.00000000000E+00  0.10000000000E+03  0.10000000000E+03 0.  0.
          5    1    3    3  501    0  0.49541553676E+02  0.47180444216E+01  0.11333649820E+01  0.50000000000E+02  0.47000000000E+01 0. -1.
         -5    1    3    3    0  501 -0.49541553676E+02 -0.47180444216E+01 -0.11333649820E+01  0.50000000000E+02  0.47000000000E+01 0.  1.
</event>
<event>
 5    1  0.9081766E-001  0.1000000E+03  0.7546771E-02  0.1163815E+00
         11   -1    0    0    0    0  0.00000000000E+00  0.00000000000E+00  0.50000000000E+02  0.50000000000E+02  0.00000000000E+00 0. -1.
        -11   -1    0    0    0    0 -0.00000000000E+00 -0.00000000000E+00 -0.50000000000E+02  0.50000000000E+02  0.00000000000E+00 0.  1.
         23    2    1    2    0    0  0.00000000000E+00  0.00000000000E+00  0.00000000000E+00  0.10000000000E+03  0.10000000000E+03 0.  0.
          5    1    3    3  501    0  0.44050741899E+02  0.13092779913E+02  0.19131681898E+02  0.50000000000E+02  0.47000000000E+01 0. -1.
         -5    1    3    3    0  501 -0.44050741899E+02 -0.13092779913E+02 -0.19131681898E+02  0.50000000000E+02  0.47000000000E+01 0.  1.
</event>
<event>
 5    1  0.9081766E-001  0.1000000E+03  0.7546771E-02  0.1163815E+00
         11   -1    0    0    0    0  0.00000000000E+00  0.00000000000E+00  0.50000000000E+02  0.50000000000E+02  0.00000000000E+00 0. -1.
        -11   -1    0    0    0    0 -0.00000000000E+00 -0.00000000000E+00 -0.50000000000E+02  0.50000000000E+02  0.00000000000E+00 0.  1.
         23    2    1    2    0    0  0.00000000000E+00  0.00000000000E+00  0.00000000000E+00  0.10000000000E+03  0.10000000000E+03 0.  0.
          5    1    3    3  501    0  0.32051157929E+02 -0.58566348208E+01  0.37634201254E+02  0.50000000000E+02  0.47000000000E+01 0. -1.
         -5    1    3    3    0  501 -0.32051157929E+02  0.58566348208E+01 -0.37634201254E+02  0.50000000000E+02  0.47000000000E+01 0.  1.
</event>
<event>
 5    1  0.9081766E-001  0.1000000E+03  0.7546771E-02  0.1163815E+00
         11   -1    0    0    0    0  0.00000000000E+00  0.00000000000E+00  0.50000000000E+02  0.50000000000E+02  0.00000000000E+00 0. -1.
        -11   -1    0    0    0    0 -0.00000000000E+00 -0.00000000000E+00 -0.50000000000E+02  0.50000000000E+02  0.00000000000E+00 0.  1.
         23    2    1    2    0    0  0.00000000000E+00  0.00000000000E+00  0.00000000000E+00  0.10000000000E+03  0.10000000000E+03 0.  0.
          5    1    3    3  501    0  0.22924855491E+02 -0.30667726685E+02  0.31809613967E+02  0.50000000000E+02  0.47000000000E+01 0. -1.
         -5    1    3    3    0  501 -0.22924855491E+02  0.30667726685E+02 -0.31809613967E+02  0.50000000000E+02  0.47000000000E+01 0.  1.
</event>
<event>
 5    1  0.9081766E-001  0.1000000E+03  0.7546771E-02  0.1163815E+00
         11   -1    0    0    0    0  0.00000000000E+00  0.00000000000E+00  0.50000000000E+02  0.50000000000E+02  0.00000000000E+00 0. -1.
        -11   -1    0    0    0    0 -0.00000000000E+00 -0.00000000000E+00 -0.50000000000E+02  0.50000000000E+02  0.00000000000E+00 0.  1.
         23    2    1    2    0    0  0.00000000000E+00  0.00000000000E+00  0.00000000000E+00  0.10000000000E+03  0.10000000000E+03 0.  0.
          5    1    3    3  501    0 -0.20174297343E+02  0.29783982926E+02  0.34406715737E+02  0.50000000000E+02  0.47000000000E+01 0. -1.
         -5    1    3    3    0  501  0.20174297343E+02 -0.29783982926E+02 -0.34406715737E+02  0.50000000000E+02  0.47000000000E+01 0.  1.
</event>
<event>
 5    1  0.9081766E-001  0.1000000E+03  0.7546771E-02  0.1163815E+00
         11   -1    0    0    0    0  0.00000000000E+00  0.00000000000E+00  0.50000000000E+02  0.50000000000E+02  0.00000000000E+00 0. -1.
        -11   -1    0    0    0    0 -0.00000000000E+00 -0.00000000000E+00 -0.50000000000E+02  0.50000000000E+02  0.00000000000E+00 0.  1.
         23    2    1    2    0    0  0.00000000000E+00  0.00000000000E+00  0.00000000000E+00  0.10000000000E+03  0.10000000000E+03 0.  0.
          5    1    3    3  501    0  0.26519119111E+02  0.40865914598E+02  0.10228555405E+02  0.50000000000E+02  0.47000000000E+01 0. -1.
         -5    1    3    3    0  501 -0.26519119111E+02 -0.40865914598E+02 -0.10228555405E+02  0.50000000000E+02  0.47000000000E+01 0.  1.
</event>
<event>
 5    1  0.9081766E-001  0.1000000E+03  0.7546771E-02  0.1163815E+00
         11   -1    0    0    0    0  0.00000000000E+00  0.00000000000E+00  0.50000000000E+02  0.50000000000E+02  0.00000000000E+00 0. -1.
        -11   -1    0    0    0    0 -0.00000000000E+00 -0.00000000000E+00 -0.50000000000E+02  0.50000000000E+02  0.00000000000E+00 0.  1.
         23    2    1    2    0    0  0.00000000000E+00  0.00000000000E+00  0.00000000000E+00  0.10000000000E+03  0.10000000000E+03 0.  0.
          5    1    3    3  501    0  0.29454920678E+02  0.31672650036E+02  0.24640634885E+02  0.50000000000E+02  0.47000000000E+01 0. -1.
         -5    1    3    3    0  501 -0.29454920678E+02 -0.31672650036E+02 -0.24640634885E+02  0.50000000000E+02  0.47000000000E+01 0.  1.
</event>
<event>
 5    1  0.9081766E-001  0.1000000E+03  0.7546771E-02  0.1163815E+00
         11   -1    0    0    0    0  0.00000000000E+00  0.00000000000E+00  0.50000000000E+02  0.50000000000E+02  0.00000000000E+00 0.  1.
        -11   -1    0    0    0    0 -0.00000000000E+00 -0.00000000000E+00 -0.50000000000E+02  0.50000000000E+02  0.00000000000E+00 0. -1.
         23    2    1    2    0    0  0.00000000000E+00  0.00000000000E+00  0.00000000000E+00  0.10000000000E+03  0.10000000000E+03 0.  0.
          5    1    3    3  501    0  0.67294282353E+01  0.48715076547E+02 -0.77114274088E+01  0.50000000000E+02  0.47000000000E+01 0. -1.
         -5    1    3    3    0  501 -0.67294282353E+01 -0.48715076547E+02  0.77114274088E+01  0.50000000000E+02  0.47000000000E+01 0.  1.
</event>
<event>
 5    1  0.9081766E-001  0.1000000E+03  0.7546771E-02  0.1163815E+00
         11   -1    0    0    0    0  0.00000000000E+00  0.00000000000E+00  0.50000000000E+02  0.50000000000E+02  0.00000000000E+00 0. -1.
        -11   -1    0    0    0    0 -0.00000000000E+00 -0.00000000000E+00 -0.50000000000E+02  0.50000000000E+02  0.00000000000E+00 0.  1.
         23    2    1    2    0    0  0.00000000000E+00  0.00000000000E+00  0.00000000000E+00  0.10000000000E+03  0.10000000000E+03 0.  0.
          5    1    3    3  501    0  0.27887108766E+02 -0.12413693944E+02  0.39320724400E+02  0.50000000000E+02  0.47000000000E+01 0. -1.
         -5    1    3    3    0  501 -0.27887108766E+02  0.12413693944E+02 -0.39320724400E+02  0.50000000000E+02  0.47000000000E+01 0.  1.
</event>
<event>
 5    1  0.9081766E-001  0.1000000E+03  0.7546771E-02  0.1163815E+00
         11   -1    0    0    0    0  0.00000000000E+00  0.00000000000E+00  0.50000000000E+02  0.50000000000E+02  0.00000000000E+00 0. -1.
        -11   -1    0    0    0    0 -0.00000000000E+00 -0.00000000000E+00 -0.50000000000E+02  0.50000000000E+02  0.00000000000E+00 0.  1.
         23    2    1    2    0    0  0.00000000000E+00  0.00000000000E+00  0.00000000000E+00  0.10000000000E+03  0.10000000000E+03 0.  0.
          5    1    3    3  501    0 -0.16684464398E+02  0.44259539284E+02 -0.15512312210E+02  0.50000000000E+02  0.47000000000E+01 0. -1.
         -5    1    3    3    0  501  0.16684464398E+02 -0.44259539284E+02  0.15512312210E+02  0.50000000000E+02  0.47000000000E+01 0.  1.
</event>
<event>
 5    1  0.9081766E-001  0.1000000E+03  0.7546771E-02  0.1163815E+00
         11   -1    0    0    0    0  0.00000000000E+00  0.00000000000E+00  0.50000000000E+02  0.50000000000E+02  0.00000000000E+00 0. -1.
        -11   -1    0    0    0    0 -0.00000000000E+00 -0.00000000000E+00 -0.50000000000E+02  0.50000000000E+02  0.00000000000E+00 0.  1.
         23    2    1    2    0    0  0.00000000000E+00  0.00000000000E+00  0.00000000000E+00  0.10000000000E+03  0.10000000000E+03 0.  0.
          5    1    3    3  501    0  0.20641120857E+02 -0.55660022250E+01  0.44954129388E+02  0.50000000000E+02  0.47000000000E+01 0. -1.
         -5    1    3    3    0  501 -0.20641120857E+02  0.55660022250E+01 -0.44954129388E+02  0.50000000000E+02  0.47000000000E+01 0.  1.
</event>
<event>
 5    1  0.9081766E-001  0.1000000E+03  0.7546771E-02  0.1163815E+00
         11   -1    0    0    0    0  0.00000000000E+00  0.00000000000E+00  0.50000000000E+02  0.50000000000E+02  0.00000000000E+00 0. -1.
        -11   -1    0    0    0    0 -0.00000000000E+00 -0.00000000000E+00 -0.50000000000E+02  0.50000000000E+02  0.00000000000E+00 0.  1.
         23    2    1    2    0    0  0.00000000000E+00  0.00000000000E+00  0.00000000000E+00  0.10000000000E+03  0.10000000000E+03 0.  0.
          5    1    3    3  501    0 -0.22018818484E+02  0.99797191851E+01  0.43514214201E+02  0.50000000000E+02  0.47000000000E+01 0. -1.
         -5    1    3    3    0  501  0.22018818484E+02 -0.99797191851E+01 -0.43514214201E+02  0.50000000000E+02  0.47000000000E+01 0.  1.
</event>
<event>
 5    1  0.9081766E-001  0.1000000E+03  0.7546771E-02  0.1163815E+00
         11   -1    0    0    0    0  0.00000000000E+00  0.00000000000E+00  0.50000000000E+02  0.50000000000E+02  0.00000000000E+00 0.  1.
        -11   -1    0    0    0    0 -0.00000000000E+00 -0.00000000000E+00 -0.50000000000E+02  0.50000000000E+02  0.00000000000E+00 0. -1.
         23    2    1    2    0    0  0.00000000000E+00  0.00000000000E+00  0.00000000000E+00  0.10000000000E+03  0.10000000000E+03 0.  0.
          5    1    3    3  501    0  0.19447307542E+02 -0.79269545989E+01 -0.45131758443E+02  0.50000000000E+02  0.47000000000E+01 0. -1.
         -5    1    3    3    0  501 -0.19447307542E+02  0.79269545989E+01  0.45131758443E+02  0.50000000000E+02  0.47000000000E+01 0.  1.
</event>
<event>
 5    1  0.9081766E-001  0.1000000E+03  0.7546771E-02  0.1163815E+00
         11   -1    0    0    0    0  0.00000000000E+00  0.00000000000E+00  0.50000000000E+02  0.50000000000E+02  0.00000000000E+00 0. -1.
        -11   -1    0    0    0    0 -0.00000000000E+00 -0.00000000000E+00 -0.50000000000E+02  0.50000000000E+02  0.00000000000E+00 0.  1.
         23    2    1    2    0    0  0.00000000000E+00  0.00000000000E+00  0.00000000000E+00  0.10000000000E+03  0.10000000000E+03 0.  0.
          5    1    3    3  501    0 -0.35429082199E+01  0.48829257396E+02 -0.90034117721E+01  0.50000000000E+02  0.47000000000E+01 0. -1.
         -5    1    3    3    0  501  0.35429082199E+01 -0.48829257396E+02  0.90034117721E+01  0.50000000000E+02  0.47000000000E+01 0.  1.
</event>
<event>
 5    1  0.9081766E-001  0.1000000E+03  0.7546771E-02  0.1163815E+00
         11   -1    0    0    0    0  0.00000000000E+00  0.00000000000E+00  0.50000000000E+02  0.50000000000E+02  0.00000000000E+00 0.  1.
        -11   -1    0    0    0    0 -0.00000000000E+00 -0.00000000000E+00 -0.50000000000E+02  0.50000000000E+02  0.00000000000E+00 0. -1.
         23    2    1    2    0    0  0.00000000000E+00  0.00000000000E+00  0.00000000000E+00  0.10000000000E+03  0.10000000000E+03 0.  0.
          5    1    3    3  501    0 -0.44763257166E+02  0.50834782952E+01 -0.21173546144E+02  0.50000000000E+02  0.47000000000E+01 0. -1.
         -5    1    3    3    0  501  0.44763257166E+02 -0.50834782952E+01  0.21173546144E+02  0.50000000000E+02  0.47000000000E+01 0.  1.
</event>
<event>
 5    1  0.9081766E-001  0.1000000E+03  0.7546771E-02  0.1163815E+00
         11   -1    0    0    0    0  0.00000000000E+00  0.00000000000E+00  0.50000000000E+02  0.50000000000E+02  0.00000000000E+00 0. -1.
        -11   -1    0    0    0    0 -0.00000000000E+00 -0.00000000000E+00 -0.50000000000E+02  0.50000000000E+02  0.00000000000E+00 0.  1.
         23    2    1    2    0    0  0.00000000000E+00  0.00000000000E+00  0.00000000000E+00  0.10000000000E+03  0.10000000000E+03 0.  0.
          5    1    3    3  501    0 -0.12160754712E+02 -0.39882069780E+02  0.27192766591E+02  0.50000000000E+02  0.47000000000E+01 0. -1.
         -5    1    3    3    0  501  0.12160754712E+02  0.39882069780E+02 -0.27192766591E+02  0.50000000000E+02  0.47000000000E+01 0.  1.
</event>
<event>
 5    1  0.9081766E-001  0.1000000E+03  0.7546771E-02  0.1163815E+00
         11   -1    0    0    0    0  0.00000000000E+00  0.00000000000E+00  0.50000000000E+02  0.50000000000E+02  0.00000000000E+00 0.  1.
        -11   -1    0    0    0    0 -0.00000000000E+00 -0.00000000000E+00 -0.50000000000E+02  0.50000000000E+02  0.00000000000E+00 0. -1.
         23    2    1    2    0    0  0.00000000000E+00  0.00000000000E+00  0.00000000000E+00  0.10000000000E+03  0.10000000000E+03 0.  0.
          5    1    3    3  501    0  0.33583186576E+02 -0.13645055237E+02 -0.34115862102E+02  0.50000000000E+02  0.47000000000E+01 0. -1.
         -5    1    3    3    0  501 -0.33583186576E+02  0.13645055237E+02  0.34115862102E+02  0.50000000000E+02  0.47000000000E+01 0.  1.
</event>
<event>
 5    1  0.9081766E-001  0.1000000E+03  0.7546771E-02  0.1163815E+00
         11   -1    0    0    0    0  0.00000000000E+00  0.00000000000E+00  0.50000000000E+02  0.50000000000E+02  0.00000000000E+00 0. -1.
        -11   -1    0    0    0    0 -0.00000000000E+00 -0.00000000000E+00 -0.50000000000E+02  0.50000000000E+02  0.00000000000E+00 0.  1.
         23    2    1    2    0    0  0.00000000000E+00  0.00000000000E+00  0.00000000000E+00  0.10000000000E+03  0.10000000000E+03 0.  0.
          5    1    3    3  501    0 -0.29332235376E+02 -0.16498522709E+02  0.36678722937E+02  0.50000000000E+02  0.47000000000E+01 0. -1.
         -5    1    3    3    0  501  0.29332235376E+02  0.16498522709E+02 -0.36678722937E+02  0.50000000000E+02  0.47000000000E+01 0.  1.
</event>
<event>
 5    1  0.9081766E-001  0.1000000E+03  0.7546771E-02  0.1163815E+00
         11   -1    0    0    0    0  0.00000000000E+00  0.00000000000E+00  0.50000000000E+02  0.50000000000E+02  0.00000000000E+00 0.  1.
        -11   -1    0    0    0    0 -0.00000000000E+00 -0.00000000000E+00 -0.50000000000E+02  0.50000000000E+02  0.00000000000E+00 0. -1.
         23    2    1    2    0    0  0.00000000000E+00  0.00000000000E+00  0.00000000000E+00  0.10000000000E+03  0.10000000000E+03 0.  0.
          5    1    3    3  501    0  0.27623419625E+02  0.27730360245E+02 -0.30755224091E+02  0.50000000000E+02  0.47000000000E+01 0. -1.
         -5    1    3    3    0  501 -0.27623419625E+02 -0.27730360245E+02  0.30755224091E+02  0.50000000000E+02  0.47000000000E+01 0.  1.
</event>
<event>
 5    1  0.9081766E-001  0.1000000E+03  0.7546771E-02  0.1163815E+00
         11   -1    0    0    0    0  0.00000000000E+00  0.00000000000E+00  0.50000000000E+02  0.50000000000E+02  0.00000000000E+00 0.  1.
        -11   -1    0    0    0    0 -0.00000000000E+00 -0.00000000000E+00 -0.50000000000E+02  0.50000000000E+02  0.00000000000E+00 0. -1.
         23    2    1    2    0    0  0.00000000000E+00  0.00000000000E+00  0.00000000000E+00  0.10000000000E+03  0.10000000000E+03 0.  0.
          5    1    3    3  501    0 -0.46336780588E+02  0.17690276173E+02 -0.42269248459E+01  0.50000000000E+02  0.47000000000E+01 0. -1.
         -5    1    3    3    0  501  0.46336780588E+02 -0.17690276173E+02  0.42269248459E+01  0.50000000000E+02  0.47000000000E+01 0.  1.
</event>
<event>
 5    1  0.9081766E-001  0.1000000E+03  0.7546771E-02  0.1163815E+00
         11   -1    0    0    0    0  0.00000000000E+00  0.00000000000E+00  0.50000000000E+02  0.50000000000E+02  0.00000000000E+00 0. -1.
        -11   -1    0    0    0    0 -0.00000000000E+00 -0.00000000000E+00 -0.50000000000E+02  0.50000000000E+02  0.00000000000E+00 0.  1.
         23    2    1    2    0    0  0.00000000000E+00  0.00000000000E+00  0.00000000000E+00  0.10000000000E+03  0.10000000000E+03 0.  0.
          5    1    3    3  501    0  0.29891337663E+02 -0.28188397134E+02  0.28103953454E+02  0.50000000000E+02  0.47000000000E+01 0. -1.
         -5    1    3    3    0  501 -0.29891337663E+02  0.28188397134E+02 -0.28103953454E+02  0.50000000000E+02  0.47000000000E+01 0.  1.
</event>
<event>
 5    1  0.9081766E-001  0.1000000E+03  0.7546771E-02  0.1163815E+00
         11   -1    0    0    0    0  0.00000000000E+00  0.00000000000E+00  0.50000000000E+02  0.50000000000E+02  0.00000000000E+00 0.  1.
        -11   -1    0    0    0    0 -0.00000000000E+00 -0.00000000000E+00 -0.50000000000E+02  0.50000000000E+02  0.00000000000E+00 0. -1.
         23    2    1    2    0    0  0.00000000000E+00  0.00000000000E+00  0.00000000000E+00  0.10000000000E+03  0.10000000000E+03 0.  0.
          5    1    3    3  501    0 -0.49101766136E+02  0.80839006537E+01 -0.12558314105E+01  0.50000000000E+02  0.47000000000E+01 0.  1.
         -5    1    3    3    0  501  0.49101766136E+02 -0.80839006537E+01  0.12558314105E+01  0.50000000000E+02  0.47000000000E+01 0. -1.
</event>
<event>
 5    1  0.9081766E-001  0.1000000E+03  0.7546771E-02  0.1163815E+00
         11   -1    0    0    0    0  0.00000000000E+00  0.00000000000E+00  0.50000000000E+02  0.50000000000E+02  0.00000000000E+00 0. -1.
        -11   -1    0    0    0    0 -0.00000000000E+00 -0.00000000000E+00 -0.50000000000E+02  0.50000000000E+02  0.00000000000E+00 0.  1.
         23    2    1    2    0    0  0.00000000000E+00  0.00000000000E+00  0.00000000000E+00  0.10000000000E+03  0.10000000000E+03 0.  0.
          5    1    3    3  501    0  0.21215036435E+02  0.41534598919E+02  0.17398543666E+02  0.50000000000E+02  0.47000000000E+01 0. -1.
         -5    1    3    3    0  501 -0.21215036435E+02 -0.41534598919E+02 -0.17398543666E+02  0.50000000000E+02  0.47000000000E+01 0.  1.
</event>
<event>
 5    1  0.9081766E-001  0.1000000E+03  0.7546771E-02  0.1163815E+00
         11   -1    0    0    0    0  0.00000000000E+00  0.00000000000E+00  0.50000000000E+02  0.50000000000E+02  0.00000000000E+00 0. -1.
        -11   -1    0    0    0    0 -0.00000000000E+00 -0.00000000000E+00 -0.50000000000E+02  0.50000000000E+02  0.00000000000E+00 0.  1.
         23    2    1    2    0    0  0.00000000000E+00  0.00000000000E+00  0.00000000000E+00  0.10000000000E+03  0.10000000000E+03 0.  0.
          5    1    3    3  501    0  0.61926156158E+01 -0.44718425386E+02  0.20971979946E+02  0.50000000000E+02  0.47000000000E+01 0. -1.
         -5    1    3    3    0  501 -0.61926156158E+01  0.44718425386E+02 -0.20971979946E+02  0.50000000000E+02  0.47000000000E+01 0.  1.
</event>
<event>
 5    1  0.9081766E-001  0.1000000E+03  0.7546771E-02  0.1163815E+00
         11   -1    0    0    0    0  0.00000000000E+00  0.00000000000E+00  0.50000000000E+02  0.50000000000E+02  0.00000000000E+00 0. -1.
        -11   -1    0    0    0    0 -0.00000000000E+00 -0.00000000000E+00 -0.50000000000E+02  0.50000000000E+02  0.00000000000E+00 0.  1.
         23    2    1    2    0    0  0.00000000000E+00  0.00000000000E+00  0.00000000000E+00  0.10000000000E+03  0.10000000000E+03 0.  0.
          5    1    3    3  501    0  0.22359644887E+02 -0.19826339557E+02  0.39810457675E+02  0.50000000000E+02  0.47000000000E+01 0. -1.
         -5    1    3    3    0  501 -0.22359644887E+02  0.19826339557E+02 -0.39810457675E+02  0.50000000000E+02  0.47000000000E+01 0.  1.
</event>
<event>
 5    1  0.9081766E-001  0.1000000E+03  0.7546771E-02  0.1163815E+00
         11   -1    0    0    0    0  0.00000000000E+00  0.00000000000E+00  0.50000000000E+02  0.50000000000E+02  0.00000000000E+00 0. -1.
        -11   -1    0    0    0    0 -0.00000000000E+00 -0.00000000000E+00 -0.50000000000E+02  0.50000000000E+02  0.00000000000E+00 0.  1.
         23    2    1    2    0    0  0.00000000000E+00  0.00000000000E+00  0.00000000000E+00  0.10000000000E+03  0.10000000000E+03 0.  0.
          5    1    3    3  501    0  0.21933840355E+02  0.11497719352E+02  0.43181235473E+02  0.50000000000E+02  0.47000000000E+01 0. -1.
         -5    1    3    3    0  501 -0.21933840355E+02 -0.11497719352E+02 -0.43181235473E+02  0.50000000000E+02  0.47000000000E+01 0.  1.
</event>
<event>
 5    1  0.9081766E-001  0.1000000E+03  0.7546771E-02  0.1163815E+00
         11   -1    0    0    0    0  0.00000000000E+00  0.00000000000E+00  0.50000000000E+02  0.50000000000E+02  0.00000000000E+00 0. -1.
        -11   -1    0    0    0    0 -0.00000000000E+00 -0.00000000000E+00 -0.50000000000E+02  0.50000000000E+02  0.00000000000E+00 0.  1.
         23    2    1    2    0    0  0.00000000000E+00  0.00000000000E+00  0.00000000000E+00  0.10000000000E+03  0.10000000000E+03 0.  0.
          5    1    3    3  501    0 -0.77355488680E+01 -0.16424173751E+02  0.46349949302E+02  0.50000000000E+02  0.47000000000E+01 0. -1.
         -5    1    3    3    0  501  0.77355488680E+01  0.16424173751E+02 -0.46349949302E+02  0.50000000000E+02  0.47000000000E+01 0.  1.
</event>
<event>
 5    1  0.9081766E-001  0.1000000E+03  0.7546771E-02  0.1163815E+00
         11   -1    0    0    0    0  0.00000000000E+00  0.00000000000E+00  0.50000000000E+02  0.50000000000E+02  0.00000000000E+00 0. -1.
        -11   -1    0    0    0    0 -0.00000000000E+00 -0.00000000000E+00 -0.50000000000E+02  0.50000000000E+02  0.00000000000E+00 0.  1.
         23    2    1    2    0    0  0.00000000000E+00  0.00000000000E+00  0.00000000000E+00  0.10000000000E+03  0.10000000000E+03 0.  0.
          5    1    3    3  501    0 -0.72417238074E+01  0.12749854700E+01  0.49232528356E+02  0.50000000000E+02  0.47000000000E+01 0. -1.
         -5    1    3    3    0  501  0.72417238074E+01 -0.12749854700E+01 -0.49232528356E+02  0.50000000000E+02  0.47000000000E+01 0.  1.
</event>
<event>
 5    1  0.9081766E-001  0.1000000E+03  0.7546771E-02  0.1163815E+00
         11   -1    0    0    0    0  0.00000000000E+00  0.00000000000E+00  0.50000000000E+02  0.50000000000E+02  0.00000000000E+00 0. -1.
        -11   -1    0    0    0    0 -0.00000000000E+00 -0.00000000000E+00 -0.50000000000E+02  0.50000000000E+02  0.00000000000E+00 0.  1.
         23    2    1    2    0    0  0.00000000000E+00  0.00000000000E+00  0.00000000000E+00  0.10000000000E+03  0.10000000000E+03 0.  0.
          5    1    3    3  501    0 -0.94760520499E+01  0.36954529524E+02  0.31976197166E+02  0.50000000000E+02  0.47000000000E+01 0. -1.
         -5    1    3    3    0  501  0.94760520499E+01 -0.36954529524E+02 -0.31976197166E+02  0.50000000000E+02  0.47000000000E+01 0.  1.
</event>
<event>
 5    1  0.9081766E-001  0.1000000E+03  0.7546771E-02  0.1163815E+00
         11   -1    0    0    0    0  0.00000000000E+00  0.00000000000E+00  0.50000000000E+02  0.50000000000E+02  0.00000000000E+00 0. -1.
        -11   -1    0    0    0    0 -0.00000000000E+00 -0.00000000000E+00 -0.50000000000E+02  0.50000000000E+02  0.00000000000E+00 0.  1.
         23    2    1    2    0    0  0.00000000000E+00  0.00000000000E+00  0.00000000000E+00  0.10000000000E+03  0.10000000000E+03 0.  0.
          5    1    3    3  501    0 -0.98934860149E+01  0.15753170028E+02  0.46172140611E+02  0.50000000000E+02  0.47000000000E+01 0. -1.
         -5    1    3    3    0  501  0.98934860149E+01 -0.15753170028E+02 -0.46172140611E+02  0.50000000000E+02  0.47000000000E+01 0.  1.
</event>
<event>
 5    1  0.9081766E-001  0.1000000E+03  0.7546771E-02  0.1163815E+00
         11   -1    0    0    0    0  0.00000000000E+00  0.00000000000E+00  0.50000000000E+02  0.50000000000E+02  0.00000000000E+00 0. -1.
        -11   -1    0    0    0    0 -0.00000000000E+00 -0.00000000000E+00 -0.50000000000E+02  0.50000000000E+02  0.00000000000E+00 0.  1.
         23    2    1    2    0    0  0.00000000000E+00  0.00000000000E+00  0.00000000000E+00  0.10000000000E+03  0.10000000000E+03 0.  0.
          5    1    3    3  501    0 -0.60330887783E+01  0.79910281943E+00  0.49405194813E+02  0.50000000000E+02  0.47000000000E+01 0. -1.
         -5    1    3    3    0  501  0.60330887783E+01 -0.79910281943E+00 -0.49405194813E+02  0.50000000000E+02  0.47000000000E+01 0.  1.
</event>
<event>
 5    1  0.9081766E-001  0.1000000E+03  0.7546771E-02  0.1163815E+00
         11   -1    0    0    0    0  0.00000000000E+00  0.00000000000E+00  0.50000000000E+02  0.50000000000E+02  0.00000000000E+00 0. -1.
        -11   -1    0    0    0    0 -0.00000000000E+00 -0.00000000000E+00 -0.50000000000E+02  0.50000000000E+02  0.00000000000E+00 0.  1.
         23    2    1    2    0    0  0.00000000000E+00  0.00000000000E+00  0.00000000000E+00  0.10000000000E+03  0.10000000000E+03 0.  0.
          5    1    3    3  501    0  0.25898937583E+02 -0.32474652386E+02  0.27432680957E+02  0.50000000000E+02  0.47000000000E+01 0. -1.
         -5    1    3    3    0  501 -0.25898937583E+02  0.32474652386E+02 -0.27432680957E+02  0.50000000000E+02  0.47000000000E+01 0.  1.
</event>
<event>
 5    1  0.9081766E-001  0.1000000E+03  0.7546771E-02  0.1163815E+00
         11   -1    0    0    0    0  0.00000000000E+00  0.00000000000E+00  0.50000000000E+02  0.50000000000E+02  0.00000000000E+00 0.  1.
        -11   -1    0    0    0    0 -0.00000000000E+00 -0.00000000000E+00 -0.50000000000E+02  0.50000000000E+02  0.00000000000E+00 0. -1.
         23    2    1    2    0    0  0.00000000000E+00  0.00000000000E+00  0.00000000000E+00  0.10000000000E+03  0.10000000000E+03 0.  0.
          5    1    3    3  501    0  0.26448590552E+02 -0.42127673692E+02 -0.19081842412E+01  0.50000000000E+02  0.47000000000E+01 0. -1.
         -5    1    3    3    0  501 -0.26448590552E+02  0.42127673692E+02  0.19081842412E+01  0.50000000000E+02  0.47000000000E+01 0.  1.
</event>
<event>
 5    1  0.9081766E-001  0.1000000E+03  0.7546771E-02  0.1163815E+00
         11   -1    0    0    0    0  0.00000000000E+00  0.00000000000E+00  0.50000000000E+02  0.50000000000E+02  0.00000000000E+00 0.  1.
        -11   -1    0    0    0    0 -0.00000000000E+00 -0.00000000000E+00 -0.50000000000E+02  0.50000000000E+02  0.00000000000E+00 0. -1.
         23    2    1    2    0    0  0.00000000000E+00  0.00000000000E+00  0.00000000000E+00  0.10000000000E+03  0.10000000000E+03 0.  0.
          5    1    3    3  501    0  0.36991788370E+02 -0.78226727671E+01 -0.32377822409E+02  0.50000000000E+02  0.47000000000E+01 0. -1.
         -5    1    3    3    0  501 -0.36991788370E+02  0.78226727671E+01  0.32377822409E+02  0.50000000000E+02  0.47000000000E+01 0.  1.
</event>
<event>
 5    1  0.9081766E-001  0.1000000E+03  0.7546771E-02  0.1163815E+00
         11   -1    0    0    0    0  0.00000000000E+00  0.00000000000E+00  0.50000000000E+02  0.50000000000E+02  0.00000000000E+00 0. -1.
        -11   -1    0    0    0    0 -0.00000000000E+00 -0.00000000000E+00 -0.50000000000E+02  0.50000000000E+02  0.00000000000E+00 0.  1.
         23    2    1    2    0    0  0.00000000000E+00  0.00000000000E+00  0.00000000000E+00  0.10000000000E+03  0.10000000000E+03 0.  0.
          5    1    3    3  501    0 -0.49023352472E+02  0.86348718771E+01 -0.24474498268E+00  0.50000000000E+02  0.47000000000E+01 0. -1.
         -5    1    3    3    0  501  0.49023352472E+02 -0.86348718771E+01  0.24474498268E+00  0.50000000000E+02  0.47000000000E+01 0.  1.
</event>
<event>
 5    1  0.9081766E-001  0.1000000E+03  0.7546771E-02  0.1163815E+00
         11   -1    0    0    0    0  0.00000000000E+00  0.00000000000E+00  0.50000000000E+02  0.50000000000E+02  0.00000000000E+00 0. -1.
        -11   -1    0    0    0    0 -0.00000000000E+00 -0.00000000000E+00 -0.50000000000E+02  0.50000000000E+02  0.00000000000E+00 0.  1.
         23    2    1    2    0    0  0.00000000000E+00  0.00000000000E+00  0.00000000000E+00  0.10000000000E+03  0.10000000000E+03 0.  0.
          5    1    3    3  501    0 -0.30051467549E+02  0.17012462988E+02  0.35852411373E+02  0.50000000000E+02  0.47000000000E+01 0. -1.
         -5    1    3    3    0  501  0.30051467549E+02 -0.17012462988E+02 -0.35852411373E+02  0.50000000000E+02  0.47000000000E+01 0.  1.
</event>
<event>
 5    1  0.9081766E-001  0.1000000E+03  0.7546771E-02  0.1163815E+00
         11   -1    0    0    0    0  0.00000000000E+00  0.00000000000E+00  0.50000000000E+02  0.50000000000E+02  0.00000000000E+00 0.  1.
        -11   -1    0    0    0    0 -0.00000000000E+00 -0.00000000000E+00 -0.50000000000E+02  0.50000000000E+02  0.00000000000E+00 0. -1.
         23    2    1    2    0    0  0.00000000000E+00  0.00000000000E+00  0.00000000000E+00  0.10000000000E+03  0.10000000000E+03 0.  0.
          5    1    3    3  501    0 -0.43351017359E+02  0.97532637199E+01 -0.22438207165E+02  0.50000000000E+02  0.47000000000E+01 0. -1.
         -5    1    3    3    0  501  0.43351017359E+02 -0.97532637199E+01  0.22438207165E+02  0.50000000000E+02  0.47000000000E+01 0.  1.
</event>
<event>
 5    1  0.9081766E-001  0.1000000E+03  0.7546771E-02  0.1163815E+00
         11   -1    0    0    0    0  0.00000000000E+00  0.00000000000E+00  0.50000000000E+02  0.50000000000E+02  0.00000000000E+00 0. -1.
        -11   -1    0    0    0    0 -0.00000000000E+00 -0.00000000000E+00 -0.50000000000E+02  0.50000000000E+02  0.00000000000E+00 0.  1.
         23    2    1    2    0    0  0.00000000000E+00  0.00000000000E+00  0.00000000000E+00  0.10000000000E+03  0.10000000000E+03 0.  0.
          5    1    3    3  501    0  0.47606506078E+02 -0.44036583425E+01 -0.13861398640E+02  0.50000000000E+02  0.47000000000E+01 0. -1.
         -5    1    3    3    0  501 -0.47606506078E+02  0.44036583425E+01  0.13861398640E+02  0.50000000000E+02  0.47000000000E+01 0.  1.
</event>
<event>
 5    1  0.9081766E-001  0.1000000E+03  0.7546771E-02  0.1163815E+00
         11   -1    0    0    0    0  0.00000000000E+00  0.00000000000E+00  0.50000000000E+02  0.50000000000E+02  0.00000000000E+00 0.  1.
        -11   -1    0    0    0    0 -0.00000000000E+00 -0.00000000000E+00 -0.50000000000E+02  0.50000000000E+02  0.00000000000E+00 0. -1.
         23    2    1    2    0    0  0.00000000000E+00  0.00000000000E+00  0.00000000000E+00  0.10000000000E+03  0.10000000000E+03 0.  0.
          5    1    3    3  501    0  0.45936512796E+02 -0.71836709527E+01 -0.17780372994E+02  0.50000000000E+02  0.47000000000E+01 0. -1.
         -5    1    3    3    0  501 -0.45936512796E+02  0.71836709527E+01  0.17780372994E+02  0.50000000000E+02  0.47000000000E+01 0.  1.
</event>
<event>
 5    1  0.9081766E-001  0.1000000E+03  0.7546771E-02  0.1163815E+00
         11   -1    0    0    0    0  0.00000000000E+00  0.00000000000E+00  0.50000000000E+02  0.50000000000E+02  0.00000000000E+00 0.  1.
        -11   -1    0    0    0    0 -0.00000000000E+00 -0.00000000000E+00 -0.50000000000E+02  0.50000000000E+02  0.00000000000E+00 0. -1.
         23    2    1    2    0    0  0.00000000000E+00  0.00000000000E+00  0.00000000000E+00  0.10000000000E+03  0.10000000000E+03 0.  0.
          5    1    3    3  501    0 -0.67452612052E+01 -0.65878825011E+00 -0.49315083385E+02  0.50000000000E+02  0.47000000000E+01 0. -1.
         -5    1    3    3    0  501  0.67452612052E+01  0.65878825011E+00  0.49315083385E+02  0.50000000000E+02  0.47000000000E+01 0.  1.
</event>
<event>
 5    1  0.9081766E-001  0.1000000E+03  0.7546771E-02  0.1163815E+00
         11   -1    0    0    0    0  0.00000000000E+00  0.00000000000E+00  0.50000000000E+02  0.50000000000E+02  0.00000000000E+00 0. -1.
        -11   -1    0    0    0    0 -0.00000000000E+00 -0.00000000000E+00 -0.50000000000E+02  0.50000000000E+02  0.00000000000E+00 0.  1.
         23    2    1    2    0    0  0.00000000000E+00  0.00000000000E+00  0.00000000000E+00  0.10000000000E+03  0.10000000000E+03 0.  0.
          5    1    3    3  501    0  0.56777906722E+01  0.22719432120E+02  0.43926075368E+02  0.50000000000E+02  0.47000000000E+01 0. -1.
         -5    1    3    3    0  501 -0.56777906722E+01 -0.22719432120E+02 -0.43926075368E+02  0.50000000000E+02  0.47000000000E+01 0.  1.
</event>
<event>
 5    1  0.9081766E-001  0.1000000E+03  0.7546771E-02  0.1163815E+00
         11   -1    0    0    0    0  0.00000000000E+00  0.00000000000E+00  0.50000000000E+02  0.50000000000E+02  0.00000000000E+00 0.  1.
        -11   -1    0    0    0    0 -0.00000000000E+00 -0.00000000000E+00 -0.50000000000E+02  0.50000000000E+02  0.00000000000E+00 0. -1.
         23    2    1    2    0    0  0.00000000000E+00  0.00000000000E+00  0.00000000000E+00  0.10000000000E+03  0.10000000000E+03 0.  0.
          5    1    3    3  501    0 -0.37050034668E+01  0.11488671646E+01 -0.49627241043E+02  0.50000000000E+02  0.47000000000E+01 0. -1.
         -5    1    3    3    0  501  0.37050034668E+01 -0.11488671646E+01  0.49627241043E+02  0.50000000000E+02  0.47000000000E+01 0.  1.
</event>
<event>
 5    1  0.9081766E-001  0.1000000E+03  0.7546771E-02  0.1163815E+00
         11   -1    0    0    0    0  0.00000000000E+00  0.00000000000E+00  0.50000000000E+02  0.50000000000E+02  0.00000000000E+00 0. -1.
        -11   -1    0    0    0    0 -0.00000000000E+00 -0.00000000000E+00 -0.50000000000E+02  0.50000000000E+02  0.00000000000E+00 0.  1.
         23    2    1    2    0    0  0.00000000000E+00  0.00000000000E+00  0.00000000000E+00  0.10000000000E+03  0.10000000000E+03 0.  0.
          5    1    3    3  501    0  0.42962079553E+02  0.13004089011E+02  0.21518907720E+02  0.50000000000E+02  0.47000000000E+01 0. -1.
         -5    1    3    3    0  501 -0.42962079553E+02 -0.13004089011E+02 -0.21518907720E+02  0.50000000000E+02  0.47000000000E+01 0.  1.
</event>
<event>
 5    1  0.9081766E-001  0.1000000E+03  0.7546771E-02  0.1163815E+00
         11   -1    0    0    0    0  0.00000000000E+00  0.00000000000E+00  0.50000000000E+02  0.50000000000E+02  0.00000000000E+00 0.  1.
        -11   -1    0    0    0    0 -0.00000000000E+00 -0.00000000000E+00 -0.50000000000E+02  0.50000000000E+02  0.00000000000E+00 0. -1.
         23    2    1    2    0    0  0.00000000000E+00  0.00000000000E+00  0.00000000000E+00  0.10000000000E+03  0.10000000000E+03 0.  0.
          5    1    3    3  501    0  0.16176389054E+02  0.21618667730E+02 -0.41819464879E+02  0.50000000000E+02  0.47000000000E+01 0. -1.
         -5    1    3    3    0  501 -0.16176389054E+02 -0.21618667730E+02  0.41819464879E+02  0.50000000000E+02  0.47000000000E+01 0.  1.
</event>
<event>
 5    1  0.9081766E-001  0.1000000E+03  0.7546771E-02  0.1163815E+00
         11   -1    0    0    0    0  0.00000000000E+00  0.00000000000E+00  0.50000000000E+02  0.50000000000E+02  0.00000000000E+00 0. -1.
        -11   -1    0    0    0    0 -0.00000000000E+00 -0.00000000000E+00 -0.50000000000E+02  0.50000000000E+02  0.00000000000E+00 0.  1.
         23    2    1    2    0    0  0.00000000000E+00  0.00000000000E+00  0.00000000000E+00  0.10000000000E+03  0.10000000000E+03 0.  0.
          5    1    3    3  501    0 -0.35498329447E+02 -0.27711018325E+02  0.21210329320E+02  0.50000000000E+02  0.47000000000E+01 0. -1.
         -5    1    3    3    0  501  0.35498329447E+02  0.27711018325E+02 -0.21210329320E+02  0.50000000000E+02  0.47000000000E+01 0.  1.
</event>
<event>
 5    1  0.9081766E-001  0.1000000E+03  0.7546771E-02  0.1163815E+00
         11   -1    0    0    0    0  0.00000000000E+00  0.00000000000E+00  0.50000000000E+02  0.50000000000E+02  0.00000000000E+00 0. -1.
        -11   -1    0    0    0    0 -0.00000000000E+00 -0.00000000000E+00 -0.50000000000E+02  0.50000000000E+02  0.00000000000E+00 0.  1.
         23    2    1    2    0    0  0.00000000000E+00  0.00000000000E+00  0.00000000000E+00  0.10000000000E+03  0.10000000000E+03 0.  0.
          5    1    3    3  501    0 -0.26319946584E+02  0.10131973505E+02  0.41018453466E+02  0.50000000000E+02  0.47000000000E+01 0. -1.
         -5    1    3    3    0  501  0.26319946584E+02 -0.10131973505E+02 -0.41018453466E+02  0.50000000000E+02  0.47000000000E+01 0.  1.
</event>
<event>
 5    1  0.9081766E-001  0.1000000E+03  0.7546771E-02  0.1163815E+00
         11   -1    0    0    0    0  0.00000000000E+00  0.00000000000E+00  0.50000000000E+02  0.50000000000E+02  0.00000000000E+00 0.  1.
        -11   -1    0    0    0    0 -0.00000000000E+00 -0.00000000000E+00 -0.50000000000E+02  0.50000000000E+02  0.00000000000E+00 0. -1.
         23    2    1    2    0    0  0.00000000000E+00  0.00000000000E+00  0.00000000000E+00  0.10000000000E+03  0.10000000000E+03 0.  0.
          5    1    3    3  501    0 -0.31361803205E+02 -0.25309692603E+02 -0.29219287467E+02  0.50000000000E+02  0.47000000000E+01 0. -1.
         -5    1    3    3    0  501  0.31361803205E+02  0.25309692603E+02  0.29219287467E+02  0.50000000000E+02  0.47000000000E+01 0.  1.
</event>
<event>
 5    1  0.9081766E-001  0.1000000E+03  0.7546771E-02  0.1163815E+00
         11   -1    0    0    0    0  0.00000000000E+00  0.00000000000E+00  0.50000000000E+02  0.50000000000E+02  0.00000000000E+00 0. -1.
        -11   -1    0    0    0    0 -0.00000000000E+00 -0.00000000000E+00 -0.50000000000E+02  0.50000000000E+02  0.00000000000E+00 0.  1.
         23    2    1    2    0    0  0.00000000000E+00  0.00000000000E+00  0.00000000000E+00  0.10000000000E+03  0.10000000000E+03 0.  0.
          5    1    3    3  501    0 -0.10062128175E+02 -0.43034598068E+02  0.22906046051E+02  0.50000000000E+02  0.47000000000E+01 0. -1.
         -5    1    3    3    0  501  0.10062128175E+02  0.43034598068E+02 -0.22906046051E+02  0.50000000000E+02  0.47000000000E+01 0.  1.
</event>
<event>
 5    1  0.9081766E-001  0.1000000E+03  0.7546771E-02  0.1163815E+00
         11   -1    0    0    0    0  0.00000000000E+00  0.00000000000E+00  0.50000000000E+02  0.50000000000E+02  0.00000000000E+00 0. -1.
        -11   -1    0    0    0    0 -0.00000000000E+00 -0.00000000000E+00 -0.50000000000E+02  0.50000000000E+02  0.00000000000E+00 0.  1.
         23    2    1    2    0    0  0.00000000000E+00  0.00000000000E+00  0.00000000000E+00  0.10000000000E+03  0.10000000000E+03 0.  0.
          5    1    3    3  501    0  0.28383632241E+02  0.24842366005E+01  0.40817986101E+02  0.50000000000E+02  0.47000000000E+01 0. -1.
         -5    1    3    3    0  501 -0.28383632241E+02 -0.24842366005E+01 -0.40817986101E+02  0.50000000000E+02  0.47000000000E+01 0.  1.
</event>
<event>
 5    1  0.9081766E-001  0.1000000E+03  0.7546771E-02  0.1163815E+00
         11   -1    0    0    0    0  0.00000000000E+00  0.00000000000E+00  0.50000000000E+02  0.50000000000E+02  0.00000000000E+00 0. -1.
        -11   -1    0    0    0    0 -0.00000000000E+00 -0.00000000000E+00 -0.50000000000E+02  0.50000000000E+02  0.00000000000E+00 0.  1.
         23    2    1    2    0    0  0.00000000000E+00  0.00000000000E+00  0.00000000000E+00  0.10000000000E+03  0.10000000000E+03 0.  0.
          5    1    3    3  501    0  0.99380494266E+01  0.36847151923E+02  0.31959858710E+02  0.50000000000E+02  0.47000000000E+01 0. -1.
         -5    1    3    3    0  501 -0.99380494266E+01 -0.36847151923E+02 -0.31959858710E+02  0.50000000000E+02  0.47000000000E+01 0.  1.
</event>
<event>
 5    1  0.9081766E-001  0.1000000E+03  0.7546771E-02  0.1163815E+00
         11   -1    0    0    0    0  0.00000000000E+00  0.00000000000E+00  0.50000000000E+02  0.50000000000E+02  0.00000000000E+00 0. -1.
        -11   -1    0    0    0    0 -0.00000000000E+00 -0.00000000000E+00 -0.50000000000E+02  0.50000000000E+02  0.00000000000E+00 0.  1.
         23    2    1    2    0    0  0.00000000000E+00  0.00000000000E+00  0.00000000000E+00  0.10000000000E+03  0.10000000000E+03 0.  0.
          5    1    3    3  501    0 -0.17016189202E+02  0.42616522108E+02 -0.19292261363E+02  0.50000000000E+02  0.47000000000E+01 0. -1.
         -5    1    3    3    0  501  0.17016189202E+02 -0.42616522108E+02  0.19292261363E+02  0.50000000000E+02  0.47000000000E+01 0.  1.
</event>
<event>
 5    1  0.9081766E-001  0.1000000E+03  0.7546771E-02  0.1163815E+00
         11   -1    0    0    0    0  0.00000000000E+00  0.00000000000E+00  0.50000000000E+02  0.50000000000E+02  0.00000000000E+00 0.  1.
        -11   -1    0    0    0    0 -0.00000000000E+00 -0.00000000000E+00 -0.50000000000E+02  0.50000000000E+02  0.00000000000E+00 0. -1.
         23    2    1    2    0    0  0.00000000000E+00  0.00000000000E+00  0.00000000000E+00  0.10000000000E+03  0.10000000000E+03 0.  0.
          5    1    3    3  501    0 -0.33206602907E+02 -0.34621019575E+02 -0.13289715082E+02  0.50000000000E+02  0.47000000000E+01 0. -1.
         -5    1    3    3    0  501  0.33206602907E+02  0.34621019575E+02  0.13289715082E+02  0.50000000000E+02  0.47000000000E+01 0.  1.
</event>
<event>
 5    1  0.9081766E-001  0.1000000E+03  0.7546771E-02  0.1163815E+00
         11   -1    0    0    0    0  0.00000000000E+00  0.00000000000E+00  0.50000000000E+02  0.50000000000E+02  0.00000000000E+00 0. -1.
        -11   -1    0    0    0    0 -0.00000000000E+00 -0.00000000000E+00 -0.50000000000E+02  0.50000000000E+02  0.00000000000E+00 0.  1.
         23    2    1    2    0    0  0.00000000000E+00  0.00000000000E+00  0.00000000000E+00  0.10000000000E+03  0.10000000000E+03 0.  0.
          5    1    3    3  501    0 -0.99713551532E+01 -0.47679542680E+02 -0.10253940034E+02  0.50000000000E+02  0.47000000000E+01 0. -1.
         -5    1    3    3    0  501  0.99713551532E+01  0.47679542680E+02  0.10253940034E+02  0.50000000000E+02  0.47000000000E+01 0.  1.
</event>
<event>
 5    1  0.9081766E-001  0.1000000E+03  0.7546771E-02  0.1163815E+00
         11   -1    0    0    0    0  0.00000000000E+00  0.00000000000E+00  0.50000000000E+02  0.50000000000E+02  0.00000000000E+00 0. -1.
        -11   -1    0    0    0    0 -0.00000000000E+00 -0.00000000000E+00 -0.50000000000E+02  0.50000000000E+02  0.00000000000E+00 0.  1.
         23    2    1    2    0    0  0.00000000000E+00  0.00000000000E+00  0.00000000000E+00  0.10000000000E+03  0.10000000000E+03 0.  0.
          5    1    3    3  501    0 -0.28700951563E+02 -0.33309672112E+02  0.23337333249E+02  0.50000000000E+02  0.47000000000E+01 0. -1.
         -5    1    3    3    0  501  0.28700951563E+02  0.33309672112E+02 -0.23337333249E+02  0.50000000000E+02  0.47000000000E+01 0.  1.
</event>
<event>
 5    1  0.9081766E-001  0.1000000E+03  0.7546771E-02  0.1163815E+00
         11   -1    0    0    0    0  0.00000000000E+00  0.00000000000E+00  0.50000000000E+02  0.50000000000E+02  0.00000000000E+00 0. -1.
        -11   -1    0    0    0    0 -0.00000000000E+00 -0.00000000000E+00 -0.50000000000E+02  0.50000000000E+02  0.00000000000E+00 0.  1.
         23    2    1    2    0    0  0.00000000000E+00  0.00000000000E+00  0.00000000000E+00  0.10000000000E+03  0.10000000000E+03 0.  0.
          5    1    3    3  501    0  0.22713796154E+02 -0.11640303425E+02  0.42737533860E+02  0.50000000000E+02  0.47000000000E+01 0. -1.
         -5    1    3    3    0  501 -0.22713796154E+02  0.11640303425E+02 -0.42737533860E+02  0.50000000000E+02  0.47000000000E+01 0.  1.
</event>
<event>
 5    1  0.9081766E-001  0.1000000E+03  0.7546771E-02  0.1163815E+00
         11   -1    0    0    0    0  0.00000000000E+00  0.00000000000E+00  0.50000000000E+02  0.50000000000E+02  0.00000000000E+00 0. -1.
        -11   -1    0    0    0    0 -0.00000000000E+00 -0.00000000000E+00 -0.50000000000E+02  0.50000000000E+02  0.00000000000E+00 0.  1.
         23    2    1    2    0    0  0.00000000000E+00  0.00000000000E+00  0.00000000000E+00  0.10000000000E+03  0.10000000000E+03 0.  0.
          5    1    3    3  501    0 -0.13402616692E+02 -0.47939973868E+02  0.19690436760E+00  0.50000000000E+02  0.47000000000E+01 0. -1.
         -5    1    3    3    0  501  0.13402616692E+02  0.47939973868E+02 -0.19690436760E+00  0.50000000000E+02  0.47000000000E+01 0.  1.
</event>
<event>
 5    1  0.9081766E-001  0.1000000E+03  0.7546771E-02  0.1163815E+00
         11   -1    0    0    0    0  0.00000000000E+00  0.00000000000E+00  0.50000000000E+02  0.50000000000E+02  0.00000000000E+00 0.  1.
        -11   -1    0    0    0    0 -0.00000000000E+00 -0.00000000000E+00 -0.50000000000E+02  0.50000000000E+02  0.00000000000E+00 0. -1.
         23    2    1    2    0    0  0.00000000000E+00  0.00000000000E+00  0.00000000000E+00  0.10000000000E+03  0.10000000000E+03 0.  0.
          5    1    3    3  501    0 -0.10143005720E+02 -0.11174267802E+02 -0.47435905958E+02  0.50000000000E+02  0.47000000000E+01 0. -1.
         -5    1    3    3    0  501  0.10143005720E+02  0.11174267802E+02  0.47435905958E+02  0.50000000000E+02  0.47000000000E+01 0.  1.
</event>
<event>
 5    1  0.9081766E-001  0.1000000E+03  0.7546771E-02  0.1163815E+00
         11   -1    0    0    0    0  0.00000000000E+00  0.00000000000E+00  0.50000000000E+02  0.50000000000E+02  0.00000000000E+00 0. -1.
        -11   -1    0    0    0    0 -0.00000000000E+00 -0.00000000000E+00 -0.50000000000E+02  0.50000000000E+02  0.00000000000E+00 0.  1.
         23    2    1    2    0    0  0.00000000000E+00  0.00000000000E+00  0.00000000000E+00  0.10000000000E+03  0.10000000000E+03 0.  0.
          5    1    3    3  501    0 -0.19570362391E+02  0.26229351101E+02  0.37509092987E+02  0.50000000000E+02  0.47000000000E+01 0. -1.
         -5    1    3    3    0  501  0.19570362391E+02 -0.26229351101E+02 -0.37509092987E+02  0.50000000000E+02  0.47000000000E+01 0.  1.
</event>
<event>
 5    1  0.9081766E-001  0.1000000E+03  0.7546771E-02  0.1163815E+00
         11   -1    0    0    0    0  0.00000000000E+00  0.00000000000E+00  0.50000000000E+02  0.50000000000E+02  0.00000000000E+00 0. -1.
        -11   -1    0    0    0    0 -0.00000000000E+00 -0.00000000000E+00 -0.50000000000E+02  0.50000000000E+02  0.00000000000E+00 0.  1.
         23    2    1    2    0    0  0.00000000000E+00  0.00000000000E+00  0.00000000000E+00  0.10000000000E+03  0.10000000000E+03 0.  0.
          5    1    3    3  501    0  0.17302791399E+02  0.38457475496E+02  0.26448931704E+02  0.50000000000E+02  0.47000000000E+01 0. -1.
         -5    1    3    3    0  501 -0.17302791399E+02 -0.38457475496E+02 -0.26448931704E+02  0.50000000000E+02  0.47000000000E+01 0.  1.
</event>
<event>
 5    1  0.9081766E-001  0.1000000E+03  0.7546771E-02  0.1163815E+00
         11   -1    0    0    0    0  0.00000000000E+00  0.00000000000E+00  0.50000000000E+02  0.50000000000E+02  0.00000000000E+00 0. -1.
        -11   -1    0    0    0    0 -0.00000000000E+00 -0.00000000000E+00 -0.50000000000E+02  0.50000000000E+02  0.00000000000E+00 0.  1.
         23    2    1    2    0    0  0.00000000000E+00  0.00000000000E+00  0.00000000000E+00  0.10000000000E+03  0.10000000000E+03 0.  0.
          5    1    3    3  501    0 -0.19302247930E+01  0.13489873640E+02  0.47877004307E+02  0.50000000000E+02  0.47000000000E+01 0. -1.
         -5    1    3    3    0  501  0.19302247930E+01 -0.13489873640E+02 -0.47877004307E+02  0.50000000000E+02  0.47000000000E+01 0.  1.
</event>
<event>
 5    1  0.9081766E-001  0.1000000E+03  0.7546771E-02  0.1163815E+00
         11   -1    0    0    0    0  0.00000000000E+00  0.00000000000E+00  0.50000000000E+02  0.50000000000E+02  0.00000000000E+00 0. -1.
        -11   -1    0    0    0    0 -0.00000000000E+00 -0.00000000000E+00 -0.50000000000E+02  0.50000000000E+02  0.00000000000E+00 0.  1.
         23    2    1    2    0    0  0.00000000000E+00  0.00000000000E+00  0.00000000000E+00  0.10000000000E+03  0.10000000000E+03 0.  0.
          5    1    3    3  501    0 -0.16429569162E+02  0.42698302155E+01  0.46794741233E+02  0.50000000000E+02  0.47000000000E+01 0. -1.
         -5    1    3    3    0  501  0.16429569162E+02 -0.42698302155E+01 -0.46794741233E+02  0.50000000000E+02  0.47000000000E+01 0.  1.
</event>
<event>
 5    1  0.9081766E-001  0.1000000E+03  0.7546771E-02  0.1163815E+00
         11   -1    0    0    0    0  0.00000000000E+00  0.00000000000E+00  0.50000000000E+02  0.50000000000E+02  0.00000000000E+00 0. -1.
        -11   -1    0    0    0    0 -0.00000000000E+00 -0.00000000000E+00 -0.50000000000E+02  0.50000000000E+02  0.00000000000E+00 0.  1.
         23    2    1    2    0    0  0.00000000000E+00  0.00000000000E+00  0.00000000000E+00  0.10000000000E+03  0.10000000000E+03 0.  0.
          5    1    3    3  501    0  0.64482983845E+01  0.49180299957E+02  0.41985168963E+01  0.50000000000E+02  0.47000000000E+01 0. -1.
         -5    1    3    3    0  501 -0.64482983845E+01 -0.49180299957E+02 -0.41985168963E+01  0.50000000000E+02  0.47000000000E+01 0.  1.
</event>
<event>
 5    1  0.9081766E-001  0.1000000E+03  0.7546771E-02  0.1163815E+00
         11   -1    0    0    0    0  0.00000000000E+00  0.00000000000E+00  0.50000000000E+02  0.50000000000E+02  0.00000000000E+00 0. -1.
        -11   -1    0    0    0    0 -0.00000000000E+00 -0.00000000000E+00 -0.50000000000E+02  0.50000000000E+02  0.00000000000E+00 0.  1.
         23    2    1    2    0    0  0.00000000000E+00  0.00000000000E+00  0.00000000000E+00  0.10000000000E+03  0.10000000000E+03 0.  0.
          5    1    3    3  501    0 -0.19821496782E+02 -0.45651478384E+02  0.98019727399E+00  0.50000000000E+02  0.47000000000E+01 0. -1.
         -5    1    3    3    0  501  0.19821496782E+02  0.45651478384E+02 -0.98019727399E+00  0.50000000000E+02  0.47000000000E+01 0.  1.
</event>
<event>
 5    1  0.9081766E-001  0.1000000E+03  0.7546771E-02  0.1163815E+00
         11   -1    0    0    0    0  0.00000000000E+00  0.00000000000E+00  0.50000000000E+02  0.50000000000E+02  0.00000000000E+00 0.  1.
        -11   -1    0    0    0    0 -0.00000000000E+00 -0.00000000000E+00 -0.50000000000E+02  0.50000000000E+02  0.00000000000E+00 0. -1.
         23    2    1    2    0    0  0.00000000000E+00  0.00000000000E+00  0.00000000000E+00  0.10000000000E+03  0.10000000000E+03 0.  0.
          5    1    3    3  501    0  0.26152302482E+02 -0.23825777496E+02  0.35018557960E+02  0.50000000000E+02  0.47000000000E+01 0.  1.
         -5    1    3    3    0  501 -0.26152302482E+02  0.23825777496E+02 -0.35018557960E+02  0.50000000000E+02  0.47000000000E+01 0. -1.
</event>
<event>
 5    1  0.9081766E-001  0.1000000E+03  0.7546771E-02  0.1163815E+00
         11   -1    0    0    0    0  0.00000000000E+00  0.00000000000E+00  0.50000000000E+02  0.50000000000E+02  0.00000000000E+00 0.  1.
        -11   -1    0    0    0    0 -0.00000000000E+00 -0.00000000000E+00 -0.50000000000E+02  0.50000000000E+02  0.00000000000E+00 0. -1.
         23    2    1    2    0    0  0.00000000000E+00  0.00000000000E+00  0.00000000000E+00  0.10000000000E+03  0.10000000000E+03 0.  0.
          5    1    3    3  501    0  0.33888545144E+02 -0.16199283793E+02 -0.32665879946E+02  0.50000000000E+02  0.47000000000E+01 0. -1.
         -5    1    3    3    0  501 -0.33888545144E+02  0.16199283793E+02  0.32665879946E+02  0.50000000000E+02  0.47000000000E+01 0.  1.
</event>
<event>
 5    1  0.9081766E-001  0.1000000E+03  0.7546771E-02  0.1163815E+00
         11   -1    0    0    0    0  0.00000000000E+00  0.00000000000E+00  0.50000000000E+02  0.50000000000E+02  0.00000000000E+00 0. -1.
        -11   -1    0    0    0    0 -0.00000000000E+00 -0.00000000000E+00 -0.50000000000E+02  0.50000000000E+02  0.00000000000E+00 0.  1.
         23    2    1    2    0    0  0.00000000000E+00  0.00000000000E+00  0.00000000000E+00  0.10000000000E+03  0.10000000000E+03 0.  0.
          5    1    3    3  501    0  0.83371151620E+01  0.11684860420E+02  0.47664101248E+02  0.50000000000E+02  0.47000000000E+01 0. -1.
         -5    1    3    3    0  501 -0.83371151620E+01 -0.11684860420E+02 -0.47664101248E+02  0.50000000000E+02  0.47000000000E+01 0.  1.
</event>
<event>
 5    1  0.9081766E-001  0.1000000E+03  0.7546771E-02  0.1163815E+00
         11   -1    0    0    0    0  0.00000000000E+00  0.00000000000E+00  0.50000000000E+02  0.50000000000E+02  0.00000000000E+00 0. -1.
        -11   -1    0    0    0    0 -0.00000000000E+00 -0.00000000000E+00 -0.50000000000E+02  0.50000000000E+02  0.00000000000E+00 0.  1.
         23    2    1    2    0    0  0.00000000000E+00  0.00000000000E+00  0.00000000000E+00  0.10000000000E+03  0.10000000000E+03 0.  0.
          5    1    3    3  501    0 -0.30991568016E+02  0.38954177973E+02  0.68777914441E-01  0.50000000000E+02  0.47000000000E+01 0. -1.
         -5    1    3    3    0  501  0.30991568016E+02 -0.38954177973E+02 -0.68777914441E-01  0.50000000000E+02  0.47000000000E+01 0.  1.
</event>
<event>
 5    1  0.9081766E-001  0.1000000E+03  0.7546771E-02  0.1163815E+00
         11   -1    0    0    0    0  0.00000000000E+00  0.00000000000E+00  0.50000000000E+02  0.50000000000E+02  0.00000000000E+00 0.  1.
        -11   -1    0    0    0    0 -0.00000000000E+00 -0.00000000000E+00 -0.50000000000E+02  0.50000000000E+02  0.00000000000E+00 0. -1.
         23    2    1    2    0    0  0.00000000000E+00  0.00000000000E+00  0.00000000000E+00  0.10000000000E+03  0.10000000000E+03 0.  0.
          5    1    3    3  501    0  0.24387015111E+02 -0.42191141189E+02 -0.10153378707E+02  0.50000000000E+02  0.47000000000E+01 0. -1.
         -5    1    3    3    0  501 -0.24387015111E+02  0.42191141189E+02  0.10153378707E+02  0.50000000000E+02  0.47000000000E+01 0.  1.
</event>
<event>
 5    1  0.9081766E-001  0.1000000E+03  0.7546771E-02  0.1163815E+00
         11   -1    0    0    0    0  0.00000000000E+00  0.00000000000E+00  0.50000000000E+02  0.50000000000E+02  0.00000000000E+00 0. -1.
        -11   -1    0    0    0    0 -0.00000000000E+00 -0.00000000000E+00 -0.50000000000E+02  0.50000000000E+02  0.00000000000E+00 0.  1.
         23    2    1    2    0    0  0.00000000000E+00  0.00000000000E+00  0.00000000000E+00  0.10000000000E+03  0.10000000000E+03 0.  0.
          5    1    3    3  501    0  0.34703974019E+01 -0.23114032181E+02  0.43950060958E+02  0.50000000000E+02  0.47000000000E+01 0. -1.
         -5    1    3    3    0  501 -0.34703974019E+01  0.23114032181E+02 -0.43950060958E+02  0.50000000000E+02  0.47000000000E+01 0.  1.
</event>
<event>
 5    1  0.9081766E-001  0.1000000E+03  0.7546771E-02  0.1163815E+00
         11   -1    0    0    0    0  0.00000000000E+00  0.00000000000E+00  0.50000000000E+02  0.50000000000E+02  0.00000000000E+00 0. -1.
        -11   -1    0    0    0    0 -0.00000000000E+00 -0.00000000000E+00 -0.50000000000E+02  0.50000000000E+02  0.00000000000E+00 0.  1.
         23    2    1    2    0    0  0.00000000000E+00  0.00000000000E+00  0.00000000000E+00  0.10000000000E+03  0.10000000000E+03 0.  0.
          5    1    3    3  501    0 -0.23655671697E+02 -0.19336911652E+02  0.39298893678E+02  0.50000000000E+02  0.47000000000E+01 0. -1.
         -5    1    3    3    0  501  0.23655671697E+02  0.19336911652E+02 -0.39298893678E+02  0.50000000000E+02  0.47000000000E+01 0.  1.
</event>
<event>
 5    1  0.9081766E-001  0.1000000E+03  0.7546771E-02  0.1163815E+00
         11   -1    0    0    0    0  0.00000000000E+00  0.00000000000E+00  0.50000000000E+02  0.50000000000E+02  0.00000000000E+00 0.  1.
        -11   -1    0    0    0    0 -0.00000000000E+00 -0.00000000000E+00 -0.50000000000E+02  0.50000000000E+02  0.00000000000E+00 0. -1.
         23    2    1    2    0    0  0.00000000000E+00  0.00000000000E+00  0.00000000000E+00  0.10000000000E+03  0.10000000000E+03 0.  0.
          5    1    3    3  501    0 -0.86984230801E+01  0.48755851217E+02 -0.50114277403E+01  0.50000000000E+02  0.47000000000E+01 0. -1.
         -5    1    3    3    0  501  0.86984230801E+01 -0.48755851217E+02  0.50114277403E+01  0.50000000000E+02  0.47000000000E+01 0.  1.
</event>
<event>
 5    1  0.9081766E-001  0.1000000E+03  0.7546771E-02  0.1163815E+00
         11   -1    0    0    0    0  0.00000000000E+00  0.00000000000E+00  0.50000000000E+02  0.50000000000E+02  0.00000000000E+00 0. -1.
        -11   -1    0    0    0    0 -0.00000000000E+00 -0.00000000000E+00 -0.50000000000E+02  0.50000000000E+02  0.00000000000E+00 0.  1.
         23    2    1    2    0    0  0.00000000000E+00  0.00000000000E+00  0.00000000000E+00  0.10000000000E+03  0.10000000000E+03 0.  0.
          5    1    3    3  501    0 -0.22236480410E+02  0.83498939924E+01  0.43746179368E+02  0.50000000000E+02  0.47000000000E+01 0. -1.
         -5    1    3    3    0  501  0.22236480410E+02 -0.83498939924E+01 -0.43746179368E+02  0.50000000000E+02  0.47000000000E+01 0.  1.
</event>
<event>
 5    1  0.9081766E-001  0.1000000E+03  0.7546771E-02  0.1163815E+00
         11   -1    0    0    0    0  0.00000000000E+00  0.00000000000E+00  0.50000000000E+02  0.50000000000E+02  0.00000000000E+00 0. -1.
        -11   -1    0    0    0    0 -0.00000000000E+00 -0.00000000000E+00 -0.50000000000E+02  0.50000000000E+02  0.00000000000E+00 0.  1.
         23    2    1    2    0    0  0.00000000000E+00  0.00000000000E+00  0.00000000000E+00  0.10000000000E+03  0.10000000000E+03 0.  0.
          5    1    3    3  501    0  0.79611896488E+01 -0.46677262709E+02  0.15354563015E+02  0.50000000000E+02  0.47000000000E+01 0. -1.
         -5    1    3    3    0  501 -0.79611896488E+01  0.46677262709E+02 -0.15354563015E+02  0.50000000000E+02  0.47000000000E+01 0.  1.
</event>
<event>
 5    1  0.9081766E-001  0.1000000E+03  0.7546771E-02  0.1163815E+00
         11   -1    0    0    0    0  0.00000000000E+00  0.00000000000E+00  0.50000000000E+02  0.50000000000E+02  0.00000000000E+00 0. -1.
        -11   -1    0    0    0    0 -0.00000000000E+00 -0.00000000000E+00 -0.50000000000E+02  0.50000000000E+02  0.00000000000E+00 0.  1.
         23    2    1    2    0    0  0.00000000000E+00  0.00000000000E+00  0.00000000000E+00  0.10000000000E+03  0.10000000000E+03 0.  0.
          5    1    3    3  501    0  0.48907185854E+02  0.82830000185E+01  0.41700218903E+01  0.50000000000E+02  0.47000000000E+01 0. -1.
         -5    1    3    3    0  501 -0.48907185854E+02 -0.82830000185E+01 -0.41700218903E+01  0.50000000000E+02  0.47000000000E+01 0.  1.
</event>
<event>
 5    1  0.9081766E-001  0.1000000E+03  0.7546771E-02  0.1163815E+00
         11   -1    0    0    0    0  0.00000000000E+00  0.00000000000E+00  0.50000000000E+02  0.50000000000E+02  0.00000000000E+00 0. -1.
        -11   -1    0    0    0    0 -0.00000000000E+00 -0.00000000000E+00 -0.50000000000E+02  0.50000000000E+02  0.00000000000E+00 0.  1.
         23    2    1    2    0    0  0.00000000000E+00  0.00000000000E+00  0.00000000000E+00  0.10000000000E+03  0.10000000000E+03 0.  0.
          5    1    3    3  501    0 -0.29337055177E+02 -0.39272931004E+02  0.86535590301E+01  0.50000000000E+02  0.47000000000E+01 0. -1.
         -5    1    3    3    0  501  0.29337055177E+02  0.39272931004E+02 -0.86535590301E+01  0.50000000000E+02  0.47000000000E+01 0.  1.
</event>
<event>
 5    1  0.9081766E-001  0.1000000E+03  0.7546771E-02  0.1163815E+00
         11   -1    0    0    0    0  0.00000000000E+00  0.00000000000E+00  0.50000000000E+02  0.50000000000E+02  0.00000000000E+00 0. -1.
        -11   -1    0    0    0    0 -0.00000000000E+00 -0.00000000000E+00 -0.50000000000E+02  0.50000000000E+02  0.00000000000E+00 0.  1.
         23    2    1    2    0    0  0.00000000000E+00  0.00000000000E+00  0.00000000000E+00  0.10000000000E+03  0.10000000000E+03 0.  0.
          5    1    3    3  501    0 -0.33766122021E+02 -0.30002139654E+02  0.20919622842E+02  0.50000000000E+02  0.47000000000E+01 0. -1.
         -5    1    3    3    0  501  0.33766122021E+02  0.30002139654E+02 -0.20919622842E+02  0.50000000000E+02  0.47000000000E+01 0.  1.
</event>
<event>
 5    1  0.9081766E-001  0.1000000E+03  0.7546771E-02  0.1163815E+00
         11   -1    0    0    0    0  0.00000000000E+00  0.00000000000E+00  0.50000000000E+02  0.50000000000E+02  0.00000000000E+00 0. -1.
        -11   -1    0    0    0    0 -0.00000000000E+00 -0.00000000000E+00 -0.50000000000E+02  0.50000000000E+02  0.00000000000E+00 0.  1.
         23    2    1    2    0    0  0.00000000000E+00  0.00000000000E+00  0.00000000000E+00  0.10000000000E+03  0.10000000000E+03 0.  0.
          5    1    3    3  501    0 -0.39672563701E+02  0.22474788494E+02  0.19972019716E+02  0.50000000000E+02  0.47000000000E+01 0. -1.
         -5    1    3    3    0  501  0.39672563701E+02 -0.22474788494E+02 -0.19972019716E+02  0.50000000000E+02  0.47000000000E+01 0.  1.
</event>
<event>
 5    1  0.9081766E-001  0.1000000E+03  0.7546771E-02  0.1163815E+00
         11   -1    0    0    0    0  0.00000000000E+00  0.00000000000E+00  0.50000000000E+02  0.50000000000E+02  0.00000000000E+00 0.  1.
        -11   -1    0    0    0    0 -0.00000000000E+00 -0.00000000000E+00 -0.50000000000E+02  0.50000000000E+02  0.00000000000E+00 0. -1.
         23    2    1    2    0    0  0.00000000000E+00  0.00000000000E+00  0.00000000000E+00  0.10000000000E+03  0.10000000000E+03 0.  0.
          5    1    3    3  501    0 -0.23677509632E+01  0.30257030461E+02 -0.39456505966E+02  0.50000000000E+02  0.47000000000E+01 0. -1.
         -5    1    3    3    0  501  0.23677509632E+01 -0.30257030461E+02  0.39456505966E+02  0.50000000000E+02  0.47000000000E+01 0.  1.
</event>
<event>
 5    1  0.9081766E-001  0.1000000E+03  0.7546771E-02  0.1163815E+00
         11   -1    0    0    0    0  0.00000000000E+00  0.00000000000E+00  0.50000000000E+02  0.50000000000E+02  0.00000000000E+00 0. -1.
        -11   -1    0    0    0    0 -0.00000000000E+00 -0.00000000000E+00 -0.50000000000E+02  0.50000000000E+02  0.00000000000E+00 0.  1.
         23    2    1    2    0    0  0.00000000000E+00  0.00000000000E+00  0.00000000000E+00  0.10000000000E+03  0.10000000000E+03 0.  0.
          5    1    3    3  501    0 -0.26893131449E+02 -0.27426782253E+02  0.31661350194E+02  0.50000000000E+02  0.47000000000E+01 0. -1.
         -5    1    3    3    0  501  0.26893131449E+02  0.27426782253E+02 -0.31661350194E+02  0.50000000000E+02  0.47000000000E+01 0.  1.
</event>
<event>
 5    1  0.9081766E-001  0.1000000E+03  0.7546771E-02  0.1163815E+00
         11   -1    0    0    0    0  0.00000000000E+00  0.00000000000E+00  0.50000000000E+02  0.50000000000E+02  0.00000000000E+00 0.  1.
        -11   -1    0    0    0    0 -0.00000000000E+00 -0.00000000000E+00 -0.50000000000E+02  0.50000000000E+02  0.00000000000E+00 0. -1.
         23    2    1    2    0    0  0.00000000000E+00  0.00000000000E+00  0.00000000000E+00  0.10000000000E+03  0.10000000000E+03 0.  0.
          5    1    3    3  501    0  0.42036621066E+02  0.26438971616E+02 -0.34370436755E+01  0.50000000000E+02  0.47000000000E+01 0. -1.
         -5    1    3    3    0  501 -0.42036621066E+02 -0.26438971616E+02  0.34370436755E+01  0.50000000000E+02  0.47000000000E+01 0.  1.
</event>
<event>
 5    1  0.9081766E-001  0.1000000E+03  0.7546771E-02  0.1163815E+00
         11   -1    0    0    0    0  0.00000000000E+00  0.00000000000E+00  0.50000000000E+02  0.50000000000E+02  0.00000000000E+00 0. -1.
        -11   -1    0    0    0    0 -0.00000000000E+00 -0.00000000000E+00 -0.50000000000E+02  0.50000000000E+02  0.00000000000E+00 0.  1.
         23    2    1    2    0    0  0.00000000000E+00  0.00000000000E+00  0.00000000000E+00  0.10000000000E+03  0.10000000000E+03 0.  0.
          5    1    3    3  501    0  0.41856513789E+02  0.11811641121E+02  0.24216262872E+02  0.50000000000E+02  0.47000000000E+01 0. -1.
         -5    1    3    3    0  501 -0.41856513789E+02 -0.11811641121E+02 -0.24216262872E+02  0.50000000000E+02  0.47000000000E+01 0.  1.
</event>
<event>
 5    1  0.9081766E-001  0.1000000E+03  0.7546771E-02  0.1163815E+00
         11   -1    0    0    0    0  0.00000000000E+00  0.00000000000E+00  0.50000000000E+02  0.50000000000E+02  0.00000000000E+00 0. -1.
        -11   -1    0    0    0    0 -0.00000000000E+00 -0.00000000000E+00 -0.50000000000E+02  0.50000000000E+02  0.00000000000E+00 0.  1.
         23    2    1    2    0    0  0.00000000000E+00  0.00000000000E+00  0.00000000000E+00  0.10000000000E+03  0.10000000000E+03 0.  0.
          5    1    3    3  501    0 -0.17612736439E+02  0.37786105655E+02 -0.27201318618E+02  0.50000000000E+02  0.47000000000E+01 0. -1.
         -5    1    3    3    0  501  0.17612736439E+02 -0.37786105655E+02  0.27201318618E+02  0.50000000000E+02  0.47000000000E+01 0.  1.
</event>
<event>
 5    1  0.9081766E-001  0.1000000E+03  0.7546771E-02  0.1163815E+00
         11   -1    0    0    0    0  0.00000000000E+00  0.00000000000E+00  0.50000000000E+02  0.50000000000E+02  0.00000000000E+00 0.  1.
        -11   -1    0    0    0    0 -0.00000000000E+00 -0.00000000000E+00 -0.50000000000E+02  0.50000000000E+02  0.00000000000E+00 0. -1.
         23    2    1    2    0    0  0.00000000000E+00  0.00000000000E+00  0.00000000000E+00  0.10000000000E+03  0.10000000000E+03 0.  0.
          5    1    3    3  501    0 -0.21894027335E+02  0.34026187948E+02 -0.28996208387E+02  0.50000000000E+02  0.47000000000E+01 0. -1.
         -5    1    3    3    0  501  0.21894027335E+02 -0.34026187948E+02  0.28996208387E+02  0.50000000000E+02  0.47000000000E+01 0.  1.
</event>
<event>
 5    1  0.9081766E-001  0.1000000E+03  0.7546771E-02  0.1163815E+00
         11   -1    0    0    0    0  0.00000000000E+00  0.00000000000E+00  0.50000000000E+02  0.50000000000E+02  0.00000000000E+00 0. -1.
        -11   -1    0    0    0    0 -0.00000000000E+00 -0.00000000000E+00 -0.50000000000E+02  0.50000000000E+02  0.00000000000E+00 0.  1.
         23    2    1    2    0    0  0.00000000000E+00  0.00000000000E+00  0.00000000000E+00  0.10000000000E+03  0.10000000000E+03 0.  0.
          5    1    3    3  501    0  0.50793775864E+01  0.39174424825E+02  0.30289839270E+02  0.50000000000E+02  0.47000000000E+01 0. -1.
         -5    1    3    3    0  501 -0.50793775864E+01 -0.39174424825E+02 -0.30289839270E+02  0.50000000000E+02  0.47000000000E+01 0.  1.
</event>
<event>
 5    1  0.9081766E-001  0.1000000E+03  0.7546771E-02  0.1163815E+00
         11   -1    0    0    0    0  0.00000000000E+00  0.00000000000E+00  0.50000000000E+02  0.50000000000E+02  0.00000000000E+00 0.  1.
        -11   -1    0    0    0    0 -0.00000000000E+00 -0.00000000000E+00 -0.50000000000E+02  0.50000000000E+02  0.00000000000E+00 0. -1.
         23    2    1    2    0    0  0.00000000000E+00  0.00000000000E+00  0.00000000000E+00  0.10000000000E+03  0.10000000000E+03 0.  0.
          5    1    3    3  501    0  0.15617871006E+02 -0.30223182486E+02  0.36339391102E+02  0.50000000000E+02  0.47000000000E+01 0.  1.
         -5    1    3    3    0  501 -0.15617871006E+02  0.30223182486E+02 -0.36339391102E+02  0.50000000000E+02  0.47000000000E+01 0. -1.
</event>
<event>
 5    1  0.9081766E-001  0.1000000E+03  0.7546771E-02  0.1163815E+00
         11   -1    0    0    0    0  0.00000000000E+00  0.00000000000E+00  0.50000000000E+02  0.50000000000E+02  0.00000000000E+00 0. -1.
        -11   -1    0    0    0    0 -0.00000000000E+00 -0.00000000000E+00 -0.50000000000E+02  0.50000000000E+02  0.00000000000E+00 0.  1.
         23    2    1    2    0    0  0.00000000000E+00  0.00000000000E+00  0.00000000000E+00  0.10000000000E+03  0.10000000000E+03 0.  0.
          5    1    3    3  501    0  0.13139010546E+02  0.44733584352E+02  0.17440838078E+02  0.50000000000E+02  0.47000000000E+01 0. -1.
         -5    1    3    3    0  501 -0.13139010546E+02 -0.44733584352E+02 -0.17440838078E+02  0.50000000000E+02  0.47000000000E+01 0.  1.
</event>
<event>
 5    1  0.9081766E-001  0.1000000E+03  0.7546771E-02  0.1163815E+00
         11   -1    0    0    0    0  0.00000000000E+00  0.00000000000E+00  0.50000000000E+02  0.50000000000E+02  0.00000000000E+00 0. -1.
        -11   -1    0    0    0    0 -0.00000000000E+00 -0.00000000000E+00 -0.50000000000E+02  0.50000000000E+02  0.00000000000E+00 0.  1.
         23    2    1    2    0    0  0.00000000000E+00  0.00000000000E+00  0.00000000000E+00  0.10000000000E+03  0.10000000000E+03 0.  0.
          5    1    3    3  501    0 -0.68912218824E+01  0.17142005672E+02  0.46223075433E+02  0.50000000000E+02  0.47000000000E+01 0. -1.
         -5    1    3    3    0  501  0.68912218824E+01 -0.17142005672E+02 -0.46223075433E+02  0.50000000000E+02  0.47000000000E+01 0.  1.
</event>
<event>
 5    1  0.9081766E-001  0.1000000E+03  0.7546771E-02  0.1163815E+00
         11   -1    0    0    0    0  0.00000000000E+00  0.00000000000E+00  0.50000000000E+02  0.50000000000E+02  0.00000000000E+00 0.  1.
        -11   -1    0    0    0    0 -0.00000000000E+00 -0.00000000000E+00 -0.50000000000E+02  0.50000000000E+02  0.00000000000E+00 0. -1.
         23    2    1    2    0    0  0.00000000000E+00  0.00000000000E+00  0.00000000000E+00  0.10000000000E+03  0.10000000000E+03 0.  0.
          5    1    3    3  501    0  0.39229940955E+02 -0.29022226584E+02 -0.98301625995E+01  0.50000000000E+02  0.47000000000E+01 0.  1.
         -5    1    3    3    0  501 -0.39229940955E+02  0.29022226584E+02  0.98301625995E+01  0.50000000000E+02  0.47000000000E+01 0. -1.
</event>
<event>
 5    1  0.9081766E-001  0.1000000E+03  0.7546771E-02  0.1163815E+00
         11   -1    0    0    0    0  0.00000000000E+00  0.00000000000E+00  0.50000000000E+02  0.50000000000E+02  0.00000000000E+00 0. -1.
        -11   -1    0    0    0    0 -0.00000000000E+00 -0.00000000000E+00 -0.50000000000E+02  0.50000000000E+02  0.00000000000E+00 0.  1.
         23    2    1    2    0    0  0.00000000000E+00  0.00000000000E+00  0.00000000000E+00  0.10000000000E+03  0.10000000000E+03 0.  0.
          5    1    3    3  501    0 -0.22376699784E+02  0.10460876644E+01  0.44453335166E+02  0.50000000000E+02  0.47000000000E+01 0. -1.
         -5    1    3    3    0  501  0.22376699784E+02 -0.10460876644E+01 -0.44453335166E+02  0.50000000000E+02  0.47000000000E+01 0.  1.
</event>
<event>
 5    1  0.9081766E-001  0.1000000E+03  0.7546771E-02  0.1163815E+00
         11   -1    0    0    0    0  0.00000000000E+00  0.00000000000E+00  0.50000000000E+02  0.50000000000E+02  0.00000000000E+00 0. -1.
        -11   -1    0    0    0    0 -0.00000000000E+00 -0.00000000000E+00 -0.50000000000E+02  0.50000000000E+02  0.00000000000E+00 0.  1.
         23    2    1    2    0    0  0.00000000000E+00  0.00000000000E+00  0.00000000000E+00  0.10000000000E+03  0.10000000000E+03 0.  0.
          5    1    3    3  501    0  0.34596452579E+01 -0.13643159344E+02  0.47747304194E+02  0.50000000000E+02  0.47000000000E+01 0. -1.
         -5    1    3    3    0  501 -0.34596452579E+01  0.13643159344E+02 -0.47747304194E+02  0.50000000000E+02  0.47000000000E+01 0.  1.
</event>
<event>
 5    1  0.9081766E-001  0.1000000E+03  0.7546771E-02  0.1163815E+00
         11   -1    0    0    0    0  0.00000000000E+00  0.00000000000E+00  0.50000000000E+02  0.50000000000E+02  0.00000000000E+00 0. -1.
        -11   -1    0    0    0    0 -0.00000000000E+00 -0.00000000000E+00 -0.50000000000E+02  0.50000000000E+02  0.00000000000E+00 0.  1.
         23    2    1    2    0    0  0.00000000000E+00  0.00000000000E+00  0.00000000000E+00  0.10000000000E+03  0.10000000000E+03 0.  0.
          5    1    3    3  501    0  0.30750505581E+02 -0.34660029771E+02 -0.18193370847E+02  0.50000000000E+02  0.47000000000E+01 0. -1.
         -5    1    3    3    0  501 -0.30750505581E+02  0.34660029771E+02  0.18193370847E+02  0.50000000000E+02  0.47000000000E+01 0.  1.
</event>
<event>
 5    1  0.9081766E-001  0.1000000E+03  0.7546771E-02  0.1163815E+00
         11   -1    0    0    0    0  0.00000000000E+00  0.00000000000E+00  0.50000000000E+02  0.50000000000E+02  0.00000000000E+00 0. -1.
        -11   -1    0    0    0    0 -0.00000000000E+00 -0.00000000000E+00 -0.50000000000E+02  0.50000000000E+02  0.00000000000E+00 0.  1.
         23    2    1    2    0    0  0.00000000000E+00  0.00000000000E+00  0.00000000000E+00  0.10000000000E+03  0.10000000000E+03 0.  0.
          5    1    3    3  501    0  0.16034353396E+02 -0.60656587549E+00  0.47121561827E+02  0.50000000000E+02  0.47000000000E+01 0. -1.
         -5    1    3    3    0  501 -0.16034353396E+02  0.60656587549E+00 -0.47121561827E+02  0.50000000000E+02  0.47000000000E+01 0.  1.
</event>
<event>
 5    1  0.9081766E-001  0.1000000E+03  0.7546771E-02  0.1163815E+00
         11   -1    0    0    0    0  0.00000000000E+00  0.00000000000E+00  0.50000000000E+02  0.50000000000E+02  0.00000000000E+00 0. -1.
        -11   -1    0    0    0    0 -0.00000000000E+00 -0.00000000000E+00 -0.50000000000E+02  0.50000000000E+02  0.00000000000E+00 0.  1.
         23    2    1    2    0    0  0.00000000000E+00  0.00000000000E+00  0.00000000000E+00  0.10000000000E+03  0.10000000000E+03 0.  0.
          5    1    3    3  501    0 -0.21672852876E+01  0.27779841653E+02  0.41249160867E+02  0.50000000000E+02  0.47000000000E+01 0. -1.
         -5    1    3    3    0  501  0.21672852876E+01 -0.27779841653E+02 -0.41249160867E+02  0.50000000000E+02  0.47000000000E+01 0.  1.
</event>
<event>
 5    1  0.9081766E-001  0.1000000E+03  0.7546771E-02  0.1163815E+00
         11   -1    0    0    0    0  0.00000000000E+00  0.00000000000E+00  0.50000000000E+02  0.50000000000E+02  0.00000000000E+00 0. -1.
        -11   -1    0    0    0    0 -0.00000000000E+00 -0.00000000000E+00 -0.50000000000E+02  0.50000000000E+02  0.00000000000E+00 0.  1.
         23    2    1    2    0    0  0.00000000000E+00  0.00000000000E+00  0.00000000000E+00  0.10000000000E+03  0.10000000000E+03 0.  0.
          5    1    3    3  501    0 -0.19287718521E+02 -0.94159031361E+01  0.44913635818E+02  0.50000000000E+02  0.47000000000E+01 0. -1.
         -5    1    3    3    0  501  0.19287718521E+02  0.94159031361E+01 -0.44913635818E+02  0.50000000000E+02  0.47000000000E+01 0.  1.
</event>
<event>
 5    1  0.9081766E-001  0.1000000E+03  0.7546771E-02  0.1163815E+00
         11   -1    0    0    0    0  0.00000000000E+00  0.00000000000E+00  0.50000000000E+02  0.50000000000E+02  0.00000000000E+00 0. -1.
        -11   -1    0    0    0    0 -0.00000000000E+00 -0.00000000000E+00 -0.50000000000E+02  0.50000000000E+02  0.00000000000E+00 0.  1.
         23    2    1    2    0    0  0.00000000000E+00  0.00000000000E+00  0.00000000000E+00  0.10000000000E+03  0.10000000000E+03 0.  0.
          5    1    3    3  501    0  0.24624804469E+02  0.21424252699E+02  0.37583645394E+02  0.50000000000E+02  0.47000000000E+01 0. -1.
         -5    1    3    3    0  501 -0.24624804469E+02 -0.21424252699E+02 -0.37583645394E+02  0.50000000000E+02  0.47000000000E+01 0.  1.
</event>
<event>
 5    1  0.9081766E-001  0.1000000E+03  0.7546771E-02  0.1163815E+00
         11   -1    0    0    0    0  0.00000000000E+00  0.00000000000E+00  0.50000000000E+02  0.50000000000E+02  0.00000000000E+00 0.  1.
        -11   -1    0    0    0    0 -0.00000000000E+00 -0.00000000000E+00 -0.50000000000E+02  0.50000000000E+02  0.00000000000E+00 0. -1.
         23    2    1    2    0    0  0.00000000000E+00  0.00000000000E+00  0.00000000000E+00  0.10000000000E+03  0.10000000000E+03 0.  0.
          5    1    3    3  501    0 -0.43235072881E+02 -0.24242592723E+02 -0.45754968091E+01  0.50000000000E+02  0.47000000000E+01 0. -1.
         -5    1    3    3    0  501  0.43235072881E+02  0.24242592723E+02  0.45754968091E+01  0.50000000000E+02  0.47000000000E+01 0.  1.
</event>
<event>
 5    1  0.9081766E-001  0.1000000E+03  0.7546771E-02  0.1163815E+00
         11   -1    0    0    0    0  0.00000000000E+00  0.00000000000E+00  0.50000000000E+02  0.50000000000E+02  0.00000000000E+00 0. -1.
        -11   -1    0    0    0    0 -0.00000000000E+00 -0.00000000000E+00 -0.50000000000E+02  0.50000000000E+02  0.00000000000E+00 0.  1.
         23    2    1    2    0    0  0.00000000000E+00  0.00000000000E+00  0.00000000000E+00  0.10000000000E+03  0.10000000000E+03 0.  0.
          5    1    3    3  501    0  0.45406106414E+02  0.12941227448E+02  0.15770863403E+02  0.50000000000E+02  0.47000000000E+01 0. -1.
         -5    1    3    3    0  501 -0.45406106414E+02 -0.12941227448E+02 -0.15770863403E+02  0.50000000000E+02  0.47000000000E+01 0.  1.
</event>
<event>
 5    1  0.9081766E-001  0.1000000E+03  0.7546771E-02  0.1163815E+00
         11   -1    0    0    0    0  0.00000000000E+00  0.00000000000E+00  0.50000000000E+02  0.50000000000E+02  0.00000000000E+00 0.  1.
        -11   -1    0    0    0    0 -0.00000000000E+00 -0.00000000000E+00 -0.50000000000E+02  0.50000000000E+02  0.00000000000E+00 0. -1.
         23    2    1    2    0    0  0.00000000000E+00  0.00000000000E+00  0.00000000000E+00  0.10000000000E+03  0.10000000000E+03 0.  0.
          5    1    3    3  501    0  0.25115155943E+02  0.42727759139E+02 -0.46343867851E+01  0.50000000000E+02  0.47000000000E+01 0. -1.
         -5    1    3    3    0  501 -0.25115155943E+02 -0.42727759139E+02  0.46343867851E+01  0.50000000000E+02  0.47000000000E+01 0.  1.
</event>
<event>
 5    1  0.9081766E-001  0.1000000E+03  0.7546771E-02  0.1163815E+00
         11   -1    0    0    0    0  0.00000000000E+00  0.00000000000E+00  0.50000000000E+02  0.50000000000E+02  0.00000000000E+00 0. -1.
        -11   -1    0    0    0    0 -0.00000000000E+00 -0.00000000000E+00 -0.50000000000E+02  0.50000000000E+02  0.00000000000E+00 0.  1.
         23    2    1    2    0    0  0.00000000000E+00  0.00000000000E+00  0.00000000000E+00  0.10000000000E+03  0.10000000000E+03 0.  0.
          5    1    3    3  501    0 -0.46150410662E+02  0.76022758646E+01  0.17036871703E+02  0.50000000000E+02  0.47000000000E+01 0. -1.
         -5    1    3    3    0  501  0.46150410662E+02 -0.76022758646E+01 -0.17036871703E+02  0.50000000000E+02  0.47000000000E+01 0.  1.
</event>
<event>
 5    1  0.9081766E-001  0.1000000E+03  0.7546771E-02  0.1163815E+00
         11   -1    0    0    0    0  0.00000000000E+00  0.00000000000E+00  0.50000000000E+02  0.50000000000E+02  0.00000000000E+00 0.  1.
        -11   -1    0    0    0    0 -0.00000000000E+00 -0.00000000000E+00 -0.50000000000E+02  0.50000000000E+02  0.00000000000E+00 0. -1.
         23    2    1    2    0    0  0.00000000000E+00  0.00000000000E+00  0.00000000000E+00  0.10000000000E+03  0.10000000000E+03 0.  0.
          5    1    3    3  501    0 -0.46872177924E+01  0.27155590923E+02 -0.41454961959E+02  0.50000000000E+02  0.47000000000E+01 0. -1.
         -5    1    3    3    0  501  0.46872177924E+01 -0.27155590923E+02  0.41454961959E+02  0.50000000000E+02  0.47000000000E+01 0.  1.
</event>
<event>
 5    1  0.9081766E-001  0.1000000E+03  0.7546771E-02  0.1163815E+00
         11   -1    0    0    0    0  0.00000000000E+00  0.00000000000E+00  0.50000000000E+02  0.50000000000E+02  0.00000000000E+00 0.  1.
        -11   -1    0    0    0    0 -0.00000000000E+00 -0.00000000000E+00 -0.50000000000E+02  0.50000000000E+02  0.00000000000E+00 0. -1.
         23    2    1    2    0    0  0.00000000000E+00  0.00000000000E+00  0.00000000000E+00  0.10000000000E+03  0.10000000000E+03 0.  0.
          5    1    3    3  501    0  0.15980046808E+02 -0.16478905313E+02 -0.44170055283E+02  0.50000000000E+02  0.47000000000E+01 0. -1.
         -5    1    3    3    0  501 -0.15980046808E+02  0.16478905313E+02  0.44170055283E+02  0.50000000000E+02  0.47000000000E+01 0.  1.
</event>
<event>
 5    1  0.9081766E-001  0.1000000E+03  0.7546771E-02  0.1163815E+00
         11   -1    0    0    0    0  0.00000000000E+00  0.00000000000E+00  0.50000000000E+02  0.50000000000E+02  0.00000000000E+00 0. -1.
        -11   -1    0    0    0    0 -0.00000000000E+00 -0.00000000000E+00 -0.50000000000E+02  0.50000000000E+02  0.00000000000E+00 0.  1.
         23    2    1    2    0    0  0.00000000000E+00  0.00000000000E+00  0.00000000000E+00  0.10000000000E+03  0.10000000000E+03 0.  0.
          5    1    3    3  501    0  0.17419209730E+02 -0.40779232973E+02 -0.22617145941E+02  0.50000000000E+02  0.47000000000E+01 0. -1.
         -5    1    3    3    0  501 -0.17419209730E+02  0.40779232973E+02  0.22617145941E+02  0.50000000000E+02  0.47000000000E+01 0.  1.
</event>
<event>
 5    1  0.9081766E-001  0.1000000E+03  0.7546771E-02  0.1163815E+00
         11   -1    0    0    0    0  0.00000000000E+00  0.00000000000E+00  0.50000000000E+02  0.50000000000E+02  0.00000000000E+00 0. -1.
        -11   -1    0    0    0    0 -0.00000000000E+00 -0.00000000000E+00 -0.50000000000E+02  0.50000000000E+02  0.00000000000E+00 0.  1.
         23    2    1    2    0    0  0.00000000000E+00  0.00000000000E+00  0.00000000000E+00  0.10000000000E+03  0.10000000000E+03 0.  0.
          5    1    3    3  501    0 -0.43219270771E+02  0.17544865075E+02  0.17383392752E+02  0.50000000000E+02  0.47000000000E+01 0. -1.
         -5    1    3    3    0  501  0.43219270771E+02 -0.17544865075E+02 -0.17383392752E+02  0.50000000000E+02  0.47000000000E+01 0.  1.
</event>
<event>
 5    1  0.9081766E-001  0.1000000E+03  0.7546771E-02  0.1163815E+00
         11   -1    0    0    0    0  0.00000000000E+00  0.00000000000E+00  0.50000000000E+02  0.50000000000E+02  0.00000000000E+00 0. -1.
        -11   -1    0    0    0    0 -0.00000000000E+00 -0.00000000000E+00 -0.50000000000E+02  0.50000000000E+02  0.00000000000E+00 0.  1.
         23    2    1    2    0    0  0.00000000000E+00  0.00000000000E+00  0.00000000000E+00  0.10000000000E+03  0.10000000000E+03 0.  0.
          5    1    3    3  501    0 -0.45848365599E+02  0.19384225518E+02 -0.29861835558E+00  0.50000000000E+02  0.47000000000E+01 0. -1.
         -5    1    3    3    0  501  0.45848365599E+02 -0.19384225518E+02  0.29861835558E+00  0.50000000000E+02  0.47000000000E+01 0.  1.
</event>
<event>
 5    1  0.9081766E-001  0.1000000E+03  0.7546771E-02  0.1163815E+00
         11   -1    0    0    0    0  0.00000000000E+00  0.00000000000E+00  0.50000000000E+02  0.50000000000E+02  0.00000000000E+00 0. -1.
        -11   -1    0    0    0    0 -0.00000000000E+00 -0.00000000000E+00 -0.50000000000E+02  0.50000000000E+02  0.00000000000E+00 0.  1.
         23    2    1    2    0    0  0.00000000000E+00  0.00000000000E+00  0.00000000000E+00  0.10000000000E+03  0.10000000000E+03 0.  0.
          5    1    3    3  501    0  0.38306395318E+02 -0.15514017249E+02  0.27746087050E+02  0.50000000000E+02  0.47000000000E+01 0. -1.
         -5    1    3    3    0  501 -0.38306395318E+02  0.15514017249E+02 -0.27746087050E+02  0.50000000000E+02  0.47000000000E+01 0.  1.
</event>
<event>
 5    1  0.9081766E-001  0.1000000E+03  0.7546771E-02  0.1163815E+00
         11   -1    0    0    0    0  0.00000000000E+00  0.00000000000E+00  0.50000000000E+02  0.50000000000E+02  0.00000000000E+00 0. -1.
        -11   -1    0    0    0    0 -0.00000000000E+00 -0.00000000000E+00 -0.50000000000E+02  0.50000000000E+02  0.00000000000E+00 0.  1.
         23    2    1    2    0    0  0.00000000000E+00  0.00000000000E+00  0.00000000000E+00  0.10000000000E+03  0.10000000000E+03 0.  0.
          5    1    3    3  501    0 -0.49300926059E+02 -0.47718932523E+01 -0.49555750901E+01  0.50000000000E+02  0.47000000000E+01 0. -1.
         -5    1    3    3    0  501  0.49300926059E+02  0.47718932523E+01  0.49555750901E+01  0.50000000000E+02  0.47000000000E+01 0.  1.
</event>
<event>
 5    1  0.9081766E-001  0.1000000E+03  0.7546771E-02  0.1163815E+00
         11   -1    0    0    0    0  0.00000000000E+00  0.00000000000E+00  0.50000000000E+02  0.50000000000E+02  0.00000000000E+00 0.  1.
        -11   -1    0    0    0    0 -0.00000000000E+00 -0.00000000000E+00 -0.50000000000E+02  0.50000000000E+02  0.00000000000E+00 0. -1.
         23    2    1    2    0    0  0.00000000000E+00  0.00000000000E+00  0.00000000000E+00  0.10000000000E+03  0.10000000000E+03 0.  0.
          5    1    3    3  501    0 -0.43488169513E+02 -0.43561460763E+01 -0.23826730866E+02  0.50000000000E+02  0.47000000000E+01 0. -1.
         -5    1    3    3    0  501  0.43488169513E+02  0.43561460763E+01  0.23826730866E+02  0.50000000000E+02  0.47000000000E+01 0.  1.
</event>
<event>
 5    1  0.9081766E-001  0.1000000E+03  0.7546771E-02  0.1163815E+00
         11   -1    0    0    0    0  0.00000000000E+00  0.00000000000E+00  0.50000000000E+02  0.50000000000E+02  0.00000000000E+00 0. -1.
        -11   -1    0    0    0    0 -0.00000000000E+00 -0.00000000000E+00 -0.50000000000E+02  0.50000000000E+02  0.00000000000E+00 0.  1.
         23    2    1    2    0    0  0.00000000000E+00  0.00000000000E+00  0.00000000000E+00  0.10000000000E+03  0.10000000000E+03 0.  0.
          5    1    3    3  501    0 -0.49362951278E+02 -0.40665619805E+01  0.49671032554E+01  0.50000000000E+02  0.47000000000E+01 0. -1.
         -5    1    3    3    0  501  0.49362951278E+02  0.40665619805E+01 -0.49671032554E+01  0.50000000000E+02  0.47000000000E+01 0.  1.
</event>
<event>
 5    1  0.9081766E-001  0.1000000E+03  0.7546771E-02  0.1163815E+00
         11   -1    0    0    0    0  0.00000000000E+00  0.00000000000E+00  0.50000000000E+02  0.50000000000E+02  0.00000000000E+00 0. -1.
        -11   -1    0    0    0    0 -0.00000000000E+00 -0.00000000000E+00 -0.50000000000E+02  0.50000000000E+02  0.00000000000E+00 0.  1.
         23    2    1    2    0    0  0.00000000000E+00  0.00000000000E+00  0.00000000000E+00  0.10000000000E+03  0.10000000000E+03 0.  0.
          5    1    3    3  501    0 -0.16467613787E+02 -0.77096327337E+01  0.46338852589E+02  0.50000000000E+02  0.47000000000E+01 0. -1.
         -5    1    3    3    0  501  0.16467613787E+02  0.77096327337E+01 -0.46338852589E+02  0.50000000000E+02  0.47000000000E+01 0.  1.
</event>
<event>
 5    1  0.9081766E-001  0.1000000E+03  0.7546771E-02  0.1163815E+00
         11   -1    0    0    0    0  0.00000000000E+00  0.00000000000E+00  0.50000000000E+02  0.50000000000E+02  0.00000000000E+00 0. -1.
        -11   -1    0    0    0    0 -0.00000000000E+00 -0.00000000000E+00 -0.50000000000E+02  0.50000000000E+02  0.00000000000E+00 0.  1.
         23    2    1    2    0    0  0.00000000000E+00  0.00000000000E+00  0.00000000000E+00  0.10000000000E+03  0.10000000000E+03 0.  0.
          5    1    3    3  501    0  0.44062075069E+02  0.19053980923E+02 -0.13167739047E+02  0.50000000000E+02  0.47000000000E+01 0. -1.
         -5    1    3    3    0  501 -0.44062075069E+02 -0.19053980923E+02  0.13167739047E+02  0.50000000000E+02  0.47000000000E+01 0.  1.
</event>
<event>
 5    1  0.9081766E-001  0.1000000E+03  0.7546771E-02  0.1163815E+00
         11   -1    0    0    0    0  0.00000000000E+00  0.00000000000E+00  0.50000000000E+02  0.50000000000E+02  0.00000000000E+00 0.  1.
        -11   -1    0    0    0    0 -0.00000000000E+00 -0.00000000000E+00 -0.50000000000E+02  0.50000000000E+02  0.00000000000E+00 0. -1.
         23    2    1    2    0    0  0.00000000000E+00  0.00000000000E+00  0.00000000000E+00  0.10000000000E+03  0.10000000000E+03 0.  0.
          5    1    3    3  501    0 -0.65744326110E+01  0.22530161339E+02 -0.43898504142E+02  0.50000000000E+02  0.47000000000E+01 0. -1.
         -5    1    3    3    0  501  0.65744326110E+01 -0.22530161339E+02  0.43898504142E+02  0.50000000000E+02  0.47000000000E+01 0.  1.
</event>
<event>
 5    1  0.9081766E-001  0.1000000E+03  0.7546771E-02  0.1163815E+00
         11   -1    0    0    0    0  0.00000000000E+00  0.00000000000E+00  0.50000000000E+02  0.50000000000E+02  0.00000000000E+00 0. -1.
        -11   -1    0    0    0    0 -0.00000000000E+00 -0.00000000000E+00 -0.50000000000E+02  0.50000000000E+02  0.00000000000E+00 0.  1.
         23    2    1    2    0    0  0.00000000000E+00  0.00000000000E+00  0.00000000000E+00  0.10000000000E+03  0.10000000000E+03 0.  0.
          5    1    3    3  501    0 -0.22832639648E+02  0.20705878016E+02  0.39087685814E+02  0.50000000000E+02  0.47000000000E+01 0. -1.
         -5    1    3    3    0  501  0.22832639648E+02 -0.20705878016E+02 -0.39087685814E+02  0.50000000000E+02  0.47000000000E+01 0.  1.
</event>
<event>
 5    1  0.9081766E-001  0.1000000E+03  0.7546771E-02  0.1163815E+00
         11   -1    0    0    0    0  0.00000000000E+00  0.00000000000E+00  0.50000000000E+02  0.50000000000E+02  0.00000000000E+00 0. -1.
        -11   -1    0    0    0    0 -0.00000000000E+00 -0.00000000000E+00 -0.50000000000E+02  0.50000000000E+02  0.00000000000E+00 0.  1.
         23    2    1    2    0    0  0.00000000000E+00  0.00000000000E+00  0.00000000000E+00  0.10000000000E+03  0.10000000000E+03 0.  0.
          5    1    3    3  501    0  0.43285249352E+02 -0.22031877930E+02 -0.10903831594E+02  0.50000000000E+02  0.47000000000E+01 0. -1.
         -5    1    3    3    0  501 -0.43285249352E+02  0.22031877930E+02  0.10903831594E+02  0.50000000000E+02  0.47000000000E+01 0.  1.
</event>
<event>
 5    1  0.9081766E-001  0.1000000E+03  0.7546771E-02  0.1163815E+00
         11   -1    0    0    0    0  0.00000000000E+00  0.00000000000E+00  0.50000000000E+02  0.50000000000E+02  0.00000000000E+00 0.  1.
        -11   -1    0    0    0    0 -0.00000000000E+00 -0.00000000000E+00 -0.50000000000E+02  0.50000000000E+02  0.00000000000E+00 0. -1.
         23    2    1    2    0    0  0.00000000000E+00  0.00000000000E+00  0.00000000000E+00  0.10000000000E+03  0.10000000000E+03 0.  0.
          5    1    3    3  501    0 -0.37955230930E+02  0.13716039336E+02 -0.29140705379E+02  0.50000000000E+02  0.47000000000E+01 0. -1.
         -5    1    3    3    0  501  0.37955230930E+02 -0.13716039336E+02  0.29140705379E+02  0.50000000000E+02  0.47000000000E+01 0.  1.
</event>
<event>
 5    1  0.9081766E-001  0.1000000E+03  0.7546771E-02  0.1163815E+00
         11   -1    0    0    0    0  0.00000000000E+00  0.00000000000E+00  0.50000000000E+02  0.50000000000E+02  0.00000000000E+00 0. -1.
        -11   -1    0    0    0    0 -0.00000000000E+00 -0.00000000000E+00 -0.50000000000E+02  0.50000000000E+02  0.00000000000E+00 0.  1.
         23    2    1    2    0    0  0.00000000000E+00  0.00000000000E+00  0.00000000000E+00  0.10000000000E+03  0.10000000000E+03 0.  0.
          5    1    3    3  501    0  0.43089159759E+02  0.24876733386E+02 -0.15435178337E+01  0.50000000000E+02  0.47000000000E+01 0. -1.
         -5    1    3    3    0  501 -0.43089159759E+02 -0.24876733386E+02  0.15435178337E+01  0.50000000000E+02  0.47000000000E+01 0.  1.
</event>
<event>
 5    1  0.9081766E-001  0.1000000E+03  0.7546771E-02  0.1163815E+00
         11   -1    0    0    0    0  0.00000000000E+00  0.00000000000E+00  0.50000000000E+02  0.50000000000E+02  0.00000000000E+00 0. -1.
        -11   -1    0    0    0    0 -0.00000000000E+00 -0.00000000000E+00 -0.50000000000E+02  0.50000000000E+02  0.00000000000E+00 0.  1.
         23    2    1    2    0    0  0.00000000000E+00  0.00000000000E+00  0.00000000000E+00  0.10000000000E+03  0.10000000000E+03 0.  0.
          5    1    3    3  501    0  0.47648991037E+02  0.37905479023E+01  0.13896596698E+02  0.50000000000E+02  0.47000000000E+01 0. -1.
         -5    1    3    3    0  501 -0.47648991037E+02 -0.37905479023E+01 -0.13896596698E+02  0.50000000000E+02  0.47000000000E+01 0.  1.
</event>
<event>
 5    1  0.9081766E-001  0.1000000E+03  0.7546771E-02  0.1163815E+00
         11   -1    0    0    0    0  0.00000000000E+00  0.00000000000E+00  0.50000000000E+02  0.50000000000E+02  0.00000000000E+00 0. -1.
        -11   -1    0    0    0    0 -0.00000000000E+00 -0.00000000000E+00 -0.50000000000E+02  0.50000000000E+02  0.00000000000E+00 0.  1.
         23    2    1    2    0    0  0.00000000000E+00  0.00000000000E+00  0.00000000000E+00  0.10000000000E+03  0.10000000000E+03 0.  0.
          5    1    3    3  501    0  0.13701291112E+02  0.18548595717E+01  0.47819913402E+02  0.50000000000E+02  0.47000000000E+01 0. -1.
         -5    1    3    3    0  501 -0.13701291112E+02 -0.18548595717E+01 -0.47819913402E+02  0.50000000000E+02  0.47000000000E+01 0.  1.
</event>
<event>
 5    1  0.9081766E-001  0.1000000E+03  0.7546771E-02  0.1163815E+00
         11   -1    0    0    0    0  0.00000000000E+00  0.00000000000E+00  0.50000000000E+02  0.50000000000E+02  0.00000000000E+00 0. -1.
        -11   -1    0    0    0    0 -0.00000000000E+00 -0.00000000000E+00 -0.50000000000E+02  0.50000000000E+02  0.00000000000E+00 0.  1.
         23    2    1    2    0    0  0.00000000000E+00  0.00000000000E+00  0.00000000000E+00  0.10000000000E+03  0.10000000000E+03 0.  0.
          5    1    3    3  501    0 -0.23851912594E+02  0.30743242262E+02  0.31045922773E+02  0.50000000000E+02  0.47000000000E+01 0. -1.
         -5    1    3    3    0  501  0.23851912594E+02 -0.30743242262E+02 -0.31045922773E+02  0.50000000000E+02  0.47000000000E+01 0.  1.
</event>
<event>
 5    1  0.9081766E-001  0.1000000E+03  0.7546771E-02  0.1163815E+00
         11   -1    0    0    0    0  0.00000000000E+00  0.00000000000E+00  0.50000000000E+02  0.50000000000E+02  0.00000000000E+00 0. -1.
        -11   -1    0    0    0    0 -0.00000000000E+00 -0.00000000000E+00 -0.50000000000E+02  0.50000000000E+02  0.00000000000E+00 0.  1.
         23    2    1    2    0    0  0.00000000000E+00  0.00000000000E+00  0.00000000000E+00  0.10000000000E+03  0.10000000000E+03 0.  0.
          5    1    3    3  501    0 -0.31497359539E+02  0.47910968976E+01  0.38247506227E+02  0.50000000000E+02  0.47000000000E+01 0. -1.
         -5    1    3    3    0  501  0.31497359539E+02 -0.47910968976E+01 -0.38247506227E+02  0.50000000000E+02  0.47000000000E+01 0.  1.
</event>
<event>
 5    1  0.9081766E-001  0.1000000E+03  0.7546771E-02  0.1163815E+00
         11   -1    0    0    0    0  0.00000000000E+00  0.00000000000E+00  0.50000000000E+02  0.50000000000E+02  0.00000000000E+00 0.  1.
        -11   -1    0    0    0    0 -0.00000000000E+00 -0.00000000000E+00 -0.50000000000E+02  0.50000000000E+02  0.00000000000E+00 0. -1.
         23    2    1    2    0    0  0.00000000000E+00  0.00000000000E+00  0.00000000000E+00  0.10000000000E+03  0.10000000000E+03 0.  0.
          5    1    3    3  501    0 -0.16362816562E+02  0.40370211946E+01 -0.46838773405E+02  0.50000000000E+02  0.47000000000E+01 0. -1.
         -5    1    3    3    0  501  0.16362816562E+02 -0.40370211946E+01  0.46838773405E+02  0.50000000000E+02  0.47000000000E+01 0.  1.
</event>
<event>
 5    1  0.9081766E-001  0.1000000E+03  0.7546771E-02  0.1163815E+00
         11   -1    0    0    0    0  0.00000000000E+00  0.00000000000E+00  0.50000000000E+02  0.50000000000E+02  0.00000000000E+00 0.  1.
        -11   -1    0    0    0    0 -0.00000000000E+00 -0.00000000000E+00 -0.50000000000E+02  0.50000000000E+02  0.00000000000E+00 0. -1.
         23    2    1    2    0    0  0.00000000000E+00  0.00000000000E+00  0.00000000000E+00  0.10000000000E+03  0.10000000000E+03 0.  0.
          5    1    3    3  501    0  0.31446712732E+02 -0.51689974380E+01 -0.38239975469E+02  0.50000000000E+02  0.47000000000E+01 0. -1.
         -5    1    3    3    0  501 -0.31446712732E+02  0.51689974380E+01  0.38239975469E+02  0.50000000000E+02  0.47000000000E+01 0.  1.
</event>
<event>
 5    1  0.9081766E-001  0.1000000E+03  0.7546771E-02  0.1163815E+00
         11   -1    0    0    0    0  0.00000000000E+00  0.00000000000E+00  0.50000000000E+02  0.50000000000E+02  0.00000000000E+00 0. -1.
        -11   -1    0    0    0    0 -0.00000000000E+00 -0.00000000000E+00 -0.50000000000E+02  0.50000000000E+02  0.00000000000E+00 0.  1.
         23    2    1    2    0    0  0.00000000000E+00  0.00000000000E+00  0.00000000000E+00  0.10000000000E+03  0.10000000000E+03 0.  0.
          5    1    3    3  501    0  0.46915235206E+02  0.15567410951E+02  0.58759188070E+01  0.50000000000E+02  0.47000000000E+01 0. -1.
         -5    1    3    3    0  501 -0.46915235206E+02 -0.15567410951E+02 -0.58759188070E+01  0.50000000000E+02  0.47000000000E+01 0.  1.
</event>
<event>
 5    1  0.9081766E-001  0.1000000E+03  0.7546771E-02  0.1163815E+00
         11   -1    0    0    0    0  0.00000000000E+00  0.00000000000E+00  0.50000000000E+02  0.50000000000E+02  0.00000000000E+00 0. -1.
        -11   -1    0    0    0    0 -0.00000000000E+00 -0.00000000000E+00 -0.50000000000E+02  0.50000000000E+02  0.00000000000E+00 0.  1.
         23    2    1    2    0    0  0.00000000000E+00  0.00000000000E+00  0.00000000000E+00  0.10000000000E+03  0.10000000000E+03 0.  0.
          5    1    3    3  501    0 -0.64428610931E+01 -0.65588714361E+01  0.48922190736E+02  0.50000000000E+02  0.47000000000E+01 0. -1.
         -5    1    3    3    0  501  0.64428610931E+01  0.65588714361E+01 -0.48922190736E+02  0.50000000000E+02  0.47000000000E+01 0.  1.
</event>
<event>
 5    1  0.9081766E-001  0.1000000E+03  0.7546771E-02  0.1163815E+00
         11   -1    0    0    0    0  0.00000000000E+00  0.00000000000E+00  0.50000000000E+02  0.50000000000E+02  0.00000000000E+00 0. -1.
        -11   -1    0    0    0    0 -0.00000000000E+00 -0.00000000000E+00 -0.50000000000E+02  0.50000000000E+02  0.00000000000E+00 0.  1.
         23    2    1    2    0    0  0.00000000000E+00  0.00000000000E+00  0.00000000000E+00  0.10000000000E+03  0.10000000000E+03 0.  0.
          5    1    3    3  501    0  0.41725742975E+02  0.25923896835E+02  0.80513319420E+01  0.50000000000E+02  0.47000000000E+01 0. -1.
         -5    1    3    3    0  501 -0.41725742975E+02 -0.25923896835E+02 -0.80513319420E+01  0.50000000000E+02  0.47000000000E+01 0.  1.
</event>
<event>
 5    1  0.9081766E-001  0.1000000E+03  0.7546771E-02  0.1163815E+00
         11   -1    0    0    0    0  0.00000000000E+00  0.00000000000E+00  0.50000000000E+02  0.50000000000E+02  0.00000000000E+00 0.  1.
        -11   -1    0    0    0    0 -0.00000000000E+00 -0.00000000000E+00 -0.50000000000E+02  0.50000000000E+02  0.00000000000E+00 0. -1.
         23    2    1    2    0    0  0.00000000000E+00  0.00000000000E+00  0.00000000000E+00  0.10000000000E+03  0.10000000000E+03 0.  0.
          5    1    3    3  501    0  0.24860258350E+02 -0.42410920501E+02 -0.78224917391E+01  0.50000000000E+02  0.47000000000E+01 0. -1.
         -5    1    3    3    0  501 -0.24860258350E+02  0.42410920501E+02  0.78224917391E+01  0.50000000000E+02  0.47000000000E+01 0.  1.
</event>
<event>
 5    1  0.9081766E-001  0.1000000E+03  0.7546771E-02  0.1163815E+00
         11   -1    0    0    0    0  0.00000000000E+00  0.00000000000E+00  0.50000000000E+02  0.50000000000E+02  0.00000000000E+00 0. -1.
        -11   -1    0    0    0    0 -0.00000000000E+00 -0.00000000000E+00 -0.50000000000E+02  0.50000000000E+02  0.00000000000E+00 0.  1.
         23    2    1    2    0    0  0.00000000000E+00  0.00000000000E+00  0.00000000000E+00  0.10000000000E+03  0.10000000000E+03 0.  0.
          5    1    3    3  501    0  0.26803971172E+02  0.14314111523E+02  0.39427951262E+02  0.50000000000E+02  0.47000000000E+01 0. -1.
         -5    1    3    3    0  501 -0.26803971172E+02 -0.14314111523E+02 -0.39427951262E+02  0.50000000000E+02  0.47000000000E+01 0.  1.
</event>
<event>
 5    1  0.9081766E-001  0.1000000E+03  0.7546771E-02  0.1163815E+00
         11   -1    0    0    0    0  0.00000000000E+00  0.00000000000E+00  0.50000000000E+02  0.50000000000E+02  0.00000000000E+00 0.  1.
        -11   -1    0    0    0    0 -0.00000000000E+00 -0.00000000000E+00 -0.50000000000E+02  0.50000000000E+02  0.00000000000E+00 0. -1.
         23    2    1    2    0    0  0.00000000000E+00  0.00000000000E+00  0.00000000000E+00  0.10000000000E+03  0.10000000000E+03 0.  0.
          5    1    3    3  501    0 -0.18687601340E+02 -0.44446293921E+02  0.12377823431E+02  0.50000000000E+02  0.47000000000E+01 0. -1.
         -5    1    3    3    0  501  0.18687601340E+02  0.44446293921E+02 -0.12377823431E+02  0.50000000000E+02  0.47000000000E+01 0.  1.
</event>
<event>
 5    1  0.9081766E-001  0.1000000E+03  0.7546771E-02  0.1163815E+00
         11   -1    0    0    0    0  0.00000000000E+00  0.00000000000E+00  0.50000000000E+02  0.50000000000E+02  0.00000000000E+00 0. -1.
        -11   -1    0    0    0    0 -0.00000000000E+00 -0.00000000000E+00 -0.50000000000E+02  0.50000000000E+02  0.00000000000E+00 0.  1.
         23    2    1    2    0    0  0.00000000000E+00  0.00000000000E+00  0.00000000000E+00  0.10000000000E+03  0.10000000000E+03 0.  0.
          5    1    3    3  501    0 -0.39747554621E+01 -0.38221965813E+02  0.31641628409E+02  0.50000000000E+02  0.47000000000E+01 0.  1.
         -5    1    3    3    0  501  0.39747554621E+01  0.38221965813E+02 -0.31641628409E+02  0.50000000000E+02  0.47000000000E+01 0.  1.
</event>
<event>
 5    1  0.9081766E-001  0.1000000E+03  0.7546771E-02  0.1163815E+00
         11   -1    0    0    0    0  0.00000000000E+00  0.00000000000E+00  0.50000000000E+02  0.50000000000E+02  0.00000000000E+00 0.  1.
        -11   -1    0    0    0    0 -0.00000000000E+00 -0.00000000000E+00 -0.50000000000E+02  0.50000000000E+02  0.00000000000E+00 0. -1.
         23    2    1    2    0    0  0.00000000000E+00  0.00000000000E+00  0.00000000000E+00  0.10000000000E+03  0.10000000000E+03 0.  0.
          5    1    3    3  501    0 -0.23657511831E+02  0.17928721000E+02 -0.39959893609E+02  0.50000000000E+02  0.47000000000E+01 0. -1.
         -5    1    3    3    0  501  0.23657511831E+02 -0.17928721000E+02  0.39959893609E+02  0.50000000000E+02  0.47000000000E+01 0.  1.
</event>
<event>
 5    1  0.9081766E-001  0.1000000E+03  0.7546771E-02  0.1163815E+00
         11   -1    0    0    0    0  0.00000000000E+00  0.00000000000E+00  0.50000000000E+02  0.50000000000E+02  0.00000000000E+00 0.  1.
        -11   -1    0    0    0    0 -0.00000000000E+00 -0.00000000000E+00 -0.50000000000E+02  0.50000000000E+02  0.00000000000E+00 0. -1.
         23    2    1    2    0    0  0.00000000000E+00  0.00000000000E+00  0.00000000000E+00  0.10000000000E+03  0.10000000000E+03 0.  0.
          5    1    3    3  501    0  0.19458740430E+02  0.18039655107E+02 -0.42116959346E+02  0.50000000000E+02  0.47000000000E+01 0. -1.
         -5    1    3    3    0  501 -0.19458740430E+02 -0.18039655107E+02  0.42116959346E+02  0.50000000000E+02  0.47000000000E+01 0.  1.
</event>
<event>
 5    1  0.9081766E-001  0.1000000E+03  0.7546771E-02  0.1163815E+00
         11   -1    0    0    0    0  0.00000000000E+00  0.00000000000E+00  0.50000000000E+02  0.50000000000E+02  0.00000000000E+00 0. -1.
        -11   -1    0    0    0    0 -0.00000000000E+00 -0.00000000000E+00 -0.50000000000E+02  0.50000000000E+02  0.00000000000E+00 0.  1.
         23    2    1    2    0    0  0.00000000000E+00  0.00000000000E+00  0.00000000000E+00  0.10000000000E+03  0.10000000000E+03 0.  0.
          5    1    3    3  501    0 -0.47317359419E+02 -0.11781312982E+02 -0.10008904137E+02  0.50000000000E+02  0.47000000000E+01 0. -1.
         -5    1    3    3    0  501  0.47317359419E+02  0.11781312982E+02  0.10008904137E+02  0.50000000000E+02  0.47000000000E+01 0.  1.
</event>
<event>
 5    1  0.9081766E-001  0.1000000E+03  0.7546771E-02  0.1163815E+00
         11   -1    0    0    0    0  0.00000000000E+00  0.00000000000E+00  0.50000000000E+02  0.50000000000E+02  0.00000000000E+00 0. -1.
        -11   -1    0    0    0    0 -0.00000000000E+00 -0.00000000000E+00 -0.50000000000E+02  0.50000000000E+02  0.00000000000E+00 0.  1.
         23    2    1    2    0    0  0.00000000000E+00  0.00000000000E+00  0.00000000000E+00  0.10000000000E+03  0.10000000000E+03 0.  0.
          5    1    3    3  501    0  0.42303401069E+02 -0.31290872768E+01  0.26048820911E+02  0.50000000000E+02  0.47000000000E+01 0. -1.
         -5    1    3    3    0  501 -0.42303401069E+02  0.31290872768E+01 -0.26048820911E+02  0.50000000000E+02  0.47000000000E+01 0.  1.
</event>
<event>
 5    1  0.9081766E-001  0.1000000E+03  0.7546771E-02  0.1163815E+00
         11   -1    0    0    0    0  0.00000000000E+00  0.00000000000E+00  0.50000000000E+02  0.50000000000E+02  0.00000000000E+00 0. -1.
        -11   -1    0    0    0    0 -0.00000000000E+00 -0.00000000000E+00 -0.50000000000E+02  0.50000000000E+02  0.00000000000E+00 0.  1.
         23    2    1    2    0    0  0.00000000000E+00  0.00000000000E+00  0.00000000000E+00  0.10000000000E+03  0.10000000000E+03 0.  0.
          5    1    3    3  501    0 -0.69502729531E+00 -0.49693810941E+02  0.28199452572E+01  0.50000000000E+02  0.47000000000E+01 0. -1.
         -5    1    3    3    0  501  0.69502729531E+00  0.49693810941E+02 -0.28199452572E+01  0.50000000000E+02  0.47000000000E+01 0.  1.
</event>
<event>
 5    1  0.9081766E-001  0.1000000E+03  0.7546771E-02  0.1163815E+00
         11   -1    0    0    0    0  0.00000000000E+00  0.00000000000E+00  0.50000000000E+02  0.50000000000E+02  0.00000000000E+00 0. -1.
        -11   -1    0    0    0    0 -0.00000000000E+00 -0.00000000000E+00 -0.50000000000E+02  0.50000000000E+02  0.00000000000E+00 0.  1.
         23    2    1    2    0    0  0.00000000000E+00  0.00000000000E+00  0.00000000000E+00  0.10000000000E+03  0.10000000000E+03 0.  0.
          5    1    3    3  501    0  0.37512448402E+01 -0.35032487307E+02  0.35164797671E+02  0.50000000000E+02  0.47000000000E+01 0. -1.
         -5    1    3    3    0  501 -0.37512448402E+01  0.35032487307E+02 -0.35164797671E+02  0.50000000000E+02  0.47000000000E+01 0.  1.
</event>
<event>
 5    1  0.9081766E-001  0.1000000E+03  0.7546771E-02  0.1163815E+00
         11   -1    0    0    0    0  0.00000000000E+00  0.00000000000E+00  0.50000000000E+02  0.50000000000E+02  0.00000000000E+00 0. -1.
        -11   -1    0    0    0    0 -0.00000000000E+00 -0.00000000000E+00 -0.50000000000E+02  0.50000000000E+02  0.00000000000E+00 0.  1.
         23    2    1    2    0    0  0.00000000000E+00  0.00000000000E+00  0.00000000000E+00  0.10000000000E+03  0.10000000000E+03 0.  0.
          5    1    3    3  501    0 -0.48568299641E+02 -0.11954716653E+01  0.10844404892E+02  0.50000000000E+02  0.47000000000E+01 0. -1.
         -5    1    3    3    0  501  0.48568299641E+02  0.11954716653E+01 -0.10844404892E+02  0.50000000000E+02  0.47000000000E+01 0.  1.
</event>
<event>
 5    1  0.9081766E-001  0.1000000E+03  0.7546771E-02  0.1163815E+00
         11   -1    0    0    0    0  0.00000000000E+00  0.00000000000E+00  0.50000000000E+02  0.50000000000E+02  0.00000000000E+00 0. -1.
        -11   -1    0    0    0    0 -0.00000000000E+00 -0.00000000000E+00 -0.50000000000E+02  0.50000000000E+02  0.00000000000E+00 0.  1.
         23    2    1    2    0    0  0.00000000000E+00  0.00000000000E+00  0.00000000000E+00  0.10000000000E+03  0.10000000000E+03 0.  0.
          5    1    3    3  501    0 -0.29051744645E+02  0.32820146100E+02  0.23595426316E+02  0.50000000000E+02  0.47000000000E+01 0. -1.
         -5    1    3    3    0  501  0.29051744645E+02 -0.32820146100E+02 -0.23595426316E+02  0.50000000000E+02  0.47000000000E+01 0.  1.
</event>
<event>
 5    1  0.9081766E-001  0.1000000E+03  0.7546771E-02  0.1163815E+00
         11   -1    0    0    0    0  0.00000000000E+00  0.00000000000E+00  0.50000000000E+02  0.50000000000E+02  0.00000000000E+00 0. -1.
        -11   -1    0    0    0    0 -0.00000000000E+00 -0.00000000000E+00 -0.50000000000E+02  0.50000000000E+02  0.00000000000E+00 0.  1.
         23    2    1    2    0    0  0.00000000000E+00  0.00000000000E+00  0.00000000000E+00  0.10000000000E+03  0.10000000000E+03 0.  0.
          5    1    3    3  501    0  0.11392522608E+02  0.47116233725E+02  0.11321702531E+02  0.50000000000E+02  0.47000000000E+01 0. -1.
         -5    1    3    3    0  501 -0.11392522608E+02 -0.47116233725E+02 -0.11321702531E+02  0.50000000000E+02  0.47000000000E+01 0.  1.
</event>
<event>
 5    1  0.9081766E-001  0.1000000E+03  0.7546771E-02  0.1163815E+00
         11   -1    0    0    0    0  0.00000000000E+00  0.00000000000E+00  0.50000000000E+02  0.50000000000E+02  0.00000000000E+00 0.  1.
        -11   -1    0    0    0    0 -0.00000000000E+00 -0.00000000000E+00 -0.50000000000E+02  0.50000000000E+02  0.00000000000E+00 0. -1.
         23    2    1    2    0    0  0.00000000000E+00  0.00000000000E+00  0.00000000000E+00  0.10000000000E+03  0.10000000000E+03 0.  0.
          5    1    3    3  501    0 -0.42471809296E+02 -0.24498452963E+02 -0.85954184007E+01  0.50000000000E+02  0.47000000000E+01 0. -1.
         -5    1    3    3    0  501  0.42471809296E+02  0.24498452963E+02  0.85954184007E+01  0.50000000000E+02  0.47000000000E+01 0.  1.
</event>
<event>
 5    1  0.9081766E-001  0.1000000E+03  0.7546771E-02  0.1163815E+00
         11   -1    0    0    0    0  0.00000000000E+00  0.00000000000E+00  0.50000000000E+02  0.50000000000E+02  0.00000000000E+00 0. -1.
        -11   -1    0    0    0    0 -0.00000000000E+00 -0.00000000000E+00 -0.50000000000E+02  0.50000000000E+02  0.00000000000E+00 0.  1.
         23    2    1    2    0    0  0.00000000000E+00  0.00000000000E+00  0.00000000000E+00  0.10000000000E+03  0.10000000000E+03 0.  0.
          5    1    3    3  501    0 -0.18421417625E+02 -0.41232633452E+02  0.20938751426E+02  0.50000000000E+02  0.47000000000E+01 0. -1.
         -5    1    3    3    0  501  0.18421417625E+02  0.41232633452E+02 -0.20938751426E+02  0.50000000000E+02  0.47000000000E+01 0.  1.
</event>
<event>
 5    1  0.9081766E-001  0.1000000E+03  0.7546771E-02  0.1163815E+00
         11   -1    0    0    0    0  0.00000000000E+00  0.00000000000E+00  0.50000000000E+02  0.50000000000E+02  0.00000000000E+00 0. -1.
        -11   -1    0    0    0    0 -0.00000000000E+00 -0.00000000000E+00 -0.50000000000E+02  0.50000000000E+02  0.00000000000E+00 0.  1.
         23    2    1    2    0    0  0.00000000000E+00  0.00000000000E+00  0.00000000000E+00  0.10000000000E+03  0.10000000000E+03 0.  0.
          5    1    3    3  501    0  0.10720425795E+02  0.35198983367E+02  0.33526318627E+02  0.50000000000E+02  0.47000000000E+01 0. -1.
         -5    1    3    3    0  501 -0.10720425795E+02 -0.35198983367E+02 -0.33526318627E+02  0.50000000000E+02  0.47000000000E+01 0.  1.
</event>
<event>
 5    1  0.9081766E-001  0.1000000E+03  0.7546771E-02  0.1163815E+00
         11   -1    0    0    0    0  0.00000000000E+00  0.00000000000E+00  0.50000000000E+02  0.50000000000E+02  0.00000000000E+00 0. -1.
        -11   -1    0    0    0    0 -0.00000000000E+00 -0.00000000000E+00 -0.50000000000E+02  0.50000000000E+02  0.00000000000E+00 0.  1.
         23    2    1    2    0    0  0.00000000000E+00  0.00000000000E+00  0.00000000000E+00  0.10000000000E+03  0.10000000000E+03 0.  0.
          5    1    3    3  501    0 -0.19031377568E+01  0.14724100372E+02  0.47513039630E+02  0.50000000000E+02  0.47000000000E+01 0. -1.
         -5    1    3    3    0  501  0.19031377568E+01 -0.14724100372E+02 -0.47513039630E+02  0.50000000000E+02  0.47000000000E+01 0.  1.
</event>
<event>
 5    1  0.9081766E-001  0.1000000E+03  0.7546771E-02  0.1163815E+00
         11   -1    0    0    0    0  0.00000000000E+00  0.00000000000E+00  0.50000000000E+02  0.50000000000E+02  0.00000000000E+00 0.  1.
        -11   -1    0    0    0    0 -0.00000000000E+00 -0.00000000000E+00 -0.50000000000E+02  0.50000000000E+02  0.00000000000E+00 0. -1.
         23    2    1    2    0    0  0.00000000000E+00  0.00000000000E+00  0.00000000000E+00  0.10000000000E+03  0.10000000000E+03 0.  0.
          5    1    3    3  501    0 -0.17677124012E+02 -0.30856509220E+02 -0.34832529702E+02  0.50000000000E+02  0.47000000000E+01 0. -1.
         -5    1    3    3    0  501  0.17677124012E+02  0.30856509220E+02  0.34832529702E+02  0.50000000000E+02  0.47000000000E+01 0.  1.
</event>
<event>
 5    1  0.9081766E-001  0.1000000E+03  0.7546771E-02  0.1163815E+00
         11   -1    0    0    0    0  0.00000000000E+00  0.00000000000E+00  0.50000000000E+02  0.50000000000E+02  0.00000000000E+00 0. -1.
        -11   -1    0    0    0    0 -0.00000000000E+00 -0.00000000000E+00 -0.50000000000E+02  0.50000000000E+02  0.00000000000E+00 0.  1.
         23    2    1    2    0    0  0.00000000000E+00  0.00000000000E+00  0.00000000000E+00  0.10000000000E+03  0.10000000000E+03 0.  0.
          5    1    3    3  501    0 -0.13987313504E+02  0.24149402906E+02  0.41219793792E+02  0.50000000000E+02  0.47000000000E+01 0. -1.
         -5    1    3    3    0  501  0.13987313504E+02 -0.24149402906E+02 -0.41219793792E+02  0.50000000000E+02  0.47000000000E+01 0.  1.
</event>
<event>
 5    1  0.9081766E-001  0.1000000E+03  0.7546771E-02  0.1163815E+00
         11   -1    0    0    0    0  0.00000000000E+00  0.00000000000E+00  0.50000000000E+02  0.50000000000E+02  0.00000000000E+00 0. -1.
        -11   -1    0    0    0    0 -0.00000000000E+00 -0.00000000000E+00 -0.50000000000E+02  0.50000000000E+02  0.00000000000E+00 0.  1.
         23    2    1    2    0    0  0.00000000000E+00  0.00000000000E+00  0.00000000000E+00  0.10000000000E+03  0.10000000000E+03 0.  0.
          5    1    3    3  501    0 -0.37218264767E+02 -0.32869519424E+02  0.35079139958E+01  0.50000000000E+02  0.47000000000E+01 0. -1.
         -5    1    3    3    0  501  0.37218264767E+02  0.32869519424E+02 -0.35079139958E+01  0.50000000000E+02  0.47000000000E+01 0.  1.
</event>
<event>
 5    1  0.9081766E-001  0.1000000E+03  0.7546771E-02  0.1163815E+00
         11   -1    0    0    0    0  0.00000000000E+00  0.00000000000E+00  0.50000000000E+02  0.50000000000E+02  0.00000000000E+00 0. -1.
        -11   -1    0    0    0    0 -0.00000000000E+00 -0.00000000000E+00 -0.50000000000E+02  0.50000000000E+02  0.00000000000E+00 0.  1.
         23    2    1    2    0    0  0.00000000000E+00  0.00000000000E+00  0.00000000000E+00  0.10000000000E+03  0.10000000000E+03 0.  0.
          5    1    3    3  501    0 -0.18425265635E+02 -0.61283325434E+01  0.45835173465E+02  0.50000000000E+02  0.47000000000E+01 0. -1.
         -5    1    3    3    0  501  0.18425265635E+02  0.61283325434E+01 -0.45835173465E+02  0.50000000000E+02  0.47000000000E+01 0.  1.
</event>
<event>
 5    1  0.9081766E-001  0.1000000E+03  0.7546771E-02  0.1163815E+00
         11   -1    0    0    0    0  0.00000000000E+00  0.00000000000E+00  0.50000000000E+02  0.50000000000E+02  0.00000000000E+00 0. -1.
        -11   -1    0    0    0    0 -0.00000000000E+00 -0.00000000000E+00 -0.50000000000E+02  0.50000000000E+02  0.00000000000E+00 0.  1.
         23    2    1    2    0    0  0.00000000000E+00  0.00000000000E+00  0.00000000000E+00  0.10000000000E+03  0.10000000000E+03 0.  0.
          5    1    3    3  501    0  0.15343762924E+02 -0.40803954516E+02  0.24031567473E+02  0.50000000000E+02  0.47000000000E+01 0. -1.
         -5    1    3    3    0  501 -0.15343762924E+02  0.40803954516E+02 -0.24031567473E+02  0.50000000000E+02  0.47000000000E+01 0.  1.
</event>
<event>
 5    1  0.9081766E-001  0.1000000E+03  0.7546771E-02  0.1163815E+00
         11   -1    0    0    0    0  0.00000000000E+00  0.00000000000E+00  0.50000000000E+02  0.50000000000E+02  0.00000000000E+00 0. -1.
        -11   -1    0    0    0    0 -0.00000000000E+00 -0.00000000000E+00 -0.50000000000E+02  0.50000000000E+02  0.00000000000E+00 0.  1.
         23    2    1    2    0    0  0.00000000000E+00  0.00000000000E+00  0.00000000000E+00  0.10000000000E+03  0.10000000000E+03 0.  0.
          5    1    3    3  501    0 -0.24936926284E+02  0.21128525614E+02  0.37545240882E+02  0.50000000000E+02  0.47000000000E+01 0. -1.
         -5    1    3    3    0  501  0.24936926284E+02 -0.21128525614E+02 -0.37545240882E+02  0.50000000000E+02  0.47000000000E+01 0.  1.
</event>
<event>
 5    1  0.9081766E-001  0.1000000E+03  0.7546771E-02  0.1163815E+00
         11   -1    0    0    0    0  0.00000000000E+00  0.00000000000E+00  0.50000000000E+02  0.50000000000E+02  0.00000000000E+00 0.  1.
        -11   -1    0    0    0    0 -0.00000000000E+00 -0.00000000000E+00 -0.50000000000E+02  0.50000000000E+02  0.00000000000E+00 0. -1.
         23    2    1    2    0    0  0.00000000000E+00  0.00000000000E+00  0.00000000000E+00  0.10000000000E+03  0.10000000000E+03 0.  0.
          5    1    3    3  501    0 -0.12721611949E+02 -0.41969332505E+02 -0.23550917573E+02  0.50000000000E+02  0.47000000000E+01 0. -1.
         -5    1    3    3    0  501  0.12721611949E+02  0.41969332505E+02  0.23550917573E+02  0.50000000000E+02  0.47000000000E+01 0.  1.
</event>
<event>
 5    1  0.9081766E-001  0.1000000E+03  0.7546771E-02  0.1163815E+00
         11   -1    0    0    0    0  0.00000000000E+00  0.00000000000E+00  0.50000000000E+02  0.50000000000E+02  0.00000000000E+00 0.  1.
        -11   -1    0    0    0    0 -0.00000000000E+00 -0.00000000000E+00 -0.50000000000E+02  0.50000000000E+02  0.00000000000E+00 0. -1.
         23    2    1    2    0    0  0.00000000000E+00  0.00000000000E+00  0.00000000000E+00  0.10000000000E+03  0.10000000000E+03 0.  0.
          5    1    3    3  501    0  0.46756145541E+02  0.15961538211E+02 -0.60829394285E+01  0.50000000000E+02  0.47000000000E+01 0.  1.
         -5    1    3    3    0  501 -0.46756145541E+02 -0.15961538211E+02  0.60829394285E+01  0.50000000000E+02  0.47000000000E+01 0. -1.
</event>
<event>
 5    1  0.9081766E-001  0.1000000E+03  0.7546771E-02  0.1163815E+00
         11   -1    0    0    0    0  0.00000000000E+00  0.00000000000E+00  0.50000000000E+02  0.50000000000E+02  0.00000000000E+00 0.  1.
        -11   -1    0    0    0    0 -0.00000000000E+00 -0.00000000000E+00 -0.50000000000E+02  0.50000000000E+02  0.00000000000E+00 0. -1.
         23    2    1    2    0    0  0.00000000000E+00  0.00000000000E+00  0.00000000000E+00  0.10000000000E+03  0.10000000000E+03 0.  0.
          5    1    3    3  501    0  0.56552957684E+01 -0.35998829788E+02 -0.33911825130E+02  0.50000000000E+02  0.47000000000E+01 0. -1.
         -5    1    3    3    0  501 -0.56552957684E+01  0.35998829788E+02  0.33911825130E+02  0.50000000000E+02  0.47000000000E+01 0.  1.
</event>
<event>
 5    1  0.9081766E-001  0.1000000E+03  0.7546771E-02  0.1163815E+00
         11   -1    0    0    0    0  0.00000000000E+00  0.00000000000E+00  0.50000000000E+02  0.50000000000E+02  0.00000000000E+00 0. -1.
        -11   -1    0    0    0    0 -0.00000000000E+00 -0.00000000000E+00 -0.50000000000E+02  0.50000000000E+02  0.00000000000E+00 0.  1.
         23    2    1    2    0    0  0.00000000000E+00  0.00000000000E+00  0.00000000000E+00  0.10000000000E+03  0.10000000000E+03 0.  0.
          5    1    3    3  501    0  0.92511654608E+01 -0.53504150676E+01  0.48617887616E+02  0.50000000000E+02  0.47000000000E+01 0. -1.
         -5    1    3    3    0  501 -0.92511654608E+01  0.53504150676E+01 -0.48617887616E+02  0.50000000000E+02  0.47000000000E+01 0.  1.
</event>
<event>
 5    1  0.9081766E-001  0.1000000E+03  0.7546771E-02  0.1163815E+00
         11   -1    0    0    0    0  0.00000000000E+00  0.00000000000E+00  0.50000000000E+02  0.50000000000E+02  0.00000000000E+00 0. -1.
        -11   -1    0    0    0    0 -0.00000000000E+00 -0.00000000000E+00 -0.50000000000E+02  0.50000000000E+02  0.00000000000E+00 0.  1.
         23    2    1    2    0    0  0.00000000000E+00  0.00000000000E+00  0.00000000000E+00  0.10000000000E+03  0.10000000000E+03 0.  0.
          5    1    3    3  501    0  0.18689058912E+02  0.19379136058E+02  0.41869776243E+02  0.50000000000E+02  0.47000000000E+01 0. -1.
         -5    1    3    3    0  501 -0.18689058912E+02 -0.19379136058E+02 -0.41869776243E+02  0.50000000000E+02  0.47000000000E+01 0.  1.
</event>
<event>
 5    1  0.9081766E-001  0.1000000E+03  0.7546771E-02  0.1163815E+00
         11   -1    0    0    0    0  0.00000000000E+00  0.00000000000E+00  0.50000000000E+02  0.50000000000E+02  0.00000000000E+00 0.  1.
        -11   -1    0    0    0    0 -0.00000000000E+00 -0.00000000000E+00 -0.50000000000E+02  0.50000000000E+02  0.00000000000E+00 0. -1.
         23    2    1    2    0    0  0.00000000000E+00  0.00000000000E+00  0.00000000000E+00  0.10000000000E+03  0.10000000000E+03 0.  0.
          5    1    3    3  501    0 -0.96450385202E+00 -0.20008071412E+02 -0.45570350127E+02  0.50000000000E+02  0.47000000000E+01 0. -1.
         -5    1    3    3    0  501  0.96450385202E+00  0.20008071412E+02  0.45570350127E+02  0.50000000000E+02  0.47000000000E+01 0.  1.
</event>
<event>
 5    1  0.9081766E-001  0.1000000E+03  0.7546771E-02  0.1163815E+00
         11   -1    0    0    0    0  0.00000000000E+00  0.00000000000E+00  0.50000000000E+02  0.50000000000E+02  0.00000000000E+00 0. -1.
        -11   -1    0    0    0    0 -0.00000000000E+00 -0.00000000000E+00 -0.50000000000E+02  0.50000000000E+02  0.00000000000E+00 0.  1.
         23    2    1    2    0    0  0.00000000000E+00  0.00000000000E+00  0.00000000000E+00  0.10000000000E+03  0.10000000000E+03 0.  0.
          5    1    3    3  501    0  0.15573592935E+02 -0.10652442512E+02  0.46064071375E+02  0.50000000000E+02  0.47000000000E+01 0. -1.
         -5    1    3    3    0  501 -0.15573592935E+02  0.10652442512E+02 -0.46064071375E+02  0.50000000000E+02  0.47000000000E+01 0.  1.
</event>
<event>
 5    1  0.9081766E-001  0.1000000E+03  0.7546771E-02  0.1163815E+00
         11   -1    0    0    0    0  0.00000000000E+00  0.00000000000E+00  0.50000000000E+02  0.50000000000E+02  0.00000000000E+00 0. -1.
        -11   -1    0    0    0    0 -0.00000000000E+00 -0.00000000000E+00 -0.50000000000E+02  0.50000000000E+02  0.00000000000E+00 0.  1.
         23    2    1    2    0    0  0.00000000000E+00  0.00000000000E+00  0.00000000000E+00  0.10000000000E+03  0.10000000000E+03 0.  0.
          5    1    3    3  501    0 -0.33033906363E+01  0.45462766004E+01  0.49460377873E+02  0.50000000000E+02  0.47000000000E+01 0. -1.
         -5    1    3    3    0  501  0.33033906363E+01 -0.45462766004E+01 -0.49460377873E+02  0.50000000000E+02  0.47000000000E+01 0.  1.
</event>
<event>
 5    1  0.9081766E-001  0.1000000E+03  0.7546771E-02  0.1163815E+00
         11   -1    0    0    0    0  0.00000000000E+00  0.00000000000E+00  0.50000000000E+02  0.50000000000E+02  0.00000000000E+00 0. -1.
        -11   -1    0    0    0    0 -0.00000000000E+00 -0.00000000000E+00 -0.50000000000E+02  0.50000000000E+02  0.00000000000E+00 0.  1.
         23    2    1    2    0    0  0.00000000000E+00  0.00000000000E+00  0.00000000000E+00  0.10000000000E+03  0.10000000000E+03 0.  0.
          5    1    3    3  501    0  0.32658176248E+02  0.12801304850E+01  0.37546168781E+02  0.50000000000E+02  0.47000000000E+01 0. -1.
         -5    1    3    3    0  501 -0.32658176248E+02 -0.12801304850E+01 -0.37546168781E+02  0.50000000000E+02  0.47000000000E+01 0.  1.
</event>
<event>
 5    1  0.9081766E-001  0.1000000E+03  0.7546771E-02  0.1163815E+00
         11   -1    0    0    0    0  0.00000000000E+00  0.00000000000E+00  0.50000000000E+02  0.50000000000E+02  0.00000000000E+00 0. -1.
        -11   -1    0    0    0    0 -0.00000000000E+00 -0.00000000000E+00 -0.50000000000E+02  0.50000000000E+02  0.00000000000E+00 0.  1.
         23    2    1    2    0    0  0.00000000000E+00  0.00000000000E+00  0.00000000000E+00  0.10000000000E+03  0.10000000000E+03 0.  0.
          5    1    3    3  501    0  0.30850756564E+02  0.10280383668E+01  0.39052323318E+02  0.50000000000E+02  0.47000000000E+01 0. -1.
         -5    1    3    3    0  501 -0.30850756564E+02 -0.10280383668E+01 -0.39052323318E+02  0.50000000000E+02  0.47000000000E+01 0.  1.
</event>
<event>
 5    1  0.9081766E-001  0.1000000E+03  0.7546771E-02  0.1163815E+00
         11   -1    0    0    0    0  0.00000000000E+00  0.00000000000E+00  0.50000000000E+02  0.50000000000E+02  0.00000000000E+00 0.  1.
        -11   -1    0    0    0    0 -0.00000000000E+00 -0.00000000000E+00 -0.50000000000E+02  0.50000000000E+02  0.00000000000E+00 0. -1.
         23    2    1    2    0    0  0.00000000000E+00  0.00000000000E+00  0.00000000000E+00  0.10000000000E+03  0.10000000000E+03 0.  0.
          5    1    3    3  501    0 -0.19238771004E+02  0.14873074133E+02 -0.43434679187E+02  0.50000000000E+02  0.47000000000E+01 0. -1.
         -5    1    3    3    0  501  0.19238771004E+02 -0.14873074133E+02  0.43434679187E+02  0.50000000000E+02  0.47000000000E+01 0.  1.
</event>
<event>
 5    1  0.9081766E-001  0.1000000E+03  0.7546771E-02  0.1163815E+00
         11   -1    0    0    0    0  0.00000000000E+00  0.00000000000E+00  0.50000000000E+02  0.50000000000E+02  0.00000000000E+00 0. -1.
        -11   -1    0    0    0    0 -0.00000000000E+00 -0.00000000000E+00 -0.50000000000E+02  0.50000000000E+02  0.00000000000E+00 0.  1.
         23    2    1    2    0    0  0.00000000000E+00  0.00000000000E+00  0.00000000000E+00  0.10000000000E+03  0.10000000000E+03 0.  0.
          5    1    3    3  501    0  0.35682600850E+02  0.24345389654E+02  0.24737906119E+02  0.50000000000E+02  0.47000000000E+01 0. -1.
         -5    1    3    3    0  501 -0.35682600850E+02 -0.24345389654E+02 -0.24737906119E+02  0.50000000000E+02  0.47000000000E+01 0.  1.
</event>
<event>
 5    1  0.9081766E-001  0.1000000E+03  0.7546771E-02  0.1163815E+00
         11   -1    0    0    0    0  0.00000000000E+00  0.00000000000E+00  0.50000000000E+02  0.50000000000E+02  0.00000000000E+00 0. -1.
        -11   -1    0    0    0    0 -0.00000000000E+00 -0.00000000000E+00 -0.50000000000E+02  0.50000000000E+02  0.00000000000E+00 0.  1.
         23    2    1    2    0    0  0.00000000000E+00  0.00000000000E+00  0.00000000000E+00  0.10000000000E+03  0.10000000000E+03 0.  0.
          5    1    3    3  501    0  0.37268789902E+02 -0.19860051528E+02  0.26353854605E+02  0.50000000000E+02  0.47000000000E+01 0. -1.
         -5    1    3    3    0  501 -0.37268789902E+02  0.19860051528E+02 -0.26353854605E+02  0.50000000000E+02  0.47000000000E+01 0.  1.
</event>
<event>
 5    1  0.9081766E-001  0.1000000E+03  0.7546771E-02  0.1163815E+00
         11   -1    0    0    0    0  0.00000000000E+00  0.00000000000E+00  0.50000000000E+02  0.50000000000E+02  0.00000000000E+00 0. -1.
        -11   -1    0    0    0    0 -0.00000000000E+00 -0.00000000000E+00 -0.50000000000E+02  0.50000000000E+02  0.00000000000E+00 0.  1.
         23    2    1    2    0    0  0.00000000000E+00  0.00000000000E+00  0.00000000000E+00  0.10000000000E+03  0.10000000000E+03 0.  0.
          5    1    3    3  501    0 -0.61207024506E+01 -0.85789405556E+01  0.48650270096E+02  0.50000000000E+02  0.47000000000E+01 0. -1.
         -5    1    3    3    0  501  0.61207024506E+01  0.85789405556E+01 -0.48650270096E+02  0.50000000000E+02  0.47000000000E+01 0.  1.
</event>
<event>
 5    1  0.9081766E-001  0.1000000E+03  0.7546771E-02  0.1163815E+00
         11   -1    0    0    0    0  0.00000000000E+00  0.00000000000E+00  0.50000000000E+02  0.50000000000E+02  0.00000000000E+00 0.  1.
        -11   -1    0    0    0    0 -0.00000000000E+00 -0.00000000000E+00 -0.50000000000E+02  0.50000000000E+02  0.00000000000E+00 0. -1.
         23    2    1    2    0    0  0.00000000000E+00  0.00000000000E+00  0.00000000000E+00  0.10000000000E+03  0.10000000000E+03 0.  0.
          5    1    3    3  501    0  0.94904524440E+01 -0.48642847657E+02 -0.46599017439E+01  0.50000000000E+02  0.47000000000E+01 0. -1.
         -5    1    3    3    0  501 -0.94904524440E+01  0.48642847657E+02  0.46599017439E+01  0.50000000000E+02  0.47000000000E+01 0.  1.
</event>
<event>
 5    1  0.9081766E-001  0.1000000E+03  0.7546771E-02  0.1163815E+00
         11   -1    0    0    0    0  0.00000000000E+00  0.00000000000E+00  0.50000000000E+02  0.50000000000E+02  0.00000000000E+00 0. -1.
        -11   -1    0    0    0    0 -0.00000000000E+00 -0.00000000000E+00 -0.50000000000E+02  0.50000000000E+02  0.00000000000E+00 0.  1.
         23    2    1    2    0    0  0.00000000000E+00  0.00000000000E+00  0.00000000000E+00  0.10000000000E+03  0.10000000000E+03 0.  0.
          5    1    3    3  501    0  0.27677536875E+02  0.38799147964E+02  0.14369762343E+02  0.50000000000E+02  0.47000000000E+01 0. -1.
         -5    1    3    3    0  501 -0.27677536875E+02 -0.38799147964E+02 -0.14369762343E+02  0.50000000000E+02  0.47000000000E+01 0.  1.
</event>
<event>
 5    1  0.9081766E-001  0.1000000E+03  0.7546771E-02  0.1163815E+00
         11   -1    0    0    0    0  0.00000000000E+00  0.00000000000E+00  0.50000000000E+02  0.50000000000E+02  0.00000000000E+00 0.  1.
        -11   -1    0    0    0    0 -0.00000000000E+00 -0.00000000000E+00 -0.50000000000E+02  0.50000000000E+02  0.00000000000E+00 0. -1.
         23    2    1    2    0    0  0.00000000000E+00  0.00000000000E+00  0.00000000000E+00  0.10000000000E+03  0.10000000000E+03 0.  0.
          5    1    3    3  501    0 -0.48479666946E+02 -0.32124331761E+01 -0.10831074086E+02  0.50000000000E+02  0.47000000000E+01 0. -1.
         -5    1    3    3    0  501  0.48479666946E+02  0.32124331761E+01  0.10831074086E+02  0.50000000000E+02  0.47000000000E+01 0.  1.
</event>
<event>
 5    1  0.9081766E-001  0.1000000E+03  0.7546771E-02  0.1163815E+00
         11   -1    0    0    0    0  0.00000000000E+00  0.00000000000E+00  0.50000000000E+02  0.50000000000E+02  0.00000000000E+00 0.  1.
        -11   -1    0    0    0    0 -0.00000000000E+00 -0.00000000000E+00 -0.50000000000E+02  0.50000000000E+02  0.00000000000E+00 0. -1.
         23    2    1    2    0    0  0.00000000000E+00  0.00000000000E+00  0.00000000000E+00  0.10000000000E+03  0.10000000000E+03 0.  0.
          5    1    3    3  501    0 -0.30925604546E+02 -0.37040402684E+02  0.12228064133E+02  0.50000000000E+02  0.47000000000E+01 0. -1.
         -5    1    3    3    0  501  0.30925604546E+02  0.37040402684E+02 -0.12228064133E+02  0.50000000000E+02  0.47000000000E+01 0.  1.
</event>
<event>
 5    1  0.9081766E-001  0.1000000E+03  0.7546771E-02  0.1163815E+00
         11   -1    0    0    0    0  0.00000000000E+00  0.00000000000E+00  0.50000000000E+02  0.50000000000E+02  0.00000000000E+00 0. -1.
        -11   -1    0    0    0    0 -0.00000000000E+00 -0.00000000000E+00 -0.50000000000E+02  0.50000000000E+02  0.00000000000E+00 0.  1.
         23    2    1    2    0    0  0.00000000000E+00  0.00000000000E+00  0.00000000000E+00  0.10000000000E+03  0.10000000000E+03 0.  0.
          5    1    3    3  501    0  0.73577435812E+00  0.24705900619E+02  0.43208646249E+02  0.50000000000E+02  0.47000000000E+01 0. -1.
         -5    1    3    3    0  501 -0.73577435812E+00 -0.24705900619E+02 -0.43208646249E+02  0.50000000000E+02  0.47000000000E+01 0.  1.
</event>
<event>
 5    1  0.9081766E-001  0.1000000E+03  0.7546771E-02  0.1163815E+00
         11   -1    0    0    0    0  0.00000000000E+00  0.00000000000E+00  0.50000000000E+02  0.50000000000E+02  0.00000000000E+00 0.  1.
        -11   -1    0    0    0    0 -0.00000000000E+00 -0.00000000000E+00 -0.50000000000E+02  0.50000000000E+02  0.00000000000E+00 0. -1.
         23    2    1    2    0    0  0.00000000000E+00  0.00000000000E+00  0.00000000000E+00  0.10000000000E+03  0.10000000000E+03 0.  0.
          5    1    3    3  501    0  0.18376039223E+02  0.19330070096E+02 -0.42030697978E+02  0.50000000000E+02  0.47000000000E+01 0. -1.
         -5    1    3    3    0  501 -0.18376039223E+02 -0.19330070096E+02  0.42030697978E+02  0.50000000000E+02  0.47000000000E+01 0.  1.
</event>
<event>
 5    1  0.9081766E-001  0.1000000E+03  0.7546771E-02  0.1163815E+00
         11   -1    0    0    0    0  0.00000000000E+00  0.00000000000E+00  0.50000000000E+02  0.50000000000E+02  0.00000000000E+00 0.  1.
        -11   -1    0    0    0    0 -0.00000000000E+00 -0.00000000000E+00 -0.50000000000E+02  0.50000000000E+02  0.00000000000E+00 0. -1.
         23    2    1    2    0    0  0.00000000000E+00  0.00000000000E+00  0.00000000000E+00  0.10000000000E+03  0.10000000000E+03 0.  0.
          5    1    3    3  501    0 -0.45817766115E+02 -0.17506979365E+02  0.84939968077E+01  0.50000000000E+02  0.47000000000E+01 0. -1.
         -5    1    3    3    0  501  0.45817766115E+02  0.17506979365E+02 -0.84939968077E+01  0.50000000000E+02  0.47000000000E+01 0.  1.
</event>
<event>
 5    1  0.9081766E-001  0.1000000E+03  0.7546771E-02  0.1163815E+00
         11   -1    0    0    0    0  0.00000000000E+00  0.00000000000E+00  0.50000000000E+02  0.50000000000E+02  0.00000000000E+00 0. -1.
        -11   -1    0    0    0    0 -0.00000000000E+00 -0.00000000000E+00 -0.50000000000E+02  0.50000000000E+02  0.00000000000E+00 0.  1.
         23    2    1    2    0    0  0.00000000000E+00  0.00000000000E+00  0.00000000000E+00  0.10000000000E+03  0.10000000000E+03 0.  0.
          5    1    3    3  501    0  0.96233479272E+01 -0.32068000485E+02  0.36836727862E+02  0.50000000000E+02  0.47000000000E+01 0. -1.
         -5    1    3    3    0  501 -0.96233479272E+01  0.32068000485E+02 -0.36836727862E+02  0.50000000000E+02  0.47000000000E+01 0.  1.
</event>
<event>
 5    1  0.9081766E-001  0.1000000E+03  0.7546771E-02  0.1163815E+00
         11   -1    0    0    0    0  0.00000000000E+00  0.00000000000E+00  0.50000000000E+02  0.50000000000E+02  0.00000000000E+00 0.  1.
        -11   -1    0    0    0    0 -0.00000000000E+00 -0.00000000000E+00 -0.50000000000E+02  0.50000000000E+02  0.00000000000E+00 0. -1.
         23    2    1    2    0    0  0.00000000000E+00  0.00000000000E+00  0.00000000000E+00  0.10000000000E+03  0.10000000000E+03 0.  0.
          5    1    3    3  501    0 -0.28226778202E+02  0.29291621629E+02 -0.28690763229E+02  0.50000000000E+02  0.47000000000E+01 0. -1.
         -5    1    3    3    0  501  0.28226778202E+02 -0.29291621629E+02  0.28690763229E+02  0.50000000000E+02  0.47000000000E+01 0.  1.
</event>
<event>
 5    1  0.9081766E-001  0.1000000E+03  0.7546771E-02  0.1163815E+00
         11   -1    0    0    0    0  0.00000000000E+00  0.00000000000E+00  0.50000000000E+02  0.50000000000E+02  0.00000000000E+00 0.  1.
        -11   -1    0    0    0    0 -0.00000000000E+00 -0.00000000000E+00 -0.50000000000E+02  0.50000000000E+02  0.00000000000E+00 0. -1.
         23    2    1    2    0    0  0.00000000000E+00  0.00000000000E+00  0.00000000000E+00  0.10000000000E+03  0.10000000000E+03 0.  0.
          5    1    3    3  501    0 -0.49423697730E+01 -0.32604988853E+02 -0.37288036727E+02  0.50000000000E+02  0.47000000000E+01 0. -1.
         -5    1    3    3    0  501  0.49423697730E+01  0.32604988853E+02  0.37288036727E+02  0.50000000000E+02  0.47000000000E+01 0.  1.
</event>
<event>
 5    1  0.9081766E-001  0.1000000E+03  0.7546771E-02  0.1163815E+00
         11   -1    0    0    0    0  0.00000000000E+00  0.00000000000E+00  0.50000000000E+02  0.50000000000E+02  0.00000000000E+00 0.  1.
        -11   -1    0    0    0    0 -0.00000000000E+00 -0.00000000000E+00 -0.50000000000E+02  0.50000000000E+02  0.00000000000E+00 0. -1.
         23    2    1    2    0    0  0.00000000000E+00  0.00000000000E+00  0.00000000000E+00  0.10000000000E+03  0.10000000000E+03 0.  0.
          5    1    3    3  501    0  0.31596734043E+02  0.38428486271E+02 -0.16756612766E+01  0.50000000000E+02  0.47000000000E+01 0. -1.
         -5    1    3    3    0  501 -0.31596734043E+02 -0.38428486271E+02  0.16756612766E+01  0.50000000000E+02  0.47000000000E+01 0.  1.
</event>
<event>
 5    1  0.9081766E-001  0.1000000E+03  0.7546771E-02  0.1163815E+00
         11   -1    0    0    0    0  0.00000000000E+00  0.00000000000E+00  0.50000000000E+02  0.50000000000E+02  0.00000000000E+00 0. -1.
        -11   -1    0    0    0    0 -0.00000000000E+00 -0.00000000000E+00 -0.50000000000E+02  0.50000000000E+02  0.00000000000E+00 0.  1.
         23    2    1    2    0    0  0.00000000000E+00  0.00000000000E+00  0.00000000000E+00  0.10000000000E+03  0.10000000000E+03 0.  0.
          5    1    3    3  501    0  0.16459748551E+02  0.10503296895E+02  0.45789381214E+02  0.50000000000E+02  0.47000000000E+01 0. -1.
         -5    1    3    3    0  501 -0.16459748551E+02 -0.10503296895E+02 -0.45789381214E+02  0.50000000000E+02  0.47000000000E+01 0.  1.
</event>
<event>
 5    1  0.9081766E-001  0.1000000E+03  0.7546771E-02  0.1163815E+00
         11   -1    0    0    0    0  0.00000000000E+00  0.00000000000E+00  0.50000000000E+02  0.50000000000E+02  0.00000000000E+00 0. -1.
        -11   -1    0    0    0    0 -0.00000000000E+00 -0.00000000000E+00 -0.50000000000E+02  0.50000000000E+02  0.00000000000E+00 0.  1.
         23    2    1    2    0    0  0.00000000000E+00  0.00000000000E+00  0.00000000000E+00  0.10000000000E+03  0.10000000000E+03 0.  0.
          5    1    3    3  501    0  0.41804556484E+02  0.67951178874E+01  0.26155600357E+02  0.50000000000E+02  0.47000000000E+01 0. -1.
         -5    1    3    3    0  501 -0.41804556484E+02 -0.67951178874E+01 -0.26155600357E+02  0.50000000000E+02  0.47000000000E+01 0.  1.
</event>
<event>
 5    1  0.9081766E-001  0.1000000E+03  0.7546771E-02  0.1163815E+00
         11   -1    0    0    0    0  0.00000000000E+00  0.00000000000E+00  0.50000000000E+02  0.50000000000E+02  0.00000000000E+00 0. -1.
        -11   -1    0    0    0    0 -0.00000000000E+00 -0.00000000000E+00 -0.50000000000E+02  0.50000000000E+02  0.00000000000E+00 0.  1.
         23    2    1    2    0    0  0.00000000000E+00  0.00000000000E+00  0.00000000000E+00  0.10000000000E+03  0.10000000000E+03 0.  0.
          5    1    3    3  501    0 -0.34837894495E+02  0.90634241353E+01  0.34381469575E+02  0.50000000000E+02  0.47000000000E+01 0. -1.
         -5    1    3    3    0  501  0.34837894495E+02 -0.90634241353E+01 -0.34381469575E+02  0.50000000000E+02  0.47000000000E+01 0.  1.
</event>
<event>
 5    1  0.9081766E-001  0.1000000E+03  0.7546771E-02  0.1163815E+00
         11   -1    0    0    0    0  0.00000000000E+00  0.00000000000E+00  0.50000000000E+02  0.50000000000E+02  0.00000000000E+00 0.  1.
        -11   -1    0    0    0    0 -0.00000000000E+00 -0.00000000000E+00 -0.50000000000E+02  0.50000000000E+02  0.00000000000E+00 0. -1.
         23    2    1    2    0    0  0.00000000000E+00  0.00000000000E+00  0.00000000000E+00  0.10000000000E+03  0.10000000000E+03 0.  0.
          5    1    3    3  501    0 -0.16025310270E+02  0.13188801862E+02 -0.45245496309E+02  0.50000000000E+02  0.47000000000E+01 0. -1.
         -5    1    3    3    0  501  0.16025310270E+02 -0.13188801862E+02  0.45245496309E+02  0.50000000000E+02  0.47000000000E+01 0.  1.
</event>
<event>
 5    1  0.9081766E-001  0.1000000E+03  0.7546771E-02  0.1163815E+00
         11   -1    0    0    0    0  0.00000000000E+00  0.00000000000E+00  0.50000000000E+02  0.50000000000E+02  0.00000000000E+00 0.  1.
        -11   -1    0    0    0    0 -0.00000000000E+00 -0.00000000000E+00 -0.50000000000E+02  0.50000000000E+02  0.00000000000E+00 0. -1.
         23    2    1    2    0    0  0.00000000000E+00  0.00000000000E+00  0.00000000000E+00  0.10000000000E+03  0.10000000000E+03 0.  0.
          5    1    3    3  501    0 -0.10018286983E+02  0.20239784644E+02 -0.44360963059E+02  0.50000000000E+02  0.47000000000E+01 0. -1.
         -5    1    3    3    0  501  0.10018286983E+02 -0.20239784644E+02  0.44360963059E+02  0.50000000000E+02  0.47000000000E+01 0.  1.
</event>
<event>
 5    1  0.9081766E-001  0.1000000E+03  0.7546771E-02  0.1163815E+00
         11   -1    0    0    0    0  0.00000000000E+00  0.00000000000E+00  0.50000000000E+02  0.50000000000E+02  0.00000000000E+00 0. -1.
        -11   -1    0    0    0    0 -0.00000000000E+00 -0.00000000000E+00 -0.50000000000E+02  0.50000000000E+02  0.00000000000E+00 0.  1.
         23    2    1    2    0    0  0.00000000000E+00  0.00000000000E+00  0.00000000000E+00  0.10000000000E+03  0.10000000000E+03 0.  0.
          5    1    3    3  501    0 -0.47758138467E+02  0.24977575431E+01  0.13814174511E+02  0.50000000000E+02  0.47000000000E+01 0. -1.
         -5    1    3    3    0  501  0.47758138467E+02 -0.24977575431E+01 -0.13814174511E+02  0.50000000000E+02  0.47000000000E+01 0.  1.
</event>
<event>
 5    1  0.9081766E-001  0.1000000E+03  0.7546771E-02  0.1163815E+00
         11   -1    0    0    0    0  0.00000000000E+00  0.00000000000E+00  0.50000000000E+02  0.50000000000E+02  0.00000000000E+00 0. -1.
        -11   -1    0    0    0    0 -0.00000000000E+00 -0.00000000000E+00 -0.50000000000E+02  0.50000000000E+02  0.00000000000E+00 0.  1.
         23    2    1    2    0    0  0.00000000000E+00  0.00000000000E+00  0.00000000000E+00  0.10000000000E+03  0.10000000000E+03 0.  0.
          5    1    3    3  501    0 -0.45455360756E+02  0.11090018046E+02  0.16992106351E+02  0.50000000000E+02  0.47000000000E+01 0. -1.
         -5    1    3    3    0  501  0.45455360756E+02 -0.11090018046E+02 -0.16992106351E+02  0.50000000000E+02  0.47000000000E+01 0.  1.
</event>
<event>
 5    1  0.9081766E-001  0.1000000E+03  0.7546771E-02  0.1163815E+00
         11   -1    0    0    0    0  0.00000000000E+00  0.00000000000E+00  0.50000000000E+02  0.50000000000E+02  0.00000000000E+00 0. -1.
        -11   -1    0    0    0    0 -0.00000000000E+00 -0.00000000000E+00 -0.50000000000E+02  0.50000000000E+02  0.00000000000E+00 0.  1.
         23    2    1    2    0    0  0.00000000000E+00  0.00000000000E+00  0.00000000000E+00  0.10000000000E+03  0.10000000000E+03 0.  0.
          5    1    3    3  501    0  0.39899596411E+02 -0.15651982349E+02  0.25316944026E+02  0.50000000000E+02  0.47000000000E+01 0. -1.
         -5    1    3    3    0  501 -0.39899596411E+02  0.15651982349E+02 -0.25316944026E+02  0.50000000000E+02  0.47000000000E+01 0.  1.
</event>
<event>
 5    1  0.9081766E-001  0.1000000E+03  0.7546771E-02  0.1163815E+00
         11   -1    0    0    0    0  0.00000000000E+00  0.00000000000E+00  0.50000000000E+02  0.50000000000E+02  0.00000000000E+00 0. -1.
        -11   -1    0    0    0    0 -0.00000000000E+00 -0.00000000000E+00 -0.50000000000E+02  0.50000000000E+02  0.00000000000E+00 0.  1.
         23    2    1    2    0    0  0.00000000000E+00  0.00000000000E+00  0.00000000000E+00  0.10000000000E+03  0.10000000000E+03 0.  0.
          5    1    3    3  501    0  0.36006221528E+02  0.57501444922E+01  0.33888019263E+02  0.50000000000E+02  0.47000000000E+01 0. -1.
         -5    1    3    3    0  501 -0.36006221528E+02 -0.57501444922E+01 -0.33888019263E+02  0.50000000000E+02  0.47000000000E+01 0.  1.
</event>
<event>
 5    1  0.9081766E-001  0.1000000E+03  0.7546771E-02  0.1163815E+00
         11   -1    0    0    0    0  0.00000000000E+00  0.00000000000E+00  0.50000000000E+02  0.50000000000E+02  0.00000000000E+00 0. -1.
        -11   -1    0    0    0    0 -0.00000000000E+00 -0.00000000000E+00 -0.50000000000E+02  0.50000000000E+02  0.00000000000E+00 0.  1.
         23    2    1    2    0    0  0.00000000000E+00  0.00000000000E+00  0.00000000000E+00  0.10000000000E+03  0.10000000000E+03 0.  0.
          5    1    3    3  501    0 -0.27884934683E+02 -0.38568440442E+02  0.14588208238E+02  0.50000000000E+02  0.47000000000E+01 0. -1.
         -5    1    3    3    0  501  0.27884934683E+02  0.38568440442E+02 -0.14588208238E+02  0.50000000000E+02  0.47000000000E+01 0.  1.
</event>
<event>
 5    1  0.9081766E-001  0.1000000E+03  0.7546771E-02  0.1163815E+00
         11   -1    0    0    0    0  0.00000000000E+00  0.00000000000E+00  0.50000000000E+02  0.50000000000E+02  0.00000000000E+00 0. -1.
        -11   -1    0    0    0    0 -0.00000000000E+00 -0.00000000000E+00 -0.50000000000E+02  0.50000000000E+02  0.00000000000E+00 0.  1.
         23    2    1    2    0    0  0.00000000000E+00  0.00000000000E+00  0.00000000000E+00  0.10000000000E+03  0.10000000000E+03 0.  0.
          5    1    3    3  501    0 -0.29526071857E+02 -0.27276210394E+02 -0.29362040583E+02  0.50000000000E+02  0.47000000000E+01 0. -1.
         -5    1    3    3    0  501  0.29526071857E+02  0.27276210394E+02  0.29362040583E+02  0.50000000000E+02  0.47000000000E+01 0.  1.
</event>
<event>
 5    1  0.9081766E-001  0.1000000E+03  0.7546771E-02  0.1163815E+00
         11   -1    0    0    0    0  0.00000000000E+00  0.00000000000E+00  0.50000000000E+02  0.50000000000E+02  0.00000000000E+00 0. -1.
        -11   -1    0    0    0    0 -0.00000000000E+00 -0.00000000000E+00 -0.50000000000E+02  0.50000000000E+02  0.00000000000E+00 0.  1.
         23    2    1    2    0    0  0.00000000000E+00  0.00000000000E+00  0.00000000000E+00  0.10000000000E+03  0.10000000000E+03 0.  0.
          5    1    3    3  501    0 -0.38572018977E+01 -0.47137533429E+02  0.15526910050E+02  0.50000000000E+02  0.47000000000E+01 0. -1.
         -5    1    3    3    0  501  0.38572018977E+01  0.47137533429E+02 -0.15526910050E+02  0.50000000000E+02  0.47000000000E+01 0.  1.
</event>
<event>
 5    1  0.9081766E-001  0.1000000E+03  0.7546771E-02  0.1163815E+00
         11   -1    0    0    0    0  0.00000000000E+00  0.00000000000E+00  0.50000000000E+02  0.50000000000E+02  0.00000000000E+00 0. -1.
        -11   -1    0    0    0    0 -0.00000000000E+00 -0.00000000000E+00 -0.50000000000E+02  0.50000000000E+02  0.00000000000E+00 0.  1.
         23    2    1    2    0    0  0.00000000000E+00  0.00000000000E+00  0.00000000000E+00  0.10000000000E+03  0.10000000000E+03 0.  0.
          5    1    3    3  501    0  0.39109237980E+02  0.23761270849E+02  0.19590291275E+02  0.50000000000E+02  0.47000000000E+01 0. -1.
         -5    1    3    3    0  501 -0.39109237980E+02 -0.23761270849E+02 -0.19590291275E+02  0.50000000000E+02  0.47000000000E+01 0.  1.
</event>
<event>
 5    1  0.9081766E-001  0.1000000E+03  0.7546771E-02  0.1163815E+00
         11   -1    0    0    0    0  0.00000000000E+00  0.00000000000E+00  0.50000000000E+02  0.50000000000E+02  0.00000000000E+00 0.  1.
        -11   -1    0    0    0    0 -0.00000000000E+00 -0.00000000000E+00 -0.50000000000E+02  0.50000000000E+02  0.00000000000E+00 0. -1.
         23    2    1    2    0    0  0.00000000000E+00  0.00000000000E+00  0.00000000000E+00  0.10000000000E+03  0.10000000000E+03 0.  0.
          5    1    3    3  501    0  0.28279059740E+02 -0.89241269679E+01 -0.39982055201E+02  0.50000000000E+02  0.47000000000E+01 0. -1.
         -5    1    3    3    0  501 -0.28279059740E+02  0.89241269679E+01  0.39982055201E+02  0.50000000000E+02  0.47000000000E+01 0.  1.
</event>
<event>
 5    1  0.9081766E-001  0.1000000E+03  0.7546771E-02  0.1163815E+00
         11   -1    0    0    0    0  0.00000000000E+00  0.00000000000E+00  0.50000000000E+02  0.50000000000E+02  0.00000000000E+00 0. -1.
        -11   -1    0    0    0    0 -0.00000000000E+00 -0.00000000000E+00 -0.50000000000E+02  0.50000000000E+02  0.00000000000E+00 0.  1.
         23    2    1    2    0    0  0.00000000000E+00  0.00000000000E+00  0.00000000000E+00  0.10000000000E+03  0.10000000000E+03 0.  0.
          5    1    3    3  501    0  0.98942375671E+01 -0.71873029911E+01  0.48253049009E+02  0.50000000000E+02  0.47000000000E+01 0. -1.
         -5    1    3    3    0  501 -0.98942375671E+01  0.71873029911E+01 -0.48253049009E+02  0.50000000000E+02  0.47000000000E+01 0.  1.
</event>
<event>
 5    1  0.9081766E-001  0.1000000E+03  0.7546771E-02  0.1163815E+00
         11   -1    0    0    0    0  0.00000000000E+00  0.00000000000E+00  0.50000000000E+02  0.50000000000E+02  0.00000000000E+00 0.  1.
        -11   -1    0    0    0    0 -0.00000000000E+00 -0.00000000000E+00 -0.50000000000E+02  0.50000000000E+02  0.00000000000E+00 0. -1.
         23    2    1    2    0    0  0.00000000000E+00  0.00000000000E+00  0.00000000000E+00  0.10000000000E+03  0.10000000000E+03 0.  0.
          5    1    3    3  501    0 -0.11557534391E+02 -0.32914706196E+02 -0.35509935438E+02  0.50000000000E+02  0.47000000000E+01 0. -1.
         -5    1    3    3    0  501  0.11557534391E+02  0.32914706196E+02  0.35509935438E+02  0.50000000000E+02  0.47000000000E+01 0.  1.
</event>
<event>
 5    1  0.9081766E-001  0.1000000E+03  0.7546771E-02  0.1163815E+00
         11   -1    0    0    0    0  0.00000000000E+00  0.00000000000E+00  0.50000000000E+02  0.50000000000E+02  0.00000000000E+00 0. -1.
        -11   -1    0    0    0    0 -0.00000000000E+00 -0.00000000000E+00 -0.50000000000E+02  0.50000000000E+02  0.00000000000E+00 0.  1.
         23    2    1    2    0    0  0.00000000000E+00  0.00000000000E+00  0.00000000000E+00  0.10000000000E+03  0.10000000000E+03 0.  0.
          5    1    3    3  501    0 -0.94396289644E+01  0.24105030786E+02  0.42517653931E+02  0.50000000000E+02  0.47000000000E+01 0. -1.
         -5    1    3    3    0  501  0.94396289644E+01 -0.24105030786E+02 -0.42517653931E+02  0.50000000000E+02  0.47000000000E+01 0.  1.
</event>
<event>
 5    1  0.9081766E-001  0.1000000E+03  0.7546771E-02  0.1163815E+00
         11   -1    0    0    0    0  0.00000000000E+00  0.00000000000E+00  0.50000000000E+02  0.50000000000E+02  0.00000000000E+00 0. -1.
        -11   -1    0    0    0    0 -0.00000000000E+00 -0.00000000000E+00 -0.50000000000E+02  0.50000000000E+02  0.00000000000E+00 0.  1.
         23    2    1    2    0    0  0.00000000000E+00  0.00000000000E+00  0.00000000000E+00  0.10000000000E+03  0.10000000000E+03 0.  0.
          5    1    3    3  501    0  0.33184288373E+02 -0.15528200958E+02  0.33698486318E+02  0.50000000000E+02  0.47000000000E+01 0. -1.
         -5    1    3    3    0  501 -0.33184288373E+02  0.15528200958E+02 -0.33698486318E+02  0.50000000000E+02  0.47000000000E+01 0.  1.
</event>
<event>
 5    1  0.9081766E-001  0.1000000E+03  0.7546771E-02  0.1163815E+00
         11   -1    0    0    0    0  0.00000000000E+00  0.00000000000E+00  0.50000000000E+02  0.50000000000E+02  0.00000000000E+00 0.  1.
        -11   -1    0    0    0    0 -0.00000000000E+00 -0.00000000000E+00 -0.50000000000E+02  0.50000000000E+02  0.00000000000E+00 0. -1.
         23    2    1    2    0    0  0.00000000000E+00  0.00000000000E+00  0.00000000000E+00  0.10000000000E+03  0.10000000000E+03 0.  0.
          5    1    3    3  501    0  0.13350881077E+02  0.82485126863E+01 -0.47240089045E+02  0.50000000000E+02  0.47000000000E+01 0. -1.
         -5    1    3    3    0  501 -0.13350881077E+02 -0.82485126863E+01  0.47240089045E+02  0.50000000000E+02  0.47000000000E+01 0.  1.
</event>
<event>
 5    1  0.9081766E-001  0.1000000E+03  0.7546771E-02  0.1163815E+00
         11   -1    0    0    0    0  0.00000000000E+00  0.00000000000E+00  0.50000000000E+02  0.50000000000E+02  0.00000000000E+00 0.  1.
        -11   -1    0    0    0    0 -0.00000000000E+00 -0.00000000000E+00 -0.50000000000E+02  0.50000000000E+02  0.00000000000E+00 0. -1.
         23    2    1    2    0    0  0.00000000000E+00  0.00000000000E+00  0.00000000000E+00  0.10000000000E+03  0.10000000000E+03 0.  0.
          5    1    3    3  501    0 -0.61229967126E+01  0.14956094064E+02 -0.47082206422E+02  0.50000000000E+02  0.47000000000E+01 0. -1.
         -5    1    3    3    0  501  0.61229967126E+01 -0.14956094064E+02  0.47082206422E+02  0.50000000000E+02  0.47000000000E+01 0.  1.
</event>
<event>
 5    1  0.9081766E-001  0.1000000E+03  0.7546771E-02  0.1163815E+00
         11   -1    0    0    0    0  0.00000000000E+00  0.00000000000E+00  0.50000000000E+02  0.50000000000E+02  0.00000000000E+00 0.  1.
        -11   -1    0    0    0    0 -0.00000000000E+00 -0.00000000000E+00 -0.50000000000E+02  0.50000000000E+02  0.00000000000E+00 0. -1.
         23    2    1    2    0    0  0.00000000000E+00  0.00000000000E+00  0.00000000000E+00  0.10000000000E+03  0.10000000000E+03 0.  0.
          5    1    3    3  501    0  0.38734680626E+02  0.30532256965E+02 -0.67317012298E+01  0.50000000000E+02  0.47000000000E+01 0. -1.
         -5    1    3    3    0  501 -0.38734680626E+02 -0.30532256965E+02  0.67317012298E+01  0.50000000000E+02  0.47000000000E+01 0.  1.
</event>
<event>
 5    1  0.9081766E-001  0.1000000E+03  0.7546771E-02  0.1163815E+00
         11   -1    0    0    0    0  0.00000000000E+00  0.00000000000E+00  0.50000000000E+02  0.50000000000E+02  0.00000000000E+00 0. -1.
        -11   -1    0    0    0    0 -0.00000000000E+00 -0.00000000000E+00 -0.50000000000E+02  0.50000000000E+02  0.00000000000E+00 0.  1.
         23    2    1    2    0    0  0.00000000000E+00  0.00000000000E+00  0.00000000000E+00  0.10000000000E+03  0.10000000000E+03 0.  0.
          5    1    3    3  501    0 -0.47947019053E+02  0.84737744703E+01  0.10353188406E+02  0.50000000000E+02  0.47000000000E+01 0. -1.
         -5    1    3    3    0  501  0.47947019053E+02 -0.84737744703E+01 -0.10353188406E+02  0.50000000000E+02  0.47000000000E+01 0.  1.
</event>
<event>
 5    1  0.9081766E-001  0.1000000E+03  0.7546771E-02  0.1163815E+00
         11   -1    0    0    0    0  0.00000000000E+00  0.00000000000E+00  0.50000000000E+02  0.50000000000E+02  0.00000000000E+00 0.  1.
        -11   -1    0    0    0    0 -0.00000000000E+00 -0.00000000000E+00 -0.50000000000E+02  0.50000000000E+02  0.00000000000E+00 0. -1.
         23    2    1    2    0    0  0.00000000000E+00  0.00000000000E+00  0.00000000000E+00  0.10000000000E+03  0.10000000000E+03 0.  0.
          5    1    3    3  501    0 -0.41288591457E+02  0.12876684194E+02 -0.24644537319E+02  0.50000000000E+02  0.47000000000E+01 0. -1.
         -5    1    3    3    0  501  0.41288591457E+02 -0.12876684194E+02  0.24644537319E+02  0.50000000000E+02  0.47000000000E+01 0.  1.
</event>
<event>
 5    1  0.9081766E-001  0.1000000E+03  0.7546771E-02  0.1163815E+00
         11   -1    0    0    0    0  0.00000000000E+00  0.00000000000E+00  0.50000000000E+02  0.50000000000E+02  0.00000000000E+00 0. -1.
        -11   -1    0    0    0    0 -0.00000000000E+00 -0.00000000000E+00 -0.50000000000E+02  0.50000000000E+02  0.00000000000E+00 0.  1.
         23    2    1    2    0    0  0.00000000000E+00  0.00000000000E+00  0.00000000000E+00  0.10000000000E+03  0.10000000000E+03 0.  0.
          5    1    3    3  501    0 -0.42840951345E+02  0.84139304294E+01  0.23911684645E+02  0.50000000000E+02  0.47000000000E+01 0. -1.
         -5    1    3    3    0  501  0.42840951345E+02 -0.84139304294E+01 -0.23911684645E+02  0.50000000000E+02  0.47000000000E+01 0.  1.
</event>
<event>
 5    1  0.9081766E-001  0.1000000E+03  0.7546771E-02  0.1163815E+00
         11   -1    0    0    0    0  0.00000000000E+00  0.00000000000E+00  0.50000000000E+02  0.50000000000E+02  0.00000000000E+00 0.  1.
        -11   -1    0    0    0    0 -0.00000000000E+00 -0.00000000000E+00 -0.50000000000E+02  0.50000000000E+02  0.00000000000E+00 0. -1.
         23    2    1    2    0    0  0.00000000000E+00  0.00000000000E+00  0.00000000000E+00  0.10000000000E+03  0.10000000000E+03 0.  0.
          5    1    3    3  501    0 -0.44800199205E+02  0.21527898984E+02 -0.27206095838E+01  0.50000000000E+02  0.47000000000E+01 0. -1.
         -5    1    3    3    0  501  0.44800199205E+02 -0.21527898984E+02  0.27206095838E+01  0.50000000000E+02  0.47000000000E+01 0.  1.
</event>
<event>
 5    1  0.9081766E-001  0.1000000E+03  0.7546771E-02  0.1163815E+00
         11   -1    0    0    0    0  0.00000000000E+00  0.00000000000E+00  0.50000000000E+02  0.50000000000E+02  0.00000000000E+00 0. -1.
        -11   -1    0    0    0    0 -0.00000000000E+00 -0.00000000000E+00 -0.50000000000E+02  0.50000000000E+02  0.00000000000E+00 0.  1.
         23    2    1    2    0    0  0.00000000000E+00  0.00000000000E+00  0.00000000000E+00  0.10000000000E+03  0.10000000000E+03 0.  0.
          5    1    3    3  501    0 -0.36350897139E+02 -0.19679103320E+02  0.27735449694E+02  0.50000000000E+02  0.47000000000E+01 0. -1.
         -5    1    3    3    0  501  0.36350897139E+02  0.19679103320E+02 -0.27735449694E+02  0.50000000000E+02  0.47000000000E+01 0.  1.
</event>
<event>
 5    1  0.9081766E-001  0.1000000E+03  0.7546771E-02  0.1163815E+00
         11   -1    0    0    0    0  0.00000000000E+00  0.00000000000E+00  0.50000000000E+02  0.50000000000E+02  0.00000000000E+00 0. -1.
        -11   -1    0    0    0    0 -0.00000000000E+00 -0.00000000000E+00 -0.50000000000E+02  0.50000000000E+02  0.00000000000E+00 0.  1.
         23    2    1    2    0    0  0.00000000000E+00  0.00000000000E+00  0.00000000000E+00  0.10000000000E+03  0.10000000000E+03 0.  0.
          5    1    3    3  501    0 -0.32639318401E+02 -0.14867987987E+02  0.34518514272E+02  0.50000000000E+02  0.47000000000E+01 0. -1.
         -5    1    3    3    0  501  0.32639318401E+02  0.14867987987E+02 -0.34518514272E+02  0.50000000000E+02  0.47000000000E+01 0.  1.
</event>
<event>
 5    1  0.9081766E-001  0.1000000E+03  0.7546771E-02  0.1163815E+00
         11   -1    0    0    0    0  0.00000000000E+00  0.00000000000E+00  0.50000000000E+02  0.50000000000E+02  0.00000000000E+00 0.  1.
        -11   -1    0    0    0    0 -0.00000000000E+00 -0.00000000000E+00 -0.50000000000E+02  0.50000000000E+02  0.00000000000E+00 0. -1.
         23    2    1    2    0    0  0.00000000000E+00  0.00000000000E+00  0.00000000000E+00  0.10000000000E+03  0.10000000000E+03 0.  0.
          5    1    3    3  501    0  0.35608815287E+02  0.31088832845E+02 -0.15601498203E+02  0.50000000000E+02  0.47000000000E+01 0. -1.
         -5    1    3    3    0  501 -0.35608815287E+02 -0.31088832845E+02  0.15601498203E+02  0.50000000000E+02  0.47000000000E+01 0.  1.
</event>
<event>
 5    1  0.9081766E-001  0.1000000E+03  0.7546771E-02  0.1163815E+00
         11   -1    0    0    0    0  0.00000000000E+00  0.00000000000E+00  0.50000000000E+02  0.50000000000E+02  0.00000000000E+00 0. -1.
        -11   -1    0    0    0    0 -0.00000000000E+00 -0.00000000000E+00 -0.50000000000E+02  0.50000000000E+02  0.00000000000E+00 0.  1.
         23    2    1    2    0    0  0.00000000000E+00  0.00000000000E+00  0.00000000000E+00  0.10000000000E+03  0.10000000000E+03 0.  0.
          5    1    3    3  501    0 -0.44634930009E+00 -0.47834110253E+02 -0.13769846354E+02  0.50000000000E+02  0.47000000000E+01 0. -1.
         -5    1    3    3    0  501  0.44634930009E+00  0.47834110253E+02  0.13769846354E+02  0.50000000000E+02  0.47000000000E+01 0.  1.
</event>
<event>
 5    1  0.9081766E-001  0.1000000E+03  0.7546771E-02  0.1163815E+00
         11   -1    0    0    0    0  0.00000000000E+00  0.00000000000E+00  0.50000000000E+02  0.50000000000E+02  0.00000000000E+00 0. -1.
        -11   -1    0    0    0    0 -0.00000000000E+00 -0.00000000000E+00 -0.50000000000E+02  0.50000000000E+02  0.00000000000E+00 0.  1.
         23    2    1    2    0    0  0.00000000000E+00  0.00000000000E+00  0.00000000000E+00  0.10000000000E+03  0.10000000000E+03 0.  0.
          5    1    3    3  501    0  0.22298735807E+02  0.38593216082E+02  0.22163935883E+02  0.50000000000E+02  0.47000000000E+01 0. -1.
         -5    1    3    3    0  501 -0.22298735807E+02 -0.38593216082E+02 -0.22163935883E+02  0.50000000000E+02  0.47000000000E+01 0.  1.
</event>
<event>
 5    1  0.9081766E-001  0.1000000E+03  0.7546771E-02  0.1163815E+00
         11   -1    0    0    0    0  0.00000000000E+00  0.00000000000E+00  0.50000000000E+02  0.50000000000E+02  0.00000000000E+00 0. -1.
        -11   -1    0    0    0    0 -0.00000000000E+00 -0.00000000000E+00 -0.50000000000E+02  0.50000000000E+02  0.00000000000E+00 0.  1.
         23    2    1    2    0    0  0.00000000000E+00  0.00000000000E+00  0.00000000000E+00  0.10000000000E+03  0.10000000000E+03 0.  0.
          5    1    3    3  501    0 -0.21318157954E+02 -0.41438766591E+01  0.44791454851E+02  0.50000000000E+02  0.47000000000E+01 0. -1.
         -5    1    3    3    0  501  0.21318157954E+02  0.41438766591E+01 -0.44791454851E+02  0.50000000000E+02  0.47000000000E+01 0.  1.
</event>
<event>
 5    1  0.9081766E-001  0.1000000E+03  0.7546771E-02  0.1163815E+00
         11   -1    0    0    0    0  0.00000000000E+00  0.00000000000E+00  0.50000000000E+02  0.50000000000E+02  0.00000000000E+00 0. -1.
        -11   -1    0    0    0    0 -0.00000000000E+00 -0.00000000000E+00 -0.50000000000E+02  0.50000000000E+02  0.00000000000E+00 0.  1.
         23    2    1    2    0    0  0.00000000000E+00  0.00000000000E+00  0.00000000000E+00  0.10000000000E+03  0.10000000000E+03 0.  0.
          5    1    3    3  501    0 -0.41437727413E+01 -0.99094637055E+01  0.48605983958E+02  0.50000000000E+02  0.47000000000E+01 0. -1.
         -5    1    3    3    0  501  0.41437727413E+01  0.99094637055E+01 -0.48605983958E+02  0.50000000000E+02  0.47000000000E+01 0.  1.
</event>
<event>
 5    1  0.9081766E-001  0.1000000E+03  0.7546771E-02  0.1163815E+00
         11   -1    0    0    0    0  0.00000000000E+00  0.00000000000E+00  0.50000000000E+02  0.50000000000E+02  0.00000000000E+00 0.  1.
        -11   -1    0    0    0    0 -0.00000000000E+00 -0.00000000000E+00 -0.50000000000E+02  0.50000000000E+02  0.00000000000E+00 0. -1.
         23    2    1    2    0    0  0.00000000000E+00  0.00000000000E+00  0.00000000000E+00  0.10000000000E+03  0.10000000000E+03 0.  0.
          5    1    3    3  501    0 -0.16797245669E+02  0.66113423474E+00 -0.46854300117E+02  0.50000000000E+02  0.47000000000E+01 0. -1.
         -5    1    3    3    0  501  0.16797245669E+02 -0.66113423474E+00  0.46854300117E+02  0.50000000000E+02  0.47000000000E+01 0.  1.
</event>
<event>
 5    1  0.9081766E-001  0.1000000E+03  0.7546771E-02  0.1163815E+00
         11   -1    0    0    0    0  0.00000000000E+00  0.00000000000E+00  0.50000000000E+02  0.50000000000E+02  0.00000000000E+00 0. -1.
        -11   -1    0    0    0    0 -0.00000000000E+00 -0.00000000000E+00 -0.50000000000E+02  0.50000000000E+02  0.00000000000E+00 0.  1.
         23    2    1    2    0    0  0.00000000000E+00  0.00000000000E+00  0.00000000000E+00  0.10000000000E+03  0.10000000000E+03 0.  0.
          5    1    3    3  501    0  0.47302233100E+02  0.71666113575E+00  0.15488548692E+02  0.50000000000E+02  0.47000000000E+01 0. -1.
         -5    1    3    3    0  501 -0.47302233100E+02 -0.71666113575E+00 -0.15488548692E+02  0.50000000000E+02  0.47000000000E+01 0.  1.
</event>
<event>
 5    1  0.9081766E-001  0.1000000E+03  0.7546771E-02  0.1163815E+00
         11   -1    0    0    0    0  0.00000000000E+00  0.00000000000E+00  0.50000000000E+02  0.50000000000E+02  0.00000000000E+00 0.  1.
        -11   -1    0    0    0    0 -0.00000000000E+00 -0.00000000000E+00 -0.50000000000E+02  0.50000000000E+02  0.00000000000E+00 0. -1.
         23    2    1    2    0    0  0.00000000000E+00  0.00000000000E+00  0.00000000000E+00  0.10000000000E+03  0.10000000000E+03 0.  0.
          5    1    3    3  501    0 -0.59708669175E+01  0.31087592999E+02 -0.38416406779E+02  0.50000000000E+02  0.47000000000E+01 0. -1.
         -5    1    3    3    0  501  0.59708669175E+01 -0.31087592999E+02  0.38416406779E+02  0.50000000000E+02  0.47000000000E+01 0.  1.
</event>
<event>
 5    1  0.9081766E-001  0.1000000E+03  0.7546771E-02  0.1163815E+00
         11   -1    0    0    0    0  0.00000000000E+00  0.00000000000E+00  0.50000000000E+02  0.50000000000E+02  0.00000000000E+00 0. -1.
        -11   -1    0    0    0    0 -0.00000000000E+00 -0.00000000000E+00 -0.50000000000E+02  0.50000000000E+02  0.00000000000E+00 0.  1.
         23    2    1    2    0    0  0.00000000000E+00  0.00000000000E+00  0.00000000000E+00  0.10000000000E+03  0.10000000000E+03 0.  0.
          5    1    3    3  501    0  0.95955597104E+00  0.46654679463E+02  0.17330035677E+02  0.50000000000E+02  0.47000000000E+01 0. -1.
         -5    1    3    3    0  501 -0.95955597104E+00 -0.46654679463E+02 -0.17330035677E+02  0.50000000000E+02  0.47000000000E+01 0.  1.
</event>
<event>
 5    1  0.9081766E-001  0.1000000E+03  0.7546771E-02  0.1163815E+00
         11   -1    0    0    0    0  0.00000000000E+00  0.00000000000E+00  0.50000000000E+02  0.50000000000E+02  0.00000000000E+00 0.  1.
        -11   -1    0    0    0    0 -0.00000000000E+00 -0.00000000000E+00 -0.50000000000E+02  0.50000000000E+02  0.00000000000E+00 0. -1.
         23    2    1    2    0    0  0.00000000000E+00  0.00000000000E+00  0.00000000000E+00  0.10000000000E+03  0.10000000000E+03 0.  0.
          5    1    3    3  501    0 -0.28536318462E+02  0.28824552642E+02  0.28857125526E+02  0.50000000000E+02  0.47000000000E+01 0. -1.
         -5    1    3    3    0  501  0.28536318462E+02 -0.28824552642E+02 -0.28857125526E+02  0.50000000000E+02  0.47000000000E+01 0.  1.
</event>
<event>
 5    1  0.9081766E-001  0.1000000E+03  0.7546771E-02  0.1163815E+00
         11   -1    0    0    0    0  0.00000000000E+00  0.00000000000E+00  0.50000000000E+02  0.50000000000E+02  0.00000000000E+00 0.  1.
        -11   -1    0    0    0    0 -0.00000000000E+00 -0.00000000000E+00 -0.50000000000E+02  0.50000000000E+02  0.00000000000E+00 0. -1.
         23    2    1    2    0    0  0.00000000000E+00  0.00000000000E+00  0.00000000000E+00  0.10000000000E+03  0.10000000000E+03 0.  0.
          5    1    3    3  501    0 -0.80009360122E+01  0.47085039731E+02 -0.14031894259E+02  0.50000000000E+02  0.47000000000E+01 0. -1.
         -5    1    3    3    0  501  0.80009360122E+01 -0.47085039731E+02  0.14031894259E+02  0.50000000000E+02  0.47000000000E+01 0.  1.
</event>
<event>
 5    1  0.9081766E-001  0.1000000E+03  0.7546771E-02  0.1163815E+00
         11   -1    0    0    0    0  0.00000000000E+00  0.00000000000E+00  0.50000000000E+02  0.50000000000E+02  0.00000000000E+00 0.  1.
        -11   -1    0    0    0    0 -0.00000000000E+00 -0.00000000000E+00 -0.50000000000E+02  0.50000000000E+02  0.00000000000E+00 0. -1.
         23    2    1    2    0    0  0.00000000000E+00  0.00000000000E+00  0.00000000000E+00  0.10000000000E+03  0.10000000000E+03 0.  0.
          5    1    3    3  501    0 -0.12423325665E+01  0.46498517467E+02 -0.17727224351E+02  0.50000000000E+02  0.47000000000E+01 0. -1.
         -5    1    3    3    0  501  0.12423325665E+01 -0.46498517467E+02  0.17727224351E+02  0.50000000000E+02  0.47000000000E+01 0.  1.
</event>
<event>
 5    1  0.9081766E-001  0.1000000E+03  0.7546771E-02  0.1163815E+00
         11   -1    0    0    0    0  0.00000000000E+00  0.00000000000E+00  0.50000000000E+02  0.50000000000E+02  0.00000000000E+00 0.  1.
        -11   -1    0    0    0    0 -0.00000000000E+00 -0.00000000000E+00 -0.50000000000E+02  0.50000000000E+02  0.00000000000E+00 0. -1.
         23    2    1    2    0    0  0.00000000000E+00  0.00000000000E+00  0.00000000000E+00  0.10000000000E+03  0.10000000000E+03 0.  0.
          5    1    3    3  501    0 -0.55535174350E+01 -0.39023990263E+02  0.30400602429E+02  0.50000000000E+02  0.47000000000E+01 0. -1.
         -5    1    3    3    0  501  0.55535174350E+01  0.39023990263E+02 -0.30400602429E+02  0.50000000000E+02  0.47000000000E+01 0.  1.
</event>
<event>
 5    1  0.9081766E-001  0.1000000E+03  0.7546771E-02  0.1163815E+00
         11   -1    0    0    0    0  0.00000000000E+00  0.00000000000E+00  0.50000000000E+02  0.50000000000E+02  0.00000000000E+00 0. -1.
        -11   -1    0    0    0    0 -0.00000000000E+00 -0.00000000000E+00 -0.50000000000E+02  0.50000000000E+02  0.00000000000E+00 0.  1.
         23    2    1    2    0    0  0.00000000000E+00  0.00000000000E+00  0.00000000000E+00  0.10000000000E+03  0.10000000000E+03 0.  0.
          5    1    3    3  501    0 -0.24517831477E+02  0.21404880108E+02  0.37664533015E+02  0.50000000000E+02  0.47000000000E+01 0. -1.
         -5    1    3    3    0  501  0.24517831477E+02 -0.21404880108E+02 -0.37664533015E+02  0.50000000000E+02  0.47000000000E+01 0.  1.
</event>
<event>
 5    1  0.9081766E-001  0.1000000E+03  0.7546771E-02  0.1163815E+00
         11   -1    0    0    0    0  0.00000000000E+00  0.00000000000E+00  0.50000000000E+02  0.50000000000E+02  0.00000000000E+00 0.  1.
        -11   -1    0    0    0    0 -0.00000000000E+00 -0.00000000000E+00 -0.50000000000E+02  0.50000000000E+02  0.00000000000E+00 0. -1.
         23    2    1    2    0    0  0.00000000000E+00  0.00000000000E+00  0.00000000000E+00  0.10000000000E+03  0.10000000000E+03 0.  0.
          5    1    3    3  501    0 -0.26103975032E+02  0.14843484174E+02 -0.39700925242E+02  0.50000000000E+02  0.47000000000E+01 0. -1.
         -5    1    3    3    0  501  0.26103975032E+02 -0.14843484174E+02  0.39700925242E+02  0.50000000000E+02  0.47000000000E+01 0.  1.
</event>
<event>
 5    1  0.9081766E-001  0.1000000E+03  0.7546771E-02  0.1163815E+00
         11   -1    0    0    0    0  0.00000000000E+00  0.00000000000E+00  0.50000000000E+02  0.50000000000E+02  0.00000000000E+00 0. -1.
        -11   -1    0    0    0    0 -0.00000000000E+00 -0.00000000000E+00 -0.50000000000E+02  0.50000000000E+02  0.00000000000E+00 0.  1.
         23    2    1    2    0    0  0.00000000000E+00  0.00000000000E+00  0.00000000000E+00  0.10000000000E+03  0.10000000000E+03 0.  0.
          5    1    3    3  501    0 -0.24886471817E+02  0.19696066661E+02  0.38348904529E+02  0.50000000000E+02  0.47000000000E+01 0. -1.
         -5    1    3    3    0  501  0.24886471817E+02 -0.19696066661E+02 -0.38348904529E+02  0.50000000000E+02  0.47000000000E+01 0.  1.
</event>
<event>
 5    1  0.9081766E-001  0.1000000E+03  0.7546771E-02  0.1163815E+00
         11   -1    0    0    0    0  0.00000000000E+00  0.00000000000E+00  0.50000000000E+02  0.50000000000E+02  0.00000000000E+00 0. -1.
        -11   -1    0    0    0    0 -0.00000000000E+00 -0.00000000000E+00 -0.50000000000E+02  0.50000000000E+02  0.00000000000E+00 0.  1.
         23    2    1    2    0    0  0.00000000000E+00  0.00000000000E+00  0.00000000000E+00  0.10000000000E+03  0.10000000000E+03 0.  0.
          5    1    3    3  501    0  0.19600833868E+02  0.45717722014E+02  0.18992644819E+01  0.50000000000E+02  0.47000000000E+01 0. -1.
         -5    1    3    3    0  501 -0.19600833868E+02 -0.45717722014E+02 -0.18992644819E+01  0.50000000000E+02  0.47000000000E+01 0.  1.
</event>
<event>
 5    1  0.9081766E-001  0.1000000E+03  0.7546771E-02  0.1163815E+00
         11   -1    0    0    0    0  0.00000000000E+00  0.00000000000E+00  0.50000000000E+02  0.50000000000E+02  0.00000000000E+00 0.  1.
        -11   -1    0    0    0    0 -0.00000000000E+00 -0.00000000000E+00 -0.50000000000E+02  0.50000000000E+02  0.00000000000E+00 0. -1.
         23    2    1    2    0    0  0.00000000000E+00  0.00000000000E+00  0.00000000000E+00  0.10000000000E+03  0.10000000000E+03 0.  0.
          5    1    3    3  501    0 -0.65263433615E+01 -0.41998304957E+02 -0.25912530232E+02  0.50000000000E+02  0.47000000000E+01 0. -1.
         -5    1    3    3    0  501  0.65263433615E+01  0.41998304957E+02  0.25912530232E+02  0.50000000000E+02  0.47000000000E+01 0.  1.
</event>
<event>
 5    1  0.9081766E-001  0.1000000E+03  0.7546771E-02  0.1163815E+00
         11   -1    0    0    0    0  0.00000000000E+00  0.00000000000E+00  0.50000000000E+02  0.50000000000E+02  0.00000000000E+00 0. -1.
        -11   -1    0    0    0    0 -0.00000000000E+00 -0.00000000000E+00 -0.50000000000E+02  0.50000000000E+02  0.00000000000E+00 0.  1.
         23    2    1    2    0    0  0.00000000000E+00  0.00000000000E+00  0.00000000000E+00  0.10000000000E+03  0.10000000000E+03 0.  0.
          5    1    3    3  501    0 -0.22088642032E+02  0.36574999236E+02  0.25539603052E+02  0.50000000000E+02  0.47000000000E+01 0. -1.
         -5    1    3    3    0  501  0.22088642032E+02 -0.36574999236E+02 -0.25539603052E+02  0.50000000000E+02  0.47000000000E+01 0.  1.
</event>
<event>
 5    1  0.9081766E-001  0.1000000E+03  0.7546771E-02  0.1163815E+00
         11   -1    0    0    0    0  0.00000000000E+00  0.00000000000E+00  0.50000000000E+02  0.50000000000E+02  0.00000000000E+00 0.  1.
        -11   -1    0    0    0    0 -0.00000000000E+00 -0.00000000000E+00 -0.50000000000E+02  0.50000000000E+02  0.00000000000E+00 0. -1.
         23    2    1    2    0    0  0.00000000000E+00  0.00000000000E+00  0.00000000000E+00  0.10000000000E+03  0.10000000000E+03 0.  0.
          5    1    3    3  501    0 -0.42515211938E+02  0.58777279572E+01 -0.25215452959E+02  0.50000000000E+02  0.47000000000E+01 0. -1.
         -5    1    3    3    0  501  0.42515211938E+02 -0.58777279572E+01  0.25215452959E+02  0.50000000000E+02  0.47000000000E+01 0.  1.
</event>
<event>
 5    1  0.9081766E-001  0.1000000E+03  0.7546771E-02  0.1163815E+00
         11   -1    0    0    0    0  0.00000000000E+00  0.00000000000E+00  0.50000000000E+02  0.50000000000E+02  0.00000000000E+00 0. -1.
        -11   -1    0    0    0    0 -0.00000000000E+00 -0.00000000000E+00 -0.50000000000E+02  0.50000000000E+02  0.00000000000E+00 0.  1.
         23    2    1    2    0    0  0.00000000000E+00  0.00000000000E+00  0.00000000000E+00  0.10000000000E+03  0.10000000000E+03 0.  0.
          5    1    3    3  501    0  0.45983505070E+02 -0.10108187822E+02 -0.16163285570E+02  0.50000000000E+02  0.47000000000E+01 0. -1.
         -5    1    3    3    0  501 -0.45983505070E+02  0.10108187822E+02  0.16163285570E+02  0.50000000000E+02  0.47000000000E+01 0.  1.
</event>
<event>
 5    1  0.9081766E-001  0.1000000E+03  0.7546771E-02  0.1163815E+00
         11   -1    0    0    0    0  0.00000000000E+00  0.00000000000E+00  0.50000000000E+02  0.50000000000E+02  0.00000000000E+00 0. -1.
        -11   -1    0    0    0    0 -0.00000000000E+00 -0.00000000000E+00 -0.50000000000E+02  0.50000000000E+02  0.00000000000E+00 0.  1.
         23    2    1    2    0    0  0.00000000000E+00  0.00000000000E+00  0.00000000000E+00  0.10000000000E+03  0.10000000000E+03 0.  0.
          5    1    3    3  501    0 -0.15269670766E+02 -0.23790270863E+01  0.47318996025E+02  0.50000000000E+02  0.47000000000E+01 0. -1.
         -5    1    3    3    0  501  0.15269670766E+02  0.23790270863E+01 -0.47318996025E+02  0.50000000000E+02  0.47000000000E+01 0.  1.
</event>
<event>
 5    1  0.9081766E-001  0.1000000E+03  0.7546771E-02  0.1163815E+00
         11   -1    0    0    0    0  0.00000000000E+00  0.00000000000E+00  0.50000000000E+02  0.50000000000E+02  0.00000000000E+00 0. -1.
        -11   -1    0    0    0    0 -0.00000000000E+00 -0.00000000000E+00 -0.50000000000E+02  0.50000000000E+02  0.00000000000E+00 0.  1.
         23    2    1    2    0    0  0.00000000000E+00  0.00000000000E+00  0.00000000000E+00  0.10000000000E+03  0.10000000000E+03 0.  0.
          5    1    3    3  501    0  0.37736613822E+02  0.28864754892E+02  0.14855433428E+02  0.50000000000E+02  0.47000000000E+01 0. -1.
         -5    1    3    3    0  501 -0.37736613822E+02 -0.28864754892E+02 -0.14855433428E+02  0.50000000000E+02  0.47000000000E+01 0.  1.
</event>
<event>
 5    1  0.9081766E-001  0.1000000E+03  0.7546771E-02  0.1163815E+00
         11   -1    0    0    0    0  0.00000000000E+00  0.00000000000E+00  0.50000000000E+02  0.50000000000E+02  0.00000000000E+00 0. -1.
        -11   -1    0    0    0    0 -0.00000000000E+00 -0.00000000000E+00 -0.50000000000E+02  0.50000000000E+02  0.00000000000E+00 0.  1.
         23    2    1    2    0    0  0.00000000000E+00  0.00000000000E+00  0.00000000000E+00  0.10000000000E+03  0.10000000000E+03 0.  0.
          5    1    3    3  501    0  0.47271353184E+02 -0.43951956989E+00  0.15592818561E+02  0.50000000000E+02  0.47000000000E+01 0. -1.
         -5    1    3    3    0  501 -0.47271353184E+02  0.43951956989E+00 -0.15592818561E+02  0.50000000000E+02  0.47000000000E+01 0.  1.
</event>
<event>
 5    1  0.9081766E-001  0.1000000E+03  0.7546771E-02  0.1163815E+00
         11   -1    0    0    0    0  0.00000000000E+00  0.00000000000E+00  0.50000000000E+02  0.50000000000E+02  0.00000000000E+00 0. -1.
        -11   -1    0    0    0    0 -0.00000000000E+00 -0.00000000000E+00 -0.50000000000E+02  0.50000000000E+02  0.00000000000E+00 0.  1.
         23    2    1    2    0    0  0.00000000000E+00  0.00000000000E+00  0.00000000000E+00  0.10000000000E+03  0.10000000000E+03 0.  0.
          5    1    3    3  501    0 -0.16392219089E+02  0.24222917901E+02  0.40279714518E+02  0.50000000000E+02  0.47000000000E+01 0. -1.
         -5    1    3    3    0  501  0.16392219089E+02 -0.24222917901E+02 -0.40279714518E+02  0.50000000000E+02  0.47000000000E+01 0.  1.
</event>
<event>
 5    1  0.9081766E-001  0.1000000E+03  0.7546771E-02  0.1163815E+00
         11   -1    0    0    0    0  0.00000000000E+00  0.00000000000E+00  0.50000000000E+02  0.50000000000E+02  0.00000000000E+00 0. -1.
        -11   -1    0    0    0    0 -0.00000000000E+00 -0.00000000000E+00 -0.50000000000E+02  0.50000000000E+02  0.00000000000E+00 0.  1.
         23    2    1    2    0    0  0.00000000000E+00  0.00000000000E+00  0.00000000000E+00  0.10000000000E+03  0.10000000000E+03 0.  0.
          5    1    3    3  501    0  0.18552009192E+02 -0.26293225272E+02  0.37978931788E+02  0.50000000000E+02  0.47000000000E+01 0. -1.
         -5    1    3    3    0  501 -0.18552009192E+02  0.26293225272E+02 -0.37978931788E+02  0.50000000000E+02  0.47000000000E+01 0.  1.
</event>
<event>
 5    1  0.9081766E-001  0.1000000E+03  0.7546771E-02  0.1163815E+00
         11   -1    0    0    0    0  0.00000000000E+00  0.00000000000E+00  0.50000000000E+02  0.50000000000E+02  0.00000000000E+00 0. -1.
        -11   -1    0    0    0    0 -0.00000000000E+00 -0.00000000000E+00 -0.50000000000E+02  0.50000000000E+02  0.00000000000E+00 0.  1.
         23    2    1    2    0    0  0.00000000000E+00  0.00000000000E+00  0.00000000000E+00  0.10000000000E+03  0.10000000000E+03 0.  0.
          5    1    3    3  501    0  0.47702783094E+02  0.34930655465E+01  0.13789596738E+02  0.50000000000E+02  0.47000000000E+01 0. -1.
         -5    1    3    3    0  501 -0.47702783094E+02 -0.34930655465E+01 -0.13789596738E+02  0.50000000000E+02  0.47000000000E+01 0.  1.
</event>
<event>
 5    1  0.9081766E-001  0.1000000E+03  0.7546771E-02  0.1163815E+00
         11   -1    0    0    0    0  0.00000000000E+00  0.00000000000E+00  0.50000000000E+02  0.50000000000E+02  0.00000000000E+00 0.  1.
        -11   -1    0    0    0    0 -0.00000000000E+00 -0.00000000000E+00 -0.50000000000E+02  0.50000000000E+02  0.00000000000E+00 0. -1.
         23    2    1    2    0    0  0.00000000000E+00  0.00000000000E+00  0.00000000000E+00  0.10000000000E+03  0.10000000000E+03 0.  0.
          5    1    3    3  501    0  0.18628450889E+02  0.34564439637E+02  0.30597227490E+02  0.50000000000E+02  0.47000000000E+01 0. -1.
         -5    1    3    3    0  501 -0.18628450889E+02 -0.34564439637E+02 -0.30597227490E+02  0.50000000000E+02  0.47000000000E+01 0.  1.
</event>
<event>
 5    1  0.9081766E-001  0.1000000E+03  0.7546771E-02  0.1163815E+00
         11   -1    0    0    0    0  0.00000000000E+00  0.00000000000E+00  0.50000000000E+02  0.50000000000E+02  0.00000000000E+00 0. -1.
        -11   -1    0    0    0    0 -0.00000000000E+00 -0.00000000000E+00 -0.50000000000E+02  0.50000000000E+02  0.00000000000E+00 0.  1.
         23    2    1    2    0    0  0.00000000000E+00  0.00000000000E+00  0.00000000000E+00  0.10000000000E+03  0.10000000000E+03 0.  0.
          5    1    3    3  501    0 -0.79165803200E+01  0.39259684144E+00  0.49143500321E+02  0.50000000000E+02  0.47000000000E+01 0. -1.
         -5    1    3    3    0  501  0.79165803200E+01 -0.39259684144E+00 -0.49143500321E+02  0.50000000000E+02  0.47000000000E+01 0.  1.
</event>
<event>
 5    1  0.9081766E-001  0.1000000E+03  0.7546771E-02  0.1163815E+00
         11   -1    0    0    0    0  0.00000000000E+00  0.00000000000E+00  0.50000000000E+02  0.50000000000E+02  0.00000000000E+00 0. -1.
        -11   -1    0    0    0    0 -0.00000000000E+00 -0.00000000000E+00 -0.50000000000E+02  0.50000000000E+02  0.00000000000E+00 0.  1.
         23    2    1    2    0    0  0.00000000000E+00  0.00000000000E+00  0.00000000000E+00  0.10000000000E+03  0.10000000000E+03 0.  0.
          5    1    3    3  501    0 -0.11655047721E+02 -0.48390561607E+02  0.65069961420E+00  0.50000000000E+02  0.47000000000E+01 0. -1.
         -5    1    3    3    0  501  0.11655047721E+02  0.48390561607E+02 -0.65069961420E+00  0.50000000000E+02  0.47000000000E+01 0.  1.
</event>
<event>
 5    1  0.9081766E-001  0.1000000E+03  0.7546771E-02  0.1163815E+00
         11   -1    0    0    0    0  0.00000000000E+00  0.00000000000E+00  0.50000000000E+02  0.50000000000E+02  0.00000000000E+00 0. -1.
        -11   -1    0    0    0    0 -0.00000000000E+00 -0.00000000000E+00 -0.50000000000E+02  0.50000000000E+02  0.00000000000E+00 0.  1.
         23    2    1    2    0    0  0.00000000000E+00  0.00000000000E+00  0.00000000000E+00  0.10000000000E+03  0.10000000000E+03 0.  0.
          5    1    3    3  501    0 -0.84339564894E+01 -0.48760212070E+02 -0.54055616551E+01  0.50000000000E+02  0.47000000000E+01 0. -1.
         -5    1    3    3    0  501  0.84339564894E+01  0.48760212070E+02  0.54055616551E+01  0.50000000000E+02  0.47000000000E+01 0.  1.
</event>
<event>
 5    1  0.9081766E-001  0.1000000E+03  0.7546771E-02  0.1163815E+00
         11   -1    0    0    0    0  0.00000000000E+00  0.00000000000E+00  0.50000000000E+02  0.50000000000E+02  0.00000000000E+00 0. -1.
        -11   -1    0    0    0    0 -0.00000000000E+00 -0.00000000000E+00 -0.50000000000E+02  0.50000000000E+02  0.00000000000E+00 0.  1.
         23    2    1    2    0    0  0.00000000000E+00  0.00000000000E+00  0.00000000000E+00  0.10000000000E+03  0.10000000000E+03 0.  0.
          5    1    3    3  501    0 -0.43466077788E+02  0.61646320578E+01  0.23465024894E+02  0.50000000000E+02  0.47000000000E+01 0. -1.
         -5    1    3    3    0  501  0.43466077788E+02 -0.61646320578E+01 -0.23465024894E+02  0.50000000000E+02  0.47000000000E+01 0.  1.
</event>
<event>
 5    1  0.9081766E-001  0.1000000E+03  0.7546771E-02  0.1163815E+00
         11   -1    0    0    0    0  0.00000000000E+00  0.00000000000E+00  0.50000000000E+02  0.50000000000E+02  0.00000000000E+00 0. -1.
        -11   -1    0    0    0    0 -0.00000000000E+00 -0.00000000000E+00 -0.50000000000E+02  0.50000000000E+02  0.00000000000E+00 0.  1.
         23    2    1    2    0    0  0.00000000000E+00  0.00000000000E+00  0.00000000000E+00  0.10000000000E+03  0.10000000000E+03 0.  0.
          5    1    3    3  501    0 -0.27804817522E+02  0.39092728878E+02  0.13287613459E+02  0.50000000000E+02  0.47000000000E+01 0. -1.
         -5    1    3    3    0  501  0.27804817522E+02 -0.39092728878E+02 -0.13287613459E+02  0.50000000000E+02  0.47000000000E+01 0.  1.
</event>
<event>
 5    1  0.9081766E-001  0.1000000E+03  0.7546771E-02  0.1163815E+00
         11   -1    0    0    0    0  0.00000000000E+00  0.00000000000E+00  0.50000000000E+02  0.50000000000E+02  0.00000000000E+00 0.  1.
        -11   -1    0    0    0    0 -0.00000000000E+00 -0.00000000000E+00 -0.50000000000E+02  0.50000000000E+02  0.00000000000E+00 0. -1.
         23    2    1    2    0    0  0.00000000000E+00  0.00000000000E+00  0.00000000000E+00  0.10000000000E+03  0.10000000000E+03 0.  0.
          5    1    3    3  501    0  0.86293914929E+01 -0.28657440337E+02 -0.39776811283E+02  0.50000000000E+02  0.47000000000E+01 0. -1.
         -5    1    3    3    0  501 -0.86293914929E+01  0.28657440337E+02  0.39776811283E+02  0.50000000000E+02  0.47000000000E+01 0.  1.
</event>
<event>
 5    1  0.9081766E-001  0.1000000E+03  0.7546771E-02  0.1163815E+00
         11   -1    0    0    0    0  0.00000000000E+00  0.00000000000E+00  0.50000000000E+02  0.50000000000E+02  0.00000000000E+00 0.  1.
        -11   -1    0    0    0    0 -0.00000000000E+00 -0.00000000000E+00 -0.50000000000E+02  0.50000000000E+02  0.00000000000E+00 0. -1.
         23    2    1    2    0    0  0.00000000000E+00  0.00000000000E+00  0.00000000000E+00  0.10000000000E+03  0.10000000000E+03 0.  0.
          5    1    3    3  501    0  0.33561265010E+01 -0.10415551669E+02 -0.48560917396E+02  0.50000000000E+02  0.47000000000E+01 0. -1.
         -5    1    3    3    0  501 -0.33561265010E+01  0.10415551669E+02  0.48560917396E+02  0.50000000000E+02  0.47000000000E+01 0.  1.
</event>
<event>
 5    1  0.9081766E-001  0.1000000E+03  0.7546771E-02  0.1163815E+00
         11   -1    0    0    0    0  0.00000000000E+00  0.00000000000E+00  0.50000000000E+02  0.50000000000E+02  0.00000000000E+00 0. -1.
        -11   -1    0    0    0    0 -0.00000000000E+00 -0.00000000000E+00 -0.50000000000E+02  0.50000000000E+02  0.00000000000E+00 0.  1.
         23    2    1    2    0    0  0.00000000000E+00  0.00000000000E+00  0.00000000000E+00  0.10000000000E+03  0.10000000000E+03 0.  0.
          5    1    3    3  501    0  0.49385443780E+02 -0.58767938483E+01 -0.21097954158E+01  0.50000000000E+02  0.47000000000E+01 0. -1.
         -5    1    3    3    0  501 -0.49385443780E+02  0.58767938483E+01  0.21097954158E+01  0.50000000000E+02  0.47000000000E+01 0.  1.
</event>
<event>
 5    1  0.9081766E-001  0.1000000E+03  0.7546771E-02  0.1163815E+00
         11   -1    0    0    0    0  0.00000000000E+00  0.00000000000E+00  0.50000000000E+02  0.50000000000E+02  0.00000000000E+00 0. -1.
        -11   -1    0    0    0    0 -0.00000000000E+00 -0.00000000000E+00 -0.50000000000E+02  0.50000000000E+02  0.00000000000E+00 0.  1.
         23    2    1    2    0    0  0.00000000000E+00  0.00000000000E+00  0.00000000000E+00  0.10000000000E+03  0.10000000000E+03 0.  0.
          5    1    3    3  501    0 -0.19060011891E+02 -0.36297584930E+02  0.28233159139E+02  0.50000000000E+02  0.47000000000E+01 0. -1.
         -5    1    3    3    0  501  0.19060011891E+02  0.36297584930E+02 -0.28233159139E+02  0.50000000000E+02  0.47000000000E+01 0.  1.
</event>
<event>
 5    1  0.9081766E-001  0.1000000E+03  0.7546771E-02  0.1163815E+00
         11   -1    0    0    0    0  0.00000000000E+00  0.00000000000E+00  0.50000000000E+02  0.50000000000E+02  0.00000000000E+00 0. -1.
        -11   -1    0    0    0    0 -0.00000000000E+00 -0.00000000000E+00 -0.50000000000E+02  0.50000000000E+02  0.00000000000E+00 0.  1.
         23    2    1    2    0    0  0.00000000000E+00  0.00000000000E+00  0.00000000000E+00  0.10000000000E+03  0.10000000000E+03 0.  0.
          5    1    3    3  501    0  0.46520286974E+02 -0.57585277330E+01 -0.16751485254E+02  0.50000000000E+02  0.47000000000E+01 0. -1.
         -5    1    3    3    0  501 -0.46520286974E+02  0.57585277330E+01  0.16751485254E+02  0.50000000000E+02  0.47000000000E+01 0.  1.
</event>
<event>
 5    1  0.9081766E-001  0.1000000E+03  0.7546771E-02  0.1163815E+00
         11   -1    0    0    0    0  0.00000000000E+00  0.00000000000E+00  0.50000000000E+02  0.50000000000E+02  0.00000000000E+00 0. -1.
        -11   -1    0    0    0    0 -0.00000000000E+00 -0.00000000000E+00 -0.50000000000E+02  0.50000000000E+02  0.00000000000E+00 0.  1.
         23    2    1    2    0    0  0.00000000000E+00  0.00000000000E+00  0.00000000000E+00  0.10000000000E+03  0.10000000000E+03 0.  0.
          5    1    3    3  501    0  0.33966029258E+02  0.36323415462E+02 -0.21973496803E+01  0.50000000000E+02  0.47000000000E+01 0. -1.
         -5    1    3    3    0  501 -0.33966029258E+02 -0.36323415462E+02  0.21973496803E+01  0.50000000000E+02  0.47000000000E+01 0. -1.
</event>
<event>
 5    1  0.9081766E-001  0.1000000E+03  0.7546771E-02  0.1163815E+00
         11   -1    0    0    0    0  0.00000000000E+00  0.00000000000E+00  0.50000000000E+02  0.50000000000E+02  0.00000000000E+00 0. -1.
        -11   -1    0    0    0    0 -0.00000000000E+00 -0.00000000000E+00 -0.50000000000E+02  0.50000000000E+02  0.00000000000E+00 0.  1.
         23    2    1    2    0    0  0.00000000000E+00  0.00000000000E+00  0.00000000000E+00  0.10000000000E+03  0.10000000000E+03 0.  0.
          5    1    3    3  501    0 -0.39004467827E+02 -0.14349687830E+02 -0.27397955192E+02  0.50000000000E+02  0.47000000000E+01 0. -1.
         -5    1    3    3    0  501  0.39004467827E+02  0.14349687830E+02  0.27397955192E+02  0.50000000000E+02  0.47000000000E+01 0.  1.
</event>
<event>
 5    1  0.9081766E-001  0.1000000E+03  0.7546771E-02  0.1163815E+00
         11   -1    0    0    0    0  0.00000000000E+00  0.00000000000E+00  0.50000000000E+02  0.50000000000E+02  0.00000000000E+00 0. -1.
        -11   -1    0    0    0    0 -0.00000000000E+00 -0.00000000000E+00 -0.50000000000E+02  0.50000000000E+02  0.00000000000E+00 0.  1.
         23    2    1    2    0    0  0.00000000000E+00  0.00000000000E+00  0.00000000000E+00  0.10000000000E+03  0.10000000000E+03 0.  0.
          5    1    3    3  501    0 -0.46405034754E+02  0.19327305372E+01 -0.17909419369E+02  0.50000000000E+02  0.47000000000E+01 0. -1.
         -5    1    3    3    0  501  0.46405034754E+02 -0.19327305372E+01  0.17909419369E+02  0.50000000000E+02  0.47000000000E+01 0.  1.
</event>
<event>
 5    1  0.9081766E-001  0.1000000E+03  0.7546771E-02  0.1163815E+00
         11   -1    0    0    0    0  0.00000000000E+00  0.00000000000E+00  0.50000000000E+02  0.50000000000E+02  0.00000000000E+00 0.  1.
        -11   -1    0    0    0    0 -0.00000000000E+00 -0.00000000000E+00 -0.50000000000E+02  0.50000000000E+02  0.00000000000E+00 0. -1.
         23    2    1    2    0    0  0.00000000000E+00  0.00000000000E+00  0.00000000000E+00  0.10000000000E+03  0.10000000000E+03 0.  0.
          5    1    3    3  501    0 -0.43655788461E+02 -0.23484267382E+02  0.45355616386E+01  0.50000000000E+02  0.47000000000E+01 0. -1.
         -5    1    3    3    0  501  0.43655788461E+02  0.23484267382E+02 -0.45355616386E+01  0.50000000000E+02  0.47000000000E+01 0.  1.
</event>
<event>
 5    1  0.9081766E-001  0.1000000E+03  0.7546771E-02  0.1163815E+00
         11   -1    0    0    0    0  0.00000000000E+00  0.00000000000E+00  0.50000000000E+02  0.50000000000E+02  0.00000000000E+00 0.  1.
        -11   -1    0    0    0    0 -0.00000000000E+00 -0.00000000000E+00 -0.50000000000E+02  0.50000000000E+02  0.00000000000E+00 0. -1.
         23    2    1    2    0    0  0.00000000000E+00  0.00000000000E+00  0.00000000000E+00  0.10000000000E+03  0.10000000000E+03 0.  0.
          5    1    3    3  501    0 -0.31938773724E+01 -0.40291838265E+02 -0.29056443633E+02  0.50000000000E+02  0.47000000000E+01 0. -1.
         -5    1    3    3    0  501  0.31938773724E+01  0.40291838265E+02  0.29056443633E+02  0.50000000000E+02  0.47000000000E+01 0.  1.
</event>
<event>
 5    1  0.9081766E-001  0.1000000E+03  0.7546771E-02  0.1163815E+00
         11   -1    0    0    0    0  0.00000000000E+00  0.00000000000E+00  0.50000000000E+02  0.50000000000E+02  0.00000000000E+00 0. -1.
        -11   -1    0    0    0    0 -0.00000000000E+00 -0.00000000000E+00 -0.50000000000E+02  0.50000000000E+02  0.00000000000E+00 0.  1.
         23    2    1    2    0    0  0.00000000000E+00  0.00000000000E+00  0.00000000000E+00  0.10000000000E+03  0.10000000000E+03 0.  0.
          5    1    3    3  501    0  0.44659906186E+01 -0.44095285002E+02 -0.22662099822E+02  0.50000000000E+02  0.47000000000E+01 0. -1.
         -5    1    3    3    0  501 -0.44659906186E+01  0.44095285002E+02  0.22662099822E+02  0.50000000000E+02  0.47000000000E+01 0.  1.
</event>
<event>
 5    1  0.9081766E-001  0.1000000E+03  0.7546771E-02  0.1163815E+00
         11   -1    0    0    0    0  0.00000000000E+00  0.00000000000E+00  0.50000000000E+02  0.50000000000E+02  0.00000000000E+00 0.  1.
        -11   -1    0    0    0    0 -0.00000000000E+00 -0.00000000000E+00 -0.50000000000E+02  0.50000000000E+02  0.00000000000E+00 0. -1.
         23    2    1    2    0    0  0.00000000000E+00  0.00000000000E+00  0.00000000000E+00  0.10000000000E+03  0.10000000000E+03 0.  0.
          5    1    3    3  501    0  0.18593169824E+02  0.20538327198E+02 -0.41356754609E+02  0.50000000000E+02  0.47000000000E+01 0. -1.
         -5    1    3    3    0  501 -0.18593169824E+02 -0.20538327198E+02  0.41356754609E+02  0.50000000000E+02  0.47000000000E+01 0.  1.
</event>
<event>
 5    1  0.9081766E-001  0.1000000E+03  0.7546771E-02  0.1163815E+00
         11   -1    0    0    0    0  0.00000000000E+00  0.00000000000E+00  0.50000000000E+02  0.50000000000E+02  0.00000000000E+00 0. -1.
        -11   -1    0    0    0    0 -0.00000000000E+00 -0.00000000000E+00 -0.50000000000E+02  0.50000000000E+02  0.00000000000E+00 0.  1.
         23    2    1    2    0    0  0.00000000000E+00  0.00000000000E+00  0.00000000000E+00  0.10000000000E+03  0.10000000000E+03 0.  0.
          5    1    3    3  501    0  0.29725923821E+02 -0.39229154696E+02 -0.74399512655E+01  0.50000000000E+02  0.47000000000E+01 0. -1.
         -5    1    3    3    0  501 -0.29725923821E+02  0.39229154696E+02  0.74399512655E+01  0.50000000000E+02  0.47000000000E+01 0.  1.
</event>
<event>
 5    1  0.9081766E-001  0.1000000E+03  0.7546771E-02  0.1163815E+00
         11   -1    0    0    0    0  0.00000000000E+00  0.00000000000E+00  0.50000000000E+02  0.50000000000E+02  0.00000000000E+00 0. -1.
        -11   -1    0    0    0    0 -0.00000000000E+00 -0.00000000000E+00 -0.50000000000E+02  0.50000000000E+02  0.00000000000E+00 0.  1.
         23    2    1    2    0    0  0.00000000000E+00  0.00000000000E+00  0.00000000000E+00  0.10000000000E+03  0.10000000000E+03 0.  0.
          5    1    3    3  501    0  0.24166764873E+02 -0.18771740115E+01  0.43478197908E+02  0.50000000000E+02  0.47000000000E+01 0. -1.
         -5    1    3    3    0  501 -0.24166764873E+02  0.18771740115E+01 -0.43478197908E+02  0.50000000000E+02  0.47000000000E+01 0.  1.
</event>
<event>
 5    1  0.9081766E-001  0.1000000E+03  0.7546771E-02  0.1163815E+00
         11   -1    0    0    0    0  0.00000000000E+00  0.00000000000E+00  0.50000000000E+02  0.50000000000E+02  0.00000000000E+00 0.  1.
        -11   -1    0    0    0    0 -0.00000000000E+00 -0.00000000000E+00 -0.50000000000E+02  0.50000000000E+02  0.00000000000E+00 0. -1.
         23    2    1    2    0    0  0.00000000000E+00  0.00000000000E+00  0.00000000000E+00  0.10000000000E+03  0.10000000000E+03 0.  0.
          5    1    3    3  501    0  0.43534600372E+01  0.50877809551E+01 -0.49326178350E+02  0.50000000000E+02  0.47000000000E+01 0. -1.
         -5    1    3    3    0  501 -0.43534600372E+01 -0.50877809551E+01  0.49326178350E+02  0.50000000000E+02  0.47000000000E+01 0.  1.
</event>
<event>
 5    1  0.9081766E-001  0.1000000E+03  0.7546771E-02  0.1163815E+00
         11   -1    0    0    0    0  0.00000000000E+00  0.00000000000E+00  0.50000000000E+02  0.50000000000E+02  0.00000000000E+00 0. -1.
        -11   -1    0    0    0    0 -0.00000000000E+00 -0.00000000000E+00 -0.50000000000E+02  0.50000000000E+02  0.00000000000E+00 0.  1.
         23    2    1    2    0    0  0.00000000000E+00  0.00000000000E+00  0.00000000000E+00  0.10000000000E+03  0.10000000000E+03 0.  0.
          5    1    3    3  501    0 -0.20156235267E+02  0.13705445414E+02  0.43402729705E+02  0.50000000000E+02  0.47000000000E+01 0. -1.
         -5    1    3    3    0  501  0.20156235267E+02 -0.13705445414E+02 -0.43402729705E+02  0.50000000000E+02  0.47000000000E+01 0.  1.
</event>
<event>
 5    1  0.9081766E-001  0.1000000E+03  0.7546771E-02  0.1163815E+00
         11   -1    0    0    0    0  0.00000000000E+00  0.00000000000E+00  0.50000000000E+02  0.50000000000E+02  0.00000000000E+00 0.  1.
        -11   -1    0    0    0    0 -0.00000000000E+00 -0.00000000000E+00 -0.50000000000E+02  0.50000000000E+02  0.00000000000E+00 0. -1.
         23    2    1    2    0    0  0.00000000000E+00  0.00000000000E+00  0.00000000000E+00  0.10000000000E+03  0.10000000000E+03 0.  0.
          5    1    3    3  501    0  0.48126986217E+00  0.11430370665E+01 -0.49763157512E+02  0.50000000000E+02  0.47000000000E+01 0. -1.
         -5    1    3    3    0  501 -0.48126986217E+00 -0.11430370665E+01  0.49763157512E+02  0.50000000000E+02  0.47000000000E+01 0.  1.
</event>
<event>
 5    1  0.9081766E-001  0.1000000E+03  0.7546771E-02  0.1163815E+00
         11   -1    0    0    0    0  0.00000000000E+00  0.00000000000E+00  0.50000000000E+02  0.50000000000E+02  0.00000000000E+00 0. -1.
        -11   -1    0    0    0    0 -0.00000000000E+00 -0.00000000000E+00 -0.50000000000E+02  0.50000000000E+02  0.00000000000E+00 0.  1.
         23    2    1    2    0    0  0.00000000000E+00  0.00000000000E+00  0.00000000000E+00  0.10000000000E+03  0.10000000000E+03 0.  0.
          5    1    3    3  501    0  0.37522250866E+02 -0.29204023197E+02 -0.14734847100E+02  0.50000000000E+02  0.47000000000E+01 0. -1.
         -5    1    3    3    0  501 -0.37522250866E+02  0.29204023197E+02  0.14734847100E+02  0.50000000000E+02  0.47000000000E+01 0.  1.
</event>
<event>
 5    1  0.9081766E-001  0.1000000E+03  0.7546771E-02  0.1163815E+00
         11   -1    0    0    0    0  0.00000000000E+00  0.00000000000E+00  0.50000000000E+02  0.50000000000E+02  0.00000000000E+00 0. -1.
        -11   -1    0    0    0    0 -0.00000000000E+00 -0.00000000000E+00 -0.50000000000E+02  0.50000000000E+02  0.00000000000E+00 0.  1.
         23    2    1    2    0    0  0.00000000000E+00  0.00000000000E+00  0.00000000000E+00  0.10000000000E+03  0.10000000000E+03 0.  0.
          5    1    3    3  501    0 -0.48525400699E+02 -0.46399278443E+01  0.10082983516E+02  0.50000000000E+02  0.47000000000E+01 0. -1.
         -5    1    3    3    0  501  0.48525400699E+02  0.46399278443E+01 -0.10082983516E+02  0.50000000000E+02  0.47000000000E+01 0.  1.
</event>
<event>
 5    1  0.9081766E-001  0.1000000E+03  0.7546771E-02  0.1163815E+00
         11   -1    0    0    0    0  0.00000000000E+00  0.00000000000E+00  0.50000000000E+02  0.50000000000E+02  0.00000000000E+00 0. -1.
        -11   -1    0    0    0    0 -0.00000000000E+00 -0.00000000000E+00 -0.50000000000E+02  0.50000000000E+02  0.00000000000E+00 0.  1.
         23    2    1    2    0    0  0.00000000000E+00  0.00000000000E+00  0.00000000000E+00  0.10000000000E+03  0.10000000000E+03 0.  0.
          5    1    3    3  501    0 -0.49291887499E+02  0.21832235499E+01  0.65919163930E+01  0.50000000000E+02  0.47000000000E+01 0. -1.
         -5    1    3    3    0  501  0.49291887499E+02 -0.21832235499E+01 -0.65919163930E+01  0.50000000000E+02  0.47000000000E+01 0.  1.
</event>
<event>
 5    1  0.9081766E-001  0.1000000E+03  0.7546771E-02  0.1163815E+00
         11   -1    0    0    0    0  0.00000000000E+00  0.00000000000E+00  0.50000000000E+02  0.50000000000E+02  0.00000000000E+00 0. -1.
        -11   -1    0    0    0    0 -0.00000000000E+00 -0.00000000000E+00 -0.50000000000E+02  0.50000000000E+02  0.00000000000E+00 0.  1.
         23    2    1    2    0    0  0.00000000000E+00  0.00000000000E+00  0.00000000000E+00  0.10000000000E+03  0.10000000000E+03 0.  0.
          5    1    3    3  501    0  0.29709264656E+02  0.39419113741E+02  0.64345213864E+01  0.50000000000E+02  0.47000000000E+01 0. -1.
         -5    1    3    3    0  501 -0.29709264656E+02 -0.39419113741E+02 -0.64345213864E+01  0.50000000000E+02  0.47000000000E+01 0.  1.
</event>
<event>
 5    1  0.9081766E-001  0.1000000E+03  0.7546771E-02  0.1163815E+00
         11   -1    0    0    0    0  0.00000000000E+00  0.00000000000E+00  0.50000000000E+02  0.50000000000E+02  0.00000000000E+00 0.  1.
        -11   -1    0    0    0    0 -0.00000000000E+00 -0.00000000000E+00 -0.50000000000E+02  0.50000000000E+02  0.00000000000E+00 0. -1.
         23    2    1    2    0    0  0.00000000000E+00  0.00000000000E+00  0.00000000000E+00  0.10000000000E+03  0.10000000000E+03 0.  0.
          5    1    3    3  501    0 -0.24836441108E+02 -0.26572774250E+02 -0.33984538569E+02  0.50000000000E+02  0.47000000000E+01 0. -1.
         -5    1    3    3    0  501  0.24836441108E+02  0.26572774250E+02  0.33984538569E+02  0.50000000000E+02  0.47000000000E+01 0.  1.
</event>
<event>
 5    1  0.9081766E-001  0.1000000E+03  0.7546771E-02  0.1163815E+00
         11   -1    0    0    0    0  0.00000000000E+00  0.00000000000E+00  0.50000000000E+02  0.50000000000E+02  0.00000000000E+00 0. -1.
        -11   -1    0    0    0    0 -0.00000000000E+00 -0.00000000000E+00 -0.50000000000E+02  0.50000000000E+02  0.00000000000E+00 0.  1.
         23    2    1    2    0    0  0.00000000000E+00  0.00000000000E+00  0.00000000000E+00  0.10000000000E+03  0.10000000000E+03 0.  0.
          5    1    3    3  501    0 -0.19547422670E+01 -0.19437750261E+02  0.45784963115E+02  0.50000000000E+02  0.47000000000E+01 0. -1.
         -5    1    3    3    0  501  0.19547422670E+01  0.19437750261E+02 -0.45784963115E+02  0.50000000000E+02  0.47000000000E+01 0.  1.
</event>
<event>
 5    1  0.9081766E-001  0.1000000E+03  0.7546771E-02  0.1163815E+00
         11   -1    0    0    0    0  0.00000000000E+00  0.00000000000E+00  0.50000000000E+02  0.50000000000E+02  0.00000000000E+00 0.  1.
        -11   -1    0    0    0    0 -0.00000000000E+00 -0.00000000000E+00 -0.50000000000E+02  0.50000000000E+02  0.00000000000E+00 0. -1.
         23    2    1    2    0    0  0.00000000000E+00  0.00000000000E+00  0.00000000000E+00  0.10000000000E+03  0.10000000000E+03 0.  0.
          5    1    3    3  501    0  0.20104647739E+02  0.41326330206E+02 -0.19127142260E+02  0.50000000000E+02  0.47000000000E+01 0. -1.
         -5    1    3    3    0  501 -0.20104647739E+02 -0.41326330206E+02  0.19127142260E+02  0.50000000000E+02  0.47000000000E+01 0.  1.
</event>
<event>
 5    1  0.9081766E-001  0.1000000E+03  0.7546771E-02  0.1163815E+00
         11   -1    0    0    0    0  0.00000000000E+00  0.00000000000E+00  0.50000000000E+02  0.50000000000E+02  0.00000000000E+00 0. -1.
        -11   -1    0    0    0    0 -0.00000000000E+00 -0.00000000000E+00 -0.50000000000E+02  0.50000000000E+02  0.00000000000E+00 0.  1.
         23    2    1    2    0    0  0.00000000000E+00  0.00000000000E+00  0.00000000000E+00  0.10000000000E+03  0.10000000000E+03 0.  0.
          5    1    3    3  501    0 -0.74227546078E+01  0.40920096243E+02  0.27356140764E+02  0.50000000000E+02  0.47000000000E+01 0. -1.
         -5    1    3    3    0  501  0.74227546078E+01 -0.40920096243E+02 -0.27356140764E+02  0.50000000000E+02  0.47000000000E+01 0.  1.
</event>
<event>
 5    1  0.9081766E-001  0.1000000E+03  0.7546771E-02  0.1163815E+00
         11   -1    0    0    0    0  0.00000000000E+00  0.00000000000E+00  0.50000000000E+02  0.50000000000E+02  0.00000000000E+00 0. -1.
        -11   -1    0    0    0    0 -0.00000000000E+00 -0.00000000000E+00 -0.50000000000E+02  0.50000000000E+02  0.00000000000E+00 0.  1.
         23    2    1    2    0    0  0.00000000000E+00  0.00000000000E+00  0.00000000000E+00  0.10000000000E+03  0.10000000000E+03 0.  0.
          5    1    3    3  501    0 -0.41885490206E+02 -0.49686379016E+01  0.26435361688E+02  0.50000000000E+02  0.47000000000E+01 0. -1.
         -5    1    3    3    0  501  0.41885490206E+02  0.49686379016E+01 -0.26435361688E+02  0.50000000000E+02  0.47000000000E+01 0.  1.
</event>
<event>
 5    1  0.9081766E-001  0.1000000E+03  0.7546771E-02  0.1163815E+00
         11   -1    0    0    0    0  0.00000000000E+00  0.00000000000E+00  0.50000000000E+02  0.50000000000E+02  0.00000000000E+00 0.  1.
        -11   -1    0    0    0    0 -0.00000000000E+00 -0.00000000000E+00 -0.50000000000E+02  0.50000000000E+02  0.00000000000E+00 0. -1.
         23    2    1    2    0    0  0.00000000000E+00  0.00000000000E+00  0.00000000000E+00  0.10000000000E+03  0.10000000000E+03 0.  0.
          5    1    3    3  501    0 -0.17390989599E+02 -0.39032083531E+02 -0.25533506144E+02  0.50000000000E+02  0.47000000000E+01 0. -1.
         -5    1    3    3    0  501  0.17390989599E+02  0.39032083531E+02  0.25533506144E+02  0.50000000000E+02  0.47000000000E+01 0.  1.
</event>
<event>
 5    1  0.9081766E-001  0.1000000E+03  0.7546771E-02  0.1163815E+00
         11   -1    0    0    0    0  0.00000000000E+00  0.00000000000E+00  0.50000000000E+02  0.50000000000E+02  0.00000000000E+00 0. -1.
        -11   -1    0    0    0    0 -0.00000000000E+00 -0.00000000000E+00 -0.50000000000E+02  0.50000000000E+02  0.00000000000E+00 0.  1.
         23    2    1    2    0    0  0.00000000000E+00  0.00000000000E+00  0.00000000000E+00  0.10000000000E+03  0.10000000000E+03 0.  0.
          5    1    3    3  501    0 -0.43530781046E+02  0.23490758646E+02 -0.55825943551E+01  0.50000000000E+02  0.47000000000E+01 0. -1.
         -5    1    3    3    0  501  0.43530781046E+02 -0.23490758646E+02  0.55825943551E+01  0.50000000000E+02  0.47000000000E+01 0.  1.
</event>
<event>
 5    1  0.9081766E-001  0.1000000E+03  0.7546771E-02  0.1163815E+00
         11   -1    0    0    0    0  0.00000000000E+00  0.00000000000E+00  0.50000000000E+02  0.50000000000E+02  0.00000000000E+00 0. -1.
        -11   -1    0    0    0    0 -0.00000000000E+00 -0.00000000000E+00 -0.50000000000E+02  0.50000000000E+02  0.00000000000E+00 0.  1.
         23    2    1    2    0    0  0.00000000000E+00  0.00000000000E+00  0.00000000000E+00  0.10000000000E+03  0.10000000000E+03 0.  0.
          5    1    3    3  501    0 -0.20051806461E+02 -0.33700823692E+02  0.30660879637E+02  0.50000000000E+02  0.47000000000E+01 0. -1.
         -5    1    3    3    0  501  0.20051806461E+02  0.33700823692E+02 -0.30660879637E+02  0.50000000000E+02  0.47000000000E+01 0.  1.
</event>
<event>
 5    1  0.9081766E-001  0.1000000E+03  0.7546771E-02  0.1163815E+00
         11   -1    0    0    0    0  0.00000000000E+00  0.00000000000E+00  0.50000000000E+02  0.50000000000E+02  0.00000000000E+00 0. -1.
        -11   -1    0    0    0    0 -0.00000000000E+00 -0.00000000000E+00 -0.50000000000E+02  0.50000000000E+02  0.00000000000E+00 0.  1.
         23    2    1    2    0    0  0.00000000000E+00  0.00000000000E+00  0.00000000000E+00  0.10000000000E+03  0.10000000000E+03 0.  0.
          5    1    3    3  501    0  0.44680185885E+02 -0.28451466354E+01  0.21759966221E+02  0.50000000000E+02  0.47000000000E+01 0. -1.
         -5    1    3    3    0  501 -0.44680185885E+02  0.28451466354E+01 -0.21759966221E+02  0.50000000000E+02  0.47000000000E+01 0.  1.
</event>
<event>
 5    1  0.9081766E-001  0.1000000E+03  0.7546771E-02  0.1163815E+00
         11   -1    0    0    0    0  0.00000000000E+00  0.00000000000E+00  0.50000000000E+02  0.50000000000E+02  0.00000000000E+00 0. -1.
        -11   -1    0    0    0    0 -0.00000000000E+00 -0.00000000000E+00 -0.50000000000E+02  0.50000000000E+02  0.00000000000E+00 0.  1.
         23    2    1    2    0    0  0.00000000000E+00  0.00000000000E+00  0.00000000000E+00  0.10000000000E+03  0.10000000000E+03 0.  0.
          5    1    3    3  501    0 -0.13149271816E+02 -0.19212001001E+02  0.43998928035E+02  0.50000000000E+02  0.47000000000E+01 0. -1.
         -5    1    3    3    0  501  0.13149271816E+02  0.19212001001E+02 -0.43998928035E+02  0.50000000000E+02  0.47000000000E+01 0.  1.
</event>
<event>
 5    1  0.9081766E-001  0.1000000E+03  0.7546771E-02  0.1163815E+00
         11   -1    0    0    0    0  0.00000000000E+00  0.00000000000E+00  0.50000000000E+02  0.50000000000E+02  0.00000000000E+00 0. -1.
        -11   -1    0    0    0    0 -0.00000000000E+00 -0.00000000000E+00 -0.50000000000E+02  0.50000000000E+02  0.00000000000E+00 0.  1.
         23    2    1    2    0    0  0.00000000000E+00  0.00000000000E+00  0.00000000000E+00  0.10000000000E+03  0.10000000000E+03 0.  0.
          5    1    3    3  501    0  0.18540403056E+02 -0.35510510390E+02  0.29549401116E+02  0.50000000000E+02  0.47000000000E+01 0. -1.
         -5    1    3    3    0  501 -0.18540403056E+02  0.35510510390E+02 -0.29549401116E+02  0.50000000000E+02  0.47000000000E+01 0.  1.
</event>
<event>
 5    1  0.9081766E-001  0.1000000E+03  0.7546771E-02  0.1163815E+00
         11   -1    0    0    0    0  0.00000000000E+00  0.00000000000E+00  0.50000000000E+02  0.50000000000E+02  0.00000000000E+00 0. -1.
        -11   -1    0    0    0    0 -0.00000000000E+00 -0.00000000000E+00 -0.50000000000E+02  0.50000000000E+02  0.00000000000E+00 0.  1.
         23    2    1    2    0    0  0.00000000000E+00  0.00000000000E+00  0.00000000000E+00  0.10000000000E+03  0.10000000000E+03 0.  0.
          5    1    3    3  501    0 -0.47848888987E+02 -0.33002991965E+01 -0.13322981946E+02  0.50000000000E+02  0.47000000000E+01 0. -1.
         -5    1    3    3    0  501  0.47848888987E+02  0.33002991965E+01  0.13322981946E+02  0.50000000000E+02  0.47000000000E+01 0.  1.
</event>
<event>
 5    1  0.9081766E-001  0.1000000E+03  0.7546771E-02  0.1163815E+00
         11   -1    0    0    0    0  0.00000000000E+00  0.00000000000E+00  0.50000000000E+02  0.50000000000E+02  0.00000000000E+00 0. -1.
        -11   -1    0    0    0    0 -0.00000000000E+00 -0.00000000000E+00 -0.50000000000E+02  0.50000000000E+02  0.00000000000E+00 0.  1.
         23    2    1    2    0    0  0.00000000000E+00  0.00000000000E+00  0.00000000000E+00  0.10000000000E+03  0.10000000000E+03 0.  0.
          5    1    3    3  501    0  0.24330331868E+02  0.34921463042E+02  0.25815428917E+02  0.50000000000E+02  0.47000000000E+01 0. -1.
         -5    1    3    3    0  501 -0.24330331868E+02 -0.34921463042E+02 -0.25815428917E+02  0.50000000000E+02  0.47000000000E+01 0.  1.
</event>
<event>
 5    1  0.9081766E-001  0.1000000E+03  0.7546771E-02  0.1163815E+00
         11   -1    0    0    0    0  0.00000000000E+00  0.00000000000E+00  0.50000000000E+02  0.50000000000E+02  0.00000000000E+00 0.  1.
        -11   -1    0    0    0    0 -0.00000000000E+00 -0.00000000000E+00 -0.50000000000E+02  0.50000000000E+02  0.00000000000E+00 0. -1.
         23    2    1    2    0    0  0.00000000000E+00  0.00000000000E+00  0.00000000000E+00  0.10000000000E+03  0.10000000000E+03 0.  0.
          5    1    3    3  501    0 -0.24345990188E+02  0.36849140689E+02 -0.22963527435E+02  0.50000000000E+02  0.47000000000E+01 0. -1.
         -5    1    3    3    0  501  0.24345990188E+02 -0.36849140689E+02  0.22963527435E+02  0.50000000000E+02  0.47000000000E+01 0.  1.
</event>
<event>
 5    1  0.9081766E-001  0.1000000E+03  0.7546771E-02  0.1163815E+00
         11   -1    0    0    0    0  0.00000000000E+00  0.00000000000E+00  0.50000000000E+02  0.50000000000E+02  0.00000000000E+00 0.  1.
        -11   -1    0    0    0    0 -0.00000000000E+00 -0.00000000000E+00 -0.50000000000E+02  0.50000000000E+02  0.00000000000E+00 0. -1.
         23    2    1    2    0    0  0.00000000000E+00  0.00000000000E+00  0.00000000000E+00  0.10000000000E+03  0.10000000000E+03 0.  0.
          5    1    3    3  501    0 -0.25811393911E+02 -0.23333190277E+02 -0.35598373220E+02  0.50000000000E+02  0.47000000000E+01 0. -1.
         -5    1    3    3    0  501  0.25811393911E+02  0.23333190277E+02  0.35598373220E+02  0.50000000000E+02  0.47000000000E+01 0.  1.
</event>
<event>
 5    1  0.9081766E-001  0.1000000E+03  0.7546771E-02  0.1163815E+00
         11   -1    0    0    0    0  0.00000000000E+00  0.00000000000E+00  0.50000000000E+02  0.50000000000E+02  0.00000000000E+00 0. -1.
        -11   -1    0    0    0    0 -0.00000000000E+00 -0.00000000000E+00 -0.50000000000E+02  0.50000000000E+02  0.00000000000E+00 0.  1.
         23    2    1    2    0    0  0.00000000000E+00  0.00000000000E+00  0.00000000000E+00  0.10000000000E+03  0.10000000000E+03 0.  0.
          5    1    3    3  501    0  0.48201018434E+02  0.12368547645E+02  0.12612894371E+01  0.50000000000E+02  0.47000000000E+01 0. -1.
         -5    1    3    3    0  501 -0.48201018434E+02 -0.12368547645E+02 -0.12612894371E+01  0.50000000000E+02  0.47000000000E+01 0.  1.
</event>
<event>
 5    1  0.9081766E-001  0.1000000E+03  0.7546771E-02  0.1163815E+00
         11   -1    0    0    0    0  0.00000000000E+00  0.00000000000E+00  0.50000000000E+02  0.50000000000E+02  0.00000000000E+00 0. -1.
        -11   -1    0    0    0    0 -0.00000000000E+00 -0.00000000000E+00 -0.50000000000E+02  0.50000000000E+02  0.00000000000E+00 0.  1.
         23    2    1    2    0    0  0.00000000000E+00  0.00000000000E+00  0.00000000000E+00  0.10000000000E+03  0.10000000000E+03 0.  0.
          5    1    3    3  501    0  0.12743117519E+01 -0.49111277257E+02  0.80230029102E+01  0.50000000000E+02  0.47000000000E+01 0. -1.
         -5    1    3    3    0  501 -0.12743117519E+01  0.49111277257E+02 -0.80230029102E+01  0.50000000000E+02  0.47000000000E+01 0.  1.
</event>
<event>
 5    1  0.9081766E-001  0.1000000E+03  0.7546771E-02  0.1163815E+00
         11   -1    0    0    0    0  0.00000000000E+00  0.00000000000E+00  0.50000000000E+02  0.50000000000E+02  0.00000000000E+00 0. -1.
        -11   -1    0    0    0    0 -0.00000000000E+00 -0.00000000000E+00 -0.50000000000E+02  0.50000000000E+02  0.00000000000E+00 0.  1.
         23    2    1    2    0    0  0.00000000000E+00  0.00000000000E+00  0.00000000000E+00  0.10000000000E+03  0.10000000000E+03 0.  0.
          5    1    3    3  501    0  0.40622155230E+02  0.10459290355E+02  0.26802122112E+02  0.50000000000E+02  0.47000000000E+01 0. -1.
         -5    1    3    3    0  501 -0.40622155230E+02 -0.10459290355E+02 -0.26802122112E+02  0.50000000000E+02  0.47000000000E+01 0.  1.
</event>
<event>
 5    1  0.9081766E-001  0.1000000E+03  0.7546771E-02  0.1163815E+00
         11   -1    0    0    0    0  0.00000000000E+00  0.00000000000E+00  0.50000000000E+02  0.50000000000E+02  0.00000000000E+00 0.  1.
        -11   -1    0    0    0    0 -0.00000000000E+00 -0.00000000000E+00 -0.50000000000E+02  0.50000000000E+02  0.00000000000E+00 0. -1.
         23    2    1    2    0    0  0.00000000000E+00  0.00000000000E+00  0.00000000000E+00  0.10000000000E+03  0.10000000000E+03 0.  0.
          5    1    3    3  501    0 -0.31263613607E+02 -0.26180385067E+01 -0.38647669252E+02  0.50000000000E+02  0.47000000000E+01 0. -1.
         -5    1    3    3    0  501  0.31263613607E+02  0.26180385067E+01  0.38647669252E+02  0.50000000000E+02  0.47000000000E+01 0.  1.
</event>
<event>
 5    1  0.9081766E-001  0.1000000E+03  0.7546771E-02  0.1163815E+00
         11   -1    0    0    0    0  0.00000000000E+00  0.00000000000E+00  0.50000000000E+02  0.50000000000E+02  0.00000000000E+00 0. -1.
        -11   -1    0    0    0    0 -0.00000000000E+00 -0.00000000000E+00 -0.50000000000E+02  0.50000000000E+02  0.00000000000E+00 0.  1.
         23    2    1    2    0    0  0.00000000000E+00  0.00000000000E+00  0.00000000000E+00  0.10000000000E+03  0.10000000000E+03 0.  0.
          5    1    3    3  501    0  0.34286065431E+02 -0.33271289906E+02  0.13978447170E+02  0.50000000000E+02  0.47000000000E+01 0. -1.
         -5    1    3    3    0  501 -0.34286065431E+02  0.33271289906E+02 -0.13978447170E+02  0.50000000000E+02  0.47000000000E+01 0.  1.
</event>
<event>
 5    1  0.9081766E-001  0.1000000E+03  0.7546771E-02  0.1163815E+00
         11   -1    0    0    0    0  0.00000000000E+00  0.00000000000E+00  0.50000000000E+02  0.50000000000E+02  0.00000000000E+00 0. -1.
        -11   -1    0    0    0    0 -0.00000000000E+00 -0.00000000000E+00 -0.50000000000E+02  0.50000000000E+02  0.00000000000E+00 0.  1.
         23    2    1    2    0    0  0.00000000000E+00  0.00000000000E+00  0.00000000000E+00  0.10000000000E+03  0.10000000000E+03 0.  0.
          5    1    3    3  501    0 -0.45410314583E+02 -0.19199602069E+02 -0.68693966178E+01  0.50000000000E+02  0.47000000000E+01 0. -1.
         -5    1    3    3    0  501  0.45410314583E+02  0.19199602069E+02  0.68693966178E+01  0.50000000000E+02  0.47000000000E+01 0.  1.
</event>
<event>
 5    1  0.9081766E-001  0.1000000E+03  0.7546771E-02  0.1163815E+00
         11   -1    0    0    0    0  0.00000000000E+00  0.00000000000E+00  0.50000000000E+02  0.50000000000E+02  0.00000000000E+00 0. -1.
        -11   -1    0    0    0    0 -0.00000000000E+00 -0.00000000000E+00 -0.50000000000E+02  0.50000000000E+02  0.00000000000E+00 0.  1.
         23    2    1    2    0    0  0.00000000000E+00  0.00000000000E+00  0.00000000000E+00  0.10000000000E+03  0.10000000000E+03 0.  0.
          5    1    3    3  501    0  0.16844668667E+02  0.45120954080E+02  0.12580407005E+02  0.50000000000E+02  0.47000000000E+01 0. -1.
         -5    1    3    3    0  501 -0.16844668667E+02 -0.45120954080E+02 -0.12580407005E+02  0.50000000000E+02  0.47000000000E+01 0.  1.
</event>
<event>
 5    1  0.9081766E-001  0.1000000E+03  0.7546771E-02  0.1163815E+00
         11   -1    0    0    0    0  0.00000000000E+00  0.00000000000E+00  0.50000000000E+02  0.50000000000E+02  0.00000000000E+00 0. -1.
        -11   -1    0    0    0    0 -0.00000000000E+00 -0.00000000000E+00 -0.50000000000E+02  0.50000000000E+02  0.00000000000E+00 0.  1.
         23    2    1    2    0    0  0.00000000000E+00  0.00000000000E+00  0.00000000000E+00  0.10000000000E+03  0.10000000000E+03 0.  0.
          5    1    3    3  501    0  0.23165804328E+02  0.33873269841E+02  0.28175469829E+02  0.50000000000E+02  0.47000000000E+01 0. -1.
         -5    1    3    3    0  501 -0.23165804328E+02 -0.33873269841E+02 -0.28175469829E+02  0.50000000000E+02  0.47000000000E+01 0.  1.
</event>
<event>
 5    1  0.9081766E-001  0.1000000E+03  0.7546771E-02  0.1163815E+00
         11   -1    0    0    0    0  0.00000000000E+00  0.00000000000E+00  0.50000000000E+02  0.50000000000E+02  0.00000000000E+00 0. -1.
        -11   -1    0    0    0    0 -0.00000000000E+00 -0.00000000000E+00 -0.50000000000E+02  0.50000000000E+02  0.00000000000E+00 0.  1.
         23    2    1    2    0    0  0.00000000000E+00  0.00000000000E+00  0.00000000000E+00  0.10000000000E+03  0.10000000000E+03 0.  0.
          5    1    3    3  501    0 -0.37902314458E+02  0.29530140000E+02  0.13011356204E+02  0.50000000000E+02  0.47000000000E+01 0. -1.
         -5    1    3    3    0  501  0.37902314458E+02 -0.29530140000E+02 -0.13011356204E+02  0.50000000000E+02  0.47000000000E+01 0.  1.
</event>
<event>
 5    1  0.9081766E-001  0.1000000E+03  0.7546771E-02  0.1163815E+00
         11   -1    0    0    0    0  0.00000000000E+00  0.00000000000E+00  0.50000000000E+02  0.50000000000E+02  0.00000000000E+00 0. -1.
        -11   -1    0    0    0    0 -0.00000000000E+00 -0.00000000000E+00 -0.50000000000E+02  0.50000000000E+02  0.00000000000E+00 0.  1.
         23    2    1    2    0    0  0.00000000000E+00  0.00000000000E+00  0.00000000000E+00  0.10000000000E+03  0.10000000000E+03 0.  0.
          5    1    3    3  501    0 -0.31983407460E+01  0.37228540879E+02 -0.32889456677E+02  0.50000000000E+02  0.47000000000E+01 0. -1.
         -5    1    3    3    0  501  0.31983407460E+01 -0.37228540879E+02  0.32889456677E+02  0.50000000000E+02  0.47000000000E+01 0.  1.
</event>
<event>
 5    1  0.9081766E-001  0.1000000E+03  0.7546771E-02  0.1163815E+00
         11   -1    0    0    0    0  0.00000000000E+00  0.00000000000E+00  0.50000000000E+02  0.50000000000E+02  0.00000000000E+00 0. -1.
        -11   -1    0    0    0    0 -0.00000000000E+00 -0.00000000000E+00 -0.50000000000E+02  0.50000000000E+02  0.00000000000E+00 0.  1.
         23    2    1    2    0    0  0.00000000000E+00  0.00000000000E+00  0.00000000000E+00  0.10000000000E+03  0.10000000000E+03 0.  0.
          5    1    3    3  501    0  0.13912016486E+02 -0.16340319321E+02  0.44915028240E+02  0.50000000000E+02  0.47000000000E+01 0. -1.
         -5    1    3    3    0  501 -0.13912016486E+02  0.16340319321E+02 -0.44915028240E+02  0.50000000000E+02  0.47000000000E+01 0.  1.
</event>
<event>
 5    1  0.9081766E-001  0.1000000E+03  0.7546771E-02  0.1163815E+00
         11   -1    0    0    0    0  0.00000000000E+00  0.00000000000E+00  0.50000000000E+02  0.50000000000E+02  0.00000000000E+00 0. -1.
        -11   -1    0    0    0    0 -0.00000000000E+00 -0.00000000000E+00 -0.50000000000E+02  0.50000000000E+02  0.00000000000E+00 0.  1.
         23    2    1    2    0    0  0.00000000000E+00  0.00000000000E+00  0.00000000000E+00  0.10000000000E+03  0.10000000000E+03 0.  0.
          5    1    3    3  501    0 -0.17221109774E+02  0.10374289576E+02  0.45538088387E+02  0.50000000000E+02  0.47000000000E+01 0. -1.
         -5    1    3    3    0  501  0.17221109774E+02 -0.10374289576E+02 -0.45538088387E+02  0.50000000000E+02  0.47000000000E+01 0.  1.
</event>
<event>
 5    1  0.9081766E-001  0.1000000E+03  0.7546771E-02  0.1163815E+00
         11   -1    0    0    0    0  0.00000000000E+00  0.00000000000E+00  0.50000000000E+02  0.50000000000E+02  0.00000000000E+00 0. -1.
        -11   -1    0    0    0    0 -0.00000000000E+00 -0.00000000000E+00 -0.50000000000E+02  0.50000000000E+02  0.00000000000E+00 0.  1.
         23    2    1    2    0    0  0.00000000000E+00  0.00000000000E+00  0.00000000000E+00  0.10000000000E+03  0.10000000000E+03 0.  0.
          5    1    3    3  501    0  0.26382902168E+02  0.12161393618E+02  0.40422184237E+02  0.50000000000E+02  0.47000000000E+01 0. -1.
         -5    1    3    3    0  501 -0.26382902168E+02 -0.12161393618E+02 -0.40422184237E+02  0.50000000000E+02  0.47000000000E+01 0.  1.
</event>
<event>
 5    1  0.9081766E-001  0.1000000E+03  0.7546771E-02  0.1163815E+00
         11   -1    0    0    0    0  0.00000000000E+00  0.00000000000E+00  0.50000000000E+02  0.50000000000E+02  0.00000000000E+00 0. -1.
        -11   -1    0    0    0    0 -0.00000000000E+00 -0.00000000000E+00 -0.50000000000E+02  0.50000000000E+02  0.00000000000E+00 0.  1.
         23    2    1    2    0    0  0.00000000000E+00  0.00000000000E+00  0.00000000000E+00  0.10000000000E+03  0.10000000000E+03 0.  0.
          5    1    3    3  501    0 -0.44635968846E+01  0.26360054724E+02  0.41989687041E+02  0.50000000000E+02  0.47000000000E+01 0. -1.
         -5    1    3    3    0  501  0.44635968846E+01 -0.26360054724E+02 -0.41989687041E+02  0.50000000000E+02  0.47000000000E+01 0.  1.
</event>
<event>
 5    1  0.9081766E-001  0.1000000E+03  0.7546771E-02  0.1163815E+00
         11   -1    0    0    0    0  0.00000000000E+00  0.00000000000E+00  0.50000000000E+02  0.50000000000E+02  0.00000000000E+00 0.  1.
        -11   -1    0    0    0    0 -0.00000000000E+00 -0.00000000000E+00 -0.50000000000E+02  0.50000000000E+02  0.00000000000E+00 0. -1.
         23    2    1    2    0    0  0.00000000000E+00  0.00000000000E+00  0.00000000000E+00  0.10000000000E+03  0.10000000000E+03 0.  0.
          5    1    3    3  501    0 -0.34501358192E+02 -0.15435808519E+02 -0.32392932844E+02  0.50000000000E+02  0.47000000000E+01 0. -1.
         -5    1    3    3    0  501  0.34501358192E+02  0.15435808519E+02  0.32392932844E+02  0.50000000000E+02  0.47000000000E+01 0.  1.
</event>
<event>
 5    1  0.9081766E-001  0.1000000E+03  0.7546771E-02  0.1163815E+00
         11   -1    0    0    0    0  0.00000000000E+00  0.00000000000E+00  0.50000000000E+02  0.50000000000E+02  0.00000000000E+00 0. -1.
        -11   -1    0    0    0    0 -0.00000000000E+00 -0.00000000000E+00 -0.50000000000E+02  0.50000000000E+02  0.00000000000E+00 0.  1.
         23    2    1    2    0    0  0.00000000000E+00  0.00000000000E+00  0.00000000000E+00  0.10000000000E+03  0.10000000000E+03 0.  0.
          5    1    3    3  501    0 -0.15564915697E+02  0.79396224191E+01  0.46611219628E+02  0.50000000000E+02  0.47000000000E+01 0. -1.
         -5    1    3    3    0  501  0.15564915697E+02 -0.79396224191E+01 -0.46611219628E+02  0.50000000000E+02  0.47000000000E+01 0.  1.
</event>
<event>
 5    1  0.9081766E-001  0.1000000E+03  0.7546771E-02  0.1163815E+00
         11   -1    0    0    0    0  0.00000000000E+00  0.00000000000E+00  0.50000000000E+02  0.50000000000E+02  0.00000000000E+00 0. -1.
        -11   -1    0    0    0    0 -0.00000000000E+00 -0.00000000000E+00 -0.50000000000E+02  0.50000000000E+02  0.00000000000E+00 0.  1.
         23    2    1    2    0    0  0.00000000000E+00  0.00000000000E+00  0.00000000000E+00  0.10000000000E+03  0.10000000000E+03 0.  0.
          5    1    3    3  501    0  0.74583315471E+01  0.43794523479E+02  0.22457137034E+02  0.50000000000E+02  0.47000000000E+01 0. -1.
         -5    1    3    3    0  501 -0.74583315471E+01 -0.43794523479E+02 -0.22457137034E+02  0.50000000000E+02  0.47000000000E+01 0.  1.
</event>
<event>
 5    1  0.9081766E-001  0.1000000E+03  0.7546771E-02  0.1163815E+00
         11   -1    0    0    0    0  0.00000000000E+00  0.00000000000E+00  0.50000000000E+02  0.50000000000E+02  0.00000000000E+00 0. -1.
        -11   -1    0    0    0    0 -0.00000000000E+00 -0.00000000000E+00 -0.50000000000E+02  0.50000000000E+02  0.00000000000E+00 0.  1.
         23    2    1    2    0    0  0.00000000000E+00  0.00000000000E+00  0.00000000000E+00  0.10000000000E+03  0.10000000000E+03 0.  0.
          5    1    3    3  501    0  0.19891315686E+01  0.10960751717E+02  0.48516134197E+02  0.50000000000E+02  0.47000000000E+01 0. -1.
         -5    1    3    3    0  501 -0.19891315686E+01 -0.10960751717E+02 -0.48516134197E+02  0.50000000000E+02  0.47000000000E+01 0.  1.
</event>
<event>
 5    1  0.9081766E-001  0.1000000E+03  0.7546771E-02  0.1163815E+00
         11   -1    0    0    0    0  0.00000000000E+00  0.00000000000E+00  0.50000000000E+02  0.50000000000E+02  0.00000000000E+00 0.  1.
        -11   -1    0    0    0    0 -0.00000000000E+00 -0.00000000000E+00 -0.50000000000E+02  0.50000000000E+02  0.00000000000E+00 0. -1.
         23    2    1    2    0    0  0.00000000000E+00  0.00000000000E+00  0.00000000000E+00  0.10000000000E+03  0.10000000000E+03 0.  0.
          5    1    3    3  501    0 -0.17716283572E+02  0.25913004588E+01 -0.46447050050E+02  0.50000000000E+02  0.47000000000E+01 0. -1.
         -5    1    3    3    0  501  0.17716283572E+02 -0.25913004588E+01  0.46447050050E+02  0.50000000000E+02  0.47000000000E+01 0.  1.
</event>
<event>
 5    1  0.9081766E-001  0.1000000E+03  0.7546771E-02  0.1163815E+00
         11   -1    0    0    0    0  0.00000000000E+00  0.00000000000E+00  0.50000000000E+02  0.50000000000E+02  0.00000000000E+00 0. -1.
        -11   -1    0    0    0    0 -0.00000000000E+00 -0.00000000000E+00 -0.50000000000E+02  0.50000000000E+02  0.00000000000E+00 0.  1.
         23    2    1    2    0    0  0.00000000000E+00  0.00000000000E+00  0.00000000000E+00  0.10000000000E+03  0.10000000000E+03 0.  0.
          5    1    3    3  501    0  0.77144575419E+01  0.20999859765E+02  0.44468000120E+02  0.50000000000E+02  0.47000000000E+01 0. -1.
         -5    1    3    3    0  501 -0.77144575419E+01 -0.20999859765E+02 -0.44468000120E+02  0.50000000000E+02  0.47000000000E+01 0.  1.
</event>
<event>
 5    1  0.9081766E-001  0.1000000E+03  0.7546771E-02  0.1163815E+00
         11   -1    0    0    0    0  0.00000000000E+00  0.00000000000E+00  0.50000000000E+02  0.50000000000E+02  0.00000000000E+00 0. -1.
        -11   -1    0    0    0    0 -0.00000000000E+00 -0.00000000000E+00 -0.50000000000E+02  0.50000000000E+02  0.00000000000E+00 0.  1.
         23    2    1    2    0    0  0.00000000000E+00  0.00000000000E+00  0.00000000000E+00  0.10000000000E+03  0.10000000000E+03 0.  0.
          5    1    3    3  501    0 -0.14157191626E+02  0.28791516615E+02  0.38059591383E+02  0.50000000000E+02  0.47000000000E+01 0. -1.
         -5    1    3    3    0  501  0.14157191626E+02 -0.28791516615E+02 -0.38059591383E+02  0.50000000000E+02  0.47000000000E+01 0.  1.
</event>
<event>
 5    1  0.9081766E-001  0.1000000E+03  0.7546771E-02  0.1163815E+00
         11   -1    0    0    0    0  0.00000000000E+00  0.00000000000E+00  0.50000000000E+02  0.50000000000E+02  0.00000000000E+00 0. -1.
        -11   -1    0    0    0    0 -0.00000000000E+00 -0.00000000000E+00 -0.50000000000E+02  0.50000000000E+02  0.00000000000E+00 0.  1.
         23    2    1    2    0    0  0.00000000000E+00  0.00000000000E+00  0.00000000000E+00  0.10000000000E+03  0.10000000000E+03 0.  0.
          5    1    3    3  501    0 -0.11752143995E+02 -0.47364337259E+02 -0.98191989264E+01  0.50000000000E+02  0.47000000000E+01 0. -1.
         -5    1    3    3    0  501  0.11752143995E+02  0.47364337259E+02  0.98191989264E+01  0.50000000000E+02  0.47000000000E+01 0.  1.
</event>
<event>
 5    1  0.9081766E-001  0.1000000E+03  0.7546771E-02  0.1163815E+00
         11   -1    0    0    0    0  0.00000000000E+00  0.00000000000E+00  0.50000000000E+02  0.50000000000E+02  0.00000000000E+00 0. -1.
        -11   -1    0    0    0    0 -0.00000000000E+00 -0.00000000000E+00 -0.50000000000E+02  0.50000000000E+02  0.00000000000E+00 0.  1.
         23    2    1    2    0    0  0.00000000000E+00  0.00000000000E+00  0.00000000000E+00  0.10000000000E+03  0.10000000000E+03 0.  0.
          5    1    3    3  501    0  0.75892497965E+01 -0.47169918429E+02  0.13975409937E+02  0.50000000000E+02  0.47000000000E+01 0. -1.
         -5    1    3    3    0  501 -0.75892497965E+01  0.47169918429E+02 -0.13975409937E+02  0.50000000000E+02  0.47000000000E+01 0.  1.
</event>
<event>
 5    1  0.9081766E-001  0.1000000E+03  0.7546771E-02  0.1163815E+00
         11   -1    0    0    0    0  0.00000000000E+00  0.00000000000E+00  0.50000000000E+02  0.50000000000E+02  0.00000000000E+00 0. -1.
        -11   -1    0    0    0    0 -0.00000000000E+00 -0.00000000000E+00 -0.50000000000E+02  0.50000000000E+02  0.00000000000E+00 0.  1.
         23    2    1    2    0    0  0.00000000000E+00  0.00000000000E+00  0.00000000000E+00  0.10000000000E+03  0.10000000000E+03 0.  0.
          5    1    3    3  501    0  0.32594082358E+02  0.33341518958E+02  0.17432122900E+02  0.50000000000E+02  0.47000000000E+01 0. -1.
         -5    1    3    3    0  501 -0.32594082358E+02 -0.33341518958E+02 -0.17432122900E+02  0.50000000000E+02  0.47000000000E+01 0.  1.
</event>
<event>
 5    1  0.9081766E-001  0.1000000E+03  0.7546771E-02  0.1163815E+00
         11   -1    0    0    0    0  0.00000000000E+00  0.00000000000E+00  0.50000000000E+02  0.50000000000E+02  0.00000000000E+00 0.  1.
        -11   -1    0    0    0    0 -0.00000000000E+00 -0.00000000000E+00 -0.50000000000E+02  0.50000000000E+02  0.00000000000E+00 0. -1.
         23    2    1    2    0    0  0.00000000000E+00  0.00000000000E+00  0.00000000000E+00  0.10000000000E+03  0.10000000000E+03 0.  0.
          5    1    3    3  501    0 -0.61121312081E+01 -0.40530296035E+02 -0.28246184793E+02  0.50000000000E+02  0.47000000000E+01 0. -1.
         -5    1    3    3    0  501  0.61121312081E+01  0.40530296035E+02  0.28246184793E+02  0.50000000000E+02  0.47000000000E+01 0.  1.
</event>
<event>
 5    1  0.9081766E-001  0.1000000E+03  0.7546771E-02  0.1163815E+00
         11   -1    0    0    0    0  0.00000000000E+00  0.00000000000E+00  0.50000000000E+02  0.50000000000E+02  0.00000000000E+00 0. -1.
        -11   -1    0    0    0    0 -0.00000000000E+00 -0.00000000000E+00 -0.50000000000E+02  0.50000000000E+02  0.00000000000E+00 0.  1.
         23    2    1    2    0    0  0.00000000000E+00  0.00000000000E+00  0.00000000000E+00  0.10000000000E+03  0.10000000000E+03 0.  0.
          5    1    3    3  501    0 -0.39264726083E+02 -0.16968367940E+02  0.25461063904E+02  0.50000000000E+02  0.47000000000E+01 0. -1.
         -5    1    3    3    0  501  0.39264726083E+02  0.16968367940E+02 -0.25461063904E+02  0.50000000000E+02  0.47000000000E+01 0.  1.
</event>
<event>
 5    1  0.9081766E-001  0.1000000E+03  0.7546771E-02  0.1163815E+00
         11   -1    0    0    0    0  0.00000000000E+00  0.00000000000E+00  0.50000000000E+02  0.50000000000E+02  0.00000000000E+00 0. -1.
        -11   -1    0    0    0    0 -0.00000000000E+00 -0.00000000000E+00 -0.50000000000E+02  0.50000000000E+02  0.00000000000E+00 0.  1.
         23    2    1    2    0    0  0.00000000000E+00  0.00000000000E+00  0.00000000000E+00  0.10000000000E+03  0.10000000000E+03 0.  0.
          5    1    3    3  501    0 -0.24581388638E+02 -0.19968435050E+01  0.43239772764E+02  0.50000000000E+02  0.47000000000E+01 0. -1.
         -5    1    3    3    0  501  0.24581388638E+02  0.19968435050E+01 -0.43239772764E+02  0.50000000000E+02  0.47000000000E+01 0.  1.
</event>
<event>
 5    1  0.9081766E-001  0.1000000E+03  0.7546771E-02  0.1163815E+00
         11   -1    0    0    0    0  0.00000000000E+00  0.00000000000E+00  0.50000000000E+02  0.50000000000E+02  0.00000000000E+00 0.  1.
        -11   -1    0    0    0    0 -0.00000000000E+00 -0.00000000000E+00 -0.50000000000E+02  0.50000000000E+02  0.00000000000E+00 0. -1.
         23    2    1    2    0    0  0.00000000000E+00  0.00000000000E+00  0.00000000000E+00  0.10000000000E+03  0.10000000000E+03 0.  0.
          5    1    3    3  501    0  0.26372056208E+02  0.16888423511E+02 -0.38693743715E+02  0.50000000000E+02  0.47000000000E+01 0. -1.
         -5    1    3    3    0  501 -0.26372056208E+02 -0.16888423511E+02  0.38693743715E+02  0.50000000000E+02  0.47000000000E+01 0.  1.
</event>
<event>
 5    1  0.9081766E-001  0.1000000E+03  0.7546771E-02  0.1163815E+00
         11   -1    0    0    0    0  0.00000000000E+00  0.00000000000E+00  0.50000000000E+02  0.50000000000E+02  0.00000000000E+00 0. -1.
        -11   -1    0    0    0    0 -0.00000000000E+00 -0.00000000000E+00 -0.50000000000E+02  0.50000000000E+02  0.00000000000E+00 0.  1.
         23    2    1    2    0    0  0.00000000000E+00  0.00000000000E+00  0.00000000000E+00  0.10000000000E+03  0.10000000000E+03 0.  0.
          5    1    3    3  501    0 -0.28273728099E+02  0.36725060148E+02  0.18159742745E+02  0.50000000000E+02  0.47000000000E+01 0. -1.
         -5    1    3    3    0  501  0.28273728099E+02 -0.36725060148E+02 -0.18159742745E+02  0.50000000000E+02  0.47000000000E+01 0.  1.
</event>
<event>
 5    1  0.9081766E-001  0.1000000E+03  0.7546771E-02  0.1163815E+00
         11   -1    0    0    0    0  0.00000000000E+00  0.00000000000E+00  0.50000000000E+02  0.50000000000E+02  0.00000000000E+00 0. -1.
        -11   -1    0    0    0    0 -0.00000000000E+00 -0.00000000000E+00 -0.50000000000E+02  0.50000000000E+02  0.00000000000E+00 0.  1.
         23    2    1    2    0    0  0.00000000000E+00  0.00000000000E+00  0.00000000000E+00  0.10000000000E+03  0.10000000000E+03 0.  0.
          5    1    3    3  501    0 -0.13521875774E+02 -0.48986069970E+01  0.47655771162E+02  0.50000000000E+02  0.47000000000E+01 0. -1.
         -5    1    3    3    0  501  0.13521875774E+02  0.48986069970E+01 -0.47655771162E+02  0.50000000000E+02  0.47000000000E+01 0.  1.
</event>
<event>
 5    1  0.9081766E-001  0.1000000E+03  0.7546771E-02  0.1163815E+00
         11   -1    0    0    0    0  0.00000000000E+00  0.00000000000E+00  0.50000000000E+02  0.50000000000E+02  0.00000000000E+00 0. -1.
        -11   -1    0    0    0    0 -0.00000000000E+00 -0.00000000000E+00 -0.50000000000E+02  0.50000000000E+02  0.00000000000E+00 0.  1.
         23    2    1    2    0    0  0.00000000000E+00  0.00000000000E+00  0.00000000000E+00  0.10000000000E+03  0.10000000000E+03 0.  0.
          5    1    3    3  501    0 -0.46973992287E+02 -0.62999454806E+01  0.15220536640E+02  0.50000000000E+02  0.47000000000E+01 0. -1.
         -5    1    3    3    0  501  0.46973992287E+02  0.62999454806E+01 -0.15220536640E+02  0.50000000000E+02  0.47000000000E+01 0.  1.
</event>
<event>
 5    1  0.9081766E-001  0.1000000E+03  0.7546771E-02  0.1163815E+00
         11   -1    0    0    0    0  0.00000000000E+00  0.00000000000E+00  0.50000000000E+02  0.50000000000E+02  0.00000000000E+00 0. -1.
        -11   -1    0    0    0    0 -0.00000000000E+00 -0.00000000000E+00 -0.50000000000E+02  0.50000000000E+02  0.00000000000E+00 0.  1.
         23    2    1    2    0    0  0.00000000000E+00  0.00000000000E+00  0.00000000000E+00  0.10000000000E+03  0.10000000000E+03 0.  0.
          5    1    3    3  501    0 -0.21002611760E+01 -0.27193346654E+02  0.41641575387E+02  0.50000000000E+02  0.47000000000E+01 0. -1.
         -5    1    3    3    0  501  0.21002611760E+01  0.27193346654E+02 -0.41641575387E+02  0.50000000000E+02  0.47000000000E+01 0.  1.
</event>
<event>
 5    1  0.9081766E-001  0.1000000E+03  0.7546771E-02  0.1163815E+00
         11   -1    0    0    0    0  0.00000000000E+00  0.00000000000E+00  0.50000000000E+02  0.50000000000E+02  0.00000000000E+00 0. -1.
        -11   -1    0    0    0    0 -0.00000000000E+00 -0.00000000000E+00 -0.50000000000E+02  0.50000000000E+02  0.00000000000E+00 0.  1.
         23    2    1    2    0    0  0.00000000000E+00  0.00000000000E+00  0.00000000000E+00  0.10000000000E+03  0.10000000000E+03 0.  0.
          5    1    3    3  501    0  0.16770022467E+00  0.48119081080E+02  0.12745034822E+02  0.50000000000E+02  0.47000000000E+01 0. -1.
         -5    1    3    3    0  501 -0.16770022467E+00 -0.48119081080E+02 -0.12745034822E+02  0.50000000000E+02  0.47000000000E+01 0.  1.
</event>
<event>
 5    1  0.9081766E-001  0.1000000E+03  0.7546771E-02  0.1163815E+00
         11   -1    0    0    0    0  0.00000000000E+00  0.00000000000E+00  0.50000000000E+02  0.50000000000E+02  0.00000000000E+00 0.  1.
        -11   -1    0    0    0    0 -0.00000000000E+00 -0.00000000000E+00 -0.50000000000E+02  0.50000000000E+02  0.00000000000E+00 0. -1.
         23    2    1    2    0    0  0.00000000000E+00  0.00000000000E+00  0.00000000000E+00  0.10000000000E+03  0.10000000000E+03 0.  0.
          5    1    3    3  501    0  0.23141830876E+02  0.28699859636E+02 -0.33446729594E+02  0.50000000000E+02  0.47000000000E+01 0. -1.
         -5    1    3    3    0  501 -0.23141830876E+02 -0.28699859636E+02  0.33446729594E+02  0.50000000000E+02  0.47000000000E+01 0.  1.
</event>
<event>
 5    1  0.9081766E-001  0.1000000E+03  0.7546771E-02  0.1163815E+00
         11   -1    0    0    0    0  0.00000000000E+00  0.00000000000E+00  0.50000000000E+02  0.50000000000E+02  0.00000000000E+00 0.  1.
        -11   -1    0    0    0    0 -0.00000000000E+00 -0.00000000000E+00 -0.50000000000E+02  0.50000000000E+02  0.00000000000E+00 0. -1.
         23    2    1    2    0    0  0.00000000000E+00  0.00000000000E+00  0.00000000000E+00  0.10000000000E+03  0.10000000000E+03 0.  0.
          5    1    3    3  501    0 -0.43827452123E+02 -0.16867436249E+02 -0.16509210606E+02  0.50000000000E+02  0.47000000000E+01 0. -1.
         -5    1    3    3    0  501  0.43827452123E+02  0.16867436249E+02  0.16509210606E+02  0.50000000000E+02  0.47000000000E+01 0.  1.
</event>
<event>
 5    1  0.9081766E-001  0.1000000E+03  0.7546771E-02  0.1163815E+00
         11   -1    0    0    0    0  0.00000000000E+00  0.00000000000E+00  0.50000000000E+02  0.50000000000E+02  0.00000000000E+00 0. -1.
        -11   -1    0    0    0    0 -0.00000000000E+00 -0.00000000000E+00 -0.50000000000E+02  0.50000000000E+02  0.00000000000E+00 0.  1.
         23    2    1    2    0    0  0.00000000000E+00  0.00000000000E+00  0.00000000000E+00  0.10000000000E+03  0.10000000000E+03 0.  0.
          5    1    3    3  501    0 -0.34096648527E+02 -0.23845012302E+02  0.27326616101E+02  0.50000000000E+02  0.47000000000E+01 0. -1.
         -5    1    3    3    0  501  0.34096648527E+02  0.23845012302E+02 -0.27326616101E+02  0.50000000000E+02  0.47000000000E+01 0.  1.
</event>
<event>
 5    1  0.9081766E-001  0.1000000E+03  0.7546771E-02  0.1163815E+00
         11   -1    0    0    0    0  0.00000000000E+00  0.00000000000E+00  0.50000000000E+02  0.50000000000E+02  0.00000000000E+00 0. -1.
        -11   -1    0    0    0    0 -0.00000000000E+00 -0.00000000000E+00 -0.50000000000E+02  0.50000000000E+02  0.00000000000E+00 0.  1.
         23    2    1    2    0    0  0.00000000000E+00  0.00000000000E+00  0.00000000000E+00  0.10000000000E+03  0.10000000000E+03 0.  0.
          5    1    3    3  501    0 -0.36871979003E+01  0.47302039675E+02  0.15060930059E+02  0.50000000000E+02  0.47000000000E+01 0. -1.
         -5    1    3    3    0  501  0.36871979003E+01 -0.47302039675E+02 -0.15060930059E+02  0.50000000000E+02  0.47000000000E+01 0.  1.
</event>
<event>
 5    1  0.9081766E-001  0.1000000E+03  0.7546771E-02  0.1163815E+00
         11   -1    0    0    0    0  0.00000000000E+00  0.00000000000E+00  0.50000000000E+02  0.50000000000E+02  0.00000000000E+00 0.  1.
        -11   -1    0    0    0    0 -0.00000000000E+00 -0.00000000000E+00 -0.50000000000E+02  0.50000000000E+02  0.00000000000E+00 0. -1.
         23    2    1    2    0    0  0.00000000000E+00  0.00000000000E+00  0.00000000000E+00  0.10000000000E+03  0.10000000000E+03 0.  0.
          5    1    3    3  501    0 -0.11792190439E+02  0.30116426836E+02 -0.37839860984E+02  0.50000000000E+02  0.47000000000E+01 0. -1.
         -5    1    3    3    0  501  0.11792190439E+02 -0.30116426836E+02  0.37839860984E+02  0.50000000000E+02  0.47000000000E+01 0.  1.
</event>
<event>
 5    1  0.9081766E-001  0.1000000E+03  0.7546771E-02  0.1163815E+00
         11   -1    0    0    0    0  0.00000000000E+00  0.00000000000E+00  0.50000000000E+02  0.50000000000E+02  0.00000000000E+00 0. -1.
        -11   -1    0    0    0    0 -0.00000000000E+00 -0.00000000000E+00 -0.50000000000E+02  0.50000000000E+02  0.00000000000E+00 0.  1.
         23    2    1    2    0    0  0.00000000000E+00  0.00000000000E+00  0.00000000000E+00  0.10000000000E+03  0.10000000000E+03 0.  0.
          5    1    3    3  501    0 -0.72985495499E+01  0.11752283551E+02  0.47817622335E+02  0.50000000000E+02  0.47000000000E+01 0. -1.
         -5    1    3    3    0  501  0.72985495499E+01 -0.11752283551E+02 -0.47817622335E+02  0.50000000000E+02  0.47000000000E+01 0.  1.
</event>
<event>
 5    1  0.9081766E-001  0.1000000E+03  0.7546771E-02  0.1163815E+00
         11   -1    0    0    0    0  0.00000000000E+00  0.00000000000E+00  0.50000000000E+02  0.50000000000E+02  0.00000000000E+00 0.  1.
        -11   -1    0    0    0    0 -0.00000000000E+00 -0.00000000000E+00 -0.50000000000E+02  0.50000000000E+02  0.00000000000E+00 0. -1.
         23    2    1    2    0    0  0.00000000000E+00  0.00000000000E+00  0.00000000000E+00  0.10000000000E+03  0.10000000000E+03 0.  0.
          5    1    3    3  501    0 -0.41796080952E+02 -0.10459168336E+02 -0.24931975750E+02  0.50000000000E+02  0.47000000000E+01 0. -1.
         -5    1    3    3    0  501  0.41796080952E+02  0.10459168336E+02  0.24931975750E+02  0.50000000000E+02  0.47000000000E+01 0.  1.
</event>
<event>
 5    1  0.9081766E-001  0.1000000E+03  0.7546771E-02  0.1163815E+00
         11   -1    0    0    0    0  0.00000000000E+00  0.00000000000E+00  0.50000000000E+02  0.50000000000E+02  0.00000000000E+00 0.  1.
        -11   -1    0    0    0    0 -0.00000000000E+00 -0.00000000000E+00 -0.50000000000E+02  0.50000000000E+02  0.00000000000E+00 0. -1.
         23    2    1    2    0    0  0.00000000000E+00  0.00000000000E+00  0.00000000000E+00  0.10000000000E+03  0.10000000000E+03 0.  0.
          5    1    3    3  501    0 -0.46470730986E+01  0.47824986288E+02 -0.13003284128E+02  0.50000000000E+02  0.47000000000E+01 0. -1.
         -5    1    3    3    0  501  0.46470730986E+01 -0.47824986288E+02  0.13003284128E+02  0.50000000000E+02  0.47000000000E+01 0.  1.
</event>
<event>
 5    1  0.9081766E-001  0.1000000E+03  0.7546771E-02  0.1163815E+00
         11   -1    0    0    0    0  0.00000000000E+00  0.00000000000E+00  0.50000000000E+02  0.50000000000E+02  0.00000000000E+00 0. -1.
        -11   -1    0    0    0    0 -0.00000000000E+00 -0.00000000000E+00 -0.50000000000E+02  0.50000000000E+02  0.00000000000E+00 0.  1.
         23    2    1    2    0    0  0.00000000000E+00  0.00000000000E+00  0.00000000000E+00  0.10000000000E+03  0.10000000000E+03 0.  0.
          5    1    3    3  501    0  0.41698297070E+02  0.18924227488E+02  0.19520134104E+02  0.50000000000E+02  0.47000000000E+01 0. -1.
         -5    1    3    3    0  501 -0.41698297070E+02 -0.18924227488E+02 -0.19520134104E+02  0.50000000000E+02  0.47000000000E+01 0.  1.
</event>
<event>
 5    1  0.9081766E-001  0.1000000E+03  0.7546771E-02  0.1163815E+00
         11   -1    0    0    0    0  0.00000000000E+00  0.00000000000E+00  0.50000000000E+02  0.50000000000E+02  0.00000000000E+00 0. -1.
        -11   -1    0    0    0    0 -0.00000000000E+00 -0.00000000000E+00 -0.50000000000E+02  0.50000000000E+02  0.00000000000E+00 0.  1.
         23    2    1    2    0    0  0.00000000000E+00  0.00000000000E+00  0.00000000000E+00  0.10000000000E+03  0.10000000000E+03 0.  0.
          5    1    3    3  501    0 -0.12845886494E+02 -0.34503095171E+02  0.33502680845E+02  0.50000000000E+02  0.47000000000E+01 0. -1.
         -5    1    3    3    0  501  0.12845886494E+02  0.34503095171E+02 -0.33502680845E+02  0.50000000000E+02  0.47000000000E+01 0.  1.
</event>
<event>
 5    1  0.9081766E-001  0.1000000E+03  0.7546771E-02  0.1163815E+00
         11   -1    0    0    0    0  0.00000000000E+00  0.00000000000E+00  0.50000000000E+02  0.50000000000E+02  0.00000000000E+00 0. -1.
        -11   -1    0    0    0    0 -0.00000000000E+00 -0.00000000000E+00 -0.50000000000E+02  0.50000000000E+02  0.00000000000E+00 0.  1.
         23    2    1    2    0    0  0.00000000000E+00  0.00000000000E+00  0.00000000000E+00  0.10000000000E+03  0.10000000000E+03 0.  0.
          5    1    3    3  501    0 -0.15896822526E+00 -0.11484583348E+02  0.48435411368E+02  0.50000000000E+02  0.47000000000E+01 0. -1.
         -5    1    3    3    0  501  0.15896822526E+00  0.11484583348E+02 -0.48435411368E+02  0.50000000000E+02  0.47000000000E+01 0.  1.
</event>
<event>
 5    1  0.9081766E-001  0.1000000E+03  0.7546771E-02  0.1163815E+00
         11   -1    0    0    0    0  0.00000000000E+00  0.00000000000E+00  0.50000000000E+02  0.50000000000E+02  0.00000000000E+00 0.  1.
        -11   -1    0    0    0    0 -0.00000000000E+00 -0.00000000000E+00 -0.50000000000E+02  0.50000000000E+02  0.00000000000E+00 0. -1.
         23    2    1    2    0    0  0.00000000000E+00  0.00000000000E+00  0.00000000000E+00  0.10000000000E+03  0.10000000000E+03 0.  0.
          5    1    3    3  501    0  0.33884205604E+02 -0.12700407839E+02 -0.34182894133E+02  0.50000000000E+02  0.47000000000E+01 0. -1.
         -5    1    3    3    0  501 -0.33884205604E+02  0.12700407839E+02  0.34182894133E+02  0.50000000000E+02  0.47000000000E+01 0.  1.
</event>
<event>
 5    1  0.9081766E-001  0.1000000E+03  0.7546771E-02  0.1163815E+00
         11   -1    0    0    0    0  0.00000000000E+00  0.00000000000E+00  0.50000000000E+02  0.50000000000E+02  0.00000000000E+00 0.  1.
        -11   -1    0    0    0    0 -0.00000000000E+00 -0.00000000000E+00 -0.50000000000E+02  0.50000000000E+02  0.00000000000E+00 0. -1.
         23    2    1    2    0    0  0.00000000000E+00  0.00000000000E+00  0.00000000000E+00  0.10000000000E+03  0.10000000000E+03 0.  0.
          5    1    3    3  501    0 -0.45661638821E+00  0.79413581212E+01 -0.49138949243E+02  0.50000000000E+02  0.47000000000E+01 0. -1.
         -5    1    3    3    0  501  0.45661638821E+00 -0.79413581212E+01  0.49138949243E+02  0.50000000000E+02  0.47000000000E+01 0.  1.
</event>
<event>
 5    1  0.9081766E-001  0.1000000E+03  0.7546771E-02  0.1163815E+00
         11   -1    0    0    0    0  0.00000000000E+00  0.00000000000E+00  0.50000000000E+02  0.50000000000E+02  0.00000000000E+00 0. -1.
        -11   -1    0    0    0    0 -0.00000000000E+00 -0.00000000000E+00 -0.50000000000E+02  0.50000000000E+02  0.00000000000E+00 0.  1.
         23    2    1    2    0    0  0.00000000000E+00  0.00000000000E+00  0.00000000000E+00  0.10000000000E+03  0.10000000000E+03 0.  0.
          5    1    3    3  501    0 -0.27212751866E+02 -0.36812484222E+02  0.19550374454E+02  0.50000000000E+02  0.47000000000E+01 0. -1.
         -5    1    3    3    0  501  0.27212751866E+02  0.36812484222E+02 -0.19550374454E+02  0.50000000000E+02  0.47000000000E+01 0.  1.
</event>
<event>
 5    1  0.9081766E-001  0.1000000E+03  0.7546771E-02  0.1163815E+00
         11   -1    0    0    0    0  0.00000000000E+00  0.00000000000E+00  0.50000000000E+02  0.50000000000E+02  0.00000000000E+00 0. -1.
        -11   -1    0    0    0    0 -0.00000000000E+00 -0.00000000000E+00 -0.50000000000E+02  0.50000000000E+02  0.00000000000E+00 0.  1.
         23    2    1    2    0    0  0.00000000000E+00  0.00000000000E+00  0.00000000000E+00  0.10000000000E+03  0.10000000000E+03 0.  0.
          5    1    3    3  501    0 -0.30891585719E+02 -0.35113808631E+02  0.17048178059E+02  0.50000000000E+02  0.47000000000E+01 0. -1.
         -5    1    3    3    0  501  0.30891585719E+02  0.35113808631E+02 -0.17048178059E+02  0.50000000000E+02  0.47000000000E+01 0.  1.
</event>
<event>
 5    1  0.9081766E-001  0.1000000E+03  0.7546771E-02  0.1163815E+00
         11   -1    0    0    0    0  0.00000000000E+00  0.00000000000E+00  0.50000000000E+02  0.50000000000E+02  0.00000000000E+00 0. -1.
        -11   -1    0    0    0    0 -0.00000000000E+00 -0.00000000000E+00 -0.50000000000E+02  0.50000000000E+02  0.00000000000E+00 0.  1.
         23    2    1    2    0    0  0.00000000000E+00  0.00000000000E+00  0.00000000000E+00  0.10000000000E+03  0.10000000000E+03 0.  0.
          5    1    3    3  501    0  0.20514775668E+02  0.17061310351E+02  0.42023394299E+02  0.50000000000E+02  0.47000000000E+01 0. -1.
         -5    1    3    3    0  501 -0.20514775668E+02 -0.17061310351E+02 -0.42023394299E+02  0.50000000000E+02  0.47000000000E+01 0.  1.
</event>
<event>
 5    1  0.9081766E-001  0.1000000E+03  0.7546771E-02  0.1163815E+00
         11   -1    0    0    0    0  0.00000000000E+00  0.00000000000E+00  0.50000000000E+02  0.50000000000E+02  0.00000000000E+00 0. -1.
        -11   -1    0    0    0    0 -0.00000000000E+00 -0.00000000000E+00 -0.50000000000E+02  0.50000000000E+02  0.00000000000E+00 0.  1.
         23    2    1    2    0    0  0.00000000000E+00  0.00000000000E+00  0.00000000000E+00  0.10000000000E+03  0.10000000000E+03 0.  0.
          5    1    3    3  501    0  0.28470679020E+02 -0.40202480888E+02 -0.71477945266E+01  0.50000000000E+02  0.47000000000E+01 0. -1.
         -5    1    3    3    0  501 -0.28470679020E+02  0.40202480888E+02  0.71477945266E+01  0.50000000000E+02  0.47000000000E+01 0.  1.
</event>
<event>
 5    1  0.9081766E-001  0.1000000E+03  0.7546771E-02  0.1163815E+00
         11   -1    0    0    0    0  0.00000000000E+00  0.00000000000E+00  0.50000000000E+02  0.50000000000E+02  0.00000000000E+00 0.  1.
        -11   -1    0    0    0    0 -0.00000000000E+00 -0.00000000000E+00 -0.50000000000E+02  0.50000000000E+02  0.00000000000E+00 0. -1.
         23    2    1    2    0    0  0.00000000000E+00  0.00000000000E+00  0.00000000000E+00  0.10000000000E+03  0.10000000000E+03 0.  0.
          5    1    3    3  501    0 -0.57270171555E+00 -0.31118542376E+02 -0.38848659348E+02  0.50000000000E+02  0.47000000000E+01 0. -1.
         -5    1    3    3    0  501  0.57270171555E+00  0.31118542376E+02  0.38848659348E+02  0.50000000000E+02  0.47000000000E+01 0.  1.
</event>
<event>
 5    1  0.9081766E-001  0.1000000E+03  0.7546771E-02  0.1163815E+00
         11   -1    0    0    0    0  0.00000000000E+00  0.00000000000E+00  0.50000000000E+02  0.50000000000E+02  0.00000000000E+00 0. -1.
        -11   -1    0    0    0    0 -0.00000000000E+00 -0.00000000000E+00 -0.50000000000E+02  0.50000000000E+02  0.00000000000E+00 0.  1.
         23    2    1    2    0    0  0.00000000000E+00  0.00000000000E+00  0.00000000000E+00  0.10000000000E+03  0.10000000000E+03 0.  0.
          5    1    3    3  501    0  0.13229949721E+01  0.46861540911E+02  0.16737851348E+02  0.50000000000E+02  0.47000000000E+01 0. -1.
         -5    1    3    3    0  501 -0.13229949721E+01 -0.46861540911E+02 -0.16737851348E+02  0.50000000000E+02  0.47000000000E+01 0.  1.
</event>
<event>
 5    1  0.9081766E-001  0.1000000E+03  0.7546771E-02  0.1163815E+00
         11   -1    0    0    0    0  0.00000000000E+00  0.00000000000E+00  0.50000000000E+02  0.50000000000E+02  0.00000000000E+00 0. -1.
        -11   -1    0    0    0    0 -0.00000000000E+00 -0.00000000000E+00 -0.50000000000E+02  0.50000000000E+02  0.00000000000E+00 0.  1.
         23    2    1    2    0    0  0.00000000000E+00  0.00000000000E+00  0.00000000000E+00  0.10000000000E+03  0.10000000000E+03 0.  0.
          5    1    3    3  501    0 -0.24272923245E+02 -0.28614285249E+02  0.32710210590E+02  0.50000000000E+02  0.47000000000E+01 0. -1.
         -5    1    3    3    0  501  0.24272923245E+02  0.28614285249E+02 -0.32710210590E+02  0.50000000000E+02  0.47000000000E+01 0.  1.
</event>
<event>
 5    1  0.9081766E-001  0.1000000E+03  0.7546771E-02  0.1163815E+00
         11   -1    0    0    0    0  0.00000000000E+00  0.00000000000E+00  0.50000000000E+02  0.50000000000E+02  0.00000000000E+00 0. -1.
        -11   -1    0    0    0    0 -0.00000000000E+00 -0.00000000000E+00 -0.50000000000E+02  0.50000000000E+02  0.00000000000E+00 0.  1.
         23    2    1    2    0    0  0.00000000000E+00  0.00000000000E+00  0.00000000000E+00  0.10000000000E+03  0.10000000000E+03 0.  0.
          5    1    3    3  501    0  0.25540427920E+02 -0.13512027874E+02  0.40534203390E+02  0.50000000000E+02  0.47000000000E+01 0. -1.
         -5    1    3    3    0  501 -0.25540427920E+02  0.13512027874E+02 -0.40534203390E+02  0.50000000000E+02  0.47000000000E+01 0.  1.
</event>
<event>
 5    1  0.9081766E-001  0.1000000E+03  0.7546771E-02  0.1163815E+00
         11   -1    0    0    0    0  0.00000000000E+00  0.00000000000E+00  0.50000000000E+02  0.50000000000E+02  0.00000000000E+00 0. -1.
        -11   -1    0    0    0    0 -0.00000000000E+00 -0.00000000000E+00 -0.50000000000E+02  0.50000000000E+02  0.00000000000E+00 0.  1.
         23    2    1    2    0    0  0.00000000000E+00  0.00000000000E+00  0.00000000000E+00  0.10000000000E+03  0.10000000000E+03 0.  0.
          5    1    3    3  501    0  0.13853518319E+02  0.14542630155E+02  0.45546700631E+02  0.50000000000E+02  0.47000000000E+01 0. -1.
         -5    1    3    3    0  501 -0.13853518319E+02 -0.14542630155E+02 -0.45546700631E+02  0.50000000000E+02  0.47000000000E+01 0.  1.
</event>
<event>
 5    1  0.9081766E-001  0.1000000E+03  0.7546771E-02  0.1163815E+00
         11   -1    0    0    0    0  0.00000000000E+00  0.00000000000E+00  0.50000000000E+02  0.50000000000E+02  0.00000000000E+00 0. -1.
        -11   -1    0    0    0    0 -0.00000000000E+00 -0.00000000000E+00 -0.50000000000E+02  0.50000000000E+02  0.00000000000E+00 0.  1.
         23    2    1    2    0    0  0.00000000000E+00  0.00000000000E+00  0.00000000000E+00  0.10000000000E+03  0.10000000000E+03 0.  0.
          5    1    3    3  501    0  0.20400764177E+02 -0.26381775026E+02  0.36955659478E+02  0.50000000000E+02  0.47000000000E+01 0. -1.
         -5    1    3    3    0  501 -0.20400764177E+02  0.26381775026E+02 -0.36955659478E+02  0.50000000000E+02  0.47000000000E+01 0.  1.
</event>
<event>
 5    1  0.9081766E-001  0.1000000E+03  0.7546771E-02  0.1163815E+00
         11   -1    0    0    0    0  0.00000000000E+00  0.00000000000E+00  0.50000000000E+02  0.50000000000E+02  0.00000000000E+00 0.  1.
        -11   -1    0    0    0    0 -0.00000000000E+00 -0.00000000000E+00 -0.50000000000E+02  0.50000000000E+02  0.00000000000E+00 0. -1.
         23    2    1    2    0    0  0.00000000000E+00  0.00000000000E+00  0.00000000000E+00  0.10000000000E+03  0.10000000000E+03 0.  0.
          5    1    3    3  501    0  0.47568447444E+02 -0.38670703780E+01 -0.14149154551E+02  0.50000000000E+02  0.47000000000E+01 0. -1.
         -5    1    3    3    0  501 -0.47568447444E+02  0.38670703780E+01  0.14149154551E+02  0.50000000000E+02  0.47000000000E+01 0.  1.
</event>
<event>
 5    1  0.9081766E-001  0.1000000E+03  0.7546771E-02  0.1163815E+00
         11   -1    0    0    0    0  0.00000000000E+00  0.00000000000E+00  0.50000000000E+02  0.50000000000E+02  0.00000000000E+00 0. -1.
        -11   -1    0    0    0    0 -0.00000000000E+00 -0.00000000000E+00 -0.50000000000E+02  0.50000000000E+02  0.00000000000E+00 0.  1.
         23    2    1    2    0    0  0.00000000000E+00  0.00000000000E+00  0.00000000000E+00  0.10000000000E+03  0.10000000000E+03 0.  0.
          5    1    3    3  501    0 -0.46095349730E+02 -0.17645199148E+02 -0.64634108872E+01  0.50000000000E+02  0.47000000000E+01 0. -1.
         -5    1    3    3    0  501  0.46095349730E+02  0.17645199148E+02  0.64634108872E+01  0.50000000000E+02  0.47000000000E+01 0.  1.
</event>
<event>
 5    1  0.9081766E-001  0.1000000E+03  0.7546771E-02  0.1163815E+00
         11   -1    0    0    0    0  0.00000000000E+00  0.00000000000E+00  0.50000000000E+02  0.50000000000E+02  0.00000000000E+00 0. -1.
        -11   -1    0    0    0    0 -0.00000000000E+00 -0.00000000000E+00 -0.50000000000E+02  0.50000000000E+02  0.00000000000E+00 0.  1.
         23    2    1    2    0    0  0.00000000000E+00  0.00000000000E+00  0.00000000000E+00  0.10000000000E+03  0.10000000000E+03 0.  0.
          5    1    3    3  501    0  0.46117874412E+01 -0.43398927765E+01  0.49374150598E+02  0.50000000000E+02  0.47000000000E+01 0. -1.
         -5    1    3    3    0  501 -0.46117874412E+01  0.43398927765E+01 -0.49374150598E+02  0.50000000000E+02  0.47000000000E+01 0.  1.
</event>
<event>
 5    1  0.9081766E-001  0.1000000E+03  0.7546771E-02  0.1163815E+00
         11   -1    0    0    0    0  0.00000000000E+00  0.00000000000E+00  0.50000000000E+02  0.50000000000E+02  0.00000000000E+00 0. -1.
        -11   -1    0    0    0    0 -0.00000000000E+00 -0.00000000000E+00 -0.50000000000E+02  0.50000000000E+02  0.00000000000E+00 0.  1.
         23    2    1    2    0    0  0.00000000000E+00  0.00000000000E+00  0.00000000000E+00  0.10000000000E+03  0.10000000000E+03 0.  0.
          5    1    3    3  501    0  0.22511392367E+02 -0.41086668725E+02  0.16823580676E+02  0.50000000000E+02  0.47000000000E+01 0. -1.
         -5    1    3    3    0  501 -0.22511392367E+02  0.41086668725E+02 -0.16823580676E+02  0.50000000000E+02  0.47000000000E+01 0.  1.
</event>
<event>
 5    1  0.9081766E-001  0.1000000E+03  0.7546771E-02  0.1163815E+00
         11   -1    0    0    0    0  0.00000000000E+00  0.00000000000E+00  0.50000000000E+02  0.50000000000E+02  0.00000000000E+00 0.  1.
        -11   -1    0    0    0    0 -0.00000000000E+00 -0.00000000000E+00 -0.50000000000E+02  0.50000000000E+02  0.00000000000E+00 0. -1.
         23    2    1    2    0    0  0.00000000000E+00  0.00000000000E+00  0.00000000000E+00  0.10000000000E+03  0.10000000000E+03 0.  0.
          5    1    3    3  501    0  0.10625749520E+02 -0.10047357052E+02  0.47582077124E+02  0.50000000000E+02  0.47000000000E+01 0.  1.
         -5    1    3    3    0  501 -0.10625749520E+02  0.10047357052E+02 -0.47582077124E+02  0.50000000000E+02  0.47000000000E+01 0. -1.
</event>
<event>
 5    1  0.9081766E-001  0.1000000E+03  0.7546771E-02  0.1163815E+00
         11   -1    0    0    0    0  0.00000000000E+00  0.00000000000E+00  0.50000000000E+02  0.50000000000E+02  0.00000000000E+00 0. -1.
        -11   -1    0    0    0    0 -0.00000000000E+00 -0.00000000000E+00 -0.50000000000E+02  0.50000000000E+02  0.00000000000E+00 0.  1.
         23    2    1    2    0    0  0.00000000000E+00  0.00000000000E+00  0.00000000000E+00  0.10000000000E+03  0.10000000000E+03 0.  0.
          5    1    3    3  501    0 -0.27498590317E+02  0.38074905139E+02  0.16493608738E+02  0.50000000000E+02  0.47000000000E+01 0. -1.
         -5    1    3    3    0  501  0.27498590317E+02 -0.38074905139E+02 -0.16493608738E+02  0.50000000000E+02  0.47000000000E+01 0.  1.
</event>
<event>
 5    1  0.9081766E-001  0.1000000E+03  0.7546771E-02  0.1163815E+00
         11   -1    0    0    0    0  0.00000000000E+00  0.00000000000E+00  0.50000000000E+02  0.50000000000E+02  0.00000000000E+00 0.  1.
        -11   -1    0    0    0    0 -0.00000000000E+00 -0.00000000000E+00 -0.50000000000E+02  0.50000000000E+02  0.00000000000E+00 0. -1.
         23    2    1    2    0    0  0.00000000000E+00  0.00000000000E+00  0.00000000000E+00  0.10000000000E+03  0.10000000000E+03 0.  0.
          5    1    3    3  501    0  0.31364207632E+02  0.79095660261E+00 -0.38646744589E+02  0.50000000000E+02  0.47000000000E+01 0. -1.
         -5    1    3    3    0  501 -0.31364207632E+02 -0.79095660261E+00  0.38646744589E+02  0.50000000000E+02  0.47000000000E+01 0.  1.
</event>
<event>
 5    1  0.9081766E-001  0.1000000E+03  0.7546771E-02  0.1163815E+00
         11   -1    0    0    0    0  0.00000000000E+00  0.00000000000E+00  0.50000000000E+02  0.50000000000E+02  0.00000000000E+00 0. -1.
        -11   -1    0    0    0    0 -0.00000000000E+00 -0.00000000000E+00 -0.50000000000E+02  0.50000000000E+02  0.00000000000E+00 0.  1.
         23    2    1    2    0    0  0.00000000000E+00  0.00000000000E+00  0.00000000000E+00  0.10000000000E+03  0.10000000000E+03 0.  0.
          5    1    3    3  501    0 -0.35456485279E+02  0.35001171305E+01  0.34763441023E+02  0.50000000000E+02  0.47000000000E+01 0. -1.
         -5    1    3    3    0  501  0.35456485279E+02 -0.35001171305E+01 -0.34763441023E+02  0.50000000000E+02  0.47000000000E+01 0.  1.
</event>
<event>
 5    1  0.9081766E-001  0.1000000E+03  0.7546771E-02  0.1163815E+00
         11   -1    0    0    0    0  0.00000000000E+00  0.00000000000E+00  0.50000000000E+02  0.50000000000E+02  0.00000000000E+00 0. -1.
        -11   -1    0    0    0    0 -0.00000000000E+00 -0.00000000000E+00 -0.50000000000E+02  0.50000000000E+02  0.00000000000E+00 0.  1.
         23    2    1    2    0    0  0.00000000000E+00  0.00000000000E+00  0.00000000000E+00  0.10000000000E+03  0.10000000000E+03 0.  0.
          5    1    3    3  501    0  0.41030628852E+02  0.26810496693E+02  0.86945248911E+01  0.50000000000E+02  0.47000000000E+01 0. -1.
         -5    1    3    3    0  501 -0.41030628852E+02 -0.26810496693E+02 -0.86945248911E+01  0.50000000000E+02  0.47000000000E+01 0.  1.
</event>
<event>
 5    1  0.9081766E-001  0.1000000E+03  0.7546771E-02  0.1163815E+00
         11   -1    0    0    0    0  0.00000000000E+00  0.00000000000E+00  0.50000000000E+02  0.50000000000E+02  0.00000000000E+00 0. -1.
        -11   -1    0    0    0    0 -0.00000000000E+00 -0.00000000000E+00 -0.50000000000E+02  0.50000000000E+02  0.00000000000E+00 0.  1.
         23    2    1    2    0    0  0.00000000000E+00  0.00000000000E+00  0.00000000000E+00  0.10000000000E+03  0.10000000000E+03 0.  0.
          5    1    3    3  501    0  0.16028245192E+02 -0.29227878055E+02  0.36969399514E+02  0.50000000000E+02  0.47000000000E+01 0. -1.
         -5    1    3    3    0  501 -0.16028245192E+02  0.29227878055E+02 -0.36969399514E+02  0.50000000000E+02  0.47000000000E+01 0.  1.
</event>
<event>
 5    1  0.9081766E-001  0.1000000E+03  0.7546771E-02  0.1163815E+00
         11   -1    0    0    0    0  0.00000000000E+00  0.00000000000E+00  0.50000000000E+02  0.50000000000E+02  0.00000000000E+00 0.  1.
        -11   -1    0    0    0    0 -0.00000000000E+00 -0.00000000000E+00 -0.50000000000E+02  0.50000000000E+02  0.00000000000E+00 0. -1.
         23    2    1    2    0    0  0.00000000000E+00  0.00000000000E+00  0.00000000000E+00  0.10000000000E+03  0.10000000000E+03 0.  0.
          5    1    3    3  501    0 -0.36780194848E+02 -0.32230495346E+02 -0.92909868497E+01  0.50000000000E+02  0.47000000000E+01 0. -1.
         -5    1    3    3    0  501  0.36780194848E+02  0.32230495346E+02  0.92909868497E+01  0.50000000000E+02  0.47000000000E+01 0.  1.
</event>
<event>
 5    1  0.9081766E-001  0.1000000E+03  0.7546771E-02  0.1163815E+00
         11   -1    0    0    0    0  0.00000000000E+00  0.00000000000E+00  0.50000000000E+02  0.50000000000E+02  0.00000000000E+00 0. -1.
        -11   -1    0    0    0    0 -0.00000000000E+00 -0.00000000000E+00 -0.50000000000E+02  0.50000000000E+02  0.00000000000E+00 0.  1.
         23    2    1    2    0    0  0.00000000000E+00  0.00000000000E+00  0.00000000000E+00  0.10000000000E+03  0.10000000000E+03 0.  0.
          5    1    3    3  501    0 -0.15095752632E+02  0.45554139622E+02  0.13223033532E+02  0.50000000000E+02  0.47000000000E+01 0. -1.
         -5    1    3    3    0  501  0.15095752632E+02 -0.45554139622E+02 -0.13223033532E+02  0.50000000000E+02  0.47000000000E+01 0.  1.
</event>
<event>
 5    1  0.9081766E-001  0.1000000E+03  0.7546771E-02  0.1163815E+00
         11   -1    0    0    0    0  0.00000000000E+00  0.00000000000E+00  0.50000000000E+02  0.50000000000E+02  0.00000000000E+00 0. -1.
        -11   -1    0    0    0    0 -0.00000000000E+00 -0.00000000000E+00 -0.50000000000E+02  0.50000000000E+02  0.00000000000E+00 0.  1.
         23    2    1    2    0    0  0.00000000000E+00  0.00000000000E+00  0.00000000000E+00  0.10000000000E+03  0.10000000000E+03 0.  0.
          5    1    3    3  501    0 -0.17918088112E+01 -0.47661409249E+02 -0.14250946970E+02  0.50000000000E+02  0.47000000000E+01 0. -1.
         -5    1    3    3    0  501  0.17918088112E+01  0.47661409249E+02  0.14250946970E+02  0.50000000000E+02  0.47000000000E+01 0.  1.
</event>
<event>
 5    1  0.9081766E-001  0.1000000E+03  0.7546771E-02  0.1163815E+00
         11   -1    0    0    0    0  0.00000000000E+00  0.00000000000E+00  0.50000000000E+02  0.50000000000E+02  0.00000000000E+00 0. -1.
        -11   -1    0    0    0    0 -0.00000000000E+00 -0.00000000000E+00 -0.50000000000E+02  0.50000000000E+02  0.00000000000E+00 0.  1.
         23    2    1    2    0    0  0.00000000000E+00  0.00000000000E+00  0.00000000000E+00  0.10000000000E+03  0.10000000000E+03 0.  0.
          5    1    3    3  501    0 -0.56867806099E+01  0.45329353788E+02  0.19769173261E+02  0.50000000000E+02  0.47000000000E+01 0. -1.
         -5    1    3    3    0  501  0.56867806099E+01 -0.45329353788E+02 -0.19769173261E+02  0.50000000000E+02  0.47000000000E+01 0.  1.
</event>
<event>
 5    1  0.9081766E-001  0.1000000E+03  0.7546771E-02  0.1163815E+00
         11   -1    0    0    0    0  0.00000000000E+00  0.00000000000E+00  0.50000000000E+02  0.50000000000E+02  0.00000000000E+00 0. -1.
        -11   -1    0    0    0    0 -0.00000000000E+00 -0.00000000000E+00 -0.50000000000E+02  0.50000000000E+02  0.00000000000E+00 0.  1.
         23    2    1    2    0    0  0.00000000000E+00  0.00000000000E+00  0.00000000000E+00  0.10000000000E+03  0.10000000000E+03 0.  0.
          5    1    3    3  501    0  0.46506588575E+01 -0.18834154918E+02  0.45842730948E+02  0.50000000000E+02  0.47000000000E+01 0. -1.
         -5    1    3    3    0  501 -0.46506588575E+01  0.18834154918E+02 -0.45842730948E+02  0.50000000000E+02  0.47000000000E+01 0.  1.
</event>
<event>
 5    1  0.9081766E-001  0.1000000E+03  0.7546771E-02  0.1163815E+00
         11   -1    0    0    0    0  0.00000000000E+00  0.00000000000E+00  0.50000000000E+02  0.50000000000E+02  0.00000000000E+00 0. -1.
        -11   -1    0    0    0    0 -0.00000000000E+00 -0.00000000000E+00 -0.50000000000E+02  0.50000000000E+02  0.00000000000E+00 0.  1.
         23    2    1    2    0    0  0.00000000000E+00  0.00000000000E+00  0.00000000000E+00  0.10000000000E+03  0.10000000000E+03 0.  0.
          5    1    3    3  501    0  0.25308448894E+02 -0.14846954401E+01  0.42839095392E+02  0.50000000000E+02  0.47000000000E+01 0. -1.
         -5    1    3    3    0  501 -0.25308448894E+02  0.14846954401E+01 -0.42839095392E+02  0.50000000000E+02  0.47000000000E+01 0.  1.
</event>
<event>
 5    1  0.9081766E-001  0.1000000E+03  0.7546771E-02  0.1163815E+00
         11   -1    0    0    0    0  0.00000000000E+00  0.00000000000E+00  0.50000000000E+02  0.50000000000E+02  0.00000000000E+00 0. -1.
        -11   -1    0    0    0    0 -0.00000000000E+00 -0.00000000000E+00 -0.50000000000E+02  0.50000000000E+02  0.00000000000E+00 0.  1.
         23    2    1    2    0    0  0.00000000000E+00  0.00000000000E+00  0.00000000000E+00  0.10000000000E+03  0.10000000000E+03 0.  0.
          5    1    3    3  501    0  0.34511271728E+02  0.31298374177E+01  0.35736343426E+02  0.50000000000E+02  0.47000000000E+01 0. -1.
         -5    1    3    3    0  501 -0.34511271728E+02 -0.31298374177E+01 -0.35736343426E+02  0.50000000000E+02  0.47000000000E+01 0.  1.
</event>
<event>
 5    1  0.9081766E-001  0.1000000E+03  0.7546771E-02  0.1163815E+00
         11   -1    0    0    0    0  0.00000000000E+00  0.00000000000E+00  0.50000000000E+02  0.50000000000E+02  0.00000000000E+00 0.  1.
        -11   -1    0    0    0    0 -0.00000000000E+00 -0.00000000000E+00 -0.50000000000E+02  0.50000000000E+02  0.00000000000E+00 0. -1.
         23    2    1    2    0    0  0.00000000000E+00  0.00000000000E+00  0.00000000000E+00  0.10000000000E+03  0.10000000000E+03 0.  0.
          5    1    3    3  501    0  0.35359188449E+02 -0.74863167058E+01 -0.34228538596E+02  0.50000000000E+02  0.47000000000E+01 0. -1.
         -5    1    3    3    0  501 -0.35359188449E+02  0.74863167058E+01  0.34228538596E+02  0.50000000000E+02  0.47000000000E+01 0.  1.
</event>
<event>
 5    1  0.9081766E-001  0.1000000E+03  0.7546771E-02  0.1163815E+00
         11   -1    0    0    0    0  0.00000000000E+00  0.00000000000E+00  0.50000000000E+02  0.50000000000E+02  0.00000000000E+00 0. -1.
        -11   -1    0    0    0    0 -0.00000000000E+00 -0.00000000000E+00 -0.50000000000E+02  0.50000000000E+02  0.00000000000E+00 0.  1.
         23    2    1    2    0    0  0.00000000000E+00  0.00000000000E+00  0.00000000000E+00  0.10000000000E+03  0.10000000000E+03 0.  0.
          5    1    3    3  501    0 -0.21277213255E+02 -0.24045402604E+02  0.38039569000E+02  0.50000000000E+02  0.47000000000E+01 0. -1.
         -5    1    3    3    0  501  0.21277213255E+02  0.24045402604E+02 -0.38039569000E+02  0.50000000000E+02  0.47000000000E+01 0.  1.
</event>
<event>
 5    1  0.9081766E-001  0.1000000E+03  0.7546771E-02  0.1163815E+00
         11   -1    0    0    0    0  0.00000000000E+00  0.00000000000E+00  0.50000000000E+02  0.50000000000E+02  0.00000000000E+00 0.  1.
        -11   -1    0    0    0    0 -0.00000000000E+00 -0.00000000000E+00 -0.50000000000E+02  0.50000000000E+02  0.00000000000E+00 0. -1.
         23    2    1    2    0    0  0.00000000000E+00  0.00000000000E+00  0.00000000000E+00  0.10000000000E+03  0.10000000000E+03 0.  0.
          5    1    3    3  501    0 -0.65579814069E+01 -0.26882262340E+02 -0.41379304626E+02  0.50000000000E+02  0.47000000000E+01 0. -1.
         -5    1    3    3    0  501  0.65579814069E+01  0.26882262340E+02  0.41379304626E+02  0.50000000000E+02  0.47000000000E+01 0.  1.
</event>
<event>
 5    1  0.9081766E-001  0.1000000E+03  0.7546771E-02  0.1163815E+00
         11   -1    0    0    0    0  0.00000000000E+00  0.00000000000E+00  0.50000000000E+02  0.50000000000E+02  0.00000000000E+00 0.  1.
        -11   -1    0    0    0    0 -0.00000000000E+00 -0.00000000000E+00 -0.50000000000E+02  0.50000000000E+02  0.00000000000E+00 0. -1.
         23    2    1    2    0    0  0.00000000000E+00  0.00000000000E+00  0.00000000000E+00  0.10000000000E+03  0.10000000000E+03 0.  0.
          5    1    3    3  501    0  0.29348761445E+02  0.17240846933E+02 -0.36322353980E+02  0.50000000000E+02  0.47000000000E+01 0. -1.
         -5    1    3    3    0  501 -0.29348761445E+02 -0.17240846933E+02  0.36322353980E+02  0.50000000000E+02  0.47000000000E+01 0.  1.
</event>
<event>
 5    1  0.9081766E-001  0.1000000E+03  0.7546771E-02  0.1163815E+00
         11   -1    0    0    0    0  0.00000000000E+00  0.00000000000E+00  0.50000000000E+02  0.50000000000E+02  0.00000000000E+00 0. -1.
        -11   -1    0    0    0    0 -0.00000000000E+00 -0.00000000000E+00 -0.50000000000E+02  0.50000000000E+02  0.00000000000E+00 0.  1.
         23    2    1    2    0    0  0.00000000000E+00  0.00000000000E+00  0.00000000000E+00  0.10000000000E+03  0.10000000000E+03 0.  0.
          5    1    3    3  501    0 -0.61716217942E+01  0.47291980164E+02  0.14257969582E+02  0.50000000000E+02  0.47000000000E+01 0. -1.
         -5    1    3    3    0  501  0.61716217942E+01 -0.47291980164E+02 -0.14257969582E+02  0.50000000000E+02  0.47000000000E+01 0.  1.
</event>
<event>
 5    1  0.9081766E-001  0.1000000E+03  0.7546771E-02  0.1163815E+00
         11   -1    0    0    0    0  0.00000000000E+00  0.00000000000E+00  0.50000000000E+02  0.50000000000E+02  0.00000000000E+00 0. -1.
        -11   -1    0    0    0    0 -0.00000000000E+00 -0.00000000000E+00 -0.50000000000E+02  0.50000000000E+02  0.00000000000E+00 0.  1.
         23    2    1    2    0    0  0.00000000000E+00  0.00000000000E+00  0.00000000000E+00  0.10000000000E+03  0.10000000000E+03 0.  0.
          5    1    3    3  501    0  0.17225216966E+01 -0.26369179051E+02  0.42185415906E+02  0.50000000000E+02  0.47000000000E+01 0. -1.
         -5    1    3    3    0  501 -0.17225216966E+01  0.26369179051E+02 -0.42185415906E+02  0.50000000000E+02  0.47000000000E+01 0.  1.
</event>
<event>
 5    1  0.9081766E-001  0.1000000E+03  0.7546771E-02  0.1163815E+00
         11   -1    0    0    0    0  0.00000000000E+00  0.00000000000E+00  0.50000000000E+02  0.50000000000E+02  0.00000000000E+00 0. -1.
        -11   -1    0    0    0    0 -0.00000000000E+00 -0.00000000000E+00 -0.50000000000E+02  0.50000000000E+02  0.00000000000E+00 0.  1.
         23    2    1    2    0    0  0.00000000000E+00  0.00000000000E+00  0.00000000000E+00  0.10000000000E+03  0.10000000000E+03 0.  0.
          5    1    3    3  501    0 -0.27646412595E+02 -0.41306909050E+02 -0.27064987339E+01  0.50000000000E+02  0.47000000000E+01 0. -1.
         -5    1    3    3    0  501  0.27646412595E+02  0.41306909050E+02  0.27064987339E+01  0.50000000000E+02  0.47000000000E+01 0.  1.
</event>
<event>
 5    1  0.9081766E-001  0.1000000E+03  0.7546771E-02  0.1163815E+00
         11   -1    0    0    0    0  0.00000000000E+00  0.00000000000E+00  0.50000000000E+02  0.50000000000E+02  0.00000000000E+00 0. -1.
        -11   -1    0    0    0    0 -0.00000000000E+00 -0.00000000000E+00 -0.50000000000E+02  0.50000000000E+02  0.00000000000E+00 0.  1.
         23    2    1    2    0    0  0.00000000000E+00  0.00000000000E+00  0.00000000000E+00  0.10000000000E+03  0.10000000000E+03 0.  0.
          5    1    3    3  501    0  0.82413453788E+01  0.13217940459E+02  0.47278708489E+02  0.50000000000E+02  0.47000000000E+01 0. -1.
         -5    1    3    3    0  501 -0.82413453788E+01 -0.13217940459E+02 -0.47278708489E+02  0.50000000000E+02  0.47000000000E+01 0.  1.
</event>
<event>
 5    1  0.9081766E-001  0.1000000E+03  0.7546771E-02  0.1163815E+00
         11   -1    0    0    0    0  0.00000000000E+00  0.00000000000E+00  0.50000000000E+02  0.50000000000E+02  0.00000000000E+00 0. -1.
        -11   -1    0    0    0    0 -0.00000000000E+00 -0.00000000000E+00 -0.50000000000E+02  0.50000000000E+02  0.00000000000E+00 0.  1.
         23    2    1    2    0    0  0.00000000000E+00  0.00000000000E+00  0.00000000000E+00  0.10000000000E+03  0.10000000000E+03 0.  0.
          5    1    3    3  501    0  0.28655691024E+02 -0.39484276746E+02  0.98870249206E+01  0.50000000000E+02  0.47000000000E+01 0. -1.
         -5    1    3    3    0  501 -0.28655691024E+02  0.39484276746E+02 -0.98870249206E+01  0.50000000000E+02  0.47000000000E+01 0.  1.
</event>
<event>
 5    1  0.9081766E-001  0.1000000E+03  0.7546771E-02  0.1163815E+00
         11   -1    0    0    0    0  0.00000000000E+00  0.00000000000E+00  0.50000000000E+02  0.50000000000E+02  0.00000000000E+00 0. -1.
        -11   -1    0    0    0    0 -0.00000000000E+00 -0.00000000000E+00 -0.50000000000E+02  0.50000000000E+02  0.00000000000E+00 0.  1.
         23    2    1    2    0    0  0.00000000000E+00  0.00000000000E+00  0.00000000000E+00  0.10000000000E+03  0.10000000000E+03 0.  0.
          5    1    3    3  501    0  0.42465785708E+02 -0.25158233229E+02  0.64521581675E+01  0.50000000000E+02  0.47000000000E+01 0. -1.
         -5    1    3    3    0  501 -0.42465785708E+02  0.25158233229E+02 -0.64521581675E+01  0.50000000000E+02  0.47000000000E+01 0.  1.
</event>
<event>
 5    1  0.9081766E-001  0.1000000E+03  0.7546771E-02  0.1163815E+00
         11   -1    0    0    0    0  0.00000000000E+00  0.00000000000E+00  0.50000000000E+02  0.50000000000E+02  0.00000000000E+00 0. -1.
        -11   -1    0    0    0    0 -0.00000000000E+00 -0.00000000000E+00 -0.50000000000E+02  0.50000000000E+02  0.00000000000E+00 0.  1.
         23    2    1    2    0    0  0.00000000000E+00  0.00000000000E+00  0.00000000000E+00  0.10000000000E+03  0.10000000000E+03 0.  0.
          5    1    3    3  501    0  0.27984005914E+02 -0.72545140152E+01  0.40523788562E+02  0.50000000000E+02  0.47000000000E+01 0. -1.
         -5    1    3    3    0  501 -0.27984005914E+02  0.72545140152E+01 -0.40523788562E+02  0.50000000000E+02  0.47000000000E+01 0.  1.
</event>
<event>
 5    1  0.9081766E-001  0.1000000E+03  0.7546771E-02  0.1163815E+00
         11   -1    0    0    0    0  0.00000000000E+00  0.00000000000E+00  0.50000000000E+02  0.50000000000E+02  0.00000000000E+00 0.  1.
        -11   -1    0    0    0    0 -0.00000000000E+00 -0.00000000000E+00 -0.50000000000E+02  0.50000000000E+02  0.00000000000E+00 0. -1.
         23    2    1    2    0    0  0.00000000000E+00  0.00000000000E+00  0.00000000000E+00  0.10000000000E+03  0.10000000000E+03 0.  0.
          5    1    3    3  501    0  0.87674982990E+01 -0.42279225054E+02 -0.24769095713E+02  0.50000000000E+02  0.47000000000E+01 0. -1.
         -5    1    3    3    0  501 -0.87674982990E+01  0.42279225054E+02  0.24769095713E+02  0.50000000000E+02  0.47000000000E+01 0.  1.
</event>
<event>
 5    1  0.9081766E-001  0.1000000E+03  0.7546771E-02  0.1163815E+00
         11   -1    0    0    0    0  0.00000000000E+00  0.00000000000E+00  0.50000000000E+02  0.50000000000E+02  0.00000000000E+00 0.  1.
        -11   -1    0    0    0    0 -0.00000000000E+00 -0.00000000000E+00 -0.50000000000E+02  0.50000000000E+02  0.00000000000E+00 0. -1.
         23    2    1    2    0    0  0.00000000000E+00  0.00000000000E+00  0.00000000000E+00  0.10000000000E+03  0.10000000000E+03 0.  0.
          5    1    3    3  501    0  0.10086727525E+02  0.13712077001E+02 -0.46777632178E+02  0.50000000000E+02  0.47000000000E+01 0. -1.
         -5    1    3    3    0  501 -0.10086727525E+02 -0.13712077001E+02  0.46777632178E+02  0.50000000000E+02  0.47000000000E+01 0.  1.
</event>
<event>
 5    1  0.9081766E-001  0.1000000E+03  0.7546771E-02  0.1163815E+00
         11   -1    0    0    0    0  0.00000000000E+00  0.00000000000E+00  0.50000000000E+02  0.50000000000E+02  0.00000000000E+00 0. -1.
        -11   -1    0    0    0    0 -0.00000000000E+00 -0.00000000000E+00 -0.50000000000E+02  0.50000000000E+02  0.00000000000E+00 0.  1.
         23    2    1    2    0    0  0.00000000000E+00  0.00000000000E+00  0.00000000000E+00  0.10000000000E+03  0.10000000000E+03 0.  0.
          5    1    3    3  501    0  0.43714182708E+02 -0.23128900510E+02  0.56598755607E+01  0.50000000000E+02  0.47000000000E+01 0. -1.
         -5    1    3    3    0  501 -0.43714182708E+02  0.23128900510E+02 -0.56598755607E+01  0.50000000000E+02  0.47000000000E+01 0.  1.
</event>
<event>
 5    1  0.9081766E-001  0.1000000E+03  0.7546771E-02  0.1163815E+00
         11   -1    0    0    0    0  0.00000000000E+00  0.00000000000E+00  0.50000000000E+02  0.50000000000E+02  0.00000000000E+00 0. -1.
        -11   -1    0    0    0    0 -0.00000000000E+00 -0.00000000000E+00 -0.50000000000E+02  0.50000000000E+02  0.00000000000E+00 0.  1.
         23    2    1    2    0    0  0.00000000000E+00  0.00000000000E+00  0.00000000000E+00  0.10000000000E+03  0.10000000000E+03 0.  0.
          5    1    3    3  501    0  0.26315973549E+02 -0.27479740275E+01  0.42164299768E+02  0.50000000000E+02  0.47000000000E+01 0. -1.
         -5    1    3    3    0  501 -0.26315973549E+02  0.27479740275E+01 -0.42164299768E+02  0.50000000000E+02  0.47000000000E+01 0.  1.
</event>
<event>
 5    1  0.9081766E-001  0.1000000E+03  0.7546771E-02  0.1163815E+00
         11   -1    0    0    0    0  0.00000000000E+00  0.00000000000E+00  0.50000000000E+02  0.50000000000E+02  0.00000000000E+00 0. -1.
        -11   -1    0    0    0    0 -0.00000000000E+00 -0.00000000000E+00 -0.50000000000E+02  0.50000000000E+02  0.00000000000E+00 0.  1.
         23    2    1    2    0    0  0.00000000000E+00  0.00000000000E+00  0.00000000000E+00  0.10000000000E+03  0.10000000000E+03 0.  0.
          5    1    3    3  501    0  0.17070087354E+02  0.98097020701E+01  0.45719709787E+02  0.50000000000E+02  0.47000000000E+01 0. -1.
         -5    1    3    3    0  501 -0.17070087354E+02 -0.98097020701E+01 -0.45719709787E+02  0.50000000000E+02  0.47000000000E+01 0.  1.
</event>
<event>
 5    1  0.9081766E-001  0.1000000E+03  0.7546771E-02  0.1163815E+00
         11   -1    0    0    0    0  0.00000000000E+00  0.00000000000E+00  0.50000000000E+02  0.50000000000E+02  0.00000000000E+00 0. -1.
        -11   -1    0    0    0    0 -0.00000000000E+00 -0.00000000000E+00 -0.50000000000E+02  0.50000000000E+02  0.00000000000E+00 0.  1.
         23    2    1    2    0    0  0.00000000000E+00  0.00000000000E+00  0.00000000000E+00  0.10000000000E+03  0.10000000000E+03 0.  0.
          5    1    3    3  501    0 -0.41068476249E+02  0.16198802026E+02  0.22997588384E+02  0.50000000000E+02  0.47000000000E+01 0. -1.
         -5    1    3    3    0  501  0.41068476249E+02 -0.16198802026E+02 -0.22997588384E+02  0.50000000000E+02  0.47000000000E+01 0.  1.
</event>
<event>
 5    1  0.9081766E-001  0.1000000E+03  0.7546771E-02  0.1163815E+00
         11   -1    0    0    0    0  0.00000000000E+00  0.00000000000E+00  0.50000000000E+02  0.50000000000E+02  0.00000000000E+00 0. -1.
        -11   -1    0    0    0    0 -0.00000000000E+00 -0.00000000000E+00 -0.50000000000E+02  0.50000000000E+02  0.00000000000E+00 0.  1.
         23    2    1    2    0    0  0.00000000000E+00  0.00000000000E+00  0.00000000000E+00  0.10000000000E+03  0.10000000000E+03 0.  0.
          5    1    3    3  501    0  0.21128689758E+02  0.31420798690E+02  0.32314422149E+02  0.50000000000E+02  0.47000000000E+01 0. -1.
         -5    1    3    3    0  501 -0.21128689758E+02 -0.31420798690E+02 -0.32314422149E+02  0.50000000000E+02  0.47000000000E+01 0.  1.
</event>
<event>
 5    1  0.9081766E-001  0.1000000E+03  0.7546771E-02  0.1163815E+00
         11   -1    0    0    0    0  0.00000000000E+00  0.00000000000E+00  0.50000000000E+02  0.50000000000E+02  0.00000000000E+00 0.  1.
        -11   -1    0    0    0    0 -0.00000000000E+00 -0.00000000000E+00 -0.50000000000E+02  0.50000000000E+02  0.00000000000E+00 0. -1.
         23    2    1    2    0    0  0.00000000000E+00  0.00000000000E+00  0.00000000000E+00  0.10000000000E+03  0.10000000000E+03 0.  0.
          5    1    3    3  501    0 -0.47640434800E+02  0.14182262373E+02 -0.26762671801E+01  0.50000000000E+02  0.47000000000E+01 0. -1.
         -5    1    3    3    0  501  0.47640434800E+02 -0.14182262373E+02  0.26762671801E+01  0.50000000000E+02  0.47000000000E+01 0.  1.
</event>
<event>
 5    1  0.9081766E-001  0.1000000E+03  0.7546771E-02  0.1163815E+00
         11   -1    0    0    0    0  0.00000000000E+00  0.00000000000E+00  0.50000000000E+02  0.50000000000E+02  0.00000000000E+00 0. -1.
        -11   -1    0    0    0    0 -0.00000000000E+00 -0.00000000000E+00 -0.50000000000E+02  0.50000000000E+02  0.00000000000E+00 0.  1.
         23    2    1    2    0    0  0.00000000000E+00  0.00000000000E+00  0.00000000000E+00  0.10000000000E+03  0.10000000000E+03 0.  0.
          5    1    3    3  501    0 -0.49365900077E+02 -0.62132909742E+01 -0.15208303059E+01  0.50000000000E+02  0.47000000000E+01 0. -1.
         -5    1    3    3    0  501  0.49365900077E+02  0.62132909742E+01  0.15208303059E+01  0.50000000000E+02  0.47000000000E+01 0.  1.
</event>
<event>
 5    1  0.9081766E-001  0.1000000E+03  0.7546771E-02  0.1163815E+00
         11   -1    0    0    0    0  0.00000000000E+00  0.00000000000E+00  0.50000000000E+02  0.50000000000E+02  0.00000000000E+00 0.  1.
        -11   -1    0    0    0    0 -0.00000000000E+00 -0.00000000000E+00 -0.50000000000E+02  0.50000000000E+02  0.00000000000E+00 0. -1.
         23    2    1    2    0    0  0.00000000000E+00  0.00000000000E+00  0.00000000000E+00  0.10000000000E+03  0.10000000000E+03 0.  0.
          5    1    3    3  501    0 -0.39629376521E+02 -0.28893163995E+02  0.85210087991E+01  0.50000000000E+02  0.47000000000E+01 0. -1.
         -5    1    3    3    0  501  0.39629376521E+02  0.28893163995E+02 -0.85210087991E+01  0.50000000000E+02  0.47000000000E+01 0.  1.
</event>
<event>
 5    1  0.9081766E-001  0.1000000E+03  0.7546771E-02  0.1163815E+00
         11   -1    0    0    0    0  0.00000000000E+00  0.00000000000E+00  0.50000000000E+02  0.50000000000E+02  0.00000000000E+00 0.  1.
        -11   -1    0    0    0    0 -0.00000000000E+00 -0.00000000000E+00 -0.50000000000E+02  0.50000000000E+02  0.00000000000E+00 0. -1.
         23    2    1    2    0    0  0.00000000000E+00  0.00000000000E+00  0.00000000000E+00  0.10000000000E+03  0.10000000000E+03 0.  0.
          5    1    3    3  501    0  0.35048050128E+02  0.28991923434E+02  0.20224058887E+02  0.50000000000E+02  0.47000000000E+01 0. -1.
         -5    1    3    3    0  501 -0.35048050128E+02 -0.28991923434E+02 -0.20224058887E+02  0.50000000000E+02  0.47000000000E+01 0.  1.
</event>
<event>
 5    1  0.9081766E-001  0.1000000E+03  0.7546771E-02  0.1163815E+00
         11   -1    0    0    0    0  0.00000000000E+00  0.00000000000E+00  0.50000000000E+02  0.50000000000E+02  0.00000000000E+00 0. -1.
        -11   -1    0    0    0    0 -0.00000000000E+00 -0.00000000000E+00 -0.50000000000E+02  0.50000000000E+02  0.00000000000E+00 0.  1.
         23    2    1    2    0    0  0.00000000000E+00  0.00000000000E+00  0.00000000000E+00  0.10000000000E+03  0.10000000000E+03 0.  0.
          5    1    3    3  501    0 -0.34159151294E+02 -0.24025908473E+02  0.27089077225E+02  0.50000000000E+02  0.47000000000E+01 0. -1.
         -5    1    3    3    0  501  0.34159151294E+02  0.24025908473E+02 -0.27089077225E+02  0.50000000000E+02  0.47000000000E+01 0.  1.
</event>
<event>
 5    1  0.9081766E-001  0.1000000E+03  0.7546771E-02  0.1163815E+00
         11   -1    0    0    0    0  0.00000000000E+00  0.00000000000E+00  0.50000000000E+02  0.50000000000E+02  0.00000000000E+00 0. -1.
        -11   -1    0    0    0    0 -0.00000000000E+00 -0.00000000000E+00 -0.50000000000E+02  0.50000000000E+02  0.00000000000E+00 0.  1.
         23    2    1    2    0    0  0.00000000000E+00  0.00000000000E+00  0.00000000000E+00  0.10000000000E+03  0.10000000000E+03 0.  0.
          5    1    3    3  501    0 -0.72719951156E+01 -0.32433517350E+02  0.37055297049E+02  0.50000000000E+02  0.47000000000E+01 0. -1.
         -5    1    3    3    0  501  0.72719951156E+01  0.32433517350E+02 -0.37055297049E+02  0.50000000000E+02  0.47000000000E+01 0.  1.
</event>
<event>
 5    1  0.9081766E-001  0.1000000E+03  0.7546771E-02  0.1163815E+00
         11   -1    0    0    0    0  0.00000000000E+00  0.00000000000E+00  0.50000000000E+02  0.50000000000E+02  0.00000000000E+00 0. -1.
        -11   -1    0    0    0    0 -0.00000000000E+00 -0.00000000000E+00 -0.50000000000E+02  0.50000000000E+02  0.00000000000E+00 0.  1.
         23    2    1    2    0    0  0.00000000000E+00  0.00000000000E+00  0.00000000000E+00  0.10000000000E+03  0.10000000000E+03 0.  0.
          5    1    3    3  501    0  0.21034237652E+02 -0.23301524268E+02  0.38633014549E+02  0.50000000000E+02  0.47000000000E+01 0. -1.
         -5    1    3    3    0  501 -0.21034237652E+02  0.23301524268E+02 -0.38633014549E+02  0.50000000000E+02  0.47000000000E+01 0.  1.
</event>
<event>
 5    1  0.9081766E-001  0.1000000E+03  0.7546771E-02  0.1163815E+00
         11   -1    0    0    0    0  0.00000000000E+00  0.00000000000E+00  0.50000000000E+02  0.50000000000E+02  0.00000000000E+00 0. -1.
        -11   -1    0    0    0    0 -0.00000000000E+00 -0.00000000000E+00 -0.50000000000E+02  0.50000000000E+02  0.00000000000E+00 0.  1.
         23    2    1    2    0    0  0.00000000000E+00  0.00000000000E+00  0.00000000000E+00  0.10000000000E+03  0.10000000000E+03 0.  0.
          5    1    3    3  501    0 -0.17314815664E+02 -0.16806409062E+02  0.43539083281E+02  0.50000000000E+02  0.47000000000E+01 0. -1.
         -5    1    3    3    0  501  0.17314815664E+02  0.16806409062E+02 -0.43539083281E+02  0.50000000000E+02  0.47000000000E+01 0.  1.
</event>
<event>
 5    1  0.9081766E-001  0.1000000E+03  0.7546771E-02  0.1163815E+00
         11   -1    0    0    0    0  0.00000000000E+00  0.00000000000E+00  0.50000000000E+02  0.50000000000E+02  0.00000000000E+00 0.  1.
        -11   -1    0    0    0    0 -0.00000000000E+00 -0.00000000000E+00 -0.50000000000E+02  0.50000000000E+02  0.00000000000E+00 0. -1.
         23    2    1    2    0    0  0.00000000000E+00  0.00000000000E+00  0.00000000000E+00  0.10000000000E+03  0.10000000000E+03 0.  0.
          5    1    3    3  501    0  0.47290239405E-01 -0.30481847649E+02 -0.39354348267E+02  0.50000000000E+02  0.47000000000E+01 0. -1.
         -5    1    3    3    0  501 -0.47290239405E-01  0.30481847649E+02  0.39354348267E+02  0.50000000000E+02  0.47000000000E+01 0.  1.
</event>
<event>
 5    1  0.9081766E-001  0.1000000E+03  0.7546771E-02  0.1163815E+00
         11   -1    0    0    0    0  0.00000000000E+00  0.00000000000E+00  0.50000000000E+02  0.50000000000E+02  0.00000000000E+00 0. -1.
        -11   -1    0    0    0    0 -0.00000000000E+00 -0.00000000000E+00 -0.50000000000E+02  0.50000000000E+02  0.00000000000E+00 0.  1.
         23    2    1    2    0    0  0.00000000000E+00  0.00000000000E+00  0.00000000000E+00  0.10000000000E+03  0.10000000000E+03 0.  0.
          5    1    3    3  501    0 -0.15585788598E+01 -0.11215266001E+02  0.48473690188E+02  0.50000000000E+02  0.47000000000E+01 0. -1.
         -5    1    3    3    0  501  0.15585788598E+01  0.11215266001E+02 -0.48473690188E+02  0.50000000000E+02  0.47000000000E+01 0.  1.
</event>
<event>
 5    1  0.9081766E-001  0.1000000E+03  0.7546771E-02  0.1163815E+00
         11   -1    0    0    0    0  0.00000000000E+00  0.00000000000E+00  0.50000000000E+02  0.50000000000E+02  0.00000000000E+00 0. -1.
        -11   -1    0    0    0    0 -0.00000000000E+00 -0.00000000000E+00 -0.50000000000E+02  0.50000000000E+02  0.00000000000E+00 0.  1.
         23    2    1    2    0    0  0.00000000000E+00  0.00000000000E+00  0.00000000000E+00  0.10000000000E+03  0.10000000000E+03 0.  0.
          5    1    3    3  501    0  0.87926691049E+01  0.36329980373E+02  0.32874480925E+02  0.50000000000E+02  0.47000000000E+01 0. -1.
         -5    1    3    3    0  501 -0.87926691049E+01 -0.36329980373E+02 -0.32874480925E+02  0.50000000000E+02  0.47000000000E+01 0.  1.
</event>
<event>
 5    1  0.9081766E-001  0.1000000E+03  0.7546771E-02  0.1163815E+00
         11   -1    0    0    0    0  0.00000000000E+00  0.00000000000E+00  0.50000000000E+02  0.50000000000E+02  0.00000000000E+00 0.  1.
        -11   -1    0    0    0    0 -0.00000000000E+00 -0.00000000000E+00 -0.50000000000E+02  0.50000000000E+02  0.00000000000E+00 0. -1.
         23    2    1    2    0    0  0.00000000000E+00  0.00000000000E+00  0.00000000000E+00  0.10000000000E+03  0.10000000000E+03 0.  0.
          5    1    3    3  501    0  0.42097718862E+02  0.20513147982E+02 -0.16879064740E+02  0.50000000000E+02  0.47000000000E+01 0. -1.
         -5    1    3    3    0  501 -0.42097718862E+02 -0.20513147982E+02  0.16879064740E+02  0.50000000000E+02  0.47000000000E+01 0.  1.
</event>
<event>
 5    1  0.9081766E-001  0.1000000E+03  0.7546771E-02  0.1163815E+00
         11   -1    0    0    0    0  0.00000000000E+00  0.00000000000E+00  0.50000000000E+02  0.50000000000E+02  0.00000000000E+00 0. -1.
        -11   -1    0    0    0    0 -0.00000000000E+00 -0.00000000000E+00 -0.50000000000E+02  0.50000000000E+02  0.00000000000E+00 0.  1.
         23    2    1    2    0    0  0.00000000000E+00  0.00000000000E+00  0.00000000000E+00  0.10000000000E+03  0.10000000000E+03 0.  0.
          5    1    3    3  501    0  0.40143338806E+02 -0.40282101826E+01  0.29158118462E+02  0.50000000000E+02  0.47000000000E+01 0. -1.
         -5    1    3    3    0  501 -0.40143338806E+02  0.40282101826E+01 -0.29158118462E+02  0.50000000000E+02  0.47000000000E+01 0.  1.
</event>
<event>
 5    1  0.9081766E-001  0.1000000E+03  0.7546771E-02  0.1163815E+00
         11   -1    0    0    0    0  0.00000000000E+00  0.00000000000E+00  0.50000000000E+02  0.50000000000E+02  0.00000000000E+00 0. -1.
        -11   -1    0    0    0    0 -0.00000000000E+00 -0.00000000000E+00 -0.50000000000E+02  0.50000000000E+02  0.00000000000E+00 0.  1.
         23    2    1    2    0    0  0.00000000000E+00  0.00000000000E+00  0.00000000000E+00  0.10000000000E+03  0.10000000000E+03 0.  0.
          5    1    3    3  501    0  0.31540473909E+02  0.32520825366E+02  0.20627758558E+02  0.50000000000E+02  0.47000000000E+01 0. -1.
         -5    1    3    3    0  501 -0.31540473909E+02 -0.32520825366E+02 -0.20627758558E+02  0.50000000000E+02  0.47000000000E+01 0.  1.
</event>
<event>
 5    1  0.9081766E-001  0.1000000E+03  0.7546771E-02  0.1163815E+00
         11   -1    0    0    0    0  0.00000000000E+00  0.00000000000E+00  0.50000000000E+02  0.50000000000E+02  0.00000000000E+00 0. -1.
        -11   -1    0    0    0    0 -0.00000000000E+00 -0.00000000000E+00 -0.50000000000E+02  0.50000000000E+02  0.00000000000E+00 0.  1.
         23    2    1    2    0    0  0.00000000000E+00  0.00000000000E+00  0.00000000000E+00  0.10000000000E+03  0.10000000000E+03 0.  0.
          5    1    3    3  501    0 -0.17692299467E+02  0.23115837459E+02  0.40380076748E+02  0.50000000000E+02  0.47000000000E+01 0. -1.
         -5    1    3    3    0  501  0.17692299467E+02 -0.23115837459E+02 -0.40380076748E+02  0.50000000000E+02  0.47000000000E+01 0.  1.
</event>
<event>
 5    1  0.9081766E-001  0.1000000E+03  0.7546771E-02  0.1163815E+00
         11   -1    0    0    0    0  0.00000000000E+00  0.00000000000E+00  0.50000000000E+02  0.50000000000E+02  0.00000000000E+00 0.  1.
        -11   -1    0    0    0    0 -0.00000000000E+00 -0.00000000000E+00 -0.50000000000E+02  0.50000000000E+02  0.00000000000E+00 0. -1.
         23    2    1    2    0    0  0.00000000000E+00  0.00000000000E+00  0.00000000000E+00  0.10000000000E+03  0.10000000000E+03 0.  0.
          5    1    3    3  501    0 -0.10432116062E+02  0.29758017302E+02 -0.38516767267E+02  0.50000000000E+02  0.47000000000E+01 0. -1.
         -5    1    3    3    0  501  0.10432116062E+02 -0.29758017302E+02  0.38516767267E+02  0.50000000000E+02  0.47000000000E+01 0.  1.
</event>
<event>
 5    1  0.9081766E-001  0.1000000E+03  0.7546771E-02  0.1163815E+00
         11   -1    0    0    0    0  0.00000000000E+00  0.00000000000E+00  0.50000000000E+02  0.50000000000E+02  0.00000000000E+00 0.  1.
        -11   -1    0    0    0    0 -0.00000000000E+00 -0.00000000000E+00 -0.50000000000E+02  0.50000000000E+02  0.00000000000E+00 0. -1.
         23    2    1    2    0    0  0.00000000000E+00  0.00000000000E+00  0.00000000000E+00  0.10000000000E+03  0.10000000000E+03 0.  0.
          5    1    3    3  501    0  0.32888354514E+02 -0.45641220254E+01 -0.37086856533E+02  0.50000000000E+02  0.47000000000E+01 0. -1.
         -5    1    3    3    0  501 -0.32888354514E+02  0.45641220254E+01  0.37086856533E+02  0.50000000000E+02  0.47000000000E+01 0.  1.
</event>
<event>
 5    1  0.9081766E-001  0.1000000E+03  0.7546771E-02  0.1163815E+00
         11   -1    0    0    0    0  0.00000000000E+00  0.00000000000E+00  0.50000000000E+02  0.50000000000E+02  0.00000000000E+00 0. -1.
        -11   -1    0    0    0    0 -0.00000000000E+00 -0.00000000000E+00 -0.50000000000E+02  0.50000000000E+02  0.00000000000E+00 0.  1.
         23    2    1    2    0    0  0.00000000000E+00  0.00000000000E+00  0.00000000000E+00  0.10000000000E+03  0.10000000000E+03 0.  0.
          5    1    3    3  501    0 -0.11773030932E+02  0.15750236565E+02  0.45730031607E+02  0.50000000000E+02  0.47000000000E+01 0. -1.
         -5    1    3    3    0  501  0.11773030932E+02 -0.15750236565E+02 -0.45730031607E+02  0.50000000000E+02  0.47000000000E+01 0.  1.
</event>
<event>
 5    1  0.9081766E-001  0.1000000E+03  0.7546771E-02  0.1163815E+00
         11   -1    0    0    0    0  0.00000000000E+00  0.00000000000E+00  0.50000000000E+02  0.50000000000E+02  0.00000000000E+00 0.  1.
        -11   -1    0    0    0    0 -0.00000000000E+00 -0.00000000000E+00 -0.50000000000E+02  0.50000000000E+02  0.00000000000E+00 0. -1.
         23    2    1    2    0    0  0.00000000000E+00  0.00000000000E+00  0.00000000000E+00  0.10000000000E+03  0.10000000000E+03 0.  0.
          5    1    3    3  501    0  0.17017735553E+02  0.38198679589E+01 -0.46623119645E+02  0.50000000000E+02  0.47000000000E+01 0. -1.
         -5    1    3    3    0  501 -0.17017735553E+02 -0.38198679589E+01  0.46623119645E+02  0.50000000000E+02  0.47000000000E+01 0.  1.
</event>
<event>
 5    1  0.9081766E-001  0.1000000E+03  0.7546771E-02  0.1163815E+00
         11   -1    0    0    0    0  0.00000000000E+00  0.00000000000E+00  0.50000000000E+02  0.50000000000E+02  0.00000000000E+00 0. -1.
        -11   -1    0    0    0    0 -0.00000000000E+00 -0.00000000000E+00 -0.50000000000E+02  0.50000000000E+02  0.00000000000E+00 0.  1.
         23    2    1    2    0    0  0.00000000000E+00  0.00000000000E+00  0.00000000000E+00  0.10000000000E+03  0.10000000000E+03 0.  0.
          5    1    3    3  501    0 -0.22333169708E+02 -0.24934472998E+02  0.36843067015E+02  0.50000000000E+02  0.47000000000E+01 0. -1.
         -5    1    3    3    0  501  0.22333169708E+02  0.24934472998E+02 -0.36843067015E+02  0.50000000000E+02  0.47000000000E+01 0.  1.
</event>
<event>
 5    1  0.9081766E-001  0.1000000E+03  0.7546771E-02  0.1163815E+00
         11   -1    0    0    0    0  0.00000000000E+00  0.00000000000E+00  0.50000000000E+02  0.50000000000E+02  0.00000000000E+00 0. -1.
        -11   -1    0    0    0    0 -0.00000000000E+00 -0.00000000000E+00 -0.50000000000E+02  0.50000000000E+02  0.00000000000E+00 0.  1.
         23    2    1    2    0    0  0.00000000000E+00  0.00000000000E+00  0.00000000000E+00  0.10000000000E+03  0.10000000000E+03 0.  0.
          5    1    3    3  501    0 -0.20805107969E+02 -0.16163560147E+02  0.42235018714E+02  0.50000000000E+02  0.47000000000E+01 0. -1.
         -5    1    3    3    0  501  0.20805107969E+02  0.16163560147E+02 -0.42235018714E+02  0.50000000000E+02  0.47000000000E+01 0.  1.
</event>
<event>
 5    1  0.9081766E-001  0.1000000E+03  0.7546771E-02  0.1163815E+00
         11   -1    0    0    0    0  0.00000000000E+00  0.00000000000E+00  0.50000000000E+02  0.50000000000E+02  0.00000000000E+00 0.  1.
        -11   -1    0    0    0    0 -0.00000000000E+00 -0.00000000000E+00 -0.50000000000E+02  0.50000000000E+02  0.00000000000E+00 0. -1.
         23    2    1    2    0    0  0.00000000000E+00  0.00000000000E+00  0.00000000000E+00  0.10000000000E+03  0.10000000000E+03 0.  0.
          5    1    3    3  501    0  0.36272305389E+02 -0.19159437285E+02 -0.28198330176E+02  0.50000000000E+02  0.47000000000E+01 0. -1.
         -5    1    3    3    0  501 -0.36272305389E+02  0.19159437285E+02  0.28198330176E+02  0.50000000000E+02  0.47000000000E+01 0.  1.
</event>
<event>
 5    1  0.9081766E-001  0.1000000E+03  0.7546771E-02  0.1163815E+00
         11   -1    0    0    0    0  0.00000000000E+00  0.00000000000E+00  0.50000000000E+02  0.50000000000E+02  0.00000000000E+00 0. -1.
        -11   -1    0    0    0    0 -0.00000000000E+00 -0.00000000000E+00 -0.50000000000E+02  0.50000000000E+02  0.00000000000E+00 0.  1.
         23    2    1    2    0    0  0.00000000000E+00  0.00000000000E+00  0.00000000000E+00  0.10000000000E+03  0.10000000000E+03 0.  0.
          5    1    3    3  501    0 -0.90397160533E+01  0.14025934488E+02  0.46898472208E+02  0.50000000000E+02  0.47000000000E+01 0. -1.
         -5    1    3    3    0  501  0.90397160533E+01 -0.14025934488E+02 -0.46898472208E+02  0.50000000000E+02  0.47000000000E+01 0.  1.
</event>
<event>
 5    1  0.9081766E-001  0.1000000E+03  0.7546771E-02  0.1163815E+00
         11   -1    0    0    0    0  0.00000000000E+00  0.00000000000E+00  0.50000000000E+02  0.50000000000E+02  0.00000000000E+00 0. -1.
        -11   -1    0    0    0    0 -0.00000000000E+00 -0.00000000000E+00 -0.50000000000E+02  0.50000000000E+02  0.00000000000E+00 0.  1.
         23    2    1    2    0    0  0.00000000000E+00  0.00000000000E+00  0.00000000000E+00  0.10000000000E+03  0.10000000000E+03 0.  0.
          5    1    3    3  501    0 -0.22575373127E+02  0.35665752583E+02  0.26385917094E+02  0.50000000000E+02  0.47000000000E+01 0. -1.
         -5    1    3    3    0  501  0.22575373127E+02 -0.35665752583E+02 -0.26385917094E+02  0.50000000000E+02  0.47000000000E+01 0.  1.
</event>
<event>
 5    1  0.9081766E-001  0.1000000E+03  0.7546771E-02  0.1163815E+00
         11   -1    0    0    0    0  0.00000000000E+00  0.00000000000E+00  0.50000000000E+02  0.50000000000E+02  0.00000000000E+00 0. -1.
        -11   -1    0    0    0    0 -0.00000000000E+00 -0.00000000000E+00 -0.50000000000E+02  0.50000000000E+02  0.00000000000E+00 0.  1.
         23    2    1    2    0    0  0.00000000000E+00  0.00000000000E+00  0.00000000000E+00  0.10000000000E+03  0.10000000000E+03 0.  0.
          5    1    3    3  501    0  0.15909419073E+02 -0.46892540063E+02 -0.50882286910E+01  0.50000000000E+02  0.47000000000E+01 0.  1.
         -5    1    3    3    0  501 -0.15909419073E+02  0.46892540063E+02  0.50882286910E+01  0.50000000000E+02  0.47000000000E+01 0.  1.
</event>
<event>
 5    1  0.9081766E-001  0.1000000E+03  0.7546771E-02  0.1163815E+00
         11   -1    0    0    0    0  0.00000000000E+00  0.00000000000E+00  0.50000000000E+02  0.50000000000E+02  0.00000000000E+00 0.  1.
        -11   -1    0    0    0    0 -0.00000000000E+00 -0.00000000000E+00 -0.50000000000E+02  0.50000000000E+02  0.00000000000E+00 0. -1.
         23    2    1    2    0    0  0.00000000000E+00  0.00000000000E+00  0.00000000000E+00  0.10000000000E+03  0.10000000000E+03 0.  0.
          5    1    3    3  501    0 -0.97817968642E+01 -0.20607080003E+02 -0.44244487836E+02  0.50000000000E+02  0.47000000000E+01 0. -1.
         -5    1    3    3    0  501  0.97817968642E+01  0.20607080003E+02  0.44244487836E+02  0.50000000000E+02  0.47000000000E+01 0.  1.
</event>
<event>
 5    1  0.9081766E-001  0.1000000E+03  0.7546771E-02  0.1163815E+00
         11   -1    0    0    0    0  0.00000000000E+00  0.00000000000E+00  0.50000000000E+02  0.50000000000E+02  0.00000000000E+00 0.  1.
        -11   -1    0    0    0    0 -0.00000000000E+00 -0.00000000000E+00 -0.50000000000E+02  0.50000000000E+02  0.00000000000E+00 0. -1.
         23    2    1    2    0    0  0.00000000000E+00  0.00000000000E+00  0.00000000000E+00  0.10000000000E+03  0.10000000000E+03 0.  0.
          5    1    3    3  501    0  0.27342901886E+02  0.17165935448E+02 -0.37889396625E+02  0.50000000000E+02  0.47000000000E+01 0. -1.
         -5    1    3    3    0  501 -0.27342901886E+02 -0.17165935448E+02  0.37889396625E+02  0.50000000000E+02  0.47000000000E+01 0.  1.
</event>
<event>
 5    1  0.9081766E-001  0.1000000E+03  0.7546771E-02  0.1163815E+00
         11   -1    0    0    0    0  0.00000000000E+00  0.00000000000E+00  0.50000000000E+02  0.50000000000E+02  0.00000000000E+00 0.  1.
        -11   -1    0    0    0    0 -0.00000000000E+00 -0.00000000000E+00 -0.50000000000E+02  0.50000000000E+02  0.00000000000E+00 0. -1.
         23    2    1    2    0    0  0.00000000000E+00  0.00000000000E+00  0.00000000000E+00  0.10000000000E+03  0.10000000000E+03 0.  0.
          5    1    3    3  501    0  0.24182992615E+02 -0.40671186070E+02 -0.15457926505E+02  0.50000000000E+02  0.47000000000E+01 0. -1.
         -5    1    3    3    0  501 -0.24182992615E+02  0.40671186070E+02  0.15457926505E+02  0.50000000000E+02  0.47000000000E+01 0.  1.
</event>
<event>
 5    1  0.9081766E-001  0.1000000E+03  0.7546771E-02  0.1163815E+00
         11   -1    0    0    0    0  0.00000000000E+00  0.00000000000E+00  0.50000000000E+02  0.50000000000E+02  0.00000000000E+00 0. -1.
        -11   -1    0    0    0    0 -0.00000000000E+00 -0.00000000000E+00 -0.50000000000E+02  0.50000000000E+02  0.00000000000E+00 0.  1.
         23    2    1    2    0    0  0.00000000000E+00  0.00000000000E+00  0.00000000000E+00  0.10000000000E+03  0.10000000000E+03 0.  0.
          5    1    3    3  501    0 -0.28253508387E+02  0.37884878735E+02  0.15632825306E+02  0.50000000000E+02  0.47000000000E+01 0. -1.
         -5    1    3    3    0  501  0.28253508387E+02 -0.37884878735E+02 -0.15632825306E+02  0.50000000000E+02  0.47000000000E+01 0.  1.
</event>
<event>
 5    1  0.9081766E-001  0.1000000E+03  0.7546771E-02  0.1163815E+00
         11   -1    0    0    0    0  0.00000000000E+00  0.00000000000E+00  0.50000000000E+02  0.50000000000E+02  0.00000000000E+00 0.  1.
        -11   -1    0    0    0    0 -0.00000000000E+00 -0.00000000000E+00 -0.50000000000E+02  0.50000000000E+02  0.00000000000E+00 0. -1.
         23    2    1    2    0    0  0.00000000000E+00  0.00000000000E+00  0.00000000000E+00  0.10000000000E+03  0.10000000000E+03 0.  0.
          5    1    3    3  501    0  0.30405224589E+02 -0.14586946723E+02 -0.36614932787E+02  0.50000000000E+02  0.47000000000E+01 0. -1.
         -5    1    3    3    0  501 -0.30405224589E+02  0.14586946723E+02  0.36614932787E+02  0.50000000000E+02  0.47000000000E+01 0.  1.
</event>
<event>
 5    1  0.9081766E-001  0.1000000E+03  0.7546771E-02  0.1163815E+00
         11   -1    0    0    0    0  0.00000000000E+00  0.00000000000E+00  0.50000000000E+02  0.50000000000E+02  0.00000000000E+00 0. -1.
        -11   -1    0    0    0    0 -0.00000000000E+00 -0.00000000000E+00 -0.50000000000E+02  0.50000000000E+02  0.00000000000E+00 0.  1.
         23    2    1    2    0    0  0.00000000000E+00  0.00000000000E+00  0.00000000000E+00  0.10000000000E+03  0.10000000000E+03 0.  0.
          5    1    3    3  501    0  0.10006507623E+02 -0.18535514963E+02  0.45102267019E+02  0.50000000000E+02  0.47000000000E+01 0. -1.
         -5    1    3    3    0  501 -0.10006507623E+02  0.18535514963E+02 -0.45102267019E+02  0.50000000000E+02  0.47000000000E+01 0.  1.
</event>
<event>
 5    1  0.9081766E-001  0.1000000E+03  0.7546771E-02  0.1163815E+00
         11   -1    0    0    0    0  0.00000000000E+00  0.00000000000E+00  0.50000000000E+02  0.50000000000E+02  0.00000000000E+00 0. -1.
        -11   -1    0    0    0    0 -0.00000000000E+00 -0.00000000000E+00 -0.50000000000E+02  0.50000000000E+02  0.00000000000E+00 0.  1.
         23    2    1    2    0    0  0.00000000000E+00  0.00000000000E+00  0.00000000000E+00  0.10000000000E+03  0.10000000000E+03 0.  0.
          5    1    3    3  501    0  0.42247891927E+00 -0.35891146242E+02  0.34489956987E+02  0.50000000000E+02  0.47000000000E+01 0. -1.
         -5    1    3    3    0  501 -0.42247891927E+00  0.35891146242E+02 -0.34489956987E+02  0.50000000000E+02  0.47000000000E+01 0.  1.
</event>
<event>
 5    1  0.9081766E-001  0.1000000E+03  0.7546771E-02  0.1163815E+00
         11   -1    0    0    0    0  0.00000000000E+00  0.00000000000E+00  0.50000000000E+02  0.50000000000E+02  0.00000000000E+00 0.  1.
        -11   -1    0    0    0    0 -0.00000000000E+00 -0.00000000000E+00 -0.50000000000E+02  0.50000000000E+02  0.00000000000E+00 0. -1.
         23    2    1    2    0    0  0.00000000000E+00  0.00000000000E+00  0.00000000000E+00  0.10000000000E+03  0.10000000000E+03 0.  0.
          5    1    3    3  501    0  0.32516054862E+02 -0.14967678263E+02 -0.34591686626E+02  0.50000000000E+02  0.47000000000E+01 0. -1.
         -5    1    3    3    0  501 -0.32516054862E+02  0.14967678263E+02  0.34591686626E+02  0.50000000000E+02  0.47000000000E+01 0.  1.
</event>
<event>
 5    1  0.9081766E-001  0.1000000E+03  0.7546771E-02  0.1163815E+00
         11   -1    0    0    0    0  0.00000000000E+00  0.00000000000E+00  0.50000000000E+02  0.50000000000E+02  0.00000000000E+00 0.  1.
        -11   -1    0    0    0    0 -0.00000000000E+00 -0.00000000000E+00 -0.50000000000E+02  0.50000000000E+02  0.00000000000E+00 0. -1.
         23    2    1    2    0    0  0.00000000000E+00  0.00000000000E+00  0.00000000000E+00  0.10000000000E+03  0.10000000000E+03 0.  0.
          5    1    3    3  501    0  0.23704525396E+02  0.18706606540E+02 -0.39573581434E+02  0.50000000000E+02  0.47000000000E+01 0. -1.
         -5    1    3    3    0  501 -0.23704525396E+02 -0.18706606540E+02  0.39573581434E+02  0.50000000000E+02  0.47000000000E+01 0.  1.
</event>
<event>
 5    1  0.9081766E-001  0.1000000E+03  0.7546771E-02  0.1163815E+00
         11   -1    0    0    0    0  0.00000000000E+00  0.00000000000E+00  0.50000000000E+02  0.50000000000E+02  0.00000000000E+00 0. -1.
        -11   -1    0    0    0    0 -0.00000000000E+00 -0.00000000000E+00 -0.50000000000E+02  0.50000000000E+02  0.00000000000E+00 0.  1.
         23    2    1    2    0    0  0.00000000000E+00  0.00000000000E+00  0.00000000000E+00  0.10000000000E+03  0.10000000000E+03 0.  0.
          5    1    3    3  501    0 -0.41220728946E+02 -0.10443597324E+02  0.25878423060E+02  0.50000000000E+02  0.47000000000E+01 0. -1.
         -5    1    3    3    0  501  0.41220728946E+02  0.10443597324E+02 -0.25878423060E+02  0.50000000000E+02  0.47000000000E+01 0.  1.
</event>
<event>
 5    1  0.9081766E-001  0.1000000E+03  0.7546771E-02  0.1163815E+00
         11   -1    0    0    0    0  0.00000000000E+00  0.00000000000E+00  0.50000000000E+02  0.50000000000E+02  0.00000000000E+00 0. -1.
        -11   -1    0    0    0    0 -0.00000000000E+00 -0.00000000000E+00 -0.50000000000E+02  0.50000000000E+02  0.00000000000E+00 0.  1.
         23    2    1    2    0    0  0.00000000000E+00  0.00000000000E+00  0.00000000000E+00  0.10000000000E+03  0.10000000000E+03 0.  0.
          5    1    3    3  501    0 -0.14146091194E+02  0.17759075476E+02  0.44299134779E+02  0.50000000000E+02  0.47000000000E+01 0. -1.
         -5    1    3    3    0  501  0.14146091194E+02 -0.17759075476E+02 -0.44299134779E+02  0.50000000000E+02  0.47000000000E+01 0.  1.
</event>
<event>
 5    1  0.9081766E-001  0.1000000E+03  0.7546771E-02  0.1163815E+00
         11   -1    0    0    0    0  0.00000000000E+00  0.00000000000E+00  0.50000000000E+02  0.50000000000E+02  0.00000000000E+00 0. -1.
        -11   -1    0    0    0    0 -0.00000000000E+00 -0.00000000000E+00 -0.50000000000E+02  0.50000000000E+02  0.00000000000E+00 0.  1.
         23    2    1    2    0    0  0.00000000000E+00  0.00000000000E+00  0.00000000000E+00  0.10000000000E+03  0.10000000000E+03 0.  0.
          5    1    3    3  501    0  0.40784525868E+01  0.27728357892E+02  0.41138964414E+02  0.50000000000E+02  0.47000000000E+01 0. -1.
         -5    1    3    3    0  501 -0.40784525868E+01 -0.27728357892E+02 -0.41138964414E+02  0.50000000000E+02  0.47000000000E+01 0.  1.
</event>
<event>
 5    1  0.9081766E-001  0.1000000E+03  0.7546771E-02  0.1163815E+00
         11   -1    0    0    0    0  0.00000000000E+00  0.00000000000E+00  0.50000000000E+02  0.50000000000E+02  0.00000000000E+00 0.  1.
        -11   -1    0    0    0    0 -0.00000000000E+00 -0.00000000000E+00 -0.50000000000E+02  0.50000000000E+02  0.00000000000E+00 0. -1.
         23    2    1    2    0    0  0.00000000000E+00  0.00000000000E+00  0.00000000000E+00  0.10000000000E+03  0.10000000000E+03 0.  0.
          5    1    3    3  501    0  0.42660704322E+02 -0.10094882842E+02  0.23581086641E+02  0.50000000000E+02  0.47000000000E+01 0. -1.
         -5    1    3    3    0  501 -0.42660704322E+02  0.10094882842E+02 -0.23581086641E+02  0.50000000000E+02  0.47000000000E+01 0.  1.
</event>
<event>
 5    1  0.9081766E-001  0.1000000E+03  0.7546771E-02  0.1163815E+00
         11   -1    0    0    0    0  0.00000000000E+00  0.00000000000E+00  0.50000000000E+02  0.50000000000E+02  0.00000000000E+00 0. -1.
        -11   -1    0    0    0    0 -0.00000000000E+00 -0.00000000000E+00 -0.50000000000E+02  0.50000000000E+02  0.00000000000E+00 0.  1.
         23    2    1    2    0    0  0.00000000000E+00  0.00000000000E+00  0.00000000000E+00  0.10000000000E+03  0.10000000000E+03 0.  0.
          5    1    3    3  501    0 -0.25804228070E+02  0.42568198525E+02  0.16972643561E-01  0.50000000000E+02  0.47000000000E+01 0. -1.
         -5    1    3    3    0  501  0.25804228070E+02 -0.42568198525E+02 -0.16972643561E-01  0.50000000000E+02  0.47000000000E+01 0.  1.
</event>
<event>
 5    1  0.9081766E-001  0.1000000E+03  0.7546771E-02  0.1163815E+00
         11   -1    0    0    0    0  0.00000000000E+00  0.00000000000E+00  0.50000000000E+02  0.50000000000E+02  0.00000000000E+00 0. -1.
        -11   -1    0    0    0    0 -0.00000000000E+00 -0.00000000000E+00 -0.50000000000E+02  0.50000000000E+02  0.00000000000E+00 0.  1.
         23    2    1    2    0    0  0.00000000000E+00  0.00000000000E+00  0.00000000000E+00  0.10000000000E+03  0.10000000000E+03 0.  0.
          5    1    3    3  501    0  0.34269744651E+02  0.27076352965E+02  0.23882330533E+02  0.50000000000E+02  0.47000000000E+01 0. -1.
         -5    1    3    3    0  501 -0.34269744651E+02 -0.27076352965E+02 -0.23882330533E+02  0.50000000000E+02  0.47000000000E+01 0.  1.
</event>
<event>
 5    1  0.9081766E-001  0.1000000E+03  0.7546771E-02  0.1163815E+00
         11   -1    0    0    0    0  0.00000000000E+00  0.00000000000E+00  0.50000000000E+02  0.50000000000E+02  0.00000000000E+00 0.  1.
        -11   -1    0    0    0    0 -0.00000000000E+00 -0.00000000000E+00 -0.50000000000E+02  0.50000000000E+02  0.00000000000E+00 0. -1.
         23    2    1    2    0    0  0.00000000000E+00  0.00000000000E+00  0.00000000000E+00  0.10000000000E+03  0.10000000000E+03 0.  0.
          5    1    3    3  501    0  0.18025919651E+02 -0.40667116817E+02 -0.22341929875E+02  0.50000000000E+02  0.47000000000E+01 0. -1.
         -5    1    3    3    0  501 -0.18025919651E+02  0.40667116817E+02  0.22341929875E+02  0.50000000000E+02  0.47000000000E+01 0.  1.
</event>
<event>
 5    1  0.9081766E-001  0.1000000E+03  0.7546771E-02  0.1163815E+00
         11   -1    0    0    0    0  0.00000000000E+00  0.00000000000E+00  0.50000000000E+02  0.50000000000E+02  0.00000000000E+00 0.  1.
        -11   -1    0    0    0    0 -0.00000000000E+00 -0.00000000000E+00 -0.50000000000E+02  0.50000000000E+02  0.00000000000E+00 0. -1.
         23    2    1    2    0    0  0.00000000000E+00  0.00000000000E+00  0.00000000000E+00  0.10000000000E+03  0.10000000000E+03 0.  0.
          5    1    3    3  501    0  0.17601977055E+02  0.38295161102E+02 -0.26486997564E+02  0.50000000000E+02  0.47000000000E+01 0. -1.
         -5    1    3    3    0  501 -0.17601977055E+02 -0.38295161102E+02  0.26486997564E+02  0.50000000000E+02  0.47000000000E+01 0.  1.
</event>
<event>
 5    1  0.9081766E-001  0.1000000E+03  0.7546771E-02  0.1163815E+00
         11   -1    0    0    0    0  0.00000000000E+00  0.00000000000E+00  0.50000000000E+02  0.50000000000E+02  0.00000000000E+00 0. -1.
        -11   -1    0    0    0    0 -0.00000000000E+00 -0.00000000000E+00 -0.50000000000E+02  0.50000000000E+02  0.00000000000E+00 0.  1.
         23    2    1    2    0    0  0.00000000000E+00  0.00000000000E+00  0.00000000000E+00  0.10000000000E+03  0.10000000000E+03 0.  0.
          5    1    3    3  501    0  0.26471311162E+02 -0.25353062040E+02 -0.33680883755E+02  0.50000000000E+02  0.47000000000E+01 0. -1.
         -5    1    3    3    0  501 -0.26471311162E+02  0.25353062040E+02  0.33680883755E+02  0.50000000000E+02  0.47000000000E+01 0.  1.
</event>
<event>
 5    1  0.9081766E-001  0.1000000E+03  0.7546771E-02  0.1163815E+00
         11   -1    0    0    0    0  0.00000000000E+00  0.00000000000E+00  0.50000000000E+02  0.50000000000E+02  0.00000000000E+00 0. -1.
        -11   -1    0    0    0    0 -0.00000000000E+00 -0.00000000000E+00 -0.50000000000E+02  0.50000000000E+02  0.00000000000E+00 0.  1.
         23    2    1    2    0    0  0.00000000000E+00  0.00000000000E+00  0.00000000000E+00  0.10000000000E+03  0.10000000000E+03 0.  0.
          5    1    3    3  501    0 -0.11211803665E+02 -0.42111960419E+02  0.24058018377E+02  0.50000000000E+02  0.47000000000E+01 0. -1.
         -5    1    3    3    0  501  0.11211803665E+02  0.42111960419E+02 -0.24058018377E+02  0.50000000000E+02  0.47000000000E+01 0.  1.
</event>
<event>
 5    1  0.9081766E-001  0.1000000E+03  0.7546771E-02  0.1163815E+00
         11   -1    0    0    0    0  0.00000000000E+00  0.00000000000E+00  0.50000000000E+02  0.50000000000E+02  0.00000000000E+00 0. -1.
        -11   -1    0    0    0    0 -0.00000000000E+00 -0.00000000000E+00 -0.50000000000E+02  0.50000000000E+02  0.00000000000E+00 0.  1.
         23    2    1    2    0    0  0.00000000000E+00  0.00000000000E+00  0.00000000000E+00  0.10000000000E+03  0.10000000000E+03 0.  0.
          5    1    3    3  501    0  0.34465593354E+02 -0.26298278699E+01  0.35820620879E+02  0.50000000000E+02  0.47000000000E+01 0. -1.
         -5    1    3    3    0  501 -0.34465593354E+02  0.26298278699E+01 -0.35820620879E+02  0.50000000000E+02  0.47000000000E+01 0.  1.
</event>
<event>
 5    1  0.9081766E-001  0.1000000E+03  0.7546771E-02  0.1163815E+00
         11   -1    0    0    0    0  0.00000000000E+00  0.00000000000E+00  0.50000000000E+02  0.50000000000E+02  0.00000000000E+00 0. -1.
        -11   -1    0    0    0    0 -0.00000000000E+00 -0.00000000000E+00 -0.50000000000E+02  0.50000000000E+02  0.00000000000E+00 0.  1.
         23    2    1    2    0    0  0.00000000000E+00  0.00000000000E+00  0.00000000000E+00  0.10000000000E+03  0.10000000000E+03 0.  0.
          5    1    3    3  501    0  0.53956675176E+01  0.18505015011E+02  0.45895110758E+02  0.50000000000E+02  0.47000000000E+01 0. -1.
         -5    1    3    3    0  501 -0.53956675176E+01 -0.18505015011E+02 -0.45895110758E+02  0.50000000000E+02  0.47000000000E+01 0.  1.
</event>
<event>
 5    1  0.9081766E-001  0.1000000E+03  0.7546771E-02  0.1163815E+00
         11   -1    0    0    0    0  0.00000000000E+00  0.00000000000E+00  0.50000000000E+02  0.50000000000E+02  0.00000000000E+00 0.  1.
        -11   -1    0    0    0    0 -0.00000000000E+00 -0.00000000000E+00 -0.50000000000E+02  0.50000000000E+02  0.00000000000E+00 0. -1.
         23    2    1    2    0    0  0.00000000000E+00  0.00000000000E+00  0.00000000000E+00  0.10000000000E+03  0.10000000000E+03 0.  0.
          5    1    3    3  501    0  0.16151811372E+02  0.61141211697E+01 -0.46686684523E+02  0.50000000000E+02  0.47000000000E+01 0. -1.
         -5    1    3    3    0  501 -0.16151811372E+02 -0.61141211697E+01  0.46686684523E+02  0.50000000000E+02  0.47000000000E+01 0.  1.
</event>
<event>
 5    1  0.9081766E-001  0.1000000E+03  0.7546771E-02  0.1163815E+00
         11   -1    0    0    0    0  0.00000000000E+00  0.00000000000E+00  0.50000000000E+02  0.50000000000E+02  0.00000000000E+00 0. -1.
        -11   -1    0    0    0    0 -0.00000000000E+00 -0.00000000000E+00 -0.50000000000E+02  0.50000000000E+02  0.00000000000E+00 0.  1.
         23    2    1    2    0    0  0.00000000000E+00  0.00000000000E+00  0.00000000000E+00  0.10000000000E+03  0.10000000000E+03 0.  0.
          5    1    3    3  501    0 -0.10336595045E+02  0.68741582254E+01  0.48205920296E+02  0.50000000000E+02  0.47000000000E+01 0. -1.
         -5    1    3    3    0  501  0.10336595045E+02 -0.68741582254E+01 -0.48205920296E+02  0.50000000000E+02  0.47000000000E+01 0.  1.
</event>
<event>
 5    1  0.9081766E-001  0.1000000E+03  0.7546771E-02  0.1163815E+00
         11   -1    0    0    0    0  0.00000000000E+00  0.00000000000E+00  0.50000000000E+02  0.50000000000E+02  0.00000000000E+00 0. -1.
        -11   -1    0    0    0    0 -0.00000000000E+00 -0.00000000000E+00 -0.50000000000E+02  0.50000000000E+02  0.00000000000E+00 0.  1.
         23    2    1    2    0    0  0.00000000000E+00  0.00000000000E+00  0.00000000000E+00  0.10000000000E+03  0.10000000000E+03 0.  0.
          5    1    3    3  501    0 -0.18472666800E+02 -0.24745826373E+02  0.39042472493E+02  0.50000000000E+02  0.47000000000E+01 0. -1.
         -5    1    3    3    0  501  0.18472666800E+02  0.24745826373E+02 -0.39042472493E+02  0.50000000000E+02  0.47000000000E+01 0.  1.
</event>
<event>
 5    1  0.9081766E-001  0.1000000E+03  0.7546771E-02  0.1163815E+00
         11   -1    0    0    0    0  0.00000000000E+00  0.00000000000E+00  0.50000000000E+02  0.50000000000E+02  0.00000000000E+00 0. -1.
        -11   -1    0    0    0    0 -0.00000000000E+00 -0.00000000000E+00 -0.50000000000E+02  0.50000000000E+02  0.00000000000E+00 0.  1.
         23    2    1    2    0    0  0.00000000000E+00  0.00000000000E+00  0.00000000000E+00  0.10000000000E+03  0.10000000000E+03 0.  0.
          5    1    3    3  501    0  0.13275575193E+02  0.41504269101E+02  0.24063764246E+02  0.50000000000E+02  0.47000000000E+01 0. -1.
         -5    1    3    3    0  501 -0.13275575193E+02 -0.41504269101E+02 -0.24063764246E+02  0.50000000000E+02  0.47000000000E+01 0.  1.
</event>
<event>
 5    1  0.9081766E-001  0.1000000E+03  0.7546771E-02  0.1163815E+00
         11   -1    0    0    0    0  0.00000000000E+00  0.00000000000E+00  0.50000000000E+02  0.50000000000E+02  0.00000000000E+00 0.  1.
        -11   -1    0    0    0    0 -0.00000000000E+00 -0.00000000000E+00 -0.50000000000E+02  0.50000000000E+02  0.00000000000E+00 0. -1.
         23    2    1    2    0    0  0.00000000000E+00  0.00000000000E+00  0.00000000000E+00  0.10000000000E+03  0.10000000000E+03 0.  0.
          5    1    3    3  501    0 -0.42751491461E+02  0.25048462347E+02 -0.47743598432E+01  0.50000000000E+02  0.47000000000E+01 0. -1.
         -5    1    3    3    0  501  0.42751491461E+02 -0.25048462347E+02  0.47743598432E+01  0.50000000000E+02  0.47000000000E+01 0.  1.
</event>
<event>
 5    1  0.9081766E-001  0.1000000E+03  0.7546771E-02  0.1163815E+00
         11   -1    0    0    0    0  0.00000000000E+00  0.00000000000E+00  0.50000000000E+02  0.50000000000E+02  0.00000000000E+00 0. -1.
        -11   -1    0    0    0    0 -0.00000000000E+00 -0.00000000000E+00 -0.50000000000E+02  0.50000000000E+02  0.00000000000E+00 0.  1.
         23    2    1    2    0    0  0.00000000000E+00  0.00000000000E+00  0.00000000000E+00  0.10000000000E+03  0.10000000000E+03 0.  0.
          5    1    3    3  501    0 -0.14759662300E+02 -0.47450096212E+02  0.29241645416E+01  0.50000000000E+02  0.47000000000E+01 0. -1.
         -5    1    3    3    0  501  0.14759662300E+02  0.47450096212E+02 -0.29241645416E+01  0.50000000000E+02  0.47000000000E+01 0.  1.
</event>
<event>
 5    1  0.9081766E-001  0.1000000E+03  0.7546771E-02  0.1163815E+00
         11   -1    0    0    0    0  0.00000000000E+00  0.00000000000E+00  0.50000000000E+02  0.50000000000E+02  0.00000000000E+00 0.  1.
        -11   -1    0    0    0    0 -0.00000000000E+00 -0.00000000000E+00 -0.50000000000E+02  0.50000000000E+02  0.00000000000E+00 0. -1.
         23    2    1    2    0    0  0.00000000000E+00  0.00000000000E+00  0.00000000000E+00  0.10000000000E+03  0.10000000000E+03 0.  0.
          5    1    3    3  501    0 -0.16254235386E+02  0.36831883715E+02 -0.29276648954E+02  0.50000000000E+02  0.47000000000E+01 0. -1.
         -5    1    3    3    0  501  0.16254235386E+02 -0.36831883715E+02  0.29276648954E+02  0.50000000000E+02  0.47000000000E+01 0.  1.
</event>
<event>
 5    1  0.9081766E-001  0.1000000E+03  0.7546771E-02  0.1163815E+00
         11   -1    0    0    0    0  0.00000000000E+00  0.00000000000E+00  0.50000000000E+02  0.50000000000E+02  0.00000000000E+00 0. -1.
        -11   -1    0    0    0    0 -0.00000000000E+00 -0.00000000000E+00 -0.50000000000E+02  0.50000000000E+02  0.00000000000E+00 0.  1.
         23    2    1    2    0    0  0.00000000000E+00  0.00000000000E+00  0.00000000000E+00  0.10000000000E+03  0.10000000000E+03 0.  0.
          5    1    3    3  501    0 -0.11853586175E+02 -0.48197137102E+02  0.37997986780E+01  0.50000000000E+02  0.47000000000E+01 0. -1.
         -5    1    3    3    0  501  0.11853586175E+02  0.48197137102E+02 -0.37997986780E+01  0.50000000000E+02  0.47000000000E+01 0.  1.
</event>
<event>
 5    1  0.9081766E-001  0.1000000E+03  0.7546771E-02  0.1163815E+00
         11   -1    0    0    0    0  0.00000000000E+00  0.00000000000E+00  0.50000000000E+02  0.50000000000E+02  0.00000000000E+00 0. -1.
        -11   -1    0    0    0    0 -0.00000000000E+00 -0.00000000000E+00 -0.50000000000E+02  0.50000000000E+02  0.00000000000E+00 0.  1.
         23    2    1    2    0    0  0.00000000000E+00  0.00000000000E+00  0.00000000000E+00  0.10000000000E+03  0.10000000000E+03 0.  0.
          5    1    3    3  501    0  0.48831903765E+02  0.96470322799E+01 -0.53846340611E+00  0.50000000000E+02  0.47000000000E+01 0. -1.
         -5    1    3    3    0  501 -0.48831903765E+02 -0.96470322799E+01  0.53846340611E+00  0.50000000000E+02  0.47000000000E+01 0.  1.
</event>
<event>
 5    1  0.9081766E-001  0.1000000E+03  0.7546771E-02  0.1163815E+00
         11   -1    0    0    0    0  0.00000000000E+00  0.00000000000E+00  0.50000000000E+02  0.50000000000E+02  0.00000000000E+00 0.  1.
        -11   -1    0    0    0    0 -0.00000000000E+00 -0.00000000000E+00 -0.50000000000E+02  0.50000000000E+02  0.00000000000E+00 0. -1.
         23    2    1    2    0    0  0.00000000000E+00  0.00000000000E+00  0.00000000000E+00  0.10000000000E+03  0.10000000000E+03 0.  0.
          5    1    3    3  501    0 -0.14962768949E+02  0.16213730260E+02 -0.44622197351E+02  0.50000000000E+02  0.47000000000E+01 0. -1.
         -5    1    3    3    0  501  0.14962768949E+02 -0.16213730260E+02  0.44622197351E+02  0.50000000000E+02  0.47000000000E+01 0.  1.
</event>
<event>
 5    1  0.9081766E-001  0.1000000E+03  0.7546771E-02  0.1163815E+00
         11   -1    0    0    0    0  0.00000000000E+00  0.00000000000E+00  0.50000000000E+02  0.50000000000E+02  0.00000000000E+00 0.  1.
        -11   -1    0    0    0    0 -0.00000000000E+00 -0.00000000000E+00 -0.50000000000E+02  0.50000000000E+02  0.00000000000E+00 0. -1.
         23    2    1    2    0    0  0.00000000000E+00  0.00000000000E+00  0.00000000000E+00  0.10000000000E+03  0.10000000000E+03 0.  0.
          5    1    3    3  501    0  0.42197050728E+02  0.13597510048E+01 -0.26371764959E+02  0.50000000000E+02  0.47000000000E+01 0. -1.
         -5    1    3    3    0  501 -0.42197050728E+02 -0.13597510048E+01  0.26371764959E+02  0.50000000000E+02  0.47000000000E+01 0.  1.
</event>
<event>
 5    1  0.9081766E-001  0.1000000E+03  0.7546771E-02  0.1163815E+00
         11   -1    0    0    0    0  0.00000000000E+00  0.00000000000E+00  0.50000000000E+02  0.50000000000E+02  0.00000000000E+00 0.  1.
        -11   -1    0    0    0    0 -0.00000000000E+00 -0.00000000000E+00 -0.50000000000E+02  0.50000000000E+02  0.00000000000E+00 0. -1.
         23    2    1    2    0    0  0.00000000000E+00  0.00000000000E+00  0.00000000000E+00  0.10000000000E+03  0.10000000000E+03 0.  0.
          5    1    3    3  501    0  0.32745789925E+02 -0.10692464516E+02 -0.35934585635E+02  0.50000000000E+02  0.47000000000E+01 0. -1.
         -5    1    3    3    0  501 -0.32745789925E+02  0.10692464516E+02  0.35934585635E+02  0.50000000000E+02  0.47000000000E+01 0.  1.
</event>
<event>
 5    1  0.9081766E-001  0.1000000E+03  0.7546771E-02  0.1163815E+00
         11   -1    0    0    0    0  0.00000000000E+00  0.00000000000E+00  0.50000000000E+02  0.50000000000E+02  0.00000000000E+00 0. -1.
        -11   -1    0    0    0    0 -0.00000000000E+00 -0.00000000000E+00 -0.50000000000E+02  0.50000000000E+02  0.00000000000E+00 0.  1.
         23    2    1    2    0    0  0.00000000000E+00  0.00000000000E+00  0.00000000000E+00  0.10000000000E+03  0.10000000000E+03 0.  0.
          5    1    3    3  501    0 -0.15260595170E+02 -0.46762862100E+02 -0.76327559390E+01  0.50000000000E+02  0.47000000000E+01 0. -1.
         -5    1    3    3    0  501  0.15260595170E+02  0.46762862100E+02  0.76327559390E+01  0.50000000000E+02  0.47000000000E+01 0.  1.
</event>
<event>
 5    1  0.9081766E-001  0.1000000E+03  0.7546771E-02  0.1163815E+00
         11   -1    0    0    0    0  0.00000000000E+00  0.00000000000E+00  0.50000000000E+02  0.50000000000E+02  0.00000000000E+00 0. -1.
        -11   -1    0    0    0    0 -0.00000000000E+00 -0.00000000000E+00 -0.50000000000E+02  0.50000000000E+02  0.00000000000E+00 0.  1.
         23    2    1    2    0    0  0.00000000000E+00  0.00000000000E+00  0.00000000000E+00  0.10000000000E+03  0.10000000000E+03 0.  0.
          5    1    3    3  501    0 -0.14497490268E+02 -0.31537376508E+02  0.35680900478E+02  0.50000000000E+02  0.47000000000E+01 0. -1.
         -5    1    3    3    0  501  0.14497490268E+02  0.31537376508E+02 -0.35680900478E+02  0.50000000000E+02  0.47000000000E+01 0.  1.
</event>
<event>
 5    1  0.9081766E-001  0.1000000E+03  0.7546771E-02  0.1163815E+00
         11   -1    0    0    0    0  0.00000000000E+00  0.00000000000E+00  0.50000000000E+02  0.50000000000E+02  0.00000000000E+00 0. -1.
        -11   -1    0    0    0    0 -0.00000000000E+00 -0.00000000000E+00 -0.50000000000E+02  0.50000000000E+02  0.00000000000E+00 0.  1.
         23    2    1    2    0    0  0.00000000000E+00  0.00000000000E+00  0.00000000000E+00  0.10000000000E+03  0.10000000000E+03 0.  0.
          5    1    3    3  501    0 -0.18608752452E+02  0.40985464446E+02  0.21255964724E+02  0.50000000000E+02  0.47000000000E+01 0. -1.
         -5    1    3    3    0  501  0.18608752452E+02 -0.40985464446E+02 -0.21255964724E+02  0.50000000000E+02  0.47000000000E+01 0.  1.
</event>
<event>
 5    1  0.9081766E-001  0.1000000E+03  0.7546771E-02  0.1163815E+00
         11   -1    0    0    0    0  0.00000000000E+00  0.00000000000E+00  0.50000000000E+02  0.50000000000E+02  0.00000000000E+00 0.  1.
        -11   -1    0    0    0    0 -0.00000000000E+00 -0.00000000000E+00 -0.50000000000E+02  0.50000000000E+02  0.00000000000E+00 0. -1.
         23    2    1    2    0    0  0.00000000000E+00  0.00000000000E+00  0.00000000000E+00  0.10000000000E+03  0.10000000000E+03 0.  0.
          5    1    3    3  501    0 -0.25827268452E+02 -0.18503583784E+02  0.38320746228E+02  0.50000000000E+02  0.47000000000E+01 0.  1.
         -5    1    3    3    0  501  0.25827268452E+02  0.18503583784E+02 -0.38320746228E+02  0.50000000000E+02  0.47000000000E+01 0. -1.
</event>
<event>
 5    1  0.9081766E-001  0.1000000E+03  0.7546771E-02  0.1163815E+00
         11   -1    0    0    0    0  0.00000000000E+00  0.00000000000E+00  0.50000000000E+02  0.50000000000E+02  0.00000000000E+00 0. -1.
        -11   -1    0    0    0    0 -0.00000000000E+00 -0.00000000000E+00 -0.50000000000E+02  0.50000000000E+02  0.00000000000E+00 0.  1.
         23    2    1    2    0    0  0.00000000000E+00  0.00000000000E+00  0.00000000000E+00  0.10000000000E+03  0.10000000000E+03 0.  0.
          5    1    3    3  501    0 -0.18012226330E+02  0.14421410716E+02  0.44107738727E+02  0.50000000000E+02  0.47000000000E+01 0. -1.
         -5    1    3    3    0  501  0.18012226330E+02 -0.14421410716E+02 -0.44107738727E+02  0.50000000000E+02  0.47000000000E+01 0.  1.
</event>
<event>
 5    1  0.9081766E-001  0.1000000E+03  0.7546771E-02  0.1163815E+00
         11   -1    0    0    0    0  0.00000000000E+00  0.00000000000E+00  0.50000000000E+02  0.50000000000E+02  0.00000000000E+00 0.  1.
        -11   -1    0    0    0    0 -0.00000000000E+00 -0.00000000000E+00 -0.50000000000E+02  0.50000000000E+02  0.00000000000E+00 0. -1.
         23    2    1    2    0    0  0.00000000000E+00  0.00000000000E+00  0.00000000000E+00  0.10000000000E+03  0.10000000000E+03 0.  0.
          5    1    3    3  501    0 -0.37770383083E+02  0.32406373682E+02 -0.10654137875E+01  0.50000000000E+02  0.47000000000E+01 0. -1.
         -5    1    3    3    0  501  0.37770383083E+02 -0.32406373682E+02  0.10654137875E+01  0.50000000000E+02  0.47000000000E+01 0.  1.
</event>
<event>
 5    1  0.9081766E-001  0.1000000E+03  0.7546771E-02  0.1163815E+00
         11   -1    0    0    0    0  0.00000000000E+00  0.00000000000E+00  0.50000000000E+02  0.50000000000E+02  0.00000000000E+00 0. -1.
        -11   -1    0    0    0    0 -0.00000000000E+00 -0.00000000000E+00 -0.50000000000E+02  0.50000000000E+02  0.00000000000E+00 0.  1.
         23    2    1    2    0    0  0.00000000000E+00  0.00000000000E+00  0.00000000000E+00  0.10000000000E+03  0.10000000000E+03 0.  0.
          5    1    3    3  501    0  0.11899268026E+02  0.47754750932E+02 -0.74700190031E+01  0.50000000000E+02  0.47000000000E+01 0. -1.
         -5    1    3    3    0  501 -0.11899268026E+02 -0.47754750932E+02  0.74700190031E+01  0.50000000000E+02  0.47000000000E+01 0.  1.
</event>
<event>
 5    1  0.9081766E-001  0.1000000E+03  0.7546771E-02  0.1163815E+00
         11   -1    0    0    0    0  0.00000000000E+00  0.00000000000E+00  0.50000000000E+02  0.50000000000E+02  0.00000000000E+00 0. -1.
        -11   -1    0    0    0    0 -0.00000000000E+00 -0.00000000000E+00 -0.50000000000E+02  0.50000000000E+02  0.00000000000E+00 0.  1.
         23    2    1    2    0    0  0.00000000000E+00  0.00000000000E+00  0.00000000000E+00  0.10000000000E+03  0.10000000000E+03 0.  0.
          5    1    3    3  501    0 -0.19796188020E+01  0.16240758850E+02  0.47013071176E+02  0.50000000000E+02  0.47000000000E+01 0. -1.
         -5    1    3    3    0  501  0.19796188020E+01 -0.16240758850E+02 -0.47013071176E+02  0.50000000000E+02  0.47000000000E+01 0.  1.
</event>
<event>
 5    1  0.9081766E-001  0.1000000E+03  0.7546771E-02  0.1163815E+00
         11   -1    0    0    0    0  0.00000000000E+00  0.00000000000E+00  0.50000000000E+02  0.50000000000E+02  0.00000000000E+00 0. -1.
        -11   -1    0    0    0    0 -0.00000000000E+00 -0.00000000000E+00 -0.50000000000E+02  0.50000000000E+02  0.00000000000E+00 0.  1.
         23    2    1    2    0    0  0.00000000000E+00  0.00000000000E+00  0.00000000000E+00  0.10000000000E+03  0.10000000000E+03 0.  0.
          5    1    3    3  501    0  0.48836673866E+02 -0.19469371218E+01  0.94392119143E+01  0.50000000000E+02  0.47000000000E+01 0. -1.
         -5    1    3    3    0  501 -0.48836673866E+02  0.19469371218E+01 -0.94392119143E+01  0.50000000000E+02  0.47000000000E+01 0.  1.
</event>
<event>
 5    1  0.9081766E-001  0.1000000E+03  0.7546771E-02  0.1163815E+00
         11   -1    0    0    0    0  0.00000000000E+00  0.00000000000E+00  0.50000000000E+02  0.50000000000E+02  0.00000000000E+00 0.  1.
        -11   -1    0    0    0    0 -0.00000000000E+00 -0.00000000000E+00 -0.50000000000E+02  0.50000000000E+02  0.00000000000E+00 0. -1.
         23    2    1    2    0    0  0.00000000000E+00  0.00000000000E+00  0.00000000000E+00  0.10000000000E+03  0.10000000000E+03 0.  0.
          5    1    3    3  501    0  0.16876122491E+02 -0.45573561990E+02 -0.10777612777E+02  0.50000000000E+02  0.47000000000E+01 0. -1.
         -5    1    3    3    0  501 -0.16876122491E+02  0.45573561990E+02  0.10777612777E+02  0.50000000000E+02  0.47000000000E+01 0.  1.
</event>
<event>
 5    1  0.9081766E-001  0.1000000E+03  0.7546771E-02  0.1163815E+00
         11   -1    0    0    0    0  0.00000000000E+00  0.00000000000E+00  0.50000000000E+02  0.50000000000E+02  0.00000000000E+00 0. -1.
        -11   -1    0    0    0    0 -0.00000000000E+00 -0.00000000000E+00 -0.50000000000E+02  0.50000000000E+02  0.00000000000E+00 0.  1.
         23    2    1    2    0    0  0.00000000000E+00  0.00000000000E+00  0.00000000000E+00  0.10000000000E+03  0.10000000000E+03 0.  0.
          5    1    3    3  501    0 -0.18560965573E+02 -0.19142386968E+02  0.42035337255E+02  0.50000000000E+02  0.47000000000E+01 0. -1.
         -5    1    3    3    0  501  0.18560965573E+02  0.19142386968E+02 -0.42035337255E+02  0.50000000000E+02  0.47000000000E+01 0.  1.
</event>
<event>
 5    1  0.9081766E-001  0.1000000E+03  0.7546771E-02  0.1163815E+00
         11   -1    0    0    0    0  0.00000000000E+00  0.00000000000E+00  0.50000000000E+02  0.50000000000E+02  0.00000000000E+00 0. -1.
        -11   -1    0    0    0    0 -0.00000000000E+00 -0.00000000000E+00 -0.50000000000E+02  0.50000000000E+02  0.00000000000E+00 0.  1.
         23    2    1    2    0    0  0.00000000000E+00  0.00000000000E+00  0.00000000000E+00  0.10000000000E+03  0.10000000000E+03 0.  0.
          5    1    3    3  501    0 -0.42005896308E+02  0.23423795415E+02  0.12835126946E+02  0.50000000000E+02  0.47000000000E+01 0. -1.
         -5    1    3    3    0  501  0.42005896308E+02 -0.23423795415E+02 -0.12835126946E+02  0.50000000000E+02  0.47000000000E+01 0.  1.
</event>
<event>
 5    1  0.9081766E-001  0.1000000E+03  0.7546771E-02  0.1163815E+00
         11   -1    0    0    0    0  0.00000000000E+00  0.00000000000E+00  0.50000000000E+02  0.50000000000E+02  0.00000000000E+00 0. -1.
        -11   -1    0    0    0    0 -0.00000000000E+00 -0.00000000000E+00 -0.50000000000E+02  0.50000000000E+02  0.00000000000E+00 0.  1.
         23    2    1    2    0    0  0.00000000000E+00  0.00000000000E+00  0.00000000000E+00  0.10000000000E+03  0.10000000000E+03 0.  0.
          5    1    3    3  501    0  0.49108988320E+02  0.72478990097E+01 -0.36993548284E+01  0.50000000000E+02  0.47000000000E+01 0. -1.
         -5    1    3    3    0  501 -0.49108988320E+02 -0.72478990097E+01  0.36993548284E+01  0.50000000000E+02  0.47000000000E+01 0.  1.
</event>
<event>
 5    1  0.9081766E-001  0.1000000E+03  0.7546771E-02  0.1163815E+00
         11   -1    0    0    0    0  0.00000000000E+00  0.00000000000E+00  0.50000000000E+02  0.50000000000E+02  0.00000000000E+00 0.  1.
        -11   -1    0    0    0    0 -0.00000000000E+00 -0.00000000000E+00 -0.50000000000E+02  0.50000000000E+02  0.00000000000E+00 0. -1.
         23    2    1    2    0    0  0.00000000000E+00  0.00000000000E+00  0.00000000000E+00  0.10000000000E+03  0.10000000000E+03 0.  0.
          5    1    3    3  501    0  0.45915920267E+02 -0.46353429866E+01 -0.18658827976E+02  0.50000000000E+02  0.47000000000E+01 0. -1.
         -5    1    3    3    0  501 -0.45915920267E+02  0.46353429866E+01  0.18658827976E+02  0.50000000000E+02  0.47000000000E+01 0.  1.
</event>
<event>
 5    1  0.9081766E-001  0.1000000E+03  0.7546771E-02  0.1163815E+00
         11   -1    0    0    0    0  0.00000000000E+00  0.00000000000E+00  0.50000000000E+02  0.50000000000E+02  0.00000000000E+00 0. -1.
        -11   -1    0    0    0    0 -0.00000000000E+00 -0.00000000000E+00 -0.50000000000E+02  0.50000000000E+02  0.00000000000E+00 0.  1.
         23    2    1    2    0    0  0.00000000000E+00  0.00000000000E+00  0.00000000000E+00  0.10000000000E+03  0.10000000000E+03 0.  0.
          5    1    3    3  501    0 -0.92748474362E+01 -0.18731129580E+02  0.45177782036E+02  0.50000000000E+02  0.47000000000E+01 0. -1.
         -5    1    3    3    0  501  0.92748474362E+01  0.18731129580E+02 -0.45177782036E+02  0.50000000000E+02  0.47000000000E+01 0.  1.
</event>
<event>
 5    1  0.9081766E-001  0.1000000E+03  0.7546771E-02  0.1163815E+00
         11   -1    0    0    0    0  0.00000000000E+00  0.00000000000E+00  0.50000000000E+02  0.50000000000E+02  0.00000000000E+00 0. -1.
        -11   -1    0    0    0    0 -0.00000000000E+00 -0.00000000000E+00 -0.50000000000E+02  0.50000000000E+02  0.00000000000E+00 0.  1.
         23    2    1    2    0    0  0.00000000000E+00  0.00000000000E+00  0.00000000000E+00  0.10000000000E+03  0.10000000000E+03 0.  0.
          5    1    3    3  501    0 -0.41248765245E+02 -0.22205245486E+02  0.16833788602E+02  0.50000000000E+02  0.47000000000E+01 0. -1.
         -5    1    3    3    0  501  0.41248765245E+02  0.22205245486E+02 -0.16833788602E+02  0.50000000000E+02  0.47000000000E+01 0.  1.
</event>
<event>
 5    1  0.9081766E-001  0.1000000E+03  0.7546771E-02  0.1163815E+00
         11   -1    0    0    0    0  0.00000000000E+00  0.00000000000E+00  0.50000000000E+02  0.50000000000E+02  0.00000000000E+00 0.  1.
        -11   -1    0    0    0    0 -0.00000000000E+00 -0.00000000000E+00 -0.50000000000E+02  0.50000000000E+02  0.00000000000E+00 0. -1.
         23    2    1    2    0    0  0.00000000000E+00  0.00000000000E+00  0.00000000000E+00  0.10000000000E+03  0.10000000000E+03 0.  0.
          5    1    3    3  501    0 -0.31562001137E+02 -0.27010805824E+02 -0.27425653191E+02  0.50000000000E+02  0.47000000000E+01 0. -1.
         -5    1    3    3    0  501  0.31562001137E+02  0.27010805824E+02  0.27425653191E+02  0.50000000000E+02  0.47000000000E+01 0.  1.
</event>
<event>
 5    1  0.9081766E-001  0.1000000E+03  0.7546771E-02  0.1163815E+00
         11   -1    0    0    0    0  0.00000000000E+00  0.00000000000E+00  0.50000000000E+02  0.50000000000E+02  0.00000000000E+00 0.  1.
        -11   -1    0    0    0    0 -0.00000000000E+00 -0.00000000000E+00 -0.50000000000E+02  0.50000000000E+02  0.00000000000E+00 0. -1.
         23    2    1    2    0    0  0.00000000000E+00  0.00000000000E+00  0.00000000000E+00  0.10000000000E+03  0.10000000000E+03 0.  0.
          5    1    3    3  501    0  0.39755281211E+02 -0.24773791498E+02 -0.16843006579E+02  0.50000000000E+02  0.47000000000E+01 0. -1.
         -5    1    3    3    0  501 -0.39755281211E+02  0.24773791498E+02  0.16843006579E+02  0.50000000000E+02  0.47000000000E+01 0.  1.
</event>
<event>
 5    1  0.9081766E-001  0.1000000E+03  0.7546771E-02  0.1163815E+00
         11   -1    0    0    0    0  0.00000000000E+00  0.00000000000E+00  0.50000000000E+02  0.50000000000E+02  0.00000000000E+00 0. -1.
        -11   -1    0    0    0    0 -0.00000000000E+00 -0.00000000000E+00 -0.50000000000E+02  0.50000000000E+02  0.00000000000E+00 0.  1.
         23    2    1    2    0    0  0.00000000000E+00  0.00000000000E+00  0.00000000000E+00  0.10000000000E+03  0.10000000000E+03 0.  0.
          5    1    3    3  501    0  0.25439772557E+01  0.20060176898E+02  0.45486563758E+02  0.50000000000E+02  0.47000000000E+01 0. -1.
         -5    1    3    3    0  501 -0.25439772557E+01 -0.20060176898E+02 -0.45486563758E+02  0.50000000000E+02  0.47000000000E+01 0.  1.
</event>
<event>
 5    1  0.9081766E-001  0.1000000E+03  0.7546771E-02  0.1163815E+00
         11   -1    0    0    0    0  0.00000000000E+00  0.00000000000E+00  0.50000000000E+02  0.50000000000E+02  0.00000000000E+00 0. -1.
        -11   -1    0    0    0    0 -0.00000000000E+00 -0.00000000000E+00 -0.50000000000E+02  0.50000000000E+02  0.00000000000E+00 0.  1.
         23    2    1    2    0    0  0.00000000000E+00  0.00000000000E+00  0.00000000000E+00  0.10000000000E+03  0.10000000000E+03 0.  0.
          5    1    3    3  501    0 -0.13549130384E+02 -0.10241564798E+01  0.47888225790E+02  0.50000000000E+02  0.47000000000E+01 0. -1.
         -5    1    3    3    0  501  0.13549130384E+02  0.10241564798E+01 -0.47888225790E+02  0.50000000000E+02  0.47000000000E+01 0.  1.
</event>
<event>
 5    1  0.9081766E-001  0.1000000E+03  0.7546771E-02  0.1163815E+00
         11   -1    0    0    0    0  0.00000000000E+00  0.00000000000E+00  0.50000000000E+02  0.50000000000E+02  0.00000000000E+00 0. -1.
        -11   -1    0    0    0    0 -0.00000000000E+00 -0.00000000000E+00 -0.50000000000E+02  0.50000000000E+02  0.00000000000E+00 0.  1.
         23    2    1    2    0    0  0.00000000000E+00  0.00000000000E+00  0.00000000000E+00  0.10000000000E+03  0.10000000000E+03 0.  0.
          5    1    3    3  501    0 -0.99342354426E+01  0.11644115454E+02  0.47367030110E+02  0.50000000000E+02  0.47000000000E+01 0. -1.
         -5    1    3    3    0  501  0.99342354426E+01 -0.11644115454E+02 -0.47367030110E+02  0.50000000000E+02  0.47000000000E+01 0.  1.
</event>
<event>
 5    1  0.9081766E-001  0.1000000E+03  0.7546771E-02  0.1163815E+00
         11   -1    0    0    0    0  0.00000000000E+00  0.00000000000E+00  0.50000000000E+02  0.50000000000E+02  0.00000000000E+00 0. -1.
        -11   -1    0    0    0    0 -0.00000000000E+00 -0.00000000000E+00 -0.50000000000E+02  0.50000000000E+02  0.00000000000E+00 0.  1.
         23    2    1    2    0    0  0.00000000000E+00  0.00000000000E+00  0.00000000000E+00  0.10000000000E+03  0.10000000000E+03 0.  0.
          5    1    3    3  501    0  0.74173081180E+01 -0.14890920270E+02  0.46916458027E+02  0.50000000000E+02  0.47000000000E+01 0. -1.
         -5    1    3    3    0  501 -0.74173081180E+01  0.14890920270E+02 -0.46916458027E+02  0.50000000000E+02  0.47000000000E+01 0.  1.
</event>
<event>
 5    1  0.9081766E-001  0.1000000E+03  0.7546771E-02  0.1163815E+00
         11   -1    0    0    0    0  0.00000000000E+00  0.00000000000E+00  0.50000000000E+02  0.50000000000E+02  0.00000000000E+00 0.  1.
        -11   -1    0    0    0    0 -0.00000000000E+00 -0.00000000000E+00 -0.50000000000E+02  0.50000000000E+02  0.00000000000E+00 0. -1.
         23    2    1    2    0    0  0.00000000000E+00  0.00000000000E+00  0.00000000000E+00  0.10000000000E+03  0.10000000000E+03 0.  0.
          5    1    3    3  501    0 -0.22209805535E+01 -0.37498840257E+02 -0.32662122172E+02  0.50000000000E+02  0.47000000000E+01 0. -1.
         -5    1    3    3    0  501  0.22209805535E+01  0.37498840257E+02  0.32662122172E+02  0.50000000000E+02  0.47000000000E+01 0.  1.
</event>
<event>
 5    1  0.9081766E-001  0.1000000E+03  0.7546771E-02  0.1163815E+00
         11   -1    0    0    0    0  0.00000000000E+00  0.00000000000E+00  0.50000000000E+02  0.50000000000E+02  0.00000000000E+00 0. -1.
        -11   -1    0    0    0    0 -0.00000000000E+00 -0.00000000000E+00 -0.50000000000E+02  0.50000000000E+02  0.00000000000E+00 0.  1.
         23    2    1    2    0    0  0.00000000000E+00  0.00000000000E+00  0.00000000000E+00  0.10000000000E+03  0.10000000000E+03 0.  0.
          5    1    3    3  501    0 -0.10514553802E+02  0.38249797507E+02  0.30071700136E+02  0.50000000000E+02  0.47000000000E+01 0. -1.
         -5    1    3    3    0  501  0.10514553802E+02 -0.38249797507E+02 -0.30071700136E+02  0.50000000000E+02  0.47000000000E+01 0.  1.
</event>
<event>
 5    1  0.9081766E-001  0.1000000E+03  0.7546771E-02  0.1163815E+00
         11   -1    0    0    0    0  0.00000000000E+00  0.00000000000E+00  0.50000000000E+02  0.50000000000E+02  0.00000000000E+00 0. -1.
        -11   -1    0    0    0    0 -0.00000000000E+00 -0.00000000000E+00 -0.50000000000E+02  0.50000000000E+02  0.00000000000E+00 0.  1.
         23    2    1    2    0    0  0.00000000000E+00  0.00000000000E+00  0.00000000000E+00  0.10000000000E+03  0.10000000000E+03 0.  0.
          5    1    3    3  501    0 -0.49098062876E+02  0.81729915805E+01 -0.70173389763E+00  0.50000000000E+02  0.47000000000E+01 0. -1.
         -5    1    3    3    0  501  0.49098062876E+02 -0.81729915805E+01  0.70173389763E+00  0.50000000000E+02  0.47000000000E+01 0.  1.
</event>
<event>
 5    1  0.9081766E-001  0.1000000E+03  0.7546771E-02  0.1163815E+00
         11   -1    0    0    0    0  0.00000000000E+00  0.00000000000E+00  0.50000000000E+02  0.50000000000E+02  0.00000000000E+00 0. -1.
        -11   -1    0    0    0    0 -0.00000000000E+00 -0.00000000000E+00 -0.50000000000E+02  0.50000000000E+02  0.00000000000E+00 0.  1.
         23    2    1    2    0    0  0.00000000000E+00  0.00000000000E+00  0.00000000000E+00  0.10000000000E+03  0.10000000000E+03 0.  0.
          5    1    3    3  501    0  0.89140293062E+00  0.46731238212E+02  0.17126201446E+02  0.50000000000E+02  0.47000000000E+01 0. -1.
         -5    1    3    3    0  501 -0.89140293062E+00 -0.46731238212E+02 -0.17126201446E+02  0.50000000000E+02  0.47000000000E+01 0.  1.
</event>
<event>
 5    1  0.9081766E-001  0.1000000E+03  0.7546771E-02  0.1163815E+00
         11   -1    0    0    0    0  0.00000000000E+00  0.00000000000E+00  0.50000000000E+02  0.50000000000E+02  0.00000000000E+00 0.  1.
        -11   -1    0    0    0    0 -0.00000000000E+00 -0.00000000000E+00 -0.50000000000E+02  0.50000000000E+02  0.00000000000E+00 0. -1.
         23    2    1    2    0    0  0.00000000000E+00  0.00000000000E+00  0.00000000000E+00  0.10000000000E+03  0.10000000000E+03 0.  0.
          5    1    3    3  501    0 -0.18504013447E+02 -0.24127933731E+01 -0.46148563515E+02  0.50000000000E+02  0.47000000000E+01 0. -1.
         -5    1    3    3    0  501  0.18504013447E+02  0.24127933731E+01  0.46148563515E+02  0.50000000000E+02  0.47000000000E+01 0.  1.
</event>
<event>
 5    1  0.9081766E-001  0.1000000E+03  0.7546771E-02  0.1163815E+00
         11   -1    0    0    0    0  0.00000000000E+00  0.00000000000E+00  0.50000000000E+02  0.50000000000E+02  0.00000000000E+00 0.  1.
        -11   -1    0    0    0    0 -0.00000000000E+00 -0.00000000000E+00 -0.50000000000E+02  0.50000000000E+02  0.00000000000E+00 0. -1.
         23    2    1    2    0    0  0.00000000000E+00  0.00000000000E+00  0.00000000000E+00  0.10000000000E+03  0.10000000000E+03 0.  0.
          5    1    3    3  501    0 -0.83517937751E+01 -0.41709349235E+02 -0.25855129610E+02  0.50000000000E+02  0.47000000000E+01 0. -1.
         -5    1    3    3    0  501  0.83517937751E+01  0.41709349235E+02  0.25855129610E+02  0.50000000000E+02  0.47000000000E+01 0.  1.
</event>
<event>
 5    1  0.9081766E-001  0.1000000E+03  0.7546771E-02  0.1163815E+00
         11   -1    0    0    0    0  0.00000000000E+00  0.00000000000E+00  0.50000000000E+02  0.50000000000E+02  0.00000000000E+00 0. -1.
        -11   -1    0    0    0    0 -0.00000000000E+00 -0.00000000000E+00 -0.50000000000E+02  0.50000000000E+02  0.00000000000E+00 0.  1.
         23    2    1    2    0    0  0.00000000000E+00  0.00000000000E+00  0.00000000000E+00  0.10000000000E+03  0.10000000000E+03 0.  0.
          5    1    3    3  501    0  0.34372132383E+02  0.28212765439E+02  0.22371999949E+02  0.50000000000E+02  0.47000000000E+01 0. -1.
         -5    1    3    3    0  501 -0.34372132383E+02 -0.28212765439E+02 -0.22371999949E+02  0.50000000000E+02  0.47000000000E+01 0.  1.
</event>
<event>
 5    1  0.9081766E-001  0.1000000E+03  0.7546771E-02  0.1163815E+00
         11   -1    0    0    0    0  0.00000000000E+00  0.00000000000E+00  0.50000000000E+02  0.50000000000E+02  0.00000000000E+00 0. -1.
        -11   -1    0    0    0    0 -0.00000000000E+00 -0.00000000000E+00 -0.50000000000E+02  0.50000000000E+02  0.00000000000E+00 0.  1.
         23    2    1    2    0    0  0.00000000000E+00  0.00000000000E+00  0.00000000000E+00  0.10000000000E+03  0.10000000000E+03 0.  0.
          5    1    3    3  501    0 -0.30094587167E+02  0.26636492707E+02  0.29372148023E+02  0.50000000000E+02  0.47000000000E+01 0. -1.
         -5    1    3    3    0  501  0.30094587167E+02 -0.26636492707E+02 -0.29372148023E+02  0.50000000000E+02  0.47000000000E+01 0.  1.
</event>
<event>
 5    1  0.9081766E-001  0.1000000E+03  0.7546771E-02  0.1163815E+00
         11   -1    0    0    0    0  0.00000000000E+00  0.00000000000E+00  0.50000000000E+02  0.50000000000E+02  0.00000000000E+00 0. -1.
        -11   -1    0    0    0    0 -0.00000000000E+00 -0.00000000000E+00 -0.50000000000E+02  0.50000000000E+02  0.00000000000E+00 0.  1.
         23    2    1    2    0    0  0.00000000000E+00  0.00000000000E+00  0.00000000000E+00  0.10000000000E+03  0.10000000000E+03 0.  0.
          5    1    3    3  501    0 -0.87858324037E+01 -0.85060080625E+01  0.48253155087E+02  0.50000000000E+02  0.47000000000E+01 0. -1.
         -5    1    3    3    0  501  0.87858324037E+01  0.85060080625E+01 -0.48253155087E+02  0.50000000000E+02  0.47000000000E+01 0.  1.
</event>
<event>
 5    1  0.9081766E-001  0.1000000E+03  0.7546771E-02  0.1163815E+00
         11   -1    0    0    0    0  0.00000000000E+00  0.00000000000E+00  0.50000000000E+02  0.50000000000E+02  0.00000000000E+00 0.  1.
        -11   -1    0    0    0    0 -0.00000000000E+00 -0.00000000000E+00 -0.50000000000E+02  0.50000000000E+02  0.00000000000E+00 0. -1.
         23    2    1    2    0    0  0.00000000000E+00  0.00000000000E+00  0.00000000000E+00  0.10000000000E+03  0.10000000000E+03 0.  0.
          5    1    3    3  501    0  0.25990774340E+02 -0.35291011306E+02 -0.23599452751E+02  0.50000000000E+02  0.47000000000E+01 0. -1.
         -5    1    3    3    0  501 -0.25990774340E+02  0.35291011306E+02  0.23599452751E+02  0.50000000000E+02  0.47000000000E+01 0.  1.
</event>
<event>
 5    1  0.9081766E-001  0.1000000E+03  0.7546771E-02  0.1163815E+00
         11   -1    0    0    0    0  0.00000000000E+00  0.00000000000E+00  0.50000000000E+02  0.50000000000E+02  0.00000000000E+00 0.  1.
        -11   -1    0    0    0    0 -0.00000000000E+00 -0.00000000000E+00 -0.50000000000E+02  0.50000000000E+02  0.00000000000E+00 0. -1.
         23    2    1    2    0    0  0.00000000000E+00  0.00000000000E+00  0.00000000000E+00  0.10000000000E+03  0.10000000000E+03 0.  0.
          5    1    3    3  501    0  0.12783506975E+01  0.32922904056E+02 -0.37314316395E+02  0.50000000000E+02  0.47000000000E+01 0. -1.
         -5    1    3    3    0  501 -0.12783506975E+01 -0.32922904056E+02  0.37314316395E+02  0.50000000000E+02  0.47000000000E+01 0.  1.
</event>
<event>
 5    1  0.9081766E-001  0.1000000E+03  0.7546771E-02  0.1163815E+00
         11   -1    0    0    0    0  0.00000000000E+00  0.00000000000E+00  0.50000000000E+02  0.50000000000E+02  0.00000000000E+00 0. -1.
        -11   -1    0    0    0    0 -0.00000000000E+00 -0.00000000000E+00 -0.50000000000E+02  0.50000000000E+02  0.00000000000E+00 0.  1.
         23    2    1    2    0    0  0.00000000000E+00  0.00000000000E+00  0.00000000000E+00  0.10000000000E+03  0.10000000000E+03 0.  0.
          5    1    3    3  501    0 -0.36604080005E+02  0.16068097521E+01  0.33696728171E+02  0.50000000000E+02  0.47000000000E+01 0. -1.
         -5    1    3    3    0  501  0.36604080005E+02 -0.16068097521E+01 -0.33696728171E+02  0.50000000000E+02  0.47000000000E+01 0.  1.
</event>
<event>
 5    1  0.9081766E-001  0.1000000E+03  0.7546771E-02  0.1163815E+00
         11   -1    0    0    0    0  0.00000000000E+00  0.00000000000E+00  0.50000000000E+02  0.50000000000E+02  0.00000000000E+00 0. -1.
        -11   -1    0    0    0    0 -0.00000000000E+00 -0.00000000000E+00 -0.50000000000E+02  0.50000000000E+02  0.00000000000E+00 0.  1.
         23    2    1    2    0    0  0.00000000000E+00  0.00000000000E+00  0.00000000000E+00  0.10000000000E+03  0.10000000000E+03 0.  0.
          5    1    3    3  501    0 -0.49404388433E+02 -0.19055449876E+01 -0.57866485876E+01  0.50000000000E+02  0.47000000000E+01 0. -1.
         -5    1    3    3    0  501  0.49404388433E+02  0.19055449876E+01  0.57866485876E+01  0.50000000000E+02  0.47000000000E+01 0.  1.
</event>
<event>
 5    1  0.9081766E-001  0.1000000E+03  0.7546771E-02  0.1163815E+00
         11   -1    0    0    0    0  0.00000000000E+00  0.00000000000E+00  0.50000000000E+02  0.50000000000E+02  0.00000000000E+00 0. -1.
        -11   -1    0    0    0    0 -0.00000000000E+00 -0.00000000000E+00 -0.50000000000E+02  0.50000000000E+02  0.00000000000E+00 0.  1.
         23    2    1    2    0    0  0.00000000000E+00  0.00000000000E+00  0.00000000000E+00  0.10000000000E+03  0.10000000000E+03 0.  0.
          5    1    3    3  501    0  0.36658669148E+02 -0.30233973699E+02  0.14831008416E+02  0.50000000000E+02  0.47000000000E+01 0. -1.
         -5    1    3    3    0  501 -0.36658669148E+02  0.30233973699E+02 -0.14831008416E+02  0.50000000000E+02  0.47000000000E+01 0.  1.
</event>
<event>
 5    1  0.9081766E-001  0.1000000E+03  0.7546771E-02  0.1163815E+00
         11   -1    0    0    0    0  0.00000000000E+00  0.00000000000E+00  0.50000000000E+02  0.50000000000E+02  0.00000000000E+00 0. -1.
        -11   -1    0    0    0    0 -0.00000000000E+00 -0.00000000000E+00 -0.50000000000E+02  0.50000000000E+02  0.00000000000E+00 0.  1.
         23    2    1    2    0    0  0.00000000000E+00  0.00000000000E+00  0.00000000000E+00  0.10000000000E+03  0.10000000000E+03 0.  0.
          5    1    3    3  501    0  0.48786139053E+02  0.98485717636E+01  0.91009369652E+00  0.50000000000E+02  0.47000000000E+01 0. -1.
         -5    1    3    3    0  501 -0.48786139053E+02 -0.98485717636E+01 -0.91009369652E+00  0.50000000000E+02  0.47000000000E+01 0.  1.
</event>
<event>
 5    1  0.9081766E-001  0.1000000E+03  0.7546771E-02  0.1163815E+00
         11   -1    0    0    0    0  0.00000000000E+00  0.00000000000E+00  0.50000000000E+02  0.50000000000E+02  0.00000000000E+00 0. -1.
        -11   -1    0    0    0    0 -0.00000000000E+00 -0.00000000000E+00 -0.50000000000E+02  0.50000000000E+02  0.00000000000E+00 0.  1.
         23    2    1    2    0    0  0.00000000000E+00  0.00000000000E+00  0.00000000000E+00  0.10000000000E+03  0.10000000000E+03 0.  0.
          5    1    3    3  501    0  0.13340955579E+02 -0.24126437070E+02  0.41446880926E+02  0.50000000000E+02  0.47000000000E+01 0. -1.
         -5    1    3    3    0  501 -0.13340955579E+02  0.24126437070E+02 -0.41446880926E+02  0.50000000000E+02  0.47000000000E+01 0.  1.
</event>
<event>
 5    1  0.9081766E-001  0.1000000E+03  0.7546771E-02  0.1163815E+00
         11   -1    0    0    0    0  0.00000000000E+00  0.00000000000E+00  0.50000000000E+02  0.50000000000E+02  0.00000000000E+00 0.  1.
        -11   -1    0    0    0    0 -0.00000000000E+00 -0.00000000000E+00 -0.50000000000E+02  0.50000000000E+02  0.00000000000E+00 0. -1.
         23    2    1    2    0    0  0.00000000000E+00  0.00000000000E+00  0.00000000000E+00  0.10000000000E+03  0.10000000000E+03 0.  0.
          5    1    3    3  501    0 -0.11004234403E+02  0.95656203601E+01 -0.47595333094E+02  0.50000000000E+02  0.47000000000E+01 0. -1.
         -5    1    3    3    0  501  0.11004234403E+02 -0.95656203601E+01  0.47595333094E+02  0.50000000000E+02  0.47000000000E+01 0.  1.
</event>
<event>
 5    1  0.9081766E-001  0.1000000E+03  0.7546771E-02  0.1163815E+00
         11   -1    0    0    0    0  0.00000000000E+00  0.00000000000E+00  0.50000000000E+02  0.50000000000E+02  0.00000000000E+00 0.  1.
        -11   -1    0    0    0    0 -0.00000000000E+00 -0.00000000000E+00 -0.50000000000E+02  0.50000000000E+02  0.00000000000E+00 0. -1.
         23    2    1    2    0    0  0.00000000000E+00  0.00000000000E+00  0.00000000000E+00  0.10000000000E+03  0.10000000000E+03 0.  0.
          5    1    3    3  501    0 -0.14611291205E+01 -0.36978496693E+02 -0.33292129460E+02  0.50000000000E+02  0.47000000000E+01 0. -1.
         -5    1    3    3    0  501  0.14611291205E+01  0.36978496693E+02  0.33292129460E+02  0.50000000000E+02  0.47000000000E+01 0.  1.
</event>
<event>
 5    1  0.9081766E-001  0.1000000E+03  0.7546771E-02  0.1163815E+00
         11   -1    0    0    0    0  0.00000000000E+00  0.00000000000E+00  0.50000000000E+02  0.50000000000E+02  0.00000000000E+00 0. -1.
        -11   -1    0    0    0    0 -0.00000000000E+00 -0.00000000000E+00 -0.50000000000E+02  0.50000000000E+02  0.00000000000E+00 0.  1.
         23    2    1    2    0    0  0.00000000000E+00  0.00000000000E+00  0.00000000000E+00  0.10000000000E+03  0.10000000000E+03 0.  0.
          5    1    3    3  501    0 -0.32294968266E+02 -0.28009583665E+02 -0.25503102705E+02  0.50000000000E+02  0.47000000000E+01 0. -1.
         -5    1    3    3    0  501  0.32294968266E+02  0.28009583665E+02  0.25503102705E+02  0.50000000000E+02  0.47000000000E+01 0.  1.
</event>
<event>
 5    1  0.9081766E-001  0.1000000E+03  0.7546771E-02  0.1163815E+00
         11   -1    0    0    0    0  0.00000000000E+00  0.00000000000E+00  0.50000000000E+02  0.50000000000E+02  0.00000000000E+00 0.  1.
        -11   -1    0    0    0    0 -0.00000000000E+00 -0.00000000000E+00 -0.50000000000E+02  0.50000000000E+02  0.00000000000E+00 0. -1.
         23    2    1    2    0    0  0.00000000000E+00  0.00000000000E+00  0.00000000000E+00  0.10000000000E+03  0.10000000000E+03 0.  0.
          5    1    3    3  501    0  0.28456872941E+02  0.55393361403E+01  0.40465196621E+02  0.50000000000E+02  0.47000000000E+01 0.  1.
         -5    1    3    3    0  501 -0.28456872941E+02 -0.55393361403E+01 -0.40465196621E+02  0.50000000000E+02  0.47000000000E+01 0. -1.
</event>
<event>
 5    1  0.9081766E-001  0.1000000E+03  0.7546771E-02  0.1163815E+00
         11   -1    0    0    0    0  0.00000000000E+00  0.00000000000E+00  0.50000000000E+02  0.50000000000E+02  0.00000000000E+00 0. -1.
        -11   -1    0    0    0    0 -0.00000000000E+00 -0.00000000000E+00 -0.50000000000E+02  0.50000000000E+02  0.00000000000E+00 0.  1.
         23    2    1    2    0    0  0.00000000000E+00  0.00000000000E+00  0.00000000000E+00  0.10000000000E+03  0.10000000000E+03 0.  0.
          5    1    3    3  501    0  0.29942216941E+02 -0.36341518947E+02  0.16145205023E+02  0.50000000000E+02  0.47000000000E+01 0. -1.
         -5    1    3    3    0  501 -0.29942216941E+02  0.36341518947E+02 -0.16145205023E+02  0.50000000000E+02  0.47000000000E+01 0.  1.
</event>
<event>
 5    1  0.9081766E-001  0.1000000E+03  0.7546771E-02  0.1163815E+00
         11   -1    0    0    0    0  0.00000000000E+00  0.00000000000E+00  0.50000000000E+02  0.50000000000E+02  0.00000000000E+00 0. -1.
        -11   -1    0    0    0    0 -0.00000000000E+00 -0.00000000000E+00 -0.50000000000E+02  0.50000000000E+02  0.00000000000E+00 0.  1.
         23    2    1    2    0    0  0.00000000000E+00  0.00000000000E+00  0.00000000000E+00  0.10000000000E+03  0.10000000000E+03 0.  0.
          5    1    3    3  501    0 -0.24706841355E+01 -0.38863307877E+02  0.31007241425E+02  0.50000000000E+02  0.47000000000E+01 0. -1.
         -5    1    3    3    0  501  0.24706841355E+01  0.38863307877E+02 -0.31007241425E+02  0.50000000000E+02  0.47000000000E+01 0.  1.
</event>
<event>
 5    1  0.9081766E-001  0.1000000E+03  0.7546771E-02  0.1163815E+00
         11   -1    0    0    0    0  0.00000000000E+00  0.00000000000E+00  0.50000000000E+02  0.50000000000E+02  0.00000000000E+00 0. -1.
        -11   -1    0    0    0    0 -0.00000000000E+00 -0.00000000000E+00 -0.50000000000E+02  0.50000000000E+02  0.00000000000E+00 0.  1.
         23    2    1    2    0    0  0.00000000000E+00  0.00000000000E+00  0.00000000000E+00  0.10000000000E+03  0.10000000000E+03 0.  0.
          5    1    3    3  501    0  0.46714541586E+01 -0.37032190903E+02  0.32934850128E+02  0.50000000000E+02  0.47000000000E+01 0. -1.
         -5    1    3    3    0  501 -0.46714541586E+01  0.37032190903E+02 -0.32934850128E+02  0.50000000000E+02  0.47000000000E+01 0.  1.
</event>
<event>
 5    1  0.9081766E-001  0.1000000E+03  0.7546771E-02  0.1163815E+00
         11   -1    0    0    0    0  0.00000000000E+00  0.00000000000E+00  0.50000000000E+02  0.50000000000E+02  0.00000000000E+00 0. -1.
        -11   -1    0    0    0    0 -0.00000000000E+00 -0.00000000000E+00 -0.50000000000E+02  0.50000000000E+02  0.00000000000E+00 0.  1.
         23    2    1    2    0    0  0.00000000000E+00  0.00000000000E+00  0.00000000000E+00  0.10000000000E+03  0.10000000000E+03 0.  0.
          5    1    3    3  501    0  0.18488830995E+02 -0.35797694772E+02  0.29233511207E+02  0.50000000000E+02  0.47000000000E+01 0. -1.
         -5    1    3    3    0  501 -0.18488830995E+02  0.35797694772E+02 -0.29233511207E+02  0.50000000000E+02  0.47000000000E+01 0.  1.
</event>
<event>
 5    1  0.9081766E-001  0.1000000E+03  0.7546771E-02  0.1163815E+00
         11   -1    0    0    0    0  0.00000000000E+00  0.00000000000E+00  0.50000000000E+02  0.50000000000E+02  0.00000000000E+00 0. -1.
        -11   -1    0    0    0    0 -0.00000000000E+00 -0.00000000000E+00 -0.50000000000E+02  0.50000000000E+02  0.00000000000E+00 0.  1.
         23    2    1    2    0    0  0.00000000000E+00  0.00000000000E+00  0.00000000000E+00  0.10000000000E+03  0.10000000000E+03 0.  0.
          5    1    3    3  501    0  0.13152579406E+02  0.43842835961E+02  0.19563368571E+02  0.50000000000E+02  0.47000000000E+01 0. -1.
         -5    1    3    3    0  501 -0.13152579406E+02 -0.43842835961E+02 -0.19563368571E+02  0.50000000000E+02  0.47000000000E+01 0.  1.
</event>
<event>
 5    1  0.9081766E-001  0.1000000E+03  0.7546771E-02  0.1163815E+00
         11   -1    0    0    0    0  0.00000000000E+00  0.00000000000E+00  0.50000000000E+02  0.50000000000E+02  0.00000000000E+00 0. -1.
        -11   -1    0    0    0    0 -0.00000000000E+00 -0.00000000000E+00 -0.50000000000E+02  0.50000000000E+02  0.00000000000E+00 0.  1.
         23    2    1    2    0    0  0.00000000000E+00  0.00000000000E+00  0.00000000000E+00  0.10000000000E+03  0.10000000000E+03 0.  0.
          5    1    3    3  501    0 -0.29548861041E+02 -0.30627829166E+02  0.25820745375E+02  0.50000000000E+02  0.47000000000E+01 0. -1.
         -5    1    3    3    0  501  0.29548861041E+02  0.30627829166E+02 -0.25820745375E+02  0.50000000000E+02  0.47000000000E+01 0.  1.
</event>
<event>
 5    1  0.9081766E-001  0.1000000E+03  0.7546771E-02  0.1163815E+00
         11   -1    0    0    0    0  0.00000000000E+00  0.00000000000E+00  0.50000000000E+02  0.50000000000E+02  0.00000000000E+00 0.  1.
        -11   -1    0    0    0    0 -0.00000000000E+00 -0.00000000000E+00 -0.50000000000E+02  0.50000000000E+02  0.00000000000E+00 0. -1.
         23    2    1    2    0    0  0.00000000000E+00  0.00000000000E+00  0.00000000000E+00  0.10000000000E+03  0.10000000000E+03 0.  0.
          5    1    3    3  501    0 -0.43422691846E+02 -0.40481057916E+01  0.23999847340E+02  0.50000000000E+02  0.47000000000E+01 0. -1.
         -5    1    3    3    0  501  0.43422691846E+02  0.40481057916E+01 -0.23999847340E+02  0.50000000000E+02  0.47000000000E+01 0.  1.
</event>
<event>
 5    1  0.9081766E-001  0.1000000E+03  0.7546771E-02  0.1163815E+00
         11   -1    0    0    0    0  0.00000000000E+00  0.00000000000E+00  0.50000000000E+02  0.50000000000E+02  0.00000000000E+00 0. -1.
        -11   -1    0    0    0    0 -0.00000000000E+00 -0.00000000000E+00 -0.50000000000E+02  0.50000000000E+02  0.00000000000E+00 0.  1.
         23    2    1    2    0    0  0.00000000000E+00  0.00000000000E+00  0.00000000000E+00  0.10000000000E+03  0.10000000000E+03 0.  0.
          5    1    3    3  501    0  0.32754339391E+01 -0.39533967154E+01  0.49513151656E+02  0.50000000000E+02  0.47000000000E+01 0. -1.
         -5    1    3    3    0  501 -0.32754339391E+01  0.39533967154E+01 -0.49513151656E+02  0.50000000000E+02  0.47000000000E+01 0.  1.
</event>
<event>
 5    1  0.9081766E-001  0.1000000E+03  0.7546771E-02  0.1163815E+00
         11   -1    0    0    0    0  0.00000000000E+00  0.00000000000E+00  0.50000000000E+02  0.50000000000E+02  0.00000000000E+00 0. -1.
        -11   -1    0    0    0    0 -0.00000000000E+00 -0.00000000000E+00 -0.50000000000E+02  0.50000000000E+02  0.00000000000E+00 0.  1.
         23    2    1    2    0    0  0.00000000000E+00  0.00000000000E+00  0.00000000000E+00  0.10000000000E+03  0.10000000000E+03 0.  0.
          5    1    3    3  501    0  0.39777638629E+02 -0.25216874750E+02  0.16117031147E+02  0.50000000000E+02  0.47000000000E+01 0. -1.
         -5    1    3    3    0  501 -0.39777638629E+02  0.25216874750E+02 -0.16117031147E+02  0.50000000000E+02  0.47000000000E+01 0.  1.
</event>
<event>
 5    1  0.9081766E-001  0.1000000E+03  0.7546771E-02  0.1163815E+00
         11   -1    0    0    0    0  0.00000000000E+00  0.00000000000E+00  0.50000000000E+02  0.50000000000E+02  0.00000000000E+00 0. -1.
        -11   -1    0    0    0    0 -0.00000000000E+00 -0.00000000000E+00 -0.50000000000E+02  0.50000000000E+02  0.00000000000E+00 0.  1.
         23    2    1    2    0    0  0.00000000000E+00  0.00000000000E+00  0.00000000000E+00  0.10000000000E+03  0.10000000000E+03 0.  0.
          5    1    3    3  501    0  0.18213653026E+02 -0.46116153848E+02  0.44128446296E+01  0.50000000000E+02  0.47000000000E+01 0. -1.
         -5    1    3    3    0  501 -0.18213653026E+02  0.46116153848E+02 -0.44128446296E+01  0.50000000000E+02  0.47000000000E+01 0.  1.
</event>
<event>
 5    1  0.9081766E-001  0.1000000E+03  0.7546771E-02  0.1163815E+00
         11   -1    0    0    0    0  0.00000000000E+00  0.00000000000E+00  0.50000000000E+02  0.50000000000E+02  0.00000000000E+00 0.  1.
        -11   -1    0    0    0    0 -0.00000000000E+00 -0.00000000000E+00 -0.50000000000E+02  0.50000000000E+02  0.00000000000E+00 0. -1.
         23    2    1    2    0    0  0.00000000000E+00  0.00000000000E+00  0.00000000000E+00  0.10000000000E+03  0.10000000000E+03 0.  0.
          5    1    3    3  501    0  0.84657039488E+01  0.34218154851E+02 -0.35147684636E+02  0.50000000000E+02  0.47000000000E+01 0. -1.
         -5    1    3    3    0  501 -0.84657039488E+01 -0.34218154851E+02  0.35147684636E+02  0.50000000000E+02  0.47000000000E+01 0.  1.
</event>
<event>
 5    1  0.9081766E-001  0.1000000E+03  0.7546771E-02  0.1163815E+00
         11   -1    0    0    0    0  0.00000000000E+00  0.00000000000E+00  0.50000000000E+02  0.50000000000E+02  0.00000000000E+00 0. -1.
        -11   -1    0    0    0    0 -0.00000000000E+00 -0.00000000000E+00 -0.50000000000E+02  0.50000000000E+02  0.00000000000E+00 0.  1.
         23    2    1    2    0    0  0.00000000000E+00  0.00000000000E+00  0.00000000000E+00  0.10000000000E+03  0.10000000000E+03 0.  0.
          5    1    3    3  501    0 -0.17692493071E+02 -0.45651737319E+02  0.89891361491E+01  0.50000000000E+02  0.47000000000E+01 0. -1.
         -5    1    3    3    0  501  0.17692493071E+02  0.45651737319E+02 -0.89891361491E+01  0.50000000000E+02  0.47000000000E+01 0.  1.
</event>
<event>
 5    1  0.9081766E-001  0.1000000E+03  0.7546771E-02  0.1163815E+00
         11   -1    0    0    0    0  0.00000000000E+00  0.00000000000E+00  0.50000000000E+02  0.50000000000E+02  0.00000000000E+00 0. -1.
        -11   -1    0    0    0    0 -0.00000000000E+00 -0.00000000000E+00 -0.50000000000E+02  0.50000000000E+02  0.00000000000E+00 0.  1.
         23    2    1    2    0    0  0.00000000000E+00  0.00000000000E+00  0.00000000000E+00  0.10000000000E+03  0.10000000000E+03 0.  0.
          5    1    3    3  501    0 -0.46131731502E+02  0.12473221082E+02  0.13935282719E+02  0.50000000000E+02  0.47000000000E+01 0. -1.
         -5    1    3    3    0  501  0.46131731502E+02 -0.12473221082E+02 -0.13935282719E+02  0.50000000000E+02  0.47000000000E+01 0.  1.
</event>
<event>
 5    1  0.9081766E-001  0.1000000E+03  0.7546771E-02  0.1163815E+00
         11   -1    0    0    0    0  0.00000000000E+00  0.00000000000E+00  0.50000000000E+02  0.50000000000E+02  0.00000000000E+00 0. -1.
        -11   -1    0    0    0    0 -0.00000000000E+00 -0.00000000000E+00 -0.50000000000E+02  0.50000000000E+02  0.00000000000E+00 0.  1.
         23    2    1    2    0    0  0.00000000000E+00  0.00000000000E+00  0.00000000000E+00  0.10000000000E+03  0.10000000000E+03 0.  0.
          5    1    3    3  501    0  0.21528331780E+02  0.39044089156E+02  0.22135944361E+02  0.50000000000E+02  0.47000000000E+01 0. -1.
         -5    1    3    3    0  501 -0.21528331780E+02 -0.39044089156E+02 -0.22135944361E+02  0.50000000000E+02  0.47000000000E+01 0.  1.
</event>
<event>
 5    1  0.9081766E-001  0.1000000E+03  0.7546771E-02  0.1163815E+00
         11   -1    0    0    0    0  0.00000000000E+00  0.00000000000E+00  0.50000000000E+02  0.50000000000E+02  0.00000000000E+00 0. -1.
        -11   -1    0    0    0    0 -0.00000000000E+00 -0.00000000000E+00 -0.50000000000E+02  0.50000000000E+02  0.00000000000E+00 0.  1.
         23    2    1    2    0    0  0.00000000000E+00  0.00000000000E+00  0.00000000000E+00  0.10000000000E+03  0.10000000000E+03 0.  0.
          5    1    3    3  501    0 -0.35521719004E+02  0.31197595907E+02  0.15582922982E+02  0.50000000000E+02  0.47000000000E+01 0. -1.
         -5    1    3    3    0  501  0.35521719004E+02 -0.31197595907E+02 -0.15582922982E+02  0.50000000000E+02  0.47000000000E+01 0.  1.
</event>
<event>
 5    1  0.9081766E-001  0.1000000E+03  0.7546771E-02  0.1163815E+00
         11   -1    0    0    0    0  0.00000000000E+00  0.00000000000E+00  0.50000000000E+02  0.50000000000E+02  0.00000000000E+00 0. -1.
        -11   -1    0    0    0    0 -0.00000000000E+00 -0.00000000000E+00 -0.50000000000E+02  0.50000000000E+02  0.00000000000E+00 0.  1.
         23    2    1    2    0    0  0.00000000000E+00  0.00000000000E+00  0.00000000000E+00  0.10000000000E+03  0.10000000000E+03 0.  0.
          5    1    3    3  501    0  0.12566374598E+02 -0.45418269283E+02 -0.16036740468E+02  0.50000000000E+02  0.47000000000E+01 0. -1.
         -5    1    3    3    0  501 -0.12566374598E+02  0.45418269283E+02  0.16036740468E+02  0.50000000000E+02  0.47000000000E+01 0.  1.
</event>
<event>
 5    1  0.9081766E-001  0.1000000E+03  0.7546771E-02  0.1163815E+00
         11   -1    0    0    0    0  0.00000000000E+00  0.00000000000E+00  0.50000000000E+02  0.50000000000E+02  0.00000000000E+00 0. -1.
        -11   -1    0    0    0    0 -0.00000000000E+00 -0.00000000000E+00 -0.50000000000E+02  0.50000000000E+02  0.00000000000E+00 0.  1.
         23    2    1    2    0    0  0.00000000000E+00  0.00000000000E+00  0.00000000000E+00  0.10000000000E+03  0.10000000000E+03 0.  0.
          5    1    3    3  501    0 -0.21912958330E+02 -0.22093528694E+02  0.38853677394E+02  0.50000000000E+02  0.47000000000E+01 0. -1.
         -5    1    3    3    0  501  0.21912958330E+02  0.22093528694E+02 -0.38853677394E+02  0.50000000000E+02  0.47000000000E+01 0.  1.
</event>
<event>
 5    1  0.9081766E-001  0.1000000E+03  0.7546771E-02  0.1163815E+00
         11   -1    0    0    0    0  0.00000000000E+00  0.00000000000E+00  0.50000000000E+02  0.50000000000E+02  0.00000000000E+00 0. -1.
        -11   -1    0    0    0    0 -0.00000000000E+00 -0.00000000000E+00 -0.50000000000E+02  0.50000000000E+02  0.00000000000E+00 0.  1.
         23    2    1    2    0    0  0.00000000000E+00  0.00000000000E+00  0.00000000000E+00  0.10000000000E+03  0.10000000000E+03 0.  0.
          5    1    3    3  501    0 -0.29390227121E+02  0.10387125499E+02  0.38810207080E+02  0.50000000000E+02  0.47000000000E+01 0. -1.
         -5    1    3    3    0  501  0.29390227121E+02 -0.10387125499E+02 -0.38810207080E+02  0.50000000000E+02  0.47000000000E+01 0.  1.
</event>
<event>
 5    1  0.9081766E-001  0.1000000E+03  0.7546771E-02  0.1163815E+00
         11   -1    0    0    0    0  0.00000000000E+00  0.00000000000E+00  0.50000000000E+02  0.50000000000E+02  0.00000000000E+00 0. -1.
        -11   -1    0    0    0    0 -0.00000000000E+00 -0.00000000000E+00 -0.50000000000E+02  0.50000000000E+02  0.00000000000E+00 0.  1.
         23    2    1    2    0    0  0.00000000000E+00  0.00000000000E+00  0.00000000000E+00  0.10000000000E+03  0.10000000000E+03 0.  0.
          5    1    3    3  501    0 -0.36356638202E+02  0.33055022931E+02  0.79668260730E+01  0.50000000000E+02  0.47000000000E+01 0. -1.
         -5    1    3    3    0  501  0.36356638202E+02 -0.33055022931E+02 -0.79668260730E+01  0.50000000000E+02  0.47000000000E+01 0.  1.
</event>
<event>
 5    1  0.9081766E-001  0.1000000E+03  0.7546771E-02  0.1163815E+00
         11   -1    0    0    0    0  0.00000000000E+00  0.00000000000E+00  0.50000000000E+02  0.50000000000E+02  0.00000000000E+00 0. -1.
        -11   -1    0    0    0    0 -0.00000000000E+00 -0.00000000000E+00 -0.50000000000E+02  0.50000000000E+02  0.00000000000E+00 0.  1.
         23    2    1    2    0    0  0.00000000000E+00  0.00000000000E+00  0.00000000000E+00  0.10000000000E+03  0.10000000000E+03 0.  0.
          5    1    3    3  501    0 -0.25249939860E+02 -0.36310741593E+02  0.22844705777E+02  0.50000000000E+02  0.47000000000E+01 0. -1.
         -5    1    3    3    0  501  0.25249939860E+02  0.36310741593E+02 -0.22844705777E+02  0.50000000000E+02  0.47000000000E+01 0.  1.
</event>
<event>
 5    1  0.9081766E-001  0.1000000E+03  0.7546771E-02  0.1163815E+00
         11   -1    0    0    0    0  0.00000000000E+00  0.00000000000E+00  0.50000000000E+02  0.50000000000E+02  0.00000000000E+00 0.  1.
        -11   -1    0    0    0    0 -0.00000000000E+00 -0.00000000000E+00 -0.50000000000E+02  0.50000000000E+02  0.00000000000E+00 0. -1.
         23    2    1    2    0    0  0.00000000000E+00  0.00000000000E+00  0.00000000000E+00  0.10000000000E+03  0.10000000000E+03 0.  0.
          5    1    3    3  501    0 -0.90710890580E+01  0.32607965305E+02 -0.36501314250E+02  0.50000000000E+02  0.47000000000E+01 0. -1.
         -5    1    3    3    0  501  0.90710890580E+01 -0.32607965305E+02  0.36501314250E+02  0.50000000000E+02  0.47000000000E+01 0.  1.
</event>
<event>
 5    1  0.9081766E-001  0.1000000E+03  0.7546771E-02  0.1163815E+00
         11   -1    0    0    0    0  0.00000000000E+00  0.00000000000E+00  0.50000000000E+02  0.50000000000E+02  0.00000000000E+00 0. -1.
        -11   -1    0    0    0    0 -0.00000000000E+00 -0.00000000000E+00 -0.50000000000E+02  0.50000000000E+02  0.00000000000E+00 0.  1.
         23    2    1    2    0    0  0.00000000000E+00  0.00000000000E+00  0.00000000000E+00  0.10000000000E+03  0.10000000000E+03 0.  0.
          5    1    3    3  501    0 -0.40422922674E+02 -0.21637966532E+02  0.19382871997E+02  0.50000000000E+02  0.47000000000E+01 0. -1.
         -5    1    3    3    0  501  0.40422922674E+02  0.21637966532E+02 -0.19382871997E+02  0.50000000000E+02  0.47000000000E+01 0.  1.
</event>
<event>
 5    1  0.9081766E-001  0.1000000E+03  0.7546771E-02  0.1163815E+00
         11   -1    0    0    0    0  0.00000000000E+00  0.00000000000E+00  0.50000000000E+02  0.50000000000E+02  0.00000000000E+00 0. -1.
        -11   -1    0    0    0    0 -0.00000000000E+00 -0.00000000000E+00 -0.50000000000E+02  0.50000000000E+02  0.00000000000E+00 0.  1.
         23    2    1    2    0    0  0.00000000000E+00  0.00000000000E+00  0.00000000000E+00  0.10000000000E+03  0.10000000000E+03 0.  0.
          5    1    3    3  501    0 -0.16521383631E+02 -0.23484822755E+02  0.40662230425E+02  0.50000000000E+02  0.47000000000E+01 0. -1.
         -5    1    3    3    0  501  0.16521383631E+02  0.23484822755E+02 -0.40662230425E+02  0.50000000000E+02  0.47000000000E+01 0.  1.
</event>
<event>
 5    1  0.9081766E-001  0.1000000E+03  0.7546771E-02  0.1163815E+00
         11   -1    0    0    0    0  0.00000000000E+00  0.00000000000E+00  0.50000000000E+02  0.50000000000E+02  0.00000000000E+00 0. -1.
        -11   -1    0    0    0    0 -0.00000000000E+00 -0.00000000000E+00 -0.50000000000E+02  0.50000000000E+02  0.00000000000E+00 0.  1.
         23    2    1    2    0    0  0.00000000000E+00  0.00000000000E+00  0.00000000000E+00  0.10000000000E+03  0.10000000000E+03 0.  0.
          5    1    3    3  501    0 -0.42979338784E+02 -0.18629025982E+02  0.16841788166E+02  0.50000000000E+02  0.47000000000E+01 0. -1.
         -5    1    3    3    0  501  0.42979338784E+02  0.18629025982E+02 -0.16841788166E+02  0.50000000000E+02  0.47000000000E+01 0.  1.
</event>
<event>
 5    1  0.9081766E-001  0.1000000E+03  0.7546771E-02  0.1163815E+00
         11   -1    0    0    0    0  0.00000000000E+00  0.00000000000E+00  0.50000000000E+02  0.50000000000E+02  0.00000000000E+00 0. -1.
        -11   -1    0    0    0    0 -0.00000000000E+00 -0.00000000000E+00 -0.50000000000E+02  0.50000000000E+02  0.00000000000E+00 0.  1.
         23    2    1    2    0    0  0.00000000000E+00  0.00000000000E+00  0.00000000000E+00  0.10000000000E+03  0.10000000000E+03 0.  0.
          5    1    3    3  501    0  0.36182712515E+02 -0.23772455372E+02 -0.24568102912E+02  0.50000000000E+02  0.47000000000E+01 0. -1.
         -5    1    3    3    0  501 -0.36182712515E+02  0.23772455372E+02  0.24568102912E+02  0.50000000000E+02  0.47000000000E+01 0.  1.
</event>
<event>
 5    1  0.9081766E-001  0.1000000E+03  0.7546771E-02  0.1163815E+00
         11   -1    0    0    0    0  0.00000000000E+00  0.00000000000E+00  0.50000000000E+02  0.50000000000E+02  0.00000000000E+00 0. -1.
        -11   -1    0    0    0    0 -0.00000000000E+00 -0.00000000000E+00 -0.50000000000E+02  0.50000000000E+02  0.00000000000E+00 0.  1.
         23    2    1    2    0    0  0.00000000000E+00  0.00000000000E+00  0.00000000000E+00  0.10000000000E+03  0.10000000000E+03 0.  0.
          5    1    3    3  501    0  0.11736184202E+02  0.42605545270E+02 -0.22911558057E+02  0.50000000000E+02  0.47000000000E+01 0. -1.
         -5    1    3    3    0  501 -0.11736184202E+02 -0.42605545270E+02  0.22911558057E+02  0.50000000000E+02  0.47000000000E+01 0.  1.
</event>
<event>
 5    1  0.9081766E-001  0.1000000E+03  0.7546771E-02  0.1163815E+00
         11   -1    0    0    0    0  0.00000000000E+00  0.00000000000E+00  0.50000000000E+02  0.50000000000E+02  0.00000000000E+00 0. -1.
        -11   -1    0    0    0    0 -0.00000000000E+00 -0.00000000000E+00 -0.50000000000E+02  0.50000000000E+02  0.00000000000E+00 0.  1.
         23    2    1    2    0    0  0.00000000000E+00  0.00000000000E+00  0.00000000000E+00  0.10000000000E+03  0.10000000000E+03 0.  0.
          5    1    3    3  501    0  0.40337367246E+02  0.25085840452E+02 -0.14883125090E+02  0.50000000000E+02  0.47000000000E+01 0. -1.
         -5    1    3    3    0  501 -0.40337367246E+02 -0.25085840452E+02  0.14883125090E+02  0.50000000000E+02  0.47000000000E+01 0.  1.
</event>
<event>
 5    1  0.9081766E-001  0.1000000E+03  0.7546771E-02  0.1163815E+00
         11   -1    0    0    0    0  0.00000000000E+00  0.00000000000E+00  0.50000000000E+02  0.50000000000E+02  0.00000000000E+00 0.  1.
        -11   -1    0    0    0    0 -0.00000000000E+00 -0.00000000000E+00 -0.50000000000E+02  0.50000000000E+02  0.00000000000E+00 0. -1.
         23    2    1    2    0    0  0.00000000000E+00  0.00000000000E+00  0.00000000000E+00  0.10000000000E+03  0.10000000000E+03 0.  0.
          5    1    3    3  501    0  0.20428571139E+02 -0.19606177724E+02 -0.40941192902E+02  0.50000000000E+02  0.47000000000E+01 0. -1.
         -5    1    3    3    0  501 -0.20428571139E+02  0.19606177724E+02  0.40941192902E+02  0.50000000000E+02  0.47000000000E+01 0.  1.
</event>
<event>
 5    1  0.9081766E-001  0.1000000E+03  0.7546771E-02  0.1163815E+00
         11   -1    0    0    0    0  0.00000000000E+00  0.00000000000E+00  0.50000000000E+02  0.50000000000E+02  0.00000000000E+00 0. -1.
        -11   -1    0    0    0    0 -0.00000000000E+00 -0.00000000000E+00 -0.50000000000E+02  0.50000000000E+02  0.00000000000E+00 0.  1.
         23    2    1    2    0    0  0.00000000000E+00  0.00000000000E+00  0.00000000000E+00  0.10000000000E+03  0.10000000000E+03 0.  0.
          5    1    3    3  501    0  0.36942093404E+02  0.28042571212E+02 -0.18077774608E+02  0.50000000000E+02  0.47000000000E+01 0. -1.
         -5    1    3    3    0  501 -0.36942093404E+02 -0.28042571212E+02  0.18077774608E+02  0.50000000000E+02  0.47000000000E+01 0.  1.
</event>
<event>
 5    1  0.9081766E-001  0.1000000E+03  0.7546771E-02  0.1163815E+00
         11   -1    0    0    0    0  0.00000000000E+00  0.00000000000E+00  0.50000000000E+02  0.50000000000E+02  0.00000000000E+00 0. -1.
        -11   -1    0    0    0    0 -0.00000000000E+00 -0.00000000000E+00 -0.50000000000E+02  0.50000000000E+02  0.00000000000E+00 0.  1.
         23    2    1    2    0    0  0.00000000000E+00  0.00000000000E+00  0.00000000000E+00  0.10000000000E+03  0.10000000000E+03 0.  0.
          5    1    3    3  501    0  0.40747588304E+02 -0.68066539218E+01  0.27770731172E+02  0.50000000000E+02  0.47000000000E+01 0. -1.
         -5    1    3    3    0  501 -0.40747588304E+02  0.68066539218E+01 -0.27770731172E+02  0.50000000000E+02  0.47000000000E+01 0.  1.
</event>
<event>
 5    1  0.9081766E-001  0.1000000E+03  0.7546771E-02  0.1163815E+00
         11   -1    0    0    0    0  0.00000000000E+00  0.00000000000E+00  0.50000000000E+02  0.50000000000E+02  0.00000000000E+00 0. -1.
        -11   -1    0    0    0    0 -0.00000000000E+00 -0.00000000000E+00 -0.50000000000E+02  0.50000000000E+02  0.00000000000E+00 0.  1.
         23    2    1    2    0    0  0.00000000000E+00  0.00000000000E+00  0.00000000000E+00  0.10000000000E+03  0.10000000000E+03 0.  0.
          5    1    3    3  501    0  0.78258503871E+01  0.41871962617E+02  0.25756645983E+02  0.50000000000E+02  0.47000000000E+01 0. -1.
         -5    1    3    3    0  501 -0.78258503871E+01 -0.41871962617E+02 -0.25756645983E+02  0.50000000000E+02  0.47000000000E+01 0.  1.
</event>
<event>
 5    1  0.9081766E-001  0.1000000E+03  0.7546771E-02  0.1163815E+00
         11   -1    0    0    0    0  0.00000000000E+00  0.00000000000E+00  0.50000000000E+02  0.50000000000E+02  0.00000000000E+00 0. -1.
        -11   -1    0    0    0    0 -0.00000000000E+00 -0.00000000000E+00 -0.50000000000E+02  0.50000000000E+02  0.00000000000E+00 0.  1.
         23    2    1    2    0    0  0.00000000000E+00  0.00000000000E+00  0.00000000000E+00  0.10000000000E+03  0.10000000000E+03 0.  0.
          5    1    3    3  501    0  0.61627073630E+01  0.49280052407E+02  0.33774950351E+01  0.50000000000E+02  0.47000000000E+01 0. -1.
         -5    1    3    3    0  501 -0.61627073630E+01 -0.49280052407E+02 -0.33774950351E+01  0.50000000000E+02  0.47000000000E+01 0.  1.
</event>
<event>
 5    1  0.9081766E-001  0.1000000E+03  0.7546771E-02  0.1163815E+00
         11   -1    0    0    0    0  0.00000000000E+00  0.00000000000E+00  0.50000000000E+02  0.50000000000E+02  0.00000000000E+00 0.  1.
        -11   -1    0    0    0    0 -0.00000000000E+00 -0.00000000000E+00 -0.50000000000E+02  0.50000000000E+02  0.00000000000E+00 0. -1.
         23    2    1    2    0    0  0.00000000000E+00  0.00000000000E+00  0.00000000000E+00  0.10000000000E+03  0.10000000000E+03 0.  0.
          5    1    3    3  501    0 -0.42214124558E+02 -0.10724731472E+02 -0.24100992150E+02  0.50000000000E+02  0.47000000000E+01 0. -1.
         -5    1    3    3    0  501  0.42214124558E+02  0.10724731472E+02  0.24100992150E+02  0.50000000000E+02  0.47000000000E+01 0.  1.
</event>
<event>
 5    1  0.9081766E-001  0.1000000E+03  0.7546771E-02  0.1163815E+00
         11   -1    0    0    0    0  0.00000000000E+00  0.00000000000E+00  0.50000000000E+02  0.50000000000E+02  0.00000000000E+00 0. -1.
        -11   -1    0    0    0    0 -0.00000000000E+00 -0.00000000000E+00 -0.50000000000E+02  0.50000000000E+02  0.00000000000E+00 0.  1.
         23    2    1    2    0    0  0.00000000000E+00  0.00000000000E+00  0.00000000000E+00  0.10000000000E+03  0.10000000000E+03 0.  0.
          5    1    3    3  501    0 -0.10878297096E+01  0.19035404372E+02  0.45982388008E+02  0.50000000000E+02  0.47000000000E+01 0. -1.
         -5    1    3    3    0  501  0.10878297096E+01 -0.19035404372E+02 -0.45982388008E+02  0.50000000000E+02  0.47000000000E+01 0.  1.
</event>
<event>
 5    1  0.9081766E-001  0.1000000E+03  0.7546771E-02  0.1163815E+00
         11   -1    0    0    0    0  0.00000000000E+00  0.00000000000E+00  0.50000000000E+02  0.50000000000E+02  0.00000000000E+00 0. -1.
        -11   -1    0    0    0    0 -0.00000000000E+00 -0.00000000000E+00 -0.50000000000E+02  0.50000000000E+02  0.00000000000E+00 0.  1.
         23    2    1    2    0    0  0.00000000000E+00  0.00000000000E+00  0.00000000000E+00  0.10000000000E+03  0.10000000000E+03 0.  0.
          5    1    3    3  501    0  0.19305329823E+02  0.93038705396E+01  0.44929413900E+02  0.50000000000E+02  0.47000000000E+01 0. -1.
         -5    1    3    3    0  501 -0.19305329823E+02 -0.93038705396E+01 -0.44929413900E+02  0.50000000000E+02  0.47000000000E+01 0.  1.
</event>
<event>
 5    1  0.9081766E-001  0.1000000E+03  0.7546771E-02  0.1163815E+00
         11   -1    0    0    0    0  0.00000000000E+00  0.00000000000E+00  0.50000000000E+02  0.50000000000E+02  0.00000000000E+00 0. -1.
        -11   -1    0    0    0    0 -0.00000000000E+00 -0.00000000000E+00 -0.50000000000E+02  0.50000000000E+02  0.00000000000E+00 0.  1.
         23    2    1    2    0    0  0.00000000000E+00  0.00000000000E+00  0.00000000000E+00  0.10000000000E+03  0.10000000000E+03 0.  0.
          5    1    3    3  501    0 -0.61199912005E+01  0.49355640843E+02  0.21157562958E+01  0.50000000000E+02  0.47000000000E+01 0. -1.
         -5    1    3    3    0  501  0.61199912005E+01 -0.49355640843E+02 -0.21157562958E+01  0.50000000000E+02  0.47000000000E+01 0.  1.
</event>
<event>
 5    1  0.9081766E-001  0.1000000E+03  0.7546771E-02  0.1163815E+00
         11   -1    0    0    0    0  0.00000000000E+00  0.00000000000E+00  0.50000000000E+02  0.50000000000E+02  0.00000000000E+00 0.  1.
        -11   -1    0    0    0    0 -0.00000000000E+00 -0.00000000000E+00 -0.50000000000E+02  0.50000000000E+02  0.00000000000E+00 0. -1.
         23    2    1    2    0    0  0.00000000000E+00  0.00000000000E+00  0.00000000000E+00  0.10000000000E+03  0.10000000000E+03 0.  0.
          5    1    3    3  501    0  0.16784378869E+02 -0.15300978165E+02 -0.44295312316E+02  0.50000000000E+02  0.47000000000E+01 0. -1.
         -5    1    3    3    0  501 -0.16784378869E+02  0.15300978165E+02  0.44295312316E+02  0.50000000000E+02  0.47000000000E+01 0.  1.
</event>
<event>
 5    1  0.9081766E-001  0.1000000E+03  0.7546771E-02  0.1163815E+00
         11   -1    0    0    0    0  0.00000000000E+00  0.00000000000E+00  0.50000000000E+02  0.50000000000E+02  0.00000000000E+00 0. -1.
        -11   -1    0    0    0    0 -0.00000000000E+00 -0.00000000000E+00 -0.50000000000E+02  0.50000000000E+02  0.00000000000E+00 0.  1.
         23    2    1    2    0    0  0.00000000000E+00  0.00000000000E+00  0.00000000000E+00  0.10000000000E+03  0.10000000000E+03 0.  0.
          5    1    3    3  501    0 -0.18790992800E+02  0.13276978826E+02  0.44142161511E+02  0.50000000000E+02  0.47000000000E+01 0. -1.
         -5    1    3    3    0  501  0.18790992800E+02 -0.13276978826E+02 -0.44142161511E+02  0.50000000000E+02  0.47000000000E+01 0.  1.
</event>
<event>
 5    1  0.9081766E-001  0.1000000E+03  0.7546771E-02  0.1163815E+00
         11   -1    0    0    0    0  0.00000000000E+00  0.00000000000E+00  0.50000000000E+02  0.50000000000E+02  0.00000000000E+00 0. -1.
        -11   -1    0    0    0    0 -0.00000000000E+00 -0.00000000000E+00 -0.50000000000E+02  0.50000000000E+02  0.00000000000E+00 0.  1.
         23    2    1    2    0    0  0.00000000000E+00  0.00000000000E+00  0.00000000000E+00  0.10000000000E+03  0.10000000000E+03 0.  0.
          5    1    3    3  501    0  0.35892826889E+02 -0.26915575130E+02  0.21567725735E+02  0.50000000000E+02  0.47000000000E+01 0. -1.
         -5    1    3    3    0  501 -0.35892826889E+02  0.26915575130E+02 -0.21567725735E+02  0.50000000000E+02  0.47000000000E+01 0.  1.
</event>
<event>
 5    1  0.9081766E-001  0.1000000E+03  0.7546771E-02  0.1163815E+00
         11   -1    0    0    0    0  0.00000000000E+00  0.00000000000E+00  0.50000000000E+02  0.50000000000E+02  0.00000000000E+00 0. -1.
        -11   -1    0    0    0    0 -0.00000000000E+00 -0.00000000000E+00 -0.50000000000E+02  0.50000000000E+02  0.00000000000E+00 0.  1.
         23    2    1    2    0    0  0.00000000000E+00  0.00000000000E+00  0.00000000000E+00  0.10000000000E+03  0.10000000000E+03 0.  0.
          5    1    3    3  501    0 -0.33481205794E+02  0.12661053535E+01  0.36814614433E+02  0.50000000000E+02  0.47000000000E+01 0. -1.
         -5    1    3    3    0  501  0.33481205794E+02 -0.12661053535E+01 -0.36814614433E+02  0.50000000000E+02  0.47000000000E+01 0.  1.
</event>
<event>
 5    1  0.9081766E-001  0.1000000E+03  0.7546771E-02  0.1163815E+00
         11   -1    0    0    0    0  0.00000000000E+00  0.00000000000E+00  0.50000000000E+02  0.50000000000E+02  0.00000000000E+00 0.  1.
        -11   -1    0    0    0    0 -0.00000000000E+00 -0.00000000000E+00 -0.50000000000E+02  0.50000000000E+02  0.00000000000E+00 0. -1.
         23    2    1    2    0    0  0.00000000000E+00  0.00000000000E+00  0.00000000000E+00  0.10000000000E+03  0.10000000000E+03 0.  0.
          5    1    3    3  501    0 -0.44176199232E+02 -0.38980329581E+01 -0.22609262714E+02  0.50000000000E+02  0.47000000000E+01 0. -1.
         -5    1    3    3    0  501  0.44176199232E+02  0.38980329581E+01  0.22609262714E+02  0.50000000000E+02  0.47000000000E+01 0.  1.
</event>
<event>
 5    1  0.9081766E-001  0.1000000E+03  0.7546771E-02  0.1163815E+00
         11   -1    0    0    0    0  0.00000000000E+00  0.00000000000E+00  0.50000000000E+02  0.50000000000E+02  0.00000000000E+00 0. -1.
        -11   -1    0    0    0    0 -0.00000000000E+00 -0.00000000000E+00 -0.50000000000E+02  0.50000000000E+02  0.00000000000E+00 0.  1.
         23    2    1    2    0    0  0.00000000000E+00  0.00000000000E+00  0.00000000000E+00  0.10000000000E+03  0.10000000000E+03 0.  0.
          5    1    3    3  501    0  0.47408973914E+02 -0.14580583158E+02 -0.42078245192E+01  0.50000000000E+02  0.47000000000E+01 0. -1.
         -5    1    3    3    0  501 -0.47408973914E+02  0.14580583158E+02  0.42078245192E+01  0.50000000000E+02  0.47000000000E+01 0.  1.
</event>
<event>
 5    1  0.9081766E-001  0.1000000E+03  0.7546771E-02  0.1163815E+00
         11   -1    0    0    0    0  0.00000000000E+00  0.00000000000E+00  0.50000000000E+02  0.50000000000E+02  0.00000000000E+00 0. -1.
        -11   -1    0    0    0    0 -0.00000000000E+00 -0.00000000000E+00 -0.50000000000E+02  0.50000000000E+02  0.00000000000E+00 0.  1.
         23    2    1    2    0    0  0.00000000000E+00  0.00000000000E+00  0.00000000000E+00  0.10000000000E+03  0.10000000000E+03 0.  0.
          5    1    3    3  501    0 -0.19522610066E+02 -0.39702397447E+02  0.22814410646E+02  0.50000000000E+02  0.47000000000E+01 0. -1.
         -5    1    3    3    0  501  0.19522610066E+02  0.39702397447E+02 -0.22814410646E+02  0.50000000000E+02  0.47000000000E+01 0.  1.
</event>
<event>
 5    1  0.9081766E-001  0.1000000E+03  0.7546771E-02  0.1163815E+00
         11   -1    0    0    0    0  0.00000000000E+00  0.00000000000E+00  0.50000000000E+02  0.50000000000E+02  0.00000000000E+00 0. -1.
        -11   -1    0    0    0    0 -0.00000000000E+00 -0.00000000000E+00 -0.50000000000E+02  0.50000000000E+02  0.00000000000E+00 0.  1.
         23    2    1    2    0    0  0.00000000000E+00  0.00000000000E+00  0.00000000000E+00  0.10000000000E+03  0.10000000000E+03 0.  0.
          5    1    3    3  501    0 -0.37123073579E+02 -0.61085160406E+01  0.32595604609E+02  0.50000000000E+02  0.47000000000E+01 0. -1.
         -5    1    3    3    0  501  0.37123073579E+02  0.61085160406E+01 -0.32595604609E+02  0.50000000000E+02  0.47000000000E+01 0.  1.
</event>
<event>
 5    1  0.9081766E-001  0.1000000E+03  0.7546771E-02  0.1163815E+00
         11   -1    0    0    0    0  0.00000000000E+00  0.00000000000E+00  0.50000000000E+02  0.50000000000E+02  0.00000000000E+00 0. -1.
        -11   -1    0    0    0    0 -0.00000000000E+00 -0.00000000000E+00 -0.50000000000E+02  0.50000000000E+02  0.00000000000E+00 0.  1.
         23    2    1    2    0    0  0.00000000000E+00  0.00000000000E+00  0.00000000000E+00  0.10000000000E+03  0.10000000000E+03 0.  0.
          5    1    3    3  501    0 -0.62780004751E+01 -0.24415710780E+02  0.42922835148E+02  0.50000000000E+02  0.47000000000E+01 0. -1.
         -5    1    3    3    0  501  0.62780004751E+01  0.24415710780E+02 -0.42922835148E+02  0.50000000000E+02  0.47000000000E+01 0.  1.
</event>
<event>
 5    1  0.9081766E-001  0.1000000E+03  0.7546771E-02  0.1163815E+00
         11   -1    0    0    0    0  0.00000000000E+00  0.00000000000E+00  0.50000000000E+02  0.50000000000E+02  0.00000000000E+00 0. -1.
        -11   -1    0    0    0    0 -0.00000000000E+00 -0.00000000000E+00 -0.50000000000E+02  0.50000000000E+02  0.00000000000E+00 0.  1.
         23    2    1    2    0    0  0.00000000000E+00  0.00000000000E+00  0.00000000000E+00  0.10000000000E+03  0.10000000000E+03 0.  0.
          5    1    3    3  501    0  0.47902141038E+01  0.28993178878E+02  0.40179091919E+02  0.50000000000E+02  0.47000000000E+01 0. -1.
         -5    1    3    3    0  501 -0.47902141038E+01 -0.28993178878E+02 -0.40179091919E+02  0.50000000000E+02  0.47000000000E+01 0.  1.
</event>
<event>
 5    1  0.9081766E-001  0.1000000E+03  0.7546771E-02  0.1163815E+00
         11   -1    0    0    0    0  0.00000000000E+00  0.00000000000E+00  0.50000000000E+02  0.50000000000E+02  0.00000000000E+00 0.  1.
        -11   -1    0    0    0    0 -0.00000000000E+00 -0.00000000000E+00 -0.50000000000E+02  0.50000000000E+02  0.00000000000E+00 0. -1.
         23    2    1    2    0    0  0.00000000000E+00  0.00000000000E+00  0.00000000000E+00  0.10000000000E+03  0.10000000000E+03 0.  0.
          5    1    3    3  501    0 -0.70216528422E+01 -0.16509802381E+01 -0.49253229900E+02  0.50000000000E+02  0.47000000000E+01 0. -1.
         -5    1    3    3    0  501  0.70216528422E+01  0.16509802381E+01  0.49253229900E+02  0.50000000000E+02  0.47000000000E+01 0.  1.
</event>
<event>
 5    1  0.9081766E-001  0.1000000E+03  0.7546771E-02  0.1163815E+00
         11   -1    0    0    0    0  0.00000000000E+00  0.00000000000E+00  0.50000000000E+02  0.50000000000E+02  0.00000000000E+00 0. -1.
        -11   -1    0    0    0    0 -0.00000000000E+00 -0.00000000000E+00 -0.50000000000E+02  0.50000000000E+02  0.00000000000E+00 0.  1.
         23    2    1    2    0    0  0.00000000000E+00  0.00000000000E+00  0.00000000000E+00  0.10000000000E+03  0.10000000000E+03 0.  0.
          5    1    3    3  501    0  0.14473815123E+02  0.29639453296E+02  0.37281650770E+02  0.50000000000E+02  0.47000000000E+01 0. -1.
         -5    1    3    3    0  501 -0.14473815123E+02 -0.29639453296E+02 -0.37281650770E+02  0.50000000000E+02  0.47000000000E+01 0.  1.
</event>
<event>
 5    1  0.9081766E-001  0.1000000E+03  0.7546771E-02  0.1163815E+00
         11   -1    0    0    0    0  0.00000000000E+00  0.00000000000E+00  0.50000000000E+02  0.50000000000E+02  0.00000000000E+00 0. -1.
        -11   -1    0    0    0    0 -0.00000000000E+00 -0.00000000000E+00 -0.50000000000E+02  0.50000000000E+02  0.00000000000E+00 0.  1.
         23    2    1    2    0    0  0.00000000000E+00  0.00000000000E+00  0.00000000000E+00  0.10000000000E+03  0.10000000000E+03 0.  0.
          5    1    3    3  501    0 -0.78554051375E+00 -0.11417555955E+02  0.48445147766E+02  0.50000000000E+02  0.47000000000E+01 0. -1.
         -5    1    3    3    0  501  0.78554051375E+00  0.11417555955E+02 -0.48445147766E+02  0.50000000000E+02  0.47000000000E+01 0.  1.
</event>
<event>
 5    1  0.9081766E-001  0.1000000E+03  0.7546771E-02  0.1163815E+00
         11   -1    0    0    0    0  0.00000000000E+00  0.00000000000E+00  0.50000000000E+02  0.50000000000E+02  0.00000000000E+00 0. -1.
        -11   -1    0    0    0    0 -0.00000000000E+00 -0.00000000000E+00 -0.50000000000E+02  0.50000000000E+02  0.00000000000E+00 0.  1.
         23    2    1    2    0    0  0.00000000000E+00  0.00000000000E+00  0.00000000000E+00  0.10000000000E+03  0.10000000000E+03 0.  0.
          5    1    3    3  501    0  0.12963290491E+02  0.43162291689E+01  0.47866828445E+02  0.50000000000E+02  0.47000000000E+01 0. -1.
         -5    1    3    3    0  501 -0.12963290491E+02 -0.43162291689E+01 -0.47866828445E+02  0.50000000000E+02  0.47000000000E+01 0.  1.
</event>
<event>
 5    1  0.9081766E-001  0.1000000E+03  0.7546771E-02  0.1163815E+00
         11   -1    0    0    0    0  0.00000000000E+00  0.00000000000E+00  0.50000000000E+02  0.50000000000E+02  0.00000000000E+00 0.  1.
        -11   -1    0    0    0    0 -0.00000000000E+00 -0.00000000000E+00 -0.50000000000E+02  0.50000000000E+02  0.00000000000E+00 0. -1.
         23    2    1    2    0    0  0.00000000000E+00  0.00000000000E+00  0.00000000000E+00  0.10000000000E+03  0.10000000000E+03 0.  0.
          5    1    3    3  501    0  0.56846495051E+01  0.67022977096E+01 -0.48996673004E+02  0.50000000000E+02  0.47000000000E+01 0. -1.
         -5    1    3    3    0  501 -0.56846495051E+01 -0.67022977096E+01  0.48996673004E+02  0.50000000000E+02  0.47000000000E+01 0.  1.
</event>
<event>
 5    1  0.9081766E-001  0.1000000E+03  0.7546771E-02  0.1163815E+00
         11   -1    0    0    0    0  0.00000000000E+00  0.00000000000E+00  0.50000000000E+02  0.50000000000E+02  0.00000000000E+00 0.  1.
        -11   -1    0    0    0    0 -0.00000000000E+00 -0.00000000000E+00 -0.50000000000E+02  0.50000000000E+02  0.00000000000E+00 0. -1.
         23    2    1    2    0    0  0.00000000000E+00  0.00000000000E+00  0.00000000000E+00  0.10000000000E+03  0.10000000000E+03 0.  0.
          5    1    3    3  501    0  0.22619391195E+01  0.30453670524E+02 -0.39311163593E+02  0.50000000000E+02  0.47000000000E+01 0. -1.
         -5    1    3    3    0  501 -0.22619391195E+01 -0.30453670524E+02  0.39311163593E+02  0.50000000000E+02  0.47000000000E+01 0.  1.
</event>
<event>
 5    1  0.9081766E-001  0.1000000E+03  0.7546771E-02  0.1163815E+00
         11   -1    0    0    0    0  0.00000000000E+00  0.00000000000E+00  0.50000000000E+02  0.50000000000E+02  0.00000000000E+00 0.  1.
        -11   -1    0    0    0    0 -0.00000000000E+00 -0.00000000000E+00 -0.50000000000E+02  0.50000000000E+02  0.00000000000E+00 0. -1.
         23    2    1    2    0    0  0.00000000000E+00  0.00000000000E+00  0.00000000000E+00  0.10000000000E+03  0.10000000000E+03 0.  0.
          5    1    3    3  501    0  0.34902646934E+01 -0.33839931409E+02 -0.36339882974E+02  0.50000000000E+02  0.47000000000E+01 0. -1.
         -5    1    3    3    0  501 -0.34902646934E+01  0.33839931409E+02  0.36339882974E+02  0.50000000000E+02  0.47000000000E+01 0.  1.
</event>
<event>
 5    1  0.9081766E-001  0.1000000E+03  0.7546771E-02  0.1163815E+00
         11   -1    0    0    0    0  0.00000000000E+00  0.00000000000E+00  0.50000000000E+02  0.50000000000E+02  0.00000000000E+00 0. -1.
        -11   -1    0    0    0    0 -0.00000000000E+00 -0.00000000000E+00 -0.50000000000E+02  0.50000000000E+02  0.00000000000E+00 0.  1.
         23    2    1    2    0    0  0.00000000000E+00  0.00000000000E+00  0.00000000000E+00  0.10000000000E+03  0.10000000000E+03 0.  0.
          5    1    3    3  501    0 -0.38225329088E+02  0.83919216217E+01  0.30762149918E+02  0.50000000000E+02  0.47000000000E+01 0. -1.
         -5    1    3    3    0  501  0.38225329088E+02 -0.83919216217E+01 -0.30762149918E+02  0.50000000000E+02  0.47000000000E+01 0.  1.
</event>
<event>
 5    1  0.9081766E-001  0.1000000E+03  0.7546771E-02  0.1163815E+00
         11   -1    0    0    0    0  0.00000000000E+00  0.00000000000E+00  0.50000000000E+02  0.50000000000E+02  0.00000000000E+00 0. -1.
        -11   -1    0    0    0    0 -0.00000000000E+00 -0.00000000000E+00 -0.50000000000E+02  0.50000000000E+02  0.00000000000E+00 0.  1.
         23    2    1    2    0    0  0.00000000000E+00  0.00000000000E+00  0.00000000000E+00  0.10000000000E+03  0.10000000000E+03 0.  0.
          5    1    3    3  501    0  0.34392239393E+02  0.29637526961E+02  0.20413252195E+02  0.50000000000E+02  0.47000000000E+01 0. -1.
         -5    1    3    3    0  501 -0.34392239393E+02 -0.29637526961E+02 -0.20413252195E+02  0.50000000000E+02  0.47000000000E+01 0.  1.
</event>
<event>
 5    1  0.9081766E-001  0.1000000E+03  0.7546771E-02  0.1163815E+00
         11   -1    0    0    0    0  0.00000000000E+00  0.00000000000E+00  0.50000000000E+02  0.50000000000E+02  0.00000000000E+00 0.  1.
        -11   -1    0    0    0    0 -0.00000000000E+00 -0.00000000000E+00 -0.50000000000E+02  0.50000000000E+02  0.00000000000E+00 0. -1.
         23    2    1    2    0    0  0.00000000000E+00  0.00000000000E+00  0.00000000000E+00  0.10000000000E+03  0.10000000000E+03 0.  0.
          5    1    3    3  501    0 -0.14373874997E+02 -0.14666435745E+02 -0.45345312658E+02  0.50000000000E+02  0.47000000000E+01 0. -1.
         -5    1    3    3    0  501  0.14373874997E+02  0.14666435745E+02  0.45345312658E+02  0.50000000000E+02  0.47000000000E+01 0.  1.
</event>
<event>
 5    1  0.9081766E-001  0.1000000E+03  0.7546771E-02  0.1163815E+00
         11   -1    0    0    0    0  0.00000000000E+00  0.00000000000E+00  0.50000000000E+02  0.50000000000E+02  0.00000000000E+00 0. -1.
        -11   -1    0    0    0    0 -0.00000000000E+00 -0.00000000000E+00 -0.50000000000E+02  0.50000000000E+02  0.00000000000E+00 0.  1.
         23    2    1    2    0    0  0.00000000000E+00  0.00000000000E+00  0.00000000000E+00  0.10000000000E+03  0.10000000000E+03 0.  0.
          5    1    3    3  501    0  0.34431976554E+02  0.99154646280E+01  0.34554776107E+02  0.50000000000E+02  0.47000000000E+01 0. -1.
         -5    1    3    3    0  501 -0.34431976554E+02 -0.99154646280E+01 -0.34554776107E+02  0.50000000000E+02  0.47000000000E+01 0.  1.
</event>
<event>
 5    1  0.9081766E-001  0.1000000E+03  0.7546771E-02  0.1163815E+00
         11   -1    0    0    0    0  0.00000000000E+00  0.00000000000E+00  0.50000000000E+02  0.50000000000E+02  0.00000000000E+00 0. -1.
        -11   -1    0    0    0    0 -0.00000000000E+00 -0.00000000000E+00 -0.50000000000E+02  0.50000000000E+02  0.00000000000E+00 0.  1.
         23    2    1    2    0    0  0.00000000000E+00  0.00000000000E+00  0.00000000000E+00  0.10000000000E+03  0.10000000000E+03 0.  0.
          5    1    3    3  501    0 -0.35487763221E+02  0.15510868213E+02  0.31272058277E+02  0.50000000000E+02  0.47000000000E+01 0. -1.
         -5    1    3    3    0  501  0.35487763221E+02 -0.15510868213E+02 -0.31272058277E+02  0.50000000000E+02  0.47000000000E+01 0.  1.
</event>
<event>
 5    1  0.9081766E-001  0.1000000E+03  0.7546771E-02  0.1163815E+00
         11   -1    0    0    0    0  0.00000000000E+00  0.00000000000E+00  0.50000000000E+02  0.50000000000E+02  0.00000000000E+00 0. -1.
        -11   -1    0    0    0    0 -0.00000000000E+00 -0.00000000000E+00 -0.50000000000E+02  0.50000000000E+02  0.00000000000E+00 0.  1.
         23    2    1    2    0    0  0.00000000000E+00  0.00000000000E+00  0.00000000000E+00  0.10000000000E+03  0.10000000000E+03 0.  0.
          5    1    3    3  501    0 -0.96944239826E+00 -0.86326567165E+01  0.49014767361E+02  0.50000000000E+02  0.47000000000E+01 0. -1.
         -5    1    3    3    0  501  0.96944239826E+00  0.86326567165E+01 -0.49014767361E+02  0.50000000000E+02  0.47000000000E+01 0.  1.
</event>
<event>
 5    1  0.9081766E-001  0.1000000E+03  0.7546771E-02  0.1163815E+00
         11   -1    0    0    0    0  0.00000000000E+00  0.00000000000E+00  0.50000000000E+02  0.50000000000E+02  0.00000000000E+00 0. -1.
        -11   -1    0    0    0    0 -0.00000000000E+00 -0.00000000000E+00 -0.50000000000E+02  0.50000000000E+02  0.00000000000E+00 0.  1.
         23    2    1    2    0    0  0.00000000000E+00  0.00000000000E+00  0.00000000000E+00  0.10000000000E+03  0.10000000000E+03 0.  0.
          5    1    3    3  501    0  0.16130428464E+02  0.32312304998E+02  0.34258345308E+02  0.50000000000E+02  0.47000000000E+01 0. -1.
         -5    1    3    3    0  501 -0.16130428464E+02 -0.32312304998E+02 -0.34258345308E+02  0.50000000000E+02  0.47000000000E+01 0.  1.
</event>
<event>
 5    1  0.9081766E-001  0.1000000E+03  0.7546771E-02  0.1163815E+00
         11   -1    0    0    0    0  0.00000000000E+00  0.00000000000E+00  0.50000000000E+02  0.50000000000E+02  0.00000000000E+00 0. -1.
        -11   -1    0    0    0    0 -0.00000000000E+00 -0.00000000000E+00 -0.50000000000E+02  0.50000000000E+02  0.00000000000E+00 0.  1.
         23    2    1    2    0    0  0.00000000000E+00  0.00000000000E+00  0.00000000000E+00  0.10000000000E+03  0.10000000000E+03 0.  0.
          5    1    3    3  501    0  0.10598233446E+01 -0.32756169971E+02  0.37467587370E+02  0.50000000000E+02  0.47000000000E+01 0. -1.
         -5    1    3    3    0  501 -0.10598233446E+01  0.32756169971E+02 -0.37467587370E+02  0.50000000000E+02  0.47000000000E+01 0.  1.
</event>
<event>
 5    1  0.9081766E-001  0.1000000E+03  0.7546771E-02  0.1163815E+00
         11   -1    0    0    0    0  0.00000000000E+00  0.00000000000E+00  0.50000000000E+02  0.50000000000E+02  0.00000000000E+00 0.  1.
        -11   -1    0    0    0    0 -0.00000000000E+00 -0.00000000000E+00 -0.50000000000E+02  0.50000000000E+02  0.00000000000E+00 0. -1.
         23    2    1    2    0    0  0.00000000000E+00  0.00000000000E+00  0.00000000000E+00  0.10000000000E+03  0.10000000000E+03 0.  0.
          5    1    3    3  501    0 -0.23001683949E+02  0.19539751329E+02  0.39585738007E+02  0.50000000000E+02  0.47000000000E+01 0.  1.
         -5    1    3    3    0  501  0.23001683949E+02 -0.19539751329E+02 -0.39585738007E+02  0.50000000000E+02  0.47000000000E+01 0. -1.
</event>
<event>
 5    1  0.9081766E-001  0.1000000E+03  0.7546771E-02  0.1163815E+00
         11   -1    0    0    0    0  0.00000000000E+00  0.00000000000E+00  0.50000000000E+02  0.50000000000E+02  0.00000000000E+00 0.  1.
        -11   -1    0    0    0    0 -0.00000000000E+00 -0.00000000000E+00 -0.50000000000E+02  0.50000000000E+02  0.00000000000E+00 0. -1.
         23    2    1    2    0    0  0.00000000000E+00  0.00000000000E+00  0.00000000000E+00  0.10000000000E+03  0.10000000000E+03 0.  0.
          5    1    3    3  501    0 -0.30944954140E+02 -0.38921330127E+02  0.23344966106E+01  0.50000000000E+02  0.47000000000E+01 0. -1.
         -5    1    3    3    0  501  0.30944954140E+02  0.38921330127E+02 -0.23344966106E+01  0.50000000000E+02  0.47000000000E+01 0.  1.
</event>
<event>
 5    1  0.9081766E-001  0.1000000E+03  0.7546771E-02  0.1163815E+00
         11   -1    0    0    0    0  0.00000000000E+00  0.00000000000E+00  0.50000000000E+02  0.50000000000E+02  0.00000000000E+00 0. -1.
        -11   -1    0    0    0    0 -0.00000000000E+00 -0.00000000000E+00 -0.50000000000E+02  0.50000000000E+02  0.00000000000E+00 0.  1.
         23    2    1    2    0    0  0.00000000000E+00  0.00000000000E+00  0.00000000000E+00  0.10000000000E+03  0.10000000000E+03 0.  0.
          5    1    3    3  501    0  0.29033975317E+02 -0.12469842656E+02  0.38463506099E+02  0.50000000000E+02  0.47000000000E+01 0. -1.
         -5    1    3    3    0  501 -0.29033975317E+02  0.12469842656E+02 -0.38463506099E+02  0.50000000000E+02  0.47000000000E+01 0.  1.
</event>
<event>
 5    1  0.9081766E-001  0.1000000E+03  0.7546771E-02  0.1163815E+00
         11   -1    0    0    0    0  0.00000000000E+00  0.00000000000E+00  0.50000000000E+02  0.50000000000E+02  0.00000000000E+00 0. -1.
        -11   -1    0    0    0    0 -0.00000000000E+00 -0.00000000000E+00 -0.50000000000E+02  0.50000000000E+02  0.00000000000E+00 0.  1.
         23    2    1    2    0    0  0.00000000000E+00  0.00000000000E+00  0.00000000000E+00  0.10000000000E+03  0.10000000000E+03 0.  0.
          5    1    3    3  501    0 -0.42593796671E+01 -0.12479260059E+02  0.48000372428E+02  0.50000000000E+02  0.47000000000E+01 0. -1.
         -5    1    3    3    0  501  0.42593796671E+01  0.12479260059E+02 -0.48000372428E+02  0.50000000000E+02  0.47000000000E+01 0.  1.
</event>
<event>
 5    1  0.9081766E-001  0.1000000E+03  0.7546771E-02  0.1163815E+00
         11   -1    0    0    0    0  0.00000000000E+00  0.00000000000E+00  0.50000000000E+02  0.50000000000E+02  0.00000000000E+00 0. -1.
        -11   -1    0    0    0    0 -0.00000000000E+00 -0.00000000000E+00 -0.50000000000E+02  0.50000000000E+02  0.00000000000E+00 0.  1.
         23    2    1    2    0    0  0.00000000000E+00  0.00000000000E+00  0.00000000000E+00  0.10000000000E+03  0.10000000000E+03 0.  0.
          5    1    3    3  501    0 -0.37966466216E+02 -0.30168593479E+02  0.11238923906E+02  0.50000000000E+02  0.47000000000E+01 0. -1.
         -5    1    3    3    0  501  0.37966466216E+02  0.30168593479E+02 -0.11238923906E+02  0.50000000000E+02  0.47000000000E+01 0.  1.
</event>
<event>
 5    1  0.9081766E-001  0.1000000E+03  0.7546771E-02  0.1163815E+00
         11   -1    0    0    0    0  0.00000000000E+00  0.00000000000E+00  0.50000000000E+02  0.50000000000E+02  0.00000000000E+00 0. -1.
        -11   -1    0    0    0    0 -0.00000000000E+00 -0.00000000000E+00 -0.50000000000E+02  0.50000000000E+02  0.00000000000E+00 0.  1.
         23    2    1    2    0    0  0.00000000000E+00  0.00000000000E+00  0.00000000000E+00  0.10000000000E+03  0.10000000000E+03 0.  0.
          5    1    3    3  501    0  0.10280038031E+02  0.10694133972E+02  0.47517010814E+02  0.50000000000E+02  0.47000000000E+01 0. -1.
         -5    1    3    3    0  501 -0.10280038031E+02 -0.10694133972E+02 -0.47517010814E+02  0.50000000000E+02  0.47000000000E+01 0.  1.
</event>
<event>
 5    1  0.9081766E-001  0.1000000E+03  0.7546771E-02  0.1163815E+00
         11   -1    0    0    0    0  0.00000000000E+00  0.00000000000E+00  0.50000000000E+02  0.50000000000E+02  0.00000000000E+00 0.  1.
        -11   -1    0    0    0    0 -0.00000000000E+00 -0.00000000000E+00 -0.50000000000E+02  0.50000000000E+02  0.00000000000E+00 0. -1.
         23    2    1    2    0    0  0.00000000000E+00  0.00000000000E+00  0.00000000000E+00  0.10000000000E+03  0.10000000000E+03 0.  0.
          5    1    3    3  501    0  0.44313577897E+02  0.22571874862E+02  0.21742307006E+01  0.50000000000E+02  0.47000000000E+01 0. -1.
         -5    1    3    3    0  501 -0.44313577897E+02 -0.22571874862E+02 -0.21742307006E+01  0.50000000000E+02  0.47000000000E+01 0.  1.
</event>
<event>
 5    1  0.9081766E-001  0.1000000E+03  0.7546771E-02  0.1163815E+00
         11   -1    0    0    0    0  0.00000000000E+00  0.00000000000E+00  0.50000000000E+02  0.50000000000E+02  0.00000000000E+00 0. -1.
        -11   -1    0    0    0    0 -0.00000000000E+00 -0.00000000000E+00 -0.50000000000E+02  0.50000000000E+02  0.00000000000E+00 0.  1.
         23    2    1    2    0    0  0.00000000000E+00  0.00000000000E+00  0.00000000000E+00  0.10000000000E+03  0.10000000000E+03 0.  0.
          5    1    3    3  501    0  0.11618457802E+02  0.44762930991E+02 -0.18417422388E+02  0.50000000000E+02  0.47000000000E+01 0. -1.
         -5    1    3    3    0  501 -0.11618457802E+02 -0.44762930991E+02  0.18417422388E+02  0.50000000000E+02  0.47000000000E+01 0.  1.
</event>
<event>
 5    1  0.9081766E-001  0.1000000E+03  0.7546771E-02  0.1163815E+00
         11   -1    0    0    0    0  0.00000000000E+00  0.00000000000E+00  0.50000000000E+02  0.50000000000E+02  0.00000000000E+00 0. -1.
        -11   -1    0    0    0    0 -0.00000000000E+00 -0.00000000000E+00 -0.50000000000E+02  0.50000000000E+02  0.00000000000E+00 0.  1.
         23    2    1    2    0    0  0.00000000000E+00  0.00000000000E+00  0.00000000000E+00  0.10000000000E+03  0.10000000000E+03 0.  0.
          5    1    3    3  501    0 -0.42292206630E+01  0.48750301558E+02  0.91341004264E+01  0.50000000000E+02  0.47000000000E+01 0. -1.
         -5    1    3    3    0  501  0.42292206630E+01 -0.48750301558E+02 -0.91341004264E+01  0.50000000000E+02  0.47000000000E+01 0.  1.
</event>
<event>
 5    1  0.9081766E-001  0.1000000E+03  0.7546771E-02  0.1163815E+00
         11   -1    0    0    0    0  0.00000000000E+00  0.00000000000E+00  0.50000000000E+02  0.50000000000E+02  0.00000000000E+00 0. -1.
        -11   -1    0    0    0    0 -0.00000000000E+00 -0.00000000000E+00 -0.50000000000E+02  0.50000000000E+02  0.00000000000E+00 0.  1.
         23    2    1    2    0    0  0.00000000000E+00  0.00000000000E+00  0.00000000000E+00  0.10000000000E+03  0.10000000000E+03 0.  0.
          5    1    3    3  501    0  0.32638469738E+02  0.36742998631E+02 -0.79115323903E+01  0.50000000000E+02  0.47000000000E+01 0. -1.
         -5    1    3    3    0  501 -0.32638469738E+02 -0.36742998631E+02  0.79115323903E+01  0.50000000000E+02  0.47000000000E+01 0.  1.
</event>
<event>
 5    1  0.9081766E-001  0.1000000E+03  0.7546771E-02  0.1163815E+00
         11   -1    0    0    0    0  0.00000000000E+00  0.00000000000E+00  0.50000000000E+02  0.50000000000E+02  0.00000000000E+00 0. -1.
        -11   -1    0    0    0    0 -0.00000000000E+00 -0.00000000000E+00 -0.50000000000E+02  0.50000000000E+02  0.00000000000E+00 0.  1.
         23    2    1    2    0    0  0.00000000000E+00  0.00000000000E+00  0.00000000000E+00  0.10000000000E+03  0.10000000000E+03 0.  0.
          5    1    3    3  501    0 -0.19543414876E+02 -0.41637409402E+02  0.19033945289E+02  0.50000000000E+02  0.47000000000E+01 0. -1.
         -5    1    3    3    0  501  0.19543414876E+02  0.41637409402E+02 -0.19033945289E+02  0.50000000000E+02  0.47000000000E+01 0.  1.
</event>
<event>
 5    1  0.9081766E-001  0.1000000E+03  0.7546771E-02  0.1163815E+00
         11   -1    0    0    0    0  0.00000000000E+00  0.00000000000E+00  0.50000000000E+02  0.50000000000E+02  0.00000000000E+00 0. -1.
        -11   -1    0    0    0    0 -0.00000000000E+00 -0.00000000000E+00 -0.50000000000E+02  0.50000000000E+02  0.00000000000E+00 0.  1.
         23    2    1    2    0    0  0.00000000000E+00  0.00000000000E+00  0.00000000000E+00  0.10000000000E+03  0.10000000000E+03 0.  0.
          5    1    3    3  501    0  0.43323398460E+02 -0.21422722692E+02  0.11918896689E+02  0.50000000000E+02  0.47000000000E+01 0. -1.
         -5    1    3    3    0  501 -0.43323398460E+02  0.21422722692E+02 -0.11918896689E+02  0.50000000000E+02  0.47000000000E+01 0.  1.
</event>
<event>
 5    1  0.9081766E-001  0.1000000E+03  0.7546771E-02  0.1163815E+00
         11   -1    0    0    0    0  0.00000000000E+00  0.00000000000E+00  0.50000000000E+02  0.50000000000E+02  0.00000000000E+00 0. -1.
        -11   -1    0    0    0    0 -0.00000000000E+00 -0.00000000000E+00 -0.50000000000E+02  0.50000000000E+02  0.00000000000E+00 0.  1.
         23    2    1    2    0    0  0.00000000000E+00  0.00000000000E+00  0.00000000000E+00  0.10000000000E+03  0.10000000000E+03 0.  0.
          5    1    3    3  501    0  0.41791642871E+02  0.10929042789E+02  0.24737109973E+02  0.50000000000E+02  0.47000000000E+01 0. -1.
         -5    1    3    3    0  501 -0.41791642871E+02 -0.10929042789E+02 -0.24737109973E+02  0.50000000000E+02  0.47000000000E+01 0.  1.
</event>
<event>
 5    1  0.9081766E-001  0.1000000E+03  0.7546771E-02  0.1163815E+00
         11   -1    0    0    0    0  0.00000000000E+00  0.00000000000E+00  0.50000000000E+02  0.50000000000E+02  0.00000000000E+00 0. -1.
        -11   -1    0    0    0    0 -0.00000000000E+00 -0.00000000000E+00 -0.50000000000E+02  0.50000000000E+02  0.00000000000E+00 0.  1.
         23    2    1    2    0    0  0.00000000000E+00  0.00000000000E+00  0.00000000000E+00  0.10000000000E+03  0.10000000000E+03 0.  0.
          5    1    3    3  501    0  0.35201742197E+02 -0.21668490150E+02  0.27734885629E+02  0.50000000000E+02  0.47000000000E+01 0. -1.
         -5    1    3    3    0  501 -0.35201742197E+02  0.21668490150E+02 -0.27734885629E+02  0.50000000000E+02  0.47000000000E+01 0.  1.
</event>
<event>
 5    1  0.9081766E-001  0.1000000E+03  0.7546771E-02  0.1163815E+00
         11   -1    0    0    0    0  0.00000000000E+00  0.00000000000E+00  0.50000000000E+02  0.50000000000E+02  0.00000000000E+00 0. -1.
        -11   -1    0    0    0    0 -0.00000000000E+00 -0.00000000000E+00 -0.50000000000E+02  0.50000000000E+02  0.00000000000E+00 0.  1.
         23    2    1    2    0    0  0.00000000000E+00  0.00000000000E+00  0.00000000000E+00  0.10000000000E+03  0.10000000000E+03 0.  0.
          5    1    3    3  501    0 -0.10360991694E+00  0.33318843528E+02  0.36983157395E+02  0.50000000000E+02  0.47000000000E+01 0. -1.
         -5    1    3    3    0  501  0.10360991694E+00 -0.33318843528E+02 -0.36983157395E+02  0.50000000000E+02  0.47000000000E+01 0.  1.
</event>
<event>
 5    1  0.9081766E-001  0.1000000E+03  0.7546771E-02  0.1163815E+00
         11   -1    0    0    0    0  0.00000000000E+00  0.00000000000E+00  0.50000000000E+02  0.50000000000E+02  0.00000000000E+00 0. -1.
        -11   -1    0    0    0    0 -0.00000000000E+00 -0.00000000000E+00 -0.50000000000E+02  0.50000000000E+02  0.00000000000E+00 0.  1.
         23    2    1    2    0    0  0.00000000000E+00  0.00000000000E+00  0.00000000000E+00  0.10000000000E+03  0.10000000000E+03 0.  0.
          5    1    3    3  501    0  0.14934630225E+02  0.39986730073E+02  0.25611095996E+02  0.50000000000E+02  0.47000000000E+01 0. -1.
         -5    1    3    3    0  501 -0.14934630225E+02 -0.39986730073E+02 -0.25611095996E+02  0.50000000000E+02  0.47000000000E+01 0.  1.
</event>
<event>
 5    1  0.9081766E-001  0.1000000E+03  0.7546771E-02  0.1163815E+00
         11   -1    0    0    0    0  0.00000000000E+00  0.00000000000E+00  0.50000000000E+02  0.50000000000E+02  0.00000000000E+00 0. -1.
        -11   -1    0    0    0    0 -0.00000000000E+00 -0.00000000000E+00 -0.50000000000E+02  0.50000000000E+02  0.00000000000E+00 0.  1.
         23    2    1    2    0    0  0.00000000000E+00  0.00000000000E+00  0.00000000000E+00  0.10000000000E+03  0.10000000000E+03 0.  0.
          5    1    3    3  501    0 -0.17997070075E+02  0.63410691963E+00  0.46407040168E+02  0.50000000000E+02  0.47000000000E+01 0. -1.
         -5    1    3    3    0  501  0.17997070075E+02 -0.63410691963E+00 -0.46407040168E+02  0.50000000000E+02  0.47000000000E+01 0.  1.
</event>
<event>
 5    1  0.9081766E-001  0.1000000E+03  0.7546771E-02  0.1163815E+00
         11   -1    0    0    0    0  0.00000000000E+00  0.00000000000E+00  0.50000000000E+02  0.50000000000E+02  0.00000000000E+00 0. -1.
        -11   -1    0    0    0    0 -0.00000000000E+00 -0.00000000000E+00 -0.50000000000E+02  0.50000000000E+02  0.00000000000E+00 0.  1.
         23    2    1    2    0    0  0.00000000000E+00  0.00000000000E+00  0.00000000000E+00  0.10000000000E+03  0.10000000000E+03 0.  0.
          5    1    3    3  501    0 -0.31980037180E+02 -0.27331470159E+02  0.26611613271E+02  0.50000000000E+02  0.47000000000E+01 0. -1.
         -5    1    3    3    0  501  0.31980037180E+02  0.27331470159E+02 -0.26611613271E+02  0.50000000000E+02  0.47000000000E+01 0.  1.
</event>
<event>
 5    1  0.9081766E-001  0.1000000E+03  0.7546771E-02  0.1163815E+00
         11   -1    0    0    0    0  0.00000000000E+00  0.00000000000E+00  0.50000000000E+02  0.50000000000E+02  0.00000000000E+00 0.  1.
        -11   -1    0    0    0    0 -0.00000000000E+00 -0.00000000000E+00 -0.50000000000E+02  0.50000000000E+02  0.00000000000E+00 0. -1.
         23    2    1    2    0    0  0.00000000000E+00  0.00000000000E+00  0.00000000000E+00  0.10000000000E+03  0.10000000000E+03 0.  0.
          5    1    3    3  501    0  0.80912457247E+01  0.47016743410E+02 -0.14208011183E+02  0.50000000000E+02  0.47000000000E+01 0. -1.
         -5    1    3    3    0  501 -0.80912457247E+01 -0.47016743410E+02  0.14208011183E+02  0.50000000000E+02  0.47000000000E+01 0.  1.
</event>
<event>
 5    1  0.9081766E-001  0.1000000E+03  0.7546771E-02  0.1163815E+00
         11   -1    0    0    0    0  0.00000000000E+00  0.00000000000E+00  0.50000000000E+02  0.50000000000E+02  0.00000000000E+00 0. -1.
        -11   -1    0    0    0    0 -0.00000000000E+00 -0.00000000000E+00 -0.50000000000E+02  0.50000000000E+02  0.00000000000E+00 0.  1.
         23    2    1    2    0    0  0.00000000000E+00  0.00000000000E+00  0.00000000000E+00  0.10000000000E+03  0.10000000000E+03 0.  0.
          5    1    3    3  501    0 -0.13135123609E+02 -0.44351393385E+02  0.18393815064E+02  0.50000000000E+02  0.47000000000E+01 0. -1.
         -5    1    3    3    0  501  0.13135123609E+02  0.44351393385E+02 -0.18393815064E+02  0.50000000000E+02  0.47000000000E+01 0.  1.
</event>
<event>
 5    1  0.9081766E-001  0.1000000E+03  0.7546771E-02  0.1163815E+00
         11   -1    0    0    0    0  0.00000000000E+00  0.00000000000E+00  0.50000000000E+02  0.50000000000E+02  0.00000000000E+00 0. -1.
        -11   -1    0    0    0    0 -0.00000000000E+00 -0.00000000000E+00 -0.50000000000E+02  0.50000000000E+02  0.00000000000E+00 0.  1.
         23    2    1    2    0    0  0.00000000000E+00  0.00000000000E+00  0.00000000000E+00  0.10000000000E+03  0.10000000000E+03 0.  0.
          5    1    3    3  501    0  0.44951908575E+02 -0.11666019200E+02  0.17920376990E+02  0.50000000000E+02  0.47000000000E+01 0. -1.
         -5    1    3    3    0  501 -0.44951908575E+02  0.11666019200E+02 -0.17920376990E+02  0.50000000000E+02  0.47000000000E+01 0.  1.
</event>
<event>
 5    1  0.9081766E-001  0.1000000E+03  0.7546771E-02  0.1163815E+00
         11   -1    0    0    0    0  0.00000000000E+00  0.00000000000E+00  0.50000000000E+02  0.50000000000E+02  0.00000000000E+00 0. -1.
        -11   -1    0    0    0    0 -0.00000000000E+00 -0.00000000000E+00 -0.50000000000E+02  0.50000000000E+02  0.00000000000E+00 0.  1.
         23    2    1    2    0    0  0.00000000000E+00  0.00000000000E+00  0.00000000000E+00  0.10000000000E+03  0.10000000000E+03 0.  0.
          5    1    3    3  501    0  0.27258745316E+01 -0.30776360317E+02  0.39029415236E+02  0.50000000000E+02  0.47000000000E+01 0. -1.
         -5    1    3    3    0  501 -0.27258745316E+01  0.30776360317E+02 -0.39029415236E+02  0.50000000000E+02  0.47000000000E+01 0.  1.
</event>
<event>
 5    1  0.9081766E-001  0.1000000E+03  0.7546771E-02  0.1163815E+00
         11   -1    0    0    0    0  0.00000000000E+00  0.00000000000E+00  0.50000000000E+02  0.50000000000E+02  0.00000000000E+00 0.  1.
        -11   -1    0    0    0    0 -0.00000000000E+00 -0.00000000000E+00 -0.50000000000E+02  0.50000000000E+02  0.00000000000E+00 0. -1.
         23    2    1    2    0    0  0.00000000000E+00  0.00000000000E+00  0.00000000000E+00  0.10000000000E+03  0.10000000000E+03 0.  0.
          5    1    3    3  501    0 -0.24387752542E+02  0.33333168283E+02  0.27785741275E+02  0.50000000000E+02  0.47000000000E+01 0.  1.
         -5    1    3    3    0  501  0.24387752542E+02 -0.33333168283E+02 -0.27785741275E+02  0.50000000000E+02  0.47000000000E+01 0. -1.
</event>
<event>
 5    1  0.9081766E-001  0.1000000E+03  0.7546771E-02  0.1163815E+00
         11   -1    0    0    0    0  0.00000000000E+00  0.00000000000E+00  0.50000000000E+02  0.50000000000E+02  0.00000000000E+00 0. -1.
        -11   -1    0    0    0    0 -0.00000000000E+00 -0.00000000000E+00 -0.50000000000E+02  0.50000000000E+02  0.00000000000E+00 0.  1.
         23    2    1    2    0    0  0.00000000000E+00  0.00000000000E+00  0.00000000000E+00  0.10000000000E+03  0.10000000000E+03 0.  0.
          5    1    3    3  501    0 -0.49490323867E+01  0.17049060857E+02  0.46505339503E+02  0.50000000000E+02  0.47000000000E+01 0. -1.
         -5    1    3    3    0  501  0.49490323867E+01 -0.17049060857E+02 -0.46505339503E+02  0.50000000000E+02  0.47000000000E+01 0.  1.
</event>
<event>
 5    1  0.9081766E-001  0.1000000E+03  0.7546771E-02  0.1163815E+00
         11   -1    0    0    0    0  0.00000000000E+00  0.00000000000E+00  0.50000000000E+02  0.50000000000E+02  0.00000000000E+00 0.  1.
        -11   -1    0    0    0    0 -0.00000000000E+00 -0.00000000000E+00 -0.50000000000E+02  0.50000000000E+02  0.00000000000E+00 0. -1.
         23    2    1    2    0    0  0.00000000000E+00  0.00000000000E+00  0.00000000000E+00  0.10000000000E+03  0.10000000000E+03 0.  0.
          5    1    3    3  501    0  0.32079729922E+02 -0.16958842365E+02 -0.34076364151E+02  0.50000000000E+02  0.47000000000E+01 0. -1.
         -5    1    3    3    0  501 -0.32079729922E+02  0.16958842365E+02  0.34076364151E+02  0.50000000000E+02  0.47000000000E+01 0.  1.
</event>
<event>
 5    1  0.9081766E-001  0.1000000E+03  0.7546771E-02  0.1163815E+00
         11   -1    0    0    0    0  0.00000000000E+00  0.00000000000E+00  0.50000000000E+02  0.50000000000E+02  0.00000000000E+00 0. -1.
        -11   -1    0    0    0    0 -0.00000000000E+00 -0.00000000000E+00 -0.50000000000E+02  0.50000000000E+02  0.00000000000E+00 0.  1.
         23    2    1    2    0    0  0.00000000000E+00  0.00000000000E+00  0.00000000000E+00  0.10000000000E+03  0.10000000000E+03 0.  0.
          5    1    3    3  501    0  0.60736825941E+01  0.28570185453E+02  0.40308372368E+02  0.50000000000E+02  0.47000000000E+01 0. -1.
         -5    1    3    3    0  501 -0.60736825941E+01 -0.28570185453E+02 -0.40308372368E+02  0.50000000000E+02  0.47000000000E+01 0.  1.
</event>
<event>
 5    1  0.9081766E-001  0.1000000E+03  0.7546771E-02  0.1163815E+00
         11   -1    0    0    0    0  0.00000000000E+00  0.00000000000E+00  0.50000000000E+02  0.50000000000E+02  0.00000000000E+00 0. -1.
        -11   -1    0    0    0    0 -0.00000000000E+00 -0.00000000000E+00 -0.50000000000E+02  0.50000000000E+02  0.00000000000E+00 0.  1.
         23    2    1    2    0    0  0.00000000000E+00  0.00000000000E+00  0.00000000000E+00  0.10000000000E+03  0.10000000000E+03 0.  0.
          5    1    3    3  501    0 -0.36774143280E+02 -0.18277986051E+02  0.28133389628E+02  0.50000000000E+02  0.47000000000E+01 0. -1.
         -5    1    3    3    0  501  0.36774143280E+02  0.18277986051E+02 -0.28133389628E+02  0.50000000000E+02  0.47000000000E+01 0.  1.
</event>
<event>
 5    1  0.9081766E-001  0.1000000E+03  0.7546771E-02  0.1163815E+00
         11   -1    0    0    0    0  0.00000000000E+00  0.00000000000E+00  0.50000000000E+02  0.50000000000E+02  0.00000000000E+00 0. -1.
        -11   -1    0    0    0    0 -0.00000000000E+00 -0.00000000000E+00 -0.50000000000E+02  0.50000000000E+02  0.00000000000E+00 0.  1.
         23    2    1    2    0    0  0.00000000000E+00  0.00000000000E+00  0.00000000000E+00  0.10000000000E+03  0.10000000000E+03 0.  0.
          5    1    3    3  501    0  0.44653830473E+02  0.15808312249E+02 -0.15298453774E+02  0.50000000000E+02  0.47000000000E+01 0. -1.
         -5    1    3    3    0  501 -0.44653830473E+02 -0.15808312249E+02  0.15298453774E+02  0.50000000000E+02  0.47000000000E+01 0.  1.
</event>
<event>
 5    1  0.9081766E-001  0.1000000E+03  0.7546771E-02  0.1163815E+00
         11   -1    0    0    0    0  0.00000000000E+00  0.00000000000E+00  0.50000000000E+02  0.50000000000E+02  0.00000000000E+00 0. -1.
        -11   -1    0    0    0    0 -0.00000000000E+00 -0.00000000000E+00 -0.50000000000E+02  0.50000000000E+02  0.00000000000E+00 0.  1.
         23    2    1    2    0    0  0.00000000000E+00  0.00000000000E+00  0.00000000000E+00  0.10000000000E+03  0.10000000000E+03 0.  0.
          5    1    3    3  501    0 -0.10565659877E+02  0.27205401503E+02  0.40325462929E+02  0.50000000000E+02  0.47000000000E+01 0. -1.
         -5    1    3    3    0  501  0.10565659877E+02 -0.27205401503E+02 -0.40325462929E+02  0.50000000000E+02  0.47000000000E+01 0.  1.
</event>
<event>
 5    1  0.9081766E-001  0.1000000E+03  0.7546771E-02  0.1163815E+00
         11   -1    0    0    0    0  0.00000000000E+00  0.00000000000E+00  0.50000000000E+02  0.50000000000E+02  0.00000000000E+00 0. -1.
        -11   -1    0    0    0    0 -0.00000000000E+00 -0.00000000000E+00 -0.50000000000E+02  0.50000000000E+02  0.00000000000E+00 0.  1.
         23    2    1    2    0    0  0.00000000000E+00  0.00000000000E+00  0.00000000000E+00  0.10000000000E+03  0.10000000000E+03 0.  0.
          5    1    3    3  501    0 -0.35246846704E+02 -0.34602547035E+02  0.61833272738E+01  0.50000000000E+02  0.47000000000E+01 0. -1.
         -5    1    3    3    0  501  0.35246846704E+02  0.34602547035E+02 -0.61833272738E+01  0.50000000000E+02  0.47000000000E+01 0.  1.
</event>
<event>
 5    1  0.9081766E-001  0.1000000E+03  0.7546771E-02  0.1163815E+00
         11   -1    0    0    0    0  0.00000000000E+00  0.00000000000E+00  0.50000000000E+02  0.50000000000E+02  0.00000000000E+00 0. -1.
        -11   -1    0    0    0    0 -0.00000000000E+00 -0.00000000000E+00 -0.50000000000E+02  0.50000000000E+02  0.00000000000E+00 0.  1.
         23    2    1    2    0    0  0.00000000000E+00  0.00000000000E+00  0.00000000000E+00  0.10000000000E+03  0.10000000000E+03 0.  0.
          5    1    3    3  501    0  0.46649214744E+02 -0.73861068191E+01 -0.15722792049E+02  0.50000000000E+02  0.47000000000E+01 0. -1.
         -5    1    3    3    0  501 -0.46649214744E+02  0.73861068191E+01  0.15722792049E+02  0.50000000000E+02  0.47000000000E+01 0.  1.
</event>
<event>
 5    1  0.9081766E-001  0.1000000E+03  0.7546771E-02  0.1163815E+00
         11   -1    0    0    0    0  0.00000000000E+00  0.00000000000E+00  0.50000000000E+02  0.50000000000E+02  0.00000000000E+00 0. -1.
        -11   -1    0    0    0    0 -0.00000000000E+00 -0.00000000000E+00 -0.50000000000E+02  0.50000000000E+02  0.00000000000E+00 0.  1.
         23    2    1    2    0    0  0.00000000000E+00  0.00000000000E+00  0.00000000000E+00  0.10000000000E+03  0.10000000000E+03 0.  0.
          5    1    3    3  501    0 -0.17497968899E+01 -0.24941644928E+02  0.43043728453E+02  0.50000000000E+02  0.47000000000E+01 0. -1.
         -5    1    3    3    0  501  0.17497968899E+01  0.24941644928E+02 -0.43043728453E+02  0.50000000000E+02  0.47000000000E+01 0.  1.
</event>
<event>
 5    1  0.9081766E-001  0.1000000E+03  0.7546771E-02  0.1163815E+00
         11   -1    0    0    0    0  0.00000000000E+00  0.00000000000E+00  0.50000000000E+02  0.50000000000E+02  0.00000000000E+00 0. -1.
        -11   -1    0    0    0    0 -0.00000000000E+00 -0.00000000000E+00 -0.50000000000E+02  0.50000000000E+02  0.00000000000E+00 0.  1.
         23    2    1    2    0    0  0.00000000000E+00  0.00000000000E+00  0.00000000000E+00  0.10000000000E+03  0.10000000000E+03 0.  0.
          5    1    3    3  501    0 -0.47101086221E+02 -0.48135689094E+01  0.15369685460E+02  0.50000000000E+02  0.47000000000E+01 0. -1.
         -5    1    3    3    0  501  0.47101086221E+02  0.48135689094E+01 -0.15369685460E+02  0.50000000000E+02  0.47000000000E+01 0.  1.
</event>
<event>
 5    1  0.9081766E-001  0.1000000E+03  0.7546771E-02  0.1163815E+00
         11   -1    0    0    0    0  0.00000000000E+00  0.00000000000E+00  0.50000000000E+02  0.50000000000E+02  0.00000000000E+00 0.  1.
        -11   -1    0    0    0    0 -0.00000000000E+00 -0.00000000000E+00 -0.50000000000E+02  0.50000000000E+02  0.00000000000E+00 0. -1.
         23    2    1    2    0    0  0.00000000000E+00  0.00000000000E+00  0.00000000000E+00  0.10000000000E+03  0.10000000000E+03 0.  0.
          5    1    3    3  501    0 -0.33035923711E+02 -0.31842619895E+02  0.19302468826E+02  0.50000000000E+02  0.47000000000E+01 0.  1.
         -5    1    3    3    0  501  0.33035923711E+02  0.31842619895E+02 -0.19302468826E+02  0.50000000000E+02  0.47000000000E+01 0. -1.
</event>
<event>
 5    1  0.9081766E-001  0.1000000E+03  0.7546771E-02  0.1163815E+00
         11   -1    0    0    0    0  0.00000000000E+00  0.00000000000E+00  0.50000000000E+02  0.50000000000E+02  0.00000000000E+00 0.  1.
        -11   -1    0    0    0    0 -0.00000000000E+00 -0.00000000000E+00 -0.50000000000E+02  0.50000000000E+02  0.00000000000E+00 0. -1.
         23    2    1    2    0    0  0.00000000000E+00  0.00000000000E+00  0.00000000000E+00  0.10000000000E+03  0.10000000000E+03 0.  0.
          5    1    3    3  501    0 -0.43409124707E+02  0.15922204194E+02 -0.18440208941E+02  0.50000000000E+02  0.47000000000E+01 0. -1.
         -5    1    3    3    0  501  0.43409124707E+02 -0.15922204194E+02  0.18440208941E+02  0.50000000000E+02  0.47000000000E+01 0.  1.
</event>
<event>
 5    1  0.9081766E-001  0.1000000E+03  0.7546771E-02  0.1163815E+00
         11   -1    0    0    0    0  0.00000000000E+00  0.00000000000E+00  0.50000000000E+02  0.50000000000E+02  0.00000000000E+00 0. -1.
        -11   -1    0    0    0    0 -0.00000000000E+00 -0.00000000000E+00 -0.50000000000E+02  0.50000000000E+02  0.00000000000E+00 0.  1.
         23    2    1    2    0    0  0.00000000000E+00  0.00000000000E+00  0.00000000000E+00  0.10000000000E+03  0.10000000000E+03 0.  0.
          5    1    3    3  501    0  0.11770135618E+02  0.39701788619E+02  0.27625022860E+02  0.50000000000E+02  0.47000000000E+01 0. -1.
         -5    1    3    3    0  501 -0.11770135618E+02 -0.39701788619E+02 -0.27625022860E+02  0.50000000000E+02  0.47000000000E+01 0.  1.
</event>
<event>
 5    1  0.9081766E-001  0.1000000E+03  0.7546771E-02  0.1163815E+00
         11   -1    0    0    0    0  0.00000000000E+00  0.00000000000E+00  0.50000000000E+02  0.50000000000E+02  0.00000000000E+00 0. -1.
        -11   -1    0    0    0    0 -0.00000000000E+00 -0.00000000000E+00 -0.50000000000E+02  0.50000000000E+02  0.00000000000E+00 0.  1.
         23    2    1    2    0    0  0.00000000000E+00  0.00000000000E+00  0.00000000000E+00  0.10000000000E+03  0.10000000000E+03 0.  0.
          5    1    3    3  501    0 -0.64214069433E+01 -0.38334635883E+02  0.31098733489E+02  0.50000000000E+02  0.47000000000E+01 0. -1.
         -5    1    3    3    0  501  0.64214069433E+01  0.38334635883E+02 -0.31098733489E+02  0.50000000000E+02  0.47000000000E+01 0.  1.
</event>
<event>
 5    1  0.9081766E-001  0.1000000E+03  0.7546771E-02  0.1163815E+00
         11   -1    0    0    0    0  0.00000000000E+00  0.00000000000E+00  0.50000000000E+02  0.50000000000E+02  0.00000000000E+00 0. -1.
        -11   -1    0    0    0    0 -0.00000000000E+00 -0.00000000000E+00 -0.50000000000E+02  0.50000000000E+02  0.00000000000E+00 0.  1.
         23    2    1    2    0    0  0.00000000000E+00  0.00000000000E+00  0.00000000000E+00  0.10000000000E+03  0.10000000000E+03 0.  0.
          5    1    3    3  501    0  0.35462294703E+02  0.33844557207E+02  0.86534156184E+01  0.50000000000E+02  0.47000000000E+01 0. -1.
         -5    1    3    3    0  501 -0.35462294703E+02 -0.33844557207E+02 -0.86534156184E+01  0.50000000000E+02  0.47000000000E+01 0.  1.
</event>
<event>
 5    1  0.9081766E-001  0.1000000E+03  0.7546771E-02  0.1163815E+00
         11   -1    0    0    0    0  0.00000000000E+00  0.00000000000E+00  0.50000000000E+02  0.50000000000E+02  0.00000000000E+00 0. -1.
        -11   -1    0    0    0    0 -0.00000000000E+00 -0.00000000000E+00 -0.50000000000E+02  0.50000000000E+02  0.00000000000E+00 0.  1.
         23    2    1    2    0    0  0.00000000000E+00  0.00000000000E+00  0.00000000000E+00  0.10000000000E+03  0.10000000000E+03 0.  0.
          5    1    3    3  501    0  0.27192815455E+02  0.49508033499E+01  0.41399883259E+02  0.50000000000E+02  0.47000000000E+01 0. -1.
         -5    1    3    3    0  501 -0.27192815455E+02 -0.49508033499E+01 -0.41399883259E+02  0.50000000000E+02  0.47000000000E+01 0.  1.
</event>
<event>
 5    1  0.9081766E-001  0.1000000E+03  0.7546771E-02  0.1163815E+00
         11   -1    0    0    0    0  0.00000000000E+00  0.00000000000E+00  0.50000000000E+02  0.50000000000E+02  0.00000000000E+00 0. -1.
        -11   -1    0    0    0    0 -0.00000000000E+00 -0.00000000000E+00 -0.50000000000E+02  0.50000000000E+02  0.00000000000E+00 0.  1.
         23    2    1    2    0    0  0.00000000000E+00  0.00000000000E+00  0.00000000000E+00  0.10000000000E+03  0.10000000000E+03 0.  0.
          5    1    3    3  501    0 -0.17844797947E+01  0.48565673584E+02  0.10775016529E+02  0.50000000000E+02  0.47000000000E+01 0. -1.
         -5    1    3    3    0  501  0.17844797947E+01 -0.48565673584E+02 -0.10775016529E+02  0.50000000000E+02  0.47000000000E+01 0.  1.
</event>
<event>
 5    1  0.9081766E-001  0.1000000E+03  0.7546771E-02  0.1163815E+00
         11   -1    0    0    0    0  0.00000000000E+00  0.00000000000E+00  0.50000000000E+02  0.50000000000E+02  0.00000000000E+00 0.  1.
        -11   -1    0    0    0    0 -0.00000000000E+00 -0.00000000000E+00 -0.50000000000E+02  0.50000000000E+02  0.00000000000E+00 0. -1.
         23    2    1    2    0    0  0.00000000000E+00  0.00000000000E+00  0.00000000000E+00  0.10000000000E+03  0.10000000000E+03 0.  0.
          5    1    3    3  501    0  0.15819632668E+02 -0.46975077434E+02  0.45816287831E+01  0.50000000000E+02  0.47000000000E+01 0. -1.
         -5    1    3    3    0  501 -0.15819632668E+02  0.46975077434E+02 -0.45816287831E+01  0.50000000000E+02  0.47000000000E+01 0.  1.
</event>
<event>
 5    1  0.9081766E-001  0.1000000E+03  0.7546771E-02  0.1163815E+00
         11   -1    0    0    0    0  0.00000000000E+00  0.00000000000E+00  0.50000000000E+02  0.50000000000E+02  0.00000000000E+00 0. -1.
        -11   -1    0    0    0    0 -0.00000000000E+00 -0.00000000000E+00 -0.50000000000E+02  0.50000000000E+02  0.00000000000E+00 0.  1.
         23    2    1    2    0    0  0.00000000000E+00  0.00000000000E+00  0.00000000000E+00  0.10000000000E+03  0.10000000000E+03 0.  0.
          5    1    3    3  501    0  0.36724367860E+02  0.27084398529E+02 -0.19891358970E+02  0.50000000000E+02  0.47000000000E+01 0. -1.
         -5    1    3    3    0  501 -0.36724367860E+02 -0.27084398529E+02  0.19891358970E+02  0.50000000000E+02  0.47000000000E+01 0.  1.
</event>
<event>
 5    1  0.9081766E-001  0.1000000E+03  0.7546771E-02  0.1163815E+00
         11   -1    0    0    0    0  0.00000000000E+00  0.00000000000E+00  0.50000000000E+02  0.50000000000E+02  0.00000000000E+00 0.  1.
        -11   -1    0    0    0    0 -0.00000000000E+00 -0.00000000000E+00 -0.50000000000E+02  0.50000000000E+02  0.00000000000E+00 0. -1.
         23    2    1    2    0    0  0.00000000000E+00  0.00000000000E+00  0.00000000000E+00  0.10000000000E+03  0.10000000000E+03 0.  0.
          5    1    3    3  501    0 -0.16229652163E+02 -0.39400791774E+02 -0.25731031815E+02  0.50000000000E+02  0.47000000000E+01 0. -1.
         -5    1    3    3    0  501  0.16229652163E+02  0.39400791774E+02  0.25731031815E+02  0.50000000000E+02  0.47000000000E+01 0.  1.
</event>
<event>
 5    1  0.9081766E-001  0.1000000E+03  0.7546771E-02  0.1163815E+00
         11   -1    0    0    0    0  0.00000000000E+00  0.00000000000E+00  0.50000000000E+02  0.50000000000E+02  0.00000000000E+00 0. -1.
        -11   -1    0    0    0    0 -0.00000000000E+00 -0.00000000000E+00 -0.50000000000E+02  0.50000000000E+02  0.00000000000E+00 0.  1.
         23    2    1    2    0    0  0.00000000000E+00  0.00000000000E+00  0.00000000000E+00  0.10000000000E+03  0.10000000000E+03 0.  0.
          5    1    3    3  501    0 -0.27472237798E+02  0.40835312564E+02 -0.74607907205E+01  0.50000000000E+02  0.47000000000E+01 0. -1.
         -5    1    3    3    0  501  0.27472237798E+02 -0.40835312564E+02  0.74607907205E+01  0.50000000000E+02  0.47000000000E+01 0.  1.
</event>
<event>
 5    1  0.9081766E-001  0.1000000E+03  0.7546771E-02  0.1163815E+00
         11   -1    0    0    0    0  0.00000000000E+00  0.00000000000E+00  0.50000000000E+02  0.50000000000E+02  0.00000000000E+00 0. -1.
        -11   -1    0    0    0    0 -0.00000000000E+00 -0.00000000000E+00 -0.50000000000E+02  0.50000000000E+02  0.00000000000E+00 0.  1.
         23    2    1    2    0    0  0.00000000000E+00  0.00000000000E+00  0.00000000000E+00  0.10000000000E+03  0.10000000000E+03 0.  0.
          5    1    3    3  501    0 -0.29759284201E+02  0.17165619566E+02  0.36022722118E+02  0.50000000000E+02  0.47000000000E+01 0. -1.
         -5    1    3    3    0  501  0.29759284201E+02 -0.17165619566E+02 -0.36022722118E+02  0.50000000000E+02  0.47000000000E+01 0.  1.
</event>
<event>
 5    1  0.9081766E-001  0.1000000E+03  0.7546771E-02  0.1163815E+00
         11   -1    0    0    0    0  0.00000000000E+00  0.00000000000E+00  0.50000000000E+02  0.50000000000E+02  0.00000000000E+00 0.  1.
        -11   -1    0    0    0    0 -0.00000000000E+00 -0.00000000000E+00 -0.50000000000E+02  0.50000000000E+02  0.00000000000E+00 0. -1.
         23    2    1    2    0    0  0.00000000000E+00  0.00000000000E+00  0.00000000000E+00  0.10000000000E+03  0.10000000000E+03 0.  0.
          5    1    3    3  501    0 -0.28828761116E+02  0.26051302472E+02 -0.31114983079E+02  0.50000000000E+02  0.47000000000E+01 0. -1.
         -5    1    3    3    0  501  0.28828761116E+02 -0.26051302472E+02  0.31114983079E+02  0.50000000000E+02  0.47000000000E+01 0.  1.
</event>
<event>
 5    1  0.9081766E-001  0.1000000E+03  0.7546771E-02  0.1163815E+00
         11   -1    0    0    0    0  0.00000000000E+00  0.00000000000E+00  0.50000000000E+02  0.50000000000E+02  0.00000000000E+00 0.  1.
        -11   -1    0    0    0    0 -0.00000000000E+00 -0.00000000000E+00 -0.50000000000E+02  0.50000000000E+02  0.00000000000E+00 0. -1.
         23    2    1    2    0    0  0.00000000000E+00  0.00000000000E+00  0.00000000000E+00  0.10000000000E+03  0.10000000000E+03 0.  0.
          5    1    3    3  501    0 -0.45068570318E+02  0.90739462265E+01  0.19089197714E+02  0.50000000000E+02  0.47000000000E+01 0. -1.
         -5    1    3    3    0  501  0.45068570318E+02 -0.90739462265E+01 -0.19089197714E+02  0.50000000000E+02  0.47000000000E+01 0.  1.
</event>
<event>
 5    1  0.9081766E-001  0.1000000E+03  0.7546771E-02  0.1163815E+00
         11   -1    0    0    0    0  0.00000000000E+00  0.00000000000E+00  0.50000000000E+02  0.50000000000E+02  0.00000000000E+00 0. -1.
        -11   -1    0    0    0    0 -0.00000000000E+00 -0.00000000000E+00 -0.50000000000E+02  0.50000000000E+02  0.00000000000E+00 0.  1.
         23    2    1    2    0    0  0.00000000000E+00  0.00000000000E+00  0.00000000000E+00  0.10000000000E+03  0.10000000000E+03 0.  0.
          5    1    3    3  501    0 -0.87855768595E+01  0.25267352635E+02  0.41979572771E+02  0.50000000000E+02  0.47000000000E+01 0. -1.
         -5    1    3    3    0  501  0.87855768595E+01 -0.25267352635E+02 -0.41979572771E+02  0.50000000000E+02  0.47000000000E+01 0.  1.
</event>
<event>
 5    1  0.9081766E-001  0.1000000E+03  0.7546771E-02  0.1163815E+00
         11   -1    0    0    0    0  0.00000000000E+00  0.00000000000E+00  0.50000000000E+02  0.50000000000E+02  0.00000000000E+00 0.  1.
        -11   -1    0    0    0    0 -0.00000000000E+00 -0.00000000000E+00 -0.50000000000E+02  0.50000000000E+02  0.00000000000E+00 0. -1.
         23    2    1    2    0    0  0.00000000000E+00  0.00000000000E+00  0.00000000000E+00  0.10000000000E+03  0.10000000000E+03 0.  0.
          5    1    3    3  501    0 -0.47022110397E+02  0.16085174655E+02  0.28457494807E+01  0.50000000000E+02  0.47000000000E+01 0.  1.
         -5    1    3    3    0  501  0.47022110397E+02 -0.16085174655E+02 -0.28457494807E+01  0.50000000000E+02  0.47000000000E+01 0. -1.
</event>
<event>
 5    1  0.9081766E-001  0.1000000E+03  0.7546771E-02  0.1163815E+00
         11   -1    0    0    0    0  0.00000000000E+00  0.00000000000E+00  0.50000000000E+02  0.50000000000E+02  0.00000000000E+00 0. -1.
        -11   -1    0    0    0    0 -0.00000000000E+00 -0.00000000000E+00 -0.50000000000E+02  0.50000000000E+02  0.00000000000E+00 0.  1.
         23    2    1    2    0    0  0.00000000000E+00  0.00000000000E+00  0.00000000000E+00  0.10000000000E+03  0.10000000000E+03 0.  0.
          5    1    3    3  501    0 -0.17082255314E+02 -0.14724020741E+02  0.44376905780E+02  0.50000000000E+02  0.47000000000E+01 0. -1.
         -5    1    3    3    0  501  0.17082255314E+02  0.14724020741E+02 -0.44376905780E+02  0.50000000000E+02  0.47000000000E+01 0.  1.
</event>
<event>
 5    1  0.9081766E-001  0.1000000E+03  0.7546771E-02  0.1163815E+00
         11   -1    0    0    0    0  0.00000000000E+00  0.00000000000E+00  0.50000000000E+02  0.50000000000E+02  0.00000000000E+00 0. -1.
        -11   -1    0    0    0    0 -0.00000000000E+00 -0.00000000000E+00 -0.50000000000E+02  0.50000000000E+02  0.00000000000E+00 0.  1.
         23    2    1    2    0    0  0.00000000000E+00  0.00000000000E+00  0.00000000000E+00  0.10000000000E+03  0.10000000000E+03 0.  0.
          5    1    3    3  501    0 -0.24843279538E+02  0.35385434028E+02  0.24669668026E+02  0.50000000000E+02  0.47000000000E+01 0. -1.
         -5    1    3    3    0  501  0.24843279538E+02 -0.35385434028E+02 -0.24669668026E+02  0.50000000000E+02  0.47000000000E+01 0.  1.
</event>
<event>
 5    1  0.9081766E-001  0.1000000E+03  0.7546771E-02  0.1163815E+00
         11   -1    0    0    0    0  0.00000000000E+00  0.00000000000E+00  0.50000000000E+02  0.50000000000E+02  0.00000000000E+00 0. -1.
        -11   -1    0    0    0    0 -0.00000000000E+00 -0.00000000000E+00 -0.50000000000E+02  0.50000000000E+02  0.00000000000E+00 0.  1.
         23    2    1    2    0    0  0.00000000000E+00  0.00000000000E+00  0.00000000000E+00  0.10000000000E+03  0.10000000000E+03 0.  0.
          5    1    3    3  501    0 -0.47626776070E+02 -0.14212606092E+02 -0.27571777605E+01  0.50000000000E+02  0.47000000000E+01 0. -1.
         -5    1    3    3    0  501  0.47626776070E+02  0.14212606092E+02  0.27571777605E+01  0.50000000000E+02  0.47000000000E+01 0.  1.
</event>
<event>
 5    1  0.9081766E-001  0.1000000E+03  0.7546771E-02  0.1163815E+00
         11   -1    0    0    0    0  0.00000000000E+00  0.00000000000E+00  0.50000000000E+02  0.50000000000E+02  0.00000000000E+00 0. -1.
        -11   -1    0    0    0    0 -0.00000000000E+00 -0.00000000000E+00 -0.50000000000E+02  0.50000000000E+02  0.00000000000E+00 0.  1.
         23    2    1    2    0    0  0.00000000000E+00  0.00000000000E+00  0.00000000000E+00  0.10000000000E+03  0.10000000000E+03 0.  0.
          5    1    3    3  501    0 -0.16929730001E+01 -0.33713397951E+02  0.36584841683E+02  0.50000000000E+02  0.47000000000E+01 0. -1.
         -5    1    3    3    0  501  0.16929730001E+01  0.33713397951E+02 -0.36584841683E+02  0.50000000000E+02  0.47000000000E+01 0.  1.
</event>
<event>
 5    1  0.9081766E-001  0.1000000E+03  0.7546771E-02  0.1163815E+00
         11   -1    0    0    0    0  0.00000000000E+00  0.00000000000E+00  0.50000000000E+02  0.50000000000E+02  0.00000000000E+00 0.  1.
        -11   -1    0    0    0    0 -0.00000000000E+00 -0.00000000000E+00 -0.50000000000E+02  0.50000000000E+02  0.00000000000E+00 0. -1.
         23    2    1    2    0    0  0.00000000000E+00  0.00000000000E+00  0.00000000000E+00  0.10000000000E+03  0.10000000000E+03 0.  0.
          5    1    3    3  501    0 -0.10747402566E+02  0.32421986119E+02 -0.36210746391E+02  0.50000000000E+02  0.47000000000E+01 0. -1.
         -5    1    3    3    0  501  0.10747402566E+02 -0.32421986119E+02  0.36210746391E+02  0.50000000000E+02  0.47000000000E+01 0.  1.
</event>
<event>
 5    1  0.9081766E-001  0.1000000E+03  0.7546771E-02  0.1163815E+00
         11   -1    0    0    0    0  0.00000000000E+00  0.00000000000E+00  0.50000000000E+02  0.50000000000E+02  0.00000000000E+00 0.  1.
        -11   -1    0    0    0    0 -0.00000000000E+00 -0.00000000000E+00 -0.50000000000E+02  0.50000000000E+02  0.00000000000E+00 0. -1.
         23    2    1    2    0    0  0.00000000000E+00  0.00000000000E+00  0.00000000000E+00  0.10000000000E+03  0.10000000000E+03 0.  0.
          5    1    3    3  501    0 -0.91977913528E+01 -0.40025981094E+02 -0.28128837012E+02  0.50000000000E+02  0.47000000000E+01 0. -1.
         -5    1    3    3    0  501  0.91977913528E+01  0.40025981094E+02  0.28128837012E+02  0.50000000000E+02  0.47000000000E+01 0.  1.
</event>
<event>
 5    1  0.9081766E-001  0.1000000E+03  0.7546771E-02  0.1163815E+00
         11   -1    0    0    0    0  0.00000000000E+00  0.00000000000E+00  0.50000000000E+02  0.50000000000E+02  0.00000000000E+00 0. -1.
        -11   -1    0    0    0    0 -0.00000000000E+00 -0.00000000000E+00 -0.50000000000E+02  0.50000000000E+02  0.00000000000E+00 0.  1.
         23    2    1    2    0    0  0.00000000000E+00  0.00000000000E+00  0.00000000000E+00  0.10000000000E+03  0.10000000000E+03 0.  0.
          5    1    3    3  501    0 -0.42433896450E+02  0.20572133324E+02  0.15939314998E+02  0.50000000000E+02  0.47000000000E+01 0. -1.
         -5    1    3    3    0  501  0.42433896450E+02 -0.20572133324E+02 -0.15939314998E+02  0.50000000000E+02  0.47000000000E+01 0.  1.
</event>
<event>
 5    1  0.9081766E-001  0.1000000E+03  0.7546771E-02  0.1163815E+00
         11   -1    0    0    0    0  0.00000000000E+00  0.00000000000E+00  0.50000000000E+02  0.50000000000E+02  0.00000000000E+00 0.  1.
        -11   -1    0    0    0    0 -0.00000000000E+00 -0.00000000000E+00 -0.50000000000E+02  0.50000000000E+02  0.00000000000E+00 0. -1.
         23    2    1    2    0    0  0.00000000000E+00  0.00000000000E+00  0.00000000000E+00  0.10000000000E+03  0.10000000000E+03 0.  0.
          5    1    3    3  501    0  0.27582226048E+01 -0.29657174476E+02 -0.39884260181E+02  0.50000000000E+02  0.47000000000E+01 0. -1.
         -5    1    3    3    0  501 -0.27582226048E+01  0.29657174476E+02  0.39884260181E+02  0.50000000000E+02  0.47000000000E+01 0.  1.
</event>
<event>
 5    1  0.9081766E-001  0.1000000E+03  0.7546771E-02  0.1163815E+00
         11   -1    0    0    0    0  0.00000000000E+00  0.00000000000E+00  0.50000000000E+02  0.50000000000E+02  0.00000000000E+00 0. -1.
        -11   -1    0    0    0    0 -0.00000000000E+00 -0.00000000000E+00 -0.50000000000E+02  0.50000000000E+02  0.00000000000E+00 0.  1.
         23    2    1    2    0    0  0.00000000000E+00  0.00000000000E+00  0.00000000000E+00  0.10000000000E+03  0.10000000000E+03 0.  0.
          5    1    3    3  501    0  0.19661896224E+02  0.13331162377E+02  0.43744713355E+02  0.50000000000E+02  0.47000000000E+01 0. -1.
         -5    1    3    3    0  501 -0.19661896224E+02 -0.13331162377E+02 -0.43744713355E+02  0.50000000000E+02  0.47000000000E+01 0.  1.
</event>
<event>
 5    1  0.9081766E-001  0.1000000E+03  0.7546771E-02  0.1163815E+00
         11   -1    0    0    0    0  0.00000000000E+00  0.00000000000E+00  0.50000000000E+02  0.50000000000E+02  0.00000000000E+00 0. -1.
        -11   -1    0    0    0    0 -0.00000000000E+00 -0.00000000000E+00 -0.50000000000E+02  0.50000000000E+02  0.00000000000E+00 0.  1.
         23    2    1    2    0    0  0.00000000000E+00  0.00000000000E+00  0.00000000000E+00  0.10000000000E+03  0.10000000000E+03 0.  0.
          5    1    3    3  501    0  0.41012904952E+02  0.20716521314E+02 -0.19148821688E+02  0.50000000000E+02  0.47000000000E+01 0. -1.
         -5    1    3    3    0  501 -0.41012904952E+02 -0.20716521314E+02  0.19148821688E+02  0.50000000000E+02  0.47000000000E+01 0.  1.
</event>
<event>
 5    1  0.9081766E-001  0.1000000E+03  0.7546771E-02  0.1163815E+00
         11   -1    0    0    0    0  0.00000000000E+00  0.00000000000E+00  0.50000000000E+02  0.50000000000E+02  0.00000000000E+00 0. -1.
        -11   -1    0    0    0    0 -0.00000000000E+00 -0.00000000000E+00 -0.50000000000E+02  0.50000000000E+02  0.00000000000E+00 0.  1.
         23    2    1    2    0    0  0.00000000000E+00  0.00000000000E+00  0.00000000000E+00  0.10000000000E+03  0.10000000000E+03 0.  0.
          5    1    3    3  501    0 -0.22199944293E+02  0.17855159721E+02  0.40819918480E+02  0.50000000000E+02  0.47000000000E+01 0. -1.
         -5    1    3    3    0  501  0.22199944293E+02 -0.17855159721E+02 -0.40819918480E+02  0.50000000000E+02  0.47000000000E+01 0. -1.
</event>
<event>
 5    1  0.9081766E-001  0.1000000E+03  0.7546771E-02  0.1163815E+00
         11   -1    0    0    0    0  0.00000000000E+00  0.00000000000E+00  0.50000000000E+02  0.50000000000E+02  0.00000000000E+00 0.  1.
        -11   -1    0    0    0    0 -0.00000000000E+00 -0.00000000000E+00 -0.50000000000E+02  0.50000000000E+02  0.00000000000E+00 0. -1.
         23    2    1    2    0    0  0.00000000000E+00  0.00000000000E+00  0.00000000000E+00  0.10000000000E+03  0.10000000000E+03 0.  0.
          5    1    3    3  501    0 -0.82080815885E+01 -0.43868140322E+02 -0.22048212203E+02  0.50000000000E+02  0.47000000000E+01 0. -1.
         -5    1    3    3    0  501  0.82080815885E+01  0.43868140322E+02  0.22048212203E+02  0.50000000000E+02  0.47000000000E+01 0.  1.
</event>
<event>
 5    1  0.9081766E-001  0.1000000E+03  0.7546771E-02  0.1163815E+00
         11   -1    0    0    0    0  0.00000000000E+00  0.00000000000E+00  0.50000000000E+02  0.50000000000E+02  0.00000000000E+00 0. -1.
        -11   -1    0    0    0    0 -0.00000000000E+00 -0.00000000000E+00 -0.50000000000E+02  0.50000000000E+02  0.00000000000E+00 0.  1.
         23    2    1    2    0    0  0.00000000000E+00  0.00000000000E+00  0.00000000000E+00  0.10000000000E+03  0.10000000000E+03 0.  0.
          5    1    3    3  501    0 -0.54854699183E+01 -0.41619671791E+02  0.26751122216E+02  0.50000000000E+02  0.47000000000E+01 0. -1.
         -5    1    3    3    0  501  0.54854699183E+01  0.41619671791E+02 -0.26751122216E+02  0.50000000000E+02  0.47000000000E+01 0.  1.
</event>
<event>
 5    1  0.9081766E-001  0.1000000E+03  0.7546771E-02  0.1163815E+00
         11   -1    0    0    0    0  0.00000000000E+00  0.00000000000E+00  0.50000000000E+02  0.50000000000E+02  0.00000000000E+00 0. -1.
        -11   -1    0    0    0    0 -0.00000000000E+00 -0.00000000000E+00 -0.50000000000E+02  0.50000000000E+02  0.00000000000E+00 0.  1.
         23    2    1    2    0    0  0.00000000000E+00  0.00000000000E+00  0.00000000000E+00  0.10000000000E+03  0.10000000000E+03 0.  0.
          5    1    3    3  501    0  0.41692373952E+02  0.50624451462E+01  0.26721294943E+02  0.50000000000E+02  0.47000000000E+01 0. -1.
         -5    1    3    3    0  501 -0.41692373952E+02 -0.50624451462E+01 -0.26721294943E+02  0.50000000000E+02  0.47000000000E+01 0.  1.
</event>
<event>
 5    1  0.9081766E-001  0.1000000E+03  0.7546771E-02  0.1163815E+00
         11   -1    0    0    0    0  0.00000000000E+00  0.00000000000E+00  0.50000000000E+02  0.50000000000E+02  0.00000000000E+00 0. -1.
        -11   -1    0    0    0    0 -0.00000000000E+00 -0.00000000000E+00 -0.50000000000E+02  0.50000000000E+02  0.00000000000E+00 0.  1.
         23    2    1    2    0    0  0.00000000000E+00  0.00000000000E+00  0.00000000000E+00  0.10000000000E+03  0.10000000000E+03 0.  0.
          5    1    3    3  501    0 -0.29034276483E+02 -0.13397987012E+02  0.38149898206E+02  0.50000000000E+02  0.47000000000E+01 0. -1.
         -5    1    3    3    0  501  0.29034276483E+02  0.13397987012E+02 -0.38149898206E+02  0.50000000000E+02  0.47000000000E+01 0.  1.
</event>
<event>
 5    1  0.9081766E-001  0.1000000E+03  0.7546771E-02  0.1163815E+00
         11   -1    0    0    0    0  0.00000000000E+00  0.00000000000E+00  0.50000000000E+02  0.50000000000E+02  0.00000000000E+00 0. -1.
        -11   -1    0    0    0    0 -0.00000000000E+00 -0.00000000000E+00 -0.50000000000E+02  0.50000000000E+02  0.00000000000E+00 0.  1.
         23    2    1    2    0    0  0.00000000000E+00  0.00000000000E+00  0.00000000000E+00  0.10000000000E+03  0.10000000000E+03 0.  0.
          5    1    3    3  501    0 -0.34056536679E+02  0.34087772737E+02  0.12493440650E+02  0.50000000000E+02  0.47000000000E+01 0. -1.
         -5    1    3    3    0  501  0.34056536679E+02 -0.34087772737E+02 -0.12493440650E+02  0.50000000000E+02  0.47000000000E+01 0.  1.
</event>
<event>
 5    1  0.9081766E-001  0.1000000E+03  0.7546771E-02  0.1163815E+00
         11   -1    0    0    0    0  0.00000000000E+00  0.00000000000E+00  0.50000000000E+02  0.50000000000E+02  0.00000000000E+00 0. -1.
        -11   -1    0    0    0    0 -0.00000000000E+00 -0.00000000000E+00 -0.50000000000E+02  0.50000000000E+02  0.00000000000E+00 0.  1.
         23    2    1    2    0    0  0.00000000000E+00  0.00000000000E+00  0.00000000000E+00  0.10000000000E+03  0.10000000000E+03 0.  0.
          5    1    3    3  501    0  0.57147902278E+01  0.44104626062E+02 -0.22361420631E+02  0.50000000000E+02  0.47000000000E+01 0. -1.
         -5    1    3    3    0  501 -0.57147902278E+01 -0.44104626062E+02  0.22361420631E+02  0.50000000000E+02  0.47000000000E+01 0.  1.
</event>
<event>
 5    1  0.9081766E-001  0.1000000E+03  0.7546771E-02  0.1163815E+00
         11   -1    0    0    0    0  0.00000000000E+00  0.00000000000E+00  0.50000000000E+02  0.50000000000E+02  0.00000000000E+00 0. -1.
        -11   -1    0    0    0    0 -0.00000000000E+00 -0.00000000000E+00 -0.50000000000E+02  0.50000000000E+02  0.00000000000E+00 0.  1.
         23    2    1    2    0    0  0.00000000000E+00  0.00000000000E+00  0.00000000000E+00  0.10000000000E+03  0.10000000000E+03 0.  0.
          5    1    3    3  501    0 -0.44914628167E+02 -0.19502153345E+02  0.89583587534E+01  0.50000000000E+02  0.47000000000E+01 0. -1.
         -5    1    3    3    0  501  0.44914628167E+02  0.19502153345E+02 -0.89583587534E+01  0.50000000000E+02  0.47000000000E+01 0.  1.
</event>
<event>
 5    1  0.9081766E-001  0.1000000E+03  0.7546771E-02  0.1163815E+00
         11   -1    0    0    0    0  0.00000000000E+00  0.00000000000E+00  0.50000000000E+02  0.50000000000E+02  0.00000000000E+00 0. -1.
        -11   -1    0    0    0    0 -0.00000000000E+00 -0.00000000000E+00 -0.50000000000E+02  0.50000000000E+02  0.00000000000E+00 0.  1.
         23    2    1    2    0    0  0.00000000000E+00  0.00000000000E+00  0.00000000000E+00  0.10000000000E+03  0.10000000000E+03 0.  0.
          5    1    3    3  501    0 -0.43498616891E+02 -0.77096941310E+01  0.22942121632E+02  0.50000000000E+02  0.47000000000E+01 0. -1.
         -5    1    3    3    0  501  0.43498616891E+02  0.77096941310E+01 -0.22942121632E+02  0.50000000000E+02  0.47000000000E+01 0.  1.
</event>
<event>
 5    1  0.9081766E-001  0.1000000E+03  0.7546771E-02  0.1163815E+00
         11   -1    0    0    0    0  0.00000000000E+00  0.00000000000E+00  0.50000000000E+02  0.50000000000E+02  0.00000000000E+00 0. -1.
        -11   -1    0    0    0    0 -0.00000000000E+00 -0.00000000000E+00 -0.50000000000E+02  0.50000000000E+02  0.00000000000E+00 0.  1.
         23    2    1    2    0    0  0.00000000000E+00  0.00000000000E+00  0.00000000000E+00  0.10000000000E+03  0.10000000000E+03 0.  0.
          5    1    3    3  501    0 -0.18330435134E+02 -0.43764799628E+02  0.15051493658E+02  0.50000000000E+02  0.47000000000E+01 0. -1.
         -5    1    3    3    0  501  0.18330435134E+02  0.43764799628E+02 -0.15051493658E+02  0.50000000000E+02  0.47000000000E+01 0.  1.
</event>
<event>
 5    1  0.9081766E-001  0.1000000E+03  0.7546771E-02  0.1163815E+00
         11   -1    0    0    0    0  0.00000000000E+00  0.00000000000E+00  0.50000000000E+02  0.50000000000E+02  0.00000000000E+00 0. -1.
        -11   -1    0    0    0    0 -0.00000000000E+00 -0.00000000000E+00 -0.50000000000E+02  0.50000000000E+02  0.00000000000E+00 0.  1.
         23    2    1    2    0    0  0.00000000000E+00  0.00000000000E+00  0.00000000000E+00  0.10000000000E+03  0.10000000000E+03 0.  0.
          5    1    3    3  501    0  0.17209783875E+02  0.33394581260E+02  0.32657851758E+02  0.50000000000E+02  0.47000000000E+01 0. -1.
         -5    1    3    3    0  501 -0.17209783875E+02 -0.33394581260E+02 -0.32657851758E+02  0.50000000000E+02  0.47000000000E+01 0.  1.
</event>
<event>
 5    1  0.9081766E-001  0.1000000E+03  0.7546771E-02  0.1163815E+00
         11   -1    0    0    0    0  0.00000000000E+00  0.00000000000E+00  0.50000000000E+02  0.50000000000E+02  0.00000000000E+00 0. -1.
        -11   -1    0    0    0    0 -0.00000000000E+00 -0.00000000000E+00 -0.50000000000E+02  0.50000000000E+02  0.00000000000E+00 0.  1.
         23    2    1    2    0    0  0.00000000000E+00  0.00000000000E+00  0.00000000000E+00  0.10000000000E+03  0.10000000000E+03 0.  0.
          5    1    3    3  501    0 -0.68123886441E+01  0.39098331903E+01  0.49155005497E+02  0.50000000000E+02  0.47000000000E+01 0. -1.
         -5    1    3    3    0  501  0.68123886441E+01 -0.39098331903E+01 -0.49155005497E+02  0.50000000000E+02  0.47000000000E+01 0.  1.
</event>
<event>
 5    1  0.9081766E-001  0.1000000E+03  0.7546771E-02  0.1163815E+00
         11   -1    0    0    0    0  0.00000000000E+00  0.00000000000E+00  0.50000000000E+02  0.50000000000E+02  0.00000000000E+00 0.  1.
        -11   -1    0    0    0    0 -0.00000000000E+00 -0.00000000000E+00 -0.50000000000E+02  0.50000000000E+02  0.00000000000E+00 0. -1.
         23    2    1    2    0    0  0.00000000000E+00  0.00000000000E+00  0.00000000000E+00  0.10000000000E+03  0.10000000000E+03 0.  0.
          5    1    3    3  501    0 -0.45953911572E+01  0.25668292499E+02 -0.42402018116E+02  0.50000000000E+02  0.47000000000E+01 0. -1.
         -5    1    3    3    0  501  0.45953911572E+01 -0.25668292499E+02  0.42402018116E+02  0.50000000000E+02  0.47000000000E+01 0.  1.
</event>
<event>
 5    1  0.9081766E-001  0.1000000E+03  0.7546771E-02  0.1163815E+00
         11   -1    0    0    0    0  0.00000000000E+00  0.00000000000E+00  0.50000000000E+02  0.50000000000E+02  0.00000000000E+00 0. -1.
        -11   -1    0    0    0    0 -0.00000000000E+00 -0.00000000000E+00 -0.50000000000E+02  0.50000000000E+02  0.00000000000E+00 0.  1.
         23    2    1    2    0    0  0.00000000000E+00  0.00000000000E+00  0.00000000000E+00  0.10000000000E+03  0.10000000000E+03 0.  0.
          5    1    3    3  501    0 -0.45644736115E+01  0.98398688953E+01  0.48582430577E+02  0.50000000000E+02  0.47000000000E+01 0. -1.
         -5    1    3    3    0  501  0.45644736115E+01 -0.98398688953E+01 -0.48582430577E+02  0.50000000000E+02  0.47000000000E+01 0.  1.
</event>
<event>
 5    1  0.9081766E-001  0.1000000E+03  0.7546771E-02  0.1163815E+00
         11   -1    0    0    0    0  0.00000000000E+00  0.00000000000E+00  0.50000000000E+02  0.50000000000E+02  0.00000000000E+00 0.  1.
        -11   -1    0    0    0    0 -0.00000000000E+00 -0.00000000000E+00 -0.50000000000E+02  0.50000000000E+02  0.00000000000E+00 0. -1.
         23    2    1    2    0    0  0.00000000000E+00  0.00000000000E+00  0.00000000000E+00  0.10000000000E+03  0.10000000000E+03 0.  0.
          5    1    3    3  501    0 -0.28306893288E+01 -0.10630463714E+02 -0.48547816008E+02  0.50000000000E+02  0.47000000000E+01 0. -1.
         -5    1    3    3    0  501  0.28306893288E+01  0.10630463714E+02  0.48547816008E+02  0.50000000000E+02  0.47000000000E+01 0.  1.
</event>
<event>
 5    1  0.9081766E-001  0.1000000E+03  0.7546771E-02  0.1163815E+00
         11   -1    0    0    0    0  0.00000000000E+00  0.00000000000E+00  0.50000000000E+02  0.50000000000E+02  0.00000000000E+00 0. -1.
        -11   -1    0    0    0    0 -0.00000000000E+00 -0.00000000000E+00 -0.50000000000E+02  0.50000000000E+02  0.00000000000E+00 0.  1.
         23    2    1    2    0    0  0.00000000000E+00  0.00000000000E+00  0.00000000000E+00  0.10000000000E+03  0.10000000000E+03 0.  0.
          5    1    3    3  501    0 -0.41001619603E+01 -0.20711854537E+02  0.45079016777E+02  0.50000000000E+02  0.47000000000E+01 0. -1.
         -5    1    3    3    0  501  0.41001619603E+01  0.20711854537E+02 -0.45079016777E+02  0.50000000000E+02  0.47000000000E+01 0.  1.
</event>
<event>
 5    1  0.9081766E-001  0.1000000E+03  0.7546771E-02  0.1163815E+00
         11   -1    0    0    0    0  0.00000000000E+00  0.00000000000E+00  0.50000000000E+02  0.50000000000E+02  0.00000000000E+00 0. -1.
        -11   -1    0    0    0    0 -0.00000000000E+00 -0.00000000000E+00 -0.50000000000E+02  0.50000000000E+02  0.00000000000E+00 0.  1.
         23    2    1    2    0    0  0.00000000000E+00  0.00000000000E+00  0.00000000000E+00  0.10000000000E+03  0.10000000000E+03 0.  0.
          5    1    3    3  501    0  0.21213519432E+02  0.81900279932E+01  0.44281147622E+02  0.50000000000E+02  0.47000000000E+01 0. -1.
         -5    1    3    3    0  501 -0.21213519432E+02 -0.81900279932E+01 -0.44281147622E+02  0.50000000000E+02  0.47000000000E+01 0.  1.
</event>
<event>
 5    1  0.9081766E-001  0.1000000E+03  0.7546771E-02  0.1163815E+00
         11   -1    0    0    0    0  0.00000000000E+00  0.00000000000E+00  0.50000000000E+02  0.50000000000E+02  0.00000000000E+00 0. -1.
        -11   -1    0    0    0    0 -0.00000000000E+00 -0.00000000000E+00 -0.50000000000E+02  0.50000000000E+02  0.00000000000E+00 0.  1.
         23    2    1    2    0    0  0.00000000000E+00  0.00000000000E+00  0.00000000000E+00  0.10000000000E+03  0.10000000000E+03 0.  0.
          5    1    3    3  501    0  0.11929240291E+02 -0.20213362167E+01  0.48285789069E+02  0.50000000000E+02  0.47000000000E+01 0. -1.
         -5    1    3    3    0  501 -0.11929240291E+02  0.20213362167E+01 -0.48285789069E+02  0.50000000000E+02  0.47000000000E+01 0.  1.
</event>
<event>
 5    1  0.9081766E-001  0.1000000E+03  0.7546771E-02  0.1163815E+00
         11   -1    0    0    0    0  0.00000000000E+00  0.00000000000E+00  0.50000000000E+02  0.50000000000E+02  0.00000000000E+00 0.  1.
        -11   -1    0    0    0    0 -0.00000000000E+00 -0.00000000000E+00 -0.50000000000E+02  0.50000000000E+02  0.00000000000E+00 0. -1.
         23    2    1    2    0    0  0.00000000000E+00  0.00000000000E+00  0.00000000000E+00  0.10000000000E+03  0.10000000000E+03 0.  0.
          5    1    3    3  501    0  0.40448946012E+02  0.13743775037E+02 -0.25551935626E+02  0.50000000000E+02  0.47000000000E+01 0. -1.
         -5    1    3    3    0  501 -0.40448946012E+02 -0.13743775037E+02  0.25551935626E+02  0.50000000000E+02  0.47000000000E+01 0.  1.
</event>
<event>
 5    1  0.9081766E-001  0.1000000E+03  0.7546771E-02  0.1163815E+00
         11   -1    0    0    0    0  0.00000000000E+00  0.00000000000E+00  0.50000000000E+02  0.50000000000E+02  0.00000000000E+00 0.  1.
        -11   -1    0    0    0    0 -0.00000000000E+00 -0.00000000000E+00 -0.50000000000E+02  0.50000000000E+02  0.00000000000E+00 0. -1.
         23    2    1    2    0    0  0.00000000000E+00  0.00000000000E+00  0.00000000000E+00  0.10000000000E+03  0.10000000000E+03 0.  0.
          5    1    3    3  501    0  0.67884455200E+01 -0.13071595697E+02 -0.47549557236E+02  0.50000000000E+02  0.47000000000E+01 0. -1.
         -5    1    3    3    0  501 -0.67884455200E+01  0.13071595697E+02  0.47549557236E+02  0.50000000000E+02  0.47000000000E+01 0.  1.
</event>
<event>
 5    1  0.9081766E-001  0.1000000E+03  0.7546771E-02  0.1163815E+00
         11   -1    0    0    0    0  0.00000000000E+00  0.00000000000E+00  0.50000000000E+02  0.50000000000E+02  0.00000000000E+00 0. -1.
        -11   -1    0    0    0    0 -0.00000000000E+00 -0.00000000000E+00 -0.50000000000E+02  0.50000000000E+02  0.00000000000E+00 0.  1.
         23    2    1    2    0    0  0.00000000000E+00  0.00000000000E+00  0.00000000000E+00  0.10000000000E+03  0.10000000000E+03 0.  0.
          5    1    3    3  501    0  0.18060134118E+02 -0.12400733200E+02  0.44698583554E+02  0.50000000000E+02  0.47000000000E+01 0. -1.
         -5    1    3    3    0  501 -0.18060134118E+02  0.12400733200E+02 -0.44698583554E+02  0.50000000000E+02  0.47000000000E+01 0.  1.
</event>
<event>
 5    1  0.9081766E-001  0.1000000E+03  0.7546771E-02  0.1163815E+00
         11   -1    0    0    0    0  0.00000000000E+00  0.00000000000E+00  0.50000000000E+02  0.50000000000E+02  0.00000000000E+00 0. -1.
        -11   -1    0    0    0    0 -0.00000000000E+00 -0.00000000000E+00 -0.50000000000E+02  0.50000000000E+02  0.00000000000E+00 0.  1.
         23    2    1    2    0    0  0.00000000000E+00  0.00000000000E+00  0.00000000000E+00  0.10000000000E+03  0.10000000000E+03 0.  0.
          5    1    3    3  501    0  0.39514737132E+02  0.24412299301E+02  0.17903496649E+02  0.50000000000E+02  0.47000000000E+01 0. -1.
         -5    1    3    3    0  501 -0.39514737132E+02 -0.24412299301E+02 -0.17903496649E+02  0.50000000000E+02  0.47000000000E+01 0.  1.
</event>
<event>
 5    1  0.9081766E-001  0.1000000E+03  0.7546771E-02  0.1163815E+00
         11   -1    0    0    0    0  0.00000000000E+00  0.00000000000E+00  0.50000000000E+02  0.50000000000E+02  0.00000000000E+00 0. -1.
        -11   -1    0    0    0    0 -0.00000000000E+00 -0.00000000000E+00 -0.50000000000E+02  0.50000000000E+02  0.00000000000E+00 0.  1.
         23    2    1    2    0    0  0.00000000000E+00  0.00000000000E+00  0.00000000000E+00  0.10000000000E+03  0.10000000000E+03 0.  0.
          5    1    3    3  501    0  0.38336844184E+02  0.25284641460E+02  0.19206334481E+02  0.50000000000E+02  0.47000000000E+01 0. -1.
         -5    1    3    3    0  501 -0.38336844184E+02 -0.25284641460E+02 -0.19206334481E+02  0.50000000000E+02  0.47000000000E+01 0.  1.
</event>
<event>
 5    1  0.9081766E-001  0.1000000E+03  0.7546771E-02  0.1163815E+00
         11   -1    0    0    0    0  0.00000000000E+00  0.00000000000E+00  0.50000000000E+02  0.50000000000E+02  0.00000000000E+00 0. -1.
        -11   -1    0    0    0    0 -0.00000000000E+00 -0.00000000000E+00 -0.50000000000E+02  0.50000000000E+02  0.00000000000E+00 0.  1.
         23    2    1    2    0    0  0.00000000000E+00  0.00000000000E+00  0.00000000000E+00  0.10000000000E+03  0.10000000000E+03 0.  0.
          5    1    3    3  501    0  0.40411735678E+02 -0.17503102678E+02  0.23204374936E+02  0.50000000000E+02  0.47000000000E+01 0. -1.
         -5    1    3    3    0  501 -0.40411735678E+02  0.17503102678E+02 -0.23204374936E+02  0.50000000000E+02  0.47000000000E+01 0.  1.
</event>
<event>
 5    1  0.9081766E-001  0.1000000E+03  0.7546771E-02  0.1163815E+00
         11   -1    0    0    0    0  0.00000000000E+00  0.00000000000E+00  0.50000000000E+02  0.50000000000E+02  0.00000000000E+00 0. -1.
        -11   -1    0    0    0    0 -0.00000000000E+00 -0.00000000000E+00 -0.50000000000E+02  0.50000000000E+02  0.00000000000E+00 0.  1.
         23    2    1    2    0    0  0.00000000000E+00  0.00000000000E+00  0.00000000000E+00  0.10000000000E+03  0.10000000000E+03 0.  0.
          5    1    3    3  501    0  0.38949503926E+02  0.30097464045E+02  0.74154434787E+01  0.50000000000E+02  0.47000000000E+01 0. -1.
         -5    1    3    3    0  501 -0.38949503926E+02 -0.30097464045E+02 -0.74154434787E+01  0.50000000000E+02  0.47000000000E+01 0.  1.
</event>
<event>
 5    1  0.9081766E-001  0.1000000E+03  0.7546771E-02  0.1163815E+00
         11   -1    0    0    0    0  0.00000000000E+00  0.00000000000E+00  0.50000000000E+02  0.50000000000E+02  0.00000000000E+00 0.  1.
        -11   -1    0    0    0    0 -0.00000000000E+00 -0.00000000000E+00 -0.50000000000E+02  0.50000000000E+02  0.00000000000E+00 0. -1.
         23    2    1    2    0    0  0.00000000000E+00  0.00000000000E+00  0.00000000000E+00  0.10000000000E+03  0.10000000000E+03 0.  0.
          5    1    3    3  501    0 -0.24041718923E+02 -0.37342203696E+02 -0.22482561561E+02  0.50000000000E+02  0.47000000000E+01 0. -1.
         -5    1    3    3    0  501  0.24041718923E+02  0.37342203696E+02  0.22482561561E+02  0.50000000000E+02  0.47000000000E+01 0.  1.
</event>
<event>
 5    1  0.9081766E-001  0.1000000E+03  0.7546771E-02  0.1163815E+00
         11   -1    0    0    0    0  0.00000000000E+00  0.00000000000E+00  0.50000000000E+02  0.50000000000E+02  0.00000000000E+00 0. -1.
        -11   -1    0    0    0    0 -0.00000000000E+00 -0.00000000000E+00 -0.50000000000E+02  0.50000000000E+02  0.00000000000E+00 0.  1.
         23    2    1    2    0    0  0.00000000000E+00  0.00000000000E+00  0.00000000000E+00  0.10000000000E+03  0.10000000000E+03 0.  0.
          5    1    3    3  501    0  0.33118377110E+02  0.20117488024E+02  0.31246916219E+02  0.50000000000E+02  0.47000000000E+01 0. -1.
         -5    1    3    3    0  501 -0.33118377110E+02 -0.20117488024E+02 -0.31246916219E+02  0.50000000000E+02  0.47000000000E+01 0.  1.
</event>
<event>
 5    1  0.9081766E-001  0.1000000E+03  0.7546771E-02  0.1163815E+00
         11   -1    0    0    0    0  0.00000000000E+00  0.00000000000E+00  0.50000000000E+02  0.50000000000E+02  0.00000000000E+00 0. -1.
        -11   -1    0    0    0    0 -0.00000000000E+00 -0.00000000000E+00 -0.50000000000E+02  0.50000000000E+02  0.00000000000E+00 0.  1.
         23    2    1    2    0    0  0.00000000000E+00  0.00000000000E+00  0.00000000000E+00  0.10000000000E+03  0.10000000000E+03 0.  0.
          5    1    3    3  501    0 -0.29461731460E+02 -0.15193167003E+01  0.40094987918E+02  0.50000000000E+02  0.47000000000E+01 0. -1.
         -5    1    3    3    0  501  0.29461731460E+02  0.15193167003E+01 -0.40094987918E+02  0.50000000000E+02  0.47000000000E+01 0.  1.
</event>
<event>
 5    1  0.9081766E-001  0.1000000E+03  0.7546771E-02  0.1163815E+00
         11   -1    0    0    0    0  0.00000000000E+00  0.00000000000E+00  0.50000000000E+02  0.50000000000E+02  0.00000000000E+00 0.  1.
        -11   -1    0    0    0    0 -0.00000000000E+00 -0.00000000000E+00 -0.50000000000E+02  0.50000000000E+02  0.00000000000E+00 0. -1.
         23    2    1    2    0    0  0.00000000000E+00  0.00000000000E+00  0.00000000000E+00  0.10000000000E+03  0.10000000000E+03 0.  0.
          5    1    3    3  501    0 -0.14851544011E+02 -0.17223069738E+02 -0.44279877024E+02  0.50000000000E+02  0.47000000000E+01 0. -1.
         -5    1    3    3    0  501  0.14851544011E+02  0.17223069738E+02  0.44279877024E+02  0.50000000000E+02  0.47000000000E+01 0.  1.
</event>
<event>
 5    1  0.9081766E-001  0.1000000E+03  0.7546771E-02  0.1163815E+00
         11   -1    0    0    0    0  0.00000000000E+00  0.00000000000E+00  0.50000000000E+02  0.50000000000E+02  0.00000000000E+00 0. -1.
        -11   -1    0    0    0    0 -0.00000000000E+00 -0.00000000000E+00 -0.50000000000E+02  0.50000000000E+02  0.00000000000E+00 0.  1.
         23    2    1    2    0    0  0.00000000000E+00  0.00000000000E+00  0.00000000000E+00  0.10000000000E+03  0.10000000000E+03 0.  0.
          5    1    3    3  501    0  0.22095801625E+02  0.33972261961E+02  0.28906244443E+02  0.50000000000E+02  0.47000000000E+01 0. -1.
         -5    1    3    3    0  501 -0.22095801625E+02 -0.33972261961E+02 -0.28906244443E+02  0.50000000000E+02  0.47000000000E+01 0.  1.
</event>
<event>
 5    1  0.9081766E-001  0.1000000E+03  0.7546771E-02  0.1163815E+00
         11   -1    0    0    0    0  0.00000000000E+00  0.00000000000E+00  0.50000000000E+02  0.50000000000E+02  0.00000000000E+00 0.  1.
        -11   -1    0    0    0    0 -0.00000000000E+00 -0.00000000000E+00 -0.50000000000E+02  0.50000000000E+02  0.00000000000E+00 0. -1.
         23    2    1    2    0    0  0.00000000000E+00  0.00000000000E+00  0.00000000000E+00  0.10000000000E+03  0.10000000000E+03 0.  0.
          5    1    3    3  501    0  0.21839798904E+02 -0.19349439106E+02 -0.40330291223E+02  0.50000000000E+02  0.47000000000E+01 0. -1.
         -5    1    3    3    0  501 -0.21839798904E+02  0.19349439106E+02  0.40330291223E+02  0.50000000000E+02  0.47000000000E+01 0.  1.
</event>
<event>
 5    1  0.9081766E-001  0.1000000E+03  0.7546771E-02  0.1163815E+00
         11   -1    0    0    0    0  0.00000000000E+00  0.00000000000E+00  0.50000000000E+02  0.50000000000E+02  0.00000000000E+00 0.  1.
        -11   -1    0    0    0    0 -0.00000000000E+00 -0.00000000000E+00 -0.50000000000E+02  0.50000000000E+02  0.00000000000E+00 0. -1.
         23    2    1    2    0    0  0.00000000000E+00  0.00000000000E+00  0.00000000000E+00  0.10000000000E+03  0.10000000000E+03 0.  0.
          5    1    3    3  501    0 -0.94685728815E+01  0.20705021460E+02 -0.44266897496E+02  0.50000000000E+02  0.47000000000E+01 0. -1.
         -5    1    3    3    0  501  0.94685728815E+01 -0.20705021460E+02  0.44266897496E+02  0.50000000000E+02  0.47000000000E+01 0.  1.
</event>
<event>
 5    1  0.9081766E-001  0.1000000E+03  0.7546771E-02  0.1163815E+00
         11   -1    0    0    0    0  0.00000000000E+00  0.00000000000E+00  0.50000000000E+02  0.50000000000E+02  0.00000000000E+00 0. -1.
        -11   -1    0    0    0    0 -0.00000000000E+00 -0.00000000000E+00 -0.50000000000E+02  0.50000000000E+02  0.00000000000E+00 0.  1.
         23    2    1    2    0    0  0.00000000000E+00  0.00000000000E+00  0.00000000000E+00  0.10000000000E+03  0.10000000000E+03 0.  0.
          5    1    3    3  501    0 -0.13352379548E+02 -0.11611153199E+02  0.46527465886E+02  0.50000000000E+02  0.47000000000E+01 0. -1.
         -5    1    3    3    0  501  0.13352379548E+02  0.11611153199E+02 -0.46527465886E+02  0.50000000000E+02  0.47000000000E+01 0.  1.
</event>
<event>
 5    1  0.9081766E-001  0.1000000E+03  0.7546771E-02  0.1163815E+00
         11   -1    0    0    0    0  0.00000000000E+00  0.00000000000E+00  0.50000000000E+02  0.50000000000E+02  0.00000000000E+00 0.  1.
        -11   -1    0    0    0    0 -0.00000000000E+00 -0.00000000000E+00 -0.50000000000E+02  0.50000000000E+02  0.00000000000E+00 0. -1.
         23    2    1    2    0    0  0.00000000000E+00  0.00000000000E+00  0.00000000000E+00  0.10000000000E+03  0.10000000000E+03 0.  0.
          5    1    3    3  501    0 -0.37568389708E+01  0.74583700286E+01 -0.49073097288E+02  0.50000000000E+02  0.47000000000E+01 0. -1.
         -5    1    3    3    0  501  0.37568389708E+01 -0.74583700286E+01  0.49073097288E+02  0.50000000000E+02  0.47000000000E+01 0.  1.
</event>
<event>
 5    1  0.9081766E-001  0.1000000E+03  0.7546771E-02  0.1163815E+00
         11   -1    0    0    0    0  0.00000000000E+00  0.00000000000E+00  0.50000000000E+02  0.50000000000E+02  0.00000000000E+00 0. -1.
        -11   -1    0    0    0    0 -0.00000000000E+00 -0.00000000000E+00 -0.50000000000E+02  0.50000000000E+02  0.00000000000E+00 0.  1.
         23    2    1    2    0    0  0.00000000000E+00  0.00000000000E+00  0.00000000000E+00  0.10000000000E+03  0.10000000000E+03 0.  0.
          5    1    3    3  501    0  0.66455975389E+01 -0.48642967119E+02  0.82223952235E+01  0.50000000000E+02  0.47000000000E+01 0. -1.
         -5    1    3    3    0  501 -0.66455975389E+01  0.48642967119E+02 -0.82223952235E+01  0.50000000000E+02  0.47000000000E+01 0.  1.
</event>
<event>
 5    1  0.9081766E-001  0.1000000E+03  0.7546771E-02  0.1163815E+00
         11   -1    0    0    0    0  0.00000000000E+00  0.00000000000E+00  0.50000000000E+02  0.50000000000E+02  0.00000000000E+00 0. -1.
        -11   -1    0    0    0    0 -0.00000000000E+00 -0.00000000000E+00 -0.50000000000E+02  0.50000000000E+02  0.00000000000E+00 0.  1.
         23    2    1    2    0    0  0.00000000000E+00  0.00000000000E+00  0.00000000000E+00  0.10000000000E+03  0.10000000000E+03 0.  0.
          5    1    3    3  501    0 -0.10050358314E+02 -0.47651924138E+02  0.10305067866E+02  0.50000000000E+02  0.47000000000E+01 0. -1.
         -5    1    3    3    0  501  0.10050358314E+02  0.47651924138E+02 -0.10305067866E+02  0.50000000000E+02  0.47000000000E+01 0.  1.
</event>
<event>
 5    1  0.9081766E-001  0.1000000E+03  0.7546771E-02  0.1163815E+00
         11   -1    0    0    0    0  0.00000000000E+00  0.00000000000E+00  0.50000000000E+02  0.50000000000E+02  0.00000000000E+00 0. -1.
        -11   -1    0    0    0    0 -0.00000000000E+00 -0.00000000000E+00 -0.50000000000E+02  0.50000000000E+02  0.00000000000E+00 0.  1.
         23    2    1    2    0    0  0.00000000000E+00  0.00000000000E+00  0.00000000000E+00  0.10000000000E+03  0.10000000000E+03 0.  0.
          5    1    3    3  501    0 -0.46530094883E+02 -0.13279732138E+02  0.11683705940E+02  0.50000000000E+02  0.47000000000E+01 0. -1.
         -5    1    3    3    0  501  0.46530094883E+02  0.13279732138E+02 -0.11683705940E+02  0.50000000000E+02  0.47000000000E+01 0.  1.
</event>
<event>
 5    1  0.9081766E-001  0.1000000E+03  0.7546771E-02  0.1163815E+00
         11   -1    0    0    0    0  0.00000000000E+00  0.00000000000E+00  0.50000000000E+02  0.50000000000E+02  0.00000000000E+00 0. -1.
        -11   -1    0    0    0    0 -0.00000000000E+00 -0.00000000000E+00 -0.50000000000E+02  0.50000000000E+02  0.00000000000E+00 0.  1.
         23    2    1    2    0    0  0.00000000000E+00  0.00000000000E+00  0.00000000000E+00  0.10000000000E+03  0.10000000000E+03 0.  0.
          5    1    3    3  501    0  0.34691810286E+02 -0.35249582826E+01 -0.35524118120E+02  0.50000000000E+02  0.47000000000E+01 0. -1.
         -5    1    3    3    0  501 -0.34691810286E+02  0.35249582826E+01  0.35524118120E+02  0.50000000000E+02  0.47000000000E+01 0.  1.
</event>
<event>
 5    1  0.9081766E-001  0.1000000E+03  0.7546771E-02  0.1163815E+00
         11   -1    0    0    0    0  0.00000000000E+00  0.00000000000E+00  0.50000000000E+02  0.50000000000E+02  0.00000000000E+00 0.  1.
        -11   -1    0    0    0    0 -0.00000000000E+00 -0.00000000000E+00 -0.50000000000E+02  0.50000000000E+02  0.00000000000E+00 0. -1.
         23    2    1    2    0    0  0.00000000000E+00  0.00000000000E+00  0.00000000000E+00  0.10000000000E+03  0.10000000000E+03 0.  0.
          5    1    3    3  501    0  0.17589303161E+02 -0.16721744996E+02  0.43461588312E+02  0.50000000000E+02  0.47000000000E+01 0.  1.
         -5    1    3    3    0  501 -0.17589303161E+02  0.16721744996E+02 -0.43461588312E+02  0.50000000000E+02  0.47000000000E+01 0. -1.
</event>
<event>
 5    1  0.9081766E-001  0.1000000E+03  0.7546771E-02  0.1163815E+00
         11   -1    0    0    0    0  0.00000000000E+00  0.00000000000E+00  0.50000000000E+02  0.50000000000E+02  0.00000000000E+00 0. -1.
        -11   -1    0    0    0    0 -0.00000000000E+00 -0.00000000000E+00 -0.50000000000E+02  0.50000000000E+02  0.00000000000E+00 0.  1.
         23    2    1    2    0    0  0.00000000000E+00  0.00000000000E+00  0.00000000000E+00  0.10000000000E+03  0.10000000000E+03 0.  0.
          5    1    3    3  501    0  0.22887197986E+02 -0.44146823805E+02 -0.22680644389E+01  0.50000000000E+02  0.47000000000E+01 0. -1.
         -5    1    3    3    0  501 -0.22887197986E+02  0.44146823805E+02  0.22680644389E+01  0.50000000000E+02  0.47000000000E+01 0.  1.
</event>
<event>
 5    1  0.9081766E-001  0.1000000E+03  0.7546771E-02  0.1163815E+00
         11   -1    0    0    0    0  0.00000000000E+00  0.00000000000E+00  0.50000000000E+02  0.50000000000E+02  0.00000000000E+00 0. -1.
        -11   -1    0    0    0    0 -0.00000000000E+00 -0.00000000000E+00 -0.50000000000E+02  0.50000000000E+02  0.00000000000E+00 0.  1.
         23    2    1    2    0    0  0.00000000000E+00  0.00000000000E+00  0.00000000000E+00  0.10000000000E+03  0.10000000000E+03 0.  0.
          5    1    3    3  501    0 -0.27718596920E+02 -0.12069258246E+01  0.41329562239E+02  0.50000000000E+02  0.47000000000E+01 0. -1.
         -5    1    3    3    0  501  0.27718596920E+02  0.12069258246E+01 -0.41329562239E+02  0.50000000000E+02  0.47000000000E+01 0.  1.
</event>
<event>
 5    1  0.9081766E-001  0.1000000E+03  0.7546771E-02  0.1163815E+00
         11   -1    0    0    0    0  0.00000000000E+00  0.00000000000E+00  0.50000000000E+02  0.50000000000E+02  0.00000000000E+00 0.  1.
        -11   -1    0    0    0    0 -0.00000000000E+00 -0.00000000000E+00 -0.50000000000E+02  0.50000000000E+02  0.00000000000E+00 0. -1.
         23    2    1    2    0    0  0.00000000000E+00  0.00000000000E+00  0.00000000000E+00  0.10000000000E+03  0.10000000000E+03 0.  0.
          5    1    3    3  501    0  0.41278866983E+02 -0.25887169575E+02 -0.10189189957E+02  0.50000000000E+02  0.47000000000E+01 0. -1.
         -5    1    3    3    0  501 -0.41278866983E+02  0.25887169575E+02  0.10189189957E+02  0.50000000000E+02  0.47000000000E+01 0.  1.
</event>
<event>
 5    1  0.9081766E-001  0.1000000E+03  0.7546771E-02  0.1163815E+00
         11   -1    0    0    0    0  0.00000000000E+00  0.00000000000E+00  0.50000000000E+02  0.50000000000E+02  0.00000000000E+00 0. -1.
        -11   -1    0    0    0    0 -0.00000000000E+00 -0.00000000000E+00 -0.50000000000E+02  0.50000000000E+02  0.00000000000E+00 0.  1.
         23    2    1    2    0    0  0.00000000000E+00  0.00000000000E+00  0.00000000000E+00  0.10000000000E+03  0.10000000000E+03 0.  0.
          5    1    3    3  501    0  0.41111736537E+02 -0.27895223182E+01  0.27927650888E+02  0.50000000000E+02  0.47000000000E+01 0. -1.
         -5    1    3    3    0  501 -0.41111736537E+02  0.27895223182E+01 -0.27927650888E+02  0.50000000000E+02  0.47000000000E+01 0.  1.
</event>
<event>
 5    1  0.9081766E-001  0.1000000E+03  0.7546771E-02  0.1163815E+00
         11   -1    0    0    0    0  0.00000000000E+00  0.00000000000E+00  0.50000000000E+02  0.50000000000E+02  0.00000000000E+00 0. -1.
        -11   -1    0    0    0    0 -0.00000000000E+00 -0.00000000000E+00 -0.50000000000E+02  0.50000000000E+02  0.00000000000E+00 0.  1.
         23    2    1    2    0    0  0.00000000000E+00  0.00000000000E+00  0.00000000000E+00  0.10000000000E+03  0.10000000000E+03 0.  0.
          5    1    3    3  501    0 -0.10834061638E+02  0.63960021099E+01  0.48162477775E+02  0.50000000000E+02  0.47000000000E+01 0. -1.
         -5    1    3    3    0  501  0.10834061638E+02 -0.63960021099E+01 -0.48162477775E+02  0.50000000000E+02  0.47000000000E+01 0.  1.
</event>
<event>
 5    1  0.9081766E-001  0.1000000E+03  0.7546771E-02  0.1163815E+00
         11   -1    0    0    0    0  0.00000000000E+00  0.00000000000E+00  0.50000000000E+02  0.50000000000E+02  0.00000000000E+00 0.  1.
        -11   -1    0    0    0    0 -0.00000000000E+00 -0.00000000000E+00 -0.50000000000E+02  0.50000000000E+02  0.00000000000E+00 0. -1.
         23    2    1    2    0    0  0.00000000000E+00  0.00000000000E+00  0.00000000000E+00  0.10000000000E+03  0.10000000000E+03 0.  0.
          5    1    3    3  501    0 -0.55856215864E+01  0.28850257211E+02  0.40179266922E+02  0.50000000000E+02  0.47000000000E+01 0. -1.
         -5    1    3    3    0  501  0.55856215864E+01 -0.28850257211E+02 -0.40179266922E+02  0.50000000000E+02  0.47000000000E+01 0.  1.
</event>
<event>
 5    1  0.9081766E-001  0.1000000E+03  0.7546771E-02  0.1163815E+00
         11   -1    0    0    0    0  0.00000000000E+00  0.00000000000E+00  0.50000000000E+02  0.50000000000E+02  0.00000000000E+00 0. -1.
        -11   -1    0    0    0    0 -0.00000000000E+00 -0.00000000000E+00 -0.50000000000E+02  0.50000000000E+02  0.00000000000E+00 0.  1.
         23    2    1    2    0    0  0.00000000000E+00  0.00000000000E+00  0.00000000000E+00  0.10000000000E+03  0.10000000000E+03 0.  0.
          5    1    3    3  501    0 -0.77305839451E+01  0.16036934727E+02  0.46486178553E+02  0.50000000000E+02  0.47000000000E+01 0. -1.
         -5    1    3    3    0  501  0.77305839451E+01 -0.16036934727E+02 -0.46486178553E+02  0.50000000000E+02  0.47000000000E+01 0.  1.
</event>
<event>
 5    1  0.9081766E-001  0.1000000E+03  0.7546771E-02  0.1163815E+00
         11   -1    0    0    0    0  0.00000000000E+00  0.00000000000E+00  0.50000000000E+02  0.50000000000E+02  0.00000000000E+00 0.  1.
        -11   -1    0    0    0    0 -0.00000000000E+00 -0.00000000000E+00 -0.50000000000E+02  0.50000000000E+02  0.00000000000E+00 0. -1.
         23    2    1    2    0    0  0.00000000000E+00  0.00000000000E+00  0.00000000000E+00  0.10000000000E+03  0.10000000000E+03 0.  0.
          5    1    3    3  501    0 -0.25086360457E+02  0.25298376768E+02 -0.34764589052E+02  0.50000000000E+02  0.47000000000E+01 0. -1.
         -5    1    3    3    0  501  0.25086360457E+02 -0.25298376768E+02  0.34764589052E+02  0.50000000000E+02  0.47000000000E+01 0.  1.
</event>
<event>
 5    1  0.9081766E-001  0.1000000E+03  0.7546771E-02  0.1163815E+00
         11   -1    0    0    0    0  0.00000000000E+00  0.00000000000E+00  0.50000000000E+02  0.50000000000E+02  0.00000000000E+00 0. -1.
        -11   -1    0    0    0    0 -0.00000000000E+00 -0.00000000000E+00 -0.50000000000E+02  0.50000000000E+02  0.00000000000E+00 0.  1.
         23    2    1    2    0    0  0.00000000000E+00  0.00000000000E+00  0.00000000000E+00  0.10000000000E+03  0.10000000000E+03 0.  0.
          5    1    3    3  501    0  0.71436321759E+01 -0.49837533007E+01  0.49010618466E+02  0.50000000000E+02  0.47000000000E+01 0. -1.
         -5    1    3    3    0  501 -0.71436321759E+01  0.49837533007E+01 -0.49010618466E+02  0.50000000000E+02  0.47000000000E+01 0.  1.
</event>
<event>
 5    1  0.9081766E-001  0.1000000E+03  0.7546771E-02  0.1163815E+00
         11   -1    0    0    0    0  0.00000000000E+00  0.00000000000E+00  0.50000000000E+02  0.50000000000E+02  0.00000000000E+00 0. -1.
        -11   -1    0    0    0    0 -0.00000000000E+00 -0.00000000000E+00 -0.50000000000E+02  0.50000000000E+02  0.00000000000E+00 0.  1.
         23    2    1    2    0    0  0.00000000000E+00  0.00000000000E+00  0.00000000000E+00  0.10000000000E+03  0.10000000000E+03 0.  0.
          5    1    3    3  501    0  0.36410953981E+02  0.31619161300E+02  0.12344272714E+02  0.50000000000E+02  0.47000000000E+01 0. -1.
         -5    1    3    3    0  501 -0.36410953981E+02 -0.31619161300E+02 -0.12344272714E+02  0.50000000000E+02  0.47000000000E+01 0.  1.
</event>
<event>
 5    1  0.9081766E-001  0.1000000E+03  0.7546771E-02  0.1163815E+00
         11   -1    0    0    0    0  0.00000000000E+00  0.00000000000E+00  0.50000000000E+02  0.50000000000E+02  0.00000000000E+00 0. -1.
        -11   -1    0    0    0    0 -0.00000000000E+00 -0.00000000000E+00 -0.50000000000E+02  0.50000000000E+02  0.00000000000E+00 0.  1.
         23    2    1    2    0    0  0.00000000000E+00  0.00000000000E+00  0.00000000000E+00  0.10000000000E+03  0.10000000000E+03 0.  0.
          5    1    3    3  501    0 -0.19907837308E+02 -0.37088830796E+02  0.26570785534E+02  0.50000000000E+02  0.47000000000E+01 0. -1.
         -5    1    3    3    0  501  0.19907837308E+02  0.37088830796E+02 -0.26570785534E+02  0.50000000000E+02  0.47000000000E+01 0.  1.
</event>
<event>
 5    1  0.9081766E-001  0.1000000E+03  0.7546771E-02  0.1163815E+00
         11   -1    0    0    0    0  0.00000000000E+00  0.00000000000E+00  0.50000000000E+02  0.50000000000E+02  0.00000000000E+00 0.  1.
        -11   -1    0    0    0    0 -0.00000000000E+00 -0.00000000000E+00 -0.50000000000E+02  0.50000000000E+02  0.00000000000E+00 0. -1.
         23    2    1    2    0    0  0.00000000000E+00  0.00000000000E+00  0.00000000000E+00  0.10000000000E+03  0.10000000000E+03 0.  0.
          5    1    3    3  501    0 -0.53250734873E+01  0.47808196507E+02 -0.12803512763E+02  0.50000000000E+02  0.47000000000E+01 0. -1.
         -5    1    3    3    0  501  0.53250734873E+01 -0.47808196507E+02  0.12803512763E+02  0.50000000000E+02  0.47000000000E+01 0.  1.
</event>
<event>
 5    1  0.9081766E-001  0.1000000E+03  0.7546771E-02  0.1163815E+00
         11   -1    0    0    0    0  0.00000000000E+00  0.00000000000E+00  0.50000000000E+02  0.50000000000E+02  0.00000000000E+00 0. -1.
        -11   -1    0    0    0    0 -0.00000000000E+00 -0.00000000000E+00 -0.50000000000E+02  0.50000000000E+02  0.00000000000E+00 0.  1.
         23    2    1    2    0    0  0.00000000000E+00  0.00000000000E+00  0.00000000000E+00  0.10000000000E+03  0.10000000000E+03 0.  0.
          5    1    3    3  501    0 -0.14039806987E+02 -0.35857128960E+02  0.31544573583E+02  0.50000000000E+02  0.47000000000E+01 0. -1.
         -5    1    3    3    0  501  0.14039806987E+02  0.35857128960E+02 -0.31544573583E+02  0.50000000000E+02  0.47000000000E+01 0.  1.
</event>
<event>
 5    1  0.9081766E-001  0.1000000E+03  0.7546771E-02  0.1163815E+00
         11   -1    0    0    0    0  0.00000000000E+00  0.00000000000E+00  0.50000000000E+02  0.50000000000E+02  0.00000000000E+00 0. -1.
        -11   -1    0    0    0    0 -0.00000000000E+00 -0.00000000000E+00 -0.50000000000E+02  0.50000000000E+02  0.00000000000E+00 0.  1.
         23    2    1    2    0    0  0.00000000000E+00  0.00000000000E+00  0.00000000000E+00  0.10000000000E+03  0.10000000000E+03 0.  0.
          5    1    3    3  501    0  0.38800508880E+02  0.30690652049E+02  0.55239829375E+01  0.50000000000E+02  0.47000000000E+01 0. -1.
         -5    1    3    3    0  501 -0.38800508880E+02 -0.30690652049E+02 -0.55239829375E+01  0.50000000000E+02  0.47000000000E+01 0.  1.
</event>
<event>
 5    1  0.9081766E-001  0.1000000E+03  0.7546771E-02  0.1163815E+00
         11   -1    0    0    0    0  0.00000000000E+00  0.00000000000E+00  0.50000000000E+02  0.50000000000E+02  0.00000000000E+00 0. -1.
        -11   -1    0    0    0    0 -0.00000000000E+00 -0.00000000000E+00 -0.50000000000E+02  0.50000000000E+02  0.00000000000E+00 0.  1.
         23    2    1    2    0    0  0.00000000000E+00  0.00000000000E+00  0.00000000000E+00  0.10000000000E+03  0.10000000000E+03 0.  0.
          5    1    3    3  501    0  0.14126889712E+02 -0.22538500671E+02  0.42075610210E+02  0.50000000000E+02  0.47000000000E+01 0. -1.
         -5    1    3    3    0  501 -0.14126889712E+02  0.22538500671E+02 -0.42075610210E+02  0.50000000000E+02  0.47000000000E+01 0.  1.
</event>
<event>
 5    1  0.9081766E-001  0.1000000E+03  0.7546771E-02  0.1163815E+00
         11   -1    0    0    0    0  0.00000000000E+00  0.00000000000E+00  0.50000000000E+02  0.50000000000E+02  0.00000000000E+00 0.  1.
        -11   -1    0    0    0    0 -0.00000000000E+00 -0.00000000000E+00 -0.50000000000E+02  0.50000000000E+02  0.00000000000E+00 0. -1.
         23    2    1    2    0    0  0.00000000000E+00  0.00000000000E+00  0.00000000000E+00  0.10000000000E+03  0.10000000000E+03 0.  0.
          5    1    3    3  501    0  0.84737310430E+01 -0.39819910446E+02 -0.28644032787E+02  0.50000000000E+02  0.47000000000E+01 0. -1.
         -5    1    3    3    0  501 -0.84737310430E+01  0.39819910446E+02  0.28644032787E+02  0.50000000000E+02  0.47000000000E+01 0.  1.
</event>
<event>
 5    1  0.9081766E-001  0.1000000E+03  0.7546771E-02  0.1163815E+00
         11   -1    0    0    0    0  0.00000000000E+00  0.00000000000E+00  0.50000000000E+02  0.50000000000E+02  0.00000000000E+00 0. -1.
        -11   -1    0    0    0    0 -0.00000000000E+00 -0.00000000000E+00 -0.50000000000E+02  0.50000000000E+02  0.00000000000E+00 0.  1.
         23    2    1    2    0    0  0.00000000000E+00  0.00000000000E+00  0.00000000000E+00  0.10000000000E+03  0.10000000000E+03 0.  0.
          5    1    3    3  501    0 -0.19760682777E+02  0.43796650646E+02  0.13010718980E+02  0.50000000000E+02  0.47000000000E+01 0. -1.
         -5    1    3    3    0  501  0.19760682777E+02 -0.43796650646E+02 -0.13010718980E+02  0.50000000000E+02  0.47000000000E+01 0.  1.
</event>
<event>
 5    1  0.9081766E-001  0.1000000E+03  0.7546771E-02  0.1163815E+00
         11   -1    0    0    0    0  0.00000000000E+00  0.00000000000E+00  0.50000000000E+02  0.50000000000E+02  0.00000000000E+00 0. -1.
        -11   -1    0    0    0    0 -0.00000000000E+00 -0.00000000000E+00 -0.50000000000E+02  0.50000000000E+02  0.00000000000E+00 0.  1.
         23    2    1    2    0    0  0.00000000000E+00  0.00000000000E+00  0.00000000000E+00  0.10000000000E+03  0.10000000000E+03 0.  0.
          5    1    3    3  501    0  0.40842680722E+02  0.22097266025E+02  0.17930316942E+02  0.50000000000E+02  0.47000000000E+01 0. -1.
         -5    1    3    3    0  501 -0.40842680722E+02 -0.22097266025E+02 -0.17930316942E+02  0.50000000000E+02  0.47000000000E+01 0.  1.
</event>
<event>
 5    1  0.9081766E-001  0.1000000E+03  0.7546771E-02  0.1163815E+00
         11   -1    0    0    0    0  0.00000000000E+00  0.00000000000E+00  0.50000000000E+02  0.50000000000E+02  0.00000000000E+00 0.  1.
        -11   -1    0    0    0    0 -0.00000000000E+00 -0.00000000000E+00 -0.50000000000E+02  0.50000000000E+02  0.00000000000E+00 0. -1.
         23    2    1    2    0    0  0.00000000000E+00  0.00000000000E+00  0.00000000000E+00  0.10000000000E+03  0.10000000000E+03 0.  0.
          5    1    3    3  501    0  0.95408983757E+01 -0.68673084999E+01 -0.48370666030E+02  0.50000000000E+02  0.47000000000E+01 0. -1.
         -5    1    3    3    0  501 -0.95408983757E+01  0.68673084999E+01  0.48370666030E+02  0.50000000000E+02  0.47000000000E+01 0.  1.
</event>
<event>
 5    1  0.9081766E-001  0.1000000E+03  0.7546771E-02  0.1163815E+00
         11   -1    0    0    0    0  0.00000000000E+00  0.00000000000E+00  0.50000000000E+02  0.50000000000E+02  0.00000000000E+00 0. -1.
        -11   -1    0    0    0    0 -0.00000000000E+00 -0.00000000000E+00 -0.50000000000E+02  0.50000000000E+02  0.00000000000E+00 0.  1.
         23    2    1    2    0    0  0.00000000000E+00  0.00000000000E+00  0.00000000000E+00  0.10000000000E+03  0.10000000000E+03 0.  0.
          5    1    3    3  501    0 -0.21182936789E+02  0.15154691898E+02  0.42420849855E+02  0.50000000000E+02  0.47000000000E+01 0. -1.
         -5    1    3    3    0  501  0.21182936789E+02 -0.15154691898E+02 -0.42420849855E+02  0.50000000000E+02  0.47000000000E+01 0.  1.
</event>
<event>
 5    1  0.9081766E-001  0.1000000E+03  0.7546771E-02  0.1163815E+00
         11   -1    0    0    0    0  0.00000000000E+00  0.00000000000E+00  0.50000000000E+02  0.50000000000E+02  0.00000000000E+00 0.  1.
        -11   -1    0    0    0    0 -0.00000000000E+00 -0.00000000000E+00 -0.50000000000E+02  0.50000000000E+02  0.00000000000E+00 0. -1.
         23    2    1    2    0    0  0.00000000000E+00  0.00000000000E+00  0.00000000000E+00  0.10000000000E+03  0.10000000000E+03 0.  0.
          5    1    3    3  501    0  0.15459419331E+02  0.77543274922E+01 -0.46677475929E+02  0.50000000000E+02  0.47000000000E+01 0. -1.
         -5    1    3    3    0  501 -0.15459419331E+02 -0.77543274922E+01  0.46677475929E+02  0.50000000000E+02  0.47000000000E+01 0.  1.
</event>
<event>
 5    1  0.9081766E-001  0.1000000E+03  0.7546771E-02  0.1163815E+00
         11   -1    0    0    0    0  0.00000000000E+00  0.00000000000E+00  0.50000000000E+02  0.50000000000E+02  0.00000000000E+00 0. -1.
        -11   -1    0    0    0    0 -0.00000000000E+00 -0.00000000000E+00 -0.50000000000E+02  0.50000000000E+02  0.00000000000E+00 0.  1.
         23    2    1    2    0    0  0.00000000000E+00  0.00000000000E+00  0.00000000000E+00  0.10000000000E+03  0.10000000000E+03 0.  0.
          5    1    3    3  501    0 -0.45882606550E+02  0.13001091311E+02  0.14271231232E+02  0.50000000000E+02  0.47000000000E+01 0. -1.
         -5    1    3    3    0  501  0.45882606550E+02 -0.13001091311E+02 -0.14271231232E+02  0.50000000000E+02  0.47000000000E+01 0.  1.
</event>
<event>
 5    1  0.9081766E-001  0.1000000E+03  0.7546771E-02  0.1163815E+00
         11   -1    0    0    0    0  0.00000000000E+00  0.00000000000E+00  0.50000000000E+02  0.50000000000E+02  0.00000000000E+00 0. -1.
        -11   -1    0    0    0    0 -0.00000000000E+00 -0.00000000000E+00 -0.50000000000E+02  0.50000000000E+02  0.00000000000E+00 0.  1.
         23    2    1    2    0    0  0.00000000000E+00  0.00000000000E+00  0.00000000000E+00  0.10000000000E+03  0.10000000000E+03 0.  0.
          5    1    3    3  501    0  0.27602489571E+02 -0.77531906457E+01  0.40692758622E+02  0.50000000000E+02  0.47000000000E+01 0. -1.
         -5    1    3    3    0  501 -0.27602489571E+02  0.77531906457E+01 -0.40692758622E+02  0.50000000000E+02  0.47000000000E+01 0.  1.
</event>
<event>
 5    1  0.9081766E-001  0.1000000E+03  0.7546771E-02  0.1163815E+00
         11   -1    0    0    0    0  0.00000000000E+00  0.00000000000E+00  0.50000000000E+02  0.50000000000E+02  0.00000000000E+00 0.  1.
        -11   -1    0    0    0    0 -0.00000000000E+00 -0.00000000000E+00 -0.50000000000E+02  0.50000000000E+02  0.00000000000E+00 0. -1.
         23    2    1    2    0    0  0.00000000000E+00  0.00000000000E+00  0.00000000000E+00  0.10000000000E+03  0.10000000000E+03 0.  0.
          5    1    3    3  501    0  0.27921517759E+01  0.37450318450E+02 -0.32673958078E+02  0.50000000000E+02  0.47000000000E+01 0. -1.
         -5    1    3    3    0  501 -0.27921517759E+01 -0.37450318450E+02  0.32673958078E+02  0.50000000000E+02  0.47000000000E+01 0.  1.
</event>
<event>
 5    1  0.9081766E-001  0.1000000E+03  0.7546771E-02  0.1163815E+00
         11   -1    0    0    0    0  0.00000000000E+00  0.00000000000E+00  0.50000000000E+02  0.50000000000E+02  0.00000000000E+00 0.  1.
        -11   -1    0    0    0    0 -0.00000000000E+00 -0.00000000000E+00 -0.50000000000E+02  0.50000000000E+02  0.00000000000E+00 0. -1.
         23    2    1    2    0    0  0.00000000000E+00  0.00000000000E+00  0.00000000000E+00  0.10000000000E+03  0.10000000000E+03 0.  0.
          5    1    3    3  501    0  0.25663741388E+02 -0.39141353391E+02 -0.16948062801E+02  0.50000000000E+02  0.47000000000E+01 0. -1.
         -5    1    3    3    0  501 -0.25663741388E+02  0.39141353391E+02  0.16948062801E+02  0.50000000000E+02  0.47000000000E+01 0.  1.
</event>
<event>
 5    1  0.9081766E-001  0.1000000E+03  0.7546771E-02  0.1163815E+00
         11   -1    0    0    0    0  0.00000000000E+00  0.00000000000E+00  0.50000000000E+02  0.50000000000E+02  0.00000000000E+00 0.  1.
        -11   -1    0    0    0    0 -0.00000000000E+00 -0.00000000000E+00 -0.50000000000E+02  0.50000000000E+02  0.00000000000E+00 0. -1.
         23    2    1    2    0    0  0.00000000000E+00  0.00000000000E+00  0.00000000000E+00  0.10000000000E+03  0.10000000000E+03 0.  0.
          5    1    3    3  501    0  0.94083580196E+01 -0.44114059738E+02 -0.21055700721E+02  0.50000000000E+02  0.47000000000E+01 0. -1.
         -5    1    3    3    0  501 -0.94083580196E+01  0.44114059738E+02  0.21055700721E+02  0.50000000000E+02  0.47000000000E+01 0.  1.
</event>
<event>
 5    1  0.9081766E-001  0.1000000E+03  0.7546771E-02  0.1163815E+00
         11   -1    0    0    0    0  0.00000000000E+00  0.00000000000E+00  0.50000000000E+02  0.50000000000E+02  0.00000000000E+00 0. -1.
        -11   -1    0    0    0    0 -0.00000000000E+00 -0.00000000000E+00 -0.50000000000E+02  0.50000000000E+02  0.00000000000E+00 0.  1.
         23    2    1    2    0    0  0.00000000000E+00  0.00000000000E+00  0.00000000000E+00  0.10000000000E+03  0.10000000000E+03 0.  0.
          5    1    3    3  501    0 -0.12576976418E+02  0.19502252026E+02  0.44038526657E+02  0.50000000000E+02  0.47000000000E+01 0. -1.
         -5    1    3    3    0  501  0.12576976418E+02 -0.19502252026E+02 -0.44038526657E+02  0.50000000000E+02  0.47000000000E+01 0.  1.
</event>
<event>
 5    1  0.9081766E-001  0.1000000E+03  0.7546771E-02  0.1163815E+00
         11   -1    0    0    0    0  0.00000000000E+00  0.00000000000E+00  0.50000000000E+02  0.50000000000E+02  0.00000000000E+00 0.  1.
        -11   -1    0    0    0    0 -0.00000000000E+00 -0.00000000000E+00 -0.50000000000E+02  0.50000000000E+02  0.00000000000E+00 0. -1.
         23    2    1    2    0    0  0.00000000000E+00  0.00000000000E+00  0.00000000000E+00  0.10000000000E+03  0.10000000000E+03 0.  0.
          5    1    3    3  501    0  0.47037058831E+02  0.16242603473E+02  0.12660683021E+01  0.50000000000E+02  0.47000000000E+01 0.  1.
         -5    1    3    3    0  501 -0.47037058831E+02 -0.16242603473E+02 -0.12660683021E+01  0.50000000000E+02  0.47000000000E+01 0. -1.
</event>
<event>
 5    1  0.9081766E-001  0.1000000E+03  0.7546771E-02  0.1163815E+00
         11   -1    0    0    0    0  0.00000000000E+00  0.00000000000E+00  0.50000000000E+02  0.50000000000E+02  0.00000000000E+00 0. -1.
        -11   -1    0    0    0    0 -0.00000000000E+00 -0.00000000000E+00 -0.50000000000E+02  0.50000000000E+02  0.00000000000E+00 0.  1.
         23    2    1    2    0    0  0.00000000000E+00  0.00000000000E+00  0.00000000000E+00  0.10000000000E+03  0.10000000000E+03 0.  0.
          5    1    3    3  501    0  0.14123432234E+02  0.10724826561E+02  0.46512544084E+02  0.50000000000E+02  0.47000000000E+01 0. -1.
         -5    1    3    3    0  501 -0.14123432234E+02 -0.10724826561E+02 -0.46512544084E+02  0.50000000000E+02  0.47000000000E+01 0.  1.
</event>
<event>
 5    1  0.9081766E-001  0.1000000E+03  0.7546771E-02  0.1163815E+00
         11   -1    0    0    0    0  0.00000000000E+00  0.00000000000E+00  0.50000000000E+02  0.50000000000E+02  0.00000000000E+00 0. -1.
        -11   -1    0    0    0    0 -0.00000000000E+00 -0.00000000000E+00 -0.50000000000E+02  0.50000000000E+02  0.00000000000E+00 0.  1.
         23    2    1    2    0    0  0.00000000000E+00  0.00000000000E+00  0.00000000000E+00  0.10000000000E+03  0.10000000000E+03 0.  0.
          5    1    3    3  501    0 -0.23943352979E+02  0.56900518190E+01  0.43269494548E+02  0.50000000000E+02  0.47000000000E+01 0. -1.
         -5    1    3    3    0  501  0.23943352979E+02 -0.56900518190E+01 -0.43269494548E+02  0.50000000000E+02  0.47000000000E+01 0.  1.
</event>
<event>
 5    1  0.9081766E-001  0.1000000E+03  0.7546771E-02  0.1163815E+00
         11   -1    0    0    0    0  0.00000000000E+00  0.00000000000E+00  0.50000000000E+02  0.50000000000E+02  0.00000000000E+00 0.  1.
        -11   -1    0    0    0    0 -0.00000000000E+00 -0.00000000000E+00 -0.50000000000E+02  0.50000000000E+02  0.00000000000E+00 0. -1.
         23    2    1    2    0    0  0.00000000000E+00  0.00000000000E+00  0.00000000000E+00  0.10000000000E+03  0.10000000000E+03 0.  0.
          5    1    3    3  501    0 -0.45013013155E+02 -0.13464346402E+02 -0.16445364779E+02  0.50000000000E+02  0.47000000000E+01 0. -1.
         -5    1    3    3    0  501  0.45013013155E+02  0.13464346402E+02  0.16445364779E+02  0.50000000000E+02  0.47000000000E+01 0.  1.
</event>
<event>
 5    1  0.9081766E-001  0.1000000E+03  0.7546771E-02  0.1163815E+00
         11   -1    0    0    0    0  0.00000000000E+00  0.00000000000E+00  0.50000000000E+02  0.50000000000E+02  0.00000000000E+00 0. -1.
        -11   -1    0    0    0    0 -0.00000000000E+00 -0.00000000000E+00 -0.50000000000E+02  0.50000000000E+02  0.00000000000E+00 0.  1.
         23    2    1    2    0    0  0.00000000000E+00  0.00000000000E+00  0.00000000000E+00  0.10000000000E+03  0.10000000000E+03 0.  0.
          5    1    3    3  501    0 -0.28909688935E+02 -0.10869915454E+02  0.39038248215E+02  0.50000000000E+02  0.47000000000E+01 0. -1.
         -5    1    3    3    0  501  0.28909688935E+02  0.10869915454E+02 -0.39038248215E+02  0.50000000000E+02  0.47000000000E+01 0.  1.
</event>
<event>
 5    1  0.9081766E-001  0.1000000E+03  0.7546771E-02  0.1163815E+00
         11   -1    0    0    0    0  0.00000000000E+00  0.00000000000E+00  0.50000000000E+02  0.50000000000E+02  0.00000000000E+00 0. -1.
        -11   -1    0    0    0    0 -0.00000000000E+00 -0.00000000000E+00 -0.50000000000E+02  0.50000000000E+02  0.00000000000E+00 0.  1.
         23    2    1    2    0    0  0.00000000000E+00  0.00000000000E+00  0.00000000000E+00  0.10000000000E+03  0.10000000000E+03 0.  0.
          5    1    3    3  501    0  0.33319737721E+02 -0.27057312563E+02  0.25211245806E+02  0.50000000000E+02  0.47000000000E+01 0. -1.
         -5    1    3    3    0  501 -0.33319737721E+02  0.27057312563E+02 -0.25211245806E+02  0.50000000000E+02  0.47000000000E+01 0.  1.
</event>
<event>
 5    1  0.9081766E-001  0.1000000E+03  0.7546771E-02  0.1163815E+00
         11   -1    0    0    0    0  0.00000000000E+00  0.00000000000E+00  0.50000000000E+02  0.50000000000E+02  0.00000000000E+00 0.  1.
        -11   -1    0    0    0    0 -0.00000000000E+00 -0.00000000000E+00 -0.50000000000E+02  0.50000000000E+02  0.00000000000E+00 0. -1.
         23    2    1    2    0    0  0.00000000000E+00  0.00000000000E+00  0.00000000000E+00  0.10000000000E+03  0.10000000000E+03 0.  0.
          5    1    3    3  501    0 -0.21414756984E+02  0.30661262014E+02 -0.32851258653E+02  0.50000000000E+02  0.47000000000E+01 0. -1.
         -5    1    3    3    0  501  0.21414756984E+02 -0.30661262014E+02  0.32851258653E+02  0.50000000000E+02  0.47000000000E+01 0.  1.
</event>
<event>
 5    1  0.9081766E-001  0.1000000E+03  0.7546771E-02  0.1163815E+00
         11   -1    0    0    0    0  0.00000000000E+00  0.00000000000E+00  0.50000000000E+02  0.50000000000E+02  0.00000000000E+00 0.  1.
        -11   -1    0    0    0    0 -0.00000000000E+00 -0.00000000000E+00 -0.50000000000E+02  0.50000000000E+02  0.00000000000E+00 0. -1.
         23    2    1    2    0    0  0.00000000000E+00  0.00000000000E+00  0.00000000000E+00  0.10000000000E+03  0.10000000000E+03 0.  0.
          5    1    3    3  501    0  0.11564229062E+02 -0.40337068748E+02 -0.26778713394E+02  0.50000000000E+02  0.47000000000E+01 0. -1.
         -5    1    3    3    0  501 -0.11564229062E+02  0.40337068748E+02  0.26778713394E+02  0.50000000000E+02  0.47000000000E+01 0.  1.
</event>
<event>
 5    1  0.9081766E-001  0.1000000E+03  0.7546771E-02  0.1163815E+00
         11   -1    0    0    0    0  0.00000000000E+00  0.00000000000E+00  0.50000000000E+02  0.50000000000E+02  0.00000000000E+00 0.  1.
        -11   -1    0    0    0    0 -0.00000000000E+00 -0.00000000000E+00 -0.50000000000E+02  0.50000000000E+02  0.00000000000E+00 0. -1.
         23    2    1    2    0    0  0.00000000000E+00  0.00000000000E+00  0.00000000000E+00  0.10000000000E+03  0.10000000000E+03 0.  0.
          5    1    3    3  501    0  0.21819075763E+02 -0.39253288514E+02 -0.21471312807E+02  0.50000000000E+02  0.47000000000E+01 0. -1.
         -5    1    3    3    0  501 -0.21819075763E+02  0.39253288514E+02  0.21471312807E+02  0.50000000000E+02  0.47000000000E+01 0.  1.
</event>
<event>
 5    1  0.9081766E-001  0.1000000E+03  0.7546771E-02  0.1163815E+00
         11   -1    0    0    0    0  0.00000000000E+00  0.00000000000E+00  0.50000000000E+02  0.50000000000E+02  0.00000000000E+00 0. -1.
        -11   -1    0    0    0    0 -0.00000000000E+00 -0.00000000000E+00 -0.50000000000E+02  0.50000000000E+02  0.00000000000E+00 0.  1.
         23    2    1    2    0    0  0.00000000000E+00  0.00000000000E+00  0.00000000000E+00  0.10000000000E+03  0.10000000000E+03 0.  0.
          5    1    3    3  501    0 -0.85874284283E+00 -0.48462350867E+02 -0.11339008299E+02  0.50000000000E+02  0.47000000000E+01 0. -1.
         -5    1    3    3    0  501  0.85874284283E+00  0.48462350867E+02  0.11339008299E+02  0.50000000000E+02  0.47000000000E+01 0.  1.
</event>
<event>
 5    1  0.9081766E-001  0.1000000E+03  0.7546771E-02  0.1163815E+00
         11   -1    0    0    0    0  0.00000000000E+00  0.00000000000E+00  0.50000000000E+02  0.50000000000E+02  0.00000000000E+00 0.  1.
        -11   -1    0    0    0    0 -0.00000000000E+00 -0.00000000000E+00 -0.50000000000E+02  0.50000000000E+02  0.00000000000E+00 0. -1.
         23    2    1    2    0    0  0.00000000000E+00  0.00000000000E+00  0.00000000000E+00  0.10000000000E+03  0.10000000000E+03 0.  0.
          5    1    3    3  501    0  0.26980704609E+01 -0.15077432228E+02 -0.47363503388E+02  0.50000000000E+02  0.47000000000E+01 0. -1.
         -5    1    3    3    0  501 -0.26980704609E+01  0.15077432228E+02  0.47363503388E+02  0.50000000000E+02  0.47000000000E+01 0.  1.
</event>
<event>
 5    1  0.9081766E-001  0.1000000E+03  0.7546771E-02  0.1163815E+00
         11   -1    0    0    0    0  0.00000000000E+00  0.00000000000E+00  0.50000000000E+02  0.50000000000E+02  0.00000000000E+00 0. -1.
        -11   -1    0    0    0    0 -0.00000000000E+00 -0.00000000000E+00 -0.50000000000E+02  0.50000000000E+02  0.00000000000E+00 0.  1.
         23    2    1    2    0    0  0.00000000000E+00  0.00000000000E+00  0.00000000000E+00  0.10000000000E+03  0.10000000000E+03 0.  0.
          5    1    3    3  501    0 -0.20178598306E+02  0.36650826369E+02  0.26971301357E+02  0.50000000000E+02  0.47000000000E+01 0. -1.
         -5    1    3    3    0  501  0.20178598306E+02 -0.36650826369E+02 -0.26971301357E+02  0.50000000000E+02  0.47000000000E+01 0.  1.
</event>
<event>
 5    1  0.9081766E-001  0.1000000E+03  0.7546771E-02  0.1163815E+00
         11   -1    0    0    0    0  0.00000000000E+00  0.00000000000E+00  0.50000000000E+02  0.50000000000E+02  0.00000000000E+00 0. -1.
        -11   -1    0    0    0    0 -0.00000000000E+00 -0.00000000000E+00 -0.50000000000E+02  0.50000000000E+02  0.00000000000E+00 0.  1.
         23    2    1    2    0    0  0.00000000000E+00  0.00000000000E+00  0.00000000000E+00  0.10000000000E+03  0.10000000000E+03 0.  0.
          5    1    3    3  501    0  0.27196438227E+02  0.24012301300E+02  0.34083326335E+02  0.50000000000E+02  0.47000000000E+01 0. -1.
         -5    1    3    3    0  501 -0.27196438227E+02 -0.24012301300E+02 -0.34083326335E+02  0.50000000000E+02  0.47000000000E+01 0.  1.
</event>
<event>
 5    1  0.9081766E-001  0.1000000E+03  0.7546771E-02  0.1163815E+00
         11   -1    0    0    0    0  0.00000000000E+00  0.00000000000E+00  0.50000000000E+02  0.50000000000E+02  0.00000000000E+00 0. -1.
        -11   -1    0    0    0    0 -0.00000000000E+00 -0.00000000000E+00 -0.50000000000E+02  0.50000000000E+02  0.00000000000E+00 0.  1.
         23    2    1    2    0    0  0.00000000000E+00  0.00000000000E+00  0.00000000000E+00  0.10000000000E+03  0.10000000000E+03 0.  0.
          5    1    3    3  501    0 -0.29147014533E+02  0.39783894705E+02  0.67530190230E+01  0.50000000000E+02  0.47000000000E+01 0. -1.
         -5    1    3    3    0  501  0.29147014533E+02 -0.39783894705E+02 -0.67530190230E+01  0.50000000000E+02  0.47000000000E+01 0.  1.
</event>
<event>
 5    1  0.9081766E-001  0.1000000E+03  0.7546771E-02  0.1163815E+00
         11   -1    0    0    0    0  0.00000000000E+00  0.00000000000E+00  0.50000000000E+02  0.50000000000E+02  0.00000000000E+00 0. -1.
        -11   -1    0    0    0    0 -0.00000000000E+00 -0.00000000000E+00 -0.50000000000E+02  0.50000000000E+02  0.00000000000E+00 0.  1.
         23    2    1    2    0    0  0.00000000000E+00  0.00000000000E+00  0.00000000000E+00  0.10000000000E+03  0.10000000000E+03 0.  0.
          5    1    3    3  501    0  0.14676653950E+02  0.11918325223E+02  0.46048445714E+02  0.50000000000E+02  0.47000000000E+01 0. -1.
         -5    1    3    3    0  501 -0.14676653950E+02 -0.11918325223E+02 -0.46048445714E+02  0.50000000000E+02  0.47000000000E+01 0.  1.
</event>
<event>
 5    1  0.9081766E-001  0.1000000E+03  0.7546771E-02  0.1163815E+00
         11   -1    0    0    0    0  0.00000000000E+00  0.00000000000E+00  0.50000000000E+02  0.50000000000E+02  0.00000000000E+00 0.  1.
        -11   -1    0    0    0    0 -0.00000000000E+00 -0.00000000000E+00 -0.50000000000E+02  0.50000000000E+02  0.00000000000E+00 0. -1.
         23    2    1    2    0    0  0.00000000000E+00  0.00000000000E+00  0.00000000000E+00  0.10000000000E+03  0.10000000000E+03 0.  0.
          5    1    3    3  501    0 -0.48021571833E+02  0.11766380841E+02 -0.57784877464E+01  0.50000000000E+02  0.47000000000E+01 0. -1.
         -5    1    3    3    0  501  0.48021571833E+02 -0.11766380841E+02  0.57784877464E+01  0.50000000000E+02  0.47000000000E+01 0.  1.
</event>
<event>
 5    1  0.9081766E-001  0.1000000E+03  0.7546771E-02  0.1163815E+00
         11   -1    0    0    0    0  0.00000000000E+00  0.00000000000E+00  0.50000000000E+02  0.50000000000E+02  0.00000000000E+00 0. -1.
        -11   -1    0    0    0    0 -0.00000000000E+00 -0.00000000000E+00 -0.50000000000E+02  0.50000000000E+02  0.00000000000E+00 0.  1.
         23    2    1    2    0    0  0.00000000000E+00  0.00000000000E+00  0.00000000000E+00  0.10000000000E+03  0.10000000000E+03 0.  0.
          5    1    3    3  501    0 -0.25894417280E+02  0.16299746781E+02  0.39264582115E+02  0.50000000000E+02  0.47000000000E+01 0. -1.
         -5    1    3    3    0  501  0.25894417280E+02 -0.16299746781E+02 -0.39264582115E+02  0.50000000000E+02  0.47000000000E+01 0.  1.
</event>
<event>
 5    1  0.9081766E-001  0.1000000E+03  0.7546771E-02  0.1163815E+00
         11   -1    0    0    0    0  0.00000000000E+00  0.00000000000E+00  0.50000000000E+02  0.50000000000E+02  0.00000000000E+00 0. -1.
        -11   -1    0    0    0    0 -0.00000000000E+00 -0.00000000000E+00 -0.50000000000E+02  0.50000000000E+02  0.00000000000E+00 0.  1.
         23    2    1    2    0    0  0.00000000000E+00  0.00000000000E+00  0.00000000000E+00  0.10000000000E+03  0.10000000000E+03 0.  0.
          5    1    3    3  501    0 -0.40655479347E+02  0.67557004904E+00  0.28715598621E+02  0.50000000000E+02  0.47000000000E+01 0. -1.
         -5    1    3    3    0  501  0.40655479347E+02 -0.67557004904E+00 -0.28715598621E+02  0.50000000000E+02  0.47000000000E+01 0.  1.
</event>
<event>
 5    1  0.9081766E-001  0.1000000E+03  0.7546771E-02  0.1163815E+00
         11   -1    0    0    0    0  0.00000000000E+00  0.00000000000E+00  0.50000000000E+02  0.50000000000E+02  0.00000000000E+00 0.  1.
        -11   -1    0    0    0    0 -0.00000000000E+00 -0.00000000000E+00 -0.50000000000E+02  0.50000000000E+02  0.00000000000E+00 0. -1.
         23    2    1    2    0    0  0.00000000000E+00  0.00000000000E+00  0.00000000000E+00  0.10000000000E+03  0.10000000000E+03 0.  0.
          5    1    3    3  501    0 -0.11340072882E+02  0.26948405334E+02 -0.40287668051E+02  0.50000000000E+02  0.47000000000E+01 0. -1.
         -5    1    3    3    0  501  0.11340072882E+02 -0.26948405334E+02  0.40287668051E+02  0.50000000000E+02  0.47000000000E+01 0.  1.
</event>
<event>
 5    1  0.9081766E-001  0.1000000E+03  0.7546771E-02  0.1163815E+00
         11   -1    0    0    0    0  0.00000000000E+00  0.00000000000E+00  0.50000000000E+02  0.50000000000E+02  0.00000000000E+00 0.  1.
        -11   -1    0    0    0    0 -0.00000000000E+00 -0.00000000000E+00 -0.50000000000E+02  0.50000000000E+02  0.00000000000E+00 0. -1.
         23    2    1    2    0    0  0.00000000000E+00  0.00000000000E+00  0.00000000000E+00  0.10000000000E+03  0.10000000000E+03 0.  0.
          5    1    3    3  501    0 -0.31402571627E+02 -0.22844787550E+01 -0.38556058564E+02  0.50000000000E+02  0.47000000000E+01 0. -1.
         -5    1    3    3    0  501  0.31402571627E+02  0.22844787550E+01  0.38556058564E+02  0.50000000000E+02  0.47000000000E+01 0.  1.
</event>
<event>
 5    1  0.9081766E-001  0.1000000E+03  0.7546771E-02  0.1163815E+00
         11   -1    0    0    0    0  0.00000000000E+00  0.00000000000E+00  0.50000000000E+02  0.50000000000E+02  0.00000000000E+00 0.  1.
        -11   -1    0    0    0    0 -0.00000000000E+00 -0.00000000000E+00 -0.50000000000E+02  0.50000000000E+02  0.00000000000E+00 0. -1.
         23    2    1    2    0    0  0.00000000000E+00  0.00000000000E+00  0.00000000000E+00  0.10000000000E+03  0.10000000000E+03 0.  0.
          5    1    3    3  501    0 -0.13741530287E+02  0.24963909627E+02 -0.40815236879E+02  0.50000000000E+02  0.47000000000E+01 0. -1.
         -5    1    3    3    0  501  0.13741530287E+02 -0.24963909627E+02  0.40815236879E+02  0.50000000000E+02  0.47000000000E+01 0.  1.
</event>
<event>
 5    1  0.9081766E-001  0.1000000E+03  0.7546771E-02  0.1163815E+00
         11   -1    0    0    0    0  0.00000000000E+00  0.00000000000E+00  0.50000000000E+02  0.50000000000E+02  0.00000000000E+00 0. -1.
        -11   -1    0    0    0    0 -0.00000000000E+00 -0.00000000000E+00 -0.50000000000E+02  0.50000000000E+02  0.00000000000E+00 0.  1.
         23    2    1    2    0    0  0.00000000000E+00  0.00000000000E+00  0.00000000000E+00  0.10000000000E+03  0.10000000000E+03 0.  0.
          5    1    3    3  501    0 -0.30536800022E+02  0.27138753658E+02  0.28441200649E+02  0.50000000000E+02  0.47000000000E+01 0. -1.
         -5    1    3    3    0  501  0.30536800022E+02 -0.27138753658E+02 -0.28441200649E+02  0.50000000000E+02  0.47000000000E+01 0.  1.
</event>
<event>
 5    1  0.9081766E-001  0.1000000E+03  0.7546771E-02  0.1163815E+00
         11   -1    0    0    0    0  0.00000000000E+00  0.00000000000E+00  0.50000000000E+02  0.50000000000E+02  0.00000000000E+00 0.  1.
        -11   -1    0    0    0    0 -0.00000000000E+00 -0.00000000000E+00 -0.50000000000E+02  0.50000000000E+02  0.00000000000E+00 0. -1.
         23    2    1    2    0    0  0.00000000000E+00  0.00000000000E+00  0.00000000000E+00  0.10000000000E+03  0.10000000000E+03 0.  0.
          5    1    3    3  501    0 -0.95562618225E+00 -0.40920730925E+02 -0.28328264317E+02  0.50000000000E+02  0.47000000000E+01 0. -1.
         -5    1    3    3    0  501  0.95562618225E+00  0.40920730925E+02  0.28328264317E+02  0.50000000000E+02  0.47000000000E+01 0.  1.
</event>
<event>
 5    1  0.9081766E-001  0.1000000E+03  0.7546771E-02  0.1163815E+00
         11   -1    0    0    0    0  0.00000000000E+00  0.00000000000E+00  0.50000000000E+02  0.50000000000E+02  0.00000000000E+00 0. -1.
        -11   -1    0    0    0    0 -0.00000000000E+00 -0.00000000000E+00 -0.50000000000E+02  0.50000000000E+02  0.00000000000E+00 0.  1.
         23    2    1    2    0    0  0.00000000000E+00  0.00000000000E+00  0.00000000000E+00  0.10000000000E+03  0.10000000000E+03 0.  0.
          5    1    3    3  501    0 -0.15949503182E+02 -0.46714236884E+02  0.64267737320E+01  0.50000000000E+02  0.47000000000E+01 0. -1.
         -5    1    3    3    0  501  0.15949503182E+02  0.46714236884E+02 -0.64267737320E+01  0.50000000000E+02  0.47000000000E+01 0.  1.
</event>
<event>
 5    1  0.9081766E-001  0.1000000E+03  0.7546771E-02  0.1163815E+00
         11   -1    0    0    0    0  0.00000000000E+00  0.00000000000E+00  0.50000000000E+02  0.50000000000E+02  0.00000000000E+00 0. -1.
        -11   -1    0    0    0    0 -0.00000000000E+00 -0.00000000000E+00 -0.50000000000E+02  0.50000000000E+02  0.00000000000E+00 0.  1.
         23    2    1    2    0    0  0.00000000000E+00  0.00000000000E+00  0.00000000000E+00  0.10000000000E+03  0.10000000000E+03 0.  0.
          5    1    3    3  501    0  0.38262262113E+02  0.12483838250E+02  0.29292713779E+02  0.50000000000E+02  0.47000000000E+01 0. -1.
         -5    1    3    3    0  501 -0.38262262113E+02 -0.12483838250E+02 -0.29292713779E+02  0.50000000000E+02  0.47000000000E+01 0.  1.
</event>
<event>
 5    1  0.9081766E-001  0.1000000E+03  0.7546771E-02  0.1163815E+00
         11   -1    0    0    0    0  0.00000000000E+00  0.00000000000E+00  0.50000000000E+02  0.50000000000E+02  0.00000000000E+00 0. -1.
        -11   -1    0    0    0    0 -0.00000000000E+00 -0.00000000000E+00 -0.50000000000E+02  0.50000000000E+02  0.00000000000E+00 0.  1.
         23    2    1    2    0    0  0.00000000000E+00  0.00000000000E+00  0.00000000000E+00  0.10000000000E+03  0.10000000000E+03 0.  0.
          5    1    3    3  501    0  0.37291260718E+02 -0.11091315674E+02  0.31052449029E+02  0.50000000000E+02  0.47000000000E+01 0. -1.
         -5    1    3    3    0  501 -0.37291260718E+02  0.11091315674E+02 -0.31052449029E+02  0.50000000000E+02  0.47000000000E+01 0.  1.
</event>
<event>
 5    1  0.9081766E-001  0.1000000E+03  0.7546771E-02  0.1163815E+00
         11   -1    0    0    0    0  0.00000000000E+00  0.00000000000E+00  0.50000000000E+02  0.50000000000E+02  0.00000000000E+00 0.  1.
        -11   -1    0    0    0    0 -0.00000000000E+00 -0.00000000000E+00 -0.50000000000E+02  0.50000000000E+02  0.00000000000E+00 0. -1.
         23    2    1    2    0    0  0.00000000000E+00  0.00000000000E+00  0.00000000000E+00  0.10000000000E+03  0.10000000000E+03 0.  0.
          5    1    3    3  501    0 -0.30616438030E+02  0.36365668099E+02 -0.14767596487E+02  0.50000000000E+02  0.47000000000E+01 0. -1.
         -5    1    3    3    0  501  0.30616438030E+02 -0.36365668099E+02  0.14767596487E+02  0.50000000000E+02  0.47000000000E+01 0.  1.
</event>
<event>
 5    1  0.9081766E-001  0.1000000E+03  0.7546771E-02  0.1163815E+00
         11   -1    0    0    0    0  0.00000000000E+00  0.00000000000E+00  0.50000000000E+02  0.50000000000E+02  0.00000000000E+00 0. -1.
        -11   -1    0    0    0    0 -0.00000000000E+00 -0.00000000000E+00 -0.50000000000E+02  0.50000000000E+02  0.00000000000E+00 0.  1.
         23    2    1    2    0    0  0.00000000000E+00  0.00000000000E+00  0.00000000000E+00  0.10000000000E+03  0.10000000000E+03 0.  0.
          5    1    3    3  501    0 -0.26298220500E+01 -0.45662916354E+02  0.19644136682E+02  0.50000000000E+02  0.47000000000E+01 0. -1.
         -5    1    3    3    0  501  0.26298220500E+01  0.45662916354E+02 -0.19644136682E+02  0.50000000000E+02  0.47000000000E+01 0.  1.
</event>
<event>
 5    1  0.9081766E-001  0.1000000E+03  0.7546771E-02  0.1163815E+00
         11   -1    0    0    0    0  0.00000000000E+00  0.00000000000E+00  0.50000000000E+02  0.50000000000E+02  0.00000000000E+00 0. -1.
        -11   -1    0    0    0    0 -0.00000000000E+00 -0.00000000000E+00 -0.50000000000E+02  0.50000000000E+02  0.00000000000E+00 0.  1.
         23    2    1    2    0    0  0.00000000000E+00  0.00000000000E+00  0.00000000000E+00  0.10000000000E+03  0.10000000000E+03 0.  0.
          5    1    3    3  501    0 -0.15863499371E+02  0.22823382365E+02  0.41295915114E+02  0.50000000000E+02  0.47000000000E+01 0. -1.
         -5    1    3    3    0  501  0.15863499371E+02 -0.22823382365E+02 -0.41295915114E+02  0.50000000000E+02  0.47000000000E+01 0.  1.
</event>
<event>
 5    1  0.9081766E-001  0.1000000E+03  0.7546771E-02  0.1163815E+00
         11   -1    0    0    0    0  0.00000000000E+00  0.00000000000E+00  0.50000000000E+02  0.50000000000E+02  0.00000000000E+00 0.  1.
        -11   -1    0    0    0    0 -0.00000000000E+00 -0.00000000000E+00 -0.50000000000E+02  0.50000000000E+02  0.00000000000E+00 0. -1.
         23    2    1    2    0    0  0.00000000000E+00  0.00000000000E+00  0.00000000000E+00  0.10000000000E+03  0.10000000000E+03 0.  0.
          5    1    3    3  501    0  0.39918418066E+02 -0.28346445591E+01 -0.29603964082E+02  0.50000000000E+02  0.47000000000E+01 0. -1.
         -5    1    3    3    0  501 -0.39918418066E+02  0.28346445591E+01  0.29603964082E+02  0.50000000000E+02  0.47000000000E+01 0.  1.
</event>
<event>
 5    1  0.9081766E-001  0.1000000E+03  0.7546771E-02  0.1163815E+00
         11   -1    0    0    0    0  0.00000000000E+00  0.00000000000E+00  0.50000000000E+02  0.50000000000E+02  0.00000000000E+00 0. -1.
        -11   -1    0    0    0    0 -0.00000000000E+00 -0.00000000000E+00 -0.50000000000E+02  0.50000000000E+02  0.00000000000E+00 0.  1.
         23    2    1    2    0    0  0.00000000000E+00  0.00000000000E+00  0.00000000000E+00  0.10000000000E+03  0.10000000000E+03 0.  0.
          5    1    3    3  501    0 -0.58558352389E+01 -0.69716614381E+01  0.48938891798E+02  0.50000000000E+02  0.47000000000E+01 0. -1.
         -5    1    3    3    0  501  0.58558352389E+01  0.69716614381E+01 -0.48938891798E+02  0.50000000000E+02  0.47000000000E+01 0.  1.
</event>
<event>
 5    1  0.9081766E-001  0.1000000E+03  0.7546771E-02  0.1163815E+00
         11   -1    0    0    0    0  0.00000000000E+00  0.00000000000E+00  0.50000000000E+02  0.50000000000E+02  0.00000000000E+00 0. -1.
        -11   -1    0    0    0    0 -0.00000000000E+00 -0.00000000000E+00 -0.50000000000E+02  0.50000000000E+02  0.00000000000E+00 0.  1.
         23    2    1    2    0    0  0.00000000000E+00  0.00000000000E+00  0.00000000000E+00  0.10000000000E+03  0.10000000000E+03 0.  0.
          5    1    3    3  501    0 -0.18963970971E+02 -0.19856846054E+01  0.45981897108E+02  0.50000000000E+02  0.47000000000E+01 0. -1.
         -5    1    3    3    0  501  0.18963970971E+02  0.19856846054E+01 -0.45981897108E+02  0.50000000000E+02  0.47000000000E+01 0.  1.
</event>
<event>
 5    1  0.9081766E-001  0.1000000E+03  0.7546771E-02  0.1163815E+00
         11   -1    0    0    0    0  0.00000000000E+00  0.00000000000E+00  0.50000000000E+02  0.50000000000E+02  0.00000000000E+00 0.  1.
        -11   -1    0    0    0    0 -0.00000000000E+00 -0.00000000000E+00 -0.50000000000E+02  0.50000000000E+02  0.00000000000E+00 0. -1.
         23    2    1    2    0    0  0.00000000000E+00  0.00000000000E+00  0.00000000000E+00  0.10000000000E+03  0.10000000000E+03 0.  0.
          5    1    3    3  501    0  0.10162113977E+01  0.15888764317E+02 -0.47163804797E+02  0.50000000000E+02  0.47000000000E+01 0. -1.
         -5    1    3    3    0  501 -0.10162113977E+01 -0.15888764317E+02  0.47163804797E+02  0.50000000000E+02  0.47000000000E+01 0.  1.
</event>
<event>
 5    1  0.9081766E-001  0.1000000E+03  0.7546771E-02  0.1163815E+00
         11   -1    0    0    0    0  0.00000000000E+00  0.00000000000E+00  0.50000000000E+02  0.50000000000E+02  0.00000000000E+00 0. -1.
        -11   -1    0    0    0    0 -0.00000000000E+00 -0.00000000000E+00 -0.50000000000E+02  0.50000000000E+02  0.00000000000E+00 0.  1.
         23    2    1    2    0    0  0.00000000000E+00  0.00000000000E+00  0.00000000000E+00  0.10000000000E+03  0.10000000000E+03 0.  0.
          5    1    3    3  501    0  0.34966552157E+02 -0.34110567799E+02  0.95770243129E+01  0.50000000000E+02  0.47000000000E+01 0. -1.
         -5    1    3    3    0  501 -0.34966552157E+02  0.34110567799E+02 -0.95770243129E+01  0.50000000000E+02  0.47000000000E+01 0.  1.
</event>
<event>
 5    1  0.9081766E-001  0.1000000E+03  0.7546771E-02  0.1163815E+00
         11   -1    0    0    0    0  0.00000000000E+00  0.00000000000E+00  0.50000000000E+02  0.50000000000E+02  0.00000000000E+00 0. -1.
        -11   -1    0    0    0    0 -0.00000000000E+00 -0.00000000000E+00 -0.50000000000E+02  0.50000000000E+02  0.00000000000E+00 0.  1.
         23    2    1    2    0    0  0.00000000000E+00  0.00000000000E+00  0.00000000000E+00  0.10000000000E+03  0.10000000000E+03 0.  0.
          5    1    3    3  501    0  0.28993762301E+02  0.93543333754E+01  0.39367095330E+02  0.50000000000E+02  0.47000000000E+01 0. -1.
         -5    1    3    3    0  501 -0.28993762301E+02 -0.93543333754E+01 -0.39367095330E+02  0.50000000000E+02  0.47000000000E+01 0.  1.
</event>
<event>
 5    1  0.9081766E-001  0.1000000E+03  0.7546771E-02  0.1163815E+00
         11   -1    0    0    0    0  0.00000000000E+00  0.00000000000E+00  0.50000000000E+02  0.50000000000E+02  0.00000000000E+00 0.  1.
        -11   -1    0    0    0    0 -0.00000000000E+00 -0.00000000000E+00 -0.50000000000E+02  0.50000000000E+02  0.00000000000E+00 0. -1.
         23    2    1    2    0    0  0.00000000000E+00  0.00000000000E+00  0.00000000000E+00  0.10000000000E+03  0.10000000000E+03 0.  0.
          5    1    3    3  501    0 -0.44714397086E+02  0.13659035505E+01 -0.21832704842E+02  0.50000000000E+02  0.47000000000E+01 0. -1.
         -5    1    3    3    0  501  0.44714397086E+02 -0.13659035505E+01  0.21832704842E+02  0.50000000000E+02  0.47000000000E+01 0.  1.
</event>
<event>
 5    1  0.9081766E-001  0.1000000E+03  0.7546771E-02  0.1163815E+00
         11   -1    0    0    0    0  0.00000000000E+00  0.00000000000E+00  0.50000000000E+02  0.50000000000E+02  0.00000000000E+00 0. -1.
        -11   -1    0    0    0    0 -0.00000000000E+00 -0.00000000000E+00 -0.50000000000E+02  0.50000000000E+02  0.00000000000E+00 0.  1.
         23    2    1    2    0    0  0.00000000000E+00  0.00000000000E+00  0.00000000000E+00  0.10000000000E+03  0.10000000000E+03 0.  0.
          5    1    3    3  501    0  0.45573617053E+02 -0.53688803175E+01  0.19290685651E+02  0.50000000000E+02  0.47000000000E+01 0. -1.
         -5    1    3    3    0  501 -0.45573617053E+02  0.53688803175E+01 -0.19290685651E+02  0.50000000000E+02  0.47000000000E+01 0.  1.
</event>
<event>
 5    1  0.9081766E-001  0.1000000E+03  0.7546771E-02  0.1163815E+00
         11   -1    0    0    0    0  0.00000000000E+00  0.00000000000E+00  0.50000000000E+02  0.50000000000E+02  0.00000000000E+00 0. -1.
        -11   -1    0    0    0    0 -0.00000000000E+00 -0.00000000000E+00 -0.50000000000E+02  0.50000000000E+02  0.00000000000E+00 0.  1.
         23    2    1    2    0    0  0.00000000000E+00  0.00000000000E+00  0.00000000000E+00  0.10000000000E+03  0.10000000000E+03 0.  0.
          5    1    3    3  501    0  0.15511349360E+02  0.44758912796E+02 -0.15295351134E+02  0.50000000000E+02  0.47000000000E+01 0. -1.
         -5    1    3    3    0  501 -0.15511349360E+02 -0.44758912796E+02  0.15295351134E+02  0.50000000000E+02  0.47000000000E+01 0.  1.
</event>
<event>
 5    1  0.9081766E-001  0.1000000E+03  0.7546771E-02  0.1163815E+00
         11   -1    0    0    0    0  0.00000000000E+00  0.00000000000E+00  0.50000000000E+02  0.50000000000E+02  0.00000000000E+00 0. -1.
        -11   -1    0    0    0    0 -0.00000000000E+00 -0.00000000000E+00 -0.50000000000E+02  0.50000000000E+02  0.00000000000E+00 0.  1.
         23    2    1    2    0    0  0.00000000000E+00  0.00000000000E+00  0.00000000000E+00  0.10000000000E+03  0.10000000000E+03 0.  0.
          5    1    3    3  501    0 -0.15394966826E+02 -0.13463495265E+02 -0.45383249021E+02  0.50000000000E+02  0.47000000000E+01 0. -1.
         -5    1    3    3    0  501  0.15394966826E+02  0.13463495265E+02  0.45383249021E+02  0.50000000000E+02  0.47000000000E+01 0.  1.
</event>
<event>
 5    1  0.9081766E-001  0.1000000E+03  0.7546771E-02  0.1163815E+00
         11   -1    0    0    0    0  0.00000000000E+00  0.00000000000E+00  0.50000000000E+02  0.50000000000E+02  0.00000000000E+00 0. -1.
        -11   -1    0    0    0    0 -0.00000000000E+00 -0.00000000000E+00 -0.50000000000E+02  0.50000000000E+02  0.00000000000E+00 0.  1.
         23    2    1    2    0    0  0.00000000000E+00  0.00000000000E+00  0.00000000000E+00  0.10000000000E+03  0.10000000000E+03 0.  0.
          5    1    3    3  501    0 -0.45668149461E+02 -0.19601763448E+02  0.28462246103E+01  0.50000000000E+02  0.47000000000E+01 0. -1.
         -5    1    3    3    0  501  0.45668149461E+02  0.19601763448E+02 -0.28462246103E+01  0.50000000000E+02  0.47000000000E+01 0.  1.
</event>
<event>
 5    1  0.9081766E-001  0.1000000E+03  0.7546771E-02  0.1163815E+00
         11   -1    0    0    0    0  0.00000000000E+00  0.00000000000E+00  0.50000000000E+02  0.50000000000E+02  0.00000000000E+00 0. -1.
        -11   -1    0    0    0    0 -0.00000000000E+00 -0.00000000000E+00 -0.50000000000E+02  0.50000000000E+02  0.00000000000E+00 0.  1.
         23    2    1    2    0    0  0.00000000000E+00  0.00000000000E+00  0.00000000000E+00  0.10000000000E+03  0.10000000000E+03 0.  0.
          5    1    3    3  501    0 -0.28842113540E+02 -0.16765400570E+02  0.36945416905E+02  0.50000000000E+02  0.47000000000E+01 0. -1.
         -5    1    3    3    0  501  0.28842113540E+02  0.16765400570E+02 -0.36945416905E+02  0.50000000000E+02  0.47000000000E+01 0.  1.
</event>
<event>
 5    1  0.9081766E-001  0.1000000E+03  0.7546771E-02  0.1163815E+00
         11   -1    0    0    0    0  0.00000000000E+00  0.00000000000E+00  0.50000000000E+02  0.50000000000E+02  0.00000000000E+00 0. -1.
        -11   -1    0    0    0    0 -0.00000000000E+00 -0.00000000000E+00 -0.50000000000E+02  0.50000000000E+02  0.00000000000E+00 0.  1.
         23    2    1    2    0    0  0.00000000000E+00  0.00000000000E+00  0.00000000000E+00  0.10000000000E+03  0.10000000000E+03 0.  0.
          5    1    3    3  501    0 -0.16194229734E+02 -0.47040350720E+02  0.16918414513E+01  0.50000000000E+02  0.47000000000E+01 0. -1.
         -5    1    3    3    0  501  0.16194229734E+02  0.47040350720E+02 -0.16918414513E+01  0.50000000000E+02  0.47000000000E+01 0.  1.
</event>
<event>
 5    1  0.9081766E-001  0.1000000E+03  0.7546771E-02  0.1163815E+00
         11   -1    0    0    0    0  0.00000000000E+00  0.00000000000E+00  0.50000000000E+02  0.50000000000E+02  0.00000000000E+00 0. -1.
        -11   -1    0    0    0    0 -0.00000000000E+00 -0.00000000000E+00 -0.50000000000E+02  0.50000000000E+02  0.00000000000E+00 0.  1.
         23    2    1    2    0    0  0.00000000000E+00  0.00000000000E+00  0.00000000000E+00  0.10000000000E+03  0.10000000000E+03 0.  0.
          5    1    3    3  501    0  0.34221608591E+02 -0.19322740674E+02  0.30551975359E+02  0.50000000000E+02  0.47000000000E+01 0. -1.
         -5    1    3    3    0  501 -0.34221608591E+02  0.19322740674E+02 -0.30551975359E+02  0.50000000000E+02  0.47000000000E+01 0.  1.
</event>
<event>
 5    1  0.9081766E-001  0.1000000E+03  0.7546771E-02  0.1163815E+00
         11   -1    0    0    0    0  0.00000000000E+00  0.00000000000E+00  0.50000000000E+02  0.50000000000E+02  0.00000000000E+00 0.  1.
        -11   -1    0    0    0    0 -0.00000000000E+00 -0.00000000000E+00 -0.50000000000E+02  0.50000000000E+02  0.00000000000E+00 0. -1.
         23    2    1    2    0    0  0.00000000000E+00  0.00000000000E+00  0.00000000000E+00  0.10000000000E+03  0.10000000000E+03 0.  0.
          5    1    3    3  501    0  0.19376995627E+01 -0.49740483295E+02 -0.19910292975E+00  0.50000000000E+02  0.47000000000E+01 0. -1.
         -5    1    3    3    0  501 -0.19376995627E+01  0.49740483295E+02  0.19910292975E+00  0.50000000000E+02  0.47000000000E+01 0.  1.
</event>
<event>
 5    1  0.9081766E-001  0.1000000E+03  0.7546771E-02  0.1163815E+00
         11   -1    0    0    0    0  0.00000000000E+00  0.00000000000E+00  0.50000000000E+02  0.50000000000E+02  0.00000000000E+00 0.  1.
        -11   -1    0    0    0    0 -0.00000000000E+00 -0.00000000000E+00 -0.50000000000E+02  0.50000000000E+02  0.00000000000E+00 0. -1.
         23    2    1    2    0    0  0.00000000000E+00  0.00000000000E+00  0.00000000000E+00  0.10000000000E+03  0.10000000000E+03 0.  0.
          5    1    3    3  501    0 -0.45475256320E+02 -0.29576578204E+01 -0.20029061957E+02  0.50000000000E+02  0.47000000000E+01 0. -1.
         -5    1    3    3    0  501  0.45475256320E+02  0.29576578204E+01  0.20029061957E+02  0.50000000000E+02  0.47000000000E+01 0.  1.
</event>
<event>
 5    1  0.9081766E-001  0.1000000E+03  0.7546771E-02  0.1163815E+00
         11   -1    0    0    0    0  0.00000000000E+00  0.00000000000E+00  0.50000000000E+02  0.50000000000E+02  0.00000000000E+00 0. -1.
        -11   -1    0    0    0    0 -0.00000000000E+00 -0.00000000000E+00 -0.50000000000E+02  0.50000000000E+02  0.00000000000E+00 0.  1.
         23    2    1    2    0    0  0.00000000000E+00  0.00000000000E+00  0.00000000000E+00  0.10000000000E+03  0.10000000000E+03 0.  0.
          5    1    3    3  501    0 -0.18113966067E+02 -0.37024391704E+02 -0.27910368186E+02  0.50000000000E+02  0.47000000000E+01 0. -1.
         -5    1    3    3    0  501  0.18113966067E+02  0.37024391704E+02  0.27910368186E+02  0.50000000000E+02  0.47000000000E+01 0.  1.
</event>
<event>
 5    1  0.9081766E-001  0.1000000E+03  0.7546771E-02  0.1163815E+00
         11   -1    0    0    0    0  0.00000000000E+00  0.00000000000E+00  0.50000000000E+02  0.50000000000E+02  0.00000000000E+00 0. -1.
        -11   -1    0    0    0    0 -0.00000000000E+00 -0.00000000000E+00 -0.50000000000E+02  0.50000000000E+02  0.00000000000E+00 0.  1.
         23    2    1    2    0    0  0.00000000000E+00  0.00000000000E+00  0.00000000000E+00  0.10000000000E+03  0.10000000000E+03 0.  0.
          5    1    3    3  501    0 -0.29531279362E+02 -0.36114450323E+02 -0.17365483498E+02  0.50000000000E+02  0.47000000000E+01 0. -1.
         -5    1    3    3    0  501  0.29531279362E+02  0.36114450323E+02  0.17365483498E+02  0.50000000000E+02  0.47000000000E+01 0.  1.
</event>
<event>
 5    1  0.9081766E-001  0.1000000E+03  0.7546771E-02  0.1163815E+00
         11   -1    0    0    0    0  0.00000000000E+00  0.00000000000E+00  0.50000000000E+02  0.50000000000E+02  0.00000000000E+00 0. -1.
        -11   -1    0    0    0    0 -0.00000000000E+00 -0.00000000000E+00 -0.50000000000E+02  0.50000000000E+02  0.00000000000E+00 0.  1.
         23    2    1    2    0    0  0.00000000000E+00  0.00000000000E+00  0.00000000000E+00  0.10000000000E+03  0.10000000000E+03 0.  0.
          5    1    3    3  501    0 -0.25026836379E+02  0.41840022398E+02  0.10048879866E+02  0.50000000000E+02  0.47000000000E+01 0. -1.
         -5    1    3    3    0  501  0.25026836379E+02 -0.41840022398E+02 -0.10048879866E+02  0.50000000000E+02  0.47000000000E+01 0.  1.
</event>
<event>
 5    1  0.9081766E-001  0.1000000E+03  0.7546771E-02  0.1163815E+00
         11   -1    0    0    0    0  0.00000000000E+00  0.00000000000E+00  0.50000000000E+02  0.50000000000E+02  0.00000000000E+00 0.  1.
        -11   -1    0    0    0    0 -0.00000000000E+00 -0.00000000000E+00 -0.50000000000E+02  0.50000000000E+02  0.00000000000E+00 0. -1.
         23    2    1    2    0    0  0.00000000000E+00  0.00000000000E+00  0.00000000000E+00  0.10000000000E+03  0.10000000000E+03 0.  0.
          5    1    3    3  501    0  0.30335686972E+01 -0.43014083806E+02 -0.24869580924E+02  0.50000000000E+02  0.47000000000E+01 0. -1.
         -5    1    3    3    0  501 -0.30335686972E+01  0.43014083806E+02  0.24869580924E+02  0.50000000000E+02  0.47000000000E+01 0.  1.
</event>
<event>
 5    1  0.9081766E-001  0.1000000E+03  0.7546771E-02  0.1163815E+00
         11   -1    0    0    0    0  0.00000000000E+00  0.00000000000E+00  0.50000000000E+02  0.50000000000E+02  0.00000000000E+00 0. -1.
        -11   -1    0    0    0    0 -0.00000000000E+00 -0.00000000000E+00 -0.50000000000E+02  0.50000000000E+02  0.00000000000E+00 0.  1.
         23    2    1    2    0    0  0.00000000000E+00  0.00000000000E+00  0.00000000000E+00  0.10000000000E+03  0.10000000000E+03 0.  0.
          5    1    3    3  501    0  0.20525496639E+02  0.36501466927E+01  0.45202770013E+02  0.50000000000E+02  0.47000000000E+01 0. -1.
         -5    1    3    3    0  501 -0.20525496639E+02 -0.36501466927E+01 -0.45202770013E+02  0.50000000000E+02  0.47000000000E+01 0.  1.
</event>
<event>
 5    1  0.9081766E-001  0.1000000E+03  0.7546771E-02  0.1163815E+00
         11   -1    0    0    0    0  0.00000000000E+00  0.00000000000E+00  0.50000000000E+02  0.50000000000E+02  0.00000000000E+00 0. -1.
        -11   -1    0    0    0    0 -0.00000000000E+00 -0.00000000000E+00 -0.50000000000E+02  0.50000000000E+02  0.00000000000E+00 0.  1.
         23    2    1    2    0    0  0.00000000000E+00  0.00000000000E+00  0.00000000000E+00  0.10000000000E+03  0.10000000000E+03 0.  0.
          5    1    3    3  501    0  0.45516959840E+01  0.49460307324E+02  0.32969778690E+01  0.50000000000E+02  0.47000000000E+01 0. -1.
         -5    1    3    3    0  501 -0.45516959840E+01 -0.49460307324E+02 -0.32969778690E+01  0.50000000000E+02  0.47000000000E+01 0.  1.
</event>
<event>
 5    1  0.9081766E-001  0.1000000E+03  0.7546771E-02  0.1163815E+00
         11   -1    0    0    0    0  0.00000000000E+00  0.00000000000E+00  0.50000000000E+02  0.50000000000E+02  0.00000000000E+00 0. -1.
        -11   -1    0    0    0    0 -0.00000000000E+00 -0.00000000000E+00 -0.50000000000E+02  0.50000000000E+02  0.00000000000E+00 0.  1.
         23    2    1    2    0    0  0.00000000000E+00  0.00000000000E+00  0.00000000000E+00  0.10000000000E+03  0.10000000000E+03 0.  0.
          5    1    3    3  501    0  0.82999245755E+01  0.53343538824E+01  0.48791043448E+02  0.50000000000E+02  0.47000000000E+01 0. -1.
         -5    1    3    3    0  501 -0.82999245755E+01 -0.53343538824E+01 -0.48791043448E+02  0.50000000000E+02  0.47000000000E+01 0.  1.
</event>
<event>
 5    1  0.9081766E-001  0.1000000E+03  0.7546771E-02  0.1163815E+00
         11   -1    0    0    0    0  0.00000000000E+00  0.00000000000E+00  0.50000000000E+02  0.50000000000E+02  0.00000000000E+00 0.  1.
        -11   -1    0    0    0    0 -0.00000000000E+00 -0.00000000000E+00 -0.50000000000E+02  0.50000000000E+02  0.00000000000E+00 0. -1.
         23    2    1    2    0    0  0.00000000000E+00  0.00000000000E+00  0.00000000000E+00  0.10000000000E+03  0.10000000000E+03 0.  0.
          5    1    3    3  501    0 -0.26905946149E+02  0.33350285188E+02 -0.25332558886E+02  0.50000000000E+02  0.47000000000E+01 0. -1.
         -5    1    3    3    0  501  0.26905946149E+02 -0.33350285188E+02  0.25332558886E+02  0.50000000000E+02  0.47000000000E+01 0.  1.
</event>
<event>
 5    1  0.9081766E-001  0.1000000E+03  0.7546771E-02  0.1163815E+00
         11   -1    0    0    0    0  0.00000000000E+00  0.00000000000E+00  0.50000000000E+02  0.50000000000E+02  0.00000000000E+00 0. -1.
        -11   -1    0    0    0    0 -0.00000000000E+00 -0.00000000000E+00 -0.50000000000E+02  0.50000000000E+02  0.00000000000E+00 0.  1.
         23    2    1    2    0    0  0.00000000000E+00  0.00000000000E+00  0.00000000000E+00  0.10000000000E+03  0.10000000000E+03 0.  0.
          5    1    3    3  501    0 -0.26577268975E+02  0.31363246150E+00  0.42088720680E+02  0.50000000000E+02  0.47000000000E+01 0. -1.
         -5    1    3    3    0  501  0.26577268975E+02 -0.31363246150E+00 -0.42088720680E+02  0.50000000000E+02  0.47000000000E+01 0.  1.
</event>
<event>
 5    1  0.9081766E-001  0.1000000E+03  0.7546771E-02  0.1163815E+00
         11   -1    0    0    0    0  0.00000000000E+00  0.00000000000E+00  0.50000000000E+02  0.50000000000E+02  0.00000000000E+00 0.  1.
        -11   -1    0    0    0    0 -0.00000000000E+00 -0.00000000000E+00 -0.50000000000E+02  0.50000000000E+02  0.00000000000E+00 0. -1.
         23    2    1    2    0    0  0.00000000000E+00  0.00000000000E+00  0.00000000000E+00  0.10000000000E+03  0.10000000000E+03 0.  0.
          5    1    3    3  501    0 -0.41207675578E+02  0.25328503583E+02 -0.11760288247E+02  0.50000000000E+02  0.47000000000E+01 0. -1.
         -5    1    3    3    0  501  0.41207675578E+02 -0.25328503583E+02  0.11760288247E+02  0.50000000000E+02  0.47000000000E+01 0.  1.
</event>
<event>
 5    1  0.9081766E-001  0.1000000E+03  0.7546771E-02  0.1163815E+00
         11   -1    0    0    0    0  0.00000000000E+00  0.00000000000E+00  0.50000000000E+02  0.50000000000E+02  0.00000000000E+00 0. -1.
        -11   -1    0    0    0    0 -0.00000000000E+00 -0.00000000000E+00 -0.50000000000E+02  0.50000000000E+02  0.00000000000E+00 0.  1.
         23    2    1    2    0    0  0.00000000000E+00  0.00000000000E+00  0.00000000000E+00  0.10000000000E+03  0.10000000000E+03 0.  0.
          5    1    3    3  501    0  0.74844476416E+01  0.23463960957E+02  0.43258936414E+02  0.50000000000E+02  0.47000000000E+01 0. -1.
         -5    1    3    3    0  501 -0.74844476416E+01 -0.23463960957E+02 -0.43258936414E+02  0.50000000000E+02  0.47000000000E+01 0.  1.
</event>
<event>
 5    1  0.9081766E-001  0.1000000E+03  0.7546771E-02  0.1163815E+00
         11   -1    0    0    0    0  0.00000000000E+00  0.00000000000E+00  0.50000000000E+02  0.50000000000E+02  0.00000000000E+00 0.  1.
        -11   -1    0    0    0    0 -0.00000000000E+00 -0.00000000000E+00 -0.50000000000E+02  0.50000000000E+02  0.00000000000E+00 0. -1.
         23    2    1    2    0    0  0.00000000000E+00  0.00000000000E+00  0.00000000000E+00  0.10000000000E+03  0.10000000000E+03 0.  0.
          5    1    3    3  501    0  0.39752896814E+02  0.26578715485E+02 -0.13827113872E+02  0.50000000000E+02  0.47000000000E+01 0. -1.
         -5    1    3    3    0  501 -0.39752896814E+02 -0.26578715485E+02  0.13827113872E+02  0.50000000000E+02  0.47000000000E+01 0.  1.
</event>
<event>
 5    1  0.9081766E-001  0.1000000E+03  0.7546771E-02  0.1163815E+00
         11   -1    0    0    0    0  0.00000000000E+00  0.00000000000E+00  0.50000000000E+02  0.50000000000E+02  0.00000000000E+00 0. -1.
        -11   -1    0    0    0    0 -0.00000000000E+00 -0.00000000000E+00 -0.50000000000E+02  0.50000000000E+02  0.00000000000E+00 0.  1.
         23    2    1    2    0    0  0.00000000000E+00  0.00000000000E+00  0.00000000000E+00  0.10000000000E+03  0.10000000000E+03 0.  0.
          5    1    3    3  501    0 -0.87464425413E+01 -0.42371313053E+01  0.48820656091E+02  0.50000000000E+02  0.47000000000E+01 0. -1.
         -5    1    3    3    0  501  0.87464425413E+01  0.42371313053E+01 -0.48820656091E+02  0.50000000000E+02  0.47000000000E+01 0.  1.
</event>
<event>
 5    1  0.9081766E-001  0.1000000E+03  0.7546771E-02  0.1163815E+00
         11   -1    0    0    0    0  0.00000000000E+00  0.00000000000E+00  0.50000000000E+02  0.50000000000E+02  0.00000000000E+00 0. -1.
        -11   -1    0    0    0    0 -0.00000000000E+00 -0.00000000000E+00 -0.50000000000E+02  0.50000000000E+02  0.00000000000E+00 0.  1.
         23    2    1    2    0    0  0.00000000000E+00  0.00000000000E+00  0.00000000000E+00  0.10000000000E+03  0.10000000000E+03 0.  0.
          5    1    3    3  501    0  0.46387763777E+02  0.17431306709E+02 -0.47153916223E+01  0.50000000000E+02  0.47000000000E+01 0. -1.
         -5    1    3    3    0  501 -0.46387763777E+02 -0.17431306709E+02  0.47153916223E+01  0.50000000000E+02  0.47000000000E+01 0.  1.
</event>
<event>
 5    1  0.9081766E-001  0.1000000E+03  0.7546771E-02  0.1163815E+00
         11   -1    0    0    0    0  0.00000000000E+00  0.00000000000E+00  0.50000000000E+02  0.50000000000E+02  0.00000000000E+00 0.  1.
        -11   -1    0    0    0    0 -0.00000000000E+00 -0.00000000000E+00 -0.50000000000E+02  0.50000000000E+02  0.00000000000E+00 0. -1.
         23    2    1    2    0    0  0.00000000000E+00  0.00000000000E+00  0.00000000000E+00  0.10000000000E+03  0.10000000000E+03 0.  0.
          5    1    3    3  501    0  0.43362077507E+02  0.22313425997E+02 -0.99875549819E+01  0.50000000000E+02  0.47000000000E+01 0. -1.
         -5    1    3    3    0  501 -0.43362077507E+02 -0.22313425997E+02  0.99875549819E+01  0.50000000000E+02  0.47000000000E+01 0.  1.
</event>
<event>
 5    1  0.9081766E-001  0.1000000E+03  0.7546771E-02  0.1163815E+00
         11   -1    0    0    0    0  0.00000000000E+00  0.00000000000E+00  0.50000000000E+02  0.50000000000E+02  0.00000000000E+00 0. -1.
        -11   -1    0    0    0    0 -0.00000000000E+00 -0.00000000000E+00 -0.50000000000E+02  0.50000000000E+02  0.00000000000E+00 0.  1.
         23    2    1    2    0    0  0.00000000000E+00  0.00000000000E+00  0.00000000000E+00  0.10000000000E+03  0.10000000000E+03 0.  0.
          5    1    3    3  501    0 -0.38842454634E+02  0.18605763577E+02  0.24959953520E+02  0.50000000000E+02  0.47000000000E+01 0. -1.
         -5    1    3    3    0  501  0.38842454634E+02 -0.18605763577E+02 -0.24959953520E+02  0.50000000000E+02  0.47000000000E+01 0.  1.
</event>
<event>
 5    1  0.9081766E-001  0.1000000E+03  0.7546771E-02  0.1163815E+00
         11   -1    0    0    0    0  0.00000000000E+00  0.00000000000E+00  0.50000000000E+02  0.50000000000E+02  0.00000000000E+00 0. -1.
        -11   -1    0    0    0    0 -0.00000000000E+00 -0.00000000000E+00 -0.50000000000E+02  0.50000000000E+02  0.00000000000E+00 0.  1.
         23    2    1    2    0    0  0.00000000000E+00  0.00000000000E+00  0.00000000000E+00  0.10000000000E+03  0.10000000000E+03 0.  0.
          5    1    3    3  501    0  0.43870025967E+02  0.21737584054E+02 -0.89893415314E+01  0.50000000000E+02  0.47000000000E+01 0. -1.
         -5    1    3    3    0  501 -0.43870025967E+02 -0.21737584054E+02  0.89893415314E+01  0.50000000000E+02  0.47000000000E+01 0.  1.
</event>
<event>
 5    1  0.9081766E-001  0.1000000E+03  0.7546771E-02  0.1163815E+00
         11   -1    0    0    0    0  0.00000000000E+00  0.00000000000E+00  0.50000000000E+02  0.50000000000E+02  0.00000000000E+00 0. -1.
        -11   -1    0    0    0    0 -0.00000000000E+00 -0.00000000000E+00 -0.50000000000E+02  0.50000000000E+02  0.00000000000E+00 0.  1.
         23    2    1    2    0    0  0.00000000000E+00  0.00000000000E+00  0.00000000000E+00  0.10000000000E+03  0.10000000000E+03 0.  0.
          5    1    3    3  501    0  0.10861536907E+02  0.19319094310E+02  0.44572520807E+02  0.50000000000E+02  0.47000000000E+01 0. -1.
         -5    1    3    3    0  501 -0.10861536907E+02 -0.19319094310E+02 -0.44572520807E+02  0.50000000000E+02  0.47000000000E+01 0.  1.
</event>
<event>
 5    1  0.9081766E-001  0.1000000E+03  0.7546771E-02  0.1163815E+00
         11   -1    0    0    0    0  0.00000000000E+00  0.00000000000E+00  0.50000000000E+02  0.50000000000E+02  0.00000000000E+00 0. -1.
        -11   -1    0    0    0    0 -0.00000000000E+00 -0.00000000000E+00 -0.50000000000E+02  0.50000000000E+02  0.00000000000E+00 0.  1.
         23    2    1    2    0    0  0.00000000000E+00  0.00000000000E+00  0.00000000000E+00  0.10000000000E+03  0.10000000000E+03 0.  0.
          5    1    3    3  501    0 -0.21138237379E+02 -0.43850476536E+02  0.10402914404E+02  0.50000000000E+02  0.47000000000E+01 0. -1.
         -5    1    3    3    0  501  0.21138237379E+02  0.43850476536E+02 -0.10402914404E+02  0.50000000000E+02  0.47000000000E+01 0.  1.
</event>
<event>
 5    1  0.9081766E-001  0.1000000E+03  0.7546771E-02  0.1163815E+00
         11   -1    0    0    0    0  0.00000000000E+00  0.00000000000E+00  0.50000000000E+02  0.50000000000E+02  0.00000000000E+00 0. -1.
        -11   -1    0    0    0    0 -0.00000000000E+00 -0.00000000000E+00 -0.50000000000E+02  0.50000000000E+02  0.00000000000E+00 0.  1.
         23    2    1    2    0    0  0.00000000000E+00  0.00000000000E+00  0.00000000000E+00  0.10000000000E+03  0.10000000000E+03 0.  0.
          5    1    3    3  501    0 -0.31157126805E+02 -0.32153543552E+02  0.21755300190E+02  0.50000000000E+02  0.47000000000E+01 0. -1.
         -5    1    3    3    0  501  0.31157126805E+02  0.32153543552E+02 -0.21755300190E+02  0.50000000000E+02  0.47000000000E+01 0.  1.
</event>
<event>
 5    1  0.9081766E-001  0.1000000E+03  0.7546771E-02  0.1163815E+00
         11   -1    0    0    0    0  0.00000000000E+00  0.00000000000E+00  0.50000000000E+02  0.50000000000E+02  0.00000000000E+00 0. -1.
        -11   -1    0    0    0    0 -0.00000000000E+00 -0.00000000000E+00 -0.50000000000E+02  0.50000000000E+02  0.00000000000E+00 0.  1.
         23    2    1    2    0    0  0.00000000000E+00  0.00000000000E+00  0.00000000000E+00  0.10000000000E+03  0.10000000000E+03 0.  0.
          5    1    3    3  501    0 -0.31248858871E+01 -0.47113977771E+02  0.15761287599E+02  0.50000000000E+02  0.47000000000E+01 0. -1.
         -5    1    3    3    0  501  0.31248858871E+01  0.47113977771E+02 -0.15761287599E+02  0.50000000000E+02  0.47000000000E+01 0.  1.
</event>
<event>
 5    1  0.9081766E-001  0.1000000E+03  0.7546771E-02  0.1163815E+00
         11   -1    0    0    0    0  0.00000000000E+00  0.00000000000E+00  0.50000000000E+02  0.50000000000E+02  0.00000000000E+00 0. -1.
        -11   -1    0    0    0    0 -0.00000000000E+00 -0.00000000000E+00 -0.50000000000E+02  0.50000000000E+02  0.00000000000E+00 0.  1.
         23    2    1    2    0    0  0.00000000000E+00  0.00000000000E+00  0.00000000000E+00  0.10000000000E+03  0.10000000000E+03 0.  0.
          5    1    3    3  501    0  0.19483534458E+02  0.20523638966E+02  0.40952193209E+02  0.50000000000E+02  0.47000000000E+01 0. -1.
         -5    1    3    3    0  501 -0.19483534458E+02 -0.20523638966E+02 -0.40952193209E+02  0.50000000000E+02  0.47000000000E+01 0.  1.
</event>
<event>
 5    1  0.9081766E-001  0.1000000E+03  0.7546771E-02  0.1163815E+00
         11   -1    0    0    0    0  0.00000000000E+00  0.00000000000E+00  0.50000000000E+02  0.50000000000E+02  0.00000000000E+00 0. -1.
        -11   -1    0    0    0    0 -0.00000000000E+00 -0.00000000000E+00 -0.50000000000E+02  0.50000000000E+02  0.00000000000E+00 0.  1.
         23    2    1    2    0    0  0.00000000000E+00  0.00000000000E+00  0.00000000000E+00  0.10000000000E+03  0.10000000000E+03 0.  0.
          5    1    3    3  501    0  0.27727037648E+02 -0.19087518818E+02  0.36671351334E+02  0.50000000000E+02  0.47000000000E+01 0. -1.
         -5    1    3    3    0  501 -0.27727037648E+02  0.19087518818E+02 -0.36671351334E+02  0.50000000000E+02  0.47000000000E+01 0.  1.
</event>
<event>
 5    1  0.9081766E-001  0.1000000E+03  0.7546771E-02  0.1163815E+00
         11   -1    0    0    0    0  0.00000000000E+00  0.00000000000E+00  0.50000000000E+02  0.50000000000E+02  0.00000000000E+00 0. -1.
        -11   -1    0    0    0    0 -0.00000000000E+00 -0.00000000000E+00 -0.50000000000E+02  0.50000000000E+02  0.00000000000E+00 0.  1.
         23    2    1    2    0    0  0.00000000000E+00  0.00000000000E+00  0.00000000000E+00  0.10000000000E+03  0.10000000000E+03 0.  0.
          5    1    3    3  501    0 -0.44311030022E+02 -0.15252576493E+02 -0.16786945188E+02  0.50000000000E+02  0.47000000000E+01 0. -1.
         -5    1    3    3    0  501  0.44311030022E+02  0.15252576493E+02  0.16786945188E+02  0.50000000000E+02  0.47000000000E+01 0.  1.
</event>
<event>
 5    1  0.9081766E-001  0.1000000E+03  0.7546771E-02  0.1163815E+00
         11   -1    0    0    0    0  0.00000000000E+00  0.00000000000E+00  0.50000000000E+02  0.50000000000E+02  0.00000000000E+00 0. -1.
        -11   -1    0    0    0    0 -0.00000000000E+00 -0.00000000000E+00 -0.50000000000E+02  0.50000000000E+02  0.00000000000E+00 0.  1.
         23    2    1    2    0    0  0.00000000000E+00  0.00000000000E+00  0.00000000000E+00  0.10000000000E+03  0.10000000000E+03 0.  0.
          5    1    3    3  501    0 -0.17110071777E+02  0.62026305489E+01  0.46332308577E+02  0.50000000000E+02  0.47000000000E+01 0. -1.
         -5    1    3    3    0  501  0.17110071777E+02 -0.62026305489E+01 -0.46332308577E+02  0.50000000000E+02  0.47000000000E+01 0.  1.
</event>
<event>
 5    1  0.9081766E-001  0.1000000E+03  0.7546771E-02  0.1163815E+00
         11   -1    0    0    0    0  0.00000000000E+00  0.00000000000E+00  0.50000000000E+02  0.50000000000E+02  0.00000000000E+00 0. -1.
        -11   -1    0    0    0    0 -0.00000000000E+00 -0.00000000000E+00 -0.50000000000E+02  0.50000000000E+02  0.00000000000E+00 0.  1.
         23    2    1    2    0    0  0.00000000000E+00  0.00000000000E+00  0.00000000000E+00  0.10000000000E+03  0.10000000000E+03 0.  0.
          5    1    3    3  501    0  0.13384133046E+02 -0.44997014653E+02  0.16554263949E+02  0.50000000000E+02  0.47000000000E+01 0. -1.
         -5    1    3    3    0  501 -0.13384133046E+02  0.44997014653E+02 -0.16554263949E+02  0.50000000000E+02  0.47000000000E+01 0.  1.
</event>
<event>
 5    1  0.9081766E-001  0.1000000E+03  0.7546771E-02  0.1163815E+00
         11   -1    0    0    0    0  0.00000000000E+00  0.00000000000E+00  0.50000000000E+02  0.50000000000E+02  0.00000000000E+00 0. -1.
        -11   -1    0    0    0    0 -0.00000000000E+00 -0.00000000000E+00 -0.50000000000E+02  0.50000000000E+02  0.00000000000E+00 0.  1.
         23    2    1    2    0    0  0.00000000000E+00  0.00000000000E+00  0.00000000000E+00  0.10000000000E+03  0.10000000000E+03 0.  0.
          5    1    3    3  501    0  0.34844450075E+02  0.90471858093E+01 -0.34379103070E+02  0.50000000000E+02  0.47000000000E+01 0.  1.
         -5    1    3    3    0  501 -0.34844450075E+02 -0.90471858093E+01  0.34379103070E+02  0.50000000000E+02  0.47000000000E+01 0. -1.
</event>
<event>
 5    1  0.9081766E-001  0.1000000E+03  0.7546771E-02  0.1163815E+00
         11   -1    0    0    0    0  0.00000000000E+00  0.00000000000E+00  0.50000000000E+02  0.50000000000E+02  0.00000000000E+00 0. -1.
        -11   -1    0    0    0    0 -0.00000000000E+00 -0.00000000000E+00 -0.50000000000E+02  0.50000000000E+02  0.00000000000E+00 0.  1.
         23    2    1    2    0    0  0.00000000000E+00  0.00000000000E+00  0.00000000000E+00  0.10000000000E+03  0.10000000000E+03 0.  0.
          5    1    3    3  501    0 -0.25771917900E+02 -0.16447904594E+02  0.39283389393E+02  0.50000000000E+02  0.47000000000E+01 0. -1.
         -5    1    3    3    0  501  0.25771917900E+02  0.16447904594E+02 -0.39283389393E+02  0.50000000000E+02  0.47000000000E+01 0.  1.
</event>
<event>
 5    1  0.9081766E-001  0.1000000E+03  0.7546771E-02  0.1163815E+00
         11   -1    0    0    0    0  0.00000000000E+00  0.00000000000E+00  0.50000000000E+02  0.50000000000E+02  0.00000000000E+00 0. -1.
        -11   -1    0    0    0    0 -0.00000000000E+00 -0.00000000000E+00 -0.50000000000E+02  0.50000000000E+02  0.00000000000E+00 0.  1.
         23    2    1    2    0    0  0.00000000000E+00  0.00000000000E+00  0.00000000000E+00  0.10000000000E+03  0.10000000000E+03 0.  0.
          5    1    3    3  501    0  0.32553617873E+02  0.87690591815E+01  0.36623429174E+02  0.50000000000E+02  0.47000000000E+01 0. -1.
         -5    1    3    3    0  501 -0.32553617873E+02 -0.87690591815E+01 -0.36623429174E+02  0.50000000000E+02  0.47000000000E+01 0.  1.
</event>
<event>
 5    1  0.9081766E-001  0.1000000E+03  0.7546771E-02  0.1163815E+00
         11   -1    0    0    0    0  0.00000000000E+00  0.00000000000E+00  0.50000000000E+02  0.50000000000E+02  0.00000000000E+00 0. -1.
        -11   -1    0    0    0    0 -0.00000000000E+00 -0.00000000000E+00 -0.50000000000E+02  0.50000000000E+02  0.00000000000E+00 0.  1.
         23    2    1    2    0    0  0.00000000000E+00  0.00000000000E+00  0.00000000000E+00  0.10000000000E+03  0.10000000000E+03 0.  0.
          5    1    3    3  501    0  0.48348851674E+02  0.13307165193E+01  0.11769780600E+02  0.50000000000E+02  0.47000000000E+01 0. -1.
         -5    1    3    3    0  501 -0.48348851674E+02 -0.13307165193E+01 -0.11769780600E+02  0.50000000000E+02  0.47000000000E+01 0.  1.
</event>
<event>
 5    1  0.9081766E-001  0.1000000E+03  0.7546771E-02  0.1163815E+00
         11   -1    0    0    0    0  0.00000000000E+00  0.00000000000E+00  0.50000000000E+02  0.50000000000E+02  0.00000000000E+00 0. -1.
        -11   -1    0    0    0    0 -0.00000000000E+00 -0.00000000000E+00 -0.50000000000E+02  0.50000000000E+02  0.00000000000E+00 0.  1.
         23    2    1    2    0    0  0.00000000000E+00  0.00000000000E+00  0.00000000000E+00  0.10000000000E+03  0.10000000000E+03 0.  0.
          5    1    3    3  501    0  0.21341151378E+02  0.18337687425E+01  0.44934425000E+02  0.50000000000E+02  0.47000000000E+01 0. -1.
         -5    1    3    3    0  501 -0.21341151378E+02 -0.18337687425E+01 -0.44934425000E+02  0.50000000000E+02  0.47000000000E+01 0.  1.
</event>
<event>
 5    1  0.9081766E-001  0.1000000E+03  0.7546771E-02  0.1163815E+00
         11   -1    0    0    0    0  0.00000000000E+00  0.00000000000E+00  0.50000000000E+02  0.50000000000E+02  0.00000000000E+00 0.  1.
        -11   -1    0    0    0    0 -0.00000000000E+00 -0.00000000000E+00 -0.50000000000E+02  0.50000000000E+02  0.00000000000E+00 0. -1.
         23    2    1    2    0    0  0.00000000000E+00  0.00000000000E+00  0.00000000000E+00  0.10000000000E+03  0.10000000000E+03 0.  0.
          5    1    3    3  501    0  0.17805153444E+02 -0.37751050848E+02  0.27124613743E+02  0.50000000000E+02  0.47000000000E+01 0.  1.
         -5    1    3    3    0  501 -0.17805153444E+02  0.37751050848E+02 -0.27124613743E+02  0.50000000000E+02  0.47000000000E+01 0. -1.
</event>
<event>
 5    1  0.9081766E-001  0.1000000E+03  0.7546771E-02  0.1163815E+00
         11   -1    0    0    0    0  0.00000000000E+00  0.00000000000E+00  0.50000000000E+02  0.50000000000E+02  0.00000000000E+00 0. -1.
        -11   -1    0    0    0    0 -0.00000000000E+00 -0.00000000000E+00 -0.50000000000E+02  0.50000000000E+02  0.00000000000E+00 0.  1.
         23    2    1    2    0    0  0.00000000000E+00  0.00000000000E+00  0.00000000000E+00  0.10000000000E+03  0.10000000000E+03 0.  0.
          5    1    3    3  501    0 -0.41715489250E+02  0.16650053011E+02  0.21459349742E+02  0.50000000000E+02  0.47000000000E+01 0. -1.
         -5    1    3    3    0  501  0.41715489250E+02 -0.16650053011E+02 -0.21459349742E+02  0.50000000000E+02  0.47000000000E+01 0.  1.
</event>
<event>
 5    1  0.9081766E-001  0.1000000E+03  0.7546771E-02  0.1163815E+00
         11   -1    0    0    0    0  0.00000000000E+00  0.00000000000E+00  0.50000000000E+02  0.50000000000E+02  0.00000000000E+00 0.  1.
        -11   -1    0    0    0    0 -0.00000000000E+00 -0.00000000000E+00 -0.50000000000E+02  0.50000000000E+02  0.00000000000E+00 0. -1.
         23    2    1    2    0    0  0.00000000000E+00  0.00000000000E+00  0.00000000000E+00  0.10000000000E+03  0.10000000000E+03 0.  0.
          5    1    3    3  501    0  0.44319701527E+01 -0.44455805806E+02 -0.21953336209E+02  0.50000000000E+02  0.47000000000E+01 0. -1.
         -5    1    3    3    0  501 -0.44319701527E+01  0.44455805806E+02  0.21953336209E+02  0.50000000000E+02  0.47000000000E+01 0.  1.
</event>
<event>
 5    1  0.9081766E-001  0.1000000E+03  0.7546771E-02  0.1163815E+00
         11   -1    0    0    0    0  0.00000000000E+00  0.00000000000E+00  0.50000000000E+02  0.50000000000E+02  0.00000000000E+00 0. -1.
        -11   -1    0    0    0    0 -0.00000000000E+00 -0.00000000000E+00 -0.50000000000E+02  0.50000000000E+02  0.00000000000E+00 0.  1.
         23    2    1    2    0    0  0.00000000000E+00  0.00000000000E+00  0.00000000000E+00  0.10000000000E+03  0.10000000000E+03 0.  0.
          5    1    3    3  501    0  0.34836700915E+02  0.35555415264E+02  0.35597017487E+00  0.50000000000E+02  0.47000000000E+01 0. -1.
         -5    1    3    3    0  501 -0.34836700915E+02 -0.35555415264E+02 -0.35597017487E+00  0.50000000000E+02  0.47000000000E+01 0.  1.
</event>
<event>
 5    1  0.9081766E-001  0.1000000E+03  0.7546771E-02  0.1163815E+00
         11   -1    0    0    0    0  0.00000000000E+00  0.00000000000E+00  0.50000000000E+02  0.50000000000E+02  0.00000000000E+00 0. -1.
        -11   -1    0    0    0    0 -0.00000000000E+00 -0.00000000000E+00 -0.50000000000E+02  0.50000000000E+02  0.00000000000E+00 0.  1.
         23    2    1    2    0    0  0.00000000000E+00  0.00000000000E+00  0.00000000000E+00  0.10000000000E+03  0.10000000000E+03 0.  0.
          5    1    3    3  501    0 -0.14259877786E+02  0.99966294630E+01  0.46632963501E+02  0.50000000000E+02  0.47000000000E+01 0. -1.
         -5    1    3    3    0  501  0.14259877786E+02 -0.99966294630E+01 -0.46632963501E+02  0.50000000000E+02  0.47000000000E+01 0.  1.
</event>
<event>
 5    1  0.9081766E-001  0.1000000E+03  0.7546771E-02  0.1163815E+00
         11   -1    0    0    0    0  0.00000000000E+00  0.00000000000E+00  0.50000000000E+02  0.50000000000E+02  0.00000000000E+00 0.  1.
        -11   -1    0    0    0    0 -0.00000000000E+00 -0.00000000000E+00 -0.50000000000E+02  0.50000000000E+02  0.00000000000E+00 0. -1.
         23    2    1    2    0    0  0.00000000000E+00  0.00000000000E+00  0.00000000000E+00  0.10000000000E+03  0.10000000000E+03 0.  0.
          5    1    3    3  501    0  0.16442823717E+02 -0.27057251767E+02 -0.38411569547E+02  0.50000000000E+02  0.47000000000E+01 0. -1.
         -5    1    3    3    0  501 -0.16442823717E+02  0.27057251767E+02  0.38411569547E+02  0.50000000000E+02  0.47000000000E+01 0.  1.
</event>
<event>
 5    1  0.9081766E-001  0.1000000E+03  0.7546771E-02  0.1163815E+00
         11   -1    0    0    0    0  0.00000000000E+00  0.00000000000E+00  0.50000000000E+02  0.50000000000E+02  0.00000000000E+00 0. -1.
        -11   -1    0    0    0    0 -0.00000000000E+00 -0.00000000000E+00 -0.50000000000E+02  0.50000000000E+02  0.00000000000E+00 0.  1.
         23    2    1    2    0    0  0.00000000000E+00  0.00000000000E+00  0.00000000000E+00  0.10000000000E+03  0.10000000000E+03 0.  0.
          5    1    3    3  501    0  0.21555731678E+02  0.11711375690E+02  0.43314017492E+02  0.50000000000E+02  0.47000000000E+01 0. -1.
         -5    1    3    3    0  501 -0.21555731678E+02 -0.11711375690E+02 -0.43314017492E+02  0.50000000000E+02  0.47000000000E+01 0.  1.
</event>
<event>
 5    1  0.9081766E-001  0.1000000E+03  0.7546771E-02  0.1163815E+00
         11   -1    0    0    0    0  0.00000000000E+00  0.00000000000E+00  0.50000000000E+02  0.50000000000E+02  0.00000000000E+00 0.  1.
        -11   -1    0    0    0    0 -0.00000000000E+00 -0.00000000000E+00 -0.50000000000E+02  0.50000000000E+02  0.00000000000E+00 0. -1.
         23    2    1    2    0    0  0.00000000000E+00  0.00000000000E+00  0.00000000000E+00  0.10000000000E+03  0.10000000000E+03 0.  0.
          5    1    3    3  501    0 -0.72866654467E+01 -0.14530060471E+02 -0.47049886816E+02  0.50000000000E+02  0.47000000000E+01 0. -1.
         -5    1    3    3    0  501  0.72866654467E+01  0.14530060471E+02  0.47049886816E+02  0.50000000000E+02  0.47000000000E+01 0.  1.
</event>
<event>
 5    1  0.9081766E-001  0.1000000E+03  0.7546771E-02  0.1163815E+00
         11   -1    0    0    0    0  0.00000000000E+00  0.00000000000E+00  0.50000000000E+02  0.50000000000E+02  0.00000000000E+00 0. -1.
        -11   -1    0    0    0    0 -0.00000000000E+00 -0.00000000000E+00 -0.50000000000E+02  0.50000000000E+02  0.00000000000E+00 0.  1.
         23    2    1    2    0    0  0.00000000000E+00  0.00000000000E+00  0.00000000000E+00  0.10000000000E+03  0.10000000000E+03 0.  0.
          5    1    3    3  501    0 -0.24059351070E+02 -0.16936337105E+02  0.40152435936E+02  0.50000000000E+02  0.47000000000E+01 0. -1.
         -5    1    3    3    0  501  0.24059351070E+02  0.16936337105E+02 -0.40152435936E+02  0.50000000000E+02  0.47000000000E+01 0.  1.
</event>
<event>
 5    1  0.9081766E-001  0.1000000E+03  0.7546771E-02  0.1163815E+00
         11   -1    0    0    0    0  0.00000000000E+00  0.00000000000E+00  0.50000000000E+02  0.50000000000E+02  0.00000000000E+00 0. -1.
        -11   -1    0    0    0    0 -0.00000000000E+00 -0.00000000000E+00 -0.50000000000E+02  0.50000000000E+02  0.00000000000E+00 0.  1.
         23    2    1    2    0    0  0.00000000000E+00  0.00000000000E+00  0.00000000000E+00  0.10000000000E+03  0.10000000000E+03 0.  0.
          5    1    3    3  501    0 -0.35717149800E+02  0.17530162229E+02  0.29914689074E+02  0.50000000000E+02  0.47000000000E+01 0. -1.
         -5    1    3    3    0  501  0.35717149800E+02 -0.17530162229E+02 -0.29914689074E+02  0.50000000000E+02  0.47000000000E+01 0.  1.
</event>
<event>
 5    1  0.9081766E-001  0.1000000E+03  0.7546771E-02  0.1163815E+00
         11   -1    0    0    0    0  0.00000000000E+00  0.00000000000E+00  0.50000000000E+02  0.50000000000E+02  0.00000000000E+00 0. -1.
        -11   -1    0    0    0    0 -0.00000000000E+00 -0.00000000000E+00 -0.50000000000E+02  0.50000000000E+02  0.00000000000E+00 0.  1.
         23    2    1    2    0    0  0.00000000000E+00  0.00000000000E+00  0.00000000000E+00  0.10000000000E+03  0.10000000000E+03 0.  0.
          5    1    3    3  501    0 -0.43836230664E+02 -0.36531560671E+01  0.23301273183E+02  0.50000000000E+02  0.47000000000E+01 0. -1.
         -5    1    3    3    0  501  0.43836230664E+02  0.36531560671E+01 -0.23301273183E+02  0.50000000000E+02  0.47000000000E+01 0.  1.
</event>
<event>
 5    1  0.9081766E-001  0.1000000E+03  0.7546771E-02  0.1163815E+00
         11   -1    0    0    0    0  0.00000000000E+00  0.00000000000E+00  0.50000000000E+02  0.50000000000E+02  0.00000000000E+00 0. -1.
        -11   -1    0    0    0    0 -0.00000000000E+00 -0.00000000000E+00 -0.50000000000E+02  0.50000000000E+02  0.00000000000E+00 0.  1.
         23    2    1    2    0    0  0.00000000000E+00  0.00000000000E+00  0.00000000000E+00  0.10000000000E+03  0.10000000000E+03 0.  0.
          5    1    3    3  501    0 -0.18580121301E+02  0.42980599734E+02  0.16892517247E+02  0.50000000000E+02  0.47000000000E+01 0. -1.
         -5    1    3    3    0  501  0.18580121301E+02 -0.42980599734E+02 -0.16892517247E+02  0.50000000000E+02  0.47000000000E+01 0.  1.
</event>
<event>
 5    1  0.9081766E-001  0.1000000E+03  0.7546771E-02  0.1163815E+00
         11   -1    0    0    0    0  0.00000000000E+00  0.00000000000E+00  0.50000000000E+02  0.50000000000E+02  0.00000000000E+00 0. -1.
        -11   -1    0    0    0    0 -0.00000000000E+00 -0.00000000000E+00 -0.50000000000E+02  0.50000000000E+02  0.00000000000E+00 0.  1.
         23    2    1    2    0    0  0.00000000000E+00  0.00000000000E+00  0.00000000000E+00  0.10000000000E+03  0.10000000000E+03 0.  0.
          5    1    3    3  501    0  0.19126337338E+02  0.20673586148E+02  0.41045049103E+02  0.50000000000E+02  0.47000000000E+01 0. -1.
         -5    1    3    3    0  501 -0.19126337338E+02 -0.20673586148E+02 -0.41045049103E+02  0.50000000000E+02  0.47000000000E+01 0.  1.
</event>
<event>
 5    1  0.9081766E-001  0.1000000E+03  0.7546771E-02  0.1163815E+00
         11   -1    0    0    0    0  0.00000000000E+00  0.00000000000E+00  0.50000000000E+02  0.50000000000E+02  0.00000000000E+00 0. -1.
        -11   -1    0    0    0    0 -0.00000000000E+00 -0.00000000000E+00 -0.50000000000E+02  0.50000000000E+02  0.00000000000E+00 0.  1.
         23    2    1    2    0    0  0.00000000000E+00  0.00000000000E+00  0.00000000000E+00  0.10000000000E+03  0.10000000000E+03 0.  0.
          5    1    3    3  501    0  0.13208393991E+02  0.37727695555E+02  0.29665962251E+02  0.50000000000E+02  0.47000000000E+01 0. -1.
         -5    1    3    3    0  501 -0.13208393991E+02 -0.37727695555E+02 -0.29665962251E+02  0.50000000000E+02  0.47000000000E+01 0.  1.
</event>
<event>
 5    1  0.9081766E-001  0.1000000E+03  0.7546771E-02  0.1163815E+00
         11   -1    0    0    0    0  0.00000000000E+00  0.00000000000E+00  0.50000000000E+02  0.50000000000E+02  0.00000000000E+00 0. -1.
        -11   -1    0    0    0    0 -0.00000000000E+00 -0.00000000000E+00 -0.50000000000E+02  0.50000000000E+02  0.00000000000E+00 0.  1.
         23    2    1    2    0    0  0.00000000000E+00  0.00000000000E+00  0.00000000000E+00  0.10000000000E+03  0.10000000000E+03 0.  0.
          5    1    3    3  501    0  0.86924002211E+01 -0.10761032989E+02  0.47817908229E+02  0.50000000000E+02  0.47000000000E+01 0. -1.
         -5    1    3    3    0  501 -0.86924002211E+01  0.10761032989E+02 -0.47817908229E+02  0.50000000000E+02  0.47000000000E+01 0.  1.
</event>
<event>
 5    1  0.9081766E-001  0.1000000E+03  0.7546771E-02  0.1163815E+00
         11   -1    0    0    0    0  0.00000000000E+00  0.00000000000E+00  0.50000000000E+02  0.50000000000E+02  0.00000000000E+00 0. -1.
        -11   -1    0    0    0    0 -0.00000000000E+00 -0.00000000000E+00 -0.50000000000E+02  0.50000000000E+02  0.00000000000E+00 0.  1.
         23    2    1    2    0    0  0.00000000000E+00  0.00000000000E+00  0.00000000000E+00  0.10000000000E+03  0.10000000000E+03 0.  0.
          5    1    3    3  501    0 -0.13101763071E+02 -0.47925625504E+02  0.30640209743E+01  0.50000000000E+02  0.47000000000E+01 0. -1.
         -5    1    3    3    0  501  0.13101763071E+02  0.47925625504E+02 -0.30640209743E+01  0.50000000000E+02  0.47000000000E+01 0.  1.
</event>
<event>
 5    1  0.9081766E-001  0.1000000E+03  0.7546771E-02  0.1163815E+00
         11   -1    0    0    0    0  0.00000000000E+00  0.00000000000E+00  0.50000000000E+02  0.50000000000E+02  0.00000000000E+00 0.  1.
        -11   -1    0    0    0    0 -0.00000000000E+00 -0.00000000000E+00 -0.50000000000E+02  0.50000000000E+02  0.00000000000E+00 0. -1.
         23    2    1    2    0    0  0.00000000000E+00  0.00000000000E+00  0.00000000000E+00  0.10000000000E+03  0.10000000000E+03 0.  0.
          5    1    3    3  501    0  0.20868382617E+02  0.22815189742E+02 -0.39011379416E+02  0.50000000000E+02  0.47000000000E+01 0. -1.
         -5    1    3    3    0  501 -0.20868382617E+02 -0.22815189742E+02  0.39011379416E+02  0.50000000000E+02  0.47000000000E+01 0.  1.
</event>
<event>
 5    1  0.9081766E-001  0.1000000E+03  0.7546771E-02  0.1163815E+00
         11   -1    0    0    0    0  0.00000000000E+00  0.00000000000E+00  0.50000000000E+02  0.50000000000E+02  0.00000000000E+00 0. -1.
        -11   -1    0    0    0    0 -0.00000000000E+00 -0.00000000000E+00 -0.50000000000E+02  0.50000000000E+02  0.00000000000E+00 0.  1.
         23    2    1    2    0    0  0.00000000000E+00  0.00000000000E+00  0.00000000000E+00  0.10000000000E+03  0.10000000000E+03 0.  0.
          5    1    3    3  501    0 -0.30990305201E+02  0.34052896408E+02  0.18918541957E+02  0.50000000000E+02  0.47000000000E+01 0. -1.
         -5    1    3    3    0  501  0.30990305201E+02 -0.34052896408E+02 -0.18918541957E+02  0.50000000000E+02  0.47000000000E+01 0.  1.
</event>
<event>
 5    1  0.9081766E-001  0.1000000E+03  0.7546771E-02  0.1163815E+00
         11   -1    0    0    0    0  0.00000000000E+00  0.00000000000E+00  0.50000000000E+02  0.50000000000E+02  0.00000000000E+00 0. -1.
        -11   -1    0    0    0    0 -0.00000000000E+00 -0.00000000000E+00 -0.50000000000E+02  0.50000000000E+02  0.00000000000E+00 0.  1.
         23    2    1    2    0    0  0.00000000000E+00  0.00000000000E+00  0.00000000000E+00  0.10000000000E+03  0.10000000000E+03 0.  0.
          5    1    3    3  501    0 -0.34751431362E+02  0.28544912846E+02  0.21340945829E+02  0.50000000000E+02  0.47000000000E+01 0. -1.
         -5    1    3    3    0  501  0.34751431362E+02 -0.28544912846E+02 -0.21340945829E+02  0.50000000000E+02  0.47000000000E+01 0.  1.
</event>
<event>
 5    1  0.9081766E-001  0.1000000E+03  0.7546771E-02  0.1163815E+00
         11   -1    0    0    0    0  0.00000000000E+00  0.00000000000E+00  0.50000000000E+02  0.50000000000E+02  0.00000000000E+00 0. -1.
        -11   -1    0    0    0    0 -0.00000000000E+00 -0.00000000000E+00 -0.50000000000E+02  0.50000000000E+02  0.00000000000E+00 0.  1.
         23    2    1    2    0    0  0.00000000000E+00  0.00000000000E+00  0.00000000000E+00  0.10000000000E+03  0.10000000000E+03 0.  0.
          5    1    3    3  501    0 -0.62827426686E+01 -0.60204588947E+01  0.49012153791E+02  0.50000000000E+02  0.47000000000E+01 0. -1.
         -5    1    3    3    0  501  0.62827426686E+01  0.60204588947E+01 -0.49012153791E+02  0.50000000000E+02  0.47000000000E+01 0.  1.
</event>
<event>
 5    1  0.9081766E-001  0.1000000E+03  0.7546771E-02  0.1163815E+00
         11   -1    0    0    0    0  0.00000000000E+00  0.00000000000E+00  0.50000000000E+02  0.50000000000E+02  0.00000000000E+00 0. -1.
        -11   -1    0    0    0    0 -0.00000000000E+00 -0.00000000000E+00 -0.50000000000E+02  0.50000000000E+02  0.00000000000E+00 0.  1.
         23    2    1    2    0    0  0.00000000000E+00  0.00000000000E+00  0.00000000000E+00  0.10000000000E+03  0.10000000000E+03 0.  0.
          5    1    3    3  501    0 -0.30388486060E+02 -0.12213062127E+02  0.37487211532E+02  0.50000000000E+02  0.47000000000E+01 0. -1.
         -5    1    3    3    0  501  0.30388486060E+02  0.12213062127E+02 -0.37487211532E+02  0.50000000000E+02  0.47000000000E+01 0.  1.
</event>
<event>
 5    1  0.9081766E-001  0.1000000E+03  0.7546771E-02  0.1163815E+00
         11   -1    0    0    0    0  0.00000000000E+00  0.00000000000E+00  0.50000000000E+02  0.50000000000E+02  0.00000000000E+00 0.  1.
        -11   -1    0    0    0    0 -0.00000000000E+00 -0.00000000000E+00 -0.50000000000E+02  0.50000000000E+02  0.00000000000E+00 0. -1.
         23    2    1    2    0    0  0.00000000000E+00  0.00000000000E+00  0.00000000000E+00  0.10000000000E+03  0.10000000000E+03 0.  0.
          5    1    3    3  501    0 -0.25520745061E+02 -0.24744262757E+02 -0.34847138076E+02  0.50000000000E+02  0.47000000000E+01 0. -1.
         -5    1    3    3    0  501  0.25520745061E+02  0.24744262757E+02  0.34847138076E+02  0.50000000000E+02  0.47000000000E+01 0.  1.
</event>
<event>
 5    1  0.9081766E-001  0.1000000E+03  0.7546771E-02  0.1163815E+00
         11   -1    0    0    0    0  0.00000000000E+00  0.00000000000E+00  0.50000000000E+02  0.50000000000E+02  0.00000000000E+00 0.  1.
        -11   -1    0    0    0    0 -0.00000000000E+00 -0.00000000000E+00 -0.50000000000E+02  0.50000000000E+02  0.00000000000E+00 0. -1.
         23    2    1    2    0    0  0.00000000000E+00  0.00000000000E+00  0.00000000000E+00  0.10000000000E+03  0.10000000000E+03 0.  0.
          5    1    3    3  501    0  0.25391285260E+02 -0.42815587381E+02  0.13457369007E+00  0.50000000000E+02  0.47000000000E+01 0. -1.
         -5    1    3    3    0  501 -0.25391285260E+02  0.42815587381E+02 -0.13457369007E+00  0.50000000000E+02  0.47000000000E+01 0.  1.
</event>
<event>
 5    1  0.9081766E-001  0.1000000E+03  0.7546771E-02  0.1163815E+00
         11   -1    0    0    0    0  0.00000000000E+00  0.00000000000E+00  0.50000000000E+02  0.50000000000E+02  0.00000000000E+00 0. -1.
        -11   -1    0    0    0    0 -0.00000000000E+00 -0.00000000000E+00 -0.50000000000E+02  0.50000000000E+02  0.00000000000E+00 0.  1.
         23    2    1    2    0    0  0.00000000000E+00  0.00000000000E+00  0.00000000000E+00  0.10000000000E+03  0.10000000000E+03 0.  0.
          5    1    3    3  501    0 -0.39262675798E+01  0.17249294308E+02  0.46529090564E+02  0.50000000000E+02  0.47000000000E+01 0. -1.
         -5    1    3    3    0  501  0.39262675798E+01 -0.17249294308E+02 -0.46529090564E+02  0.50000000000E+02  0.47000000000E+01 0.  1.
</event>
<event>
 5    1  0.9081766E-001  0.1000000E+03  0.7546771E-02  0.1163815E+00
         11   -1    0    0    0    0  0.00000000000E+00  0.00000000000E+00  0.50000000000E+02  0.50000000000E+02  0.00000000000E+00 0. -1.
        -11   -1    0    0    0    0 -0.00000000000E+00 -0.00000000000E+00 -0.50000000000E+02  0.50000000000E+02  0.00000000000E+00 0.  1.
         23    2    1    2    0    0  0.00000000000E+00  0.00000000000E+00  0.00000000000E+00  0.10000000000E+03  0.10000000000E+03 0.  0.
          5    1    3    3  501    0 -0.12052227987E+02  0.48087945428E+02  0.44948086753E+01  0.50000000000E+02  0.47000000000E+01 0. -1.
         -5    1    3    3    0  501  0.12052227987E+02 -0.48087945428E+02 -0.44948086753E+01  0.50000000000E+02  0.47000000000E+01 0.  1.
</event>
<event>
 5    1  0.9081766E-001  0.1000000E+03  0.7546771E-02  0.1163815E+00
         11   -1    0    0    0    0  0.00000000000E+00  0.00000000000E+00  0.50000000000E+02  0.50000000000E+02  0.00000000000E+00 0. -1.
        -11   -1    0    0    0    0 -0.00000000000E+00 -0.00000000000E+00 -0.50000000000E+02  0.50000000000E+02  0.00000000000E+00 0.  1.
         23    2    1    2    0    0  0.00000000000E+00  0.00000000000E+00  0.00000000000E+00  0.10000000000E+03  0.10000000000E+03 0.  0.
          5    1    3    3  501    0  0.26209949489E+02  0.12874502720E+02  0.40313716369E+02  0.50000000000E+02  0.47000000000E+01 0. -1.
         -5    1    3    3    0  501 -0.26209949489E+02 -0.12874502720E+02 -0.40313716369E+02  0.50000000000E+02  0.47000000000E+01 0.  1.
</event>
<event>
 5    1  0.9081766E-001  0.1000000E+03  0.7546771E-02  0.1163815E+00
         11   -1    0    0    0    0  0.00000000000E+00  0.00000000000E+00  0.50000000000E+02  0.50000000000E+02  0.00000000000E+00 0. -1.
        -11   -1    0    0    0    0 -0.00000000000E+00 -0.00000000000E+00 -0.50000000000E+02  0.50000000000E+02  0.00000000000E+00 0.  1.
         23    2    1    2    0    0  0.00000000000E+00  0.00000000000E+00  0.00000000000E+00  0.10000000000E+03  0.10000000000E+03 0.  0.
          5    1    3    3  501    0  0.40348388885E+02 -0.11593529284E+02  0.26748973684E+02  0.50000000000E+02  0.47000000000E+01 0. -1.
         -5    1    3    3    0  501 -0.40348388885E+02  0.11593529284E+02 -0.26748973684E+02  0.50000000000E+02  0.47000000000E+01 0.  1.
</event>
<event>
 5    1  0.9081766E-001  0.1000000E+03  0.7546771E-02  0.1163815E+00
         11   -1    0    0    0    0  0.00000000000E+00  0.00000000000E+00  0.50000000000E+02  0.50000000000E+02  0.00000000000E+00 0. -1.
        -11   -1    0    0    0    0 -0.00000000000E+00 -0.00000000000E+00 -0.50000000000E+02  0.50000000000E+02  0.00000000000E+00 0.  1.
         23    2    1    2    0    0  0.00000000000E+00  0.00000000000E+00  0.00000000000E+00  0.10000000000E+03  0.10000000000E+03 0.  0.
          5    1    3    3  501    0 -0.18265534305E+02  0.10926275640E+02  0.44998852843E+02  0.50000000000E+02  0.47000000000E+01 0. -1.
         -5    1    3    3    0  501  0.18265534305E+02 -0.10926275640E+02 -0.44998852843E+02  0.50000000000E+02  0.47000000000E+01 0.  1.
</event>
<event>
 5    1  0.9081766E-001  0.1000000E+03  0.7546771E-02  0.1163815E+00
         11   -1    0    0    0    0  0.00000000000E+00  0.00000000000E+00  0.50000000000E+02  0.50000000000E+02  0.00000000000E+00 0. -1.
        -11   -1    0    0    0    0 -0.00000000000E+00 -0.00000000000E+00 -0.50000000000E+02  0.50000000000E+02  0.00000000000E+00 0.  1.
         23    2    1    2    0    0  0.00000000000E+00  0.00000000000E+00  0.00000000000E+00  0.10000000000E+03  0.10000000000E+03 0.  0.
          5    1    3    3  501    0 -0.41469968984E+02 -0.97364668184E+01  0.25755637954E+02  0.50000000000E+02  0.47000000000E+01 0. -1.
         -5    1    3    3    0  501  0.41469968984E+02  0.97364668184E+01 -0.25755637954E+02  0.50000000000E+02  0.47000000000E+01 0.  1.
</event>
<event>
 5    1  0.9081766E-001  0.1000000E+03  0.7546771E-02  0.1163815E+00
         11   -1    0    0    0    0  0.00000000000E+00  0.00000000000E+00  0.50000000000E+02  0.50000000000E+02  0.00000000000E+00 0.  1.
        -11   -1    0    0    0    0 -0.00000000000E+00 -0.00000000000E+00 -0.50000000000E+02  0.50000000000E+02  0.00000000000E+00 0. -1.
         23    2    1    2    0    0  0.00000000000E+00  0.00000000000E+00  0.00000000000E+00  0.10000000000E+03  0.10000000000E+03 0.  0.
          5    1    3    3  501    0 -0.25711622440E+02  0.41350064023E+02 -0.10343823124E+02  0.50000000000E+02  0.47000000000E+01 0.  1.
         -5    1    3    3    0  501  0.25711622440E+02 -0.41350064023E+02  0.10343823124E+02  0.50000000000E+02  0.47000000000E+01 0.  1.
</event>
<event>
 5    1  0.9081766E-001  0.1000000E+03  0.7546771E-02  0.1163815E+00
         11   -1    0    0    0    0  0.00000000000E+00  0.00000000000E+00  0.50000000000E+02  0.50000000000E+02  0.00000000000E+00 0. -1.
        -11   -1    0    0    0    0 -0.00000000000E+00 -0.00000000000E+00 -0.50000000000E+02  0.50000000000E+02  0.00000000000E+00 0.  1.
         23    2    1    2    0    0  0.00000000000E+00  0.00000000000E+00  0.00000000000E+00  0.10000000000E+03  0.10000000000E+03 0.  0.
          5    1    3    3  501    0 -0.28879393413E+02  0.14773649376E+02  0.37757514752E+02  0.50000000000E+02  0.47000000000E+01 0. -1.
         -5    1    3    3    0  501  0.28879393413E+02 -0.14773649376E+02 -0.37757514752E+02  0.50000000000E+02  0.47000000000E+01 0.  1.
</event>
<event>
 5    1  0.9081766E-001  0.1000000E+03  0.7546771E-02  0.1163815E+00
         11   -1    0    0    0    0  0.00000000000E+00  0.00000000000E+00  0.50000000000E+02  0.50000000000E+02  0.00000000000E+00 0.  1.
        -11   -1    0    0    0    0 -0.00000000000E+00 -0.00000000000E+00 -0.50000000000E+02  0.50000000000E+02  0.00000000000E+00 0. -1.
         23    2    1    2    0    0  0.00000000000E+00  0.00000000000E+00  0.00000000000E+00  0.10000000000E+03  0.10000000000E+03 0.  0.
          5    1    3    3  501    0  0.53178027577E+00  0.28883235963E+02 -0.40538696206E+02  0.50000000000E+02  0.47000000000E+01 0. -1.
         -5    1    3    3    0  501 -0.53178027577E+00 -0.28883235963E+02  0.40538696206E+02  0.50000000000E+02  0.47000000000E+01 0.  1.
</event>
<event>
 5    1  0.9081766E-001  0.1000000E+03  0.7546771E-02  0.1163815E+00
         11   -1    0    0    0    0  0.00000000000E+00  0.00000000000E+00  0.50000000000E+02  0.50000000000E+02  0.00000000000E+00 0. -1.
        -11   -1    0    0    0    0 -0.00000000000E+00 -0.00000000000E+00 -0.50000000000E+02  0.50000000000E+02  0.00000000000E+00 0.  1.
         23    2    1    2    0    0  0.00000000000E+00  0.00000000000E+00  0.00000000000E+00  0.10000000000E+03  0.10000000000E+03 0.  0.
          5    1    3    3  501    0  0.18911717122E+02  0.46045862164E+02 -0.18850219487E+00  0.50000000000E+02  0.47000000000E+01 0. -1.
         -5    1    3    3    0  501 -0.18911717122E+02 -0.46045862164E+02  0.18850219487E+00  0.50000000000E+02  0.47000000000E+01 0.  1.
</event>
<event>
 5    1  0.9081766E-001  0.1000000E+03  0.7546771E-02  0.1163815E+00
         11   -1    0    0    0    0  0.00000000000E+00  0.00000000000E+00  0.50000000000E+02  0.50000000000E+02  0.00000000000E+00 0. -1.
        -11   -1    0    0    0    0 -0.00000000000E+00 -0.00000000000E+00 -0.50000000000E+02  0.50000000000E+02  0.00000000000E+00 0.  1.
         23    2    1    2    0    0  0.00000000000E+00  0.00000000000E+00  0.00000000000E+00  0.10000000000E+03  0.10000000000E+03 0.  0.
          5    1    3    3  501    0  0.91763080026E+01 -0.13588402779E+02  0.47000645542E+02  0.50000000000E+02  0.47000000000E+01 0. -1.
         -5    1    3    3    0  501 -0.91763080026E+01  0.13588402779E+02 -0.47000645542E+02  0.50000000000E+02  0.47000000000E+01 0.  1.
</event>
<event>
 5    1  0.9081766E-001  0.1000000E+03  0.7546771E-02  0.1163815E+00
         11   -1    0    0    0    0  0.00000000000E+00  0.00000000000E+00  0.50000000000E+02  0.50000000000E+02  0.00000000000E+00 0. -1.
        -11   -1    0    0    0    0 -0.00000000000E+00 -0.00000000000E+00 -0.50000000000E+02  0.50000000000E+02  0.00000000000E+00 0.  1.
         23    2    1    2    0    0  0.00000000000E+00  0.00000000000E+00  0.00000000000E+00  0.10000000000E+03  0.10000000000E+03 0.  0.
          5    1    3    3  501    0  0.13993131217E+01 -0.88870777320E+01  0.48958878379E+02  0.50000000000E+02  0.47000000000E+01 0. -1.
         -5    1    3    3    0  501 -0.13993131217E+01  0.88870777320E+01 -0.48958878379E+02  0.50000000000E+02  0.47000000000E+01 0.  1.
</event>
<event>
 5    1  0.9081766E-001  0.1000000E+03  0.7546771E-02  0.1163815E+00
         11   -1    0    0    0    0  0.00000000000E+00  0.00000000000E+00  0.50000000000E+02  0.50000000000E+02  0.00000000000E+00 0. -1.
        -11   -1    0    0    0    0 -0.00000000000E+00 -0.00000000000E+00 -0.50000000000E+02  0.50000000000E+02  0.00000000000E+00 0.  1.
         23    2    1    2    0    0  0.00000000000E+00  0.00000000000E+00  0.00000000000E+00  0.10000000000E+03  0.10000000000E+03 0.  0.
          5    1    3    3  501    0  0.83548845389E+01  0.41641824407E+02  0.25962749554E+02  0.50000000000E+02  0.47000000000E+01 0. -1.
         -5    1    3    3    0  501 -0.83548845389E+01 -0.41641824407E+02 -0.25962749554E+02  0.50000000000E+02  0.47000000000E+01 0.  1.
</event>
<event>
 5    1  0.9081766E-001  0.1000000E+03  0.7546771E-02  0.1163815E+00
         11   -1    0    0    0    0  0.00000000000E+00  0.00000000000E+00  0.50000000000E+02  0.50000000000E+02  0.00000000000E+00 0.  1.
        -11   -1    0    0    0    0 -0.00000000000E+00 -0.00000000000E+00 -0.50000000000E+02  0.50000000000E+02  0.00000000000E+00 0. -1.
         23    2    1    2    0    0  0.00000000000E+00  0.00000000000E+00  0.00000000000E+00  0.10000000000E+03  0.10000000000E+03 0.  0.
          5    1    3    3  501    0 -0.16572587167E+02  0.30982259824E+02 -0.35261295081E+02  0.50000000000E+02  0.47000000000E+01 0. -1.
         -5    1    3    3    0  501  0.16572587167E+02 -0.30982259824E+02  0.35261295081E+02  0.50000000000E+02  0.47000000000E+01 0.  1.
</event>
<event>
 5    1  0.9081766E-001  0.1000000E+03  0.7546771E-02  0.1163815E+00
         11   -1    0    0    0    0  0.00000000000E+00  0.00000000000E+00  0.50000000000E+02  0.50000000000E+02  0.00000000000E+00 0.  1.
        -11   -1    0    0    0    0 -0.00000000000E+00 -0.00000000000E+00 -0.50000000000E+02  0.50000000000E+02  0.00000000000E+00 0. -1.
         23    2    1    2    0    0  0.00000000000E+00  0.00000000000E+00  0.00000000000E+00  0.10000000000E+03  0.10000000000E+03 0.  0.
          5    1    3    3  501    0  0.49892836875E+01  0.18571018140E+01 -0.49493112866E+02  0.50000000000E+02  0.47000000000E+01 0. -1.
         -5    1    3    3    0  501 -0.49892836875E+01 -0.18571018140E+01  0.49493112866E+02  0.50000000000E+02  0.47000000000E+01 0.  1.
</event>
<event>
 5    1  0.9081766E-001  0.1000000E+03  0.7546771E-02  0.1163815E+00
         11   -1    0    0    0    0  0.00000000000E+00  0.00000000000E+00  0.50000000000E+02  0.50000000000E+02  0.00000000000E+00 0.  1.
        -11   -1    0    0    0    0 -0.00000000000E+00 -0.00000000000E+00 -0.50000000000E+02  0.50000000000E+02  0.00000000000E+00 0. -1.
         23    2    1    2    0    0  0.00000000000E+00  0.00000000000E+00  0.00000000000E+00  0.10000000000E+03  0.10000000000E+03 0.  0.
          5    1    3    3  501    0  0.20104212322E+00  0.48275341431E+02 -0.12139233574E+02  0.50000000000E+02  0.47000000000E+01 0. -1.
         -5    1    3    3    0  501 -0.20104212322E+00 -0.48275341431E+02  0.12139233574E+02  0.50000000000E+02  0.47000000000E+01 0.  1.
</event>
<event>
 5    1  0.9081766E-001  0.1000000E+03  0.7546771E-02  0.1163815E+00
         11   -1    0    0    0    0  0.00000000000E+00  0.00000000000E+00  0.50000000000E+02  0.50000000000E+02  0.00000000000E+00 0.  1.
        -11   -1    0    0    0    0 -0.00000000000E+00 -0.00000000000E+00 -0.50000000000E+02  0.50000000000E+02  0.00000000000E+00 0. -1.
         23    2    1    2    0    0  0.00000000000E+00  0.00000000000E+00  0.00000000000E+00  0.10000000000E+03  0.10000000000E+03 0.  0.
          5    1    3    3  501    0 -0.17472054793E+01  0.31716728348E+01 -0.49646729645E+02  0.50000000000E+02  0.47000000000E+01 0. -1.
         -5    1    3    3    0  501  0.17472054793E+01 -0.31716728348E+01  0.49646729645E+02  0.50000000000E+02  0.47000000000E+01 0.  1.
</event>
<event>
 5    1  0.9081766E-001  0.1000000E+03  0.7546771E-02  0.1163815E+00
         11   -1    0    0    0    0  0.00000000000E+00  0.00000000000E+00  0.50000000000E+02  0.50000000000E+02  0.00000000000E+00 0. -1.
        -11   -1    0    0    0    0 -0.00000000000E+00 -0.00000000000E+00 -0.50000000000E+02  0.50000000000E+02  0.00000000000E+00 0.  1.
         23    2    1    2    0    0  0.00000000000E+00  0.00000000000E+00  0.00000000000E+00  0.10000000000E+03  0.10000000000E+03 0.  0.
          5    1    3    3  501    0  0.25564905130E+02 -0.42169222867E+02  0.67898651288E+01  0.50000000000E+02  0.47000000000E+01 0. -1.
         -5    1    3    3    0  501 -0.25564905130E+02  0.42169222867E+02 -0.67898651288E+01  0.50000000000E+02  0.47000000000E+01 0.  1.
</event>
<event>
 5    1  0.9081766E-001  0.1000000E+03  0.7546771E-02  0.1163815E+00
         11   -1    0    0    0    0  0.00000000000E+00  0.00000000000E+00  0.50000000000E+02  0.50000000000E+02  0.00000000000E+00 0.  1.
        -11   -1    0    0    0    0 -0.00000000000E+00 -0.00000000000E+00 -0.50000000000E+02  0.50000000000E+02  0.00000000000E+00 0. -1.
         23    2    1    2    0    0  0.00000000000E+00  0.00000000000E+00  0.00000000000E+00  0.10000000000E+03  0.10000000000E+03 0.  0.
          5    1    3    3  501    0 -0.44355891438E+02 -0.12380939359E+02  0.18899133189E+02  0.50000000000E+02  0.47000000000E+01 0. -1.
         -5    1    3    3    0  501  0.44355891438E+02  0.12380939359E+02 -0.18899133189E+02  0.50000000000E+02  0.47000000000E+01 0.  1.
</event>
<event>
 5    1  0.9081766E-001  0.1000000E+03  0.7546771E-02  0.1163815E+00
         11   -1    0    0    0    0  0.00000000000E+00  0.00000000000E+00  0.50000000000E+02  0.50000000000E+02  0.00000000000E+00 0. -1.
        -11   -1    0    0    0    0 -0.00000000000E+00 -0.00000000000E+00 -0.50000000000E+02  0.50000000000E+02  0.00000000000E+00 0.  1.
         23    2    1    2    0    0  0.00000000000E+00  0.00000000000E+00  0.00000000000E+00  0.10000000000E+03  0.10000000000E+03 0.  0.
          5    1    3    3  501    0  0.12316636660E+02 -0.48168273322E+02  0.24551795376E+01  0.50000000000E+02  0.47000000000E+01 0. -1.
         -5    1    3    3    0  501 -0.12316636660E+02  0.48168273322E+02 -0.24551795376E+01  0.50000000000E+02  0.47000000000E+01 0.  1.
</event>
<event>
 5    1  0.9081766E-001  0.1000000E+03  0.7546771E-02  0.1163815E+00
         11   -1    0    0    0    0  0.00000000000E+00  0.00000000000E+00  0.50000000000E+02  0.50000000000E+02  0.00000000000E+00 0. -1.
        -11   -1    0    0    0    0 -0.00000000000E+00 -0.00000000000E+00 -0.50000000000E+02  0.50000000000E+02  0.00000000000E+00 0.  1.
         23    2    1    2    0    0  0.00000000000E+00  0.00000000000E+00  0.00000000000E+00  0.10000000000E+03  0.10000000000E+03 0.  0.
          5    1    3    3  501    0 -0.34892748501E+02  0.26633770512E+02  0.23474419490E+02  0.50000000000E+02  0.47000000000E+01 0. -1.
         -5    1    3    3    0  501  0.34892748501E+02 -0.26633770512E+02 -0.23474419490E+02  0.50000000000E+02  0.47000000000E+01 0.  1.
</event>
<event>
 5    1  0.9081766E-001  0.1000000E+03  0.7546771E-02  0.1163815E+00
         11   -1    0    0    0    0  0.00000000000E+00  0.00000000000E+00  0.50000000000E+02  0.50000000000E+02  0.00000000000E+00 0. -1.
        -11   -1    0    0    0    0 -0.00000000000E+00 -0.00000000000E+00 -0.50000000000E+02  0.50000000000E+02  0.00000000000E+00 0.  1.
         23    2    1    2    0    0  0.00000000000E+00  0.00000000000E+00  0.00000000000E+00  0.10000000000E+03  0.10000000000E+03 0.  0.
          5    1    3    3  501    0 -0.26493330311E+02  0.21689245114E+02  0.36132950273E+02  0.50000000000E+02  0.47000000000E+01 0. -1.
         -5    1    3    3    0  501  0.26493330311E+02 -0.21689245114E+02 -0.36132950273E+02  0.50000000000E+02  0.47000000000E+01 0.  1.
</event>
<event>
 5    1  0.9081766E-001  0.1000000E+03  0.7546771E-02  0.1163815E+00
         11   -1    0    0    0    0  0.00000000000E+00  0.00000000000E+00  0.50000000000E+02  0.50000000000E+02  0.00000000000E+00 0. -1.
        -11   -1    0    0    0    0 -0.00000000000E+00 -0.00000000000E+00 -0.50000000000E+02  0.50000000000E+02  0.00000000000E+00 0.  1.
         23    2    1    2    0    0  0.00000000000E+00  0.00000000000E+00  0.00000000000E+00  0.10000000000E+03  0.10000000000E+03 0.  0.
          5    1    3    3  501    0  0.38745384401E+02  0.27206626019E+02  0.15378708926E+02  0.50000000000E+02  0.47000000000E+01 0. -1.
         -5    1    3    3    0  501 -0.38745384401E+02 -0.27206626019E+02 -0.15378708926E+02  0.50000000000E+02  0.47000000000E+01 0.  1.
</event>
<event>
 5    1  0.9081766E-001  0.1000000E+03  0.7546771E-02  0.1163815E+00
         11   -1    0    0    0    0  0.00000000000E+00  0.00000000000E+00  0.50000000000E+02  0.50000000000E+02  0.00000000000E+00 0.  1.
        -11   -1    0    0    0    0 -0.00000000000E+00 -0.00000000000E+00 -0.50000000000E+02  0.50000000000E+02  0.00000000000E+00 0. -1.
         23    2    1    2    0    0  0.00000000000E+00  0.00000000000E+00  0.00000000000E+00  0.10000000000E+03  0.10000000000E+03 0.  0.
          5    1    3    3  501    0  0.11778101284E+02 -0.67435892001E+01 -0.47892696049E+02  0.50000000000E+02  0.47000000000E+01 0. -1.
         -5    1    3    3    0  501 -0.11778101284E+02  0.67435892001E+01  0.47892696049E+02  0.50000000000E+02  0.47000000000E+01 0.  1.
</event>
<event>
 5    1  0.9081766E-001  0.1000000E+03  0.7546771E-02  0.1163815E+00
         11   -1    0    0    0    0  0.00000000000E+00  0.00000000000E+00  0.50000000000E+02  0.50000000000E+02  0.00000000000E+00 0.  1.
        -11   -1    0    0    0    0 -0.00000000000E+00 -0.00000000000E+00 -0.50000000000E+02  0.50000000000E+02  0.00000000000E+00 0. -1.
         23    2    1    2    0    0  0.00000000000E+00  0.00000000000E+00  0.00000000000E+00  0.10000000000E+03  0.10000000000E+03 0.  0.
          5    1    3    3  501    0 -0.20134591125E+02 -0.73036416372E+01 -0.44935120553E+02  0.50000000000E+02  0.47000000000E+01 0. -1.
         -5    1    3    3    0  501  0.20134591125E+02  0.73036416372E+01  0.44935120553E+02  0.50000000000E+02  0.47000000000E+01 0.  1.
</event>
<event>
 5    1  0.9081766E-001  0.1000000E+03  0.7546771E-02  0.1163815E+00
         11   -1    0    0    0    0  0.00000000000E+00  0.00000000000E+00  0.50000000000E+02  0.50000000000E+02  0.00000000000E+00 0. -1.
        -11   -1    0    0    0    0 -0.00000000000E+00 -0.00000000000E+00 -0.50000000000E+02  0.50000000000E+02  0.00000000000E+00 0.  1.
         23    2    1    2    0    0  0.00000000000E+00  0.00000000000E+00  0.00000000000E+00  0.10000000000E+03  0.10000000000E+03 0.  0.
          5    1    3    3  501    0 -0.10123905303E+02 -0.18938223927E+02  0.44908353520E+02  0.50000000000E+02  0.47000000000E+01 0. -1.
         -5    1    3    3    0  501  0.10123905303E+02  0.18938223927E+02 -0.44908353520E+02  0.50000000000E+02  0.47000000000E+01 0.  1.
</event>
<event>
 5    1  0.9081766E-001  0.1000000E+03  0.7546771E-02  0.1163815E+00
         11   -1    0    0    0    0  0.00000000000E+00  0.00000000000E+00  0.50000000000E+02  0.50000000000E+02  0.00000000000E+00 0. -1.
        -11   -1    0    0    0    0 -0.00000000000E+00 -0.00000000000E+00 -0.50000000000E+02  0.50000000000E+02  0.00000000000E+00 0.  1.
         23    2    1    2    0    0  0.00000000000E+00  0.00000000000E+00  0.00000000000E+00  0.10000000000E+03  0.10000000000E+03 0.  0.
          5    1    3    3  501    0  0.27094647382E+02 -0.22461388083E+02  0.35203353940E+02  0.50000000000E+02  0.47000000000E+01 0. -1.
         -5    1    3    3    0  501 -0.27094647382E+02  0.22461388083E+02 -0.35203353940E+02  0.50000000000E+02  0.47000000000E+01 0.  1.
</event>
<event>
 5    1  0.9081766E-001  0.1000000E+03  0.7546771E-02  0.1163815E+00
         11   -1    0    0    0    0  0.00000000000E+00  0.00000000000E+00  0.50000000000E+02  0.50000000000E+02  0.00000000000E+00 0. -1.
        -11   -1    0    0    0    0 -0.00000000000E+00 -0.00000000000E+00 -0.50000000000E+02  0.50000000000E+02  0.00000000000E+00 0.  1.
         23    2    1    2    0    0  0.00000000000E+00  0.00000000000E+00  0.00000000000E+00  0.10000000000E+03  0.10000000000E+03 0.  0.
          5    1    3    3  501    0 -0.43378800117E+02 -0.20886720893E+02  0.12646524848E+02  0.50000000000E+02  0.47000000000E+01 0. -1.
         -5    1    3    3    0  501  0.43378800117E+02  0.20886720893E+02 -0.12646524848E+02  0.50000000000E+02  0.47000000000E+01 0.  1.
</event>
<event>
 5    1  0.9081766E-001  0.1000000E+03  0.7546771E-02  0.1163815E+00
         11   -1    0    0    0    0  0.00000000000E+00  0.00000000000E+00  0.50000000000E+02  0.50000000000E+02  0.00000000000E+00 0. -1.
        -11   -1    0    0    0    0 -0.00000000000E+00 -0.00000000000E+00 -0.50000000000E+02  0.50000000000E+02  0.00000000000E+00 0.  1.
         23    2    1    2    0    0  0.00000000000E+00  0.00000000000E+00  0.00000000000E+00  0.10000000000E+03  0.10000000000E+03 0.  0.
          5    1    3    3  501    0 -0.44007628817E+02 -0.58872297855E+01  0.22507312843E+02  0.50000000000E+02  0.47000000000E+01 0. -1.
         -5    1    3    3    0  501  0.44007628817E+02  0.58872297855E+01 -0.22507312843E+02  0.50000000000E+02  0.47000000000E+01 0.  1.
</event>
<event>
 5    1  0.9081766E-001  0.1000000E+03  0.7546771E-02  0.1163815E+00
         11   -1    0    0    0    0  0.00000000000E+00  0.00000000000E+00  0.50000000000E+02  0.50000000000E+02  0.00000000000E+00 0. -1.
        -11   -1    0    0    0    0 -0.00000000000E+00 -0.00000000000E+00 -0.50000000000E+02  0.50000000000E+02  0.00000000000E+00 0.  1.
         23    2    1    2    0    0  0.00000000000E+00  0.00000000000E+00  0.00000000000E+00  0.10000000000E+03  0.10000000000E+03 0.  0.
          5    1    3    3  501    0  0.38276875649E+02  0.28344268026E+02  0.14470427106E+02  0.50000000000E+02  0.47000000000E+01 0. -1.
         -5    1    3    3    0  501 -0.38276875649E+02 -0.28344268026E+02 -0.14470427106E+02  0.50000000000E+02  0.47000000000E+01 0.  1.
</event>
<event>
 5    1  0.9081766E-001  0.1000000E+03  0.7546771E-02  0.1163815E+00
         11   -1    0    0    0    0  0.00000000000E+00  0.00000000000E+00  0.50000000000E+02  0.50000000000E+02  0.00000000000E+00 0.  1.
        -11   -1    0    0    0    0 -0.00000000000E+00 -0.00000000000E+00 -0.50000000000E+02  0.50000000000E+02  0.00000000000E+00 0. -1.
         23    2    1    2    0    0  0.00000000000E+00  0.00000000000E+00  0.00000000000E+00  0.10000000000E+03  0.10000000000E+03 0.  0.
          5    1    3    3  501    0 -0.28886899028E+02  0.39944655334E+02 -0.69196513504E+01  0.50000000000E+02  0.47000000000E+01 0. -1.
         -5    1    3    3    0  501  0.28886899028E+02 -0.39944655334E+02  0.69196513504E+01  0.50000000000E+02  0.47000000000E+01 0.  1.
</event>
<event>
 5    1  0.9081766E-001  0.1000000E+03  0.7546771E-02  0.1163815E+00
         11   -1    0    0    0    0  0.00000000000E+00  0.00000000000E+00  0.50000000000E+02  0.50000000000E+02  0.00000000000E+00 0. -1.
        -11   -1    0    0    0    0 -0.00000000000E+00 -0.00000000000E+00 -0.50000000000E+02  0.50000000000E+02  0.00000000000E+00 0.  1.
         23    2    1    2    0    0  0.00000000000E+00  0.00000000000E+00  0.00000000000E+00  0.10000000000E+03  0.10000000000E+03 0.  0.
          5    1    3    3  501    0 -0.11119209967E+02  0.42110396025E+02  0.24103686779E+02  0.50000000000E+02  0.47000000000E+01 0. -1.
         -5    1    3    3    0  501  0.11119209967E+02 -0.42110396025E+02 -0.24103686779E+02  0.50000000000E+02  0.47000000000E+01 0.  1.
</event>
<event>
 5    1  0.9081766E-001  0.1000000E+03  0.7546771E-02  0.1163815E+00
         11   -1    0    0    0    0  0.00000000000E+00  0.00000000000E+00  0.50000000000E+02  0.50000000000E+02  0.00000000000E+00 0.  1.
        -11   -1    0    0    0    0 -0.00000000000E+00 -0.00000000000E+00 -0.50000000000E+02  0.50000000000E+02  0.00000000000E+00 0. -1.
         23    2    1    2    0    0  0.00000000000E+00  0.00000000000E+00  0.00000000000E+00  0.10000000000E+03  0.10000000000E+03 0.  0.
          5    1    3    3  501    0  0.13562268242E+02 -0.42833264101E+02 -0.21430967467E+02  0.50000000000E+02  0.47000000000E+01 0. -1.
         -5    1    3    3    0  501 -0.13562268242E+02  0.42833264101E+02  0.21430967467E+02  0.50000000000E+02  0.47000000000E+01 0.  1.
</event>
<event>
 5    1  0.9081766E-001  0.1000000E+03  0.7546771E-02  0.1163815E+00
         11   -1    0    0    0    0  0.00000000000E+00  0.00000000000E+00  0.50000000000E+02  0.50000000000E+02  0.00000000000E+00 0. -1.
        -11   -1    0    0    0    0 -0.00000000000E+00 -0.00000000000E+00 -0.50000000000E+02  0.50000000000E+02  0.00000000000E+00 0.  1.
         23    2    1    2    0    0  0.00000000000E+00  0.00000000000E+00  0.00000000000E+00  0.10000000000E+03  0.10000000000E+03 0.  0.
          5    1    3    3  501    0 -0.47139453861E+02 -0.15971386752E+02  0.83468252852E+00  0.50000000000E+02  0.47000000000E+01 0. -1.
         -5    1    3    3    0  501  0.47139453861E+02  0.15971386752E+02 -0.83468252852E+00  0.50000000000E+02  0.47000000000E+01 0.  1.
</event>
<event>
 5    1  0.9081766E-001  0.1000000E+03  0.7546771E-02  0.1163815E+00
         11   -1    0    0    0    0  0.00000000000E+00  0.00000000000E+00  0.50000000000E+02  0.50000000000E+02  0.00000000000E+00 0. -1.
        -11   -1    0    0    0    0 -0.00000000000E+00 -0.00000000000E+00 -0.50000000000E+02  0.50000000000E+02  0.00000000000E+00 0.  1.
         23    2    1    2    0    0  0.00000000000E+00  0.00000000000E+00  0.00000000000E+00  0.10000000000E+03  0.10000000000E+03 0.  0.
          5    1    3    3  501    0 -0.30188876070E+02  0.10718294269E+01  0.39565046990E+02  0.50000000000E+02  0.47000000000E+01 0. -1.
         -5    1    3    3    0  501  0.30188876070E+02 -0.10718294269E+01 -0.39565046990E+02  0.50000000000E+02  0.47000000000E+01 0.  1.
</event>
<event>
 5    1  0.9081766E-001  0.1000000E+03  0.7546771E-02  0.1163815E+00
         11   -1    0    0    0    0  0.00000000000E+00  0.00000000000E+00  0.50000000000E+02  0.50000000000E+02  0.00000000000E+00 0. -1.
        -11   -1    0    0    0    0 -0.00000000000E+00 -0.00000000000E+00 -0.50000000000E+02  0.50000000000E+02  0.00000000000E+00 0.  1.
         23    2    1    2    0    0  0.00000000000E+00  0.00000000000E+00  0.00000000000E+00  0.10000000000E+03  0.10000000000E+03 0.  0.
          5    1    3    3  501    0  0.23404776140E+02 -0.25872037396E+02  0.35507240597E+02  0.50000000000E+02  0.47000000000E+01 0. -1.
         -5    1    3    3    0  501 -0.23404776140E+02  0.25872037396E+02 -0.35507240597E+02  0.50000000000E+02  0.47000000000E+01 0.  1.
</event>
<event>
 5    1  0.9081766E-001  0.1000000E+03  0.7546771E-02  0.1163815E+00
         11   -1    0    0    0    0  0.00000000000E+00  0.00000000000E+00  0.50000000000E+02  0.50000000000E+02  0.00000000000E+00 0. -1.
        -11   -1    0    0    0    0 -0.00000000000E+00 -0.00000000000E+00 -0.50000000000E+02  0.50000000000E+02  0.00000000000E+00 0.  1.
         23    2    1    2    0    0  0.00000000000E+00  0.00000000000E+00  0.00000000000E+00  0.10000000000E+03  0.10000000000E+03 0.  0.
          5    1    3    3  501    0  0.79869864021E+01 -0.10977425087E+02  0.47891692251E+02  0.50000000000E+02  0.47000000000E+01 0. -1.
         -5    1    3    3    0  501 -0.79869864021E+01  0.10977425087E+02 -0.47891692251E+02  0.50000000000E+02  0.47000000000E+01 0.  1.
</event>
<event>
 5    1  0.9081766E-001  0.1000000E+03  0.7546771E-02  0.1163815E+00
         11   -1    0    0    0    0  0.00000000000E+00  0.00000000000E+00  0.50000000000E+02  0.50000000000E+02  0.00000000000E+00 0.  1.
        -11   -1    0    0    0    0 -0.00000000000E+00 -0.00000000000E+00 -0.50000000000E+02  0.50000000000E+02  0.00000000000E+00 0. -1.
         23    2    1    2    0    0  0.00000000000E+00  0.00000000000E+00  0.00000000000E+00  0.10000000000E+03  0.10000000000E+03 0.  0.
          5    1    3    3  501    0  0.84608489146E+01  0.42327307159E+02  0.24793610151E+02  0.50000000000E+02  0.47000000000E+01 0.  1.
         -5    1    3    3    0  501 -0.84608489146E+01 -0.42327307159E+02 -0.24793610151E+02  0.50000000000E+02  0.47000000000E+01 0. -1.
</event>
<event>
 5    1  0.9081766E-001  0.1000000E+03  0.7546771E-02  0.1163815E+00
         11   -1    0    0    0    0  0.00000000000E+00  0.00000000000E+00  0.50000000000E+02  0.50000000000E+02  0.00000000000E+00 0. -1.
        -11   -1    0    0    0    0 -0.00000000000E+00 -0.00000000000E+00 -0.50000000000E+02  0.50000000000E+02  0.00000000000E+00 0.  1.
         23    2    1    2    0    0  0.00000000000E+00  0.00000000000E+00  0.00000000000E+00  0.10000000000E+03  0.10000000000E+03 0.  0.
          5    1    3    3  501    0 -0.85748419812E+01  0.37659615858E+02  0.31402793163E+02  0.50000000000E+02  0.47000000000E+01 0. -1.
         -5    1    3    3    0  501  0.85748419812E+01 -0.37659615858E+02 -0.31402793163E+02  0.50000000000E+02  0.47000000000E+01 0.  1.
</event>
<event>
 5    1  0.9081766E-001  0.1000000E+03  0.7546771E-02  0.1163815E+00
         11   -1    0    0    0    0  0.00000000000E+00  0.00000000000E+00  0.50000000000E+02  0.50000000000E+02  0.00000000000E+00 0. -1.
        -11   -1    0    0    0    0 -0.00000000000E+00 -0.00000000000E+00 -0.50000000000E+02  0.50000000000E+02  0.00000000000E+00 0.  1.
         23    2    1    2    0    0  0.00000000000E+00  0.00000000000E+00  0.00000000000E+00  0.10000000000E+03  0.10000000000E+03 0.  0.
          5    1    3    3  501    0  0.19765527346E+02 -0.14828739729E+02  0.43212757454E+02  0.50000000000E+02  0.47000000000E+01 0. -1.
         -5    1    3    3    0  501 -0.19765527346E+02  0.14828739729E+02 -0.43212757454E+02  0.50000000000E+02  0.47000000000E+01 0.  1.
</event>
<event>
 5    1  0.9081766E-001  0.1000000E+03  0.7546771E-02  0.1163815E+00
         11   -1    0    0    0    0  0.00000000000E+00  0.00000000000E+00  0.50000000000E+02  0.50000000000E+02  0.00000000000E+00 0.  1.
        -11   -1    0    0    0    0 -0.00000000000E+00 -0.00000000000E+00 -0.50000000000E+02  0.50000000000E+02  0.00000000000E+00 0. -1.
         23    2    1    2    0    0  0.00000000000E+00  0.00000000000E+00  0.00000000000E+00  0.10000000000E+03  0.10000000000E+03 0.  0.
          5    1    3    3  501    0 -0.20459164418E+02 -0.55563247396E+01 -0.45038426335E+02  0.50000000000E+02  0.47000000000E+01 0. -1.
         -5    1    3    3    0  501  0.20459164418E+02  0.55563247396E+01  0.45038426335E+02  0.50000000000E+02  0.47000000000E+01 0.  1.
</event>
<event>
 5    1  0.9081766E-001  0.1000000E+03  0.7546771E-02  0.1163815E+00
         11   -1    0    0    0    0  0.00000000000E+00  0.00000000000E+00  0.50000000000E+02  0.50000000000E+02  0.00000000000E+00 0. -1.
        -11   -1    0    0    0    0 -0.00000000000E+00 -0.00000000000E+00 -0.50000000000E+02  0.50000000000E+02  0.00000000000E+00 0.  1.
         23    2    1    2    0    0  0.00000000000E+00  0.00000000000E+00  0.00000000000E+00  0.10000000000E+03  0.10000000000E+03 0.  0.
          5    1    3    3  501    0 -0.35445031482E+02  0.31609445629E+02  0.14913171704E+02  0.50000000000E+02  0.47000000000E+01 0. -1.
         -5    1    3    3    0  501  0.35445031482E+02 -0.31609445629E+02 -0.14913171704E+02  0.50000000000E+02  0.47000000000E+01 0.  1.
</event>
<event>
 5    1  0.9081766E-001  0.1000000E+03  0.7546771E-02  0.1163815E+00
         11   -1    0    0    0    0  0.00000000000E+00  0.00000000000E+00  0.50000000000E+02  0.50000000000E+02  0.00000000000E+00 0. -1.
        -11   -1    0    0    0    0 -0.00000000000E+00 -0.00000000000E+00 -0.50000000000E+02  0.50000000000E+02  0.00000000000E+00 0.  1.
         23    2    1    2    0    0  0.00000000000E+00  0.00000000000E+00  0.00000000000E+00  0.10000000000E+03  0.10000000000E+03 0.  0.
          5    1    3    3  501    0 -0.23101301840E+02 -0.41377927044E+02 -0.15235058479E+02  0.50000000000E+02  0.47000000000E+01 0. -1.
         -5    1    3    3    0  501  0.23101301840E+02  0.41377927044E+02  0.15235058479E+02  0.50000000000E+02  0.47000000000E+01 0.  1.
</event>
<event>
 5    1  0.9081766E-001  0.1000000E+03  0.7546771E-02  0.1163815E+00
         11   -1    0    0    0    0  0.00000000000E+00  0.00000000000E+00  0.50000000000E+02  0.50000000000E+02  0.00000000000E+00 0. -1.
        -11   -1    0    0    0    0 -0.00000000000E+00 -0.00000000000E+00 -0.50000000000E+02  0.50000000000E+02  0.00000000000E+00 0.  1.
         23    2    1    2    0    0  0.00000000000E+00  0.00000000000E+00  0.00000000000E+00  0.10000000000E+03  0.10000000000E+03 0.  0.
          5    1    3    3  501    0  0.52138063159E+01  0.38436605344E+02  0.31198615247E+02  0.50000000000E+02  0.47000000000E+01 0. -1.
         -5    1    3    3    0  501 -0.52138063159E+01 -0.38436605344E+02 -0.31198615247E+02  0.50000000000E+02  0.47000000000E+01 0.  1.
</event>
<event>
 5    1  0.9081766E-001  0.1000000E+03  0.7546771E-02  0.1163815E+00
         11   -1    0    0    0    0  0.00000000000E+00  0.00000000000E+00  0.50000000000E+02  0.50000000000E+02  0.00000000000E+00 0. -1.
        -11   -1    0    0    0    0 -0.00000000000E+00 -0.00000000000E+00 -0.50000000000E+02  0.50000000000E+02  0.00000000000E+00 0.  1.
         23    2    1    2    0    0  0.00000000000E+00  0.00000000000E+00  0.00000000000E+00  0.10000000000E+03  0.10000000000E+03 0.  0.
          5    1    3    3  501    0 -0.41043498395E+01 -0.47595630665E+02 -0.13990005505E+02  0.50000000000E+02  0.47000000000E+01 0. -1.
         -5    1    3    3    0  501  0.41043498395E+01  0.47595630665E+02  0.13990005505E+02  0.50000000000E+02  0.47000000000E+01 0.  1.
</event>
<event>
 5    1  0.9081766E-001  0.1000000E+03  0.7546771E-02  0.1163815E+00
         11   -1    0    0    0    0  0.00000000000E+00  0.00000000000E+00  0.50000000000E+02  0.50000000000E+02  0.00000000000E+00 0. -1.
        -11   -1    0    0    0    0 -0.00000000000E+00 -0.00000000000E+00 -0.50000000000E+02  0.50000000000E+02  0.00000000000E+00 0.  1.
         23    2    1    2    0    0  0.00000000000E+00  0.00000000000E+00  0.00000000000E+00  0.10000000000E+03  0.10000000000E+03 0.  0.
          5    1    3    3  501    0  0.31257843302E+02 -0.27456028118E+02  0.27331735256E+02  0.50000000000E+02  0.47000000000E+01 0. -1.
         -5    1    3    3    0  501 -0.31257843302E+02  0.27456028118E+02 -0.27331735256E+02  0.50000000000E+02  0.47000000000E+01 0.  1.
</event>
<event>
 5    1  0.9081766E-001  0.1000000E+03  0.7546771E-02  0.1163815E+00
         11   -1    0    0    0    0  0.00000000000E+00  0.00000000000E+00  0.50000000000E+02  0.50000000000E+02  0.00000000000E+00 0. -1.
        -11   -1    0    0    0    0 -0.00000000000E+00 -0.00000000000E+00 -0.50000000000E+02  0.50000000000E+02  0.00000000000E+00 0.  1.
         23    2    1    2    0    0  0.00000000000E+00  0.00000000000E+00  0.00000000000E+00  0.10000000000E+03  0.10000000000E+03 0.  0.
          5    1    3    3  501    0 -0.22025967391E+02 -0.29451066602E+02  0.33547003390E+02  0.50000000000E+02  0.47000000000E+01 0. -1.
         -5    1    3    3    0  501  0.22025967391E+02  0.29451066602E+02 -0.33547003390E+02  0.50000000000E+02  0.47000000000E+01 0.  1.
</event>
<event>
 5    1  0.9081766E-001  0.1000000E+03  0.7546771E-02  0.1163815E+00
         11   -1    0    0    0    0  0.00000000000E+00  0.00000000000E+00  0.50000000000E+02  0.50000000000E+02  0.00000000000E+00 0.  1.
        -11   -1    0    0    0    0 -0.00000000000E+00 -0.00000000000E+00 -0.50000000000E+02  0.50000000000E+02  0.00000000000E+00 0. -1.
         23    2    1    2    0    0  0.00000000000E+00  0.00000000000E+00  0.00000000000E+00  0.10000000000E+03  0.10000000000E+03 0.  0.
          5    1    3    3  501    0  0.11176431255E+02  0.16778421664E+02 -0.45513535908E+02  0.50000000000E+02  0.47000000000E+01 0. -1.
         -5    1    3    3    0  501 -0.11176431255E+02 -0.16778421664E+02  0.45513535908E+02  0.50000000000E+02  0.47000000000E+01 0.  1.
</event>
<event>
 5    1  0.9081766E-001  0.1000000E+03  0.7546771E-02  0.1163815E+00
         11   -1    0    0    0    0  0.00000000000E+00  0.00000000000E+00  0.50000000000E+02  0.50000000000E+02  0.00000000000E+00 0. -1.
        -11   -1    0    0    0    0 -0.00000000000E+00 -0.00000000000E+00 -0.50000000000E+02  0.50000000000E+02  0.00000000000E+00 0.  1.
         23    2    1    2    0    0  0.00000000000E+00  0.00000000000E+00  0.00000000000E+00  0.10000000000E+03  0.10000000000E+03 0.  0.
          5    1    3    3  501    0  0.50162669458E+01 -0.49139900704E+02  0.61658109554E+01  0.50000000000E+02  0.47000000000E+01 0. -1.
         -5    1    3    3    0  501 -0.50162669458E+01  0.49139900704E+02 -0.61658109554E+01  0.50000000000E+02  0.47000000000E+01 0.  1.
</event>
<event>
 5    1  0.9081766E-001  0.1000000E+03  0.7546771E-02  0.1163815E+00
         11   -1    0    0    0    0  0.00000000000E+00  0.00000000000E+00  0.50000000000E+02  0.50000000000E+02  0.00000000000E+00 0.  1.
        -11   -1    0    0    0    0 -0.00000000000E+00 -0.00000000000E+00 -0.50000000000E+02  0.50000000000E+02  0.00000000000E+00 0. -1.
         23    2    1    2    0    0  0.00000000000E+00  0.00000000000E+00  0.00000000000E+00  0.10000000000E+03  0.10000000000E+03 0.  0.
          5    1    3    3  501    0 -0.43383640129E+02 -0.19498320496E+02 -0.14682822174E+02  0.50000000000E+02  0.47000000000E+01 0. -1.
         -5    1    3    3    0  501  0.43383640129E+02  0.19498320496E+02  0.14682822174E+02  0.50000000000E+02  0.47000000000E+01 0.  1.
</event>
<event>
 5    1  0.9081766E-001  0.1000000E+03  0.7546771E-02  0.1163815E+00
         11   -1    0    0    0    0  0.00000000000E+00  0.00000000000E+00  0.50000000000E+02  0.50000000000E+02  0.00000000000E+00 0.  1.
        -11   -1    0    0    0    0 -0.00000000000E+00 -0.00000000000E+00 -0.50000000000E+02  0.50000000000E+02  0.00000000000E+00 0. -1.
         23    2    1    2    0    0  0.00000000000E+00  0.00000000000E+00  0.00000000000E+00  0.10000000000E+03  0.10000000000E+03 0.  0.
          5    1    3    3  501    0  0.30627567205E+02  0.33585865511E+02  0.20294131294E+02  0.50000000000E+02  0.47000000000E+01 0. -1.
         -5    1    3    3    0  501 -0.30627567205E+02 -0.33585865511E+02 -0.20294131294E+02  0.50000000000E+02  0.47000000000E+01 0.  1.
</event>
<event>
 5    1  0.9081766E-001  0.1000000E+03  0.7546771E-02  0.1163815E+00
         11   -1    0    0    0    0  0.00000000000E+00  0.00000000000E+00  0.50000000000E+02  0.50000000000E+02  0.00000000000E+00 0.  1.
        -11   -1    0    0    0    0 -0.00000000000E+00 -0.00000000000E+00 -0.50000000000E+02  0.50000000000E+02  0.00000000000E+00 0. -1.
         23    2    1    2    0    0  0.00000000000E+00  0.00000000000E+00  0.00000000000E+00  0.10000000000E+03  0.10000000000E+03 0.  0.
          5    1    3    3  501    0 -0.18051187706E+02  0.17306117701E+01 -0.46358058688E+02  0.50000000000E+02  0.47000000000E+01 0. -1.
         -5    1    3    3    0  501  0.18051187706E+02 -0.17306117701E+01  0.46358058688E+02  0.50000000000E+02  0.47000000000E+01 0.  1.
</event>
<event>
 5    1  0.9081766E-001  0.1000000E+03  0.7546771E-02  0.1163815E+00
         11   -1    0    0    0    0  0.00000000000E+00  0.00000000000E+00  0.50000000000E+02  0.50000000000E+02  0.00000000000E+00 0. -1.
        -11   -1    0    0    0    0 -0.00000000000E+00 -0.00000000000E+00 -0.50000000000E+02  0.50000000000E+02  0.00000000000E+00 0.  1.
         23    2    1    2    0    0  0.00000000000E+00  0.00000000000E+00  0.00000000000E+00  0.10000000000E+03  0.10000000000E+03 0.  0.
          5    1    3    3  501    0 -0.34051589740E+02 -0.19389132540E+02  0.30699524028E+02  0.50000000000E+02  0.47000000000E+01 0. -1.
         -5    1    3    3    0  501  0.34051589740E+02  0.19389132540E+02 -0.30699524028E+02  0.50000000000E+02  0.47000000000E+01 0.  1.
</event>
<event>
 5    1  0.9081766E-001  0.1000000E+03  0.7546771E-02  0.1163815E+00
         11   -1    0    0    0    0  0.00000000000E+00  0.00000000000E+00  0.50000000000E+02  0.50000000000E+02  0.00000000000E+00 0.  1.
        -11   -1    0    0    0    0 -0.00000000000E+00 -0.00000000000E+00 -0.50000000000E+02  0.50000000000E+02  0.00000000000E+00 0. -1.
         23    2    1    2    0    0  0.00000000000E+00  0.00000000000E+00  0.00000000000E+00  0.10000000000E+03  0.10000000000E+03 0.  0.
          5    1    3    3  501    0  0.49989543691E+01  0.42021229215E+02  0.26213293392E+02  0.50000000000E+02  0.47000000000E+01 0. -1.
         -5    1    3    3    0  501 -0.49989543691E+01 -0.42021229215E+02 -0.26213293392E+02  0.50000000000E+02  0.47000000000E+01 0.  1.
</event>
<event>
 5    1  0.9081766E-001  0.1000000E+03  0.7546771E-02  0.1163815E+00
         11   -1    0    0    0    0  0.00000000000E+00  0.00000000000E+00  0.50000000000E+02  0.50000000000E+02  0.00000000000E+00 0. -1.
        -11   -1    0    0    0    0 -0.00000000000E+00 -0.00000000000E+00 -0.50000000000E+02  0.50000000000E+02  0.00000000000E+00 0.  1.
         23    2    1    2    0    0  0.00000000000E+00  0.00000000000E+00  0.00000000000E+00  0.10000000000E+03  0.10000000000E+03 0.  0.
          5    1    3    3  501    0  0.12330874218E+02  0.62626410707E+01  0.47818812907E+02  0.50000000000E+02  0.47000000000E+01 0. -1.
         -5    1    3    3    0  501 -0.12330874218E+02 -0.62626410707E+01 -0.47818812907E+02  0.50000000000E+02  0.47000000000E+01 0.  1.
</event>
<event>
 5    1  0.9081766E-001  0.1000000E+03  0.7546771E-02  0.1163815E+00
         11   -1    0    0    0    0  0.00000000000E+00  0.00000000000E+00  0.50000000000E+02  0.50000000000E+02  0.00000000000E+00 0. -1.
        -11   -1    0    0    0    0 -0.00000000000E+00 -0.00000000000E+00 -0.50000000000E+02  0.50000000000E+02  0.00000000000E+00 0.  1.
         23    2    1    2    0    0  0.00000000000E+00  0.00000000000E+00  0.00000000000E+00  0.10000000000E+03  0.10000000000E+03 0.  0.
          5    1    3    3  501    0  0.41293121180E+02 -0.23191559871E+02  0.15327742624E+02  0.50000000000E+02  0.47000000000E+01 0. -1.
         -5    1    3    3    0  501 -0.41293121180E+02  0.23191559871E+02 -0.15327742624E+02  0.50000000000E+02  0.47000000000E+01 0.  1.
</event>
<event>
 5    1  0.9081766E-001  0.1000000E+03  0.7546771E-02  0.1163815E+00
         11   -1    0    0    0    0  0.00000000000E+00  0.00000000000E+00  0.50000000000E+02  0.50000000000E+02  0.00000000000E+00 0.  1.
        -11   -1    0    0    0    0 -0.00000000000E+00 -0.00000000000E+00 -0.50000000000E+02  0.50000000000E+02  0.00000000000E+00 0. -1.
         23    2    1    2    0    0  0.00000000000E+00  0.00000000000E+00  0.00000000000E+00  0.10000000000E+03  0.10000000000E+03 0.  0.
          5    1    3    3  501    0 -0.25778536596E+02 -0.40628602607E+02 -0.12755144105E+02  0.50000000000E+02  0.47000000000E+01 0.  1.
         -5    1    3    3    0  501  0.25778536596E+02  0.40628602607E+02  0.12755144105E+02  0.50000000000E+02  0.47000000000E+01 0. -1.
</event>
<event>
 5    1  0.9081766E-001  0.1000000E+03  0.7546771E-02  0.1163815E+00
         11   -1    0    0    0    0  0.00000000000E+00  0.00000000000E+00  0.50000000000E+02  0.50000000000E+02  0.00000000000E+00 0. -1.
        -11   -1    0    0    0    0 -0.00000000000E+00 -0.00000000000E+00 -0.50000000000E+02  0.50000000000E+02  0.00000000000E+00 0.  1.
         23    2    1    2    0    0  0.00000000000E+00  0.00000000000E+00  0.00000000000E+00  0.10000000000E+03  0.10000000000E+03 0.  0.
          5    1    3    3  501    0 -0.13753295675E+02  0.47020230991E+02  0.88235330591E+01  0.50000000000E+02  0.47000000000E+01 0. -1.
         -5    1    3    3    0  501  0.13753295675E+02 -0.47020230991E+02 -0.88235330591E+01  0.50000000000E+02  0.47000000000E+01 0.  1.
</event>
<event>
 5    1  0.9081766E-001  0.1000000E+03  0.7546771E-02  0.1163815E+00
         11   -1    0    0    0    0  0.00000000000E+00  0.00000000000E+00  0.50000000000E+02  0.50000000000E+02  0.00000000000E+00 0. -1.
        -11   -1    0    0    0    0 -0.00000000000E+00 -0.00000000000E+00 -0.50000000000E+02  0.50000000000E+02  0.00000000000E+00 0.  1.
         23    2    1    2    0    0  0.00000000000E+00  0.00000000000E+00  0.00000000000E+00  0.10000000000E+03  0.10000000000E+03 0.  0.
          5    1    3    3  501    0 -0.99415722285E+01  0.40378108050E+02  0.27362082010E+02  0.50000000000E+02  0.47000000000E+01 0. -1.
         -5    1    3    3    0  501  0.99415722285E+01 -0.40378108050E+02 -0.27362082010E+02  0.50000000000E+02  0.47000000000E+01 0.  1.
</event>
<event>
 5    1  0.9081766E-001  0.1000000E+03  0.7546771E-02  0.1163815E+00
         11   -1    0    0    0    0  0.00000000000E+00  0.00000000000E+00  0.50000000000E+02  0.50000000000E+02  0.00000000000E+00 0. -1.
        -11   -1    0    0    0    0 -0.00000000000E+00 -0.00000000000E+00 -0.50000000000E+02  0.50000000000E+02  0.00000000000E+00 0.  1.
         23    2    1    2    0    0  0.00000000000E+00  0.00000000000E+00  0.00000000000E+00  0.10000000000E+03  0.10000000000E+03 0.  0.
          5    1    3    3  501    0  0.19720464218E+00  0.24357182965E+02  0.43411965497E+02  0.50000000000E+02  0.47000000000E+01 0. -1.
         -5    1    3    3    0  501 -0.19720464218E+00 -0.24357182965E+02 -0.43411965497E+02  0.50000000000E+02  0.47000000000E+01 0.  1.
</event>
<event>
 5    1  0.9081766E-001  0.1000000E+03  0.7546771E-02  0.1163815E+00
         11   -1    0    0    0    0  0.00000000000E+00  0.00000000000E+00  0.50000000000E+02  0.50000000000E+02  0.00000000000E+00 0.  1.
        -11   -1    0    0    0    0 -0.00000000000E+00 -0.00000000000E+00 -0.50000000000E+02  0.50000000000E+02  0.00000000000E+00 0. -1.
         23    2    1    2    0    0  0.00000000000E+00  0.00000000000E+00  0.00000000000E+00  0.10000000000E+03  0.10000000000E+03 0.  0.
          5    1    3    3  501    0 -0.28064768630E+02 -0.23521465981E+02  0.33719718265E+02  0.50000000000E+02  0.47000000000E+01 0. -1.
         -5    1    3    3    0  501  0.28064768630E+02  0.23521465981E+02 -0.33719718265E+02  0.50000000000E+02  0.47000000000E+01 0.  1.
</event>
<event>
 5    1  0.9081766E-001  0.1000000E+03  0.7546771E-02  0.1163815E+00
         11   -1    0    0    0    0  0.00000000000E+00  0.00000000000E+00  0.50000000000E+02  0.50000000000E+02  0.00000000000E+00 0.  1.
        -11   -1    0    0    0    0 -0.00000000000E+00 -0.00000000000E+00 -0.50000000000E+02  0.50000000000E+02  0.00000000000E+00 0. -1.
         23    2    1    2    0    0  0.00000000000E+00  0.00000000000E+00  0.00000000000E+00  0.10000000000E+03  0.10000000000E+03 0.  0.
          5    1    3    3  501    0  0.29343093361E+02 -0.33848437856E+01 -0.40067888696E+02  0.50000000000E+02  0.47000000000E+01 0. -1.
         -5    1    3    3    0  501 -0.29343093361E+02  0.33848437856E+01  0.40067888696E+02  0.50000000000E+02  0.47000000000E+01 0.  1.
</event>
<event>
 5    1  0.9081766E-001  0.1000000E+03  0.7546771E-02  0.1163815E+00
         11   -1    0    0    0    0  0.00000000000E+00  0.00000000000E+00  0.50000000000E+02  0.50000000000E+02  0.00000000000E+00 0.  1.
        -11   -1    0    0    0    0 -0.00000000000E+00 -0.00000000000E+00 -0.50000000000E+02  0.50000000000E+02  0.00000000000E+00 0. -1.
         23    2    1    2    0    0  0.00000000000E+00  0.00000000000E+00  0.00000000000E+00  0.10000000000E+03  0.10000000000E+03 0.  0.
          5    1    3    3  501    0  0.25458972918E+02  0.10611848970E+02 -0.41438380270E+02  0.50000000000E+02  0.47000000000E+01 0. -1.
         -5    1    3    3    0  501 -0.25458972918E+02 -0.10611848970E+02  0.41438380270E+02  0.50000000000E+02  0.47000000000E+01 0.  1.
</event>
<event>
 5    1  0.9081766E-001  0.1000000E+03  0.7546771E-02  0.1163815E+00
         11   -1    0    0    0    0  0.00000000000E+00  0.00000000000E+00  0.50000000000E+02  0.50000000000E+02  0.00000000000E+00 0. -1.
        -11   -1    0    0    0    0 -0.00000000000E+00 -0.00000000000E+00 -0.50000000000E+02  0.50000000000E+02  0.00000000000E+00 0.  1.
         23    2    1    2    0    0  0.00000000000E+00  0.00000000000E+00  0.00000000000E+00  0.10000000000E+03  0.10000000000E+03 0.  0.
          5    1    3    3  501    0  0.16335041118E+02 -0.31744827821E+02  0.34689225103E+02  0.50000000000E+02  0.47000000000E+01 0. -1.
         -5    1    3    3    0  501 -0.16335041118E+02  0.31744827821E+02 -0.34689225103E+02  0.50000000000E+02  0.47000000000E+01 0.  1.
</event>
<event>
 5    1  0.9081766E-001  0.1000000E+03  0.7546771E-02  0.1163815E+00
         11   -1    0    0    0    0  0.00000000000E+00  0.00000000000E+00  0.50000000000E+02  0.50000000000E+02  0.00000000000E+00 0.  1.
        -11   -1    0    0    0    0 -0.00000000000E+00 -0.00000000000E+00 -0.50000000000E+02  0.50000000000E+02  0.00000000000E+00 0. -1.
         23    2    1    2    0    0  0.00000000000E+00  0.00000000000E+00  0.00000000000E+00  0.10000000000E+03  0.10000000000E+03 0.  0.
          5    1    3    3  501    0  0.28415132691E+02 -0.31637585108E+02 -0.25875730766E+02  0.50000000000E+02  0.47000000000E+01 0. -1.
         -5    1    3    3    0  501 -0.28415132691E+02  0.31637585108E+02  0.25875730766E+02  0.50000000000E+02  0.47000000000E+01 0.  1.
</event>
<event>
 5    1  0.9081766E-001  0.1000000E+03  0.7546771E-02  0.1163815E+00
         11   -1    0    0    0    0  0.00000000000E+00  0.00000000000E+00  0.50000000000E+02  0.50000000000E+02  0.00000000000E+00 0. -1.
        -11   -1    0    0    0    0 -0.00000000000E+00 -0.00000000000E+00 -0.50000000000E+02  0.50000000000E+02  0.00000000000E+00 0.  1.
         23    2    1    2    0    0  0.00000000000E+00  0.00000000000E+00  0.00000000000E+00  0.10000000000E+03  0.10000000000E+03 0.  0.
          5    1    3    3  501    0  0.45659388667E+02 -0.65268392366E+01  0.18722462342E+02  0.50000000000E+02  0.47000000000E+01 0. -1.
         -5    1    3    3    0  501 -0.45659388667E+02  0.65268392366E+01 -0.18722462342E+02  0.50000000000E+02  0.47000000000E+01 0.  1.
</event>
<event>
 5    1  0.9081766E-001  0.1000000E+03  0.7546771E-02  0.1163815E+00
         11   -1    0    0    0    0  0.00000000000E+00  0.00000000000E+00  0.50000000000E+02  0.50000000000E+02  0.00000000000E+00 0. -1.
        -11   -1    0    0    0    0 -0.00000000000E+00 -0.00000000000E+00 -0.50000000000E+02  0.50000000000E+02  0.00000000000E+00 0.  1.
         23    2    1    2    0    0  0.00000000000E+00  0.00000000000E+00  0.00000000000E+00  0.10000000000E+03  0.10000000000E+03 0.  0.
          5    1    3    3  501    0 -0.39478064433E+02 -0.27021565208E+02  0.13755996595E+02  0.50000000000E+02  0.47000000000E+01 0. -1.
         -5    1    3    3    0  501  0.39478064433E+02  0.27021565208E+02 -0.13755996595E+02  0.50000000000E+02  0.47000000000E+01 0.  1.
</event>
<event>
 5    1  0.9081766E-001  0.1000000E+03  0.7546771E-02  0.1163815E+00
         11   -1    0    0    0    0  0.00000000000E+00  0.00000000000E+00  0.50000000000E+02  0.50000000000E+02  0.00000000000E+00 0. -1.
        -11   -1    0    0    0    0 -0.00000000000E+00 -0.00000000000E+00 -0.50000000000E+02  0.50000000000E+02  0.00000000000E+00 0.  1.
         23    2    1    2    0    0  0.00000000000E+00  0.00000000000E+00  0.00000000000E+00  0.10000000000E+03  0.10000000000E+03 0.  0.
          5    1    3    3  501    0 -0.33548547331E+02 -0.22614003488E+02  0.29000203763E+02  0.50000000000E+02  0.47000000000E+01 0. -1.
         -5    1    3    3    0  501  0.33548547331E+02  0.22614003488E+02 -0.29000203763E+02  0.50000000000E+02  0.47000000000E+01 0.  1.
</event>
<event>
 5    1  0.9081766E-001  0.1000000E+03  0.7546771E-02  0.1163815E+00
         11   -1    0    0    0    0  0.00000000000E+00  0.00000000000E+00  0.50000000000E+02  0.50000000000E+02  0.00000000000E+00 0. -1.
        -11   -1    0    0    0    0 -0.00000000000E+00 -0.00000000000E+00 -0.50000000000E+02  0.50000000000E+02  0.00000000000E+00 0.  1.
         23    2    1    2    0    0  0.00000000000E+00  0.00000000000E+00  0.00000000000E+00  0.10000000000E+03  0.10000000000E+03 0.  0.
          5    1    3    3  501    0 -0.37207536111E+02 -0.98237416094E+01  0.31575359971E+02  0.50000000000E+02  0.47000000000E+01 0. -1.
         -5    1    3    3    0  501  0.37207536111E+02  0.98237416094E+01 -0.31575359971E+02  0.50000000000E+02  0.47000000000E+01 0.  1.
</event>
<event>
 5    1  0.9081766E-001  0.1000000E+03  0.7546771E-02  0.1163815E+00
         11   -1    0    0    0    0  0.00000000000E+00  0.00000000000E+00  0.50000000000E+02  0.50000000000E+02  0.00000000000E+00 0.  1.
        -11   -1    0    0    0    0 -0.00000000000E+00 -0.00000000000E+00 -0.50000000000E+02  0.50000000000E+02  0.00000000000E+00 0. -1.
         23    2    1    2    0    0  0.00000000000E+00  0.00000000000E+00  0.00000000000E+00  0.10000000000E+03  0.10000000000E+03 0.  0.
          5    1    3    3  501    0  0.23956545042E+02  0.27708006467E+02 -0.33708460767E+02  0.50000000000E+02  0.47000000000E+01 0. -1.
         -5    1    3    3    0  501 -0.23956545042E+02 -0.27708006467E+02  0.33708460767E+02  0.50000000000E+02  0.47000000000E+01 0.  1.
</event>
<event>
 5    1  0.9081766E-001  0.1000000E+03  0.7546771E-02  0.1163815E+00
         11   -1    0    0    0    0  0.00000000000E+00  0.00000000000E+00  0.50000000000E+02  0.50000000000E+02  0.00000000000E+00 0. -1.
        -11   -1    0    0    0    0 -0.00000000000E+00 -0.00000000000E+00 -0.50000000000E+02  0.50000000000E+02  0.00000000000E+00 0.  1.
         23    2    1    2    0    0  0.00000000000E+00  0.00000000000E+00  0.00000000000E+00  0.10000000000E+03  0.10000000000E+03 0.  0.
          5    1    3    3  501    0 -0.17243112982E+02  0.43862864642E+02  0.16019805244E+02  0.50000000000E+02  0.47000000000E+01 0. -1.
         -5    1    3    3    0  501  0.17243112982E+02 -0.43862864642E+02 -0.16019805244E+02  0.50000000000E+02  0.47000000000E+01 0.  1.
</event>
<event>
 5    1  0.9081766E-001  0.1000000E+03  0.7546771E-02  0.1163815E+00
         11   -1    0    0    0    0  0.00000000000E+00  0.00000000000E+00  0.50000000000E+02  0.50000000000E+02  0.00000000000E+00 0.  1.
        -11   -1    0    0    0    0 -0.00000000000E+00 -0.00000000000E+00 -0.50000000000E+02  0.50000000000E+02  0.00000000000E+00 0. -1.
         23    2    1    2    0    0  0.00000000000E+00  0.00000000000E+00  0.00000000000E+00  0.10000000000E+03  0.10000000000E+03 0.  0.
          5    1    3    3  501    0  0.45613506363E+01  0.29683127603E+02 -0.39699068202E+02  0.50000000000E+02  0.47000000000E+01 0. -1.
         -5    1    3    3    0  501 -0.45613506363E+01 -0.29683127603E+02  0.39699068202E+02  0.50000000000E+02  0.47000000000E+01 0.  1.
</event>
<event>
 5    1  0.9081766E-001  0.1000000E+03  0.7546771E-02  0.1163815E+00
         11   -1    0    0    0    0  0.00000000000E+00  0.00000000000E+00  0.50000000000E+02  0.50000000000E+02  0.00000000000E+00 0.  1.
        -11   -1    0    0    0    0 -0.00000000000E+00 -0.00000000000E+00 -0.50000000000E+02  0.50000000000E+02  0.00000000000E+00 0. -1.
         23    2    1    2    0    0  0.00000000000E+00  0.00000000000E+00  0.00000000000E+00  0.10000000000E+03  0.10000000000E+03 0.  0.
          5    1    3    3  501    0  0.29397843903E+01 -0.21141395815E+02 -0.44970090624E+02  0.50000000000E+02  0.47000000000E+01 0. -1.
         -5    1    3    3    0  501 -0.29397843903E+01  0.21141395815E+02  0.44970090624E+02  0.50000000000E+02  0.47000000000E+01 0.  1.
</event>
<event>
 5    1  0.9081766E-001  0.1000000E+03  0.7546771E-02  0.1163815E+00
         11   -1    0    0    0    0  0.00000000000E+00  0.00000000000E+00  0.50000000000E+02  0.50000000000E+02  0.00000000000E+00 0. -1.
        -11   -1    0    0    0    0 -0.00000000000E+00 -0.00000000000E+00 -0.50000000000E+02  0.50000000000E+02  0.00000000000E+00 0.  1.
         23    2    1    2    0    0  0.00000000000E+00  0.00000000000E+00  0.00000000000E+00  0.10000000000E+03  0.10000000000E+03 0.  0.
          5    1    3    3  501    0 -0.20743893800E+02 -0.23958228537E+02  0.38387552089E+02  0.50000000000E+02  0.47000000000E+01 0. -1.
         -5    1    3    3    0  501  0.20743893800E+02  0.23958228537E+02 -0.38387552089E+02  0.50000000000E+02  0.47000000000E+01 0.  1.
</event>
<event>
 5    1  0.9081766E-001  0.1000000E+03  0.7546771E-02  0.1163815E+00
         11   -1    0    0    0    0  0.00000000000E+00  0.00000000000E+00  0.50000000000E+02  0.50000000000E+02  0.00000000000E+00 0. -1.
        -11   -1    0    0    0    0 -0.00000000000E+00 -0.00000000000E+00 -0.50000000000E+02  0.50000000000E+02  0.00000000000E+00 0.  1.
         23    2    1    2    0    0  0.00000000000E+00  0.00000000000E+00  0.00000000000E+00  0.10000000000E+03  0.10000000000E+03 0.  0.
          5    1    3    3  501    0  0.10264468103E+02 -0.40483874174E+02  0.27085173554E+02  0.50000000000E+02  0.47000000000E+01 0. -1.
         -5    1    3    3    0  501 -0.10264468103E+02  0.40483874174E+02 -0.27085173554E+02  0.50000000000E+02  0.47000000000E+01 0.  1.
</event>
<event>
 5    1  0.9081766E-001  0.1000000E+03  0.7546771E-02  0.1163815E+00
         11   -1    0    0    0    0  0.00000000000E+00  0.00000000000E+00  0.50000000000E+02  0.50000000000E+02  0.00000000000E+00 0. -1.
        -11   -1    0    0    0    0 -0.00000000000E+00 -0.00000000000E+00 -0.50000000000E+02  0.50000000000E+02  0.00000000000E+00 0.  1.
         23    2    1    2    0    0  0.00000000000E+00  0.00000000000E+00  0.00000000000E+00  0.10000000000E+03  0.10000000000E+03 0.  0.
          5    1    3    3  501    0  0.32413437925E+02  0.37653265595E+02  0.30839312527E+01  0.50000000000E+02  0.47000000000E+01 0. -1.
         -5    1    3    3    0  501 -0.32413437925E+02 -0.37653265595E+02 -0.30839312527E+01  0.50000000000E+02  0.47000000000E+01 0.  1.
</event>
<event>
 5    1  0.9081766E-001  0.1000000E+03  0.7546771E-02  0.1163815E+00
         11   -1    0    0    0    0  0.00000000000E+00  0.00000000000E+00  0.50000000000E+02  0.50000000000E+02  0.00000000000E+00 0. -1.
        -11   -1    0    0    0    0 -0.00000000000E+00 -0.00000000000E+00 -0.50000000000E+02  0.50000000000E+02  0.00000000000E+00 0.  1.
         23    2    1    2    0    0  0.00000000000E+00  0.00000000000E+00  0.00000000000E+00  0.10000000000E+03  0.10000000000E+03 0.  0.
          5    1    3    3  501    0  0.21496678405E+02  0.44894820340E+02  0.50786238885E+00  0.50000000000E+02  0.47000000000E+01 0. -1.
         -5    1    3    3    0  501 -0.21496678405E+02 -0.44894820340E+02 -0.50786238885E+00  0.50000000000E+02  0.47000000000E+01 0.  1.
</event>
<event>
 5    1  0.9081766E-001  0.1000000E+03  0.7546771E-02  0.1163815E+00
         11   -1    0    0    0    0  0.00000000000E+00  0.00000000000E+00  0.50000000000E+02  0.50000000000E+02  0.00000000000E+00 0. -1.
        -11   -1    0    0    0    0 -0.00000000000E+00 -0.00000000000E+00 -0.50000000000E+02  0.50000000000E+02  0.00000000000E+00 0.  1.
         23    2    1    2    0    0  0.00000000000E+00  0.00000000000E+00  0.00000000000E+00  0.10000000000E+03  0.10000000000E+03 0.  0.
          5    1    3    3  501    0 -0.34029961406E+02  0.35111571081E+02 -0.93300215927E+01  0.50000000000E+02  0.47000000000E+01 0. -1.
         -5    1    3    3    0  501  0.34029961406E+02 -0.35111571081E+02  0.93300215927E+01  0.50000000000E+02  0.47000000000E+01 0.  1.
</event>
<event>
 5    1  0.9081766E-001  0.1000000E+03  0.7546771E-02  0.1163815E+00
         11   -1    0    0    0    0  0.00000000000E+00  0.00000000000E+00  0.50000000000E+02  0.50000000000E+02  0.00000000000E+00 0. -1.
        -11   -1    0    0    0    0 -0.00000000000E+00 -0.00000000000E+00 -0.50000000000E+02  0.50000000000E+02  0.00000000000E+00 0.  1.
         23    2    1    2    0    0  0.00000000000E+00  0.00000000000E+00  0.00000000000E+00  0.10000000000E+03  0.10000000000E+03 0.  0.
          5    1    3    3  501    0 -0.35429405956E+02 -0.34486222555E+02  0.57764736250E+01  0.50000000000E+02  0.47000000000E+01 0. -1.
         -5    1    3    3    0  501  0.35429405956E+02  0.34486222555E+02 -0.57764736250E+01  0.50000000000E+02  0.47000000000E+01 0.  1.
</event>
<event>
 5    1  0.9081766E-001  0.1000000E+03  0.7546771E-02  0.1163815E+00
         11   -1    0    0    0    0  0.00000000000E+00  0.00000000000E+00  0.50000000000E+02  0.50000000000E+02  0.00000000000E+00 0. -1.
        -11   -1    0    0    0    0 -0.00000000000E+00 -0.00000000000E+00 -0.50000000000E+02  0.50000000000E+02  0.00000000000E+00 0.  1.
         23    2    1    2    0    0  0.00000000000E+00  0.00000000000E+00  0.00000000000E+00  0.10000000000E+03  0.10000000000E+03 0.  0.
          5    1    3    3  501    0  0.26777497808E+02 -0.24792998209E+02  0.33855322343E+02  0.50000000000E+02  0.47000000000E+01 0. -1.
         -5    1    3    3    0  501 -0.26777497808E+02  0.24792998209E+02 -0.33855322343E+02  0.50000000000E+02  0.47000000000E+01 0.  1.
</event>
<event>
 5    1  0.9081766E-001  0.1000000E+03  0.7546771E-02  0.1163815E+00
         11   -1    0    0    0    0  0.00000000000E+00  0.00000000000E+00  0.50000000000E+02  0.50000000000E+02  0.00000000000E+00 0. -1.
        -11   -1    0    0    0    0 -0.00000000000E+00 -0.00000000000E+00 -0.50000000000E+02  0.50000000000E+02  0.00000000000E+00 0.  1.
         23    2    1    2    0    0  0.00000000000E+00  0.00000000000E+00  0.00000000000E+00  0.10000000000E+03  0.10000000000E+03 0.  0.
          5    1    3    3  501    0 -0.11439586732E+02  0.30813240331E+02 -0.37384356029E+02  0.50000000000E+02  0.47000000000E+01 0. -1.
         -5    1    3    3    0  501  0.11439586732E+02 -0.30813240331E+02  0.37384356029E+02  0.50000000000E+02  0.47000000000E+01 0.  1.
</event>
<event>
 5    1  0.9081766E-001  0.1000000E+03  0.7546771E-02  0.1163815E+00
         11   -1    0    0    0    0  0.00000000000E+00  0.00000000000E+00  0.50000000000E+02  0.50000000000E+02  0.00000000000E+00 0.  1.
        -11   -1    0    0    0    0 -0.00000000000E+00 -0.00000000000E+00 -0.50000000000E+02  0.50000000000E+02  0.00000000000E+00 0. -1.
         23    2    1    2    0    0  0.00000000000E+00  0.00000000000E+00  0.00000000000E+00  0.10000000000E+03  0.10000000000E+03 0.  0.
          5    1    3    3  501    0 -0.18866316191E+02  0.32366340919E+02 -0.32777920753E+02  0.50000000000E+02  0.47000000000E+01 0. -1.
         -5    1    3    3    0  501  0.18866316191E+02 -0.32366340919E+02  0.32777920753E+02  0.50000000000E+02  0.47000000000E+01 0.  1.
</event>
<event>
 5    1  0.9081766E-001  0.1000000E+03  0.7546771E-02  0.1163815E+00
         11   -1    0    0    0    0  0.00000000000E+00  0.00000000000E+00  0.50000000000E+02  0.50000000000E+02  0.00000000000E+00 0.  1.
        -11   -1    0    0    0    0 -0.00000000000E+00 -0.00000000000E+00 -0.50000000000E+02  0.50000000000E+02  0.00000000000E+00 0. -1.
         23    2    1    2    0    0  0.00000000000E+00  0.00000000000E+00  0.00000000000E+00  0.10000000000E+03  0.10000000000E+03 0.  0.
          5    1    3    3  501    0  0.38334085246E+02 -0.56127946953E+01 -0.31255470626E+02  0.50000000000E+02  0.47000000000E+01 0. -1.
         -5    1    3    3    0  501 -0.38334085246E+02  0.56127946953E+01  0.31255470626E+02  0.50000000000E+02  0.47000000000E+01 0.  1.
</event>
<event>
 5    1  0.9081766E-001  0.1000000E+03  0.7546771E-02  0.1163815E+00
         11   -1    0    0    0    0  0.00000000000E+00  0.00000000000E+00  0.50000000000E+02  0.50000000000E+02  0.00000000000E+00 0. -1.
        -11   -1    0    0    0    0 -0.00000000000E+00 -0.00000000000E+00 -0.50000000000E+02  0.50000000000E+02  0.00000000000E+00 0.  1.
         23    2    1    2    0    0  0.00000000000E+00  0.00000000000E+00  0.00000000000E+00  0.10000000000E+03  0.10000000000E+03 0.  0.
          5    1    3    3  501    0 -0.75684207150E+01  0.11687969196E+02  0.47791425841E+02  0.50000000000E+02  0.47000000000E+01 0. -1.
         -5    1    3    3    0  501  0.75684207150E+01 -0.11687969196E+02 -0.47791425841E+02  0.50000000000E+02  0.47000000000E+01 0.  1.
</event>
<event>
 5    1  0.9081766E-001  0.1000000E+03  0.7546771E-02  0.1163815E+00
         11   -1    0    0    0    0  0.00000000000E+00  0.00000000000E+00  0.50000000000E+02  0.50000000000E+02  0.00000000000E+00 0. -1.
        -11   -1    0    0    0    0 -0.00000000000E+00 -0.00000000000E+00 -0.50000000000E+02  0.50000000000E+02  0.00000000000E+00 0.  1.
         23    2    1    2    0    0  0.00000000000E+00  0.00000000000E+00  0.00000000000E+00  0.10000000000E+03  0.10000000000E+03 0.  0.
          5    1    3    3  501    0  0.28079502861E+02 -0.39407382846E+02  0.11683736403E+02  0.50000000000E+02  0.47000000000E+01 0. -1.
         -5    1    3    3    0  501 -0.28079502861E+02  0.39407382846E+02 -0.11683736403E+02  0.50000000000E+02  0.47000000000E+01 0.  1.
</event>
<event>
 5    1  0.9081766E-001  0.1000000E+03  0.7546771E-02  0.1163815E+00
         11   -1    0    0    0    0  0.00000000000E+00  0.00000000000E+00  0.50000000000E+02  0.50000000000E+02  0.00000000000E+00 0.  1.
        -11   -1    0    0    0    0 -0.00000000000E+00 -0.00000000000E+00 -0.50000000000E+02  0.50000000000E+02  0.00000000000E+00 0. -1.
         23    2    1    2    0    0  0.00000000000E+00  0.00000000000E+00  0.00000000000E+00  0.10000000000E+03  0.10000000000E+03 0.  0.
          5    1    3    3  501    0  0.84050420088E+01 -0.89662649114E+01 -0.48237655026E+02  0.50000000000E+02  0.47000000000E+01 0. -1.
         -5    1    3    3    0  501 -0.84050420088E+01  0.89662649114E+01  0.48237655026E+02  0.50000000000E+02  0.47000000000E+01 0.  1.
</event>
<event>
 5    1  0.9081766E-001  0.1000000E+03  0.7546771E-02  0.1163815E+00
         11   -1    0    0    0    0  0.00000000000E+00  0.00000000000E+00  0.50000000000E+02  0.50000000000E+02  0.00000000000E+00 0. -1.
        -11   -1    0    0    0    0 -0.00000000000E+00 -0.00000000000E+00 -0.50000000000E+02  0.50000000000E+02  0.00000000000E+00 0.  1.
         23    2    1    2    0    0  0.00000000000E+00  0.00000000000E+00  0.00000000000E+00  0.10000000000E+03  0.10000000000E+03 0.  0.
          5    1    3    3  501    0 -0.16994804576E+02 -0.46047364400E+02  0.82901658151E+01  0.50000000000E+02  0.47000000000E+01 0. -1.
         -5    1    3    3    0  501  0.16994804576E+02  0.46047364400E+02 -0.82901658151E+01  0.50000000000E+02  0.47000000000E+01 0.  1.
</event>
<event>
 5    1  0.9081766E-001  0.1000000E+03  0.7546771E-02  0.1163815E+00
         11   -1    0    0    0    0  0.00000000000E+00  0.00000000000E+00  0.50000000000E+02  0.50000000000E+02  0.00000000000E+00 0. -1.
        -11   -1    0    0    0    0 -0.00000000000E+00 -0.00000000000E+00 -0.50000000000E+02  0.50000000000E+02  0.00000000000E+00 0.  1.
         23    2    1    2    0    0  0.00000000000E+00  0.00000000000E+00  0.00000000000E+00  0.10000000000E+03  0.10000000000E+03 0.  0.
          5    1    3    3  501    0 -0.18507603245E+02 -0.25635963359E+02  0.38447054566E+02  0.50000000000E+02  0.47000000000E+01 0. -1.
         -5    1    3    3    0  501  0.18507603245E+02  0.25635963359E+02 -0.38447054566E+02  0.50000000000E+02  0.47000000000E+01 0.  1.
</event>
<event>
 5    1  0.9081766E-001  0.1000000E+03  0.7546771E-02  0.1163815E+00
         11   -1    0    0    0    0  0.00000000000E+00  0.00000000000E+00  0.50000000000E+02  0.50000000000E+02  0.00000000000E+00 0. -1.
        -11   -1    0    0    0    0 -0.00000000000E+00 -0.00000000000E+00 -0.50000000000E+02  0.50000000000E+02  0.00000000000E+00 0.  1.
         23    2    1    2    0    0  0.00000000000E+00  0.00000000000E+00  0.00000000000E+00  0.10000000000E+03  0.10000000000E+03 0.  0.
          5    1    3    3  501    0  0.99860387248E+01 -0.48649489812E+02  0.33787825665E+01  0.50000000000E+02  0.47000000000E+01 0. -1.
         -5    1    3    3    0  501 -0.99860387248E+01  0.48649489812E+02 -0.33787825665E+01  0.50000000000E+02  0.47000000000E+01 0.  1.
</event>
<event>
 5    1  0.9081766E-001  0.1000000E+03  0.7546771E-02  0.1163815E+00
         11   -1    0    0    0    0  0.00000000000E+00  0.00000000000E+00  0.50000000000E+02  0.50000000000E+02  0.00000000000E+00 0. -1.
        -11   -1    0    0    0    0 -0.00000000000E+00 -0.00000000000E+00 -0.50000000000E+02  0.50000000000E+02  0.00000000000E+00 0.  1.
         23    2    1    2    0    0  0.00000000000E+00  0.00000000000E+00  0.00000000000E+00  0.10000000000E+03  0.10000000000E+03 0.  0.
          5    1    3    3  501    0 -0.10258398938E+02 -0.82553194648E+01  0.48005467936E+02  0.50000000000E+02  0.47000000000E+01 0. -1.
         -5    1    3    3    0  501  0.10258398938E+02  0.82553194648E+01 -0.48005467936E+02  0.50000000000E+02  0.47000000000E+01 0.  1.
</event>
<event>
 5    1  0.9081766E-001  0.1000000E+03  0.7546771E-02  0.1163815E+00
         11   -1    0    0    0    0  0.00000000000E+00  0.00000000000E+00  0.50000000000E+02  0.50000000000E+02  0.00000000000E+00 0. -1.
        -11   -1    0    0    0    0 -0.00000000000E+00 -0.00000000000E+00 -0.50000000000E+02  0.50000000000E+02  0.00000000000E+00 0.  1.
         23    2    1    2    0    0  0.00000000000E+00  0.00000000000E+00  0.00000000000E+00  0.10000000000E+03  0.10000000000E+03 0.  0.
          5    1    3    3  501    0  0.19903380544E+02 -0.42442152802E+02  0.16746017689E+02  0.50000000000E+02  0.47000000000E+01 0. -1.
         -5    1    3    3    0  501 -0.19903380544E+02  0.42442152802E+02 -0.16746017689E+02  0.50000000000E+02  0.47000000000E+01 0.  1.
</event>
<event>
 5    1  0.9081766E-001  0.1000000E+03  0.7546771E-02  0.1163815E+00
         11   -1    0    0    0    0  0.00000000000E+00  0.00000000000E+00  0.50000000000E+02  0.50000000000E+02  0.00000000000E+00 0. -1.
        -11   -1    0    0    0    0 -0.00000000000E+00 -0.00000000000E+00 -0.50000000000E+02  0.50000000000E+02  0.00000000000E+00 0.  1.
         23    2    1    2    0    0  0.00000000000E+00  0.00000000000E+00  0.00000000000E+00  0.10000000000E+03  0.10000000000E+03 0.  0.
          5    1    3    3  501    0  0.12704850180E+02  0.30688675976E+02  0.37076973295E+02  0.50000000000E+02  0.47000000000E+01 0. -1.
         -5    1    3    3    0  501 -0.12704850180E+02 -0.30688675976E+02 -0.37076973295E+02  0.50000000000E+02  0.47000000000E+01 0.  1.
</event>
<event>
 5    1  0.9081766E-001  0.1000000E+03  0.7546771E-02  0.1163815E+00
         11   -1    0    0    0    0  0.00000000000E+00  0.00000000000E+00  0.50000000000E+02  0.50000000000E+02  0.00000000000E+00 0. -1.
        -11   -1    0    0    0    0 -0.00000000000E+00 -0.00000000000E+00 -0.50000000000E+02  0.50000000000E+02  0.00000000000E+00 0.  1.
         23    2    1    2    0    0  0.00000000000E+00  0.00000000000E+00  0.00000000000E+00  0.10000000000E+03  0.10000000000E+03 0.  0.
          5    1    3    3  501    0 -0.31059804989E+02  0.15636839860E+02  0.35618643338E+02  0.50000000000E+02  0.47000000000E+01 0. -1.
         -5    1    3    3    0  501  0.31059804989E+02 -0.15636839860E+02 -0.35618643338E+02  0.50000000000E+02  0.47000000000E+01 0.  1.
</event>
<event>
 5    1  0.9081766E-001  0.1000000E+03  0.7546771E-02  0.1163815E+00
         11   -1    0    0    0    0  0.00000000000E+00  0.00000000000E+00  0.50000000000E+02  0.50000000000E+02  0.00000000000E+00 0.  1.
        -11   -1    0    0    0    0 -0.00000000000E+00 -0.00000000000E+00 -0.50000000000E+02  0.50000000000E+02  0.00000000000E+00 0. -1.
         23    2    1    2    0    0  0.00000000000E+00  0.00000000000E+00  0.00000000000E+00  0.10000000000E+03  0.10000000000E+03 0.  0.
          5    1    3    3  501    0 -0.18579247795E+02 -0.57827857188E+01 -0.45817910698E+02  0.50000000000E+02  0.47000000000E+01 0. -1.
         -5    1    3    3    0  501  0.18579247795E+02  0.57827857188E+01  0.45817910698E+02  0.50000000000E+02  0.47000000000E+01 0.  1.
</event>
<event>
 5    1  0.9081766E-001  0.1000000E+03  0.7546771E-02  0.1163815E+00
         11   -1    0    0    0    0  0.00000000000E+00  0.00000000000E+00  0.50000000000E+02  0.50000000000E+02  0.00000000000E+00 0. -1.
        -11   -1    0    0    0    0 -0.00000000000E+00 -0.00000000000E+00 -0.50000000000E+02  0.50000000000E+02  0.00000000000E+00 0.  1.
         23    2    1    2    0    0  0.00000000000E+00  0.00000000000E+00  0.00000000000E+00  0.10000000000E+03  0.10000000000E+03 0.  0.
          5    1    3    3  501    0  0.30018307214E+02 -0.36090090862E+02  0.16562505052E+02  0.50000000000E+02  0.47000000000E+01 0. -1.
         -5    1    3    3    0  501 -0.30018307214E+02  0.36090090862E+02 -0.16562505052E+02  0.50000000000E+02  0.47000000000E+01 0.  1.
</event>
<event>
 5    1  0.9081766E-001  0.1000000E+03  0.7546771E-02  0.1163815E+00
         11   -1    0    0    0    0  0.00000000000E+00  0.00000000000E+00  0.50000000000E+02  0.50000000000E+02  0.00000000000E+00 0. -1.
        -11   -1    0    0    0    0 -0.00000000000E+00 -0.00000000000E+00 -0.50000000000E+02  0.50000000000E+02  0.00000000000E+00 0.  1.
         23    2    1    2    0    0  0.00000000000E+00  0.00000000000E+00  0.00000000000E+00  0.10000000000E+03  0.10000000000E+03 0.  0.
          5    1    3    3  501    0  0.29768882265E+01  0.33595092345E+02  0.36611718163E+02  0.50000000000E+02  0.47000000000E+01 0. -1.
         -5    1    3    3    0  501 -0.29768882265E+01 -0.33595092345E+02 -0.36611718163E+02  0.50000000000E+02  0.47000000000E+01 0.  1.
</event>
<event>
 5    1  0.9081766E-001  0.1000000E+03  0.7546771E-02  0.1163815E+00
         11   -1    0    0    0    0  0.00000000000E+00  0.00000000000E+00  0.50000000000E+02  0.50000000000E+02  0.00000000000E+00 0. -1.
        -11   -1    0    0    0    0 -0.00000000000E+00 -0.00000000000E+00 -0.50000000000E+02  0.50000000000E+02  0.00000000000E+00 0.  1.
         23    2    1    2    0    0  0.00000000000E+00  0.00000000000E+00  0.00000000000E+00  0.10000000000E+03  0.10000000000E+03 0.  0.
          5    1    3    3  501    0 -0.46765830648E+02 -0.11953923956E+02 -0.12164324307E+02  0.50000000000E+02  0.47000000000E+01 0. -1.
         -5    1    3    3    0  501  0.46765830648E+02  0.11953923956E+02  0.12164324307E+02  0.50000000000E+02  0.47000000000E+01 0.  1.
</event>
<event>
 5    1  0.9081766E-001  0.1000000E+03  0.7546771E-02  0.1163815E+00
         11   -1    0    0    0    0  0.00000000000E+00  0.00000000000E+00  0.50000000000E+02  0.50000000000E+02  0.00000000000E+00 0. -1.
        -11   -1    0    0    0    0 -0.00000000000E+00 -0.00000000000E+00 -0.50000000000E+02  0.50000000000E+02  0.00000000000E+00 0.  1.
         23    2    1    2    0    0  0.00000000000E+00  0.00000000000E+00  0.00000000000E+00  0.10000000000E+03  0.10000000000E+03 0.  0.
          5    1    3    3  501    0  0.45753675681E+02 -0.34801769519E+00  0.19605867626E+02  0.50000000000E+02  0.47000000000E+01 0. -1.
         -5    1    3    3    0  501 -0.45753675681E+02  0.34801769519E+00 -0.19605867626E+02  0.50000000000E+02  0.47000000000E+01 0.  1.
</event>
<event>
 5    1  0.9081766E-001  0.1000000E+03  0.7546771E-02  0.1163815E+00
         11   -1    0    0    0    0  0.00000000000E+00  0.00000000000E+00  0.50000000000E+02  0.50000000000E+02  0.00000000000E+00 0. -1.
        -11   -1    0    0    0    0 -0.00000000000E+00 -0.00000000000E+00 -0.50000000000E+02  0.50000000000E+02  0.00000000000E+00 0.  1.
         23    2    1    2    0    0  0.00000000000E+00  0.00000000000E+00  0.00000000000E+00  0.10000000000E+03  0.10000000000E+03 0.  0.
          5    1    3    3  501    0 -0.51241639599E+01 -0.13704073215E+02  0.47579946627E+02  0.50000000000E+02  0.47000000000E+01 0. -1.
         -5    1    3    3    0  501  0.51241639599E+01  0.13704073215E+02 -0.47579946627E+02  0.50000000000E+02  0.47000000000E+01 0.  1.
</event>
<event>
 5    1  0.9081766E-001  0.1000000E+03  0.7546771E-02  0.1163815E+00
         11   -1    0    0    0    0  0.00000000000E+00  0.00000000000E+00  0.50000000000E+02  0.50000000000E+02  0.00000000000E+00 0.  1.
        -11   -1    0    0    0    0 -0.00000000000E+00 -0.00000000000E+00 -0.50000000000E+02  0.50000000000E+02  0.00000000000E+00 0. -1.
         23    2    1    2    0    0  0.00000000000E+00  0.00000000000E+00  0.00000000000E+00  0.10000000000E+03  0.10000000000E+03 0.  0.
          5    1    3    3  501    0 -0.31232012098E+01  0.45336034445E+02 -0.20317470193E+02  0.50000000000E+02  0.47000000000E+01 0. -1.
         -5    1    3    3    0  501  0.31232012098E+01 -0.45336034445E+02  0.20317470193E+02  0.50000000000E+02  0.47000000000E+01 0.  1.
</event>
<event>
 5    1  0.9081766E-001  0.1000000E+03  0.7546771E-02  0.1163815E+00
         11   -1    0    0    0    0  0.00000000000E+00  0.00000000000E+00  0.50000000000E+02  0.50000000000E+02  0.00000000000E+00 0. -1.
        -11   -1    0    0    0    0 -0.00000000000E+00 -0.00000000000E+00 -0.50000000000E+02  0.50000000000E+02  0.00000000000E+00 0.  1.
         23    2    1    2    0    0  0.00000000000E+00  0.00000000000E+00  0.00000000000E+00  0.10000000000E+03  0.10000000000E+03 0.  0.
          5    1    3    3  501    0 -0.18905872475E+02 -0.38898197760E+02  0.24645652700E+02  0.50000000000E+02  0.47000000000E+01 0. -1.
         -5    1    3    3    0  501  0.18905872475E+02  0.38898197760E+02 -0.24645652700E+02  0.50000000000E+02  0.47000000000E+01 0.  1.
</event>
<event>
 5    1  0.9081766E-001  0.1000000E+03  0.7546771E-02  0.1163815E+00
         11   -1    0    0    0    0  0.00000000000E+00  0.00000000000E+00  0.50000000000E+02  0.50000000000E+02  0.00000000000E+00 0. -1.
        -11   -1    0    0    0    0 -0.00000000000E+00 -0.00000000000E+00 -0.50000000000E+02  0.50000000000E+02  0.00000000000E+00 0.  1.
         23    2    1    2    0    0  0.00000000000E+00  0.00000000000E+00  0.00000000000E+00  0.10000000000E+03  0.10000000000E+03 0.  0.
          5    1    3    3  501    0 -0.25738148497E+02 -0.55779254221E+01  0.42241501630E+02  0.50000000000E+02  0.47000000000E+01 0. -1.
         -5    1    3    3    0  501  0.25738148497E+02  0.55779254221E+01 -0.42241501630E+02  0.50000000000E+02  0.47000000000E+01 0.  1.
</event>
<event>
 5    1  0.9081766E-001  0.1000000E+03  0.7546771E-02  0.1163815E+00
         11   -1    0    0    0    0  0.00000000000E+00  0.00000000000E+00  0.50000000000E+02  0.50000000000E+02  0.00000000000E+00 0. -1.
        -11   -1    0    0    0    0 -0.00000000000E+00 -0.00000000000E+00 -0.50000000000E+02  0.50000000000E+02  0.00000000000E+00 0.  1.
         23    2    1    2    0    0  0.00000000000E+00  0.00000000000E+00  0.00000000000E+00  0.10000000000E+03  0.10000000000E+03 0.  0.
          5    1    3    3  501    0 -0.25603059737E+02 -0.41181648094E+02  0.11245674382E+02  0.50000000000E+02  0.47000000000E+01 0. -1.
         -5    1    3    3    0  501  0.25603059737E+02  0.41181648094E+02 -0.11245674382E+02  0.50000000000E+02  0.47000000000E+01 0.  1.
</event>
<event>
 5    1  0.9081766E-001  0.1000000E+03  0.7546771E-02  0.1163815E+00
         11   -1    0    0    0    0  0.00000000000E+00  0.00000000000E+00  0.50000000000E+02  0.50000000000E+02  0.00000000000E+00 0.  1.
        -11   -1    0    0    0    0 -0.00000000000E+00 -0.00000000000E+00 -0.50000000000E+02  0.50000000000E+02  0.00000000000E+00 0. -1.
         23    2    1    2    0    0  0.00000000000E+00  0.00000000000E+00  0.00000000000E+00  0.10000000000E+03  0.10000000000E+03 0.  0.
          5    1    3    3  501    0  0.43116592369E+02 -0.21784937798E+02 -0.12011908575E+02  0.50000000000E+02  0.47000000000E+01 0. -1.
         -5    1    3    3    0  501 -0.43116592369E+02  0.21784937798E+02  0.12011908575E+02  0.50000000000E+02  0.47000000000E+01 0.  1.
</event>
<event>
 5    1  0.9081766E-001  0.1000000E+03  0.7546771E-02  0.1163815E+00
         11   -1    0    0    0    0  0.00000000000E+00  0.00000000000E+00  0.50000000000E+02  0.50000000000E+02  0.00000000000E+00 0. -1.
        -11   -1    0    0    0    0 -0.00000000000E+00 -0.00000000000E+00 -0.50000000000E+02  0.50000000000E+02  0.00000000000E+00 0.  1.
         23    2    1    2    0    0  0.00000000000E+00  0.00000000000E+00  0.00000000000E+00  0.10000000000E+03  0.10000000000E+03 0.  0.
          5    1    3    3  501    0  0.28562592610E+02 -0.23976812436E+02  0.32972727652E+02  0.50000000000E+02  0.47000000000E+01 0. -1.
         -5    1    3    3    0  501 -0.28562592610E+02  0.23976812436E+02 -0.32972727652E+02  0.50000000000E+02  0.47000000000E+01 0.  1.
</event>
<event>
 5    1  0.9081766E-001  0.1000000E+03  0.7546771E-02  0.1163815E+00
         11   -1    0    0    0    0  0.00000000000E+00  0.00000000000E+00  0.50000000000E+02  0.50000000000E+02  0.00000000000E+00 0.  1.
        -11   -1    0    0    0    0 -0.00000000000E+00 -0.00000000000E+00 -0.50000000000E+02  0.50000000000E+02  0.00000000000E+00 0. -1.
         23    2    1    2    0    0  0.00000000000E+00  0.00000000000E+00  0.00000000000E+00  0.10000000000E+03  0.10000000000E+03 0.  0.
          5    1    3    3  501    0 -0.59041400761E+01  0.27090176662E+02 -0.41342151110E+02  0.50000000000E+02  0.47000000000E+01 0. -1.
         -5    1    3    3    0  501  0.59041400761E+01 -0.27090176662E+02  0.41342151110E+02  0.50000000000E+02  0.47000000000E+01 0.  1.
</event>
<event>
 5    1  0.9081766E-001  0.1000000E+03  0.7546771E-02  0.1163815E+00
         11   -1    0    0    0    0  0.00000000000E+00  0.00000000000E+00  0.50000000000E+02  0.50000000000E+02  0.00000000000E+00 0.  1.
        -11   -1    0    0    0    0 -0.00000000000E+00 -0.00000000000E+00 -0.50000000000E+02  0.50000000000E+02  0.00000000000E+00 0. -1.
         23    2    1    2    0    0  0.00000000000E+00  0.00000000000E+00  0.00000000000E+00  0.10000000000E+03  0.10000000000E+03 0.  0.
          5    1    3    3  501    0  0.22776805678E+02  0.36789736001E+02 -0.24609803901E+02  0.50000000000E+02  0.47000000000E+01 0. -1.
         -5    1    3    3    0  501 -0.22776805678E+02 -0.36789736001E+02  0.24609803901E+02  0.50000000000E+02  0.47000000000E+01 0.  1.
</event>
<event>
 5    1  0.9081766E-001  0.1000000E+03  0.7546771E-02  0.1163815E+00
         11   -1    0    0    0    0  0.00000000000E+00  0.00000000000E+00  0.50000000000E+02  0.50000000000E+02  0.00000000000E+00 0. -1.
        -11   -1    0    0    0    0 -0.00000000000E+00 -0.00000000000E+00 -0.50000000000E+02  0.50000000000E+02  0.00000000000E+00 0.  1.
         23    2    1    2    0    0  0.00000000000E+00  0.00000000000E+00  0.00000000000E+00  0.10000000000E+03  0.10000000000E+03 0.  0.
          5    1    3    3  501    0  0.12219883996E+02  0.19693986170E+02  0.44053732462E+02  0.50000000000E+02  0.47000000000E+01 0. -1.
         -5    1    3    3    0  501 -0.12219883996E+02 -0.19693986170E+02 -0.44053732462E+02  0.50000000000E+02  0.47000000000E+01 0.  1.
</event>
<event>
 5    1  0.9081766E-001  0.1000000E+03  0.7546771E-02  0.1163815E+00
         11   -1    0    0    0    0  0.00000000000E+00  0.00000000000E+00  0.50000000000E+02  0.50000000000E+02  0.00000000000E+00 0.  1.
        -11   -1    0    0    0    0 -0.00000000000E+00 -0.00000000000E+00 -0.50000000000E+02  0.50000000000E+02  0.00000000000E+00 0. -1.
         23    2    1    2    0    0  0.00000000000E+00  0.00000000000E+00  0.00000000000E+00  0.10000000000E+03  0.10000000000E+03 0.  0.
          5    1    3    3  501    0 -0.49165619860E+01  0.10281810117E+02 -0.48456390693E+02  0.50000000000E+02  0.47000000000E+01 0. -1.
         -5    1    3    3    0  501  0.49165619860E+01 -0.10281810117E+02  0.48456390693E+02  0.50000000000E+02  0.47000000000E+01 0.  1.
</event>
<event>
 5    1  0.9081766E-001  0.1000000E+03  0.7546771E-02  0.1163815E+00
         11   -1    0    0    0    0  0.00000000000E+00  0.00000000000E+00  0.50000000000E+02  0.50000000000E+02  0.00000000000E+00 0. -1.
        -11   -1    0    0    0    0 -0.00000000000E+00 -0.00000000000E+00 -0.50000000000E+02  0.50000000000E+02  0.00000000000E+00 0.  1.
         23    2    1    2    0    0  0.00000000000E+00  0.00000000000E+00  0.00000000000E+00  0.10000000000E+03  0.10000000000E+03 0.  0.
          5    1    3    3  501    0 -0.92094661045E+01 -0.44632911390E+02  0.20024958300E+02  0.50000000000E+02  0.47000000000E+01 0. -1.
         -5    1    3    3    0  501  0.92094661045E+01  0.44632911390E+02 -0.20024958300E+02  0.50000000000E+02  0.47000000000E+01 0.  1.
</event>
<event>
 5    1  0.9081766E-001  0.1000000E+03  0.7546771E-02  0.1163815E+00
         11   -1    0    0    0    0  0.00000000000E+00  0.00000000000E+00  0.50000000000E+02  0.50000000000E+02  0.00000000000E+00 0.  1.
        -11   -1    0    0    0    0 -0.00000000000E+00 -0.00000000000E+00 -0.50000000000E+02  0.50000000000E+02  0.00000000000E+00 0. -1.
         23    2    1    2    0    0  0.00000000000E+00  0.00000000000E+00  0.00000000000E+00  0.10000000000E+03  0.10000000000E+03 0.  0.
          5    1    3    3  501    0  0.45633543036E+02 -0.19510086563E+02 -0.38530860765E+01  0.50000000000E+02  0.47000000000E+01 0.  1.
         -5    1    3    3    0  501 -0.45633543036E+02  0.19510086563E+02  0.38530860765E+01  0.50000000000E+02  0.47000000000E+01 0. -1.
</event>
<event>
 5    1  0.9081766E-001  0.1000000E+03  0.7546771E-02  0.1163815E+00
         11   -1    0    0    0    0  0.00000000000E+00  0.00000000000E+00  0.50000000000E+02  0.50000000000E+02  0.00000000000E+00 0.  1.
        -11   -1    0    0    0    0 -0.00000000000E+00 -0.00000000000E+00 -0.50000000000E+02  0.50000000000E+02  0.00000000000E+00 0. -1.
         23    2    1    2    0    0  0.00000000000E+00  0.00000000000E+00  0.00000000000E+00  0.10000000000E+03  0.10000000000E+03 0.  0.
          5    1    3    3  501    0 -0.29636747791E+02 -0.37977704812E+02 -0.12540618708E+02  0.50000000000E+02  0.47000000000E+01 0. -1.
         -5    1    3    3    0  501  0.29636747791E+02  0.37977704812E+02  0.12540618708E+02  0.50000000000E+02  0.47000000000E+01 0.  1.
</event>
<event>
 5    1  0.9081766E-001  0.1000000E+03  0.7546771E-02  0.1163815E+00
         11   -1    0    0    0    0  0.00000000000E+00  0.00000000000E+00  0.50000000000E+02  0.50000000000E+02  0.00000000000E+00 0.  1.
        -11   -1    0    0    0    0 -0.00000000000E+00 -0.00000000000E+00 -0.50000000000E+02  0.50000000000E+02  0.00000000000E+00 0. -1.
         23    2    1    2    0    0  0.00000000000E+00  0.00000000000E+00  0.00000000000E+00  0.10000000000E+03  0.10000000000E+03 0.  0.
          5    1    3    3  501    0 -0.15610590846E+02 -0.35528010632E+02 -0.31176592404E+02  0.50000000000E+02  0.47000000000E+01 0. -1.
         -5    1    3    3    0  501  0.15610590846E+02  0.35528010632E+02  0.31176592404E+02  0.50000000000E+02  0.47000000000E+01 0.  1.
</event>
<event>
 5    1  0.9081766E-001  0.1000000E+03  0.7546771E-02  0.1163815E+00
         11   -1    0    0    0    0  0.00000000000E+00  0.00000000000E+00  0.50000000000E+02  0.50000000000E+02  0.00000000000E+00 0. -1.
        -11   -1    0    0    0    0 -0.00000000000E+00 -0.00000000000E+00 -0.50000000000E+02  0.50000000000E+02  0.00000000000E+00 0.  1.
         23    2    1    2    0    0  0.00000000000E+00  0.00000000000E+00  0.00000000000E+00  0.10000000000E+03  0.10000000000E+03 0.  0.
          5    1    3    3  501    0  0.18243874978E+02 -0.26501358599E+02  0.37983536146E+02  0.50000000000E+02  0.47000000000E+01 0. -1.
         -5    1    3    3    0  501 -0.18243874978E+02  0.26501358599E+02 -0.37983536146E+02  0.50000000000E+02  0.47000000000E+01 0.  1.
</event>
<event>
 5    1  0.9081766E-001  0.1000000E+03  0.7546771E-02  0.1163815E+00
         11   -1    0    0    0    0  0.00000000000E+00  0.00000000000E+00  0.50000000000E+02  0.50000000000E+02  0.00000000000E+00 0.  1.
        -11   -1    0    0    0    0 -0.00000000000E+00 -0.00000000000E+00 -0.50000000000E+02  0.50000000000E+02  0.00000000000E+00 0. -1.
         23    2    1    2    0    0  0.00000000000E+00  0.00000000000E+00  0.00000000000E+00  0.10000000000E+03  0.10000000000E+03 0.  0.
          5    1    3    3  501    0 -0.43321353271E+02 -0.24021863910E+02 -0.49112528965E+01  0.50000000000E+02  0.47000000000E+01 0. -1.
         -5    1    3    3    0  501  0.43321353271E+02  0.24021863910E+02  0.49112528965E+01  0.50000000000E+02  0.47000000000E+01 0.  1.
</event>
<event>
 5    1  0.9081766E-001  0.1000000E+03  0.7546771E-02  0.1163815E+00
         11   -1    0    0    0    0  0.00000000000E+00  0.00000000000E+00  0.50000000000E+02  0.50000000000E+02  0.00000000000E+00 0.  1.
        -11   -1    0    0    0    0 -0.00000000000E+00 -0.00000000000E+00 -0.50000000000E+02  0.50000000000E+02  0.00000000000E+00 0. -1.
         23    2    1    2    0    0  0.00000000000E+00  0.00000000000E+00  0.00000000000E+00  0.10000000000E+03  0.10000000000E+03 0.  0.
          5    1    3    3  501    0 -0.11102495626E+02  0.48456379947E+02 -0.25736808827E+01  0.50000000000E+02  0.47000000000E+01 0. -1.
         -5    1    3    3    0  501  0.11102495626E+02 -0.48456379947E+02  0.25736808827E+01  0.50000000000E+02  0.47000000000E+01 0.  1.
</event>
<event>
 5    1  0.9081766E-001  0.1000000E+03  0.7546771E-02  0.1163815E+00
         11   -1    0    0    0    0  0.00000000000E+00  0.00000000000E+00  0.50000000000E+02  0.50000000000E+02  0.00000000000E+00 0. -1.
        -11   -1    0    0    0    0 -0.00000000000E+00 -0.00000000000E+00 -0.50000000000E+02  0.50000000000E+02  0.00000000000E+00 0.  1.
         23    2    1    2    0    0  0.00000000000E+00  0.00000000000E+00  0.00000000000E+00  0.10000000000E+03  0.10000000000E+03 0.  0.
          5    1    3    3  501    0  0.35455797179E+02 -0.26336842023E+02  0.22960121922E+02  0.50000000000E+02  0.47000000000E+01 0. -1.
         -5    1    3    3    0  501 -0.35455797179E+02  0.26336842023E+02 -0.22960121922E+02  0.50000000000E+02  0.47000000000E+01 0.  1.
</event>
<event>
 5    1  0.9081766E-001  0.1000000E+03  0.7546771E-02  0.1163815E+00
         11   -1    0    0    0    0  0.00000000000E+00  0.00000000000E+00  0.50000000000E+02  0.50000000000E+02  0.00000000000E+00 0. -1.
        -11   -1    0    0    0    0 -0.00000000000E+00 -0.00000000000E+00 -0.50000000000E+02  0.50000000000E+02  0.00000000000E+00 0.  1.
         23    2    1    2    0    0  0.00000000000E+00  0.00000000000E+00  0.00000000000E+00  0.10000000000E+03  0.10000000000E+03 0.  0.
          5    1    3    3  501    0  0.43405728600E+01 -0.44954748390E+02  0.20931794582E+02  0.50000000000E+02  0.47000000000E+01 0. -1.
         -5    1    3    3    0  501 -0.43405728600E+01  0.44954748390E+02 -0.20931794582E+02  0.50000000000E+02  0.47000000000E+01 0.  1.
</event>
<event>
 5    1  0.9081766E-001  0.1000000E+03  0.7546771E-02  0.1163815E+00
         11   -1    0    0    0    0  0.00000000000E+00  0.00000000000E+00  0.50000000000E+02  0.50000000000E+02  0.00000000000E+00 0. -1.
        -11   -1    0    0    0    0 -0.00000000000E+00 -0.00000000000E+00 -0.50000000000E+02  0.50000000000E+02  0.00000000000E+00 0.  1.
         23    2    1    2    0    0  0.00000000000E+00  0.00000000000E+00  0.00000000000E+00  0.10000000000E+03  0.10000000000E+03 0.  0.
          5    1    3    3  501    0 -0.12549854338E+02 -0.46821303634E+02 -0.11321514128E+02  0.50000000000E+02  0.47000000000E+01 0. -1.
         -5    1    3    3    0  501  0.12549854338E+02  0.46821303634E+02  0.11321514128E+02  0.50000000000E+02  0.47000000000E+01 0.  1.
</event>
<event>
 5    1  0.9081766E-001  0.1000000E+03  0.7546771E-02  0.1163815E+00
         11   -1    0    0    0    0  0.00000000000E+00  0.00000000000E+00  0.50000000000E+02  0.50000000000E+02  0.00000000000E+00 0.  1.
        -11   -1    0    0    0    0 -0.00000000000E+00 -0.00000000000E+00 -0.50000000000E+02  0.50000000000E+02  0.00000000000E+00 0. -1.
         23    2    1    2    0    0  0.00000000000E+00  0.00000000000E+00  0.00000000000E+00  0.10000000000E+03  0.10000000000E+03 0.  0.
          5    1    3    3  501    0 -0.33958245772E+02 -0.42255892869E+00 -0.36394628560E+02  0.50000000000E+02  0.47000000000E+01 0. -1.
         -5    1    3    3    0  501  0.33958245772E+02  0.42255892869E+00  0.36394628560E+02  0.50000000000E+02  0.47000000000E+01 0.  1.
</event>
<event>
 5    1  0.9081766E-001  0.1000000E+03  0.7546771E-02  0.1163815E+00
         11   -1    0    0    0    0  0.00000000000E+00  0.00000000000E+00  0.50000000000E+02  0.50000000000E+02  0.00000000000E+00 0. -1.
        -11   -1    0    0    0    0 -0.00000000000E+00 -0.00000000000E+00 -0.50000000000E+02  0.50000000000E+02  0.00000000000E+00 0.  1.
         23    2    1    2    0    0  0.00000000000E+00  0.00000000000E+00  0.00000000000E+00  0.10000000000E+03  0.10000000000E+03 0.  0.
          5    1    3    3  501    0  0.95598613127E+01 -0.19254051663E+02  0.44897667492E+02  0.50000000000E+02  0.47000000000E+01 0. -1.
         -5    1    3    3    0  501 -0.95598613127E+01  0.19254051663E+02 -0.44897667492E+02  0.50000000000E+02  0.47000000000E+01 0.  1.
</event>
<event>
 5    1  0.9081766E-001  0.1000000E+03  0.7546771E-02  0.1163815E+00
         11   -1    0    0    0    0  0.00000000000E+00  0.00000000000E+00  0.50000000000E+02  0.50000000000E+02  0.00000000000E+00 0. -1.
        -11   -1    0    0    0    0 -0.00000000000E+00 -0.00000000000E+00 -0.50000000000E+02  0.50000000000E+02  0.00000000000E+00 0.  1.
         23    2    1    2    0    0  0.00000000000E+00  0.00000000000E+00  0.00000000000E+00  0.10000000000E+03  0.10000000000E+03 0.  0.
          5    1    3    3  501    0  0.34868336943E+02  0.28836004077E+02  0.20750757763E+02  0.50000000000E+02  0.47000000000E+01 0. -1.
         -5    1    3    3    0  501 -0.34868336943E+02 -0.28836004077E+02 -0.20750757763E+02  0.50000000000E+02  0.47000000000E+01 0.  1.
</event>
<event>
 5    1  0.9081766E-001  0.1000000E+03  0.7546771E-02  0.1163815E+00
         11   -1    0    0    0    0  0.00000000000E+00  0.00000000000E+00  0.50000000000E+02  0.50000000000E+02  0.00000000000E+00 0.  1.
        -11   -1    0    0    0    0 -0.00000000000E+00 -0.00000000000E+00 -0.50000000000E+02  0.50000000000E+02  0.00000000000E+00 0. -1.
         23    2    1    2    0    0  0.00000000000E+00  0.00000000000E+00  0.00000000000E+00  0.10000000000E+03  0.10000000000E+03 0.  0.
          5    1    3    3  501    0 -0.95893941286E+01 -0.22278167457E+02 -0.43469952554E+02  0.50000000000E+02  0.47000000000E+01 0. -1.
         -5    1    3    3    0  501  0.95893941286E+01  0.22278167457E+02  0.43469952554E+02  0.50000000000E+02  0.47000000000E+01 0.  1.
</event>
<event>
 5    1  0.9081766E-001  0.1000000E+03  0.7546771E-02  0.1163815E+00
         11   -1    0    0    0    0  0.00000000000E+00  0.00000000000E+00  0.50000000000E+02  0.50000000000E+02  0.00000000000E+00 0. -1.
        -11   -1    0    0    0    0 -0.00000000000E+00 -0.00000000000E+00 -0.50000000000E+02  0.50000000000E+02  0.00000000000E+00 0.  1.
         23    2    1    2    0    0  0.00000000000E+00  0.00000000000E+00  0.00000000000E+00  0.10000000000E+03  0.10000000000E+03 0.  0.
          5    1    3    3  501    0 -0.69557686962E+01 -0.15515204932E+02  0.46784673749E+02  0.50000000000E+02  0.47000000000E+01 0. -1.
         -5    1    3    3    0  501  0.69557686962E+01  0.15515204932E+02 -0.46784673749E+02  0.50000000000E+02  0.47000000000E+01 0.  1.
</event>
<event>
 5    1  0.9081766E-001  0.1000000E+03  0.7546771E-02  0.1163815E+00
         11   -1    0    0    0    0  0.00000000000E+00  0.00000000000E+00  0.50000000000E+02  0.50000000000E+02  0.00000000000E+00 0. -1.
        -11   -1    0    0    0    0 -0.00000000000E+00 -0.00000000000E+00 -0.50000000000E+02  0.50000000000E+02  0.00000000000E+00 0.  1.
         23    2    1    2    0    0  0.00000000000E+00  0.00000000000E+00  0.00000000000E+00  0.10000000000E+03  0.10000000000E+03 0.  0.
          5    1    3    3  501    0  0.25006379759E+02  0.36232146695E+02 -0.23234080942E+02  0.50000000000E+02  0.47000000000E+01 0. -1.
         -5    1    3    3    0  501 -0.25006379759E+02 -0.36232146695E+02  0.23234080942E+02  0.50000000000E+02  0.47000000000E+01 0.  1.
</event>
<event>
 5    1  0.9081766E-001  0.1000000E+03  0.7546771E-02  0.1163815E+00
         11   -1    0    0    0    0  0.00000000000E+00  0.00000000000E+00  0.50000000000E+02  0.50000000000E+02  0.00000000000E+00 0. -1.
        -11   -1    0    0    0    0 -0.00000000000E+00 -0.00000000000E+00 -0.50000000000E+02  0.50000000000E+02  0.00000000000E+00 0.  1.
         23    2    1    2    0    0  0.00000000000E+00  0.00000000000E+00  0.00000000000E+00  0.10000000000E+03  0.10000000000E+03 0.  0.
          5    1    3    3  501    0 -0.67837488106E+01 -0.33810832742E+02  0.35898723395E+02  0.50000000000E+02  0.47000000000E+01 0. -1.
         -5    1    3    3    0  501  0.67837488106E+01  0.33810832742E+02 -0.35898723395E+02  0.50000000000E+02  0.47000000000E+01 0.  1.
</event>
<event>
 5    1  0.9081766E-001  0.1000000E+03  0.7546771E-02  0.1163815E+00
         11   -1    0    0    0    0  0.00000000000E+00  0.00000000000E+00  0.50000000000E+02  0.50000000000E+02  0.00000000000E+00 0.  1.
        -11   -1    0    0    0    0 -0.00000000000E+00 -0.00000000000E+00 -0.50000000000E+02  0.50000000000E+02  0.00000000000E+00 0. -1.
         23    2    1    2    0    0  0.00000000000E+00  0.00000000000E+00  0.00000000000E+00  0.10000000000E+03  0.10000000000E+03 0.  0.
          5    1    3    3  501    0 -0.12485837216E+02  0.16264355688E+02  0.45359504000E+02  0.50000000000E+02  0.47000000000E+01 0.  1.
         -5    1    3    3    0  501  0.12485837216E+02 -0.16264355688E+02 -0.45359504000E+02  0.50000000000E+02  0.47000000000E+01 0. -1.
</event>
<event>
 5    1  0.9081766E-001  0.1000000E+03  0.7546771E-02  0.1163815E+00
         11   -1    0    0    0    0  0.00000000000E+00  0.00000000000E+00  0.50000000000E+02  0.50000000000E+02  0.00000000000E+00 0.  1.
        -11   -1    0    0    0    0 -0.00000000000E+00 -0.00000000000E+00 -0.50000000000E+02  0.50000000000E+02  0.00000000000E+00 0. -1.
         23    2    1    2    0    0  0.00000000000E+00  0.00000000000E+00  0.00000000000E+00  0.10000000000E+03  0.10000000000E+03 0.  0.
          5    1    3    3  501    0 -0.15960259824E+01  0.91388137484E+01 -0.48906490207E+02  0.50000000000E+02  0.47000000000E+01 0. -1.
         -5    1    3    3    0  501  0.15960259824E+01 -0.91388137484E+01  0.48906490207E+02  0.50000000000E+02  0.47000000000E+01 0.  1.
</event>
<event>
 5    1  0.9081766E-001  0.1000000E+03  0.7546771E-02  0.1163815E+00
         11   -1    0    0    0    0  0.00000000000E+00  0.00000000000E+00  0.50000000000E+02  0.50000000000E+02  0.00000000000E+00 0. -1.
        -11   -1    0    0    0    0 -0.00000000000E+00 -0.00000000000E+00 -0.50000000000E+02  0.50000000000E+02  0.00000000000E+00 0.  1.
         23    2    1    2    0    0  0.00000000000E+00  0.00000000000E+00  0.00000000000E+00  0.10000000000E+03  0.10000000000E+03 0.  0.
          5    1    3    3  501    0  0.37517990334E+02 -0.88383895187E+01  0.31499099543E+02  0.50000000000E+02  0.47000000000E+01 0. -1.
         -5    1    3    3    0  501 -0.37517990334E+02  0.88383895187E+01 -0.31499099543E+02  0.50000000000E+02  0.47000000000E+01 0.  1.
</event>
<event>
 5    1  0.9081766E-001  0.1000000E+03  0.7546771E-02  0.1163815E+00
         11   -1    0    0    0    0  0.00000000000E+00  0.00000000000E+00  0.50000000000E+02  0.50000000000E+02  0.00000000000E+00 0. -1.
        -11   -1    0    0    0    0 -0.00000000000E+00 -0.00000000000E+00 -0.50000000000E+02  0.50000000000E+02  0.00000000000E+00 0.  1.
         23    2    1    2    0    0  0.00000000000E+00  0.00000000000E+00  0.00000000000E+00  0.10000000000E+03  0.10000000000E+03 0.  0.
          5    1    3    3  501    0 -0.48292404392E+02 -0.10522863328E+02  0.59180254664E+01  0.50000000000E+02  0.47000000000E+01 0. -1.
         -5    1    3    3    0  501  0.48292404392E+02  0.10522863328E+02 -0.59180254664E+01  0.50000000000E+02  0.47000000000E+01 0.  1.
</event>
<event>
 5    1  0.9081766E-001  0.1000000E+03  0.7546771E-02  0.1163815E+00
         11   -1    0    0    0    0  0.00000000000E+00  0.00000000000E+00  0.50000000000E+02  0.50000000000E+02  0.00000000000E+00 0. -1.
        -11   -1    0    0    0    0 -0.00000000000E+00 -0.00000000000E+00 -0.50000000000E+02  0.50000000000E+02  0.00000000000E+00 0.  1.
         23    2    1    2    0    0  0.00000000000E+00  0.00000000000E+00  0.00000000000E+00  0.10000000000E+03  0.10000000000E+03 0.  0.
          5    1    3    3  501    0  0.26759909353E+02 -0.34435029814E+02  0.24000957754E+02  0.50000000000E+02  0.47000000000E+01 0. -1.
         -5    1    3    3    0  501 -0.26759909353E+02  0.34435029814E+02 -0.24000957754E+02  0.50000000000E+02  0.47000000000E+01 0.  1.
</event>
<event>
 5    1  0.9081766E-001  0.1000000E+03  0.7546771E-02  0.1163815E+00
         11   -1    0    0    0    0  0.00000000000E+00  0.00000000000E+00  0.50000000000E+02  0.50000000000E+02  0.00000000000E+00 0. -1.
        -11   -1    0    0    0    0 -0.00000000000E+00 -0.00000000000E+00 -0.50000000000E+02  0.50000000000E+02  0.00000000000E+00 0.  1.
         23    2    1    2    0    0  0.00000000000E+00  0.00000000000E+00  0.00000000000E+00  0.10000000000E+03  0.10000000000E+03 0.  0.
          5    1    3    3  501    0 -0.34120746291E+02  0.13570882287E+02  0.33608270210E+02  0.50000000000E+02  0.47000000000E+01 0. -1.
         -5    1    3    3    0  501  0.34120746291E+02 -0.13570882287E+02 -0.33608270210E+02  0.50000000000E+02  0.47000000000E+01 0.  1.
</event>
<event>
 5    1  0.9081766E-001  0.1000000E+03  0.7546771E-02  0.1163815E+00
         11   -1    0    0    0    0  0.00000000000E+00  0.00000000000E+00  0.50000000000E+02  0.50000000000E+02  0.00000000000E+00 0. -1.
        -11   -1    0    0    0    0 -0.00000000000E+00 -0.00000000000E+00 -0.50000000000E+02  0.50000000000E+02  0.00000000000E+00 0.  1.
         23    2    1    2    0    0  0.00000000000E+00  0.00000000000E+00  0.00000000000E+00  0.10000000000E+03  0.10000000000E+03 0.  0.
          5    1    3    3  501    0 -0.36850225172E+02 -0.29955454265E+02  0.14921181741E+02  0.50000000000E+02  0.47000000000E+01 0. -1.
         -5    1    3    3    0  501  0.36850225172E+02  0.29955454265E+02 -0.14921181741E+02  0.50000000000E+02  0.47000000000E+01 0.  1.
</event>
<event>
 5    1  0.9081766E-001  0.1000000E+03  0.7546771E-02  0.1163815E+00
         11   -1    0    0    0    0  0.00000000000E+00  0.00000000000E+00  0.50000000000E+02  0.50000000000E+02  0.00000000000E+00 0. -1.
        -11   -1    0    0    0    0 -0.00000000000E+00 -0.00000000000E+00 -0.50000000000E+02  0.50000000000E+02  0.00000000000E+00 0.  1.
         23    2    1    2    0    0  0.00000000000E+00  0.00000000000E+00  0.00000000000E+00  0.10000000000E+03  0.10000000000E+03 0.  0.
          5    1    3    3  501    0 -0.97328974009E+01  0.20363380394E+01  0.48775342496E+02  0.50000000000E+02  0.47000000000E+01 0. -1.
         -5    1    3    3    0  501  0.97328974009E+01 -0.20363380394E+01 -0.48775342496E+02  0.50000000000E+02  0.47000000000E+01 0.  1.
</event>
<event>
 5    1  0.9081766E-001  0.1000000E+03  0.7546771E-02  0.1163815E+00
         11   -1    0    0    0    0  0.00000000000E+00  0.00000000000E+00  0.50000000000E+02  0.50000000000E+02  0.00000000000E+00 0.  1.
        -11   -1    0    0    0    0 -0.00000000000E+00 -0.00000000000E+00 -0.50000000000E+02  0.50000000000E+02  0.00000000000E+00 0. -1.
         23    2    1    2    0    0  0.00000000000E+00  0.00000000000E+00  0.00000000000E+00  0.10000000000E+03  0.10000000000E+03 0.  0.
          5    1    3    3  501    0  0.34665136997E+02 -0.11040907964E+01 -0.35707411843E+02  0.50000000000E+02  0.47000000000E+01 0. -1.
         -5    1    3    3    0  501 -0.34665136997E+02  0.11040907964E+01  0.35707411843E+02  0.50000000000E+02  0.47000000000E+01 0.  1.
</event>
<event>
 5    1  0.9081766E-001  0.1000000E+03  0.7546771E-02  0.1163815E+00
         11   -1    0    0    0    0  0.00000000000E+00  0.00000000000E+00  0.50000000000E+02  0.50000000000E+02  0.00000000000E+00 0. -1.
        -11   -1    0    0    0    0 -0.00000000000E+00 -0.00000000000E+00 -0.50000000000E+02  0.50000000000E+02  0.00000000000E+00 0.  1.
         23    2    1    2    0    0  0.00000000000E+00  0.00000000000E+00  0.00000000000E+00  0.10000000000E+03  0.10000000000E+03 0.  0.
          5    1    3    3  501    0  0.87722483677E+01  0.16238689102E+02  0.46230537903E+02  0.50000000000E+02  0.47000000000E+01 0. -1.
         -5    1    3    3    0  501 -0.87722483677E+01 -0.16238689102E+02 -0.46230537903E+02  0.50000000000E+02  0.47000000000E+01 0.  1.
</event>
<event>
 5    1  0.9081766E-001  0.1000000E+03  0.7546771E-02  0.1163815E+00
         11   -1    0    0    0    0  0.00000000000E+00  0.00000000000E+00  0.50000000000E+02  0.50000000000E+02  0.00000000000E+00 0.  1.
        -11   -1    0    0    0    0 -0.00000000000E+00 -0.00000000000E+00 -0.50000000000E+02  0.50000000000E+02  0.00000000000E+00 0. -1.
         23    2    1    2    0    0  0.00000000000E+00  0.00000000000E+00  0.00000000000E+00  0.10000000000E+03  0.10000000000E+03 0.  0.
          5    1    3    3  501    0 -0.26037193590E+02 -0.26254234140E+02 -0.33327012162E+02  0.50000000000E+02  0.47000000000E+01 0. -1.
         -5    1    3    3    0  501  0.26037193590E+02  0.26254234140E+02  0.33327012162E+02  0.50000000000E+02  0.47000000000E+01 0.  1.
</event>
<event>
 5    1  0.9081766E-001  0.1000000E+03  0.7546771E-02  0.1163815E+00
         11   -1    0    0    0    0  0.00000000000E+00  0.00000000000E+00  0.50000000000E+02  0.50000000000E+02  0.00000000000E+00 0.  1.
        -11   -1    0    0    0    0 -0.00000000000E+00 -0.00000000000E+00 -0.50000000000E+02  0.50000000000E+02  0.00000000000E+00 0. -1.
         23    2    1    2    0    0  0.00000000000E+00  0.00000000000E+00  0.00000000000E+00  0.10000000000E+03  0.10000000000E+03 0.  0.
          5    1    3    3  501    0 -0.16500136388E+02  0.30324816973E+02 -0.35861692302E+02  0.50000000000E+02  0.47000000000E+01 0. -1.
         -5    1    3    3    0  501  0.16500136388E+02 -0.30324816973E+02  0.35861692302E+02  0.50000000000E+02  0.47000000000E+01 0.  1.
</event>
<event>
 5    1  0.9081766E-001  0.1000000E+03  0.7546771E-02  0.1163815E+00
         11   -1    0    0    0    0  0.00000000000E+00  0.00000000000E+00  0.50000000000E+02  0.50000000000E+02  0.00000000000E+00 0. -1.
        -11   -1    0    0    0    0 -0.00000000000E+00 -0.00000000000E+00 -0.50000000000E+02  0.50000000000E+02  0.00000000000E+00 0.  1.
         23    2    1    2    0    0  0.00000000000E+00  0.00000000000E+00  0.00000000000E+00  0.10000000000E+03  0.10000000000E+03 0.  0.
          5    1    3    3  501    0  0.29703803793E+02 -0.30294941228E+02  0.26034795491E+02  0.50000000000E+02  0.47000000000E+01 0. -1.
         -5    1    3    3    0  501 -0.29703803793E+02  0.30294941228E+02 -0.26034795491E+02  0.50000000000E+02  0.47000000000E+01 0.  1.
</event>
<event>
 5    1  0.9081766E-001  0.1000000E+03  0.7546771E-02  0.1163815E+00
         11   -1    0    0    0    0  0.00000000000E+00  0.00000000000E+00  0.50000000000E+02  0.50000000000E+02  0.00000000000E+00 0. -1.
        -11   -1    0    0    0    0 -0.00000000000E+00 -0.00000000000E+00 -0.50000000000E+02  0.50000000000E+02  0.00000000000E+00 0.  1.
         23    2    1    2    0    0  0.00000000000E+00  0.00000000000E+00  0.00000000000E+00  0.10000000000E+03  0.10000000000E+03 0.  0.
          5    1    3    3  501    0 -0.25681810735E+02  0.16993556591E+02  0.39109763893E+02  0.50000000000E+02  0.47000000000E+01 0. -1.
         -5    1    3    3    0  501  0.25681810735E+02 -0.16993556591E+02 -0.39109763893E+02  0.50000000000E+02  0.47000000000E+01 0.  1.
</event>
<event>
 5    1  0.9081766E-001  0.1000000E+03  0.7546771E-02  0.1163815E+00
         11   -1    0    0    0    0  0.00000000000E+00  0.00000000000E+00  0.50000000000E+02  0.50000000000E+02  0.00000000000E+00 0. -1.
        -11   -1    0    0    0    0 -0.00000000000E+00 -0.00000000000E+00 -0.50000000000E+02  0.50000000000E+02  0.00000000000E+00 0.  1.
         23    2    1    2    0    0  0.00000000000E+00  0.00000000000E+00  0.00000000000E+00  0.10000000000E+03  0.10000000000E+03 0.  0.
          5    1    3    3  501    0 -0.25675687220E+02 -0.19307036615E+02  0.38025089388E+02  0.50000000000E+02  0.47000000000E+01 0. -1.
         -5    1    3    3    0  501  0.25675687220E+02  0.19307036615E+02 -0.38025089388E+02  0.50000000000E+02  0.47000000000E+01 0.  1.
</event>
<event>
 5    1  0.9081766E-001  0.1000000E+03  0.7546771E-02  0.1163815E+00
         11   -1    0    0    0    0  0.00000000000E+00  0.00000000000E+00  0.50000000000E+02  0.50000000000E+02  0.00000000000E+00 0. -1.
        -11   -1    0    0    0    0 -0.00000000000E+00 -0.00000000000E+00 -0.50000000000E+02  0.50000000000E+02  0.00000000000E+00 0.  1.
         23    2    1    2    0    0  0.00000000000E+00  0.00000000000E+00  0.00000000000E+00  0.10000000000E+03  0.10000000000E+03 0.  0.
          5    1    3    3  501    0 -0.48445674545E+02  0.10856076517E+02 -0.36155525849E+01  0.50000000000E+02  0.47000000000E+01 0. -1.
         -5    1    3    3    0  501  0.48445674545E+02 -0.10856076517E+02  0.36155525849E+01  0.50000000000E+02  0.47000000000E+01 0.  1.
</event>
<event>
 5    1  0.9081766E-001  0.1000000E+03  0.7546771E-02  0.1163815E+00
         11   -1    0    0    0    0  0.00000000000E+00  0.00000000000E+00  0.50000000000E+02  0.50000000000E+02  0.00000000000E+00 0. -1.
        -11   -1    0    0    0    0 -0.00000000000E+00 -0.00000000000E+00 -0.50000000000E+02  0.50000000000E+02  0.00000000000E+00 0.  1.
         23    2    1    2    0    0  0.00000000000E+00  0.00000000000E+00  0.00000000000E+00  0.10000000000E+03  0.10000000000E+03 0.  0.
          5    1    3    3  501    0  0.47942031169E+02  0.13342652396E+02 -0.12021956617E+01  0.50000000000E+02  0.47000000000E+01 0. -1.
         -5    1    3    3    0  501 -0.47942031169E+02 -0.13342652396E+02  0.12021956617E+01  0.50000000000E+02  0.47000000000E+01 0.  1.
</event>
<event>
 5    1  0.9081766E-001  0.1000000E+03  0.7546771E-02  0.1163815E+00
         11   -1    0    0    0    0  0.00000000000E+00  0.00000000000E+00  0.50000000000E+02  0.50000000000E+02  0.00000000000E+00 0. -1.
        -11   -1    0    0    0    0 -0.00000000000E+00 -0.00000000000E+00 -0.50000000000E+02  0.50000000000E+02  0.00000000000E+00 0.  1.
         23    2    1    2    0    0  0.00000000000E+00  0.00000000000E+00  0.00000000000E+00  0.10000000000E+03  0.10000000000E+03 0.  0.
          5    1    3    3  501    0 -0.81202657659E+01 -0.46680717715E+02  0.15260467802E+02  0.50000000000E+02  0.47000000000E+01 0. -1.
         -5    1    3    3    0  501  0.81202657659E+01  0.46680717715E+02 -0.15260467802E+02  0.50000000000E+02  0.47000000000E+01 0.  1.
</event>
<event>
 5    1  0.9081766E-001  0.1000000E+03  0.7546771E-02  0.1163815E+00
         11   -1    0    0    0    0  0.00000000000E+00  0.00000000000E+00  0.50000000000E+02  0.50000000000E+02  0.00000000000E+00 0. -1.
        -11   -1    0    0    0    0 -0.00000000000E+00 -0.00000000000E+00 -0.50000000000E+02  0.50000000000E+02  0.00000000000E+00 0.  1.
         23    2    1    2    0    0  0.00000000000E+00  0.00000000000E+00  0.00000000000E+00  0.10000000000E+03  0.10000000000E+03 0.  0.
          5    1    3    3  501    0 -0.20169633208E+02  0.20431409421E+02  0.40665137469E+02  0.50000000000E+02  0.47000000000E+01 0. -1.
         -5    1    3    3    0  501  0.20169633208E+02 -0.20431409421E+02 -0.40665137469E+02  0.50000000000E+02  0.47000000000E+01 0.  1.
</event>
<event>
 5    1  0.9081766E-001  0.1000000E+03  0.7546771E-02  0.1163815E+00
         11   -1    0    0    0    0  0.00000000000E+00  0.00000000000E+00  0.50000000000E+02  0.50000000000E+02  0.00000000000E+00 0.  1.
        -11   -1    0    0    0    0 -0.00000000000E+00 -0.00000000000E+00 -0.50000000000E+02  0.50000000000E+02  0.00000000000E+00 0. -1.
         23    2    1    2    0    0  0.00000000000E+00  0.00000000000E+00  0.00000000000E+00  0.10000000000E+03  0.10000000000E+03 0.  0.
          5    1    3    3  501    0  0.65974580446E+01 -0.14670836111E+02 -0.47107856193E+02  0.50000000000E+02  0.47000000000E+01 0. -1.
         -5    1    3    3    0  501 -0.65974580446E+01  0.14670836111E+02  0.47107856193E+02  0.50000000000E+02  0.47000000000E+01 0.  1.
</event>
<event>
 5    1  0.9081766E-001  0.1000000E+03  0.7546771E-02  0.1163815E+00
         11   -1    0    0    0    0  0.00000000000E+00  0.00000000000E+00  0.50000000000E+02  0.50000000000E+02  0.00000000000E+00 0. -1.
        -11   -1    0    0    0    0 -0.00000000000E+00 -0.00000000000E+00 -0.50000000000E+02  0.50000000000E+02  0.00000000000E+00 0.  1.
         23    2    1    2    0    0  0.00000000000E+00  0.00000000000E+00  0.00000000000E+00  0.10000000000E+03  0.10000000000E+03 0.  0.
          5    1    3    3  501    0  0.93769792092E+01  0.42919752259E+02  0.23406775235E+02  0.50000000000E+02  0.47000000000E+01 0. -1.
         -5    1    3    3    0  501 -0.93769792092E+01 -0.42919752259E+02 -0.23406775235E+02  0.50000000000E+02  0.47000000000E+01 0.  1.
</event>
<event>
 5    1  0.9081766E-001  0.1000000E+03  0.7546771E-02  0.1163815E+00
         11   -1    0    0    0    0  0.00000000000E+00  0.00000000000E+00  0.50000000000E+02  0.50000000000E+02  0.00000000000E+00 0. -1.
        -11   -1    0    0    0    0 -0.00000000000E+00 -0.00000000000E+00 -0.50000000000E+02  0.50000000000E+02  0.00000000000E+00 0.  1.
         23    2    1    2    0    0  0.00000000000E+00  0.00000000000E+00  0.00000000000E+00  0.10000000000E+03  0.10000000000E+03 0.  0.
          5    1    3    3  501    0  0.26454125918E+01 -0.27980797177E+02  0.41085116302E+02  0.50000000000E+02  0.47000000000E+01 0. -1.
         -5    1    3    3    0  501 -0.26454125918E+01  0.27980797177E+02 -0.41085116302E+02  0.50000000000E+02  0.47000000000E+01 0.  1.
</event>
<event>
 5    1  0.9081766E-001  0.1000000E+03  0.7546771E-02  0.1163815E+00
         11   -1    0    0    0    0  0.00000000000E+00  0.00000000000E+00  0.50000000000E+02  0.50000000000E+02  0.00000000000E+00 0. -1.
        -11   -1    0    0    0    0 -0.00000000000E+00 -0.00000000000E+00 -0.50000000000E+02  0.50000000000E+02  0.00000000000E+00 0.  1.
         23    2    1    2    0    0  0.00000000000E+00  0.00000000000E+00  0.00000000000E+00  0.10000000000E+03  0.10000000000E+03 0.  0.
          5    1    3    3  501    0 -0.49740885384E+02 -0.17335105670E+01  0.86559941276E+00  0.50000000000E+02  0.47000000000E+01 0. -1.
         -5    1    3    3    0  501  0.49740885384E+02  0.17335105670E+01 -0.86559941276E+00  0.50000000000E+02  0.47000000000E+01 0.  1.
</event>
<event>
 5    1  0.9081766E-001  0.1000000E+03  0.7546771E-02  0.1163815E+00
         11   -1    0    0    0    0  0.00000000000E+00  0.00000000000E+00  0.50000000000E+02  0.50000000000E+02  0.00000000000E+00 0. -1.
        -11   -1    0    0    0    0 -0.00000000000E+00 -0.00000000000E+00 -0.50000000000E+02  0.50000000000E+02  0.00000000000E+00 0.  1.
         23    2    1    2    0    0  0.00000000000E+00  0.00000000000E+00  0.00000000000E+00  0.10000000000E+03  0.10000000000E+03 0.  0.
          5    1    3    3  501    0  0.63786490542E+01  0.26529531761E+02  0.41634202055E+02  0.50000000000E+02  0.47000000000E+01 0. -1.
         -5    1    3    3    0  501 -0.63786490542E+01 -0.26529531761E+02 -0.41634202055E+02  0.50000000000E+02  0.47000000000E+01 0.  1.
</event>
<event>
 5    1  0.9081766E-001  0.1000000E+03  0.7546771E-02  0.1163815E+00
         11   -1    0    0    0    0  0.00000000000E+00  0.00000000000E+00  0.50000000000E+02  0.50000000000E+02  0.00000000000E+00 0. -1.
        -11   -1    0    0    0    0 -0.00000000000E+00 -0.00000000000E+00 -0.50000000000E+02  0.50000000000E+02  0.00000000000E+00 0.  1.
         23    2    1    2    0    0  0.00000000000E+00  0.00000000000E+00  0.00000000000E+00  0.10000000000E+03  0.10000000000E+03 0.  0.
          5    1    3    3  501    0 -0.36726862024E+01 -0.18051532392E+01  0.49610107819E+02  0.50000000000E+02  0.47000000000E+01 0. -1.
         -5    1    3    3    0  501  0.36726862024E+01  0.18051532392E+01 -0.49610107819E+02  0.50000000000E+02  0.47000000000E+01 0.  1.
</event>
<event>
 5    1  0.9081766E-001  0.1000000E+03  0.7546771E-02  0.1163815E+00
         11   -1    0    0    0    0  0.00000000000E+00  0.00000000000E+00  0.50000000000E+02  0.50000000000E+02  0.00000000000E+00 0. -1.
        -11   -1    0    0    0    0 -0.00000000000E+00 -0.00000000000E+00 -0.50000000000E+02  0.50000000000E+02  0.00000000000E+00 0.  1.
         23    2    1    2    0    0  0.00000000000E+00  0.00000000000E+00  0.00000000000E+00  0.10000000000E+03  0.10000000000E+03 0.  0.
          5    1    3    3  501    0 -0.15156042699E+02  0.37597453077E+02 -0.28890065625E+02  0.50000000000E+02  0.47000000000E+01 0. -1.
         -5    1    3    3    0  501  0.15156042699E+02 -0.37597453077E+02  0.28890065625E+02  0.50000000000E+02  0.47000000000E+01 0.  1.
</event>
<event>
 5    1  0.9081766E-001  0.1000000E+03  0.7546771E-02  0.1163815E+00
         11   -1    0    0    0    0  0.00000000000E+00  0.00000000000E+00  0.50000000000E+02  0.50000000000E+02  0.00000000000E+00 0.  1.
        -11   -1    0    0    0    0 -0.00000000000E+00 -0.00000000000E+00 -0.50000000000E+02  0.50000000000E+02  0.00000000000E+00 0. -1.
         23    2    1    2    0    0  0.00000000000E+00  0.00000000000E+00  0.00000000000E+00  0.10000000000E+03  0.10000000000E+03 0.  0.
          5    1    3    3  501    0  0.79276550950E+01  0.57512832824E+01 -0.48805583956E+02  0.50000000000E+02  0.47000000000E+01 0. -1.
         -5    1    3    3    0  501 -0.79276550950E+01 -0.57512832824E+01  0.48805583956E+02  0.50000000000E+02  0.47000000000E+01 0.  1.
</event>
<event>
 5    1  0.9081766E-001  0.1000000E+03  0.7546771E-02  0.1163815E+00
         11   -1    0    0    0    0  0.00000000000E+00  0.00000000000E+00  0.50000000000E+02  0.50000000000E+02  0.00000000000E+00 0. -1.
        -11   -1    0    0    0    0 -0.00000000000E+00 -0.00000000000E+00 -0.50000000000E+02  0.50000000000E+02  0.00000000000E+00 0.  1.
         23    2    1    2    0    0  0.00000000000E+00  0.00000000000E+00  0.00000000000E+00  0.10000000000E+03  0.10000000000E+03 0.  0.
          5    1    3    3  501    0 -0.10875385049E+02 -0.28908227625E+02  0.39037807003E+02  0.50000000000E+02  0.47000000000E+01 0. -1.
         -5    1    3    3    0  501  0.10875385049E+02  0.28908227625E+02 -0.39037807003E+02  0.50000000000E+02  0.47000000000E+01 0.  1.
</event>
<event>
 5    1  0.9081766E-001  0.1000000E+03  0.7546771E-02  0.1163815E+00
         11   -1    0    0    0    0  0.00000000000E+00  0.00000000000E+00  0.50000000000E+02  0.50000000000E+02  0.00000000000E+00 0.  1.
        -11   -1    0    0    0    0 -0.00000000000E+00 -0.00000000000E+00 -0.50000000000E+02  0.50000000000E+02  0.00000000000E+00 0. -1.
         23    2    1    2    0    0  0.00000000000E+00  0.00000000000E+00  0.00000000000E+00  0.10000000000E+03  0.10000000000E+03 0.  0.
          5    1    3    3  501    0 -0.41199955065E+02  0.14765889885E+02 -0.23715863858E+02  0.50000000000E+02  0.47000000000E+01 0. -1.
         -5    1    3    3    0  501  0.41199955065E+02 -0.14765889885E+02  0.23715863858E+02  0.50000000000E+02  0.47000000000E+01 0.  1.
</event>
<event>
 5    1  0.9081766E-001  0.1000000E+03  0.7546771E-02  0.1163815E+00
         11   -1    0    0    0    0  0.00000000000E+00  0.00000000000E+00  0.50000000000E+02  0.50000000000E+02  0.00000000000E+00 0. -1.
        -11   -1    0    0    0    0 -0.00000000000E+00 -0.00000000000E+00 -0.50000000000E+02  0.50000000000E+02  0.00000000000E+00 0.  1.
         23    2    1    2    0    0  0.00000000000E+00  0.00000000000E+00  0.00000000000E+00  0.10000000000E+03  0.10000000000E+03 0.  0.
          5    1    3    3  501    0  0.12046631869E+02 -0.33201783899E+02  0.35077488601E+02  0.50000000000E+02  0.47000000000E+01 0. -1.
         -5    1    3    3    0  501 -0.12046631869E+02  0.33201783899E+02 -0.35077488601E+02  0.50000000000E+02  0.47000000000E+01 0.  1.
</event>
<event>
 5    1  0.9081766E-001  0.1000000E+03  0.7546771E-02  0.1163815E+00
         11   -1    0    0    0    0  0.00000000000E+00  0.00000000000E+00  0.50000000000E+02  0.50000000000E+02  0.00000000000E+00 0. -1.
        -11   -1    0    0    0    0 -0.00000000000E+00 -0.00000000000E+00 -0.50000000000E+02  0.50000000000E+02  0.00000000000E+00 0.  1.
         23    2    1    2    0    0  0.00000000000E+00  0.00000000000E+00  0.00000000000E+00  0.10000000000E+03  0.10000000000E+03 0.  0.
          5    1    3    3  501    0 -0.21809124442E+02 -0.30122590356E+02  0.33089297987E+02  0.50000000000E+02  0.47000000000E+01 0. -1.
         -5    1    3    3    0  501  0.21809124442E+02  0.30122590356E+02 -0.33089297987E+02  0.50000000000E+02  0.47000000000E+01 0.  1.
</event>
<event>
 5    1  0.9081766E-001  0.1000000E+03  0.7546771E-02  0.1163815E+00
         11   -1    0    0    0    0  0.00000000000E+00  0.00000000000E+00  0.50000000000E+02  0.50000000000E+02  0.00000000000E+00 0.  1.
        -11   -1    0    0    0    0 -0.00000000000E+00 -0.00000000000E+00 -0.50000000000E+02  0.50000000000E+02  0.00000000000E+00 0. -1.
         23    2    1    2    0    0  0.00000000000E+00  0.00000000000E+00  0.00000000000E+00  0.10000000000E+03  0.10000000000E+03 0.  0.
          5    1    3    3  501    0 -0.22118905970E+02  0.43805306853E+02 -0.83521907445E+01  0.50000000000E+02  0.47000000000E+01 0. -1.
         -5    1    3    3    0  501  0.22118905970E+02 -0.43805306853E+02  0.83521907445E+01  0.50000000000E+02  0.47000000000E+01 0.  1.
</event>
<event>
 5    1  0.9081766E-001  0.1000000E+03  0.7546771E-02  0.1163815E+00
         11   -1    0    0    0    0  0.00000000000E+00  0.00000000000E+00  0.50000000000E+02  0.50000000000E+02  0.00000000000E+00 0.  1.
        -11   -1    0    0    0    0 -0.00000000000E+00 -0.00000000000E+00 -0.50000000000E+02  0.50000000000E+02  0.00000000000E+00 0. -1.
         23    2    1    2    0    0  0.00000000000E+00  0.00000000000E+00  0.00000000000E+00  0.10000000000E+03  0.10000000000E+03 0.  0.
          5    1    3    3  501    0 -0.43619947600E+02 -0.21654093797E+02  0.10310693146E+02  0.50000000000E+02  0.47000000000E+01 0. -1.
         -5    1    3    3    0  501  0.43619947600E+02  0.21654093797E+02 -0.10310693146E+02  0.50000000000E+02  0.47000000000E+01 0.  1.
</event>
<event>
 5    1  0.9081766E-001  0.1000000E+03  0.7546771E-02  0.1163815E+00
         11   -1    0    0    0    0  0.00000000000E+00  0.00000000000E+00  0.50000000000E+02  0.50000000000E+02  0.00000000000E+00 0.  1.
        -11   -1    0    0    0    0 -0.00000000000E+00 -0.00000000000E+00 -0.50000000000E+02  0.50000000000E+02  0.00000000000E+00 0. -1.
         23    2    1    2    0    0  0.00000000000E+00  0.00000000000E+00  0.00000000000E+00  0.10000000000E+03  0.10000000000E+03 0.  0.
          5    1    3    3  501    0  0.78190204291E+01  0.65352986731E+01 -0.48724355212E+02  0.50000000000E+02  0.47000000000E+01 0. -1.
         -5    1    3    3    0  501 -0.78190204291E+01 -0.65352986731E+01  0.48724355212E+02  0.50000000000E+02  0.47000000000E+01 0.  1.
</event>
<event>
 5    1  0.9081766E-001  0.1000000E+03  0.7546771E-02  0.1163815E+00
         11   -1    0    0    0    0  0.00000000000E+00  0.00000000000E+00  0.50000000000E+02  0.50000000000E+02  0.00000000000E+00 0. -1.
        -11   -1    0    0    0    0 -0.00000000000E+00 -0.00000000000E+00 -0.50000000000E+02  0.50000000000E+02  0.00000000000E+00 0.  1.
         23    2    1    2    0    0  0.00000000000E+00  0.00000000000E+00  0.00000000000E+00  0.10000000000E+03  0.10000000000E+03 0.  0.
          5    1    3    3  501    0  0.15498548320E+02 -0.47303335293E+02  0.31538880868E+00  0.50000000000E+02  0.47000000000E+01 0. -1.
         -5    1    3    3    0  501 -0.15498548320E+02  0.47303335293E+02 -0.31538880868E+00  0.50000000000E+02  0.47000000000E+01 0.  1.
</event>
<event>
 5    1  0.9081766E-001  0.1000000E+03  0.7546771E-02  0.1163815E+00
         11   -1    0    0    0    0  0.00000000000E+00  0.00000000000E+00  0.50000000000E+02  0.50000000000E+02  0.00000000000E+00 0.  1.
        -11   -1    0    0    0    0 -0.00000000000E+00 -0.00000000000E+00 -0.50000000000E+02  0.50000000000E+02  0.00000000000E+00 0. -1.
         23    2    1    2    0    0  0.00000000000E+00  0.00000000000E+00  0.00000000000E+00  0.10000000000E+03  0.10000000000E+03 0.  0.
          5    1    3    3  501    0  0.42910656110E+01  0.27697642812E+02  0.41138027889E+02  0.50000000000E+02  0.47000000000E+01 0.  1.
         -5    1    3    3    0  501 -0.42910656110E+01 -0.27697642812E+02 -0.41138027889E+02  0.50000000000E+02  0.47000000000E+01 0. -1.
</event>
<event>
 5    1  0.9081766E-001  0.1000000E+03  0.7546771E-02  0.1163815E+00
         11   -1    0    0    0    0  0.00000000000E+00  0.00000000000E+00  0.50000000000E+02  0.50000000000E+02  0.00000000000E+00 0. -1.
        -11   -1    0    0    0    0 -0.00000000000E+00 -0.00000000000E+00 -0.50000000000E+02  0.50000000000E+02  0.00000000000E+00 0.  1.
         23    2    1    2    0    0  0.00000000000E+00  0.00000000000E+00  0.00000000000E+00  0.10000000000E+03  0.10000000000E+03 0.  0.
          5    1    3    3  501    0 -0.37358346376E+02 -0.25361206285E+02  0.20954072918E+02  0.50000000000E+02  0.47000000000E+01 0. -1.
         -5    1    3    3    0  501  0.37358346376E+02  0.25361206285E+02 -0.20954072918E+02  0.50000000000E+02  0.47000000000E+01 0.  1.
</event>
<event>
 5    1  0.9081766E-001  0.1000000E+03  0.7546771E-02  0.1163815E+00
         11   -1    0    0    0    0  0.00000000000E+00  0.00000000000E+00  0.50000000000E+02  0.50000000000E+02  0.00000000000E+00 0.  1.
        -11   -1    0    0    0    0 -0.00000000000E+00 -0.00000000000E+00 -0.50000000000E+02  0.50000000000E+02  0.00000000000E+00 0. -1.
         23    2    1    2    0    0  0.00000000000E+00  0.00000000000E+00  0.00000000000E+00  0.10000000000E+03  0.10000000000E+03 0.  0.
          5    1    3    3  501    0 -0.24383458967E+02 -0.16277305422E+02  0.40229420292E+02  0.50000000000E+02  0.47000000000E+01 0.  1.
         -5    1    3    3    0  501  0.24383458967E+02  0.16277305422E+02 -0.40229420292E+02  0.50000000000E+02  0.47000000000E+01 0. -1.
</event>
<event>
 5    1  0.9081766E-001  0.1000000E+03  0.7546771E-02  0.1163815E+00
         11   -1    0    0    0    0  0.00000000000E+00  0.00000000000E+00  0.50000000000E+02  0.50000000000E+02  0.00000000000E+00 0. -1.
        -11   -1    0    0    0    0 -0.00000000000E+00 -0.00000000000E+00 -0.50000000000E+02  0.50000000000E+02  0.00000000000E+00 0.  1.
         23    2    1    2    0    0  0.00000000000E+00  0.00000000000E+00  0.00000000000E+00  0.10000000000E+03  0.10000000000E+03 0.  0.
          5    1    3    3  501    0 -0.24578508660E+01  0.41564022663E+02  0.27281880235E+02  0.50000000000E+02  0.47000000000E+01 0. -1.
         -5    1    3    3    0  501  0.24578508660E+01 -0.41564022663E+02 -0.27281880235E+02  0.50000000000E+02  0.47000000000E+01 0.  1.
</event>
<event>
 5    1  0.9081766E-001  0.1000000E+03  0.7546771E-02  0.1163815E+00
         11   -1    0    0    0    0  0.00000000000E+00  0.00000000000E+00  0.50000000000E+02  0.50000000000E+02  0.00000000000E+00 0. -1.
        -11   -1    0    0    0    0 -0.00000000000E+00 -0.00000000000E+00 -0.50000000000E+02  0.50000000000E+02  0.00000000000E+00 0.  1.
         23    2    1    2    0    0  0.00000000000E+00  0.00000000000E+00  0.00000000000E+00  0.10000000000E+03  0.10000000000E+03 0.  0.
          5    1    3    3  501    0  0.24461904871E+02 -0.42566063104E+02  0.82252952451E+01  0.50000000000E+02  0.47000000000E+01 0. -1.
         -5    1    3    3    0  501 -0.24461904871E+02  0.42566063104E+02 -0.82252952451E+01  0.50000000000E+02  0.47000000000E+01 0.  1.
</event>
<event>
 5    1  0.9081766E-001  0.1000000E+03  0.7546771E-02  0.1163815E+00
         11   -1    0    0    0    0  0.00000000000E+00  0.00000000000E+00  0.50000000000E+02  0.50000000000E+02  0.00000000000E+00 0. -1.
        -11   -1    0    0    0    0 -0.00000000000E+00 -0.00000000000E+00 -0.50000000000E+02  0.50000000000E+02  0.00000000000E+00 0.  1.
         23    2    1    2    0    0  0.00000000000E+00  0.00000000000E+00  0.00000000000E+00  0.10000000000E+03  0.10000000000E+03 0.  0.
          5    1    3    3  501    0 -0.21624502929E+02  0.37598052304E+02  0.24426979675E+02  0.50000000000E+02  0.47000000000E+01 0. -1.
         -5    1    3    3    0  501  0.21624502929E+02 -0.37598052304E+02 -0.24426979675E+02  0.50000000000E+02  0.47000000000E+01 0.  1.
</event>
<event>
 5    1  0.9081766E-001  0.1000000E+03  0.7546771E-02  0.1163815E+00
         11   -1    0    0    0    0  0.00000000000E+00  0.00000000000E+00  0.50000000000E+02  0.50000000000E+02  0.00000000000E+00 0.  1.
        -11   -1    0    0    0    0 -0.00000000000E+00 -0.00000000000E+00 -0.50000000000E+02  0.50000000000E+02  0.00000000000E+00 0. -1.
         23    2    1    2    0    0  0.00000000000E+00  0.00000000000E+00  0.00000000000E+00  0.10000000000E+03  0.10000000000E+03 0.  0.
          5    1    3    3  501    0 -0.13982611823E+00  0.49772558486E+02 -0.76345952238E+00  0.50000000000E+02  0.47000000000E+01 0. -1.
         -5    1    3    3    0  501  0.13982611823E+00 -0.49772558486E+02  0.76345952238E+00  0.50000000000E+02  0.47000000000E+01 0.  1.
</event>
<event>
 5    1  0.9081766E-001  0.1000000E+03  0.7546771E-02  0.1163815E+00
         11   -1    0    0    0    0  0.00000000000E+00  0.00000000000E+00  0.50000000000E+02  0.50000000000E+02  0.00000000000E+00 0. -1.
        -11   -1    0    0    0    0 -0.00000000000E+00 -0.00000000000E+00 -0.50000000000E+02  0.50000000000E+02  0.00000000000E+00 0.  1.
         23    2    1    2    0    0  0.00000000000E+00  0.00000000000E+00  0.00000000000E+00  0.10000000000E+03  0.10000000000E+03 0.  0.
          5    1    3    3  501    0  0.17576112381E+02 -0.46570999714E+02 -0.36367454505E+00  0.50000000000E+02  0.47000000000E+01 0. -1.
         -5    1    3    3    0  501 -0.17576112381E+02  0.46570999714E+02  0.36367454505E+00  0.50000000000E+02  0.47000000000E+01 0.  1.
</event>
<event>
 5    1  0.9081766E-001  0.1000000E+03  0.7546771E-02  0.1163815E+00
         11   -1    0    0    0    0  0.00000000000E+00  0.00000000000E+00  0.50000000000E+02  0.50000000000E+02  0.00000000000E+00 0.  1.
        -11   -1    0    0    0    0 -0.00000000000E+00 -0.00000000000E+00 -0.50000000000E+02  0.50000000000E+02  0.00000000000E+00 0. -1.
         23    2    1    2    0    0  0.00000000000E+00  0.00000000000E+00  0.00000000000E+00  0.10000000000E+03  0.10000000000E+03 0.  0.
          5    1    3    3  501    0  0.44918289153E+01 -0.45234410019E+02 -0.20287474540E+02  0.50000000000E+02  0.47000000000E+01 0. -1.
         -5    1    3    3    0  501 -0.44918289153E+01  0.45234410019E+02  0.20287474540E+02  0.50000000000E+02  0.47000000000E+01 0.  1.
</event>
<event>
 5    1  0.9081766E-001  0.1000000E+03  0.7546771E-02  0.1163815E+00
         11   -1    0    0    0    0  0.00000000000E+00  0.00000000000E+00  0.50000000000E+02  0.50000000000E+02  0.00000000000E+00 0. -1.
        -11   -1    0    0    0    0 -0.00000000000E+00 -0.00000000000E+00 -0.50000000000E+02  0.50000000000E+02  0.00000000000E+00 0.  1.
         23    2    1    2    0    0  0.00000000000E+00  0.00000000000E+00  0.00000000000E+00  0.10000000000E+03  0.10000000000E+03 0.  0.
          5    1    3    3  501    0  0.21260270183E+02  0.11519466936E+02 -0.43511065182E+02  0.50000000000E+02  0.47000000000E+01 0.  1.
         -5    1    3    3    0  501 -0.21260270183E+02 -0.11519466936E+02  0.43511065182E+02  0.50000000000E+02  0.47000000000E+01 0. -1.
</event>
<event>
 5    1  0.9081766E-001  0.1000000E+03  0.7546771E-02  0.1163815E+00
         11   -1    0    0    0    0  0.00000000000E+00  0.00000000000E+00  0.50000000000E+02  0.50000000000E+02  0.00000000000E+00 0. -1.
        -11   -1    0    0    0    0 -0.00000000000E+00 -0.00000000000E+00 -0.50000000000E+02  0.50000000000E+02  0.00000000000E+00 0.  1.
         23    2    1    2    0    0  0.00000000000E+00  0.00000000000E+00  0.00000000000E+00  0.10000000000E+03  0.10000000000E+03 0.  0.
          5    1    3    3  501    0 -0.11733763010E+02 -0.61619880890E+01  0.47981858118E+02  0.50000000000E+02  0.47000000000E+01 0. -1.
         -5    1    3    3    0  501  0.11733763010E+02  0.61619880890E+01 -0.47981858118E+02  0.50000000000E+02  0.47000000000E+01 0.  1.
</event>
<event>
 5    1  0.9081766E-001  0.1000000E+03  0.7546771E-02  0.1163815E+00
         11   -1    0    0    0    0  0.00000000000E+00  0.00000000000E+00  0.50000000000E+02  0.50000000000E+02  0.00000000000E+00 0. -1.
        -11   -1    0    0    0    0 -0.00000000000E+00 -0.00000000000E+00 -0.50000000000E+02  0.50000000000E+02  0.00000000000E+00 0.  1.
         23    2    1    2    0    0  0.00000000000E+00  0.00000000000E+00  0.00000000000E+00  0.10000000000E+03  0.10000000000E+03 0.  0.
          5    1    3    3  501    0  0.74617871024E+01  0.16944857540E+02  0.46207180570E+02  0.50000000000E+02  0.47000000000E+01 0. -1.
         -5    1    3    3    0  501 -0.74617871024E+01 -0.16944857540E+02 -0.46207180570E+02  0.50000000000E+02  0.47000000000E+01 0.  1.
</event>
<event>
 5    1  0.9081766E-001  0.1000000E+03  0.7546771E-02  0.1163815E+00
         11   -1    0    0    0    0  0.00000000000E+00  0.00000000000E+00  0.50000000000E+02  0.50000000000E+02  0.00000000000E+00 0.  1.
        -11   -1    0    0    0    0 -0.00000000000E+00 -0.00000000000E+00 -0.50000000000E+02  0.50000000000E+02  0.00000000000E+00 0. -1.
         23    2    1    2    0    0  0.00000000000E+00  0.00000000000E+00  0.00000000000E+00  0.10000000000E+03  0.10000000000E+03 0.  0.
          5    1    3    3  501    0  0.76267426396E+01 -0.29176206967E+02 -0.39604188462E+02  0.50000000000E+02  0.47000000000E+01 0. -1.
         -5    1    3    3    0  501 -0.76267426396E+01  0.29176206967E+02  0.39604188462E+02  0.50000000000E+02  0.47000000000E+01 0.  1.
</event>
<event>
 5    1  0.9081766E-001  0.1000000E+03  0.7546771E-02  0.1163815E+00
         11   -1    0    0    0    0  0.00000000000E+00  0.00000000000E+00  0.50000000000E+02  0.50000000000E+02  0.00000000000E+00 0. -1.
        -11   -1    0    0    0    0 -0.00000000000E+00 -0.00000000000E+00 -0.50000000000E+02  0.50000000000E+02  0.00000000000E+00 0.  1.
         23    2    1    2    0    0  0.00000000000E+00  0.00000000000E+00  0.00000000000E+00  0.10000000000E+03  0.10000000000E+03 0.  0.
          5    1    3    3  501    0 -0.33942320712E+02 -0.14223188062E+02  0.33519095841E+02  0.50000000000E+02  0.47000000000E+01 0. -1.
         -5    1    3    3    0  501  0.33942320712E+02  0.14223188062E+02 -0.33519095841E+02  0.50000000000E+02  0.47000000000E+01 0.  1.
</event>
<event>
 5    1  0.9081766E-001  0.1000000E+03  0.7546771E-02  0.1163815E+00
         11   -1    0    0    0    0  0.00000000000E+00  0.00000000000E+00  0.50000000000E+02  0.50000000000E+02  0.00000000000E+00 0. -1.
        -11   -1    0    0    0    0 -0.00000000000E+00 -0.00000000000E+00 -0.50000000000E+02  0.50000000000E+02  0.00000000000E+00 0.  1.
         23    2    1    2    0    0  0.00000000000E+00  0.00000000000E+00  0.00000000000E+00  0.10000000000E+03  0.10000000000E+03 0.  0.
          5    1    3    3  501    0 -0.24827199515E+02 -0.28932792026E+02  0.32006463564E+02  0.50000000000E+02  0.47000000000E+01 0. -1.
         -5    1    3    3    0  501  0.24827199515E+02  0.28932792026E+02 -0.32006463564E+02  0.50000000000E+02  0.47000000000E+01 0.  1.
</event>
<event>
 5    1  0.9081766E-001  0.1000000E+03  0.7546771E-02  0.1163815E+00
         11   -1    0    0    0    0  0.00000000000E+00  0.00000000000E+00  0.50000000000E+02  0.50000000000E+02  0.00000000000E+00 0. -1.
        -11   -1    0    0    0    0 -0.00000000000E+00 -0.00000000000E+00 -0.50000000000E+02  0.50000000000E+02  0.00000000000E+00 0.  1.
         23    2    1    2    0    0  0.00000000000E+00  0.00000000000E+00  0.00000000000E+00  0.10000000000E+03  0.10000000000E+03 0.  0.
          5    1    3    3  501    0 -0.10611831776E+02 -0.24660885063E+02  0.41918251088E+02  0.50000000000E+02  0.47000000000E+01 0. -1.
         -5    1    3    3    0  501  0.10611831776E+02  0.24660885063E+02 -0.41918251088E+02  0.50000000000E+02  0.47000000000E+01 0.  1.
</event>
<event>
 5    1  0.9081766E-001  0.1000000E+03  0.7546771E-02  0.1163815E+00
         11   -1    0    0    0    0  0.00000000000E+00  0.00000000000E+00  0.50000000000E+02  0.50000000000E+02  0.00000000000E+00 0. -1.
        -11   -1    0    0    0    0 -0.00000000000E+00 -0.00000000000E+00 -0.50000000000E+02  0.50000000000E+02  0.00000000000E+00 0.  1.
         23    2    1    2    0    0  0.00000000000E+00  0.00000000000E+00  0.00000000000E+00  0.10000000000E+03  0.10000000000E+03 0.  0.
          5    1    3    3  501    0 -0.24921400530E+02 -0.21682902318E+02  0.37238226900E+02  0.50000000000E+02  0.47000000000E+01 0. -1.
         -5    1    3    3    0  501  0.24921400530E+02  0.21682902318E+02 -0.37238226900E+02  0.50000000000E+02  0.47000000000E+01 0.  1.
</event>
<event>
 5    1  0.9081766E-001  0.1000000E+03  0.7546771E-02  0.1163815E+00
         11   -1    0    0    0    0  0.00000000000E+00  0.00000000000E+00  0.50000000000E+02  0.50000000000E+02  0.00000000000E+00 0. -1.
        -11   -1    0    0    0    0 -0.00000000000E+00 -0.00000000000E+00 -0.50000000000E+02  0.50000000000E+02  0.00000000000E+00 0.  1.
         23    2    1    2    0    0  0.00000000000E+00  0.00000000000E+00  0.00000000000E+00  0.10000000000E+03  0.10000000000E+03 0.  0.
          5    1    3    3  501    0 -0.39543513921E+01 -0.12547628022E+02  0.48008646472E+02  0.50000000000E+02  0.47000000000E+01 0. -1.
         -5    1    3    3    0  501  0.39543513921E+01  0.12547628022E+02 -0.48008646472E+02  0.50000000000E+02  0.47000000000E+01 0.  1.
</event>
<event>
 5    1  0.9081766E-001  0.1000000E+03  0.7546771E-02  0.1163815E+00
         11   -1    0    0    0    0  0.00000000000E+00  0.00000000000E+00  0.50000000000E+02  0.50000000000E+02  0.00000000000E+00 0. -1.
        -11   -1    0    0    0    0 -0.00000000000E+00 -0.00000000000E+00 -0.50000000000E+02  0.50000000000E+02  0.00000000000E+00 0.  1.
         23    2    1    2    0    0  0.00000000000E+00  0.00000000000E+00  0.00000000000E+00  0.10000000000E+03  0.10000000000E+03 0.  0.
          5    1    3    3  501    0 -0.27086149455E+02  0.10539272653E+02  0.40412550521E+02  0.50000000000E+02  0.47000000000E+01 0. -1.
         -5    1    3    3    0  501  0.27086149455E+02 -0.10539272653E+02 -0.40412550521E+02  0.50000000000E+02  0.47000000000E+01 0.  1.
</event>
<event>
 5    1  0.9081766E-001  0.1000000E+03  0.7546771E-02  0.1163815E+00
         11   -1    0    0    0    0  0.00000000000E+00  0.00000000000E+00  0.50000000000E+02  0.50000000000E+02  0.00000000000E+00 0. -1.
        -11   -1    0    0    0    0 -0.00000000000E+00 -0.00000000000E+00 -0.50000000000E+02  0.50000000000E+02  0.00000000000E+00 0.  1.
         23    2    1    2    0    0  0.00000000000E+00  0.00000000000E+00  0.00000000000E+00  0.10000000000E+03  0.10000000000E+03 0.  0.
          5    1    3    3  501    0 -0.60387978302E+00 -0.36501181487E+02  0.33840937920E+02  0.50000000000E+02  0.47000000000E+01 0. -1.
         -5    1    3    3    0  501  0.60387978302E+00  0.36501181487E+02 -0.33840937920E+02  0.50000000000E+02  0.47000000000E+01 0.  1.
</event>
<event>
 5    1  0.9081766E-001  0.1000000E+03  0.7546771E-02  0.1163815E+00
         11   -1    0    0    0    0  0.00000000000E+00  0.00000000000E+00  0.50000000000E+02  0.50000000000E+02  0.00000000000E+00 0. -1.
        -11   -1    0    0    0    0 -0.00000000000E+00 -0.00000000000E+00 -0.50000000000E+02  0.50000000000E+02  0.00000000000E+00 0.  1.
         23    2    1    2    0    0  0.00000000000E+00  0.00000000000E+00  0.00000000000E+00  0.10000000000E+03  0.10000000000E+03 0.  0.
          5    1    3    3  501    0 -0.10917122362E+02  0.46907273300E+02  0.12587062840E+02  0.50000000000E+02  0.47000000000E+01 0. -1.
         -5    1    3    3    0  501  0.10917122362E+02 -0.46907273300E+02 -0.12587062840E+02  0.50000000000E+02  0.47000000000E+01 0.  1.
</event>
<event>
 5    1  0.9081766E-001  0.1000000E+03  0.7546771E-02  0.1163815E+00
         11   -1    0    0    0    0  0.00000000000E+00  0.00000000000E+00  0.50000000000E+02  0.50000000000E+02  0.00000000000E+00 0.  1.
        -11   -1    0    0    0    0 -0.00000000000E+00 -0.00000000000E+00 -0.50000000000E+02  0.50000000000E+02  0.00000000000E+00 0. -1.
         23    2    1    2    0    0  0.00000000000E+00  0.00000000000E+00  0.00000000000E+00  0.10000000000E+03  0.10000000000E+03 0.  0.
          5    1    3    3  501    0 -0.12920037521E+02  0.35867577656E+02  0.32007803791E+02  0.50000000000E+02  0.47000000000E+01 0. -1.
         -5    1    3    3    0  501  0.12920037521E+02 -0.35867577656E+02 -0.32007803791E+02  0.50000000000E+02  0.47000000000E+01 0.  1.
</event>
<event>
 5    1  0.9081766E-001  0.1000000E+03  0.7546771E-02  0.1163815E+00
         11   -1    0    0    0    0  0.00000000000E+00  0.00000000000E+00  0.50000000000E+02  0.50000000000E+02  0.00000000000E+00 0. -1.
        -11   -1    0    0    0    0 -0.00000000000E+00 -0.00000000000E+00 -0.50000000000E+02  0.50000000000E+02  0.00000000000E+00 0.  1.
         23    2    1    2    0    0  0.00000000000E+00  0.00000000000E+00  0.00000000000E+00  0.10000000000E+03  0.10000000000E+03 0.  0.
          5    1    3    3  501    0  0.10151617294E+02 -0.46875845308E+02  0.13323280112E+02  0.50000000000E+02  0.47000000000E+01 0. -1.
         -5    1    3    3    0  501 -0.10151617294E+02  0.46875845308E+02 -0.13323280112E+02  0.50000000000E+02  0.47000000000E+01 0.  1.
</event>
<event>
 5    1  0.9081766E-001  0.1000000E+03  0.7546771E-02  0.1163815E+00
         11   -1    0    0    0    0  0.00000000000E+00  0.00000000000E+00  0.50000000000E+02  0.50000000000E+02  0.00000000000E+00 0. -1.
        -11   -1    0    0    0    0 -0.00000000000E+00 -0.00000000000E+00 -0.50000000000E+02  0.50000000000E+02  0.00000000000E+00 0.  1.
         23    2    1    2    0    0  0.00000000000E+00  0.00000000000E+00  0.00000000000E+00  0.10000000000E+03  0.10000000000E+03 0.  0.
          5    1    3    3  501    0 -0.37590251013E+02  0.24935161540E+02  0.21050433434E+02  0.50000000000E+02  0.47000000000E+01 0. -1.
         -5    1    3    3    0  501  0.37590251013E+02 -0.24935161540E+02 -0.21050433434E+02  0.50000000000E+02  0.47000000000E+01 0.  1.
</event>
<event>
 5    1  0.9081766E-001  0.1000000E+03  0.7546771E-02  0.1163815E+00
         11   -1    0    0    0    0  0.00000000000E+00  0.00000000000E+00  0.50000000000E+02  0.50000000000E+02  0.00000000000E+00 0. -1.
        -11   -1    0    0    0    0 -0.00000000000E+00 -0.00000000000E+00 -0.50000000000E+02  0.50000000000E+02  0.00000000000E+00 0.  1.
         23    2    1    2    0    0  0.00000000000E+00  0.00000000000E+00  0.00000000000E+00  0.10000000000E+03  0.10000000000E+03 0.  0.
          5    1    3    3  501    0  0.35496687966E+01  0.26525414333E+02  0.41972755996E+02  0.50000000000E+02  0.47000000000E+01 0. -1.
         -5    1    3    3    0  501 -0.35496687966E+01 -0.26525414333E+02 -0.41972755996E+02  0.50000000000E+02  0.47000000000E+01 0.  1.
</event>
<event>
 5    1  0.9081766E-001  0.1000000E+03  0.7546771E-02  0.1163815E+00
         11   -1    0    0    0    0  0.00000000000E+00  0.00000000000E+00  0.50000000000E+02  0.50000000000E+02  0.00000000000E+00 0.  1.
        -11   -1    0    0    0    0 -0.00000000000E+00 -0.00000000000E+00 -0.50000000000E+02  0.50000000000E+02  0.00000000000E+00 0. -1.
         23    2    1    2    0    0  0.00000000000E+00  0.00000000000E+00  0.00000000000E+00  0.10000000000E+03  0.10000000000E+03 0.  0.
          5    1    3    3  501    0 -0.33044358270E+02  0.35807645169E+02  0.10187881724E+02  0.50000000000E+02  0.47000000000E+01 0. -1.
         -5    1    3    3    0  501  0.33044358270E+02 -0.35807645169E+02 -0.10187881724E+02  0.50000000000E+02  0.47000000000E+01 0.  1.
</event>
<event>
 5    1  0.9081766E-001  0.1000000E+03  0.7546771E-02  0.1163815E+00
         11   -1    0    0    0    0  0.00000000000E+00  0.00000000000E+00  0.50000000000E+02  0.50000000000E+02  0.00000000000E+00 0.  1.
        -11   -1    0    0    0    0 -0.00000000000E+00 -0.00000000000E+00 -0.50000000000E+02  0.50000000000E+02  0.00000000000E+00 0. -1.
         23    2    1    2    0    0  0.00000000000E+00  0.00000000000E+00  0.00000000000E+00  0.10000000000E+03  0.10000000000E+03 0.  0.
          5    1    3    3  501    0 -0.91185776111E+01  0.35831074303E+01  0.48804947326E+02  0.50000000000E+02  0.47000000000E+01 0.  1.
         -5    1    3    3    0  501  0.91185776111E+01 -0.35831074303E+01 -0.48804947326E+02  0.50000000000E+02  0.47000000000E+01 0. -1.
</event>
<event>
 5    1  0.9081766E-001  0.1000000E+03  0.7546771E-02  0.1163815E+00
         11   -1    0    0    0    0  0.00000000000E+00  0.00000000000E+00  0.50000000000E+02  0.50000000000E+02  0.00000000000E+00 0. -1.
        -11   -1    0    0    0    0 -0.00000000000E+00 -0.00000000000E+00 -0.50000000000E+02  0.50000000000E+02  0.00000000000E+00 0.  1.
         23    2    1    2    0    0  0.00000000000E+00  0.00000000000E+00  0.00000000000E+00  0.10000000000E+03  0.10000000000E+03 0.  0.
          5    1    3    3  501    0 -0.14891604108E+02 -0.65658934589E+01  0.47042950271E+02  0.50000000000E+02  0.47000000000E+01 0. -1.
         -5    1    3    3    0  501  0.14891604108E+02  0.65658934589E+01 -0.47042950271E+02  0.50000000000E+02  0.47000000000E+01 0.  1.
</event>
<event>
 5    1  0.9081766E-001  0.1000000E+03  0.7546771E-02  0.1163815E+00
         11   -1    0    0    0    0  0.00000000000E+00  0.00000000000E+00  0.50000000000E+02  0.50000000000E+02  0.00000000000E+00 0. -1.
        -11   -1    0    0    0    0 -0.00000000000E+00 -0.00000000000E+00 -0.50000000000E+02  0.50000000000E+02  0.00000000000E+00 0.  1.
         23    2    1    2    0    0  0.00000000000E+00  0.00000000000E+00  0.00000000000E+00  0.10000000000E+03  0.10000000000E+03 0.  0.
          5    1    3    3  501    0  0.47478703537E+01  0.37359869523E+02  0.32551618644E+02  0.50000000000E+02  0.47000000000E+01 0. -1.
         -5    1    3    3    0  501 -0.47478703537E+01 -0.37359869523E+02 -0.32551618644E+02  0.50000000000E+02  0.47000000000E+01 0.  1.
</event>
<event>
 5    1  0.9081766E-001  0.1000000E+03  0.7546771E-02  0.1163815E+00
         11   -1    0    0    0    0  0.00000000000E+00  0.00000000000E+00  0.50000000000E+02  0.50000000000E+02  0.00000000000E+00 0. -1.
        -11   -1    0    0    0    0 -0.00000000000E+00 -0.00000000000E+00 -0.50000000000E+02  0.50000000000E+02  0.00000000000E+00 0.  1.
         23    2    1    2    0    0  0.00000000000E+00  0.00000000000E+00  0.00000000000E+00  0.10000000000E+03  0.10000000000E+03 0.  0.
          5    1    3    3  501    0 -0.41857249161E+02  0.26938798560E+02 -0.42640925576E+00  0.50000000000E+02  0.47000000000E+01 0. -1.
         -5    1    3    3    0  501  0.41857249161E+02 -0.26938798560E+02  0.42640925576E+00  0.50000000000E+02  0.47000000000E+01 0.  1.
</event>
<event>
 5    1  0.9081766E-001  0.1000000E+03  0.7546771E-02  0.1163815E+00
         11   -1    0    0    0    0  0.00000000000E+00  0.00000000000E+00  0.50000000000E+02  0.50000000000E+02  0.00000000000E+00 0.  1.
        -11   -1    0    0    0    0 -0.00000000000E+00 -0.00000000000E+00 -0.50000000000E+02  0.50000000000E+02  0.00000000000E+00 0. -1.
         23    2    1    2    0    0  0.00000000000E+00  0.00000000000E+00  0.00000000000E+00  0.10000000000E+03  0.10000000000E+03 0.  0.
          5    1    3    3  501    0 -0.73731891974E+01 -0.29765706941E+02 -0.39211589758E+02  0.50000000000E+02  0.47000000000E+01 0. -1.
         -5    1    3    3    0  501  0.73731891974E+01  0.29765706941E+02  0.39211589758E+02  0.50000000000E+02  0.47000000000E+01 0.  1.
</event>
<event>
 5    1  0.9081766E-001  0.1000000E+03  0.7546771E-02  0.1163815E+00
         11   -1    0    0    0    0  0.00000000000E+00  0.00000000000E+00  0.50000000000E+02  0.50000000000E+02  0.00000000000E+00 0. -1.
        -11   -1    0    0    0    0 -0.00000000000E+00 -0.00000000000E+00 -0.50000000000E+02  0.50000000000E+02  0.00000000000E+00 0.  1.
         23    2    1    2    0    0  0.00000000000E+00  0.00000000000E+00  0.00000000000E+00  0.10000000000E+03  0.10000000000E+03 0.  0.
          5    1    3    3  501    0  0.16052782993E+02  0.33151098055E+02  0.33484665982E+02  0.50000000000E+02  0.47000000000E+01 0. -1.
         -5    1    3    3    0  501 -0.16052782993E+02 -0.33151098055E+02 -0.33484665982E+02  0.50000000000E+02  0.47000000000E+01 0.  1.
</event>
<event>
 5    1  0.9081766E-001  0.1000000E+03  0.7546771E-02  0.1163815E+00
         11   -1    0    0    0    0  0.00000000000E+00  0.00000000000E+00  0.50000000000E+02  0.50000000000E+02  0.00000000000E+00 0. -1.
        -11   -1    0    0    0    0 -0.00000000000E+00 -0.00000000000E+00 -0.50000000000E+02  0.50000000000E+02  0.00000000000E+00 0.  1.
         23    2    1    2    0    0  0.00000000000E+00  0.00000000000E+00  0.00000000000E+00  0.10000000000E+03  0.10000000000E+03 0.  0.
          5    1    3    3  501    0  0.14378855407E+02 -0.28880627525E+02  0.37908678043E+02  0.50000000000E+02  0.47000000000E+01 0. -1.
         -5    1    3    3    0  501 -0.14378855407E+02  0.28880627525E+02 -0.37908678043E+02  0.50000000000E+02  0.47000000000E+01 0.  1.
</event>
<event>
 5    1  0.9081766E-001  0.1000000E+03  0.7546771E-02  0.1163815E+00
         11   -1    0    0    0    0  0.00000000000E+00  0.00000000000E+00  0.50000000000E+02  0.50000000000E+02  0.00000000000E+00 0.  1.
        -11   -1    0    0    0    0 -0.00000000000E+00 -0.00000000000E+00 -0.50000000000E+02  0.50000000000E+02  0.00000000000E+00 0. -1.
         23    2    1    2    0    0  0.00000000000E+00  0.00000000000E+00  0.00000000000E+00  0.10000000000E+03  0.10000000000E+03 0.  0.
          5    1    3    3  501    0  0.32151056077E+00 -0.58024965965E+00 -0.49774189509E+02  0.50000000000E+02  0.47000000000E+01 0. -1.
         -5    1    3    3    0  501 -0.32151056077E+00  0.58024965965E+00  0.49774189509E+02  0.50000000000E+02  0.47000000000E+01 0.  1.
</event>
<event>
 5    1  0.9081766E-001  0.1000000E+03  0.7546771E-02  0.1163815E+00
         11   -1    0    0    0    0  0.00000000000E+00  0.00000000000E+00  0.50000000000E+02  0.50000000000E+02  0.00000000000E+00 0. -1.
        -11   -1    0    0    0    0 -0.00000000000E+00 -0.00000000000E+00 -0.50000000000E+02  0.50000000000E+02  0.00000000000E+00 0.  1.
         23    2    1    2    0    0  0.00000000000E+00  0.00000000000E+00  0.00000000000E+00  0.10000000000E+03  0.10000000000E+03 0.  0.
          5    1    3    3  501    0  0.50973104018E+01  0.68273155366E+01  0.49044012777E+02  0.50000000000E+02  0.47000000000E+01 0. -1.
         -5    1    3    3    0  501 -0.50973104018E+01 -0.68273155366E+01 -0.49044012777E+02  0.50000000000E+02  0.47000000000E+01 0.  1.
</event>
<event>
 5    1  0.9081766E-001  0.1000000E+03  0.7546771E-02  0.1163815E+00
         11   -1    0    0    0    0  0.00000000000E+00  0.00000000000E+00  0.50000000000E+02  0.50000000000E+02  0.00000000000E+00 0.  1.
        -11   -1    0    0    0    0 -0.00000000000E+00 -0.00000000000E+00 -0.50000000000E+02  0.50000000000E+02  0.00000000000E+00 0. -1.
         23    2    1    2    0    0  0.00000000000E+00  0.00000000000E+00  0.00000000000E+00  0.10000000000E+03  0.10000000000E+03 0.  0.
          5    1    3    3  501    0  0.34879879419E+02  0.12115662627E+02 -0.33384348590E+02  0.50000000000E+02  0.47000000000E+01 0. -1.
         -5    1    3    3    0  501 -0.34879879419E+02 -0.12115662627E+02  0.33384348590E+02  0.50000000000E+02  0.47000000000E+01 0.  1.
</event>
<event>
 5    1  0.9081766E-001  0.1000000E+03  0.7546771E-02  0.1163815E+00
         11   -1    0    0    0    0  0.00000000000E+00  0.00000000000E+00  0.50000000000E+02  0.50000000000E+02  0.00000000000E+00 0.  1.
        -11   -1    0    0    0    0 -0.00000000000E+00 -0.00000000000E+00 -0.50000000000E+02  0.50000000000E+02  0.00000000000E+00 0. -1.
         23    2    1    2    0    0  0.00000000000E+00  0.00000000000E+00  0.00000000000E+00  0.10000000000E+03  0.10000000000E+03 0.  0.
          5    1    3    3  501    0 -0.22169384551E+02  0.63540311994E+01 -0.44114109717E+02  0.50000000000E+02  0.47000000000E+01 0.  1.
         -5    1    3    3    0  501  0.22169384551E+02 -0.63540311994E+01  0.44114109717E+02  0.50000000000E+02  0.47000000000E+01 0. -1.
</event>
<event>
 5    1  0.9081766E-001  0.1000000E+03  0.7546771E-02  0.1163815E+00
         11   -1    0    0    0    0  0.00000000000E+00  0.00000000000E+00  0.50000000000E+02  0.50000000000E+02  0.00000000000E+00 0. -1.
        -11   -1    0    0    0    0 -0.00000000000E+00 -0.00000000000E+00 -0.50000000000E+02  0.50000000000E+02  0.00000000000E+00 0.  1.
         23    2    1    2    0    0  0.00000000000E+00  0.00000000000E+00  0.00000000000E+00  0.10000000000E+03  0.10000000000E+03 0.  0.
          5    1    3    3  501    0 -0.45917773179E+02 -0.10918068651E+02  0.15819730819E+02  0.50000000000E+02  0.47000000000E+01 0. -1.
         -5    1    3    3    0  501  0.45917773179E+02  0.10918068651E+02 -0.15819730819E+02  0.50000000000E+02  0.47000000000E+01 0.  1.
</event>
<event>
 5    1  0.9081766E-001  0.1000000E+03  0.7546771E-02  0.1163815E+00
         11   -1    0    0    0    0  0.00000000000E+00  0.00000000000E+00  0.50000000000E+02  0.50000000000E+02  0.00000000000E+00 0. -1.
        -11   -1    0    0    0    0 -0.00000000000E+00 -0.00000000000E+00 -0.50000000000E+02  0.50000000000E+02  0.00000000000E+00 0.  1.
         23    2    1    2    0    0  0.00000000000E+00  0.00000000000E+00  0.00000000000E+00  0.10000000000E+03  0.10000000000E+03 0.  0.
          5    1    3    3  501    0 -0.33742666646E+02  0.36140550602E+02  0.57622087611E+01  0.50000000000E+02  0.47000000000E+01 0. -1.
         -5    1    3    3    0  501  0.33742666646E+02 -0.36140550602E+02 -0.57622087611E+01  0.50000000000E+02  0.47000000000E+01 0.  1.
</event>
<event>
 5    1  0.9081766E-001  0.1000000E+03  0.7546771E-02  0.1163815E+00
         11   -1    0    0    0    0  0.00000000000E+00  0.00000000000E+00  0.50000000000E+02  0.50000000000E+02  0.00000000000E+00 0. -1.
        -11   -1    0    0    0    0 -0.00000000000E+00 -0.00000000000E+00 -0.50000000000E+02  0.50000000000E+02  0.00000000000E+00 0.  1.
         23    2    1    2    0    0  0.00000000000E+00  0.00000000000E+00  0.00000000000E+00  0.10000000000E+03  0.10000000000E+03 0.  0.
          5    1    3    3  501    0  0.14097027758E+02 -0.21229187644E+02  0.42761026652E+02  0.50000000000E+02  0.47000000000E+01 0. -1.
         -5    1    3    3    0  501 -0.14097027758E+02  0.21229187644E+02 -0.42761026652E+02  0.50000000000E+02  0.47000000000E+01 0.  1.
</event>
<event>
 5    1  0.9081766E-001  0.1000000E+03  0.7546771E-02  0.1163815E+00
         11   -1    0    0    0    0  0.00000000000E+00  0.00000000000E+00  0.50000000000E+02  0.50000000000E+02  0.00000000000E+00 0. -1.
        -11   -1    0    0    0    0 -0.00000000000E+00 -0.00000000000E+00 -0.50000000000E+02  0.50000000000E+02  0.00000000000E+00 0.  1.
         23    2    1    2    0    0  0.00000000000E+00  0.00000000000E+00  0.00000000000E+00  0.10000000000E+03  0.10000000000E+03 0.  0.
          5    1    3    3  501    0 -0.36476488157E+02  0.15186981585E+02  0.30277572592E+02  0.50000000000E+02  0.47000000000E+01 0. -1.
         -5    1    3    3    0  501  0.36476488157E+02 -0.15186981585E+02 -0.30277572592E+02  0.50000000000E+02  0.47000000000E+01 0.  1.
</event>
<event>
 5    1  0.9081766E-001  0.1000000E+03  0.7546771E-02  0.1163815E+00
         11   -1    0    0    0    0  0.00000000000E+00  0.00000000000E+00  0.50000000000E+02  0.50000000000E+02  0.00000000000E+00 0. -1.
        -11   -1    0    0    0    0 -0.00000000000E+00 -0.00000000000E+00 -0.50000000000E+02  0.50000000000E+02  0.00000000000E+00 0.  1.
         23    2    1    2    0    0  0.00000000000E+00  0.00000000000E+00  0.00000000000E+00  0.10000000000E+03  0.10000000000E+03 0.  0.
          5    1    3    3  501    0  0.44247917274E+02 -0.21919950505E+02 -0.62886872046E+01  0.50000000000E+02  0.47000000000E+01 0. -1.
         -5    1    3    3    0  501 -0.44247917274E+02  0.21919950505E+02  0.62886872046E+01  0.50000000000E+02  0.47000000000E+01 0.  1.
</event>
<event>
 5    1  0.9081766E-001  0.1000000E+03  0.7546771E-02  0.1163815E+00
         11   -1    0    0    0    0  0.00000000000E+00  0.00000000000E+00  0.50000000000E+02  0.50000000000E+02  0.00000000000E+00 0.  1.
        -11   -1    0    0    0    0 -0.00000000000E+00 -0.00000000000E+00 -0.50000000000E+02  0.50000000000E+02  0.00000000000E+00 0. -1.
         23    2    1    2    0    0  0.00000000000E+00  0.00000000000E+00  0.00000000000E+00  0.10000000000E+03  0.10000000000E+03 0.  0.
          5    1    3    3  501    0 -0.49293475100E+02  0.27282220378E+01  0.63733913343E+01  0.50000000000E+02  0.47000000000E+01 0. -1.
         -5    1    3    3    0  501  0.49293475100E+02 -0.27282220378E+01 -0.63733913343E+01  0.50000000000E+02  0.47000000000E+01 0.  1.
</event>
<event>
 5    1  0.9081766E-001  0.1000000E+03  0.7546771E-02  0.1163815E+00
         11   -1    0    0    0    0  0.00000000000E+00  0.00000000000E+00  0.50000000000E+02  0.50000000000E+02  0.00000000000E+00 0. -1.
        -11   -1    0    0    0    0 -0.00000000000E+00 -0.00000000000E+00 -0.50000000000E+02  0.50000000000E+02  0.00000000000E+00 0.  1.
         23    2    1    2    0    0  0.00000000000E+00  0.00000000000E+00  0.00000000000E+00  0.10000000000E+03  0.10000000000E+03 0.  0.
          5    1    3    3  501    0  0.65000055109E+01  0.41999022396E+02  0.25917986922E+02  0.50000000000E+02  0.47000000000E+01 0. -1.
         -5    1    3    3    0  501 -0.65000055109E+01 -0.41999022396E+02 -0.25917986922E+02  0.50000000000E+02  0.47000000000E+01 0.  1.
</event>
<event>
 5    1  0.9081766E-001  0.1000000E+03  0.7546771E-02  0.1163815E+00
         11   -1    0    0    0    0  0.00000000000E+00  0.00000000000E+00  0.50000000000E+02  0.50000000000E+02  0.00000000000E+00 0.  1.
        -11   -1    0    0    0    0 -0.00000000000E+00 -0.00000000000E+00 -0.50000000000E+02  0.50000000000E+02  0.00000000000E+00 0. -1.
         23    2    1    2    0    0  0.00000000000E+00  0.00000000000E+00  0.00000000000E+00  0.10000000000E+03  0.10000000000E+03 0.  0.
          5    1    3    3  501    0  0.12114071031E+02 -0.30015659831E+02 -0.37818242265E+02  0.50000000000E+02  0.47000000000E+01 0. -1.
         -5    1    3    3    0  501 -0.12114071031E+02  0.30015659831E+02  0.37818242265E+02  0.50000000000E+02  0.47000000000E+01 0.  1.
</event>
<event>
 5    1  0.9081766E-001  0.1000000E+03  0.7546771E-02  0.1163815E+00
         11   -1    0    0    0    0  0.00000000000E+00  0.00000000000E+00  0.50000000000E+02  0.50000000000E+02  0.00000000000E+00 0.  1.
        -11   -1    0    0    0    0 -0.00000000000E+00 -0.00000000000E+00 -0.50000000000E+02  0.50000000000E+02  0.00000000000E+00 0. -1.
         23    2    1    2    0    0  0.00000000000E+00  0.00000000000E+00  0.00000000000E+00  0.10000000000E+03  0.10000000000E+03 0.  0.
          5    1    3    3  501    0  0.44285184346E+02  0.34309614693E+01 -0.22471336204E+02  0.50000000000E+02  0.47000000000E+01 0. -1.
         -5    1    3    3    0  501 -0.44285184346E+02 -0.34309614693E+01  0.22471336204E+02  0.50000000000E+02  0.47000000000E+01 0.  1.
</event>
<event>
 5    1  0.9081766E-001  0.1000000E+03  0.7546771E-02  0.1163815E+00
         11   -1    0    0    0    0  0.00000000000E+00  0.00000000000E+00  0.50000000000E+02  0.50000000000E+02  0.00000000000E+00 0.  1.
        -11   -1    0    0    0    0 -0.00000000000E+00 -0.00000000000E+00 -0.50000000000E+02  0.50000000000E+02  0.00000000000E+00 0. -1.
         23    2    1    2    0    0  0.00000000000E+00  0.00000000000E+00  0.00000000000E+00  0.10000000000E+03  0.10000000000E+03 0.  0.
          5    1    3    3  501    0 -0.38639219897E+02  0.19373374290E+02  0.24689938322E+02  0.50000000000E+02  0.47000000000E+01 0. -1.
         -5    1    3    3    0  501  0.38639219897E+02 -0.19373374290E+02 -0.24689938322E+02  0.50000000000E+02  0.47000000000E+01 0.  1.
</event>
<event>
 5    1  0.9081766E-001  0.1000000E+03  0.7546771E-02  0.1163815E+00
         11   -1    0    0    0    0  0.00000000000E+00  0.00000000000E+00  0.50000000000E+02  0.50000000000E+02  0.00000000000E+00 0.  1.
        -11   -1    0    0    0    0 -0.00000000000E+00 -0.00000000000E+00 -0.50000000000E+02  0.50000000000E+02  0.00000000000E+00 0. -1.
         23    2    1    2    0    0  0.00000000000E+00  0.00000000000E+00  0.00000000000E+00  0.10000000000E+03  0.10000000000E+03 0.  0.
          5    1    3    3  501    0 -0.18454840499E+02 -0.27457584788E+02  0.37194218634E+02  0.50000000000E+02  0.47000000000E+01 0.  1.
         -5    1    3    3    0  501  0.18454840499E+02  0.27457584788E+02 -0.37194218634E+02  0.50000000000E+02  0.47000000000E+01 0. -1.
</event>
<event>
 5    1  0.9081766E-001  0.1000000E+03  0.7546771E-02  0.1163815E+00
         11   -1    0    0    0    0  0.00000000000E+00  0.00000000000E+00  0.50000000000E+02  0.50000000000E+02  0.00000000000E+00 0. -1.
        -11   -1    0    0    0    0 -0.00000000000E+00 -0.00000000000E+00 -0.50000000000E+02  0.50000000000E+02  0.00000000000E+00 0.  1.
         23    2    1    2    0    0  0.00000000000E+00  0.00000000000E+00  0.00000000000E+00  0.10000000000E+03  0.10000000000E+03 0.  0.
          5    1    3    3  501    0  0.33365942231E+02 -0.64392015722E+01  0.36375274324E+02  0.50000000000E+02  0.47000000000E+01 0. -1.
         -5    1    3    3    0  501 -0.33365942231E+02  0.64392015722E+01 -0.36375274324E+02  0.50000000000E+02  0.47000000000E+01 0.  1.
</event>
<event>
 5    1  0.9081766E-001  0.1000000E+03  0.7546771E-02  0.1163815E+00
         11   -1    0    0    0    0  0.00000000000E+00  0.00000000000E+00  0.50000000000E+02  0.50000000000E+02  0.00000000000E+00 0. -1.
        -11   -1    0    0    0    0 -0.00000000000E+00 -0.00000000000E+00 -0.50000000000E+02  0.50000000000E+02  0.00000000000E+00 0.  1.
         23    2    1    2    0    0  0.00000000000E+00  0.00000000000E+00  0.00000000000E+00  0.10000000000E+03  0.10000000000E+03 0.  0.
          5    1    3    3  501    0 -0.96567129400E+01 -0.31851777866E+02  0.37015160974E+02  0.50000000000E+02  0.47000000000E+01 0. -1.
         -5    1    3    3    0  501  0.96567129400E+01  0.31851777866E+02 -0.37015160974E+02  0.50000000000E+02  0.47000000000E+01 0.  1.
</event>
<event>
 5    1  0.9081766E-001  0.1000000E+03  0.7546771E-02  0.1163815E+00
         11   -1    0    0    0    0  0.00000000000E+00  0.00000000000E+00  0.50000000000E+02  0.50000000000E+02  0.00000000000E+00 0. -1.
        -11   -1    0    0    0    0 -0.00000000000E+00 -0.00000000000E+00 -0.50000000000E+02  0.50000000000E+02  0.00000000000E+00 0.  1.
         23    2    1    2    0    0  0.00000000000E+00  0.00000000000E+00  0.00000000000E+00  0.10000000000E+03  0.10000000000E+03 0.  0.
          5    1    3    3  501    0  0.21749807199E+02  0.38687495318E+02  0.22541818756E+02  0.50000000000E+02  0.47000000000E+01 0. -1.
         -5    1    3    3    0  501 -0.21749807199E+02 -0.38687495318E+02 -0.22541818756E+02  0.50000000000E+02  0.47000000000E+01 0.  1.
</event>
<event>
 5    1  0.9081766E-001  0.1000000E+03  0.7546771E-02  0.1163815E+00
         11   -1    0    0    0    0  0.00000000000E+00  0.00000000000E+00  0.50000000000E+02  0.50000000000E+02  0.00000000000E+00 0. -1.
        -11   -1    0    0    0    0 -0.00000000000E+00 -0.00000000000E+00 -0.50000000000E+02  0.50000000000E+02  0.00000000000E+00 0.  1.
         23    2    1    2    0    0  0.00000000000E+00  0.00000000000E+00  0.00000000000E+00  0.10000000000E+03  0.10000000000E+03 0.  0.
          5    1    3    3  501    0 -0.37907145069E+02 -0.81758186168E+01  0.31210804902E+02  0.50000000000E+02  0.47000000000E+01 0. -1.
         -5    1    3    3    0  501  0.37907145069E+02  0.81758186168E+01 -0.31210804902E+02  0.50000000000E+02  0.47000000000E+01 0.  1.
</event>
<event>
 5    1  0.9081766E-001  0.1000000E+03  0.7546771E-02  0.1163815E+00
         11   -1    0    0    0    0  0.00000000000E+00  0.00000000000E+00  0.50000000000E+02  0.50000000000E+02  0.00000000000E+00 0.  1.
        -11   -1    0    0    0    0 -0.00000000000E+00 -0.00000000000E+00 -0.50000000000E+02  0.50000000000E+02  0.00000000000E+00 0. -1.
         23    2    1    2    0    0  0.00000000000E+00  0.00000000000E+00  0.00000000000E+00  0.10000000000E+03  0.10000000000E+03 0.  0.
          5    1    3    3  501    0 -0.14613200940E+02 -0.28986949713E+02 -0.37737529128E+02  0.50000000000E+02  0.47000000000E+01 0. -1.
         -5    1    3    3    0  501  0.14613200940E+02  0.28986949713E+02  0.37737529128E+02  0.50000000000E+02  0.47000000000E+01 0.  1.
</event>
<event>
 5    1  0.9081766E-001  0.1000000E+03  0.7546771E-02  0.1163815E+00
         11   -1    0    0    0    0  0.00000000000E+00  0.00000000000E+00  0.50000000000E+02  0.50000000000E+02  0.00000000000E+00 0. -1.
        -11   -1    0    0    0    0 -0.00000000000E+00 -0.00000000000E+00 -0.50000000000E+02  0.50000000000E+02  0.00000000000E+00 0.  1.
         23    2    1    2    0    0  0.00000000000E+00  0.00000000000E+00  0.00000000000E+00  0.10000000000E+03  0.10000000000E+03 0.  0.
          5    1    3    3  501    0 -0.77264188014E+01  0.37521425433E+02  0.31786083213E+02  0.50000000000E+02  0.47000000000E+01 0. -1.
         -5    1    3    3    0  501  0.77264188014E+01 -0.37521425433E+02 -0.31786083213E+02  0.50000000000E+02  0.47000000000E+01 0.  1.
</event>
<event>
 5    1  0.9081766E-001  0.1000000E+03  0.7546771E-02  0.1163815E+00
         11   -1    0    0    0    0  0.00000000000E+00  0.00000000000E+00  0.50000000000E+02  0.50000000000E+02  0.00000000000E+00 0. -1.
        -11   -1    0    0    0    0 -0.00000000000E+00 -0.00000000000E+00 -0.50000000000E+02  0.50000000000E+02  0.00000000000E+00 0.  1.
         23    2    1    2    0    0  0.00000000000E+00  0.00000000000E+00  0.00000000000E+00  0.10000000000E+03  0.10000000000E+03 0.  0.
          5    1    3    3  501    0  0.43345128368E+02 -0.24474183923E+02  0.35237496440E+00  0.50000000000E+02  0.47000000000E+01 0. -1.
         -5    1    3    3    0  501 -0.43345128368E+02  0.24474183923E+02 -0.35237496440E+00  0.50000000000E+02  0.47000000000E+01 0.  1.
</event>
<event>
 5    1  0.9081766E-001  0.1000000E+03  0.7546771E-02  0.1163815E+00
         11   -1    0    0    0    0  0.00000000000E+00  0.00000000000E+00  0.50000000000E+02  0.50000000000E+02  0.00000000000E+00 0.  1.
        -11   -1    0    0    0    0 -0.00000000000E+00 -0.00000000000E+00 -0.50000000000E+02  0.50000000000E+02  0.00000000000E+00 0. -1.
         23    2    1    2    0    0  0.00000000000E+00  0.00000000000E+00  0.00000000000E+00  0.10000000000E+03  0.10000000000E+03 0.  0.
          5    1    3    3  501    0  0.20792579492E+02 -0.32651073314E+02 -0.31296741835E+02  0.50000000000E+02  0.47000000000E+01 0. -1.
         -5    1    3    3    0  501 -0.20792579492E+02  0.32651073314E+02  0.31296741835E+02  0.50000000000E+02  0.47000000000E+01 0.  1.
</event>
<event>
 5    1  0.9081766E-001  0.1000000E+03  0.7546771E-02  0.1163815E+00
         11   -1    0    0    0    0  0.00000000000E+00  0.00000000000E+00  0.50000000000E+02  0.50000000000E+02  0.00000000000E+00 0. -1.
        -11   -1    0    0    0    0 -0.00000000000E+00 -0.00000000000E+00 -0.50000000000E+02  0.50000000000E+02  0.00000000000E+00 0.  1.
         23    2    1    2    0    0  0.00000000000E+00  0.00000000000E+00  0.00000000000E+00  0.10000000000E+03  0.10000000000E+03 0.  0.
          5    1    3    3  501    0  0.14297377655E+02  0.24752863696E+00  0.47680538187E+02  0.50000000000E+02  0.47000000000E+01 0. -1.
         -5    1    3    3    0  501 -0.14297377655E+02 -0.24752863696E+00 -0.47680538187E+02  0.50000000000E+02  0.47000000000E+01 0.  1.
</event>
<event>
 5    1  0.9081766E-001  0.1000000E+03  0.7546771E-02  0.1163815E+00
         11   -1    0    0    0    0  0.00000000000E+00  0.00000000000E+00  0.50000000000E+02  0.50000000000E+02  0.00000000000E+00 0. -1.
        -11   -1    0    0    0    0 -0.00000000000E+00 -0.00000000000E+00 -0.50000000000E+02  0.50000000000E+02  0.00000000000E+00 0.  1.
         23    2    1    2    0    0  0.00000000000E+00  0.00000000000E+00  0.00000000000E+00  0.10000000000E+03  0.10000000000E+03 0.  0.
          5    1    3    3  501    0  0.41602709942E+02  0.23705971522E+02 -0.13607036405E+02  0.50000000000E+02  0.47000000000E+01 0. -1.
         -5    1    3    3    0  501 -0.41602709942E+02 -0.23705971522E+02  0.13607036405E+02  0.50000000000E+02  0.47000000000E+01 0.  1.
</event>
<event>
 5    1  0.9081766E-001  0.1000000E+03  0.7546771E-02  0.1163815E+00
         11   -1    0    0    0    0  0.00000000000E+00  0.00000000000E+00  0.50000000000E+02  0.50000000000E+02  0.00000000000E+00 0. -1.
        -11   -1    0    0    0    0 -0.00000000000E+00 -0.00000000000E+00 -0.50000000000E+02  0.50000000000E+02  0.00000000000E+00 0.  1.
         23    2    1    2    0    0  0.00000000000E+00  0.00000000000E+00  0.00000000000E+00  0.10000000000E+03  0.10000000000E+03 0.  0.
          5    1    3    3  501    0 -0.28824994368E+01  0.71959790355E+00  0.49689871965E+02  0.50000000000E+02  0.47000000000E+01 0. -1.
         -5    1    3    3    0  501  0.28824994368E+01 -0.71959790355E+00 -0.49689871965E+02  0.50000000000E+02  0.47000000000E+01 0.  1.
</event>
<event>
 5    1  0.9081766E-001  0.1000000E+03  0.7546771E-02  0.1163815E+00
         11   -1    0    0    0    0  0.00000000000E+00  0.00000000000E+00  0.50000000000E+02  0.50000000000E+02  0.00000000000E+00 0. -1.
        -11   -1    0    0    0    0 -0.00000000000E+00 -0.00000000000E+00 -0.50000000000E+02  0.50000000000E+02  0.00000000000E+00 0.  1.
         23    2    1    2    0    0  0.00000000000E+00  0.00000000000E+00  0.00000000000E+00  0.10000000000E+03  0.10000000000E+03 0.  0.
          5    1    3    3  501    0 -0.11312853387E+02 -0.32112167804E+02  0.36314432767E+02  0.50000000000E+02  0.47000000000E+01 0. -1.
         -5    1    3    3    0  501  0.11312853387E+02  0.32112167804E+02 -0.36314432767E+02  0.50000000000E+02  0.47000000000E+01 0.  1.
</event>
<event>
 5    1  0.9081766E-001  0.1000000E+03  0.7546771E-02  0.1163815E+00
         11   -1    0    0    0    0  0.00000000000E+00  0.00000000000E+00  0.50000000000E+02  0.50000000000E+02  0.00000000000E+00 0.  1.
        -11   -1    0    0    0    0 -0.00000000000E+00 -0.00000000000E+00 -0.50000000000E+02  0.50000000000E+02  0.00000000000E+00 0. -1.
         23    2    1    2    0    0  0.00000000000E+00  0.00000000000E+00  0.00000000000E+00  0.10000000000E+03  0.10000000000E+03 0.  0.
          5    1    3    3  501    0 -0.19371882794E+02 -0.45372717688E+02 -0.66299808935E+01  0.50000000000E+02  0.47000000000E+01 0. -1.
         -5    1    3    3    0  501  0.19371882794E+02  0.45372717688E+02  0.66299808935E+01  0.50000000000E+02  0.47000000000E+01 0.  1.
</event>
<event>
 5    1  0.9081766E-001  0.1000000E+03  0.7546771E-02  0.1163815E+00
         11   -1    0    0    0    0  0.00000000000E+00  0.00000000000E+00  0.50000000000E+02  0.50000000000E+02  0.00000000000E+00 0. -1.
        -11   -1    0    0    0    0 -0.00000000000E+00 -0.00000000000E+00 -0.50000000000E+02  0.50000000000E+02  0.00000000000E+00 0.  1.
         23    2    1    2    0    0  0.00000000000E+00  0.00000000000E+00  0.00000000000E+00  0.10000000000E+03  0.10000000000E+03 0.  0.
          5    1    3    3  501    0  0.43879135499E+02 -0.22601952644E+02 -0.64562531344E+01  0.50000000000E+02  0.47000000000E+01 0. -1.
         -5    1    3    3    0  501 -0.43879135499E+02  0.22601952644E+02  0.64562531344E+01  0.50000000000E+02  0.47000000000E+01 0.  1.
</event>
<event>
 5    1  0.9081766E-001  0.1000000E+03  0.7546771E-02  0.1163815E+00
         11   -1    0    0    0    0  0.00000000000E+00  0.00000000000E+00  0.50000000000E+02  0.50000000000E+02  0.00000000000E+00 0. -1.
        -11   -1    0    0    0    0 -0.00000000000E+00 -0.00000000000E+00 -0.50000000000E+02  0.50000000000E+02  0.00000000000E+00 0.  1.
         23    2    1    2    0    0  0.00000000000E+00  0.00000000000E+00  0.00000000000E+00  0.10000000000E+03  0.10000000000E+03 0.  0.
          5    1    3    3  501    0 -0.23524392367E+02  0.21234352841E+02  0.38387696248E+02  0.50000000000E+02  0.47000000000E+01 0. -1.
         -5    1    3    3    0  501  0.23524392367E+02 -0.21234352841E+02 -0.38387696248E+02  0.50000000000E+02  0.47000000000E+01 0.  1.
</event>
<event>
 5    1  0.9081766E-001  0.1000000E+03  0.7546771E-02  0.1163815E+00
         11   -1    0    0    0    0  0.00000000000E+00  0.00000000000E+00  0.50000000000E+02  0.50000000000E+02  0.00000000000E+00 0.  1.
        -11   -1    0    0    0    0 -0.00000000000E+00 -0.00000000000E+00 -0.50000000000E+02  0.50000000000E+02  0.00000000000E+00 0. -1.
         23    2    1    2    0    0  0.00000000000E+00  0.00000000000E+00  0.00000000000E+00  0.10000000000E+03  0.10000000000E+03 0.  0.
          5    1    3    3  501    0 -0.18429089458E+02 -0.44484537099E+02 -0.12625554280E+02  0.50000000000E+02  0.47000000000E+01 0. -1.
         -5    1    3    3    0  501  0.18429089458E+02  0.44484537099E+02  0.12625554280E+02  0.50000000000E+02  0.47000000000E+01 0.  1.
</event>
<event>
 5    1  0.9081766E-001  0.1000000E+03  0.7546771E-02  0.1163815E+00
         11   -1    0    0    0    0  0.00000000000E+00  0.00000000000E+00  0.50000000000E+02  0.50000000000E+02  0.00000000000E+00 0.  1.
        -11   -1    0    0    0    0 -0.00000000000E+00 -0.00000000000E+00 -0.50000000000E+02  0.50000000000E+02  0.00000000000E+00 0. -1.
         23    2    1    2    0    0  0.00000000000E+00  0.00000000000E+00  0.00000000000E+00  0.10000000000E+03  0.10000000000E+03 0.  0.
          5    1    3    3  501    0  0.35494730954E+02 -0.31175622238E+02  0.15688041708E+02  0.50000000000E+02  0.47000000000E+01 0. -1.
         -5    1    3    3    0  501 -0.35494730954E+02  0.31175622238E+02 -0.15688041708E+02  0.50000000000E+02  0.47000000000E+01 0.  1.
</event>
<event>
 5    1  0.9081766E-001  0.1000000E+03  0.7546771E-02  0.1163815E+00
         11   -1    0    0    0    0  0.00000000000E+00  0.00000000000E+00  0.50000000000E+02  0.50000000000E+02  0.00000000000E+00 0. -1.
        -11   -1    0    0    0    0 -0.00000000000E+00 -0.00000000000E+00 -0.50000000000E+02  0.50000000000E+02  0.00000000000E+00 0.  1.
         23    2    1    2    0    0  0.00000000000E+00  0.00000000000E+00  0.00000000000E+00  0.10000000000E+03  0.10000000000E+03 0.  0.
          5    1    3    3  501    0  0.36484759789E+02  0.25024744032E+02  0.22815224945E+02  0.50000000000E+02  0.47000000000E+01 0. -1.
         -5    1    3    3    0  501 -0.36484759789E+02 -0.25024744032E+02 -0.22815224945E+02  0.50000000000E+02  0.47000000000E+01 0.  1.
</event>
<event>
 5    1  0.9081766E-001  0.1000000E+03  0.7546771E-02  0.1163815E+00
         11   -1    0    0    0    0  0.00000000000E+00  0.00000000000E+00  0.50000000000E+02  0.50000000000E+02  0.00000000000E+00 0. -1.
        -11   -1    0    0    0    0 -0.00000000000E+00 -0.00000000000E+00 -0.50000000000E+02  0.50000000000E+02  0.00000000000E+00 0.  1.
         23    2    1    2    0    0  0.00000000000E+00  0.00000000000E+00  0.00000000000E+00  0.10000000000E+03  0.10000000000E+03 0.  0.
          5    1    3    3  501    0 -0.27966336316E+02  0.38378311412E+02  0.14929810654E+02  0.50000000000E+02  0.47000000000E+01 0. -1.
         -5    1    3    3    0  501  0.27966336316E+02 -0.38378311412E+02 -0.14929810654E+02  0.50000000000E+02  0.47000000000E+01 0.  1.
</event>
<event>
 5    1  0.9081766E-001  0.1000000E+03  0.7546771E-02  0.1163815E+00
         11   -1    0    0    0    0  0.00000000000E+00  0.00000000000E+00  0.50000000000E+02  0.50000000000E+02  0.00000000000E+00 0. -1.
        -11   -1    0    0    0    0 -0.00000000000E+00 -0.00000000000E+00 -0.50000000000E+02  0.50000000000E+02  0.00000000000E+00 0.  1.
         23    2    1    2    0    0  0.00000000000E+00  0.00000000000E+00  0.00000000000E+00  0.10000000000E+03  0.10000000000E+03 0.  0.
          5    1    3    3  501    0  0.33944835107E+02  0.18012968373E+02  0.31641604574E+02  0.50000000000E+02  0.47000000000E+01 0. -1.
         -5    1    3    3    0  501 -0.33944835107E+02 -0.18012968373E+02 -0.31641604574E+02  0.50000000000E+02  0.47000000000E+01 0.  1.
</event>
<event>
 5    1  0.9081766E-001  0.1000000E+03  0.7546771E-02  0.1163815E+00
         11   -1    0    0    0    0  0.00000000000E+00  0.00000000000E+00  0.50000000000E+02  0.50000000000E+02  0.00000000000E+00 0.  1.
        -11   -1    0    0    0    0 -0.00000000000E+00 -0.00000000000E+00 -0.50000000000E+02  0.50000000000E+02  0.00000000000E+00 0. -1.
         23    2    1    2    0    0  0.00000000000E+00  0.00000000000E+00  0.00000000000E+00  0.10000000000E+03  0.10000000000E+03 0.  0.
          5    1    3    3  501    0 -0.22479932710E+02  0.13223629768E+02 -0.42399271705E+02  0.50000000000E+02  0.47000000000E+01 0. -1.
         -5    1    3    3    0  501  0.22479932710E+02 -0.13223629768E+02  0.42399271705E+02  0.50000000000E+02  0.47000000000E+01 0.  1.
</event>
<event>
 5    1  0.9081766E-001  0.1000000E+03  0.7546771E-02  0.1163815E+00
         11   -1    0    0    0    0  0.00000000000E+00  0.00000000000E+00  0.50000000000E+02  0.50000000000E+02  0.00000000000E+00 0. -1.
        -11   -1    0    0    0    0 -0.00000000000E+00 -0.00000000000E+00 -0.50000000000E+02  0.50000000000E+02  0.00000000000E+00 0.  1.
         23    2    1    2    0    0  0.00000000000E+00  0.00000000000E+00  0.00000000000E+00  0.10000000000E+03  0.10000000000E+03 0.  0.
          5    1    3    3  501    0  0.21170107099E+02  0.12356600949E+02  0.43324946375E+02  0.50000000000E+02  0.47000000000E+01 0. -1.
         -5    1    3    3    0  501 -0.21170107099E+02 -0.12356600949E+02 -0.43324946375E+02  0.50000000000E+02  0.47000000000E+01 0.  1.
</event>
<event>
 5    1  0.9081766E-001  0.1000000E+03  0.7546771E-02  0.1163815E+00
         11   -1    0    0    0    0  0.00000000000E+00  0.00000000000E+00  0.50000000000E+02  0.50000000000E+02  0.00000000000E+00 0.  1.
        -11   -1    0    0    0    0 -0.00000000000E+00 -0.00000000000E+00 -0.50000000000E+02  0.50000000000E+02  0.00000000000E+00 0. -1.
         23    2    1    2    0    0  0.00000000000E+00  0.00000000000E+00  0.00000000000E+00  0.10000000000E+03  0.10000000000E+03 0.  0.
          5    1    3    3  501    0  0.26077328953E+02 -0.28503257851E+02  0.31391833438E+02  0.50000000000E+02  0.47000000000E+01 0.  1.
         -5    1    3    3    0  501 -0.26077328953E+02  0.28503257851E+02 -0.31391833438E+02  0.50000000000E+02  0.47000000000E+01 0. -1.
</event>
<event>
 5    1  0.9081766E-001  0.1000000E+03  0.7546771E-02  0.1163815E+00
         11   -1    0    0    0    0  0.00000000000E+00  0.00000000000E+00  0.50000000000E+02  0.50000000000E+02  0.00000000000E+00 0. -1.
        -11   -1    0    0    0    0 -0.00000000000E+00 -0.00000000000E+00 -0.50000000000E+02  0.50000000000E+02  0.00000000000E+00 0.  1.
         23    2    1    2    0    0  0.00000000000E+00  0.00000000000E+00  0.00000000000E+00  0.10000000000E+03  0.10000000000E+03 0.  0.
          5    1    3    3  501    0  0.40755707611E+02  0.28351407233E+02 -0.36166289569E+01  0.50000000000E+02  0.47000000000E+01 0. -1.
         -5    1    3    3    0  501 -0.40755707611E+02 -0.28351407233E+02  0.36166289569E+01  0.50000000000E+02  0.47000000000E+01 0.  1.
</event>
<event>
 5    1  0.9081766E-001  0.1000000E+03  0.7546771E-02  0.1163815E+00
         11   -1    0    0    0    0  0.00000000000E+00  0.00000000000E+00  0.50000000000E+02  0.50000000000E+02  0.00000000000E+00 0.  1.
        -11   -1    0    0    0    0 -0.00000000000E+00 -0.00000000000E+00 -0.50000000000E+02  0.50000000000E+02  0.00000000000E+00 0. -1.
         23    2    1    2    0    0  0.00000000000E+00  0.00000000000E+00  0.00000000000E+00  0.10000000000E+03  0.10000000000E+03 0.  0.
          5    1    3    3  501    0 -0.29662100281E+02 -0.84706027111E+01 -0.39068128912E+02  0.50000000000E+02  0.47000000000E+01 0. -1.
         -5    1    3    3    0  501  0.29662100281E+02  0.84706027111E+01  0.39068128912E+02  0.50000000000E+02  0.47000000000E+01 0.  1.
</event>
<event>
 5    1  0.9081766E-001  0.1000000E+03  0.7546771E-02  0.1163815E+00
         11   -1    0    0    0    0  0.00000000000E+00  0.00000000000E+00  0.50000000000E+02  0.50000000000E+02  0.00000000000E+00 0. -1.
        -11   -1    0    0    0    0 -0.00000000000E+00 -0.00000000000E+00 -0.50000000000E+02  0.50000000000E+02  0.00000000000E+00 0.  1.
         23    2    1    2    0    0  0.00000000000E+00  0.00000000000E+00  0.00000000000E+00  0.10000000000E+03  0.10000000000E+03 0.  0.
          5    1    3    3  501    0  0.60019640083E+01 -0.39008149965E+02  0.30335633574E+02  0.50000000000E+02  0.47000000000E+01 0. -1.
         -5    1    3    3    0  501 -0.60019640083E+01  0.39008149965E+02 -0.30335633574E+02  0.50000000000E+02  0.47000000000E+01 0.  1.
</event>
<event>
 5    1  0.9081766E-001  0.1000000E+03  0.7546771E-02  0.1163815E+00
         11   -1    0    0    0    0  0.00000000000E+00  0.00000000000E+00  0.50000000000E+02  0.50000000000E+02  0.00000000000E+00 0. -1.
        -11   -1    0    0    0    0 -0.00000000000E+00 -0.00000000000E+00 -0.50000000000E+02  0.50000000000E+02  0.00000000000E+00 0.  1.
         23    2    1    2    0    0  0.00000000000E+00  0.00000000000E+00  0.00000000000E+00  0.10000000000E+03  0.10000000000E+03 0.  0.
          5    1    3    3  501    0 -0.10223831281E+02 -0.40773477483E+02  0.26662835707E+02  0.50000000000E+02  0.47000000000E+01 0. -1.
         -5    1    3    3    0  501  0.10223831281E+02  0.40773477483E+02 -0.26662835707E+02  0.50000000000E+02  0.47000000000E+01 0.  1.
</event>
<event>
 5    1  0.9081766E-001  0.1000000E+03  0.7546771E-02  0.1163815E+00
         11   -1    0    0    0    0  0.00000000000E+00  0.00000000000E+00  0.50000000000E+02  0.50000000000E+02  0.00000000000E+00 0. -1.
        -11   -1    0    0    0    0 -0.00000000000E+00 -0.00000000000E+00 -0.50000000000E+02  0.50000000000E+02  0.00000000000E+00 0.  1.
         23    2    1    2    0    0  0.00000000000E+00  0.00000000000E+00  0.00000000000E+00  0.10000000000E+03  0.10000000000E+03 0.  0.
          5    1    3    3  501    0  0.38836082497E+02  0.25142996658E+02 -0.18371129942E+02  0.50000000000E+02  0.47000000000E+01 0. -1.
         -5    1    3    3    0  501 -0.38836082497E+02 -0.25142996658E+02  0.18371129942E+02  0.50000000000E+02  0.47000000000E+01 0.  1.
</event>
<event>
 5    1  0.9081766E-001  0.1000000E+03  0.7546771E-02  0.1163815E+00
         11   -1    0    0    0    0  0.00000000000E+00  0.00000000000E+00  0.50000000000E+02  0.50000000000E+02  0.00000000000E+00 0. -1.
        -11   -1    0    0    0    0 -0.00000000000E+00 -0.00000000000E+00 -0.50000000000E+02  0.50000000000E+02  0.00000000000E+00 0.  1.
         23    2    1    2    0    0  0.00000000000E+00  0.00000000000E+00  0.00000000000E+00  0.10000000000E+03  0.10000000000E+03 0.  0.
          5    1    3    3  501    0 -0.97421089960E+01  0.38399846914E+02  0.30140555226E+02  0.50000000000E+02  0.47000000000E+01 0. -1.
         -5    1    3    3    0  501  0.97421089960E+01 -0.38399846914E+02 -0.30140555226E+02  0.50000000000E+02  0.47000000000E+01 0.  1.
</event>
<event>
 5    1  0.9081766E-001  0.1000000E+03  0.7546771E-02  0.1163815E+00
         11   -1    0    0    0    0  0.00000000000E+00  0.00000000000E+00  0.50000000000E+02  0.50000000000E+02  0.00000000000E+00 0. -1.
        -11   -1    0    0    0    0 -0.00000000000E+00 -0.00000000000E+00 -0.50000000000E+02  0.50000000000E+02  0.00000000000E+00 0.  1.
         23    2    1    2    0    0  0.00000000000E+00  0.00000000000E+00  0.00000000000E+00  0.10000000000E+03  0.10000000000E+03 0.  0.
          5    1    3    3  501    0  0.63012754363E+00  0.49690274198E+02 -0.28964787866E+01  0.50000000000E+02  0.47000000000E+01 0. -1.
         -5    1    3    3    0  501 -0.63012754363E+00 -0.49690274198E+02  0.28964787866E+01  0.50000000000E+02  0.47000000000E+01 0.  1.
</event>
<event>
 5    1  0.9081766E-001  0.1000000E+03  0.7546771E-02  0.1163815E+00
         11   -1    0    0    0    0  0.00000000000E+00  0.00000000000E+00  0.50000000000E+02  0.50000000000E+02  0.00000000000E+00 0. -1.
        -11   -1    0    0    0    0 -0.00000000000E+00 -0.00000000000E+00 -0.50000000000E+02  0.50000000000E+02  0.00000000000E+00 0.  1.
         23    2    1    2    0    0  0.00000000000E+00  0.00000000000E+00  0.00000000000E+00  0.10000000000E+03  0.10000000000E+03 0.  0.
          5    1    3    3  501    0  0.46795145478E+02  0.12758920983E+01  0.16926206279E+02  0.50000000000E+02  0.47000000000E+01 0. -1.
         -5    1    3    3    0  501 -0.46795145478E+02 -0.12758920983E+01 -0.16926206279E+02  0.50000000000E+02  0.47000000000E+01 0.  1.
</event>
<event>
 5    1  0.9081766E-001  0.1000000E+03  0.7546771E-02  0.1163815E+00
         11   -1    0    0    0    0  0.00000000000E+00  0.00000000000E+00  0.50000000000E+02  0.50000000000E+02  0.00000000000E+00 0. -1.
        -11   -1    0    0    0    0 -0.00000000000E+00 -0.00000000000E+00 -0.50000000000E+02  0.50000000000E+02  0.00000000000E+00 0.  1.
         23    2    1    2    0    0  0.00000000000E+00  0.00000000000E+00  0.00000000000E+00  0.10000000000E+03  0.10000000000E+03 0.  0.
          5    1    3    3  501    0 -0.25551940867E+02 -0.98657636514E+01  0.41565310362E+02  0.50000000000E+02  0.47000000000E+01 0. -1.
         -5    1    3    3    0  501  0.25551940867E+02  0.98657636514E+01 -0.41565310362E+02  0.50000000000E+02  0.47000000000E+01 0.  1.
</event>
<event>
 5    1  0.9081766E-001  0.1000000E+03  0.7546771E-02  0.1163815E+00
         11   -1    0    0    0    0  0.00000000000E+00  0.00000000000E+00  0.50000000000E+02  0.50000000000E+02  0.00000000000E+00 0.  1.
        -11   -1    0    0    0    0 -0.00000000000E+00 -0.00000000000E+00 -0.50000000000E+02  0.50000000000E+02  0.00000000000E+00 0. -1.
         23    2    1    2    0    0  0.00000000000E+00  0.00000000000E+00  0.00000000000E+00  0.10000000000E+03  0.10000000000E+03 0.  0.
          5    1    3    3  501    0  0.30216038278E+02 -0.15248865015E+01 -0.39529428935E+02  0.50000000000E+02  0.47000000000E+01 0. -1.
         -5    1    3    3    0  501 -0.30216038278E+02  0.15248865015E+01  0.39529428935E+02  0.50000000000E+02  0.47000000000E+01 0.  1.
</event>
<event>
 5    1  0.9081766E-001  0.1000000E+03  0.7546771E-02  0.1163815E+00
         11   -1    0    0    0    0  0.00000000000E+00  0.00000000000E+00  0.50000000000E+02  0.50000000000E+02  0.00000000000E+00 0. -1.
        -11   -1    0    0    0    0 -0.00000000000E+00 -0.00000000000E+00 -0.50000000000E+02  0.50000000000E+02  0.00000000000E+00 0.  1.
         23    2    1    2    0    0  0.00000000000E+00  0.00000000000E+00  0.00000000000E+00  0.10000000000E+03  0.10000000000E+03 0.  0.
          5    1    3    3  501    0 -0.48447082790E+02  0.89798095926E+01  0.70818916126E+01  0.50000000000E+02  0.47000000000E+01 0. -1.
         -5    1    3    3    0  501  0.48447082790E+02 -0.89798095926E+01 -0.70818916126E+01  0.50000000000E+02  0.47000000000E+01 0.  1.
</event>
<event>
 5    1  0.9081766E-001  0.1000000E+03  0.7546771E-02  0.1163815E+00
         11   -1    0    0    0    0  0.00000000000E+00  0.00000000000E+00  0.50000000000E+02  0.50000000000E+02  0.00000000000E+00 0. -1.
        -11   -1    0    0    0    0 -0.00000000000E+00 -0.00000000000E+00 -0.50000000000E+02  0.50000000000E+02  0.00000000000E+00 0.  1.
         23    2    1    2    0    0  0.00000000000E+00  0.00000000000E+00  0.00000000000E+00  0.10000000000E+03  0.10000000000E+03 0.  0.
          5    1    3    3  501    0  0.34722649496E+02 -0.16553980424E+02  0.31594514463E+02  0.50000000000E+02  0.47000000000E+01 0. -1.
         -5    1    3    3    0  501 -0.34722649496E+02  0.16553980424E+02 -0.31594514463E+02  0.50000000000E+02  0.47000000000E+01 0.  1.
</event>
<event>
 5    1  0.9081766E-001  0.1000000E+03  0.7546771E-02  0.1163815E+00
         11   -1    0    0    0    0  0.00000000000E+00  0.00000000000E+00  0.50000000000E+02  0.50000000000E+02  0.00000000000E+00 0. -1.
        -11   -1    0    0    0    0 -0.00000000000E+00 -0.00000000000E+00 -0.50000000000E+02  0.50000000000E+02  0.00000000000E+00 0.  1.
         23    2    1    2    0    0  0.00000000000E+00  0.00000000000E+00  0.00000000000E+00  0.10000000000E+03  0.10000000000E+03 0.  0.
          5    1    3    3  501    0  0.49398580024E+02  0.18939577328E+01  0.58397958623E+01  0.50000000000E+02  0.47000000000E+01 0. -1.
         -5    1    3    3    0  501 -0.49398580024E+02 -0.18939577328E+01 -0.58397958623E+01  0.50000000000E+02  0.47000000000E+01 0.  1.
</event>
<event>
 5    1  0.9081766E-001  0.1000000E+03  0.7546771E-02  0.1163815E+00
         11   -1    0    0    0    0  0.00000000000E+00  0.00000000000E+00  0.50000000000E+02  0.50000000000E+02  0.00000000000E+00 0. -1.
        -11   -1    0    0    0    0 -0.00000000000E+00 -0.00000000000E+00 -0.50000000000E+02  0.50000000000E+02  0.00000000000E+00 0.  1.
         23    2    1    2    0    0  0.00000000000E+00  0.00000000000E+00  0.00000000000E+00  0.10000000000E+03  0.10000000000E+03 0.  0.
          5    1    3    3  501    0 -0.43111286481E+02  0.53125896441E+01  0.24312617491E+02  0.50000000000E+02  0.47000000000E+01 0. -1.
         -5    1    3    3    0  501  0.43111286481E+02 -0.53125896441E+01 -0.24312617491E+02  0.50000000000E+02  0.47000000000E+01 0.  1.
</event>
<event>
 5    1  0.9081766E-001  0.1000000E+03  0.7546771E-02  0.1163815E+00
         11   -1    0    0    0    0  0.00000000000E+00  0.00000000000E+00  0.50000000000E+02  0.50000000000E+02  0.00000000000E+00 0. -1.
        -11   -1    0    0    0    0 -0.00000000000E+00 -0.00000000000E+00 -0.50000000000E+02  0.50000000000E+02  0.00000000000E+00 0.  1.
         23    2    1    2    0    0  0.00000000000E+00  0.00000000000E+00  0.00000000000E+00  0.10000000000E+03  0.10000000000E+03 0.  0.
          5    1    3    3  501    0 -0.42831346557E+02  0.15139615979E+02  0.20351358189E+02  0.50000000000E+02  0.47000000000E+01 0. -1.
         -5    1    3    3    0  501  0.42831346557E+02 -0.15139615979E+02 -0.20351358189E+02  0.50000000000E+02  0.47000000000E+01 0.  1.
</event>
<event>
 5    1  0.9081766E-001  0.1000000E+03  0.7546771E-02  0.1163815E+00
         11   -1    0    0    0    0  0.00000000000E+00  0.00000000000E+00  0.50000000000E+02  0.50000000000E+02  0.00000000000E+00 0. -1.
        -11   -1    0    0    0    0 -0.00000000000E+00 -0.00000000000E+00 -0.50000000000E+02  0.50000000000E+02  0.00000000000E+00 0.  1.
         23    2    1    2    0    0  0.00000000000E+00  0.00000000000E+00  0.00000000000E+00  0.10000000000E+03  0.10000000000E+03 0.  0.
          5    1    3    3  501    0 -0.11495373458E+02 -0.44524601073E+02  0.19061119809E+02  0.50000000000E+02  0.47000000000E+01 0. -1.
         -5    1    3    3    0  501  0.11495373458E+02  0.44524601073E+02 -0.19061119809E+02  0.50000000000E+02  0.47000000000E+01 0.  1.
</event>
<event>
 5    1  0.9081766E-001  0.1000000E+03  0.7546771E-02  0.1163815E+00
         11   -1    0    0    0    0  0.00000000000E+00  0.00000000000E+00  0.50000000000E+02  0.50000000000E+02  0.00000000000E+00 0.  1.
        -11   -1    0    0    0    0 -0.00000000000E+00 -0.00000000000E+00 -0.50000000000E+02  0.50000000000E+02  0.00000000000E+00 0. -1.
         23    2    1    2    0    0  0.00000000000E+00  0.00000000000E+00  0.00000000000E+00  0.10000000000E+03  0.10000000000E+03 0.  0.
          5    1    3    3  501    0 -0.46326731547E+02  0.17669688546E+02 -0.44188291292E+01  0.50000000000E+02  0.47000000000E+01 0. -1.
         -5    1    3    3    0  501  0.46326731547E+02 -0.17669688546E+02  0.44188291292E+01  0.50000000000E+02  0.47000000000E+01 0.  1.
</event>
<event>
 5    1  0.9081766E-001  0.1000000E+03  0.7546771E-02  0.1163815E+00
         11   -1    0    0    0    0  0.00000000000E+00  0.00000000000E+00  0.50000000000E+02  0.50000000000E+02  0.00000000000E+00 0. -1.
        -11   -1    0    0    0    0 -0.00000000000E+00 -0.00000000000E+00 -0.50000000000E+02  0.50000000000E+02  0.00000000000E+00 0.  1.
         23    2    1    2    0    0  0.00000000000E+00  0.00000000000E+00  0.00000000000E+00  0.10000000000E+03  0.10000000000E+03 0.  0.
          5    1    3    3  501    0  0.10880485665E+02  0.30842020760E+02  0.37527253925E+02  0.50000000000E+02  0.47000000000E+01 0. -1.
         -5    1    3    3    0  501 -0.10880485665E+02 -0.30842020760E+02 -0.37527253925E+02  0.50000000000E+02  0.47000000000E+01 0.  1.
</event>
<event>
 5    1  0.9081766E-001  0.1000000E+03  0.7546771E-02  0.1163815E+00
         11   -1    0    0    0    0  0.00000000000E+00  0.00000000000E+00  0.50000000000E+02  0.50000000000E+02  0.00000000000E+00 0. -1.
        -11   -1    0    0    0    0 -0.00000000000E+00 -0.00000000000E+00 -0.50000000000E+02  0.50000000000E+02  0.00000000000E+00 0.  1.
         23    2    1    2    0    0  0.00000000000E+00  0.00000000000E+00  0.00000000000E+00  0.10000000000E+03  0.10000000000E+03 0.  0.
          5    1    3    3  501    0 -0.50563028507E+00  0.49629241135E+02  0.38200474312E+01  0.50000000000E+02  0.47000000000E+01 0. -1.
         -5    1    3    3    0  501  0.50563028507E+00 -0.49629241135E+02 -0.38200474312E+01  0.50000000000E+02  0.47000000000E+01 0.  1.
</event>
<event>
 5    1  0.9081766E-001  0.1000000E+03  0.7546771E-02  0.1163815E+00
         11   -1    0    0    0    0  0.00000000000E+00  0.00000000000E+00  0.50000000000E+02  0.50000000000E+02  0.00000000000E+00 0.  1.
        -11   -1    0    0    0    0 -0.00000000000E+00 -0.00000000000E+00 -0.50000000000E+02  0.50000000000E+02  0.00000000000E+00 0. -1.
         23    2    1    2    0    0  0.00000000000E+00  0.00000000000E+00  0.00000000000E+00  0.10000000000E+03  0.10000000000E+03 0.  0.
          5    1    3    3  501    0  0.26619970974E+02  0.27502096931E+02 -0.31826432563E+02  0.50000000000E+02  0.47000000000E+01 0. -1.
         -5    1    3    3    0  501 -0.26619970974E+02 -0.27502096931E+02  0.31826432563E+02  0.50000000000E+02  0.47000000000E+01 0.  1.
</event>
<event>
 5    1  0.9081766E-001  0.1000000E+03  0.7546771E-02  0.1163815E+00
         11   -1    0    0    0    0  0.00000000000E+00  0.00000000000E+00  0.50000000000E+02  0.50000000000E+02  0.00000000000E+00 0. -1.
        -11   -1    0    0    0    0 -0.00000000000E+00 -0.00000000000E+00 -0.50000000000E+02  0.50000000000E+02  0.00000000000E+00 0.  1.
         23    2    1    2    0    0  0.00000000000E+00  0.00000000000E+00  0.00000000000E+00  0.10000000000E+03  0.10000000000E+03 0.  0.
          5    1    3    3  501    0  0.49693864128E+02  0.26203190333E+01  0.12505183498E+01  0.50000000000E+02  0.47000000000E+01 0. -1.
         -5    1    3    3    0  501 -0.49693864128E+02 -0.26203190333E+01 -0.12505183498E+01  0.50000000000E+02  0.47000000000E+01 0.  1.
</event>
<event>
 5    1  0.9081766E-001  0.1000000E+03  0.7546771E-02  0.1163815E+00
         11   -1    0    0    0    0  0.00000000000E+00  0.00000000000E+00  0.50000000000E+02  0.50000000000E+02  0.00000000000E+00 0.  1.
        -11   -1    0    0    0    0 -0.00000000000E+00 -0.00000000000E+00 -0.50000000000E+02  0.50000000000E+02  0.00000000000E+00 0. -1.
         23    2    1    2    0    0  0.00000000000E+00  0.00000000000E+00  0.00000000000E+00  0.10000000000E+03  0.10000000000E+03 0.  0.
          5    1    3    3  501    0 -0.41058394346E+02  0.49908814520E+01 -0.27698544295E+02  0.50000000000E+02  0.47000000000E+01 0. -1.
         -5    1    3    3    0  501  0.41058394346E+02 -0.49908814520E+01  0.27698544295E+02  0.50000000000E+02  0.47000000000E+01 0.  1.
</event>
<event>
 5    1  0.9081766E-001  0.1000000E+03  0.7546771E-02  0.1163815E+00
         11   -1    0    0    0    0  0.00000000000E+00  0.00000000000E+00  0.50000000000E+02  0.50000000000E+02  0.00000000000E+00 0. -1.
        -11   -1    0    0    0    0 -0.00000000000E+00 -0.00000000000E+00 -0.50000000000E+02  0.50000000000E+02  0.00000000000E+00 0.  1.
         23    2    1    2    0    0  0.00000000000E+00  0.00000000000E+00  0.00000000000E+00  0.10000000000E+03  0.10000000000E+03 0.  0.
          5    1    3    3  501    0  0.28571938813E+02 -0.22785685637E+01  0.40698432866E+02  0.50000000000E+02  0.47000000000E+01 0. -1.
         -5    1    3    3    0  501 -0.28571938813E+02  0.22785685637E+01 -0.40698432866E+02  0.50000000000E+02  0.47000000000E+01 0.  1.
</event>
<event>
 5    1  0.9081766E-001  0.1000000E+03  0.7546771E-02  0.1163815E+00
         11   -1    0    0    0    0  0.00000000000E+00  0.00000000000E+00  0.50000000000E+02  0.50000000000E+02  0.00000000000E+00 0. -1.
        -11   -1    0    0    0    0 -0.00000000000E+00 -0.00000000000E+00 -0.50000000000E+02  0.50000000000E+02  0.00000000000E+00 0.  1.
         23    2    1    2    0    0  0.00000000000E+00  0.00000000000E+00  0.00000000000E+00  0.10000000000E+03  0.10000000000E+03 0.  0.
          5    1    3    3  501    0 -0.16627220240E+02  0.37223095113E+02  0.28563731151E+02  0.50000000000E+02  0.47000000000E+01 0. -1.
         -5    1    3    3    0  501  0.16627220240E+02 -0.37223095113E+02 -0.28563731151E+02  0.50000000000E+02  0.47000000000E+01 0.  1.
</event>
<event>
 5    1  0.9081766E-001  0.1000000E+03  0.7546771E-02  0.1163815E+00
         11   -1    0    0    0    0  0.00000000000E+00  0.00000000000E+00  0.50000000000E+02  0.50000000000E+02  0.00000000000E+00 0. -1.
        -11   -1    0    0    0    0 -0.00000000000E+00 -0.00000000000E+00 -0.50000000000E+02  0.50000000000E+02  0.00000000000E+00 0.  1.
         23    2    1    2    0    0  0.00000000000E+00  0.00000000000E+00  0.00000000000E+00  0.10000000000E+03  0.10000000000E+03 0.  0.
          5    1    3    3  501    0  0.18127707192E+02 -0.33487510458E+02  0.32060612522E+02  0.50000000000E+02  0.47000000000E+01 0. -1.
         -5    1    3    3    0  501 -0.18127707192E+02  0.33487510458E+02 -0.32060612522E+02  0.50000000000E+02  0.47000000000E+01 0.  1.
</event>
<event>
 5    1  0.9081766E-001  0.1000000E+03  0.7546771E-02  0.1163815E+00
         11   -1    0    0    0    0  0.00000000000E+00  0.00000000000E+00  0.50000000000E+02  0.50000000000E+02  0.00000000000E+00 0. -1.
        -11   -1    0    0    0    0 -0.00000000000E+00 -0.00000000000E+00 -0.50000000000E+02  0.50000000000E+02  0.00000000000E+00 0.  1.
         23    2    1    2    0    0  0.00000000000E+00  0.00000000000E+00  0.00000000000E+00  0.10000000000E+03  0.10000000000E+03 0.  0.
          5    1    3    3  501    0 -0.23650841497E+01  0.36995337723E+02  0.33221399184E+02  0.50000000000E+02  0.47000000000E+01 0. -1.
         -5    1    3    3    0  501  0.23650841497E+01 -0.36995337723E+02 -0.33221399184E+02  0.50000000000E+02  0.47000000000E+01 0.  1.
</event>
<event>
 5    1  0.9081766E-001  0.1000000E+03  0.7546771E-02  0.1163815E+00
         11   -1    0    0    0    0  0.00000000000E+00  0.00000000000E+00  0.50000000000E+02  0.50000000000E+02  0.00000000000E+00 0. -1.
        -11   -1    0    0    0    0 -0.00000000000E+00 -0.00000000000E+00 -0.50000000000E+02  0.50000000000E+02  0.00000000000E+00 0.  1.
         23    2    1    2    0    0  0.00000000000E+00  0.00000000000E+00  0.00000000000E+00  0.10000000000E+03  0.10000000000E+03 0.  0.
          5    1    3    3  501    0 -0.12466728480E+01 -0.13313431097E+01  0.49745184011E+02  0.50000000000E+02  0.47000000000E+01 0. -1.
         -5    1    3    3    0  501  0.12466728480E+01  0.13313431097E+01 -0.49745184011E+02  0.50000000000E+02  0.47000000000E+01 0.  1.
</event>
<event>
 5    1  0.9081766E-001  0.1000000E+03  0.7546771E-02  0.1163815E+00
         11   -1    0    0    0    0  0.00000000000E+00  0.00000000000E+00  0.50000000000E+02  0.50000000000E+02  0.00000000000E+00 0. -1.
        -11   -1    0    0    0    0 -0.00000000000E+00 -0.00000000000E+00 -0.50000000000E+02  0.50000000000E+02  0.00000000000E+00 0.  1.
         23    2    1    2    0    0  0.00000000000E+00  0.00000000000E+00  0.00000000000E+00  0.10000000000E+03  0.10000000000E+03 0.  0.
          5    1    3    3  501    0  0.18878600337E+02 -0.13125636035E+01  0.46041129722E+02  0.50000000000E+02  0.47000000000E+01 0. -1.
         -5    1    3    3    0  501 -0.18878600337E+02  0.13125636035E+01 -0.46041129722E+02  0.50000000000E+02  0.47000000000E+01 0.  1.
</event>
<event>
 5    1  0.9081766E-001  0.1000000E+03  0.7546771E-02  0.1163815E+00
         11   -1    0    0    0    0  0.00000000000E+00  0.00000000000E+00  0.50000000000E+02  0.50000000000E+02  0.00000000000E+00 0.  1.
        -11   -1    0    0    0    0 -0.00000000000E+00 -0.00000000000E+00 -0.50000000000E+02  0.50000000000E+02  0.00000000000E+00 0. -1.
         23    2    1    2    0    0  0.00000000000E+00  0.00000000000E+00  0.00000000000E+00  0.10000000000E+03  0.10000000000E+03 0.  0.
          5    1    3    3  501    0 -0.13335251661E+02  0.27431421257E+02 -0.39339524540E+02  0.50000000000E+02  0.47000000000E+01 0. -1.
         -5    1    3    3    0  501  0.13335251661E+02 -0.27431421257E+02  0.39339524540E+02  0.50000000000E+02  0.47000000000E+01 0.  1.
</event>
<event>
 5    1  0.9081766E-001  0.1000000E+03  0.7546771E-02  0.1163815E+00
         11   -1    0    0    0    0  0.00000000000E+00  0.00000000000E+00  0.50000000000E+02  0.50000000000E+02  0.00000000000E+00 0. -1.
        -11   -1    0    0    0    0 -0.00000000000E+00 -0.00000000000E+00 -0.50000000000E+02  0.50000000000E+02  0.00000000000E+00 0.  1.
         23    2    1    2    0    0  0.00000000000E+00  0.00000000000E+00  0.00000000000E+00  0.10000000000E+03  0.10000000000E+03 0.  0.
          5    1    3    3  501    0 -0.28550074018E+02  0.36843843726E+02  0.17473821936E+02  0.50000000000E+02  0.47000000000E+01 0. -1.
         -5    1    3    3    0  501  0.28550074018E+02 -0.36843843726E+02 -0.17473821936E+02  0.50000000000E+02  0.47000000000E+01 0.  1.
</event>
<event>
 5    1  0.9081766E-001  0.1000000E+03  0.7546771E-02  0.1163815E+00
         11   -1    0    0    0    0  0.00000000000E+00  0.00000000000E+00  0.50000000000E+02  0.50000000000E+02  0.00000000000E+00 0.  1.
        -11   -1    0    0    0    0 -0.00000000000E+00 -0.00000000000E+00 -0.50000000000E+02  0.50000000000E+02  0.00000000000E+00 0. -1.
         23    2    1    2    0    0  0.00000000000E+00  0.00000000000E+00  0.00000000000E+00  0.10000000000E+03  0.10000000000E+03 0.  0.
          5    1    3    3  501    0  0.20791627862E+02  0.43850755640E+02  0.11078332034E+02  0.50000000000E+02  0.47000000000E+01 0. -1.
         -5    1    3    3    0  501 -0.20791627862E+02 -0.43850755640E+02 -0.11078332034E+02  0.50000000000E+02  0.47000000000E+01 0.  1.
</event>
<event>
 5    1  0.9081766E-001  0.1000000E+03  0.7546771E-02  0.1163815E+00
         11   -1    0    0    0    0  0.00000000000E+00  0.00000000000E+00  0.50000000000E+02  0.50000000000E+02  0.00000000000E+00 0.  1.
        -11   -1    0    0    0    0 -0.00000000000E+00 -0.00000000000E+00 -0.50000000000E+02  0.50000000000E+02  0.00000000000E+00 0. -1.
         23    2    1    2    0    0  0.00000000000E+00  0.00000000000E+00  0.00000000000E+00  0.10000000000E+03  0.10000000000E+03 0.  0.
          5    1    3    3  501    0 -0.57793949534E+01  0.68061559140E+01 -0.48971265408E+02  0.50000000000E+02  0.47000000000E+01 0. -1.
         -5    1    3    3    0  501  0.57793949534E+01 -0.68061559140E+01  0.48971265408E+02  0.50000000000E+02  0.47000000000E+01 0.  1.
</event>
<event>
 5    1  0.9081766E-001  0.1000000E+03  0.7546771E-02  0.1163815E+00
         11   -1    0    0    0    0  0.00000000000E+00  0.00000000000E+00  0.50000000000E+02  0.50000000000E+02  0.00000000000E+00 0. -1.
        -11   -1    0    0    0    0 -0.00000000000E+00 -0.00000000000E+00 -0.50000000000E+02  0.50000000000E+02  0.00000000000E+00 0.  1.
         23    2    1    2    0    0  0.00000000000E+00  0.00000000000E+00  0.00000000000E+00  0.10000000000E+03  0.10000000000E+03 0.  0.
          5    1    3    3  501    0 -0.24202023975E+02 -0.13240414943E+02  0.41435050955E+02  0.50000000000E+02  0.47000000000E+01 0. -1.
         -5    1    3    3    0  501  0.24202023975E+02  0.13240414943E+02 -0.41435050955E+02  0.50000000000E+02  0.47000000000E+01 0.  1.
</event>
