<event>
 5    1  0.4781763E-001  0.8000000E+02  0.7546771E-02  0.1203772E+00
         11   -1    0    0    0    0  0.00000000000E+00  0.00000000000E+00  0.40000000000E+02  0.40000000000E+02  0.00000000000E+00 0.  1.
        -11   -1    0    0    0    0 -0.00000000000E+00 -0.00000000000E+00 -0.40000000000E+02  0.40000000000E+02  0.00000000000E+00 0. -1.
         23    2    1    2    0    0  0.00000000000E+00  0.00000000000E+00  0.00000000000E+00  0.80000000000E+02  0.80000000000E+02 0.  0.
          5    1    3    3  501    0 -0.35910362006E+02  0.41000243861E+01 -0.16478643773E+02  0.40000000000E+02  0.47000000000E+01 0. -1.
         -5    1    3    3    0  501  0.35910362006E+02 -0.41000243861E+01  0.16478643773E+02  0.40000000000E+02  0.47000000000E+01 0.  1.
</event>
<event>
 5    1  0.4781763E-001  0.8000000E+02  0.7546771E-02  0.1203772E+00
         11   -1    0    0    0    0  0.00000000000E+00  0.00000000000E+00  0.40000000000E+02  0.40000000000E+02  0.00000000000E+00 0. -1.
        -11   -1    0    0    0    0 -0.00000000000E+00 -0.00000000000E+00 -0.40000000000E+02  0.40000000000E+02  0.00000000000E+00 0.  1.
         23    2    1    2    0    0  0.00000000000E+00  0.00000000000E+00  0.00000000000E+00  0.80000000000E+02  0.80000000000E+02 0.  0.
          5    1    3    3  501    0  0.15572979567E+02 -0.31413935382E+02  0.18669680533E+02  0.40000000000E+02  0.47000000000E+01 0. -1.
         -5    1    3    3    0  501 -0.15572979567E+02  0.31413935382E+02 -0.18669680533E+02  0.40000000000E+02  0.47000000000E+01 0.  1.
</event>
<event>
 5    1  0.4781763E-001  0.8000000E+02  0.7546771E-02  0.1203772E+00
         11   -1    0    0    0    0  0.00000000000E+00  0.00000000000E+00  0.40000000000E+02  0.40000000000E+02  0.00000000000E+00 0. -1.
        -11   -1    0    0    0    0 -0.00000000000E+00 -0.00000000000E+00 -0.40000000000E+02  0.40000000000E+02  0.00000000000E+00 0.  1.
         23    2    1    2    0    0  0.00000000000E+00  0.00000000000E+00  0.00000000000E+00  0.80000000000E+02  0.80000000000E+02 0.  0.
          5    1    3    3  501    0 -0.14954272958E+02 -0.46804636068E+01  0.36501684629E+02  0.40000000000E+02  0.47000000000E+01 0. -1.
         -5    1    3    3    0  501  0.14954272958E+02  0.46804636068E+01 -0.36501684629E+02  0.40000000000E+02  0.47000000000E+01 0.  1.
</event>
<event>
 5    1  0.4781763E-001  0.8000000E+02  0.7546771E-02  0.1203772E+00
         11   -1    0    0    0    0  0.00000000000E+00  0.00000000000E+00  0.40000000000E+02  0.40000000000E+02  0.00000000000E+00 0.  1.
        -11   -1    0    0    0    0 -0.00000000000E+00 -0.00000000000E+00 -0.40000000000E+02  0.40000000000E+02  0.00000000000E+00 0. -1.
         23    2    1    2    0    0  0.00000000000E+00  0.00000000000E+00  0.00000000000E+00  0.80000000000E+02  0.80000000000E+02 0.  0.
          5    1    3    3  501    0 -0.27419340791E+02 -0.53678970056E+01 -0.28236066163E+02  0.40000000000E+02  0.47000000000E+01 0. -1.
         -5    1    3    3    0  501  0.27419340791E+02  0.53678970056E+01  0.28236066163E+02  0.40000000000E+02  0.47000000000E+01 0.  1.
</event>
<event>
 5    1  0.4781763E-001  0.8000000E+02  0.7546771E-02  0.1203772E+00
         11   -1    0    0    0    0  0.00000000000E+00  0.00000000000E+00  0.40000000000E+02  0.40000000000E+02  0.00000000000E+00 0. -1.
        -11   -1    0    0    0    0 -0.00000000000E+00 -0.00000000000E+00 -0.40000000000E+02  0.40000000000E+02  0.00000000000E+00 0.  1.
         23    2    1    2    0    0  0.00000000000E+00  0.00000000000E+00  0.00000000000E+00  0.80000000000E+02  0.80000000000E+02 0.  0.
          5    1    3    3  501    0  0.34647680697E+02 -0.18098085400E+02  0.70645259702E+01  0.40000000000E+02  0.47000000000E+01 0. -1.
         -5    1    3    3    0  501 -0.34647680697E+02  0.18098085400E+02 -0.70645259702E+01  0.40000000000E+02  0.47000000000E+01 0.  1.
</event>
<event>
 5    1  0.4781763E-001  0.8000000E+02  0.7546771E-02  0.1203772E+00
         11   -1    0    0    0    0  0.00000000000E+00  0.00000000000E+00  0.40000000000E+02  0.40000000000E+02  0.00000000000E+00 0.  1.
        -11   -1    0    0    0    0 -0.00000000000E+00 -0.00000000000E+00 -0.40000000000E+02  0.40000000000E+02  0.00000000000E+00 0. -1.
         23    2    1    2    0    0  0.00000000000E+00  0.00000000000E+00  0.00000000000E+00  0.80000000000E+02  0.80000000000E+02 0.  0.
          5    1    3    3  501    0  0.37333597904E+02 -0.70790839379E+01  0.11575795358E+02  0.40000000000E+02  0.47000000000E+01 0. -1.
         -5    1    3    3    0  501 -0.37333597904E+02  0.70790839379E+01 -0.11575795358E+02  0.40000000000E+02  0.47000000000E+01 0.  1.
</event>
<event>
 5    1  0.4781763E-001  0.8000000E+02  0.7546771E-02  0.1203772E+00
         11   -1    0    0    0    0  0.00000000000E+00  0.00000000000E+00  0.40000000000E+02  0.40000000000E+02  0.00000000000E+00 0. -1.
        -11   -1    0    0    0    0 -0.00000000000E+00 -0.00000000000E+00 -0.40000000000E+02  0.40000000000E+02  0.00000000000E+00 0.  1.
         23    2    1    2    0    0  0.00000000000E+00  0.00000000000E+00  0.00000000000E+00  0.80000000000E+02  0.80000000000E+02 0.  0.
          5    1    3    3  501    0  0.27575610721E+02  0.15850516326E+02  0.23796151486E+02  0.40000000000E+02  0.47000000000E+01 0. -1.
         -5    1    3    3    0  501 -0.27575610721E+02 -0.15850516326E+02 -0.23796151486E+02  0.40000000000E+02  0.47000000000E+01 0.  1.
</event>
<event>
 5    1  0.4781763E-001  0.8000000E+02  0.7546771E-02  0.1203772E+00
         11   -1    0    0    0    0  0.00000000000E+00  0.00000000000E+00  0.40000000000E+02  0.40000000000E+02  0.00000000000E+00 0.  1.
        -11   -1    0    0    0    0 -0.00000000000E+00 -0.00000000000E+00 -0.40000000000E+02  0.40000000000E+02  0.00000000000E+00 0. -1.
         23    2    1    2    0    0  0.00000000000E+00  0.00000000000E+00  0.00000000000E+00  0.80000000000E+02  0.80000000000E+02 0.  0.
          5    1    3    3  501    0 -0.20462196065E+02  0.97641758347E+01 -0.32617010937E+02  0.40000000000E+02  0.47000000000E+01 0. -1.
         -5    1    3    3    0  501  0.20462196065E+02 -0.97641758347E+01  0.32617010937E+02  0.40000000000E+02  0.47000000000E+01 0.  1.
</event>
<event>
 5    1  0.4781763E-001  0.8000000E+02  0.7546771E-02  0.1203772E+00
         11   -1    0    0    0    0  0.00000000000E+00  0.00000000000E+00  0.40000000000E+02  0.40000000000E+02  0.00000000000E+00 0.  1.
        -11   -1    0    0    0    0 -0.00000000000E+00 -0.00000000000E+00 -0.40000000000E+02  0.40000000000E+02  0.00000000000E+00 0. -1.
         23    2    1    2    0    0  0.00000000000E+00  0.00000000000E+00  0.00000000000E+00  0.80000000000E+02  0.80000000000E+02 0.  0.
          5    1    3    3  501    0  0.26959842754E+02 -0.23570035204E+02 -0.17190995293E+02  0.40000000000E+02  0.47000000000E+01 0. -1.
         -5    1    3    3    0  501 -0.26959842754E+02  0.23570035204E+02  0.17190995293E+02  0.40000000000E+02  0.47000000000E+01 0.  1.
</event>
<event>
 5    1  0.4781763E-001  0.8000000E+02  0.7546771E-02  0.1203772E+00
         11   -1    0    0    0    0  0.00000000000E+00  0.00000000000E+00  0.40000000000E+02  0.40000000000E+02  0.00000000000E+00 0.  1.
        -11   -1    0    0    0    0 -0.00000000000E+00 -0.00000000000E+00 -0.40000000000E+02  0.40000000000E+02  0.00000000000E+00 0. -1.
         23    2    1    2    0    0  0.00000000000E+00  0.00000000000E+00  0.00000000000E+00  0.80000000000E+02  0.80000000000E+02 0.  0.
          5    1    3    3  501    0 -0.23148234698E+01 -0.34721018214E+02 -0.19157308957E+02  0.40000000000E+02  0.47000000000E+01 0. -1.
         -5    1    3    3    0  501  0.23148234698E+01  0.34721018214E+02  0.19157308957E+02  0.40000000000E+02  0.47000000000E+01 0.  1.
</event>
<event>
 5    1  0.4781763E-001  0.8000000E+02  0.7546771E-02  0.1203772E+00
         11   -1    0    0    0    0  0.00000000000E+00  0.00000000000E+00  0.40000000000E+02  0.40000000000E+02  0.00000000000E+00 0.  1.
        -11   -1    0    0    0    0 -0.00000000000E+00 -0.00000000000E+00 -0.40000000000E+02  0.40000000000E+02  0.00000000000E+00 0. -1.
         23    2    1    2    0    0  0.00000000000E+00  0.00000000000E+00  0.00000000000E+00  0.80000000000E+02  0.80000000000E+02 0.  0.
          5    1    3    3  501    0  0.92759217982E+01 -0.37187164030E+02 -0.10439449516E+02  0.40000000000E+02  0.47000000000E+01 0. -1.
         -5    1    3    3    0  501 -0.92759217982E+01  0.37187164030E+02  0.10439449516E+02  0.40000000000E+02  0.47000000000E+01 0.  1.
</event>
<event>
 5    1  0.4781763E-001  0.8000000E+02  0.7546771E-02  0.1203772E+00
         11   -1    0    0    0    0  0.00000000000E+00  0.00000000000E+00  0.40000000000E+02  0.40000000000E+02  0.00000000000E+00 0.  1.
        -11   -1    0    0    0    0 -0.00000000000E+00 -0.00000000000E+00 -0.40000000000E+02  0.40000000000E+02  0.00000000000E+00 0. -1.
         23    2    1    2    0    0  0.00000000000E+00  0.00000000000E+00  0.00000000000E+00  0.80000000000E+02  0.80000000000E+02 0.  0.
          5    1    3    3  501    0 -0.31634085283E+02  0.12187686453E+02 -0.20703983849E+02  0.40000000000E+02  0.47000000000E+01 0. -1.
         -5    1    3    3    0  501  0.31634085283E+02 -0.12187686453E+02  0.20703983849E+02  0.40000000000E+02  0.47000000000E+01 0.  1.
</event>
<event>
 5    1  0.4781763E-001  0.8000000E+02  0.7546771E-02  0.1203772E+00
         11   -1    0    0    0    0  0.00000000000E+00  0.00000000000E+00  0.40000000000E+02  0.40000000000E+02  0.00000000000E+00 0.  1.
        -11   -1    0    0    0    0 -0.00000000000E+00 -0.00000000000E+00 -0.40000000000E+02  0.40000000000E+02  0.00000000000E+00 0. -1.
         23    2    1    2    0    0  0.00000000000E+00  0.00000000000E+00  0.00000000000E+00  0.80000000000E+02  0.80000000000E+02 0.  0.
          5    1    3    3  501    0 -0.43030053849E+01  0.46852139525E+01 -0.39210239924E+02  0.40000000000E+02  0.47000000000E+01 0. -1.
         -5    1    3    3    0  501  0.43030053849E+01 -0.46852139525E+01  0.39210239924E+02  0.40000000000E+02  0.47000000000E+01 0.  1.
</event>
<event>
 5    1  0.4781763E-001  0.8000000E+02  0.7546771E-02  0.1203772E+00
         11   -1    0    0    0    0  0.00000000000E+00  0.00000000000E+00  0.40000000000E+02  0.40000000000E+02  0.00000000000E+00 0. -1.
        -11   -1    0    0    0    0 -0.00000000000E+00 -0.00000000000E+00 -0.40000000000E+02  0.40000000000E+02  0.00000000000E+00 0.  1.
         23    2    1    2    0    0  0.00000000000E+00  0.00000000000E+00  0.00000000000E+00  0.80000000000E+02  0.80000000000E+02 0.  0.
          5    1    3    3  501    0  0.35117590764E+02  0.15771516130E+02 -0.97940848400E+01  0.40000000000E+02  0.47000000000E+01 0. -1.
         -5    1    3    3    0  501 -0.35117590764E+02 -0.15771516130E+02  0.97940848400E+01  0.40000000000E+02  0.47000000000E+01 0.  1.
</event>
<event>
 5    1  0.4781763E-001  0.8000000E+02  0.7546771E-02  0.1203772E+00
         11   -1    0    0    0    0  0.00000000000E+00  0.00000000000E+00  0.40000000000E+02  0.40000000000E+02  0.00000000000E+00 0. -1.
        -11   -1    0    0    0    0 -0.00000000000E+00 -0.00000000000E+00 -0.40000000000E+02  0.40000000000E+02  0.00000000000E+00 0.  1.
         23    2    1    2    0    0  0.00000000000E+00  0.00000000000E+00  0.00000000000E+00  0.80000000000E+02  0.80000000000E+02 0.  0.
          5    1    3    3  501    0 -0.38112281440E+02 -0.76184398723E+01 -0.82050824085E+01  0.40000000000E+02  0.47000000000E+01 0.  1.
         -5    1    3    3    0  501  0.38112281440E+02  0.76184398723E+01  0.82050824085E+01  0.40000000000E+02  0.47000000000E+01 0. -1.
</event>
<event>
 5    1  0.4781763E-001  0.8000000E+02  0.7546771E-02  0.1203772E+00
         11   -1    0    0    0    0  0.00000000000E+00  0.00000000000E+00  0.40000000000E+02  0.40000000000E+02  0.00000000000E+00 0.  1.
        -11   -1    0    0    0    0 -0.00000000000E+00 -0.00000000000E+00 -0.40000000000E+02  0.40000000000E+02  0.00000000000E+00 0. -1.
         23    2    1    2    0    0  0.00000000000E+00  0.00000000000E+00  0.00000000000E+00  0.80000000000E+02  0.80000000000E+02 0.  0.
          5    1    3    3  501    0 -0.54466004220E+00 -0.97549623748E+00 -0.39707200261E+02  0.40000000000E+02  0.47000000000E+01 0. -1.
         -5    1    3    3    0  501  0.54466004220E+00  0.97549623748E+00  0.39707200261E+02  0.40000000000E+02  0.47000000000E+01 0.  1.
</event>
<event>
 5    1  0.4781763E-001  0.8000000E+02  0.7546771E-02  0.1203772E+00
         11   -1    0    0    0    0  0.00000000000E+00  0.00000000000E+00  0.40000000000E+02  0.40000000000E+02  0.00000000000E+00 0. -1.
        -11   -1    0    0    0    0 -0.00000000000E+00 -0.00000000000E+00 -0.40000000000E+02  0.40000000000E+02  0.00000000000E+00 0.  1.
         23    2    1    2    0    0  0.00000000000E+00  0.00000000000E+00  0.00000000000E+00  0.80000000000E+02  0.80000000000E+02 0.  0.
          5    1    3    3  501    0 -0.19650931640E+02  0.21371351901E+01  0.34455529873E+02  0.40000000000E+02  0.47000000000E+01 0. -1.
         -5    1    3    3    0  501  0.19650931640E+02 -0.21371351901E+01 -0.34455529873E+02  0.40000000000E+02  0.47000000000E+01 0.  1.
</event>
<event>
 5    1  0.4781763E-001  0.8000000E+02  0.7546771E-02  0.1203772E+00
         11   -1    0    0    0    0  0.00000000000E+00  0.00000000000E+00  0.40000000000E+02  0.40000000000E+02  0.00000000000E+00 0. -1.
        -11   -1    0    0    0    0 -0.00000000000E+00 -0.00000000000E+00 -0.40000000000E+02  0.40000000000E+02  0.00000000000E+00 0.  1.
         23    2    1    2    0    0  0.00000000000E+00  0.00000000000E+00  0.00000000000E+00  0.80000000000E+02  0.80000000000E+02 0.  0.
          5    1    3    3  501    0  0.11022113762E+02  0.61643711158E+01  0.37661964062E+02  0.40000000000E+02  0.47000000000E+01 0. -1.
         -5    1    3    3    0  501 -0.11022113762E+02 -0.61643711158E+01 -0.37661964062E+02  0.40000000000E+02  0.47000000000E+01 0.  1.
</event>
<event>
 5    1  0.4781763E-001  0.8000000E+02  0.7546771E-02  0.1203772E+00
         11   -1    0    0    0    0  0.00000000000E+00  0.00000000000E+00  0.40000000000E+02  0.40000000000E+02  0.00000000000E+00 0. -1.
        -11   -1    0    0    0    0 -0.00000000000E+00 -0.00000000000E+00 -0.40000000000E+02  0.40000000000E+02  0.00000000000E+00 0.  1.
         23    2    1    2    0    0  0.00000000000E+00  0.00000000000E+00  0.00000000000E+00  0.80000000000E+02  0.80000000000E+02 0.  0.
          5    1    3    3  501    0 -0.36403565246E+02  0.13389129227E+02  0.85686437621E+01  0.40000000000E+02  0.47000000000E+01 0. -1.
         -5    1    3    3    0  501  0.36403565246E+02 -0.13389129227E+02 -0.85686437621E+01  0.40000000000E+02  0.47000000000E+01 0.  1.
</event>
<event>
 5    1  0.4781763E-001  0.8000000E+02  0.7546771E-02  0.1203772E+00
         11   -1    0    0    0    0  0.00000000000E+00  0.00000000000E+00  0.40000000000E+02  0.40000000000E+02  0.00000000000E+00 0.  1.
        -11   -1    0    0    0    0 -0.00000000000E+00 -0.00000000000E+00 -0.40000000000E+02  0.40000000000E+02  0.00000000000E+00 0. -1.
         23    2    1    2    0    0  0.00000000000E+00  0.00000000000E+00  0.00000000000E+00  0.80000000000E+02  0.80000000000E+02 0.  0.
          5    1    3    3  501    0 -0.29980882428E+02  0.17779806342E+02 -0.19050857599E+02  0.40000000000E+02  0.47000000000E+01 0. -1.
         -5    1    3    3    0  501  0.29980882428E+02 -0.17779806342E+02  0.19050857599E+02  0.40000000000E+02  0.47000000000E+01 0.  1.
</event>
<event>
 5    1  0.4781763E-001  0.8000000E+02  0.7546771E-02  0.1203772E+00
         11   -1    0    0    0    0  0.00000000000E+00  0.00000000000E+00  0.40000000000E+02  0.40000000000E+02  0.00000000000E+00 0.  1.
        -11   -1    0    0    0    0 -0.00000000000E+00 -0.00000000000E+00 -0.40000000000E+02  0.40000000000E+02  0.00000000000E+00 0. -1.
         23    2    1    2    0    0  0.00000000000E+00  0.00000000000E+00  0.00000000000E+00  0.80000000000E+02  0.80000000000E+02 0.  0.
          5    1    3    3  501    0 -0.53402682356E+01  0.95650322028E+00 -0.39350687882E+02  0.40000000000E+02  0.47000000000E+01 0. -1.
         -5    1    3    3    0  501  0.53402682356E+01 -0.95650322028E+00  0.39350687882E+02  0.40000000000E+02  0.47000000000E+01 0.  1.
</event>
<event>
 5    1  0.4781763E-001  0.8000000E+02  0.7546771E-02  0.1203772E+00
         11   -1    0    0    0    0  0.00000000000E+00  0.00000000000E+00  0.40000000000E+02  0.40000000000E+02  0.00000000000E+00 0.  1.
        -11   -1    0    0    0    0 -0.00000000000E+00 -0.00000000000E+00 -0.40000000000E+02  0.40000000000E+02  0.00000000000E+00 0. -1.
         23    2    1    2    0    0  0.00000000000E+00  0.00000000000E+00  0.00000000000E+00  0.80000000000E+02  0.80000000000E+02 0.  0.
          5    1    3    3  501    0  0.65195380413E+01  0.74920809715E+01 -0.38461335734E+02  0.40000000000E+02  0.47000000000E+01 0. -1.
         -5    1    3    3    0  501 -0.65195380413E+01 -0.74920809715E+01  0.38461335734E+02  0.40000000000E+02  0.47000000000E+01 0.  1.
</event>
<event>
 5    1  0.4781763E-001  0.8000000E+02  0.7546771E-02  0.1203772E+00
         11   -1    0    0    0    0  0.00000000000E+00  0.00000000000E+00  0.40000000000E+02  0.40000000000E+02  0.00000000000E+00 0.  1.
        -11   -1    0    0    0    0 -0.00000000000E+00 -0.00000000000E+00 -0.40000000000E+02  0.40000000000E+02  0.00000000000E+00 0. -1.
         23    2    1    2    0    0  0.00000000000E+00  0.00000000000E+00  0.00000000000E+00  0.80000000000E+02  0.80000000000E+02 0.  0.
          5    1    3    3  501    0 -0.13650434031E+02  0.11523059030E+02 -0.35479497761E+02  0.40000000000E+02  0.47000000000E+01 0. -1.
         -5    1    3    3    0  501  0.13650434031E+02 -0.11523059030E+02  0.35479497761E+02  0.40000000000E+02  0.47000000000E+01 0.  1.
</event>
<event>
 5    1  0.4781763E-001  0.8000000E+02  0.7546771E-02  0.1203772E+00
         11   -1    0    0    0    0  0.00000000000E+00  0.00000000000E+00  0.40000000000E+02  0.40000000000E+02  0.00000000000E+00 0. -1.
        -11   -1    0    0    0    0 -0.00000000000E+00 -0.00000000000E+00 -0.40000000000E+02  0.40000000000E+02  0.00000000000E+00 0.  1.
         23    2    1    2    0    0  0.00000000000E+00  0.00000000000E+00  0.00000000000E+00  0.80000000000E+02  0.80000000000E+02 0.  0.
          5    1    3    3  501    0 -0.26165304592E+02  0.21427879846E+02  0.20835853736E+02  0.40000000000E+02  0.47000000000E+01 0. -1.
         -5    1    3    3    0  501  0.26165304592E+02 -0.21427879846E+02 -0.20835853736E+02  0.40000000000E+02  0.47000000000E+01 0.  1.
</event>
<event>
 5    1  0.4781763E-001  0.8000000E+02  0.7546771E-02  0.1203772E+00
         11   -1    0    0    0    0  0.00000000000E+00  0.00000000000E+00  0.40000000000E+02  0.40000000000E+02  0.00000000000E+00 0. -1.
        -11   -1    0    0    0    0 -0.00000000000E+00 -0.00000000000E+00 -0.40000000000E+02  0.40000000000E+02  0.00000000000E+00 0.  1.
         23    2    1    2    0    0  0.00000000000E+00  0.00000000000E+00  0.00000000000E+00  0.80000000000E+02  0.80000000000E+02 0.  0.
          5    1    3    3  501    0 -0.17735329483E+02 -0.31971351609E+02 -0.15530639537E+02  0.40000000000E+02  0.47000000000E+01 0. -1.
         -5    1    3    3    0  501  0.17735329483E+02  0.31971351609E+02  0.15530639537E+02  0.40000000000E+02  0.47000000000E+01 0.  1.
</event>
<event>
 5    1  0.4781763E-001  0.8000000E+02  0.7546771E-02  0.1203772E+00
         11   -1    0    0    0    0  0.00000000000E+00  0.00000000000E+00  0.40000000000E+02  0.40000000000E+02  0.00000000000E+00 0. -1.
        -11   -1    0    0    0    0 -0.00000000000E+00 -0.00000000000E+00 -0.40000000000E+02  0.40000000000E+02  0.00000000000E+00 0.  1.
         23    2    1    2    0    0  0.00000000000E+00  0.00000000000E+00  0.00000000000E+00  0.80000000000E+02  0.80000000000E+02 0.  0.
          5    1    3    3  501    0  0.31032865956E+02 -0.24483534804E+02  0.39278179706E+01  0.40000000000E+02  0.47000000000E+01 0. -1.
         -5    1    3    3    0  501 -0.31032865956E+02  0.24483534804E+02 -0.39278179706E+01  0.40000000000E+02  0.47000000000E+01 0.  1.
</event>
<event>
 5    1  0.4781763E-001  0.8000000E+02  0.7546771E-02  0.1203772E+00
         11   -1    0    0    0    0  0.00000000000E+00  0.00000000000E+00  0.40000000000E+02  0.40000000000E+02  0.00000000000E+00 0.  1.
        -11   -1    0    0    0    0 -0.00000000000E+00 -0.00000000000E+00 -0.40000000000E+02  0.40000000000E+02  0.00000000000E+00 0. -1.
         23    2    1    2    0    0  0.00000000000E+00  0.00000000000E+00  0.00000000000E+00  0.80000000000E+02  0.80000000000E+02 0.  0.
          5    1    3    3  501    0  0.24231737757E+02  0.67994598522E+01 -0.30732722479E+02  0.40000000000E+02  0.47000000000E+01 0. -1.
         -5    1    3    3    0  501 -0.24231737757E+02 -0.67994598522E+01  0.30732722479E+02  0.40000000000E+02  0.47000000000E+01 0.  1.
</event>
<event>
 5    1  0.4781763E-001  0.8000000E+02  0.7546771E-02  0.1203772E+00
         11   -1    0    0    0    0  0.00000000000E+00  0.00000000000E+00  0.40000000000E+02  0.40000000000E+02  0.00000000000E+00 0.  1.
        -11   -1    0    0    0    0 -0.00000000000E+00 -0.00000000000E+00 -0.40000000000E+02  0.40000000000E+02  0.00000000000E+00 0. -1.
         23    2    1    2    0    0  0.00000000000E+00  0.00000000000E+00  0.00000000000E+00  0.80000000000E+02  0.80000000000E+02 0.  0.
          5    1    3    3  501    0 -0.35295203550E+00 -0.38834661094E+02 -0.83459285045E+01  0.40000000000E+02  0.47000000000E+01 0. -1.
         -5    1    3    3    0  501  0.35295203550E+00  0.38834661094E+02  0.83459285045E+01  0.40000000000E+02  0.47000000000E+01 0.  1.
</event>
<event>
 5    1  0.4781763E-001  0.8000000E+02  0.7546771E-02  0.1203772E+00
         11   -1    0    0    0    0  0.00000000000E+00  0.00000000000E+00  0.40000000000E+02  0.40000000000E+02  0.00000000000E+00 0.  1.
        -11   -1    0    0    0    0 -0.00000000000E+00 -0.00000000000E+00 -0.40000000000E+02  0.40000000000E+02  0.00000000000E+00 0. -1.
         23    2    1    2    0    0  0.00000000000E+00  0.00000000000E+00  0.00000000000E+00  0.80000000000E+02  0.80000000000E+02 0.  0.
          5    1    3    3  501    0  0.12454308101E+02 -0.20128385455E+02 -0.31900600444E+02  0.40000000000E+02  0.47000000000E+01 0. -1.
         -5    1    3    3    0  501 -0.12454308101E+02  0.20128385455E+02  0.31900600444E+02  0.40000000000E+02  0.47000000000E+01 0.  1.
</event>
<event>
 5    1  0.4781763E-001  0.8000000E+02  0.7546771E-02  0.1203772E+00
         11   -1    0    0    0    0  0.00000000000E+00  0.00000000000E+00  0.40000000000E+02  0.40000000000E+02  0.00000000000E+00 0. -1.
        -11   -1    0    0    0    0 -0.00000000000E+00 -0.00000000000E+00 -0.40000000000E+02  0.40000000000E+02  0.00000000000E+00 0.  1.
         23    2    1    2    0    0  0.00000000000E+00  0.00000000000E+00  0.00000000000E+00  0.80000000000E+02  0.80000000000E+02 0.  0.
          5    1    3    3  501    0 -0.37003230045E+02 -0.12062376043E+02  0.79479588841E+01  0.40000000000E+02  0.47000000000E+01 0. -1.
         -5    1    3    3    0  501  0.37003230045E+02  0.12062376043E+02 -0.79479588841E+01  0.40000000000E+02  0.47000000000E+01 0.  1.
</event>
<event>
 5    1  0.4781763E-001  0.8000000E+02  0.7546771E-02  0.1203772E+00
         11   -1    0    0    0    0  0.00000000000E+00  0.00000000000E+00  0.40000000000E+02  0.40000000000E+02  0.00000000000E+00 0. -1.
        -11   -1    0    0    0    0 -0.00000000000E+00 -0.00000000000E+00 -0.40000000000E+02  0.40000000000E+02  0.00000000000E+00 0.  1.
         23    2    1    2    0    0  0.00000000000E+00  0.00000000000E+00  0.00000000000E+00  0.80000000000E+02  0.80000000000E+02 0.  0.
          5    1    3    3  501    0  0.36873541552E+02 -0.79749069435E+00  0.14751811482E+02  0.40000000000E+02  0.47000000000E+01 0. -1.
         -5    1    3    3    0  501 -0.36873541552E+02  0.79749069435E+00 -0.14751811482E+02  0.40000000000E+02  0.47000000000E+01 0.  1.
</event>
<event>
 5    1  0.4781763E-001  0.8000000E+02  0.7546771E-02  0.1203772E+00
         11   -1    0    0    0    0  0.00000000000E+00  0.00000000000E+00  0.40000000000E+02  0.40000000000E+02  0.00000000000E+00 0. -1.
        -11   -1    0    0    0    0 -0.00000000000E+00 -0.00000000000E+00 -0.40000000000E+02  0.40000000000E+02  0.00000000000E+00 0.  1.
         23    2    1    2    0    0  0.00000000000E+00  0.00000000000E+00  0.00000000000E+00  0.80000000000E+02  0.80000000000E+02 0.  0.
          5    1    3    3  501    0 -0.61944210875E+00 -0.89013558077E+01  0.38707779015E+02  0.40000000000E+02  0.47000000000E+01 0. -1.
         -5    1    3    3    0  501  0.61944210875E+00  0.89013558077E+01 -0.38707779015E+02  0.40000000000E+02  0.47000000000E+01 0.  1.
</event>
<event>
 5    1  0.4781763E-001  0.8000000E+02  0.7546771E-02  0.1203772E+00
         11   -1    0    0    0    0  0.00000000000E+00  0.00000000000E+00  0.40000000000E+02  0.40000000000E+02  0.00000000000E+00 0.  1.
        -11   -1    0    0    0    0 -0.00000000000E+00 -0.00000000000E+00 -0.40000000000E+02  0.40000000000E+02  0.00000000000E+00 0. -1.
         23    2    1    2    0    0  0.00000000000E+00  0.00000000000E+00  0.00000000000E+00  0.80000000000E+02  0.80000000000E+02 0.  0.
          5    1    3    3  501    0  0.20570343959E+02  0.21493795358E+02 -0.26320860747E+02  0.40000000000E+02  0.47000000000E+01 0. -1.
         -5    1    3    3    0  501 -0.20570343959E+02 -0.21493795358E+02  0.26320860747E+02  0.40000000000E+02  0.47000000000E+01 0.  1.
</event>
<event>
 5    1  0.4781763E-001  0.8000000E+02  0.7546771E-02  0.1203772E+00
         11   -1    0    0    0    0  0.00000000000E+00  0.00000000000E+00  0.40000000000E+02  0.40000000000E+02  0.00000000000E+00 0.  1.
        -11   -1    0    0    0    0 -0.00000000000E+00 -0.00000000000E+00 -0.40000000000E+02  0.40000000000E+02  0.00000000000E+00 0. -1.
         23    2    1    2    0    0  0.00000000000E+00  0.00000000000E+00  0.00000000000E+00  0.80000000000E+02  0.80000000000E+02 0.  0.
          5    1    3    3  501    0  0.21076999882E+02  0.51476523523E+01 -0.33274190467E+02  0.40000000000E+02  0.47000000000E+01 0. -1.
         -5    1    3    3    0  501 -0.21076999882E+02 -0.51476523523E+01  0.33274190467E+02  0.40000000000E+02  0.47000000000E+01 0.  1.
</event>
<event>
 5    1  0.4781763E-001  0.8000000E+02  0.7546771E-02  0.1203772E+00
         11   -1    0    0    0    0  0.00000000000E+00  0.00000000000E+00  0.40000000000E+02  0.40000000000E+02  0.00000000000E+00 0.  1.
        -11   -1    0    0    0    0 -0.00000000000E+00 -0.00000000000E+00 -0.40000000000E+02  0.40000000000E+02  0.00000000000E+00 0. -1.
         23    2    1    2    0    0  0.00000000000E+00  0.00000000000E+00  0.00000000000E+00  0.80000000000E+02  0.80000000000E+02 0.  0.
          5    1    3    3  501    0 -0.27917627708E+02 -0.17207142118E+02 -0.22414957579E+02  0.40000000000E+02  0.47000000000E+01 0. -1.
         -5    1    3    3    0  501  0.27917627708E+02  0.17207142118E+02  0.22414957579E+02  0.40000000000E+02  0.47000000000E+01 0.  1.
</event>
<event>
 5    1  0.4781763E-001  0.8000000E+02  0.7546771E-02  0.1203772E+00
         11   -1    0    0    0    0  0.00000000000E+00  0.00000000000E+00  0.40000000000E+02  0.40000000000E+02  0.00000000000E+00 0. -1.
        -11   -1    0    0    0    0 -0.00000000000E+00 -0.00000000000E+00 -0.40000000000E+02  0.40000000000E+02  0.00000000000E+00 0.  1.
         23    2    1    2    0    0  0.00000000000E+00  0.00000000000E+00  0.00000000000E+00  0.80000000000E+02  0.80000000000E+02 0.  0.
          5    1    3    3  501    0  0.16306378818E+02 -0.58290879899E+01 -0.35749597803E+02  0.40000000000E+02  0.47000000000E+01 0.  1.
         -5    1    3    3    0  501 -0.16306378818E+02  0.58290879899E+01  0.35749597803E+02  0.40000000000E+02  0.47000000000E+01 0. -1.
</event>
<event>
 5    1  0.4781763E-001  0.8000000E+02  0.7546771E-02  0.1203772E+00
         11   -1    0    0    0    0  0.00000000000E+00  0.00000000000E+00  0.40000000000E+02  0.40000000000E+02  0.00000000000E+00 0.  1.
        -11   -1    0    0    0    0 -0.00000000000E+00 -0.00000000000E+00 -0.40000000000E+02  0.40000000000E+02  0.00000000000E+00 0. -1.
         23    2    1    2    0    0  0.00000000000E+00  0.00000000000E+00  0.00000000000E+00  0.80000000000E+02  0.80000000000E+02 0.  0.
          5    1    3    3  501    0 -0.19660312357E+02 -0.17798216567E+02 -0.29573731673E+02  0.40000000000E+02  0.47000000000E+01 0. -1.
         -5    1    3    3    0  501  0.19660312357E+02  0.17798216567E+02  0.29573731673E+02  0.40000000000E+02  0.47000000000E+01 0.  1.
</event>
<event>
 5    1  0.4781763E-001  0.8000000E+02  0.7546771E-02  0.1203772E+00
         11   -1    0    0    0    0  0.00000000000E+00  0.00000000000E+00  0.40000000000E+02  0.40000000000E+02  0.00000000000E+00 0.  1.
        -11   -1    0    0    0    0 -0.00000000000E+00 -0.00000000000E+00 -0.40000000000E+02  0.40000000000E+02  0.00000000000E+00 0. -1.
         23    2    1    2    0    0  0.00000000000E+00  0.00000000000E+00  0.00000000000E+00  0.80000000000E+02  0.80000000000E+02 0.  0.
          5    1    3    3  501    0 -0.23693248698E+02 -0.31606062327E+02  0.41948528354E+01  0.40000000000E+02  0.47000000000E+01 0. -1.
         -5    1    3    3    0  501  0.23693248698E+02  0.31606062327E+02 -0.41948528354E+01  0.40000000000E+02  0.47000000000E+01 0.  1.
</event>
<event>
 5    1  0.4781763E-001  0.8000000E+02  0.7546771E-02  0.1203772E+00
         11   -1    0    0    0    0  0.00000000000E+00  0.00000000000E+00  0.40000000000E+02  0.40000000000E+02  0.00000000000E+00 0.  1.
        -11   -1    0    0    0    0 -0.00000000000E+00 -0.00000000000E+00 -0.40000000000E+02  0.40000000000E+02  0.00000000000E+00 0. -1.
         23    2    1    2    0    0  0.00000000000E+00  0.00000000000E+00  0.00000000000E+00  0.80000000000E+02  0.80000000000E+02 0.  0.
          5    1    3    3  501    0  0.28886466396E+02 -0.15093840106E+02 -0.22708105381E+02  0.40000000000E+02  0.47000000000E+01 0. -1.
         -5    1    3    3    0  501 -0.28886466396E+02  0.15093840106E+02  0.22708105381E+02  0.40000000000E+02  0.47000000000E+01 0.  1.
</event>
<event>
 5    1  0.4781763E-001  0.8000000E+02  0.7546771E-02  0.1203772E+00
         11   -1    0    0    0    0  0.00000000000E+00  0.00000000000E+00  0.40000000000E+02  0.40000000000E+02  0.00000000000E+00 0.  1.
        -11   -1    0    0    0    0 -0.00000000000E+00 -0.00000000000E+00 -0.40000000000E+02  0.40000000000E+02  0.00000000000E+00 0. -1.
         23    2    1    2    0    0  0.00000000000E+00  0.00000000000E+00  0.00000000000E+00  0.80000000000E+02  0.80000000000E+02 0.  0.
          5    1    3    3  501    0  0.38414412045E+02  0.93375906550E+01  0.38797355599E+01  0.40000000000E+02  0.47000000000E+01 0. -1.
         -5    1    3    3    0  501 -0.38414412045E+02 -0.93375906550E+01 -0.38797355599E+01  0.40000000000E+02  0.47000000000E+01 0.  1.
</event>
<event>
 5    1  0.4781763E-001  0.8000000E+02  0.7546771E-02  0.1203772E+00
         11   -1    0    0    0    0  0.00000000000E+00  0.00000000000E+00  0.40000000000E+02  0.40000000000E+02  0.00000000000E+00 0.  1.
        -11   -1    0    0    0    0 -0.00000000000E+00 -0.00000000000E+00 -0.40000000000E+02  0.40000000000E+02  0.00000000000E+00 0. -1.
         23    2    1    2    0    0  0.00000000000E+00  0.00000000000E+00  0.00000000000E+00  0.80000000000E+02  0.80000000000E+02 0.  0.
          5    1    3    3  501    0 -0.30878975450E+02  0.23487225865E+02 -0.85293080774E+01  0.40000000000E+02  0.47000000000E+01 0. -1.
         -5    1    3    3    0  501  0.30878975450E+02 -0.23487225865E+02  0.85293080774E+01  0.40000000000E+02  0.47000000000E+01 0.  1.
</event>
<event>
 5    1  0.4781763E-001  0.8000000E+02  0.7546771E-02  0.1203772E+00
         11   -1    0    0    0    0  0.00000000000E+00  0.00000000000E+00  0.40000000000E+02  0.40000000000E+02  0.00000000000E+00 0. -1.
        -11   -1    0    0    0    0 -0.00000000000E+00 -0.00000000000E+00 -0.40000000000E+02  0.40000000000E+02  0.00000000000E+00 0.  1.
         23    2    1    2    0    0  0.00000000000E+00  0.00000000000E+00  0.00000000000E+00  0.80000000000E+02  0.80000000000E+02 0.  0.
          5    1    3    3  501    0 -0.12404966494E+02 -0.19237149924E+02  0.32464732697E+02  0.40000000000E+02  0.47000000000E+01 0. -1.
         -5    1    3    3    0  501  0.12404966494E+02  0.19237149924E+02 -0.32464732697E+02  0.40000000000E+02  0.47000000000E+01 0.  1.
</event>
<event>
 5    1  0.4781763E-001  0.8000000E+02  0.7546771E-02  0.1203772E+00
         11   -1    0    0    0    0  0.00000000000E+00  0.00000000000E+00  0.40000000000E+02  0.40000000000E+02  0.00000000000E+00 0.  1.
        -11   -1    0    0    0    0 -0.00000000000E+00 -0.00000000000E+00 -0.40000000000E+02  0.40000000000E+02  0.00000000000E+00 0. -1.
         23    2    1    2    0    0  0.00000000000E+00  0.00000000000E+00  0.00000000000E+00  0.80000000000E+02  0.80000000000E+02 0.  0.
          5    1    3    3  501    0  0.22403551271E+02  0.26042096888E+01 -0.32698761175E+02  0.40000000000E+02  0.47000000000E+01 0. -1.
         -5    1    3    3    0  501 -0.22403551271E+02 -0.26042096888E+01  0.32698761175E+02  0.40000000000E+02  0.47000000000E+01 0.  1.
</event>
<event>
 5    1  0.4781763E-001  0.8000000E+02  0.7546771E-02  0.1203772E+00
         11   -1    0    0    0    0  0.00000000000E+00  0.00000000000E+00  0.40000000000E+02  0.40000000000E+02  0.00000000000E+00 0.  1.
        -11   -1    0    0    0    0 -0.00000000000E+00 -0.00000000000E+00 -0.40000000000E+02  0.40000000000E+02  0.00000000000E+00 0. -1.
         23    2    1    2    0    0  0.00000000000E+00  0.00000000000E+00  0.00000000000E+00  0.80000000000E+02  0.80000000000E+02 0.  0.
          5    1    3    3  501    0 -0.14882608377E+02 -0.14513919921E+02 -0.33849137307E+02  0.40000000000E+02  0.47000000000E+01 0. -1.
         -5    1    3    3    0  501  0.14882608377E+02  0.14513919921E+02  0.33849137307E+02  0.40000000000E+02  0.47000000000E+01 0.  1.
</event>
<event>
 5    1  0.4781763E-001  0.8000000E+02  0.7546771E-02  0.1203772E+00
         11   -1    0    0    0    0  0.00000000000E+00  0.00000000000E+00  0.40000000000E+02  0.40000000000E+02  0.00000000000E+00 0.  1.
        -11   -1    0    0    0    0 -0.00000000000E+00 -0.00000000000E+00 -0.40000000000E+02  0.40000000000E+02  0.00000000000E+00 0. -1.
         23    2    1    2    0    0  0.00000000000E+00  0.00000000000E+00  0.00000000000E+00  0.80000000000E+02  0.80000000000E+02 0.  0.
          5    1    3    3  501    0 -0.34495781302E+02  0.17507753724E+02 -0.90238368703E+01  0.40000000000E+02  0.47000000000E+01 0. -1.
         -5    1    3    3    0  501  0.34495781302E+02 -0.17507753724E+02  0.90238368703E+01  0.40000000000E+02  0.47000000000E+01 0.  1.
</event>
<event>
 5    1  0.4781763E-001  0.8000000E+02  0.7546771E-02  0.1203772E+00
         11   -1    0    0    0    0  0.00000000000E+00  0.00000000000E+00  0.40000000000E+02  0.40000000000E+02  0.00000000000E+00 0.  1.
        -11   -1    0    0    0    0 -0.00000000000E+00 -0.00000000000E+00 -0.40000000000E+02  0.40000000000E+02  0.00000000000E+00 0. -1.
         23    2    1    2    0    0  0.00000000000E+00  0.00000000000E+00  0.00000000000E+00  0.80000000000E+02  0.80000000000E+02 0.  0.
          5    1    3    3  501    0  0.28948142737E+02  0.26904200330E+02  0.40098674164E+01  0.40000000000E+02  0.47000000000E+01 0. -1.
         -5    1    3    3    0  501 -0.28948142737E+02 -0.26904200330E+02 -0.40098674164E+01  0.40000000000E+02  0.47000000000E+01 0.  1.
</event>
<event>
 5    1  0.4781763E-001  0.8000000E+02  0.7546771E-02  0.1203772E+00
         11   -1    0    0    0    0  0.00000000000E+00  0.00000000000E+00  0.40000000000E+02  0.40000000000E+02  0.00000000000E+00 0.  1.
        -11   -1    0    0    0    0 -0.00000000000E+00 -0.00000000000E+00 -0.40000000000E+02  0.40000000000E+02  0.00000000000E+00 0. -1.
         23    2    1    2    0    0  0.00000000000E+00  0.00000000000E+00  0.00000000000E+00  0.80000000000E+02  0.80000000000E+02 0.  0.
          5    1    3    3  501    0 -0.17461098135E+01  0.38634602085E+02 -0.90679999025E+01  0.40000000000E+02  0.47000000000E+01 0. -1.
         -5    1    3    3    0  501  0.17461098135E+01 -0.38634602085E+02  0.90679999025E+01  0.40000000000E+02  0.47000000000E+01 0.  1.
</event>
<event>
 5    1  0.4781763E-001  0.8000000E+02  0.7546771E-02  0.1203772E+00
         11   -1    0    0    0    0  0.00000000000E+00  0.00000000000E+00  0.40000000000E+02  0.40000000000E+02  0.00000000000E+00 0. -1.
        -11   -1    0    0    0    0 -0.00000000000E+00 -0.00000000000E+00 -0.40000000000E+02  0.40000000000E+02  0.00000000000E+00 0.  1.
         23    2    1    2    0    0  0.00000000000E+00  0.00000000000E+00  0.00000000000E+00  0.80000000000E+02  0.80000000000E+02 0.  0.
          5    1    3    3  501    0 -0.29355790849E+02 -0.70487133187E+01  0.25815948253E+02  0.40000000000E+02  0.47000000000E+01 0. -1.
         -5    1    3    3    0  501  0.29355790849E+02  0.70487133187E+01 -0.25815948253E+02  0.40000000000E+02  0.47000000000E+01 0.  1.
</event>
<event>
 5    1  0.4781763E-001  0.8000000E+02  0.7546771E-02  0.1203772E+00
         11   -1    0    0    0    0  0.00000000000E+00  0.00000000000E+00  0.40000000000E+02  0.40000000000E+02  0.00000000000E+00 0. -1.
        -11   -1    0    0    0    0 -0.00000000000E+00 -0.00000000000E+00 -0.40000000000E+02  0.40000000000E+02  0.00000000000E+00 0.  1.
         23    2    1    2    0    0  0.00000000000E+00  0.00000000000E+00  0.00000000000E+00  0.80000000000E+02  0.80000000000E+02 0.  0.
          5    1    3    3  501    0  0.88411934223E-01  0.20142936506E+02  0.34236884967E+02  0.40000000000E+02  0.47000000000E+01 0. -1.
         -5    1    3    3    0  501 -0.88411934223E-01 -0.20142936506E+02 -0.34236884967E+02  0.40000000000E+02  0.47000000000E+01 0.  1.
</event>
<event>
 5    1  0.4781763E-001  0.8000000E+02  0.7546771E-02  0.1203772E+00
         11   -1    0    0    0    0  0.00000000000E+00  0.00000000000E+00  0.40000000000E+02  0.40000000000E+02  0.00000000000E+00 0.  1.
        -11   -1    0    0    0    0 -0.00000000000E+00 -0.00000000000E+00 -0.40000000000E+02  0.40000000000E+02  0.00000000000E+00 0. -1.
         23    2    1    2    0    0  0.00000000000E+00  0.00000000000E+00  0.00000000000E+00  0.80000000000E+02  0.80000000000E+02 0.  0.
          5    1    3    3  501    0 -0.38176705709E+02  0.90636928049E+01 -0.61885873963E+01  0.40000000000E+02  0.47000000000E+01 0. -1.
         -5    1    3    3    0  501  0.38176705709E+02 -0.90636928049E+01  0.61885873963E+01  0.40000000000E+02  0.47000000000E+01 0.  1.
</event>
<event>
 5    1  0.4781763E-001  0.8000000E+02  0.7546771E-02  0.1203772E+00
         11   -1    0    0    0    0  0.00000000000E+00  0.00000000000E+00  0.40000000000E+02  0.40000000000E+02  0.00000000000E+00 0.  1.
        -11   -1    0    0    0    0 -0.00000000000E+00 -0.00000000000E+00 -0.40000000000E+02  0.40000000000E+02  0.00000000000E+00 0. -1.
         23    2    1    2    0    0  0.00000000000E+00  0.00000000000E+00  0.00000000000E+00  0.80000000000E+02  0.80000000000E+02 0.  0.
          5    1    3    3  501    0  0.74253635523E+01 -0.33598125020E+02  0.19847921082E+02  0.40000000000E+02  0.47000000000E+01 0. -1.
         -5    1    3    3    0  501 -0.74253635523E+01  0.33598125020E+02 -0.19847921082E+02  0.40000000000E+02  0.47000000000E+01 0.  1.
</event>
<event>
 5    1  0.4781763E-001  0.8000000E+02  0.7546771E-02  0.1203772E+00
         11   -1    0    0    0    0  0.00000000000E+00  0.00000000000E+00  0.40000000000E+02  0.40000000000E+02  0.00000000000E+00 0. -1.
        -11   -1    0    0    0    0 -0.00000000000E+00 -0.00000000000E+00 -0.40000000000E+02  0.40000000000E+02  0.00000000000E+00 0.  1.
         23    2    1    2    0    0  0.00000000000E+00  0.00000000000E+00  0.00000000000E+00  0.80000000000E+02  0.80000000000E+02 0.  0.
          5    1    3    3  501    0 -0.32725192305E+02  0.20666065993E+02 -0.89378691532E+01  0.40000000000E+02  0.47000000000E+01 0. -1.
         -5    1    3    3    0  501  0.32725192305E+02 -0.20666065993E+02  0.89378691532E+01  0.40000000000E+02  0.47000000000E+01 0.  1.
</event>
<event>
 5    1  0.4781763E-001  0.8000000E+02  0.7546771E-02  0.1203772E+00
         11   -1    0    0    0    0  0.00000000000E+00  0.00000000000E+00  0.40000000000E+02  0.40000000000E+02  0.00000000000E+00 0.  1.
        -11   -1    0    0    0    0 -0.00000000000E+00 -0.00000000000E+00 -0.40000000000E+02  0.40000000000E+02  0.00000000000E+00 0. -1.
         23    2    1    2    0    0  0.00000000000E+00  0.00000000000E+00  0.00000000000E+00  0.80000000000E+02  0.80000000000E+02 0.  0.
          5    1    3    3  501    0  0.15934459073E+02  0.36349811041E+02  0.16414174810E+01  0.40000000000E+02  0.47000000000E+01 0. -1.
         -5    1    3    3    0  501 -0.15934459073E+02 -0.36349811041E+02 -0.16414174810E+01  0.40000000000E+02  0.47000000000E+01 0.  1.
</event>
<event>
 5    1  0.4781763E-001  0.8000000E+02  0.7546771E-02  0.1203772E+00
         11   -1    0    0    0    0  0.00000000000E+00  0.00000000000E+00  0.40000000000E+02  0.40000000000E+02  0.00000000000E+00 0. -1.
        -11   -1    0    0    0    0 -0.00000000000E+00 -0.00000000000E+00 -0.40000000000E+02  0.40000000000E+02  0.00000000000E+00 0.  1.
         23    2    1    2    0    0  0.00000000000E+00  0.00000000000E+00  0.00000000000E+00  0.80000000000E+02  0.80000000000E+02 0.  0.
          5    1    3    3  501    0  0.19819481589E+02 -0.32057685183E+02 -0.12546034044E+02  0.40000000000E+02  0.47000000000E+01 0.  1.
         -5    1    3    3    0  501 -0.19819481589E+02  0.32057685183E+02  0.12546034044E+02  0.40000000000E+02  0.47000000000E+01 0. -1.
</event>
<event>
 5    1  0.4781763E-001  0.8000000E+02  0.7546771E-02  0.1203772E+00
         11   -1    0    0    0    0  0.00000000000E+00  0.00000000000E+00  0.40000000000E+02  0.40000000000E+02  0.00000000000E+00 0.  1.
        -11   -1    0    0    0    0 -0.00000000000E+00 -0.00000000000E+00 -0.40000000000E+02  0.40000000000E+02  0.00000000000E+00 0. -1.
         23    2    1    2    0    0  0.00000000000E+00  0.00000000000E+00  0.00000000000E+00  0.80000000000E+02  0.80000000000E+02 0.  0.
          5    1    3    3  501    0  0.78905095621E+01  0.10871180870E+02 -0.37382713724E+02  0.40000000000E+02  0.47000000000E+01 0. -1.
         -5    1    3    3    0  501 -0.78905095621E+01 -0.10871180870E+02  0.37382713724E+02  0.40000000000E+02  0.47000000000E+01 0.  1.
</event>
<event>
 5    1  0.4781763E-001  0.8000000E+02  0.7546771E-02  0.1203772E+00
         11   -1    0    0    0    0  0.00000000000E+00  0.00000000000E+00  0.40000000000E+02  0.40000000000E+02  0.00000000000E+00 0. -1.
        -11   -1    0    0    0    0 -0.00000000000E+00 -0.00000000000E+00 -0.40000000000E+02  0.40000000000E+02  0.00000000000E+00 0.  1.
         23    2    1    2    0    0  0.00000000000E+00  0.00000000000E+00  0.00000000000E+00  0.80000000000E+02  0.80000000000E+02 0.  0.
          5    1    3    3  501    0  0.19611363356E+02  0.10584050208E+02  0.32882857365E+02  0.40000000000E+02  0.47000000000E+01 0. -1.
         -5    1    3    3    0  501 -0.19611363356E+02 -0.10584050208E+02 -0.32882857365E+02  0.40000000000E+02  0.47000000000E+01 0.  1.
</event>
<event>
 5    1  0.4781763E-001  0.8000000E+02  0.7546771E-02  0.1203772E+00
         11   -1    0    0    0    0  0.00000000000E+00  0.00000000000E+00  0.40000000000E+02  0.40000000000E+02  0.00000000000E+00 0.  1.
        -11   -1    0    0    0    0 -0.00000000000E+00 -0.00000000000E+00 -0.40000000000E+02  0.40000000000E+02  0.00000000000E+00 0. -1.
         23    2    1    2    0    0  0.00000000000E+00  0.00000000000E+00  0.00000000000E+00  0.80000000000E+02  0.80000000000E+02 0.  0.
          5    1    3    3  501    0  0.15869965768E+02  0.36359395003E+02 -0.20121087409E+01  0.40000000000E+02  0.47000000000E+01 0. -1.
         -5    1    3    3    0  501 -0.15869965768E+02 -0.36359395003E+02  0.20121087409E+01  0.40000000000E+02  0.47000000000E+01 0.  1.
</event>
<event>
 5    1  0.4781763E-001  0.8000000E+02  0.7546771E-02  0.1203772E+00
         11   -1    0    0    0    0  0.00000000000E+00  0.00000000000E+00  0.40000000000E+02  0.40000000000E+02  0.00000000000E+00 0. -1.
        -11   -1    0    0    0    0 -0.00000000000E+00 -0.00000000000E+00 -0.40000000000E+02  0.40000000000E+02  0.00000000000E+00 0.  1.
         23    2    1    2    0    0  0.00000000000E+00  0.00000000000E+00  0.00000000000E+00  0.80000000000E+02  0.80000000000E+02 0.  0.
          5    1    3    3  501    0 -0.21747779596E+02 -0.25824454704E+02  0.20929443898E+02  0.40000000000E+02  0.47000000000E+01 0. -1.
         -5    1    3    3    0  501  0.21747779596E+02  0.25824454704E+02 -0.20929443898E+02  0.40000000000E+02  0.47000000000E+01 0.  1.
</event>
<event>
 5    1  0.4781763E-001  0.8000000E+02  0.7546771E-02  0.1203772E+00
         11   -1    0    0    0    0  0.00000000000E+00  0.00000000000E+00  0.40000000000E+02  0.40000000000E+02  0.00000000000E+00 0. -1.
        -11   -1    0    0    0    0 -0.00000000000E+00 -0.00000000000E+00 -0.40000000000E+02  0.40000000000E+02  0.00000000000E+00 0.  1.
         23    2    1    2    0    0  0.00000000000E+00  0.00000000000E+00  0.00000000000E+00  0.80000000000E+02  0.80000000000E+02 0.  0.
          5    1    3    3  501    0 -0.39546977210E+02  0.33806074487E+01 -0.15868480908E+01  0.40000000000E+02  0.47000000000E+01 0.  1.
         -5    1    3    3    0  501  0.39546977210E+02 -0.33806074487E+01  0.15868480908E+01  0.40000000000E+02  0.47000000000E+01 0. -1.
</event>
<event>
 5    1  0.4781763E-001  0.8000000E+02  0.7546771E-02  0.1203772E+00
         11   -1    0    0    0    0  0.00000000000E+00  0.00000000000E+00  0.40000000000E+02  0.40000000000E+02  0.00000000000E+00 0.  1.
        -11   -1    0    0    0    0 -0.00000000000E+00 -0.00000000000E+00 -0.40000000000E+02  0.40000000000E+02  0.00000000000E+00 0. -1.
         23    2    1    2    0    0  0.00000000000E+00  0.00000000000E+00  0.00000000000E+00  0.80000000000E+02  0.80000000000E+02 0.  0.
          5    1    3    3  501    0 -0.32961656114E+02  0.21821327817E+02 -0.39075412317E+01  0.40000000000E+02  0.47000000000E+01 0. -1.
         -5    1    3    3    0  501  0.32961656114E+02 -0.21821327817E+02  0.39075412317E+01  0.40000000000E+02  0.47000000000E+01 0.  1.
</event>
<event>
 5    1  0.4781763E-001  0.8000000E+02  0.7546771E-02  0.1203772E+00
         11   -1    0    0    0    0  0.00000000000E+00  0.00000000000E+00  0.40000000000E+02  0.40000000000E+02  0.00000000000E+00 0.  1.
        -11   -1    0    0    0    0 -0.00000000000E+00 -0.00000000000E+00 -0.40000000000E+02  0.40000000000E+02  0.00000000000E+00 0. -1.
         23    2    1    2    0    0  0.00000000000E+00  0.00000000000E+00  0.00000000000E+00  0.80000000000E+02  0.80000000000E+02 0.  0.
          5    1    3    3  501    0 -0.25581314982E+02 -0.28979212610E+02  0.91494021802E+01  0.40000000000E+02  0.47000000000E+01 0. -1.
         -5    1    3    3    0  501  0.25581314982E+02  0.28979212610E+02 -0.91494021802E+01  0.40000000000E+02  0.47000000000E+01 0.  1.
</event>
<event>
 5    1  0.4781763E-001  0.8000000E+02  0.7546771E-02  0.1203772E+00
         11   -1    0    0    0    0  0.00000000000E+00  0.00000000000E+00  0.40000000000E+02  0.40000000000E+02  0.00000000000E+00 0.  1.
        -11   -1    0    0    0    0 -0.00000000000E+00 -0.00000000000E+00 -0.40000000000E+02  0.40000000000E+02  0.00000000000E+00 0. -1.
         23    2    1    2    0    0  0.00000000000E+00  0.00000000000E+00  0.00000000000E+00  0.80000000000E+02  0.80000000000E+02 0.  0.
          5    1    3    3  501    0  0.14427614853E+02  0.13485408140E+02 -0.34465891791E+02  0.40000000000E+02  0.47000000000E+01 0. -1.
         -5    1    3    3    0  501 -0.14427614853E+02 -0.13485408140E+02  0.34465891791E+02  0.40000000000E+02  0.47000000000E+01 0.  1.
</event>
<event>
 5    1  0.4781763E-001  0.8000000E+02  0.7546771E-02  0.1203772E+00
         11   -1    0    0    0    0  0.00000000000E+00  0.00000000000E+00  0.40000000000E+02  0.40000000000E+02  0.00000000000E+00 0. -1.
        -11   -1    0    0    0    0 -0.00000000000E+00 -0.00000000000E+00 -0.40000000000E+02  0.40000000000E+02  0.00000000000E+00 0.  1.
         23    2    1    2    0    0  0.00000000000E+00  0.00000000000E+00  0.00000000000E+00  0.80000000000E+02  0.80000000000E+02 0.  0.
          5    1    3    3  501    0  0.32444282102E+02  0.22911717069E+02  0.57600333964E+00  0.40000000000E+02  0.47000000000E+01 0. -1.
         -5    1    3    3    0  501 -0.32444282102E+02 -0.22911717069E+02 -0.57600333964E+00  0.40000000000E+02  0.47000000000E+01 0.  1.
</event>
<event>
 5    1  0.4781763E-001  0.8000000E+02  0.7546771E-02  0.1203772E+00
         11   -1    0    0    0    0  0.00000000000E+00  0.00000000000E+00  0.40000000000E+02  0.40000000000E+02  0.00000000000E+00 0. -1.
        -11   -1    0    0    0    0 -0.00000000000E+00 -0.00000000000E+00 -0.40000000000E+02  0.40000000000E+02  0.00000000000E+00 0.  1.
         23    2    1    2    0    0  0.00000000000E+00  0.00000000000E+00  0.00000000000E+00  0.80000000000E+02  0.80000000000E+02 0.  0.
          5    1    3    3  501    0 -0.16268662618E+02 -0.36171156170E+02  0.22108997950E+01  0.40000000000E+02  0.47000000000E+01 0.  1.
         -5    1    3    3    0  501  0.16268662618E+02  0.36171156170E+02 -0.22108997950E+01  0.40000000000E+02  0.47000000000E+01 0. -1.
</event>
<event>
 5    1  0.4781763E-001  0.8000000E+02  0.7546771E-02  0.1203772E+00
         11   -1    0    0    0    0  0.00000000000E+00  0.00000000000E+00  0.40000000000E+02  0.40000000000E+02  0.00000000000E+00 0.  1.
        -11   -1    0    0    0    0 -0.00000000000E+00 -0.00000000000E+00 -0.40000000000E+02  0.40000000000E+02  0.00000000000E+00 0. -1.
         23    2    1    2    0    0  0.00000000000E+00  0.00000000000E+00  0.00000000000E+00  0.80000000000E+02  0.80000000000E+02 0.  0.
          5    1    3    3  501    0 -0.84569583772E+00  0.11816785061E+02 -0.37915147229E+02  0.40000000000E+02  0.47000000000E+01 0. -1.
         -5    1    3    3    0  501  0.84569583772E+00 -0.11816785061E+02  0.37915147229E+02  0.40000000000E+02  0.47000000000E+01 0.  1.
</event>
<event>
 5    1  0.4781763E-001  0.8000000E+02  0.7546771E-02  0.1203772E+00
         11   -1    0    0    0    0  0.00000000000E+00  0.00000000000E+00  0.40000000000E+02  0.40000000000E+02  0.00000000000E+00 0. -1.
        -11   -1    0    0    0    0 -0.00000000000E+00 -0.00000000000E+00 -0.40000000000E+02  0.40000000000E+02  0.00000000000E+00 0.  1.
         23    2    1    2    0    0  0.00000000000E+00  0.00000000000E+00  0.00000000000E+00  0.80000000000E+02  0.80000000000E+02 0.  0.
          5    1    3    3  501    0 -0.37966149937E+01 -0.39523333359E+02 -0.11839910548E+01  0.40000000000E+02  0.47000000000E+01 0.  1.
         -5    1    3    3    0  501  0.37966149937E+01  0.39523333359E+02  0.11839910548E+01  0.40000000000E+02  0.47000000000E+01 0. -1.
</event>
<event>
 5    1  0.4781763E-001  0.8000000E+02  0.7546771E-02  0.1203772E+00
         11   -1    0    0    0    0  0.00000000000E+00  0.00000000000E+00  0.40000000000E+02  0.40000000000E+02  0.00000000000E+00 0.  1.
        -11   -1    0    0    0    0 -0.00000000000E+00 -0.00000000000E+00 -0.40000000000E+02  0.40000000000E+02  0.00000000000E+00 0. -1.
         23    2    1    2    0    0  0.00000000000E+00  0.00000000000E+00  0.00000000000E+00  0.80000000000E+02  0.80000000000E+02 0.  0.
          5    1    3    3  501    0  0.26568678171E+02 -0.73428293873E+01 -0.28602415927E+02  0.40000000000E+02  0.47000000000E+01 0. -1.
         -5    1    3    3    0  501 -0.26568678171E+02  0.73428293873E+01  0.28602415927E+02  0.40000000000E+02  0.47000000000E+01 0.  1.
</event>
<event>
 5    1  0.4781763E-001  0.8000000E+02  0.7546771E-02  0.1203772E+00
         11   -1    0    0    0    0  0.00000000000E+00  0.00000000000E+00  0.40000000000E+02  0.40000000000E+02  0.00000000000E+00 0.  1.
        -11   -1    0    0    0    0 -0.00000000000E+00 -0.00000000000E+00 -0.40000000000E+02  0.40000000000E+02  0.00000000000E+00 0. -1.
         23    2    1    2    0    0  0.00000000000E+00  0.00000000000E+00  0.00000000000E+00  0.80000000000E+02  0.80000000000E+02 0.  0.
          5    1    3    3  501    0  0.26747227567E+01 -0.75113607179E+01 -0.38914461558E+02  0.40000000000E+02  0.47000000000E+01 0. -1.
         -5    1    3    3    0  501 -0.26747227567E+01  0.75113607179E+01  0.38914461558E+02  0.40000000000E+02  0.47000000000E+01 0.  1.
</event>
<event>
 5    1  0.4781763E-001  0.8000000E+02  0.7546771E-02  0.1203772E+00
         11   -1    0    0    0    0  0.00000000000E+00  0.00000000000E+00  0.40000000000E+02  0.40000000000E+02  0.00000000000E+00 0.  1.
        -11   -1    0    0    0    0 -0.00000000000E+00 -0.00000000000E+00 -0.40000000000E+02  0.40000000000E+02  0.00000000000E+00 0. -1.
         23    2    1    2    0    0  0.00000000000E+00  0.00000000000E+00  0.00000000000E+00  0.80000000000E+02  0.80000000000E+02 0.  0.
          5    1    3    3  501    0  0.10749689274E+02 -0.37764302766E+02 -0.60176089180E+01  0.40000000000E+02  0.47000000000E+01 0. -1.
         -5    1    3    3    0  501 -0.10749689274E+02  0.37764302766E+02  0.60176089180E+01  0.40000000000E+02  0.47000000000E+01 0.  1.
</event>
<event>
 5    1  0.4781763E-001  0.8000000E+02  0.7546771E-02  0.1203772E+00
         11   -1    0    0    0    0  0.00000000000E+00  0.00000000000E+00  0.40000000000E+02  0.40000000000E+02  0.00000000000E+00 0.  1.
        -11   -1    0    0    0    0 -0.00000000000E+00 -0.00000000000E+00 -0.40000000000E+02  0.40000000000E+02  0.00000000000E+00 0. -1.
         23    2    1    2    0    0  0.00000000000E+00  0.00000000000E+00  0.00000000000E+00  0.80000000000E+02  0.80000000000E+02 0.  0.
          5    1    3    3  501    0 -0.35149851999E+02  0.43072299967E+00 -0.18498983273E+02  0.40000000000E+02  0.47000000000E+01 0. -1.
         -5    1    3    3    0  501  0.35149851999E+02 -0.43072299967E+00  0.18498983273E+02  0.40000000000E+02  0.47000000000E+01 0.  1.
</event>
<event>
 5    1  0.4781763E-001  0.8000000E+02  0.7546771E-02  0.1203772E+00
         11   -1    0    0    0    0  0.00000000000E+00  0.00000000000E+00  0.40000000000E+02  0.40000000000E+02  0.00000000000E+00 0.  1.
        -11   -1    0    0    0    0 -0.00000000000E+00 -0.00000000000E+00 -0.40000000000E+02  0.40000000000E+02  0.00000000000E+00 0. -1.
         23    2    1    2    0    0  0.00000000000E+00  0.00000000000E+00  0.00000000000E+00  0.80000000000E+02  0.80000000000E+02 0.  0.
          5    1    3    3  501    0  0.39061511624E+02 -0.22742832880E+01 -0.68509813315E+01  0.40000000000E+02  0.47000000000E+01 0. -1.
         -5    1    3    3    0  501 -0.39061511624E+02  0.22742832880E+01  0.68509813315E+01  0.40000000000E+02  0.47000000000E+01 0.  1.
</event>
<event>
 5    1  0.4781763E-001  0.8000000E+02  0.7546771E-02  0.1203772E+00
         11   -1    0    0    0    0  0.00000000000E+00  0.00000000000E+00  0.40000000000E+02  0.40000000000E+02  0.00000000000E+00 0. -1.
        -11   -1    0    0    0    0 -0.00000000000E+00 -0.00000000000E+00 -0.40000000000E+02  0.40000000000E+02  0.00000000000E+00 0.  1.
         23    2    1    2    0    0  0.00000000000E+00  0.00000000000E+00  0.00000000000E+00  0.80000000000E+02  0.80000000000E+02 0.  0.
          5    1    3    3  501    0 -0.28578001896E+02  0.21537936405E+02  0.17243117556E+02  0.40000000000E+02  0.47000000000E+01 0. -1.
         -5    1    3    3    0  501  0.28578001896E+02 -0.21537936405E+02 -0.17243117556E+02  0.40000000000E+02  0.47000000000E+01 0.  1.
</event>
<event>
 5    1  0.4781763E-001  0.8000000E+02  0.7546771E-02  0.1203772E+00
         11   -1    0    0    0    0  0.00000000000E+00  0.00000000000E+00  0.40000000000E+02  0.40000000000E+02  0.00000000000E+00 0.  1.
        -11   -1    0    0    0    0 -0.00000000000E+00 -0.00000000000E+00 -0.40000000000E+02  0.40000000000E+02  0.00000000000E+00 0. -1.
         23    2    1    2    0    0  0.00000000000E+00  0.00000000000E+00  0.00000000000E+00  0.80000000000E+02  0.80000000000E+02 0.  0.
          5    1    3    3  501    0  0.32775791678E+02 -0.20939909407E+02 -0.80732690989E+01  0.40000000000E+02  0.47000000000E+01 0. -1.
         -5    1    3    3    0  501 -0.32775791678E+02  0.20939909407E+02  0.80732690989E+01  0.40000000000E+02  0.47000000000E+01 0.  1.
</event>
<event>
 5    1  0.4781763E-001  0.8000000E+02  0.7546771E-02  0.1203772E+00
         11   -1    0    0    0    0  0.00000000000E+00  0.00000000000E+00  0.40000000000E+02  0.40000000000E+02  0.00000000000E+00 0. -1.
        -11   -1    0    0    0    0 -0.00000000000E+00 -0.00000000000E+00 -0.40000000000E+02  0.40000000000E+02  0.00000000000E+00 0.  1.
         23    2    1    2    0    0  0.00000000000E+00  0.00000000000E+00  0.00000000000E+00  0.80000000000E+02  0.80000000000E+02 0.  0.
          5    1    3    3  501    0  0.21972169180E+02  0.28571842685E+02  0.16696813682E+02  0.40000000000E+02  0.47000000000E+01 0. -1.
         -5    1    3    3    0  501 -0.21972169180E+02 -0.28571842685E+02 -0.16696813682E+02  0.40000000000E+02  0.47000000000E+01 0.  1.
</event>
<event>
 5    1  0.4781763E-001  0.8000000E+02  0.7546771E-02  0.1203772E+00
         11   -1    0    0    0    0  0.00000000000E+00  0.00000000000E+00  0.40000000000E+02  0.40000000000E+02  0.00000000000E+00 0.  1.
        -11   -1    0    0    0    0 -0.00000000000E+00 -0.00000000000E+00 -0.40000000000E+02  0.40000000000E+02  0.00000000000E+00 0. -1.
         23    2    1    2    0    0  0.00000000000E+00  0.00000000000E+00  0.00000000000E+00  0.80000000000E+02  0.80000000000E+02 0.  0.
          5    1    3    3  501    0 -0.15217084179E+02 -0.46299287495E+01 -0.36399369622E+02  0.40000000000E+02  0.47000000000E+01 0. -1.
         -5    1    3    3    0  501  0.15217084179E+02  0.46299287495E+01  0.36399369622E+02  0.40000000000E+02  0.47000000000E+01 0.  1.
</event>
<event>
 5    1  0.4781763E-001  0.8000000E+02  0.7546771E-02  0.1203772E+00
         11   -1    0    0    0    0  0.00000000000E+00  0.00000000000E+00  0.40000000000E+02  0.40000000000E+02  0.00000000000E+00 0.  1.
        -11   -1    0    0    0    0 -0.00000000000E+00 -0.00000000000E+00 -0.40000000000E+02  0.40000000000E+02  0.00000000000E+00 0. -1.
         23    2    1    2    0    0  0.00000000000E+00  0.00000000000E+00  0.00000000000E+00  0.80000000000E+02  0.80000000000E+02 0.  0.
          5    1    3    3  501    0 -0.16478006169E+00  0.38800010357E+02 -0.85112891990E+01  0.40000000000E+02  0.47000000000E+01 0. -1.
         -5    1    3    3    0  501  0.16478006169E+00 -0.38800010357E+02  0.85112891990E+01  0.40000000000E+02  0.47000000000E+01 0.  1.
</event>
<event>
 5    1  0.4781763E-001  0.8000000E+02  0.7546771E-02  0.1203772E+00
         11   -1    0    0    0    0  0.00000000000E+00  0.00000000000E+00  0.40000000000E+02  0.40000000000E+02  0.00000000000E+00 0.  1.
        -11   -1    0    0    0    0 -0.00000000000E+00 -0.00000000000E+00 -0.40000000000E+02  0.40000000000E+02  0.00000000000E+00 0. -1.
         23    2    1    2    0    0  0.00000000000E+00  0.00000000000E+00  0.00000000000E+00  0.80000000000E+02  0.80000000000E+02 0.  0.
          5    1    3    3  501    0 -0.28306515317E+02 -0.80359928776E+01 -0.26684714896E+02  0.40000000000E+02  0.47000000000E+01 0. -1.
         -5    1    3    3    0  501  0.28306515317E+02  0.80359928776E+01  0.26684714896E+02  0.40000000000E+02  0.47000000000E+01 0.  1.
</event>
<event>
 5    1  0.4781763E-001  0.8000000E+02  0.7546771E-02  0.1203772E+00
         11   -1    0    0    0    0  0.00000000000E+00  0.00000000000E+00  0.40000000000E+02  0.40000000000E+02  0.00000000000E+00 0.  1.
        -11   -1    0    0    0    0 -0.00000000000E+00 -0.00000000000E+00 -0.40000000000E+02  0.40000000000E+02  0.00000000000E+00 0. -1.
         23    2    1    2    0    0  0.00000000000E+00  0.00000000000E+00  0.00000000000E+00  0.80000000000E+02  0.80000000000E+02 0.  0.
          5    1    3    3  501    0 -0.33526695096E+01  0.24794542855E+02 -0.30852880769E+02  0.40000000000E+02  0.47000000000E+01 0. -1.
         -5    1    3    3    0  501  0.33526695096E+01 -0.24794542855E+02  0.30852880769E+02  0.40000000000E+02  0.47000000000E+01 0.  1.
</event>
<event>
 5    1  0.4781763E-001  0.8000000E+02  0.7546771E-02  0.1203772E+00
         11   -1    0    0    0    0  0.00000000000E+00  0.00000000000E+00  0.40000000000E+02  0.40000000000E+02  0.00000000000E+00 0.  1.
        -11   -1    0    0    0    0 -0.00000000000E+00 -0.00000000000E+00 -0.40000000000E+02  0.40000000000E+02  0.00000000000E+00 0. -1.
         23    2    1    2    0    0  0.00000000000E+00  0.00000000000E+00  0.00000000000E+00  0.80000000000E+02  0.80000000000E+02 0.  0.
          5    1    3    3  501    0 -0.26381675910E+02 -0.78849448766E+01 -0.28631186152E+02  0.40000000000E+02  0.47000000000E+01 0. -1.
         -5    1    3    3    0  501  0.26381675910E+02  0.78849448766E+01  0.28631186152E+02  0.40000000000E+02  0.47000000000E+01 0.  1.
</event>
<event>
 5    1  0.4781763E-001  0.8000000E+02  0.7546771E-02  0.1203772E+00
         11   -1    0    0    0    0  0.00000000000E+00  0.00000000000E+00  0.40000000000E+02  0.40000000000E+02  0.00000000000E+00 0.  1.
        -11   -1    0    0    0    0 -0.00000000000E+00 -0.00000000000E+00 -0.40000000000E+02  0.40000000000E+02  0.00000000000E+00 0. -1.
         23    2    1    2    0    0  0.00000000000E+00  0.00000000000E+00  0.00000000000E+00  0.80000000000E+02  0.80000000000E+02 0.  0.
          5    1    3    3  501    0  0.38997494662E+02  0.53647309275E+01  0.53221304151E+01  0.40000000000E+02  0.47000000000E+01 0. -1.
         -5    1    3    3    0  501 -0.38997494662E+02 -0.53647309275E+01 -0.53221304151E+01  0.40000000000E+02  0.47000000000E+01 0.  1.
</event>
<event>
 5    1  0.4781763E-001  0.8000000E+02  0.7546771E-02  0.1203772E+00
         11   -1    0    0    0    0  0.00000000000E+00  0.00000000000E+00  0.40000000000E+02  0.40000000000E+02  0.00000000000E+00 0. -1.
        -11   -1    0    0    0    0 -0.00000000000E+00 -0.00000000000E+00 -0.40000000000E+02  0.40000000000E+02  0.00000000000E+00 0.  1.
         23    2    1    2    0    0  0.00000000000E+00  0.00000000000E+00  0.00000000000E+00  0.80000000000E+02  0.80000000000E+02 0.  0.
          5    1    3    3  501    0 -0.35054301214E+02 -0.15671576154E+02  0.10173871793E+02  0.40000000000E+02  0.47000000000E+01 0. -1.
         -5    1    3    3    0  501  0.35054301214E+02  0.15671576154E+02 -0.10173871793E+02  0.40000000000E+02  0.47000000000E+01 0.  1.
</event>
<event>
 5    1  0.4781763E-001  0.8000000E+02  0.7546771E-02  0.1203772E+00
         11   -1    0    0    0    0  0.00000000000E+00  0.00000000000E+00  0.40000000000E+02  0.40000000000E+02  0.00000000000E+00 0.  1.
        -11   -1    0    0    0    0 -0.00000000000E+00 -0.00000000000E+00 -0.40000000000E+02  0.40000000000E+02  0.00000000000E+00 0. -1.
         23    2    1    2    0    0  0.00000000000E+00  0.00000000000E+00  0.00000000000E+00  0.80000000000E+02  0.80000000000E+02 0.  0.
          5    1    3    3  501    0 -0.34338601545E+02  0.11798756270E+02 -0.16110859519E+02  0.40000000000E+02  0.47000000000E+01 0. -1.
         -5    1    3    3    0  501  0.34338601545E+02 -0.11798756270E+02  0.16110859519E+02  0.40000000000E+02  0.47000000000E+01 0.  1.
</event>
<event>
 5    1  0.4781763E-001  0.8000000E+02  0.7546771E-02  0.1203772E+00
         11   -1    0    0    0    0  0.00000000000E+00  0.00000000000E+00  0.40000000000E+02  0.40000000000E+02  0.00000000000E+00 0. -1.
        -11   -1    0    0    0    0 -0.00000000000E+00 -0.00000000000E+00 -0.40000000000E+02  0.40000000000E+02  0.00000000000E+00 0.  1.
         23    2    1    2    0    0  0.00000000000E+00  0.00000000000E+00  0.00000000000E+00  0.80000000000E+02  0.80000000000E+02 0.  0.
          5    1    3    3  501    0  0.13790358202E+02 -0.34027663560E+02  0.15160941042E+02  0.40000000000E+02  0.47000000000E+01 0. -1.
         -5    1    3    3    0  501 -0.13790358202E+02  0.34027663560E+02 -0.15160941042E+02  0.40000000000E+02  0.47000000000E+01 0.  1.
</event>
<event>
 5    1  0.4781763E-001  0.8000000E+02  0.7546771E-02  0.1203772E+00
         11   -1    0    0    0    0  0.00000000000E+00  0.00000000000E+00  0.40000000000E+02  0.40000000000E+02  0.00000000000E+00 0. -1.
        -11   -1    0    0    0    0 -0.00000000000E+00 -0.00000000000E+00 -0.40000000000E+02  0.40000000000E+02  0.00000000000E+00 0.  1.
         23    2    1    2    0    0  0.00000000000E+00  0.00000000000E+00  0.00000000000E+00  0.80000000000E+02  0.80000000000E+02 0.  0.
          5    1    3    3  501    0 -0.19858435800E+01  0.37462122645E+02  0.13059701076E+02  0.40000000000E+02  0.47000000000E+01 0. -1.
         -5    1    3    3    0  501  0.19858435800E+01 -0.37462122645E+02 -0.13059701076E+02  0.40000000000E+02  0.47000000000E+01 0.  1.
</event>
<event>
 5    1  0.4781763E-001  0.8000000E+02  0.7546771E-02  0.1203772E+00
         11   -1    0    0    0    0  0.00000000000E+00  0.00000000000E+00  0.40000000000E+02  0.40000000000E+02  0.00000000000E+00 0.  1.
        -11   -1    0    0    0    0 -0.00000000000E+00 -0.00000000000E+00 -0.40000000000E+02  0.40000000000E+02  0.00000000000E+00 0. -1.
         23    2    1    2    0    0  0.00000000000E+00  0.00000000000E+00  0.00000000000E+00  0.80000000000E+02  0.80000000000E+02 0.  0.
          5    1    3    3  501    0 -0.18404760497E+02 -0.28198803545E+02 -0.21071361364E+02  0.40000000000E+02  0.47000000000E+01 0. -1.
         -5    1    3    3    0  501  0.18404760497E+02  0.28198803545E+02  0.21071361364E+02  0.40000000000E+02  0.47000000000E+01 0.  1.
</event>
<event>
 5    1  0.4781763E-001  0.8000000E+02  0.7546771E-02  0.1203772E+00
         11   -1    0    0    0    0  0.00000000000E+00  0.00000000000E+00  0.40000000000E+02  0.40000000000E+02  0.00000000000E+00 0.  1.
        -11   -1    0    0    0    0 -0.00000000000E+00 -0.00000000000E+00 -0.40000000000E+02  0.40000000000E+02  0.00000000000E+00 0. -1.
         23    2    1    2    0    0  0.00000000000E+00  0.00000000000E+00  0.00000000000E+00  0.80000000000E+02  0.80000000000E+02 0.  0.
          5    1    3    3  501    0  0.16085269173E+01  0.15156907160E+01 -0.39661383269E+02  0.40000000000E+02  0.47000000000E+01 0. -1.
         -5    1    3    3    0  501 -0.16085269173E+01 -0.15156907160E+01  0.39661383269E+02  0.40000000000E+02  0.47000000000E+01 0.  1.
</event>
<event>
 5    1  0.4781763E-001  0.8000000E+02  0.7546771E-02  0.1203772E+00
         11   -1    0    0    0    0  0.00000000000E+00  0.00000000000E+00  0.40000000000E+02  0.40000000000E+02  0.00000000000E+00 0. -1.
        -11   -1    0    0    0    0 -0.00000000000E+00 -0.00000000000E+00 -0.40000000000E+02  0.40000000000E+02  0.00000000000E+00 0.  1.
         23    2    1    2    0    0  0.00000000000E+00  0.00000000000E+00  0.00000000000E+00  0.80000000000E+02  0.80000000000E+02 0.  0.
          5    1    3    3  501    0 -0.35081944480E+02 -0.10602856489E+02 -0.15321442679E+02  0.40000000000E+02  0.47000000000E+01 0. -1.
         -5    1    3    3    0  501  0.35081944480E+02  0.10602856489E+02  0.15321442679E+02  0.40000000000E+02  0.47000000000E+01 0.  1.
</event>
<event>
 5    1  0.4781763E-001  0.8000000E+02  0.7546771E-02  0.1203772E+00
         11   -1    0    0    0    0  0.00000000000E+00  0.00000000000E+00  0.40000000000E+02  0.40000000000E+02  0.00000000000E+00 0.  1.
        -11   -1    0    0    0    0 -0.00000000000E+00 -0.00000000000E+00 -0.40000000000E+02  0.40000000000E+02  0.00000000000E+00 0. -1.
         23    2    1    2    0    0  0.00000000000E+00  0.00000000000E+00  0.00000000000E+00  0.80000000000E+02  0.80000000000E+02 0.  0.
          5    1    3    3  501    0 -0.10546191584E+02 -0.16748983768E+01 -0.38260718217E+02  0.40000000000E+02  0.47000000000E+01 0. -1.
         -5    1    3    3    0  501  0.10546191584E+02  0.16748983768E+01  0.38260718217E+02  0.40000000000E+02  0.47000000000E+01 0.  1.
</event>
<event>
 5    1  0.4781763E-001  0.8000000E+02  0.7546771E-02  0.1203772E+00
         11   -1    0    0    0    0  0.00000000000E+00  0.00000000000E+00  0.40000000000E+02  0.40000000000E+02  0.00000000000E+00 0.  1.
        -11   -1    0    0    0    0 -0.00000000000E+00 -0.00000000000E+00 -0.40000000000E+02  0.40000000000E+02  0.00000000000E+00 0. -1.
         23    2    1    2    0    0  0.00000000000E+00  0.00000000000E+00  0.00000000000E+00  0.80000000000E+02  0.80000000000E+02 0.  0.
          5    1    3    3  501    0 -0.34692602494E+02  0.19129442227E+02  0.28978910023E+01  0.40000000000E+02  0.47000000000E+01 0. -1.
         -5    1    3    3    0  501  0.34692602494E+02 -0.19129442227E+02 -0.28978910023E+01  0.40000000000E+02  0.47000000000E+01 0.  1.
</event>
<event>
 5    1  0.4781763E-001  0.8000000E+02  0.7546771E-02  0.1203772E+00
         11   -1    0    0    0    0  0.00000000000E+00  0.00000000000E+00  0.40000000000E+02  0.40000000000E+02  0.00000000000E+00 0.  1.
        -11   -1    0    0    0    0 -0.00000000000E+00 -0.00000000000E+00 -0.40000000000E+02  0.40000000000E+02  0.00000000000E+00 0. -1.
         23    2    1    2    0    0  0.00000000000E+00  0.00000000000E+00  0.00000000000E+00  0.80000000000E+02  0.80000000000E+02 0.  0.
          5    1    3    3  501    0  0.53717226613E+01  0.21608208563E+02 -0.32895895160E+02  0.40000000000E+02  0.47000000000E+01 0. -1.
         -5    1    3    3    0  501 -0.53717226613E+01 -0.21608208563E+02  0.32895895160E+02  0.40000000000E+02  0.47000000000E+01 0.  1.
</event>
<event>
 5    1  0.4781763E-001  0.8000000E+02  0.7546771E-02  0.1203772E+00
         11   -1    0    0    0    0  0.00000000000E+00  0.00000000000E+00  0.40000000000E+02  0.40000000000E+02  0.00000000000E+00 0.  1.
        -11   -1    0    0    0    0 -0.00000000000E+00 -0.00000000000E+00 -0.40000000000E+02  0.40000000000E+02  0.00000000000E+00 0. -1.
         23    2    1    2    0    0  0.00000000000E+00  0.00000000000E+00  0.00000000000E+00  0.80000000000E+02  0.80000000000E+02 0.  0.
          5    1    3    3  501    0  0.34545863450E+02  0.14419477541E+02 -0.13288039205E+02  0.40000000000E+02  0.47000000000E+01 0. -1.
         -5    1    3    3    0  501 -0.34545863450E+02 -0.14419477541E+02  0.13288039205E+02  0.40000000000E+02  0.47000000000E+01 0.  1.
</event>
<event>
 5    1  0.4781763E-001  0.8000000E+02  0.7546771E-02  0.1203772E+00
         11   -1    0    0    0    0  0.00000000000E+00  0.00000000000E+00  0.40000000000E+02  0.40000000000E+02  0.00000000000E+00 0. -1.
        -11   -1    0    0    0    0 -0.00000000000E+00 -0.00000000000E+00 -0.40000000000E+02  0.40000000000E+02  0.00000000000E+00 0.  1.
         23    2    1    2    0    0  0.00000000000E+00  0.00000000000E+00  0.00000000000E+00  0.80000000000E+02  0.80000000000E+02 0.  0.
          5    1    3    3  501    0  0.35292366291E+02  0.17976103192E+02  0.30362140339E+01  0.40000000000E+02  0.47000000000E+01 0. -1.
         -5    1    3    3    0  501 -0.35292366291E+02 -0.17976103192E+02 -0.30362140339E+01  0.40000000000E+02  0.47000000000E+01 0.  1.
</event>
<event>
 5    1  0.4781763E-001  0.8000000E+02  0.7546771E-02  0.1203772E+00
         11   -1    0    0    0    0  0.00000000000E+00  0.00000000000E+00  0.40000000000E+02  0.40000000000E+02  0.00000000000E+00 0. -1.
        -11   -1    0    0    0    0 -0.00000000000E+00 -0.00000000000E+00 -0.40000000000E+02  0.40000000000E+02  0.00000000000E+00 0.  1.
         23    2    1    2    0    0  0.00000000000E+00  0.00000000000E+00  0.00000000000E+00  0.80000000000E+02  0.80000000000E+02 0.  0.
          5    1    3    3  501    0 -0.16077915620E+02  0.19569214252E+02  0.30601576477E+02  0.40000000000E+02  0.47000000000E+01 0. -1.
         -5    1    3    3    0  501  0.16077915620E+02 -0.19569214252E+02 -0.30601576477E+02  0.40000000000E+02  0.47000000000E+01 0.  1.
</event>
<event>
 5    1  0.4781763E-001  0.8000000E+02  0.7546771E-02  0.1203772E+00
         11   -1    0    0    0    0  0.00000000000E+00  0.00000000000E+00  0.40000000000E+02  0.40000000000E+02  0.00000000000E+00 0.  1.
        -11   -1    0    0    0    0 -0.00000000000E+00 -0.00000000000E+00 -0.40000000000E+02  0.40000000000E+02  0.00000000000E+00 0. -1.
         23    2    1    2    0    0  0.00000000000E+00  0.00000000000E+00  0.00000000000E+00  0.80000000000E+02  0.80000000000E+02 0.  0.
          5    1    3    3  501    0  0.90174380931E-01  0.37056912334E+02 -0.14306890538E+02  0.40000000000E+02  0.47000000000E+01 0. -1.
         -5    1    3    3    0  501 -0.90174380931E-01 -0.37056912334E+02  0.14306890538E+02  0.40000000000E+02  0.47000000000E+01 0.  1.
</event>
<event>
 5    1  0.4781763E-001  0.8000000E+02  0.7546771E-02  0.1203772E+00
         11   -1    0    0    0    0  0.00000000000E+00  0.00000000000E+00  0.40000000000E+02  0.40000000000E+02  0.00000000000E+00 0. -1.
        -11   -1    0    0    0    0 -0.00000000000E+00 -0.00000000000E+00 -0.40000000000E+02  0.40000000000E+02  0.00000000000E+00 0.  1.
         23    2    1    2    0    0  0.00000000000E+00  0.00000000000E+00  0.00000000000E+00  0.80000000000E+02  0.80000000000E+02 0.  0.
          5    1    3    3  501    0 -0.37716897726E+02 -0.12341197189E+02  0.17436966043E+01  0.40000000000E+02  0.47000000000E+01 0. -1.
         -5    1    3    3    0  501  0.37716897726E+02  0.12341197189E+02 -0.17436966043E+01  0.40000000000E+02  0.47000000000E+01 0.  1.
</event>
<event>
 5    1  0.4781763E-001  0.8000000E+02  0.7546771E-02  0.1203772E+00
         11   -1    0    0    0    0  0.00000000000E+00  0.00000000000E+00  0.40000000000E+02  0.40000000000E+02  0.00000000000E+00 0.  1.
        -11   -1    0    0    0    0 -0.00000000000E+00 -0.00000000000E+00 -0.40000000000E+02  0.40000000000E+02  0.00000000000E+00 0. -1.
         23    2    1    2    0    0  0.00000000000E+00  0.00000000000E+00  0.00000000000E+00  0.80000000000E+02  0.80000000000E+02 0.  0.
          5    1    3    3  501    0  0.11702880480E+02  0.17451237767E+02 -0.33710634655E+02  0.40000000000E+02  0.47000000000E+01 0. -1.
         -5    1    3    3    0  501 -0.11702880480E+02 -0.17451237767E+02  0.33710634655E+02  0.40000000000E+02  0.47000000000E+01 0.  1.
</event>
<event>
 5    1  0.4781763E-001  0.8000000E+02  0.7546771E-02  0.1203772E+00
         11   -1    0    0    0    0  0.00000000000E+00  0.00000000000E+00  0.40000000000E+02  0.40000000000E+02  0.00000000000E+00 0. -1.
        -11   -1    0    0    0    0 -0.00000000000E+00 -0.00000000000E+00 -0.40000000000E+02  0.40000000000E+02  0.00000000000E+00 0.  1.
         23    2    1    2    0    0  0.00000000000E+00  0.00000000000E+00  0.00000000000E+00  0.80000000000E+02  0.80000000000E+02 0.  0.
          5    1    3    3  501    0  0.31312969853E+02 -0.58740783365E+01  0.23725579501E+02  0.40000000000E+02  0.47000000000E+01 0. -1.
         -5    1    3    3    0  501 -0.31312969853E+02  0.58740783365E+01 -0.23725579501E+02  0.40000000000E+02  0.47000000000E+01 0.  1.
</event>
<event>
 5    1  0.4781763E-001  0.8000000E+02  0.7546771E-02  0.1203772E+00
         11   -1    0    0    0    0  0.00000000000E+00  0.00000000000E+00  0.40000000000E+02  0.40000000000E+02  0.00000000000E+00 0. -1.
        -11   -1    0    0    0    0 -0.00000000000E+00 -0.00000000000E+00 -0.40000000000E+02  0.40000000000E+02  0.00000000000E+00 0.  1.
         23    2    1    2    0    0  0.00000000000E+00  0.00000000000E+00  0.00000000000E+00  0.80000000000E+02  0.80000000000E+02 0.  0.
          5    1    3    3  501    0  0.88335298488E+01 -0.14766863694E+02  0.35802492749E+02  0.40000000000E+02  0.47000000000E+01 0. -1.
         -5    1    3    3    0  501 -0.88335298488E+01  0.14766863694E+02 -0.35802492749E+02  0.40000000000E+02  0.47000000000E+01 0.  1.
</event>
<event>
 5    1  0.4781763E-001  0.8000000E+02  0.7546771E-02  0.1203772E+00
         11   -1    0    0    0    0  0.00000000000E+00  0.00000000000E+00  0.40000000000E+02  0.40000000000E+02  0.00000000000E+00 0. -1.
        -11   -1    0    0    0    0 -0.00000000000E+00 -0.00000000000E+00 -0.40000000000E+02  0.40000000000E+02  0.00000000000E+00 0.  1.
         23    2    1    2    0    0  0.00000000000E+00  0.00000000000E+00  0.00000000000E+00  0.80000000000E+02  0.80000000000E+02 0.  0.
          5    1    3    3  501    0  0.21668930977E+02 -0.33284732290E+02  0.70287035178E+00  0.40000000000E+02  0.47000000000E+01 0. -1.
         -5    1    3    3    0  501 -0.21668930977E+02  0.33284732290E+02 -0.70287035178E+00  0.40000000000E+02  0.47000000000E+01 0.  1.
</event>
<event>
 5    1  0.4781763E-001  0.8000000E+02  0.7546771E-02  0.1203772E+00
         11   -1    0    0    0    0  0.00000000000E+00  0.00000000000E+00  0.40000000000E+02  0.40000000000E+02  0.00000000000E+00 0.  1.
        -11   -1    0    0    0    0 -0.00000000000E+00 -0.00000000000E+00 -0.40000000000E+02  0.40000000000E+02  0.00000000000E+00 0. -1.
         23    2    1    2    0    0  0.00000000000E+00  0.00000000000E+00  0.00000000000E+00  0.80000000000E+02  0.80000000000E+02 0.  0.
          5    1    3    3  501    0 -0.55689627346E+01 -0.32984955057E+02 -0.21421703805E+02  0.40000000000E+02  0.47000000000E+01 0. -1.
         -5    1    3    3    0  501  0.55689627346E+01  0.32984955057E+02  0.21421703805E+02  0.40000000000E+02  0.47000000000E+01 0.  1.
</event>
<event>
 5    1  0.4781763E-001  0.8000000E+02  0.7546771E-02  0.1203772E+00
         11   -1    0    0    0    0  0.00000000000E+00  0.00000000000E+00  0.40000000000E+02  0.40000000000E+02  0.00000000000E+00 0. -1.
        -11   -1    0    0    0    0 -0.00000000000E+00 -0.00000000000E+00 -0.40000000000E+02  0.40000000000E+02  0.00000000000E+00 0.  1.
         23    2    1    2    0    0  0.00000000000E+00  0.00000000000E+00  0.00000000000E+00  0.80000000000E+02  0.80000000000E+02 0.  0.
          5    1    3    3  501    0 -0.35431368036E+02  0.53273880203E+01 -0.17150717070E+02  0.40000000000E+02  0.47000000000E+01 0. -1.
         -5    1    3    3    0  501  0.35431368036E+02 -0.53273880203E+01  0.17150717070E+02  0.40000000000E+02  0.47000000000E+01 0.  1.
</event>
<event>
 5    1  0.4781763E-001  0.8000000E+02  0.7546771E-02  0.1203772E+00
         11   -1    0    0    0    0  0.00000000000E+00  0.00000000000E+00  0.40000000000E+02  0.40000000000E+02  0.00000000000E+00 0.  1.
        -11   -1    0    0    0    0 -0.00000000000E+00 -0.00000000000E+00 -0.40000000000E+02  0.40000000000E+02  0.00000000000E+00 0. -1.
         23    2    1    2    0    0  0.00000000000E+00  0.00000000000E+00  0.00000000000E+00  0.80000000000E+02  0.80000000000E+02 0.  0.
          5    1    3    3  501    0 -0.14430797095E+02 -0.72106525877E+01 -0.36299705019E+02  0.40000000000E+02  0.47000000000E+01 0. -1.
         -5    1    3    3    0  501  0.14430797095E+02  0.72106525877E+01  0.36299705019E+02  0.40000000000E+02  0.47000000000E+01 0.  1.
</event>
<event>
 5    1  0.4781763E-001  0.8000000E+02  0.7546771E-02  0.1203772E+00
         11   -1    0    0    0    0  0.00000000000E+00  0.00000000000E+00  0.40000000000E+02  0.40000000000E+02  0.00000000000E+00 0.  1.
        -11   -1    0    0    0    0 -0.00000000000E+00 -0.00000000000E+00 -0.40000000000E+02  0.40000000000E+02  0.00000000000E+00 0. -1.
         23    2    1    2    0    0  0.00000000000E+00  0.00000000000E+00  0.00000000000E+00  0.80000000000E+02  0.80000000000E+02 0.  0.
          5    1    3    3  501    0  0.15898646579E+02  0.14611938576E+02 -0.33341180063E+02  0.40000000000E+02  0.47000000000E+01 0. -1.
         -5    1    3    3    0  501 -0.15898646579E+02 -0.14611938576E+02  0.33341180063E+02  0.40000000000E+02  0.47000000000E+01 0.  1.
</event>
<event>
 5    1  0.4781763E-001  0.8000000E+02  0.7546771E-02  0.1203772E+00
         11   -1    0    0    0    0  0.00000000000E+00  0.00000000000E+00  0.40000000000E+02  0.40000000000E+02  0.00000000000E+00 0.  1.
        -11   -1    0    0    0    0 -0.00000000000E+00 -0.00000000000E+00 -0.40000000000E+02  0.40000000000E+02  0.00000000000E+00 0. -1.
         23    2    1    2    0    0  0.00000000000E+00  0.00000000000E+00  0.00000000000E+00  0.80000000000E+02  0.80000000000E+02 0.  0.
          5    1    3    3  501    0 -0.84134128968E+01  0.27055768271E+02 -0.27840795368E+02  0.40000000000E+02  0.47000000000E+01 0. -1.
         -5    1    3    3    0  501  0.84134128968E+01 -0.27055768271E+02  0.27840795368E+02  0.40000000000E+02  0.47000000000E+01 0.  1.
</event>
<event>
 5    1  0.4781763E-001  0.8000000E+02  0.7546771E-02  0.1203772E+00
         11   -1    0    0    0    0  0.00000000000E+00  0.00000000000E+00  0.40000000000E+02  0.40000000000E+02  0.00000000000E+00 0. -1.
        -11   -1    0    0    0    0 -0.00000000000E+00 -0.00000000000E+00 -0.40000000000E+02  0.40000000000E+02  0.00000000000E+00 0.  1.
         23    2    1    2    0    0  0.00000000000E+00  0.00000000000E+00  0.00000000000E+00  0.80000000000E+02  0.80000000000E+02 0.  0.
          5    1    3    3  501    0 -0.10048462350E+02 -0.64170664785E+01  0.37891419374E+02  0.40000000000E+02  0.47000000000E+01 0. -1.
         -5    1    3    3    0  501  0.10048462350E+02  0.64170664785E+01 -0.37891419374E+02  0.40000000000E+02  0.47000000000E+01 0.  1.
</event>
<event>
 5    1  0.4781763E-001  0.8000000E+02  0.7546771E-02  0.1203772E+00
         11   -1    0    0    0    0  0.00000000000E+00  0.00000000000E+00  0.40000000000E+02  0.40000000000E+02  0.00000000000E+00 0. -1.
        -11   -1    0    0    0    0 -0.00000000000E+00 -0.00000000000E+00 -0.40000000000E+02  0.40000000000E+02  0.00000000000E+00 0.  1.
         23    2    1    2    0    0  0.00000000000E+00  0.00000000000E+00  0.00000000000E+00  0.80000000000E+02  0.80000000000E+02 0.  0.
          5    1    3    3  501    0 -0.19027046705E+02  0.17554770429E+02  0.30128251341E+02  0.40000000000E+02  0.47000000000E+01 0. -1.
         -5    1    3    3    0  501  0.19027046705E+02 -0.17554770429E+02 -0.30128251341E+02  0.40000000000E+02  0.47000000000E+01 0.  1.
</event>
<event>
 5    1  0.4781763E-001  0.8000000E+02  0.7546771E-02  0.1203772E+00
         11   -1    0    0    0    0  0.00000000000E+00  0.00000000000E+00  0.40000000000E+02  0.40000000000E+02  0.00000000000E+00 0.  1.
        -11   -1    0    0    0    0 -0.00000000000E+00 -0.00000000000E+00 -0.40000000000E+02  0.40000000000E+02  0.00000000000E+00 0. -1.
         23    2    1    2    0    0  0.00000000000E+00  0.00000000000E+00  0.00000000000E+00  0.80000000000E+02  0.80000000000E+02 0.  0.
          5    1    3    3  501    0  0.27465980382E+02 -0.27812691495E+01 -0.28562115881E+02  0.40000000000E+02  0.47000000000E+01 0. -1.
         -5    1    3    3    0  501 -0.27465980382E+02  0.27812691495E+01  0.28562115881E+02  0.40000000000E+02  0.47000000000E+01 0.  1.
</event>
<event>
 5    1  0.4781763E-001  0.8000000E+02  0.7546771E-02  0.1203772E+00
         11   -1    0    0    0    0  0.00000000000E+00  0.00000000000E+00  0.40000000000E+02  0.40000000000E+02  0.00000000000E+00 0.  1.
        -11   -1    0    0    0    0 -0.00000000000E+00 -0.00000000000E+00 -0.40000000000E+02  0.40000000000E+02  0.00000000000E+00 0. -1.
         23    2    1    2    0    0  0.00000000000E+00  0.00000000000E+00  0.00000000000E+00  0.80000000000E+02  0.80000000000E+02 0.  0.
          5    1    3    3  501    0  0.65424992450E+01 -0.59040344653E+01 -0.38733036037E+02  0.40000000000E+02  0.47000000000E+01 0. -1.
         -5    1    3    3    0  501 -0.65424992450E+01  0.59040344653E+01  0.38733036037E+02  0.40000000000E+02  0.47000000000E+01 0.  1.
</event>
<event>
 5    1  0.4781763E-001  0.8000000E+02  0.7546771E-02  0.1203772E+00
         11   -1    0    0    0    0  0.00000000000E+00  0.00000000000E+00  0.40000000000E+02  0.40000000000E+02  0.00000000000E+00 0.  1.
        -11   -1    0    0    0    0 -0.00000000000E+00 -0.00000000000E+00 -0.40000000000E+02  0.40000000000E+02  0.00000000000E+00 0. -1.
         23    2    1    2    0    0  0.00000000000E+00  0.00000000000E+00  0.00000000000E+00  0.80000000000E+02  0.80000000000E+02 0.  0.
          5    1    3    3  501    0  0.75587299031E+01 -0.12149341119E+02 -0.37056296532E+02  0.40000000000E+02  0.47000000000E+01 0. -1.
         -5    1    3    3    0  501 -0.75587299031E+01  0.12149341119E+02  0.37056296532E+02  0.40000000000E+02  0.47000000000E+01 0.  1.
</event>
<event>
 5    1  0.4781763E-001  0.8000000E+02  0.7546771E-02  0.1203772E+00
         11   -1    0    0    0    0  0.00000000000E+00  0.00000000000E+00  0.40000000000E+02  0.40000000000E+02  0.00000000000E+00 0.  1.
        -11   -1    0    0    0    0 -0.00000000000E+00 -0.00000000000E+00 -0.40000000000E+02  0.40000000000E+02  0.00000000000E+00 0. -1.
         23    2    1    2    0    0  0.00000000000E+00  0.00000000000E+00  0.00000000000E+00  0.80000000000E+02  0.80000000000E+02 0.  0.
          5    1    3    3  501    0 -0.16150197808E+02  0.21633837611E+02 -0.29138602935E+02  0.40000000000E+02  0.47000000000E+01 0. -1.
         -5    1    3    3    0  501  0.16150197808E+02 -0.21633837611E+02  0.29138602935E+02  0.40000000000E+02  0.47000000000E+01 0.  1.
</event>
<event>
 5    1  0.4781763E-001  0.8000000E+02  0.7546771E-02  0.1203772E+00
         11   -1    0    0    0    0  0.00000000000E+00  0.00000000000E+00  0.40000000000E+02  0.40000000000E+02  0.00000000000E+00 0.  1.
        -11   -1    0    0    0    0 -0.00000000000E+00 -0.00000000000E+00 -0.40000000000E+02  0.40000000000E+02  0.00000000000E+00 0. -1.
         23    2    1    2    0    0  0.00000000000E+00  0.00000000000E+00  0.00000000000E+00  0.80000000000E+02  0.80000000000E+02 0.  0.
          5    1    3    3  501    0  0.57873886601E+01 -0.23945636103E+02 -0.31161236242E+02  0.40000000000E+02  0.47000000000E+01 0. -1.
         -5    1    3    3    0  501 -0.57873886601E+01  0.23945636103E+02  0.31161236242E+02  0.40000000000E+02  0.47000000000E+01 0.  1.
</event>
<event>
 5    1  0.4781763E-001  0.8000000E+02  0.7546771E-02  0.1203772E+00
         11   -1    0    0    0    0  0.00000000000E+00  0.00000000000E+00  0.40000000000E+02  0.40000000000E+02  0.00000000000E+00 0. -1.
        -11   -1    0    0    0    0 -0.00000000000E+00 -0.00000000000E+00 -0.40000000000E+02  0.40000000000E+02  0.00000000000E+00 0.  1.
         23    2    1    2    0    0  0.00000000000E+00  0.00000000000E+00  0.00000000000E+00  0.80000000000E+02  0.80000000000E+02 0.  0.
          5    1    3    3  501    0 -0.20699992787E+02  0.24639171311E+02  0.23288012704E+02  0.40000000000E+02  0.47000000000E+01 0. -1.
         -5    1    3    3    0  501  0.20699992787E+02 -0.24639171311E+02 -0.23288012704E+02  0.40000000000E+02  0.47000000000E+01 0.  1.
</event>
<event>
 5    1  0.4781763E-001  0.8000000E+02  0.7546771E-02  0.1203772E+00
         11   -1    0    0    0    0  0.00000000000E+00  0.00000000000E+00  0.40000000000E+02  0.40000000000E+02  0.00000000000E+00 0. -1.
        -11   -1    0    0    0    0 -0.00000000000E+00 -0.00000000000E+00 -0.40000000000E+02  0.40000000000E+02  0.00000000000E+00 0.  1.
         23    2    1    2    0    0  0.00000000000E+00  0.00000000000E+00  0.00000000000E+00  0.80000000000E+02  0.80000000000E+02 0.  0.
          5    1    3    3  501    0  0.36848747439E+02 -0.11914952050E+02 -0.88381972060E+01  0.40000000000E+02  0.47000000000E+01 0. -1.
         -5    1    3    3    0  501 -0.36848747439E+02  0.11914952050E+02  0.88381972060E+01  0.40000000000E+02  0.47000000000E+01 0.  1.
</event>
<event>
 5    1  0.4781763E-001  0.8000000E+02  0.7546771E-02  0.1203772E+00
         11   -1    0    0    0    0  0.00000000000E+00  0.00000000000E+00  0.40000000000E+02  0.40000000000E+02  0.00000000000E+00 0. -1.
        -11   -1    0    0    0    0 -0.00000000000E+00 -0.00000000000E+00 -0.40000000000E+02  0.40000000000E+02  0.00000000000E+00 0.  1.
         23    2    1    2    0    0  0.00000000000E+00  0.00000000000E+00  0.00000000000E+00  0.80000000000E+02  0.80000000000E+02 0.  0.
          5    1    3    3  501    0  0.11249326585E+02 -0.24389070743E+02  0.29266634239E+02  0.40000000000E+02  0.47000000000E+01 0. -1.
         -5    1    3    3    0  501 -0.11249326585E+02  0.24389070743E+02 -0.29266634239E+02  0.40000000000E+02  0.47000000000E+01 0.  1.
</event>
<event>
 5    1  0.4781763E-001  0.8000000E+02  0.7546771E-02  0.1203772E+00
         11   -1    0    0    0    0  0.00000000000E+00  0.00000000000E+00  0.40000000000E+02  0.40000000000E+02  0.00000000000E+00 0. -1.
        -11   -1    0    0    0    0 -0.00000000000E+00 -0.00000000000E+00 -0.40000000000E+02  0.40000000000E+02  0.00000000000E+00 0.  1.
         23    2    1    2    0    0  0.00000000000E+00  0.00000000000E+00  0.00000000000E+00  0.80000000000E+02  0.80000000000E+02 0.  0.
          5    1    3    3  501    0 -0.35866683064E+02  0.14999595470E+02  0.81549482967E+01  0.40000000000E+02  0.47000000000E+01 0. -1.
         -5    1    3    3    0  501  0.35866683064E+02 -0.14999595470E+02 -0.81549482967E+01  0.40000000000E+02  0.47000000000E+01 0.  1.
</event>
<event>
 5    1  0.4781763E-001  0.8000000E+02  0.7546771E-02  0.1203772E+00
         11   -1    0    0    0    0  0.00000000000E+00  0.00000000000E+00  0.40000000000E+02  0.40000000000E+02  0.00000000000E+00 0.  1.
        -11   -1    0    0    0    0 -0.00000000000E+00 -0.00000000000E+00 -0.40000000000E+02  0.40000000000E+02  0.00000000000E+00 0. -1.
         23    2    1    2    0    0  0.00000000000E+00  0.00000000000E+00  0.00000000000E+00  0.80000000000E+02  0.80000000000E+02 0.  0.
          5    1    3    3  501    0 -0.37697817414E+02  0.12489380540E+02  0.89439138234E+00  0.40000000000E+02  0.47000000000E+01 0. -1.
         -5    1    3    3    0  501  0.37697817414E+02 -0.12489380540E+02 -0.89439138234E+00  0.40000000000E+02  0.47000000000E+01 0.  1.
</event>
<event>
 5    1  0.4781763E-001  0.8000000E+02  0.7546771E-02  0.1203772E+00
         11   -1    0    0    0    0  0.00000000000E+00  0.00000000000E+00  0.40000000000E+02  0.40000000000E+02  0.00000000000E+00 0.  1.
        -11   -1    0    0    0    0 -0.00000000000E+00 -0.00000000000E+00 -0.40000000000E+02  0.40000000000E+02  0.00000000000E+00 0. -1.
         23    2    1    2    0    0  0.00000000000E+00  0.00000000000E+00  0.00000000000E+00  0.80000000000E+02  0.80000000000E+02 0.  0.
          5    1    3    3  501    0 -0.10549600598E+02 -0.30922988874E+02 -0.22591695075E+02  0.40000000000E+02  0.47000000000E+01 0. -1.
         -5    1    3    3    0  501  0.10549600598E+02  0.30922988874E+02  0.22591695075E+02  0.40000000000E+02  0.47000000000E+01 0.  1.
</event>
<event>
 5    1  0.4781763E-001  0.8000000E+02  0.7546771E-02  0.1203772E+00
         11   -1    0    0    0    0  0.00000000000E+00  0.00000000000E+00  0.40000000000E+02  0.40000000000E+02  0.00000000000E+00 0. -1.
        -11   -1    0    0    0    0 -0.00000000000E+00 -0.00000000000E+00 -0.40000000000E+02  0.40000000000E+02  0.00000000000E+00 0.  1.
         23    2    1    2    0    0  0.00000000000E+00  0.00000000000E+00  0.00000000000E+00  0.80000000000E+02  0.80000000000E+02 0.  0.
          5    1    3    3  501    0 -0.10812967501E+02  0.15965663335E+02  0.34728768019E+02  0.40000000000E+02  0.47000000000E+01 0. -1.
         -5    1    3    3    0  501  0.10812967501E+02 -0.15965663335E+02 -0.34728768019E+02  0.40000000000E+02  0.47000000000E+01 0.  1.
</event>
<event>
 5    1  0.4781763E-001  0.8000000E+02  0.7546771E-02  0.1203772E+00
         11   -1    0    0    0    0  0.00000000000E+00  0.00000000000E+00  0.40000000000E+02  0.40000000000E+02  0.00000000000E+00 0. -1.
        -11   -1    0    0    0    0 -0.00000000000E+00 -0.00000000000E+00 -0.40000000000E+02  0.40000000000E+02  0.00000000000E+00 0.  1.
         23    2    1    2    0    0  0.00000000000E+00  0.00000000000E+00  0.00000000000E+00  0.80000000000E+02  0.80000000000E+02 0.  0.
          5    1    3    3  501    0 -0.18144364905E+02  0.29225539241E+02  0.19863531365E+02  0.40000000000E+02  0.47000000000E+01 0. -1.
         -5    1    3    3    0  501  0.18144364905E+02 -0.29225539241E+02 -0.19863531365E+02  0.40000000000E+02  0.47000000000E+01 0.  1.
</event>
<event>
 5    1  0.4781763E-001  0.8000000E+02  0.7546771E-02  0.1203772E+00
         11   -1    0    0    0    0  0.00000000000E+00  0.00000000000E+00  0.40000000000E+02  0.40000000000E+02  0.00000000000E+00 0. -1.
        -11   -1    0    0    0    0 -0.00000000000E+00 -0.00000000000E+00 -0.40000000000E+02  0.40000000000E+02  0.00000000000E+00 0.  1.
         23    2    1    2    0    0  0.00000000000E+00  0.00000000000E+00  0.00000000000E+00  0.80000000000E+02  0.80000000000E+02 0.  0.
          5    1    3    3  501    0 -0.27179289654E+02 -0.20802437277E+02  0.20160724621E+02  0.40000000000E+02  0.47000000000E+01 0.  1.
         -5    1    3    3    0  501  0.27179289654E+02  0.20802437277E+02 -0.20160724621E+02  0.40000000000E+02  0.47000000000E+01 0. -1.
</event>
<event>
 5    1  0.4781763E-001  0.8000000E+02  0.7546771E-02  0.1203772E+00
         11   -1    0    0    0    0  0.00000000000E+00  0.00000000000E+00  0.40000000000E+02  0.40000000000E+02  0.00000000000E+00 0. -1.
        -11   -1    0    0    0    0 -0.00000000000E+00 -0.00000000000E+00 -0.40000000000E+02  0.40000000000E+02  0.00000000000E+00 0.  1.
         23    2    1    2    0    0  0.00000000000E+00  0.00000000000E+00  0.00000000000E+00  0.80000000000E+02  0.80000000000E+02 0.  0.
          5    1    3    3  501    0 -0.34347047808E+02 -0.15217096496E+02 -0.12908535204E+02  0.40000000000E+02  0.47000000000E+01 0.  1.
         -5    1    3    3    0  501  0.34347047808E+02  0.15217096496E+02  0.12908535204E+02  0.40000000000E+02  0.47000000000E+01 0. -1.
</event>
<event>
 5    1  0.4781763E-001  0.8000000E+02  0.7546771E-02  0.1203772E+00
         11   -1    0    0    0    0  0.00000000000E+00  0.00000000000E+00  0.40000000000E+02  0.40000000000E+02  0.00000000000E+00 0. -1.
        -11   -1    0    0    0    0 -0.00000000000E+00 -0.00000000000E+00 -0.40000000000E+02  0.40000000000E+02  0.00000000000E+00 0.  1.
         23    2    1    2    0    0  0.00000000000E+00  0.00000000000E+00  0.00000000000E+00  0.80000000000E+02  0.80000000000E+02 0.  0.
          5    1    3    3  501    0 -0.48441935711E+01 -0.29933666405E+02  0.25659684413E+02  0.40000000000E+02  0.47000000000E+01 0. -1.
         -5    1    3    3    0  501  0.48441935711E+01  0.29933666405E+02 -0.25659684413E+02  0.40000000000E+02  0.47000000000E+01 0.  1.
</event>
<event>
 5    1  0.4781763E-001  0.8000000E+02  0.7546771E-02  0.1203772E+00
         11   -1    0    0    0    0  0.00000000000E+00  0.00000000000E+00  0.40000000000E+02  0.40000000000E+02  0.00000000000E+00 0.  1.
        -11   -1    0    0    0    0 -0.00000000000E+00 -0.00000000000E+00 -0.40000000000E+02  0.40000000000E+02  0.00000000000E+00 0. -1.
         23    2    1    2    0    0  0.00000000000E+00  0.00000000000E+00  0.00000000000E+00  0.80000000000E+02  0.80000000000E+02 0.  0.
          5    1    3    3  501    0 -0.18457219461E+02 -0.29817842568E+02 -0.18658438155E+02  0.40000000000E+02  0.47000000000E+01 0. -1.
         -5    1    3    3    0  501  0.18457219461E+02  0.29817842568E+02  0.18658438155E+02  0.40000000000E+02  0.47000000000E+01 0.  1.
</event>
<event>
 5    1  0.4781763E-001  0.8000000E+02  0.7546771E-02  0.1203772E+00
         11   -1    0    0    0    0  0.00000000000E+00  0.00000000000E+00  0.40000000000E+02  0.40000000000E+02  0.00000000000E+00 0. -1.
        -11   -1    0    0    0    0 -0.00000000000E+00 -0.00000000000E+00 -0.40000000000E+02  0.40000000000E+02  0.00000000000E+00 0.  1.
         23    2    1    2    0    0  0.00000000000E+00  0.00000000000E+00  0.00000000000E+00  0.80000000000E+02  0.80000000000E+02 0.  0.
          5    1    3    3  501    0  0.13601775926E+02 -0.78807194071E+01  0.36480076114E+02  0.40000000000E+02  0.47000000000E+01 0. -1.
         -5    1    3    3    0  501 -0.13601775926E+02  0.78807194071E+01 -0.36480076114E+02  0.40000000000E+02  0.47000000000E+01 0.  1.
</event>
<event>
 5    1  0.4781763E-001  0.8000000E+02  0.7546771E-02  0.1203772E+00
         11   -1    0    0    0    0  0.00000000000E+00  0.00000000000E+00  0.40000000000E+02  0.40000000000E+02  0.00000000000E+00 0.  1.
        -11   -1    0    0    0    0 -0.00000000000E+00 -0.00000000000E+00 -0.40000000000E+02  0.40000000000E+02  0.00000000000E+00 0. -1.
         23    2    1    2    0    0  0.00000000000E+00  0.00000000000E+00  0.00000000000E+00  0.80000000000E+02  0.80000000000E+02 0.  0.
          5    1    3    3  501    0  0.12547900797E+02 -0.23138888466E+02 -0.29749823968E+02  0.40000000000E+02  0.47000000000E+01 0. -1.
         -5    1    3    3    0  501 -0.12547900797E+02  0.23138888466E+02  0.29749823968E+02  0.40000000000E+02  0.47000000000E+01 0.  1.
</event>
<event>
 5    1  0.4781763E-001  0.8000000E+02  0.7546771E-02  0.1203772E+00
         11   -1    0    0    0    0  0.00000000000E+00  0.00000000000E+00  0.40000000000E+02  0.40000000000E+02  0.00000000000E+00 0.  1.
        -11   -1    0    0    0    0 -0.00000000000E+00 -0.00000000000E+00 -0.40000000000E+02  0.40000000000E+02  0.00000000000E+00 0. -1.
         23    2    1    2    0    0  0.00000000000E+00  0.00000000000E+00  0.00000000000E+00  0.80000000000E+02  0.80000000000E+02 0.  0.
          5    1    3    3  501    0 -0.12139776944E+02 -0.27000202733E+02 -0.26486314733E+02  0.40000000000E+02  0.47000000000E+01 0. -1.
         -5    1    3    3    0  501  0.12139776944E+02  0.27000202733E+02  0.26486314733E+02  0.40000000000E+02  0.47000000000E+01 0.  1.
</event>
<event>
 5    1  0.4781763E-001  0.8000000E+02  0.7546771E-02  0.1203772E+00
         11   -1    0    0    0    0  0.00000000000E+00  0.00000000000E+00  0.40000000000E+02  0.40000000000E+02  0.00000000000E+00 0.  1.
        -11   -1    0    0    0    0 -0.00000000000E+00 -0.00000000000E+00 -0.40000000000E+02  0.40000000000E+02  0.00000000000E+00 0. -1.
         23    2    1    2    0    0  0.00000000000E+00  0.00000000000E+00  0.00000000000E+00  0.80000000000E+02  0.80000000000E+02 0.  0.
          5    1    3    3  501    0  0.32936477764E+02  0.18478208793E+02 -0.12314797292E+02  0.40000000000E+02  0.47000000000E+01 0. -1.
         -5    1    3    3    0  501 -0.32936477764E+02 -0.18478208793E+02  0.12314797292E+02  0.40000000000E+02  0.47000000000E+01 0.  1.
</event>
<event>
 5    1  0.4781763E-001  0.8000000E+02  0.7546771E-02  0.1203772E+00
         11   -1    0    0    0    0  0.00000000000E+00  0.00000000000E+00  0.40000000000E+02  0.40000000000E+02  0.00000000000E+00 0. -1.
        -11   -1    0    0    0    0 -0.00000000000E+00 -0.00000000000E+00 -0.40000000000E+02  0.40000000000E+02  0.00000000000E+00 0.  1.
         23    2    1    2    0    0  0.00000000000E+00  0.00000000000E+00  0.00000000000E+00  0.80000000000E+02  0.80000000000E+02 0.  0.
          5    1    3    3  501    0  0.11535823322E+02 -0.13880560958E+02  0.35385940821E+02  0.40000000000E+02  0.47000000000E+01 0. -1.
         -5    1    3    3    0  501 -0.11535823322E+02  0.13880560958E+02 -0.35385940821E+02  0.40000000000E+02  0.47000000000E+01 0.  1.
</event>
<event>
 5    1  0.4781763E-001  0.8000000E+02  0.7546771E-02  0.1203772E+00
         11   -1    0    0    0    0  0.00000000000E+00  0.00000000000E+00  0.40000000000E+02  0.40000000000E+02  0.00000000000E+00 0.  1.
        -11   -1    0    0    0    0 -0.00000000000E+00 -0.00000000000E+00 -0.40000000000E+02  0.40000000000E+02  0.00000000000E+00 0. -1.
         23    2    1    2    0    0  0.00000000000E+00  0.00000000000E+00  0.00000000000E+00  0.80000000000E+02  0.80000000000E+02 0.  0.
          5    1    3    3  501    0  0.34013439255E+02  0.47645332028E+01  0.19957333825E+02  0.40000000000E+02  0.47000000000E+01 0. -1.
         -5    1    3    3    0  501 -0.34013439255E+02 -0.47645332028E+01 -0.19957333825E+02  0.40000000000E+02  0.47000000000E+01 0.  1.
</event>
<event>
 5    1  0.4781763E-001  0.8000000E+02  0.7546771E-02  0.1203772E+00
         11   -1    0    0    0    0  0.00000000000E+00  0.00000000000E+00  0.40000000000E+02  0.40000000000E+02  0.00000000000E+00 0. -1.
        -11   -1    0    0    0    0 -0.00000000000E+00 -0.00000000000E+00 -0.40000000000E+02  0.40000000000E+02  0.00000000000E+00 0.  1.
         23    2    1    2    0    0  0.00000000000E+00  0.00000000000E+00  0.00000000000E+00  0.80000000000E+02  0.80000000000E+02 0.  0.
          5    1    3    3  501    0  0.35670318624E+01  0.27511972084E+01 -0.39466659317E+02  0.40000000000E+02  0.47000000000E+01 0.  1.
         -5    1    3    3    0  501 -0.35670318624E+01 -0.27511972084E+01  0.39466659317E+02  0.40000000000E+02  0.47000000000E+01 0. -1.
</event>
<event>
 5    1  0.4781763E-001  0.8000000E+02  0.7546771E-02  0.1203772E+00
         11   -1    0    0    0    0  0.00000000000E+00  0.00000000000E+00  0.40000000000E+02  0.40000000000E+02  0.00000000000E+00 0. -1.
        -11   -1    0    0    0    0 -0.00000000000E+00 -0.00000000000E+00 -0.40000000000E+02  0.40000000000E+02  0.00000000000E+00 0.  1.
         23    2    1    2    0    0  0.00000000000E+00  0.00000000000E+00  0.00000000000E+00  0.80000000000E+02  0.80000000000E+02 0.  0.
          5    1    3    3  501    0 -0.14411807266E+02 -0.30543665335E+00  0.37015085030E+02  0.40000000000E+02  0.47000000000E+01 0. -1.
         -5    1    3    3    0  501  0.14411807266E+02  0.30543665335E+00 -0.37015085030E+02  0.40000000000E+02  0.47000000000E+01 0.  1.
</event>
<event>
 5    1  0.4781763E-001  0.8000000E+02  0.7546771E-02  0.1203772E+00
         11   -1    0    0    0    0  0.00000000000E+00  0.00000000000E+00  0.40000000000E+02  0.40000000000E+02  0.00000000000E+00 0. -1.
        -11   -1    0    0    0    0 -0.00000000000E+00 -0.00000000000E+00 -0.40000000000E+02  0.40000000000E+02  0.00000000000E+00 0.  1.
         23    2    1    2    0    0  0.00000000000E+00  0.00000000000E+00  0.00000000000E+00  0.80000000000E+02  0.80000000000E+02 0.  0.
          5    1    3    3  501    0 -0.19093988139E+02  0.14381544132E+01  0.34803179867E+02  0.40000000000E+02  0.47000000000E+01 0. -1.
         -5    1    3    3    0  501  0.19093988139E+02 -0.14381544132E+01 -0.34803179867E+02  0.40000000000E+02  0.47000000000E+01 0.  1.
</event>
<event>
 5    1  0.4781763E-001  0.8000000E+02  0.7546771E-02  0.1203772E+00
         11   -1    0    0    0    0  0.00000000000E+00  0.00000000000E+00  0.40000000000E+02  0.40000000000E+02  0.00000000000E+00 0. -1.
        -11   -1    0    0    0    0 -0.00000000000E+00 -0.00000000000E+00 -0.40000000000E+02  0.40000000000E+02  0.00000000000E+00 0.  1.
         23    2    1    2    0    0  0.00000000000E+00  0.00000000000E+00  0.00000000000E+00  0.80000000000E+02  0.80000000000E+02 0.  0.
          5    1    3    3  501    0  0.67975916783E+01  0.38424676845E+02  0.74328296586E+01  0.40000000000E+02  0.47000000000E+01 0. -1.
         -5    1    3    3    0  501 -0.67975916783E+01 -0.38424676845E+02 -0.74328296586E+01  0.40000000000E+02  0.47000000000E+01 0.  1.
</event>
<event>
 5    1  0.4781763E-001  0.8000000E+02  0.7546771E-02  0.1203772E+00
         11   -1    0    0    0    0  0.00000000000E+00  0.00000000000E+00  0.40000000000E+02  0.40000000000E+02  0.00000000000E+00 0.  1.
        -11   -1    0    0    0    0 -0.00000000000E+00 -0.00000000000E+00 -0.40000000000E+02  0.40000000000E+02  0.00000000000E+00 0. -1.
         23    2    1    2    0    0  0.00000000000E+00  0.00000000000E+00  0.00000000000E+00  0.80000000000E+02  0.80000000000E+02 0.  0.
          5    1    3    3  501    0  0.30916299967E+02  0.21169366518E+02 -0.13189022615E+02  0.40000000000E+02  0.47000000000E+01 0. -1.
         -5    1    3    3    0  501 -0.30916299967E+02 -0.21169366518E+02  0.13189022615E+02  0.40000000000E+02  0.47000000000E+01 0.  1.
</event>
<event>
 5    1  0.4781763E-001  0.8000000E+02  0.7546771E-02  0.1203772E+00
         11   -1    0    0    0    0  0.00000000000E+00  0.00000000000E+00  0.40000000000E+02  0.40000000000E+02  0.00000000000E+00 0.  1.
        -11   -1    0    0    0    0 -0.00000000000E+00 -0.00000000000E+00 -0.40000000000E+02  0.40000000000E+02  0.00000000000E+00 0. -1.
         23    2    1    2    0    0  0.00000000000E+00  0.00000000000E+00  0.00000000000E+00  0.80000000000E+02  0.80000000000E+02 0.  0.
          5    1    3    3  501    0  0.27518971852E+02  0.16560798524E+02  0.23374262351E+02  0.40000000000E+02  0.47000000000E+01 0. -1.
         -5    1    3    3    0  501 -0.27518971852E+02 -0.16560798524E+02 -0.23374262351E+02  0.40000000000E+02  0.47000000000E+01 0.  1.
</event>
<event>
 5    1  0.4781763E-001  0.8000000E+02  0.7546771E-02  0.1203772E+00
         11   -1    0    0    0    0  0.00000000000E+00  0.00000000000E+00  0.40000000000E+02  0.40000000000E+02  0.00000000000E+00 0. -1.
        -11   -1    0    0    0    0 -0.00000000000E+00 -0.00000000000E+00 -0.40000000000E+02  0.40000000000E+02  0.00000000000E+00 0.  1.
         23    2    1    2    0    0  0.00000000000E+00  0.00000000000E+00  0.00000000000E+00  0.80000000000E+02  0.80000000000E+02 0.  0.
          5    1    3    3  501    0  0.11621446102E+02  0.16031596323E+02 -0.34436026336E+02  0.40000000000E+02  0.47000000000E+01 0.  1.
         -5    1    3    3    0  501 -0.11621446102E+02 -0.16031596323E+02  0.34436026336E+02  0.40000000000E+02  0.47000000000E+01 0. -1.
</event>
<event>
 5    1  0.4781763E-001  0.8000000E+02  0.7546771E-02  0.1203772E+00
         11   -1    0    0    0    0  0.00000000000E+00  0.00000000000E+00  0.40000000000E+02  0.40000000000E+02  0.00000000000E+00 0.  1.
        -11   -1    0    0    0    0 -0.00000000000E+00 -0.00000000000E+00 -0.40000000000E+02  0.40000000000E+02  0.00000000000E+00 0. -1.
         23    2    1    2    0    0  0.00000000000E+00  0.00000000000E+00  0.00000000000E+00  0.80000000000E+02  0.80000000000E+02 0.  0.
          5    1    3    3  501    0  0.30649379229E+02 -0.21503148938E+02 -0.13271779785E+02  0.40000000000E+02  0.47000000000E+01 0. -1.
         -5    1    3    3    0  501 -0.30649379229E+02  0.21503148938E+02  0.13271779785E+02  0.40000000000E+02  0.47000000000E+01 0.  1.
</event>
<event>
 5    1  0.4781763E-001  0.8000000E+02  0.7546771E-02  0.1203772E+00
         11   -1    0    0    0    0  0.00000000000E+00  0.00000000000E+00  0.40000000000E+02  0.40000000000E+02  0.00000000000E+00 0.  1.
        -11   -1    0    0    0    0 -0.00000000000E+00 -0.00000000000E+00 -0.40000000000E+02  0.40000000000E+02  0.00000000000E+00 0. -1.
         23    2    1    2    0    0  0.00000000000E+00  0.00000000000E+00  0.00000000000E+00  0.80000000000E+02  0.80000000000E+02 0.  0.
          5    1    3    3  501    0 -0.24075529160E+02 -0.75258420679E+01 -0.30686162954E+02  0.40000000000E+02  0.47000000000E+01 0. -1.
         -5    1    3    3    0  501  0.24075529160E+02  0.75258420679E+01  0.30686162954E+02  0.40000000000E+02  0.47000000000E+01 0.  1.
</event>
<event>
 5    1  0.4781763E-001  0.8000000E+02  0.7546771E-02  0.1203772E+00
         11   -1    0    0    0    0  0.00000000000E+00  0.00000000000E+00  0.40000000000E+02  0.40000000000E+02  0.00000000000E+00 0. -1.
        -11   -1    0    0    0    0 -0.00000000000E+00 -0.00000000000E+00 -0.40000000000E+02  0.40000000000E+02  0.00000000000E+00 0.  1.
         23    2    1    2    0    0  0.00000000000E+00  0.00000000000E+00  0.00000000000E+00  0.80000000000E+02  0.80000000000E+02 0.  0.
          5    1    3    3  501    0 -0.30564657055E+02  0.24553222073E+02 -0.63914806557E+01  0.40000000000E+02  0.47000000000E+01 0. -1.
         -5    1    3    3    0  501  0.30564657055E+02 -0.24553222073E+02  0.63914806557E+01  0.40000000000E+02  0.47000000000E+01 0.  1.
</event>
<event>
 5    1  0.4781763E-001  0.8000000E+02  0.7546771E-02  0.1203772E+00
         11   -1    0    0    0    0  0.00000000000E+00  0.00000000000E+00  0.40000000000E+02  0.40000000000E+02  0.00000000000E+00 0. -1.
        -11   -1    0    0    0    0 -0.00000000000E+00 -0.00000000000E+00 -0.40000000000E+02  0.40000000000E+02  0.00000000000E+00 0.  1.
         23    2    1    2    0    0  0.00000000000E+00  0.00000000000E+00  0.00000000000E+00  0.80000000000E+02  0.80000000000E+02 0.  0.
          5    1    3    3  501    0 -0.17556478122E+02  0.91437670202E+01  0.34439390248E+02  0.40000000000E+02  0.47000000000E+01 0. -1.
         -5    1    3    3    0  501  0.17556478122E+02 -0.91437670202E+01 -0.34439390248E+02  0.40000000000E+02  0.47000000000E+01 0.  1.
</event>
<event>
 5    1  0.4781763E-001  0.8000000E+02  0.7546771E-02  0.1203772E+00
         11   -1    0    0    0    0  0.00000000000E+00  0.00000000000E+00  0.40000000000E+02  0.40000000000E+02  0.00000000000E+00 0. -1.
        -11   -1    0    0    0    0 -0.00000000000E+00 -0.00000000000E+00 -0.40000000000E+02  0.40000000000E+02  0.00000000000E+00 0.  1.
         23    2    1    2    0    0  0.00000000000E+00  0.00000000000E+00  0.00000000000E+00  0.80000000000E+02  0.80000000000E+02 0.  0.
          5    1    3    3  501    0  0.59318738390E+01 -0.35831995006E+02  0.16086982522E+02  0.40000000000E+02  0.47000000000E+01 0. -1.
         -5    1    3    3    0  501 -0.59318738390E+01  0.35831995006E+02 -0.16086982522E+02  0.40000000000E+02  0.47000000000E+01 0.  1.
</event>
<event>
 5    1  0.4781763E-001  0.8000000E+02  0.7546771E-02  0.1203772E+00
         11   -1    0    0    0    0  0.00000000000E+00  0.00000000000E+00  0.40000000000E+02  0.40000000000E+02  0.00000000000E+00 0. -1.
        -11   -1    0    0    0    0 -0.00000000000E+00 -0.00000000000E+00 -0.40000000000E+02  0.40000000000E+02  0.00000000000E+00 0.  1.
         23    2    1    2    0    0  0.00000000000E+00  0.00000000000E+00  0.00000000000E+00  0.80000000000E+02  0.80000000000E+02 0.  0.
          5    1    3    3  501    0 -0.16393588963E+02 -0.24108145521E+02  0.26980688658E+02  0.40000000000E+02  0.47000000000E+01 0. -1.
         -5    1    3    3    0  501  0.16393588963E+02  0.24108145521E+02 -0.26980688658E+02  0.40000000000E+02  0.47000000000E+01 0.  1.
</event>
<event>
 5    1  0.4781763E-001  0.8000000E+02  0.7546771E-02  0.1203772E+00
         11   -1    0    0    0    0  0.00000000000E+00  0.00000000000E+00  0.40000000000E+02  0.40000000000E+02  0.00000000000E+00 0. -1.
        -11   -1    0    0    0    0 -0.00000000000E+00 -0.00000000000E+00 -0.40000000000E+02  0.40000000000E+02  0.00000000000E+00 0.  1.
         23    2    1    2    0    0  0.00000000000E+00  0.00000000000E+00  0.00000000000E+00  0.80000000000E+02  0.80000000000E+02 0.  0.
          5    1    3    3  501    0 -0.22979601865E+02 -0.31516320146E+02  0.75212673496E+01  0.40000000000E+02  0.47000000000E+01 0. -1.
         -5    1    3    3    0  501  0.22979601865E+02  0.31516320146E+02 -0.75212673496E+01  0.40000000000E+02  0.47000000000E+01 0.  1.
</event>
<event>
 5    1  0.4781763E-001  0.8000000E+02  0.7546771E-02  0.1203772E+00
         11   -1    0    0    0    0  0.00000000000E+00  0.00000000000E+00  0.40000000000E+02  0.40000000000E+02  0.00000000000E+00 0. -1.
        -11   -1    0    0    0    0 -0.00000000000E+00 -0.00000000000E+00 -0.40000000000E+02  0.40000000000E+02  0.00000000000E+00 0.  1.
         23    2    1    2    0    0  0.00000000000E+00  0.00000000000E+00  0.00000000000E+00  0.80000000000E+02  0.80000000000E+02 0.  0.
          5    1    3    3  501    0 -0.11513045477E+01 -0.28888400886E+02  0.27240499116E+02  0.40000000000E+02  0.47000000000E+01 0. -1.
         -5    1    3    3    0  501  0.11513045477E+01  0.28888400886E+02 -0.27240499116E+02  0.40000000000E+02  0.47000000000E+01 0.  1.
</event>
<event>
 5    1  0.4781763E-001  0.8000000E+02  0.7546771E-02  0.1203772E+00
         11   -1    0    0    0    0  0.00000000000E+00  0.00000000000E+00  0.40000000000E+02  0.40000000000E+02  0.00000000000E+00 0. -1.
        -11   -1    0    0    0    0 -0.00000000000E+00 -0.00000000000E+00 -0.40000000000E+02  0.40000000000E+02  0.00000000000E+00 0.  1.
         23    2    1    2    0    0  0.00000000000E+00  0.00000000000E+00  0.00000000000E+00  0.80000000000E+02  0.80000000000E+02 0.  0.
          5    1    3    3  501    0  0.15864542216E+02  0.16896625705E+02 -0.32260352448E+02  0.40000000000E+02  0.47000000000E+01 0.  1.
         -5    1    3    3    0  501 -0.15864542216E+02 -0.16896625705E+02  0.32260352448E+02  0.40000000000E+02  0.47000000000E+01 0. -1.
</event>
<event>
 5    1  0.4781763E-001  0.8000000E+02  0.7546771E-02  0.1203772E+00
         11   -1    0    0    0    0  0.00000000000E+00  0.00000000000E+00  0.40000000000E+02  0.40000000000E+02  0.00000000000E+00 0.  1.
        -11   -1    0    0    0    0 -0.00000000000E+00 -0.00000000000E+00 -0.40000000000E+02  0.40000000000E+02  0.00000000000E+00 0. -1.
         23    2    1    2    0    0  0.00000000000E+00  0.00000000000E+00  0.00000000000E+00  0.80000000000E+02  0.80000000000E+02 0.  0.
          5    1    3    3  501    0 -0.92337926411E+01 -0.13188927672E+02 -0.36313898996E+02  0.40000000000E+02  0.47000000000E+01 0. -1.
         -5    1    3    3    0  501  0.92337926411E+01  0.13188927672E+02  0.36313898996E+02  0.40000000000E+02  0.47000000000E+01 0.  1.
</event>
<event>
 5    1  0.4781763E-001  0.8000000E+02  0.7546771E-02  0.1203772E+00
         11   -1    0    0    0    0  0.00000000000E+00  0.00000000000E+00  0.40000000000E+02  0.40000000000E+02  0.00000000000E+00 0.  1.
        -11   -1    0    0    0    0 -0.00000000000E+00 -0.00000000000E+00 -0.40000000000E+02  0.40000000000E+02  0.00000000000E+00 0. -1.
         23    2    1    2    0    0  0.00000000000E+00  0.00000000000E+00  0.00000000000E+00  0.80000000000E+02  0.80000000000E+02 0.  0.
          5    1    3    3  501    0  0.24963388863E+02  0.21636191735E+02 -0.22059338695E+02  0.40000000000E+02  0.47000000000E+01 0. -1.
         -5    1    3    3    0  501 -0.24963388863E+02 -0.21636191735E+02  0.22059338695E+02  0.40000000000E+02  0.47000000000E+01 0.  1.
</event>
<event>
 5    1  0.4781763E-001  0.8000000E+02  0.7546771E-02  0.1203772E+00
         11   -1    0    0    0    0  0.00000000000E+00  0.00000000000E+00  0.40000000000E+02  0.40000000000E+02  0.00000000000E+00 0.  1.
        -11   -1    0    0    0    0 -0.00000000000E+00 -0.00000000000E+00 -0.40000000000E+02  0.40000000000E+02  0.00000000000E+00 0. -1.
         23    2    1    2    0    0  0.00000000000E+00  0.00000000000E+00  0.00000000000E+00  0.80000000000E+02  0.80000000000E+02 0.  0.
          5    1    3    3  501    0 -0.22647740413E+02 -0.24239442303E+02 -0.21850384231E+02  0.40000000000E+02  0.47000000000E+01 0.  1.
         -5    1    3    3    0  501  0.22647740413E+02  0.24239442303E+02  0.21850384231E+02  0.40000000000E+02  0.47000000000E+01 0.  1.
</event>
<event>
 5    1  0.4781763E-001  0.8000000E+02  0.7546771E-02  0.1203772E+00
         11   -1    0    0    0    0  0.00000000000E+00  0.00000000000E+00  0.40000000000E+02  0.40000000000E+02  0.00000000000E+00 0.  1.
        -11   -1    0    0    0    0 -0.00000000000E+00 -0.00000000000E+00 -0.40000000000E+02  0.40000000000E+02  0.00000000000E+00 0. -1.
         23    2    1    2    0    0  0.00000000000E+00  0.00000000000E+00  0.00000000000E+00  0.80000000000E+02  0.80000000000E+02 0.  0.
          5    1    3    3  501    0  0.37930020200E+02 -0.41091898782E+01 -0.11060656679E+02  0.40000000000E+02  0.47000000000E+01 0. -1.
         -5    1    3    3    0  501 -0.37930020200E+02  0.41091898782E+01  0.11060656679E+02  0.40000000000E+02  0.47000000000E+01 0.  1.
</event>
<event>
 5    1  0.4781763E-001  0.8000000E+02  0.7546771E-02  0.1203772E+00
         11   -1    0    0    0    0  0.00000000000E+00  0.00000000000E+00  0.40000000000E+02  0.40000000000E+02  0.00000000000E+00 0.  1.
        -11   -1    0    0    0    0 -0.00000000000E+00 -0.00000000000E+00 -0.40000000000E+02  0.40000000000E+02  0.00000000000E+00 0. -1.
         23    2    1    2    0    0  0.00000000000E+00  0.00000000000E+00  0.00000000000E+00  0.80000000000E+02  0.80000000000E+02 0.  0.
          5    1    3    3  501    0 -0.22593391893E+02 -0.29870818740E+02  0.13235665099E+02  0.40000000000E+02  0.47000000000E+01 0. -1.
         -5    1    3    3    0  501  0.22593391893E+02  0.29870818740E+02 -0.13235665099E+02  0.40000000000E+02  0.47000000000E+01 0.  1.
</event>
<event>
 5    1  0.4781763E-001  0.8000000E+02  0.7546771E-02  0.1203772E+00
         11   -1    0    0    0    0  0.00000000000E+00  0.00000000000E+00  0.40000000000E+02  0.40000000000E+02  0.00000000000E+00 0. -1.
        -11   -1    0    0    0    0 -0.00000000000E+00 -0.00000000000E+00 -0.40000000000E+02  0.40000000000E+02  0.00000000000E+00 0.  1.
         23    2    1    2    0    0  0.00000000000E+00  0.00000000000E+00  0.00000000000E+00  0.80000000000E+02  0.80000000000E+02 0.  0.
          5    1    3    3  501    0  0.92625004695E+01  0.27354220502E+02 -0.27273846553E+02  0.40000000000E+02  0.47000000000E+01 0.  1.
         -5    1    3    3    0  501 -0.92625004695E+01 -0.27354220502E+02  0.27273846553E+02  0.40000000000E+02  0.47000000000E+01 0. -1.
</event>
<event>
 5    1  0.4781763E-001  0.8000000E+02  0.7546771E-02  0.1203772E+00
         11   -1    0    0    0    0  0.00000000000E+00  0.00000000000E+00  0.40000000000E+02  0.40000000000E+02  0.00000000000E+00 0.  1.
        -11   -1    0    0    0    0 -0.00000000000E+00 -0.00000000000E+00 -0.40000000000E+02  0.40000000000E+02  0.00000000000E+00 0. -1.
         23    2    1    2    0    0  0.00000000000E+00  0.00000000000E+00  0.00000000000E+00  0.80000000000E+02  0.80000000000E+02 0.  0.
          5    1    3    3  501    0 -0.39327209291E+01 -0.15243933933E+02 -0.36470072448E+02  0.40000000000E+02  0.47000000000E+01 0. -1.
         -5    1    3    3    0  501  0.39327209291E+01  0.15243933933E+02  0.36470072448E+02  0.40000000000E+02  0.47000000000E+01 0.  1.
</event>
<event>
 5    1  0.4781763E-001  0.8000000E+02  0.7546771E-02  0.1203772E+00
         11   -1    0    0    0    0  0.00000000000E+00  0.00000000000E+00  0.40000000000E+02  0.40000000000E+02  0.00000000000E+00 0. -1.
        -11   -1    0    0    0    0 -0.00000000000E+00 -0.00000000000E+00 -0.40000000000E+02  0.40000000000E+02  0.00000000000E+00 0.  1.
         23    2    1    2    0    0  0.00000000000E+00  0.00000000000E+00  0.00000000000E+00  0.80000000000E+02  0.80000000000E+02 0.  0.
          5    1    3    3  501    0 -0.49764635768E+01 -0.14032240163E+02  0.36827178093E+02  0.40000000000E+02  0.47000000000E+01 0. -1.
         -5    1    3    3    0  501  0.49764635768E+01  0.14032240163E+02 -0.36827178093E+02  0.40000000000E+02  0.47000000000E+01 0.  1.
</event>
<event>
 5    1  0.4781763E-001  0.8000000E+02  0.7546771E-02  0.1203772E+00
         11   -1    0    0    0    0  0.00000000000E+00  0.00000000000E+00  0.40000000000E+02  0.40000000000E+02  0.00000000000E+00 0. -1.
        -11   -1    0    0    0    0 -0.00000000000E+00 -0.00000000000E+00 -0.40000000000E+02  0.40000000000E+02  0.00000000000E+00 0.  1.
         23    2    1    2    0    0  0.00000000000E+00  0.00000000000E+00  0.00000000000E+00  0.80000000000E+02  0.80000000000E+02 0.  0.
          5    1    3    3  501    0 -0.31110374230E+02 -0.22697756626E+02  0.97399414483E+01  0.40000000000E+02  0.47000000000E+01 0. -1.
         -5    1    3    3    0  501  0.31110374230E+02  0.22697756626E+02 -0.97399414483E+01  0.40000000000E+02  0.47000000000E+01 0.  1.
</event>
<event>
 5    1  0.4781763E-001  0.8000000E+02  0.7546771E-02  0.1203772E+00
         11   -1    0    0    0    0  0.00000000000E+00  0.00000000000E+00  0.40000000000E+02  0.40000000000E+02  0.00000000000E+00 0.  1.
        -11   -1    0    0    0    0 -0.00000000000E+00 -0.00000000000E+00 -0.40000000000E+02  0.40000000000E+02  0.00000000000E+00 0. -1.
         23    2    1    2    0    0  0.00000000000E+00  0.00000000000E+00  0.00000000000E+00  0.80000000000E+02  0.80000000000E+02 0.  0.
          5    1    3    3  501    0 -0.23484598945E+02 -0.30802709798E+02  0.88077625715E+01  0.40000000000E+02  0.47000000000E+01 0. -1.
         -5    1    3    3    0  501  0.23484598945E+02  0.30802709798E+02 -0.88077625715E+01  0.40000000000E+02  0.47000000000E+01 0.  1.
</event>
<event>
 5    1  0.4781763E-001  0.8000000E+02  0.7546771E-02  0.1203772E+00
         11   -1    0    0    0    0  0.00000000000E+00  0.00000000000E+00  0.40000000000E+02  0.40000000000E+02  0.00000000000E+00 0.  1.
        -11   -1    0    0    0    0 -0.00000000000E+00 -0.00000000000E+00 -0.40000000000E+02  0.40000000000E+02  0.00000000000E+00 0. -1.
         23    2    1    2    0    0  0.00000000000E+00  0.00000000000E+00  0.00000000000E+00  0.80000000000E+02  0.80000000000E+02 0.  0.
          5    1    3    3  501    0  0.11139661567E+02  0.37868712742E+02  0.44473065374E+01  0.40000000000E+02  0.47000000000E+01 0. -1.
         -5    1    3    3    0  501 -0.11139661567E+02 -0.37868712742E+02 -0.44473065374E+01  0.40000000000E+02  0.47000000000E+01 0.  1.
</event>
<event>
 5    1  0.4781763E-001  0.8000000E+02  0.7546771E-02  0.1203772E+00
         11   -1    0    0    0    0  0.00000000000E+00  0.00000000000E+00  0.40000000000E+02  0.40000000000E+02  0.00000000000E+00 0.  1.
        -11   -1    0    0    0    0 -0.00000000000E+00 -0.00000000000E+00 -0.40000000000E+02  0.40000000000E+02  0.00000000000E+00 0. -1.
         23    2    1    2    0    0  0.00000000000E+00  0.00000000000E+00  0.00000000000E+00  0.80000000000E+02  0.80000000000E+02 0.  0.
          5    1    3    3  501    0  0.37179829780E+02  0.12421521255E+02  0.64246452983E+01  0.40000000000E+02  0.47000000000E+01 0. -1.
         -5    1    3    3    0  501 -0.37179829780E+02 -0.12421521255E+02 -0.64246452983E+01  0.40000000000E+02  0.47000000000E+01 0.  1.
</event>
<event>
 5    1  0.4781763E-001  0.8000000E+02  0.7546771E-02  0.1203772E+00
         11   -1    0    0    0    0  0.00000000000E+00  0.00000000000E+00  0.40000000000E+02  0.40000000000E+02  0.00000000000E+00 0.  1.
        -11   -1    0    0    0    0 -0.00000000000E+00 -0.00000000000E+00 -0.40000000000E+02  0.40000000000E+02  0.00000000000E+00 0. -1.
         23    2    1    2    0    0  0.00000000000E+00  0.00000000000E+00  0.00000000000E+00  0.80000000000E+02  0.80000000000E+02 0.  0.
          5    1    3    3  501    0 -0.31342172822E+02 -0.14815455805E+02 -0.19392794334E+02  0.40000000000E+02  0.47000000000E+01 0. -1.
         -5    1    3    3    0  501  0.31342172822E+02  0.14815455805E+02  0.19392794334E+02  0.40000000000E+02  0.47000000000E+01 0.  1.
</event>
<event>
 5    1  0.4781763E-001  0.8000000E+02  0.7546771E-02  0.1203772E+00
         11   -1    0    0    0    0  0.00000000000E+00  0.00000000000E+00  0.40000000000E+02  0.40000000000E+02  0.00000000000E+00 0.  1.
        -11   -1    0    0    0    0 -0.00000000000E+00 -0.00000000000E+00 -0.40000000000E+02  0.40000000000E+02  0.00000000000E+00 0. -1.
         23    2    1    2    0    0  0.00000000000E+00  0.00000000000E+00  0.00000000000E+00  0.80000000000E+02  0.80000000000E+02 0.  0.
          5    1    3    3  501    0 -0.35626230369E+02 -0.50575299829E+01 -0.16825667897E+02  0.40000000000E+02  0.47000000000E+01 0. -1.
         -5    1    3    3    0  501  0.35626230369E+02  0.50575299829E+01  0.16825667897E+02  0.40000000000E+02  0.47000000000E+01 0.  1.
</event>
<event>
 5    1  0.4781763E-001  0.8000000E+02  0.7546771E-02  0.1203772E+00
         11   -1    0    0    0    0  0.00000000000E+00  0.00000000000E+00  0.40000000000E+02  0.40000000000E+02  0.00000000000E+00 0. -1.
        -11   -1    0    0    0    0 -0.00000000000E+00 -0.00000000000E+00 -0.40000000000E+02  0.40000000000E+02  0.00000000000E+00 0.  1.
         23    2    1    2    0    0  0.00000000000E+00  0.00000000000E+00  0.00000000000E+00  0.80000000000E+02  0.80000000000E+02 0.  0.
          5    1    3    3  501    0  0.14320024649E+02 -0.36925576092E+02  0.30575683700E+01  0.40000000000E+02  0.47000000000E+01 0. -1.
         -5    1    3    3    0  501 -0.14320024649E+02  0.36925576092E+02 -0.30575683700E+01  0.40000000000E+02  0.47000000000E+01 0.  1.
</event>
<event>
 5    1  0.4781763E-001  0.8000000E+02  0.7546771E-02  0.1203772E+00
         11   -1    0    0    0    0  0.00000000000E+00  0.00000000000E+00  0.40000000000E+02  0.40000000000E+02  0.00000000000E+00 0. -1.
        -11   -1    0    0    0    0 -0.00000000000E+00 -0.00000000000E+00 -0.40000000000E+02  0.40000000000E+02  0.00000000000E+00 0.  1.
         23    2    1    2    0    0  0.00000000000E+00  0.00000000000E+00  0.00000000000E+00  0.80000000000E+02  0.80000000000E+02 0.  0.
          5    1    3    3  501    0 -0.11952484742E+02 -0.37879932412E+02 -0.39853347558E+00  0.40000000000E+02  0.47000000000E+01 0. -1.
         -5    1    3    3    0  501  0.11952484742E+02  0.37879932412E+02  0.39853347558E+00  0.40000000000E+02  0.47000000000E+01 0.  1.
</event>
<event>
 5    1  0.4781763E-001  0.8000000E+02  0.7546771E-02  0.1203772E+00
         11   -1    0    0    0    0  0.00000000000E+00  0.00000000000E+00  0.40000000000E+02  0.40000000000E+02  0.00000000000E+00 0.  1.
        -11   -1    0    0    0    0 -0.00000000000E+00 -0.00000000000E+00 -0.40000000000E+02  0.40000000000E+02  0.00000000000E+00 0. -1.
         23    2    1    2    0    0  0.00000000000E+00  0.00000000000E+00  0.00000000000E+00  0.80000000000E+02  0.80000000000E+02 0.  0.
          5    1    3    3  501    0 -0.29528480865E+02 -0.15454652297E+02 -0.21613249182E+02  0.40000000000E+02  0.47000000000E+01 0. -1.
         -5    1    3    3    0  501  0.29528480865E+02  0.15454652297E+02  0.21613249182E+02  0.40000000000E+02  0.47000000000E+01 0.  1.
</event>
<event>
 5    1  0.4781763E-001  0.8000000E+02  0.7546771E-02  0.1203772E+00
         11   -1    0    0    0    0  0.00000000000E+00  0.00000000000E+00  0.40000000000E+02  0.40000000000E+02  0.00000000000E+00 0.  1.
        -11   -1    0    0    0    0 -0.00000000000E+00 -0.00000000000E+00 -0.40000000000E+02  0.40000000000E+02  0.00000000000E+00 0. -1.
         23    2    1    2    0    0  0.00000000000E+00  0.00000000000E+00  0.00000000000E+00  0.80000000000E+02  0.80000000000E+02 0.  0.
          5    1    3    3  501    0  0.10730730496E+02 -0.35732917582E+02 -0.13635249324E+02  0.40000000000E+02  0.47000000000E+01 0. -1.
         -5    1    3    3    0  501 -0.10730730496E+02  0.35732917582E+02  0.13635249324E+02  0.40000000000E+02  0.47000000000E+01 0.  1.
</event>
<event>
 5    1  0.4781763E-001  0.8000000E+02  0.7546771E-02  0.1203772E+00
         11   -1    0    0    0    0  0.00000000000E+00  0.00000000000E+00  0.40000000000E+02  0.40000000000E+02  0.00000000000E+00 0. -1.
        -11   -1    0    0    0    0 -0.00000000000E+00 -0.00000000000E+00 -0.40000000000E+02  0.40000000000E+02  0.00000000000E+00 0.  1.
         23    2    1    2    0    0  0.00000000000E+00  0.00000000000E+00  0.00000000000E+00  0.80000000000E+02  0.80000000000E+02 0.  0.
          5    1    3    3  501    0 -0.21869368111E+02  0.23201336891E+02  0.23692587552E+02  0.40000000000E+02  0.47000000000E+01 0. -1.
         -5    1    3    3    0  501  0.21869368111E+02 -0.23201336891E+02 -0.23692587552E+02  0.40000000000E+02  0.47000000000E+01 0.  1.
</event>
<event>
 5    1  0.4781763E-001  0.8000000E+02  0.7546771E-02  0.1203772E+00
         11   -1    0    0    0    0  0.00000000000E+00  0.00000000000E+00  0.40000000000E+02  0.40000000000E+02  0.00000000000E+00 0. -1.
        -11   -1    0    0    0    0 -0.00000000000E+00 -0.00000000000E+00 -0.40000000000E+02  0.40000000000E+02  0.00000000000E+00 0.  1.
         23    2    1    2    0    0  0.00000000000E+00  0.00000000000E+00  0.00000000000E+00  0.80000000000E+02  0.80000000000E+02 0.  0.
          5    1    3    3  501    0 -0.25022311851E+02 -0.82131556496E+01  0.29737820766E+02  0.40000000000E+02  0.47000000000E+01 0. -1.
         -5    1    3    3    0  501  0.25022311851E+02  0.82131556496E+01 -0.29737820766E+02  0.40000000000E+02  0.47000000000E+01 0.  1.
</event>
<event>
 5    1  0.4781763E-001  0.8000000E+02  0.7546771E-02  0.1203772E+00
         11   -1    0    0    0    0  0.00000000000E+00  0.00000000000E+00  0.40000000000E+02  0.40000000000E+02  0.00000000000E+00 0.  1.
        -11   -1    0    0    0    0 -0.00000000000E+00 -0.00000000000E+00 -0.40000000000E+02  0.40000000000E+02  0.00000000000E+00 0. -1.
         23    2    1    2    0    0  0.00000000000E+00  0.00000000000E+00  0.00000000000E+00  0.80000000000E+02  0.80000000000E+02 0.  0.
          5    1    3    3  501    0 -0.55194461014E+01  0.39185899312E+02  0.34512330866E+01  0.40000000000E+02  0.47000000000E+01 0. -1.
         -5    1    3    3    0  501  0.55194461014E+01 -0.39185899312E+02 -0.34512330866E+01  0.40000000000E+02  0.47000000000E+01 0.  1.
</event>
<event>
 5    1  0.4781763E-001  0.8000000E+02  0.7546771E-02  0.1203772E+00
         11   -1    0    0    0    0  0.00000000000E+00  0.00000000000E+00  0.40000000000E+02  0.40000000000E+02  0.00000000000E+00 0. -1.
        -11   -1    0    0    0    0 -0.00000000000E+00 -0.00000000000E+00 -0.40000000000E+02  0.40000000000E+02  0.00000000000E+00 0.  1.
         23    2    1    2    0    0  0.00000000000E+00  0.00000000000E+00  0.00000000000E+00  0.80000000000E+02  0.80000000000E+02 0.  0.
          5    1    3    3  501    0  0.11390856492E+02 -0.12441748948E+02  0.35963332319E+02  0.40000000000E+02  0.47000000000E+01 0. -1.
         -5    1    3    3    0  501 -0.11390856492E+02  0.12441748948E+02 -0.35963332319E+02  0.40000000000E+02  0.47000000000E+01 0.  1.
</event>
<event>
 5    1  0.4781763E-001  0.8000000E+02  0.7546771E-02  0.1203772E+00
         11   -1    0    0    0    0  0.00000000000E+00  0.00000000000E+00  0.40000000000E+02  0.40000000000E+02  0.00000000000E+00 0. -1.
        -11   -1    0    0    0    0 -0.00000000000E+00 -0.00000000000E+00 -0.40000000000E+02  0.40000000000E+02  0.00000000000E+00 0.  1.
         23    2    1    2    0    0  0.00000000000E+00  0.00000000000E+00  0.00000000000E+00  0.80000000000E+02  0.80000000000E+02 0.  0.
          5    1    3    3  501    0 -0.59130968303E+01  0.84586001284E+01 -0.38358797814E+02  0.40000000000E+02  0.47000000000E+01 0.  1.
         -5    1    3    3    0  501  0.59130968303E+01 -0.84586001284E+01  0.38358797814E+02  0.40000000000E+02  0.47000000000E+01 0. -1.
</event>
<event>
 5    1  0.4781763E-001  0.8000000E+02  0.7546771E-02  0.1203772E+00
         11   -1    0    0    0    0  0.00000000000E+00  0.00000000000E+00  0.40000000000E+02  0.40000000000E+02  0.00000000000E+00 0. -1.
        -11   -1    0    0    0    0 -0.00000000000E+00 -0.00000000000E+00 -0.40000000000E+02  0.40000000000E+02  0.00000000000E+00 0.  1.
         23    2    1    2    0    0  0.00000000000E+00  0.00000000000E+00  0.00000000000E+00  0.80000000000E+02  0.80000000000E+02 0.  0.
          5    1    3    3  501    0 -0.13606239356E+02  0.66947656081E+01  0.36714579720E+02  0.40000000000E+02  0.47000000000E+01 0. -1.
         -5    1    3    3    0  501  0.13606239356E+02 -0.66947656081E+01 -0.36714579720E+02  0.40000000000E+02  0.47000000000E+01 0.  1.
</event>
<event>
 5    1  0.4781763E-001  0.8000000E+02  0.7546771E-02  0.1203772E+00
         11   -1    0    0    0    0  0.00000000000E+00  0.00000000000E+00  0.40000000000E+02  0.40000000000E+02  0.00000000000E+00 0.  1.
        -11   -1    0    0    0    0 -0.00000000000E+00 -0.00000000000E+00 -0.40000000000E+02  0.40000000000E+02  0.00000000000E+00 0. -1.
         23    2    1    2    0    0  0.00000000000E+00  0.00000000000E+00  0.00000000000E+00  0.80000000000E+02  0.80000000000E+02 0.  0.
          5    1    3    3  501    0 -0.28164616977E+02 -0.93802413964E+01 -0.26394609713E+02  0.40000000000E+02  0.47000000000E+01 0. -1.
         -5    1    3    3    0  501  0.28164616977E+02  0.93802413964E+01  0.26394609713E+02  0.40000000000E+02  0.47000000000E+01 0.  1.
</event>
<event>
 5    1  0.4781763E-001  0.8000000E+02  0.7546771E-02  0.1203772E+00
         11   -1    0    0    0    0  0.00000000000E+00  0.00000000000E+00  0.40000000000E+02  0.40000000000E+02  0.00000000000E+00 0. -1.
        -11   -1    0    0    0    0 -0.00000000000E+00 -0.00000000000E+00 -0.40000000000E+02  0.40000000000E+02  0.00000000000E+00 0.  1.
         23    2    1    2    0    0  0.00000000000E+00  0.00000000000E+00  0.00000000000E+00  0.80000000000E+02  0.80000000000E+02 0.  0.
          5    1    3    3  501    0 -0.31736245117E+02 -0.21889531395E+02  0.95691776628E+01  0.40000000000E+02  0.47000000000E+01 0. -1.
         -5    1    3    3    0  501  0.31736245117E+02  0.21889531395E+02 -0.95691776628E+01  0.40000000000E+02  0.47000000000E+01 0.  1.
</event>
<event>
 5    1  0.4781763E-001  0.8000000E+02  0.7546771E-02  0.1203772E+00
         11   -1    0    0    0    0  0.00000000000E+00  0.00000000000E+00  0.40000000000E+02  0.40000000000E+02  0.00000000000E+00 0. -1.
        -11   -1    0    0    0    0 -0.00000000000E+00 -0.00000000000E+00 -0.40000000000E+02  0.40000000000E+02  0.00000000000E+00 0.  1.
         23    2    1    2    0    0  0.00000000000E+00  0.00000000000E+00  0.00000000000E+00  0.80000000000E+02  0.80000000000E+02 0.  0.
          5    1    3    3  501    0  0.30686957462E+01  0.10205647795E+01  0.39591053964E+02  0.40000000000E+02  0.47000000000E+01 0. -1.
         -5    1    3    3    0  501 -0.30686957462E+01 -0.10205647795E+01 -0.39591053964E+02  0.40000000000E+02  0.47000000000E+01 0.  1.
</event>
<event>
 5    1  0.4781763E-001  0.8000000E+02  0.7546771E-02  0.1203772E+00
         11   -1    0    0    0    0  0.00000000000E+00  0.00000000000E+00  0.40000000000E+02  0.40000000000E+02  0.00000000000E+00 0.  1.
        -11   -1    0    0    0    0 -0.00000000000E+00 -0.00000000000E+00 -0.40000000000E+02  0.40000000000E+02  0.00000000000E+00 0. -1.
         23    2    1    2    0    0  0.00000000000E+00  0.00000000000E+00  0.00000000000E+00  0.80000000000E+02  0.80000000000E+02 0.  0.
          5    1    3    3  501    0 -0.34049658758E+02  0.19183572284E+02  0.71078332037E+01  0.40000000000E+02  0.47000000000E+01 0. -1.
         -5    1    3    3    0  501  0.34049658758E+02 -0.19183572284E+02 -0.71078332037E+01  0.40000000000E+02  0.47000000000E+01 0.  1.
</event>
<event>
 5    1  0.4781763E-001  0.8000000E+02  0.7546771E-02  0.1203772E+00
         11   -1    0    0    0    0  0.00000000000E+00  0.00000000000E+00  0.40000000000E+02  0.40000000000E+02  0.00000000000E+00 0. -1.
        -11   -1    0    0    0    0 -0.00000000000E+00 -0.00000000000E+00 -0.40000000000E+02  0.40000000000E+02  0.00000000000E+00 0.  1.
         23    2    1    2    0    0  0.00000000000E+00  0.00000000000E+00  0.00000000000E+00  0.80000000000E+02  0.80000000000E+02 0.  0.
          5    1    3    3  501    0 -0.21808198347E+02 -0.66747107297E+01  0.32523233565E+02  0.40000000000E+02  0.47000000000E+01 0. -1.
         -5    1    3    3    0  501  0.21808198347E+02  0.66747107297E+01 -0.32523233565E+02  0.40000000000E+02  0.47000000000E+01 0.  1.
</event>
<event>
 5    1  0.4781763E-001  0.8000000E+02  0.7546771E-02  0.1203772E+00
         11   -1    0    0    0    0  0.00000000000E+00  0.00000000000E+00  0.40000000000E+02  0.40000000000E+02  0.00000000000E+00 0. -1.
        -11   -1    0    0    0    0 -0.00000000000E+00 -0.00000000000E+00 -0.40000000000E+02  0.40000000000E+02  0.00000000000E+00 0.  1.
         23    2    1    2    0    0  0.00000000000E+00  0.00000000000E+00  0.00000000000E+00  0.80000000000E+02  0.80000000000E+02 0.  0.
          5    1    3    3  501    0  0.27049919404E+02 -0.28002835063E+02 -0.78773782853E+01  0.40000000000E+02  0.47000000000E+01 0. -1.
         -5    1    3    3    0  501 -0.27049919404E+02  0.28002835063E+02  0.78773782853E+01  0.40000000000E+02  0.47000000000E+01 0.  1.
</event>
<event>
 5    1  0.4781763E-001  0.8000000E+02  0.7546771E-02  0.1203772E+00
         11   -1    0    0    0    0  0.00000000000E+00  0.00000000000E+00  0.40000000000E+02  0.40000000000E+02  0.00000000000E+00 0.  1.
        -11   -1    0    0    0    0 -0.00000000000E+00 -0.00000000000E+00 -0.40000000000E+02  0.40000000000E+02  0.00000000000E+00 0. -1.
         23    2    1    2    0    0  0.00000000000E+00  0.00000000000E+00  0.00000000000E+00  0.80000000000E+02  0.80000000000E+02 0.  0.
          5    1    3    3  501    0  0.15372529518E+02  0.31530072849E+02 -0.18640006501E+02  0.40000000000E+02  0.47000000000E+01 0. -1.
         -5    1    3    3    0  501 -0.15372529518E+02 -0.31530072849E+02  0.18640006501E+02  0.40000000000E+02  0.47000000000E+01 0.  1.
</event>
<event>
 5    1  0.4781763E-001  0.8000000E+02  0.7546771E-02  0.1203772E+00
         11   -1    0    0    0    0  0.00000000000E+00  0.00000000000E+00  0.40000000000E+02  0.40000000000E+02  0.00000000000E+00 0. -1.
        -11   -1    0    0    0    0 -0.00000000000E+00 -0.00000000000E+00 -0.40000000000E+02  0.40000000000E+02  0.00000000000E+00 0.  1.
         23    2    1    2    0    0  0.00000000000E+00  0.00000000000E+00  0.00000000000E+00  0.80000000000E+02  0.80000000000E+02 0.  0.
          5    1    3    3  501    0 -0.15676011325E+02  0.64287357867E+01  0.35928317872E+02  0.40000000000E+02  0.47000000000E+01 0. -1.
         -5    1    3    3    0  501  0.15676011325E+02 -0.64287357867E+01 -0.35928317872E+02  0.40000000000E+02  0.47000000000E+01 0.  1.
</event>
<event>
 5    1  0.4781763E-001  0.8000000E+02  0.7546771E-02  0.1203772E+00
         11   -1    0    0    0    0  0.00000000000E+00  0.00000000000E+00  0.40000000000E+02  0.40000000000E+02  0.00000000000E+00 0.  1.
        -11   -1    0    0    0    0 -0.00000000000E+00 -0.00000000000E+00 -0.40000000000E+02  0.40000000000E+02  0.00000000000E+00 0. -1.
         23    2    1    2    0    0  0.00000000000E+00  0.00000000000E+00  0.00000000000E+00  0.80000000000E+02  0.80000000000E+02 0.  0.
          5    1    3    3  501    0  0.34178923199E+02  0.80256870752E+01 -0.18582237646E+02  0.40000000000E+02  0.47000000000E+01 0. -1.
         -5    1    3    3    0  501 -0.34178923199E+02 -0.80256870752E+01  0.18582237646E+02  0.40000000000E+02  0.47000000000E+01 0.  1.
</event>
<event>
 5    1  0.4781763E-001  0.8000000E+02  0.7546771E-02  0.1203772E+00
         11   -1    0    0    0    0  0.00000000000E+00  0.00000000000E+00  0.40000000000E+02  0.40000000000E+02  0.00000000000E+00 0.  1.
        -11   -1    0    0    0    0 -0.00000000000E+00 -0.00000000000E+00 -0.40000000000E+02  0.40000000000E+02  0.00000000000E+00 0. -1.
         23    2    1    2    0    0  0.00000000000E+00  0.00000000000E+00  0.00000000000E+00  0.80000000000E+02  0.80000000000E+02 0.  0.
          5    1    3    3  501    0  0.18723219382E+02  0.22993629979E+02 -0.26431875385E+02  0.40000000000E+02  0.47000000000E+01 0. -1.
         -5    1    3    3    0  501 -0.18723219382E+02 -0.22993629979E+02  0.26431875385E+02  0.40000000000E+02  0.47000000000E+01 0.  1.
</event>
<event>
 5    1  0.4781763E-001  0.8000000E+02  0.7546771E-02  0.1203772E+00
         11   -1    0    0    0    0  0.00000000000E+00  0.00000000000E+00  0.40000000000E+02  0.40000000000E+02  0.00000000000E+00 0.  1.
        -11   -1    0    0    0    0 -0.00000000000E+00 -0.00000000000E+00 -0.40000000000E+02  0.40000000000E+02  0.00000000000E+00 0. -1.
         23    2    1    2    0    0  0.00000000000E+00  0.00000000000E+00  0.00000000000E+00  0.80000000000E+02  0.80000000000E+02 0.  0.
          5    1    3    3  501    0 -0.28882333591E+02 -0.22247700618E+02 -0.15772147082E+02  0.40000000000E+02  0.47000000000E+01 0. -1.
         -5    1    3    3    0  501  0.28882333591E+02  0.22247700618E+02  0.15772147082E+02  0.40000000000E+02  0.47000000000E+01 0.  1.
</event>
<event>
 5    1  0.4781763E-001  0.8000000E+02  0.7546771E-02  0.1203772E+00
         11   -1    0    0    0    0  0.00000000000E+00  0.00000000000E+00  0.40000000000E+02  0.40000000000E+02  0.00000000000E+00 0. -1.
        -11   -1    0    0    0    0 -0.00000000000E+00 -0.00000000000E+00 -0.40000000000E+02  0.40000000000E+02  0.00000000000E+00 0.  1.
         23    2    1    2    0    0  0.00000000000E+00  0.00000000000E+00  0.00000000000E+00  0.80000000000E+02  0.80000000000E+02 0.  0.
          5    1    3    3  501    0  0.10167580253E+02  0.34239686698E+02 -0.17383157556E+02  0.40000000000E+02  0.47000000000E+01 0.  1.
         -5    1    3    3    0  501 -0.10167580253E+02 -0.34239686698E+02  0.17383157556E+02  0.40000000000E+02  0.47000000000E+01 0. -1.
</event>
<event>
 5    1  0.4781763E-001  0.8000000E+02  0.7546771E-02  0.1203772E+00
         11   -1    0    0    0    0  0.00000000000E+00  0.00000000000E+00  0.40000000000E+02  0.40000000000E+02  0.00000000000E+00 0.  1.
        -11   -1    0    0    0    0 -0.00000000000E+00 -0.00000000000E+00 -0.40000000000E+02  0.40000000000E+02  0.00000000000E+00 0. -1.
         23    2    1    2    0    0  0.00000000000E+00  0.00000000000E+00  0.00000000000E+00  0.80000000000E+02  0.80000000000E+02 0.  0.
          5    1    3    3  501    0 -0.25433000497E+02  0.26378411301E+02 -0.15337923686E+02  0.40000000000E+02  0.47000000000E+01 0. -1.
         -5    1    3    3    0  501  0.25433000497E+02 -0.26378411301E+02  0.15337923686E+02  0.40000000000E+02  0.47000000000E+01 0.  1.
</event>
<event>
 5    1  0.4781763E-001  0.8000000E+02  0.7546771E-02  0.1203772E+00
         11   -1    0    0    0    0  0.00000000000E+00  0.00000000000E+00  0.40000000000E+02  0.40000000000E+02  0.00000000000E+00 0. -1.
        -11   -1    0    0    0    0 -0.00000000000E+00 -0.00000000000E+00 -0.40000000000E+02  0.40000000000E+02  0.00000000000E+00 0.  1.
         23    2    1    2    0    0  0.00000000000E+00  0.00000000000E+00  0.00000000000E+00  0.80000000000E+02  0.80000000000E+02 0.  0.
          5    1    3    3  501    0 -0.19030402738E+02 -0.13179731278E+02  0.32280775317E+02  0.40000000000E+02  0.47000000000E+01 0. -1.
         -5    1    3    3    0  501  0.19030402738E+02  0.13179731278E+02 -0.32280775317E+02  0.40000000000E+02  0.47000000000E+01 0.  1.
</event>
<event>
 5    1  0.4781763E-001  0.8000000E+02  0.7546771E-02  0.1203772E+00
         11   -1    0    0    0    0  0.00000000000E+00  0.00000000000E+00  0.40000000000E+02  0.40000000000E+02  0.00000000000E+00 0. -1.
        -11   -1    0    0    0    0 -0.00000000000E+00 -0.00000000000E+00 -0.40000000000E+02  0.40000000000E+02  0.00000000000E+00 0.  1.
         23    2    1    2    0    0  0.00000000000E+00  0.00000000000E+00  0.00000000000E+00  0.80000000000E+02  0.80000000000E+02 0.  0.
          5    1    3    3  501    0 -0.23358770461E+02 -0.30521139671E+02  0.10036825980E+02  0.40000000000E+02  0.47000000000E+01 0. -1.
         -5    1    3    3    0  501  0.23358770461E+02  0.30521139671E+02 -0.10036825980E+02  0.40000000000E+02  0.47000000000E+01 0.  1.
</event>
<event>
 5    1  0.4781763E-001  0.8000000E+02  0.7546771E-02  0.1203772E+00
         11   -1    0    0    0    0  0.00000000000E+00  0.00000000000E+00  0.40000000000E+02  0.40000000000E+02  0.00000000000E+00 0.  1.
        -11   -1    0    0    0    0 -0.00000000000E+00 -0.00000000000E+00 -0.40000000000E+02  0.40000000000E+02  0.00000000000E+00 0. -1.
         23    2    1    2    0    0  0.00000000000E+00  0.00000000000E+00  0.00000000000E+00  0.80000000000E+02  0.80000000000E+02 0.  0.
          5    1    3    3  501    0  0.16702804289E+02 -0.35921968493E+02 -0.29220726343E+01  0.40000000000E+02  0.47000000000E+01 0. -1.
         -5    1    3    3    0  501 -0.16702804289E+02  0.35921968493E+02  0.29220726343E+01  0.40000000000E+02  0.47000000000E+01 0.  1.
</event>
<event>
 5    1  0.4781763E-001  0.8000000E+02  0.7546771E-02  0.1203772E+00
         11   -1    0    0    0    0  0.00000000000E+00  0.00000000000E+00  0.40000000000E+02  0.40000000000E+02  0.00000000000E+00 0.  1.
        -11   -1    0    0    0    0 -0.00000000000E+00 -0.00000000000E+00 -0.40000000000E+02  0.40000000000E+02  0.00000000000E+00 0. -1.
         23    2    1    2    0    0  0.00000000000E+00  0.00000000000E+00  0.00000000000E+00  0.80000000000E+02  0.80000000000E+02 0.  0.
          5    1    3    3  501    0 -0.24294619552E+02 -0.10470188252E+02 -0.29632020161E+02  0.40000000000E+02  0.47000000000E+01 0. -1.
         -5    1    3    3    0  501  0.24294619552E+02  0.10470188252E+02  0.29632020161E+02  0.40000000000E+02  0.47000000000E+01 0.  1.
</event>
<event>
 5    1  0.4781763E-001  0.8000000E+02  0.7546771E-02  0.1203772E+00
         11   -1    0    0    0    0  0.00000000000E+00  0.00000000000E+00  0.40000000000E+02  0.40000000000E+02  0.00000000000E+00 0. -1.
        -11   -1    0    0    0    0 -0.00000000000E+00 -0.00000000000E+00 -0.40000000000E+02  0.40000000000E+02  0.00000000000E+00 0.  1.
         23    2    1    2    0    0  0.00000000000E+00  0.00000000000E+00  0.00000000000E+00  0.80000000000E+02  0.80000000000E+02 0.  0.
          5    1    3    3  501    0  0.27545050389E+02 -0.27392198266E+02  0.82974498048E+01  0.40000000000E+02  0.47000000000E+01 0. -1.
         -5    1    3    3    0  501 -0.27545050389E+02  0.27392198266E+02 -0.82974498048E+01  0.40000000000E+02  0.47000000000E+01 0.  1.
</event>
<event>
 5    1  0.4781763E-001  0.8000000E+02  0.7546771E-02  0.1203772E+00
         11   -1    0    0    0    0  0.00000000000E+00  0.00000000000E+00  0.40000000000E+02  0.40000000000E+02  0.00000000000E+00 0.  1.
        -11   -1    0    0    0    0 -0.00000000000E+00 -0.00000000000E+00 -0.40000000000E+02  0.40000000000E+02  0.00000000000E+00 0. -1.
         23    2    1    2    0    0  0.00000000000E+00  0.00000000000E+00  0.00000000000E+00  0.80000000000E+02  0.80000000000E+02 0.  0.
          5    1    3    3  501    0  0.28649740580E+02 -0.14707397540E+02 -0.23254995642E+02  0.40000000000E+02  0.47000000000E+01 0. -1.
         -5    1    3    3    0  501 -0.28649740580E+02  0.14707397540E+02  0.23254995642E+02  0.40000000000E+02  0.47000000000E+01 0.  1.
</event>
<event>
 5    1  0.4781763E-001  0.8000000E+02  0.7546771E-02  0.1203772E+00
         11   -1    0    0    0    0  0.00000000000E+00  0.00000000000E+00  0.40000000000E+02  0.40000000000E+02  0.00000000000E+00 0.  1.
        -11   -1    0    0    0    0 -0.00000000000E+00 -0.00000000000E+00 -0.40000000000E+02  0.40000000000E+02  0.00000000000E+00 0. -1.
         23    2    1    2    0    0  0.00000000000E+00  0.00000000000E+00  0.00000000000E+00  0.80000000000E+02  0.80000000000E+02 0.  0.
          5    1    3    3  501    0  0.15674287788E+02 -0.33242524423E+01 -0.36347985474E+02  0.40000000000E+02  0.47000000000E+01 0. -1.
         -5    1    3    3    0  501 -0.15674287788E+02  0.33242524423E+01  0.36347985474E+02  0.40000000000E+02  0.47000000000E+01 0.  1.
</event>
<event>
 5    1  0.4781763E-001  0.8000000E+02  0.7546771E-02  0.1203772E+00
         11   -1    0    0    0    0  0.00000000000E+00  0.00000000000E+00  0.40000000000E+02  0.40000000000E+02  0.00000000000E+00 0.  1.
        -11   -1    0    0    0    0 -0.00000000000E+00 -0.00000000000E+00 -0.40000000000E+02  0.40000000000E+02  0.00000000000E+00 0. -1.
         23    2    1    2    0    0  0.00000000000E+00  0.00000000000E+00  0.00000000000E+00  0.80000000000E+02  0.80000000000E+02 0.  0.
          5    1    3    3  501    0  0.36546288676E+02  0.12721089170E+01 -0.15513237022E+02  0.40000000000E+02  0.47000000000E+01 0. -1.
         -5    1    3    3    0  501 -0.36546288676E+02 -0.12721089170E+01  0.15513237022E+02  0.40000000000E+02  0.47000000000E+01 0.  1.
</event>
<event>
 5    1  0.4781763E-001  0.8000000E+02  0.7546771E-02  0.1203772E+00
         11   -1    0    0    0    0  0.00000000000E+00  0.00000000000E+00  0.40000000000E+02  0.40000000000E+02  0.00000000000E+00 0.  1.
        -11   -1    0    0    0    0 -0.00000000000E+00 -0.00000000000E+00 -0.40000000000E+02  0.40000000000E+02  0.00000000000E+00 0. -1.
         23    2    1    2    0    0  0.00000000000E+00  0.00000000000E+00  0.00000000000E+00  0.80000000000E+02  0.80000000000E+02 0.  0.
          5    1    3    3  501    0 -0.76807123462E+01  0.28831863576E+02 -0.26222896495E+02  0.40000000000E+02  0.47000000000E+01 0. -1.
         -5    1    3    3    0  501  0.76807123462E+01 -0.28831863576E+02  0.26222896495E+02  0.40000000000E+02  0.47000000000E+01 0.  1.
</event>
<event>
 5    1  0.4781763E-001  0.8000000E+02  0.7546771E-02  0.1203772E+00
         11   -1    0    0    0    0  0.00000000000E+00  0.00000000000E+00  0.40000000000E+02  0.40000000000E+02  0.00000000000E+00 0. -1.
        -11   -1    0    0    0    0 -0.00000000000E+00 -0.00000000000E+00 -0.40000000000E+02  0.40000000000E+02  0.00000000000E+00 0.  1.
         23    2    1    2    0    0  0.00000000000E+00  0.00000000000E+00  0.00000000000E+00  0.80000000000E+02  0.80000000000E+02 0.  0.
          5    1    3    3  501    0 -0.10086460043E+01 -0.68932337828E+00  0.39704124049E+02  0.40000000000E+02  0.47000000000E+01 0. -1.
         -5    1    3    3    0  501  0.10086460043E+01  0.68932337828E+00 -0.39704124049E+02  0.40000000000E+02  0.47000000000E+01 0.  1.
</event>
<event>
 5    1  0.4781763E-001  0.8000000E+02  0.7546771E-02  0.1203772E+00
         11   -1    0    0    0    0  0.00000000000E+00  0.00000000000E+00  0.40000000000E+02  0.40000000000E+02  0.00000000000E+00 0.  1.
        -11   -1    0    0    0    0 -0.00000000000E+00 -0.00000000000E+00 -0.40000000000E+02  0.40000000000E+02  0.00000000000E+00 0. -1.
         23    2    1    2    0    0  0.00000000000E+00  0.00000000000E+00  0.00000000000E+00  0.80000000000E+02  0.80000000000E+02 0.  0.
          5    1    3    3  501    0  0.87448475892E+01  0.33056331230E+02 -0.20216740743E+02  0.40000000000E+02  0.47000000000E+01 0. -1.
         -5    1    3    3    0  501 -0.87448475892E+01 -0.33056331230E+02  0.20216740743E+02  0.40000000000E+02  0.47000000000E+01 0.  1.
</event>
<event>
 5    1  0.4781763E-001  0.8000000E+02  0.7546771E-02  0.1203772E+00
         11   -1    0    0    0    0  0.00000000000E+00  0.00000000000E+00  0.40000000000E+02  0.40000000000E+02  0.00000000000E+00 0.  1.
        -11   -1    0    0    0    0 -0.00000000000E+00 -0.00000000000E+00 -0.40000000000E+02  0.40000000000E+02  0.00000000000E+00 0. -1.
         23    2    1    2    0    0  0.00000000000E+00  0.00000000000E+00  0.00000000000E+00  0.80000000000E+02  0.80000000000E+02 0.  0.
          5    1    3    3  501    0  0.16921066635E+02 -0.35981785858E+01 -0.35758084608E+02  0.40000000000E+02  0.47000000000E+01 0. -1.
         -5    1    3    3    0  501 -0.16921066635E+02  0.35981785858E+01  0.35758084608E+02  0.40000000000E+02  0.47000000000E+01 0.  1.
</event>
<event>
 5    1  0.4781763E-001  0.8000000E+02  0.7546771E-02  0.1203772E+00
         11   -1    0    0    0    0  0.00000000000E+00  0.00000000000E+00  0.40000000000E+02  0.40000000000E+02  0.00000000000E+00 0.  1.
        -11   -1    0    0    0    0 -0.00000000000E+00 -0.00000000000E+00 -0.40000000000E+02  0.40000000000E+02  0.00000000000E+00 0. -1.
         23    2    1    2    0    0  0.00000000000E+00  0.00000000000E+00  0.00000000000E+00  0.80000000000E+02  0.80000000000E+02 0.  0.
          5    1    3    3  501    0 -0.76302034364E+01 -0.32088686054E+02 -0.22136084180E+02  0.40000000000E+02  0.47000000000E+01 0. -1.
         -5    1    3    3    0  501  0.76302034364E+01  0.32088686054E+02  0.22136084180E+02  0.40000000000E+02  0.47000000000E+01 0.  1.
</event>
<event>
 5    1  0.4781763E-001  0.8000000E+02  0.7546771E-02  0.1203772E+00
         11   -1    0    0    0    0  0.00000000000E+00  0.00000000000E+00  0.40000000000E+02  0.40000000000E+02  0.00000000000E+00 0.  1.
        -11   -1    0    0    0    0 -0.00000000000E+00 -0.00000000000E+00 -0.40000000000E+02  0.40000000000E+02  0.00000000000E+00 0. -1.
         23    2    1    2    0    0  0.00000000000E+00  0.00000000000E+00  0.00000000000E+00  0.80000000000E+02  0.80000000000E+02 0.  0.
          5    1    3    3  501    0 -0.30912456286E+02  0.14191614677E+02 -0.20516532826E+02  0.40000000000E+02  0.47000000000E+01 0. -1.
         -5    1    3    3    0  501  0.30912456286E+02 -0.14191614677E+02  0.20516532826E+02  0.40000000000E+02  0.47000000000E+01 0.  1.
</event>
<event>
 5    1  0.4781763E-001  0.8000000E+02  0.7546771E-02  0.1203772E+00
         11   -1    0    0    0    0  0.00000000000E+00  0.00000000000E+00  0.40000000000E+02  0.40000000000E+02  0.00000000000E+00 0. -1.
        -11   -1    0    0    0    0 -0.00000000000E+00 -0.00000000000E+00 -0.40000000000E+02  0.40000000000E+02  0.00000000000E+00 0.  1.
         23    2    1    2    0    0  0.00000000000E+00  0.00000000000E+00  0.00000000000E+00  0.80000000000E+02  0.80000000000E+02 0.  0.
          5    1    3    3  501    0  0.18128120941E+02 -0.69161860918E+01  0.34661904176E+02  0.40000000000E+02  0.47000000000E+01 0. -1.
         -5    1    3    3    0  501 -0.18128120941E+02  0.69161860918E+01 -0.34661904176E+02  0.40000000000E+02  0.47000000000E+01 0.  1.
</event>
<event>
 5    1  0.4781763E-001  0.8000000E+02  0.7546771E-02  0.1203772E+00
         11   -1    0    0    0    0  0.00000000000E+00  0.00000000000E+00  0.40000000000E+02  0.40000000000E+02  0.00000000000E+00 0. -1.
        -11   -1    0    0    0    0 -0.00000000000E+00 -0.00000000000E+00 -0.40000000000E+02  0.40000000000E+02  0.00000000000E+00 0.  1.
         23    2    1    2    0    0  0.00000000000E+00  0.00000000000E+00  0.00000000000E+00  0.80000000000E+02  0.80000000000E+02 0.  0.
          5    1    3    3  501    0 -0.10315203865E+02  0.14985227030E+02  0.35312172690E+02  0.40000000000E+02  0.47000000000E+01 0. -1.
         -5    1    3    3    0  501  0.10315203865E+02 -0.14985227030E+02 -0.35312172690E+02  0.40000000000E+02  0.47000000000E+01 0.  1.
</event>
<event>
 5    1  0.4781763E-001  0.8000000E+02  0.7546771E-02  0.1203772E+00
         11   -1    0    0    0    0  0.00000000000E+00  0.00000000000E+00  0.40000000000E+02  0.40000000000E+02  0.00000000000E+00 0. -1.
        -11   -1    0    0    0    0 -0.00000000000E+00 -0.00000000000E+00 -0.40000000000E+02  0.40000000000E+02  0.00000000000E+00 0.  1.
         23    2    1    2    0    0  0.00000000000E+00  0.00000000000E+00  0.00000000000E+00  0.80000000000E+02  0.80000000000E+02 0.  0.
          5    1    3    3  501    0 -0.28656060857E+02 -0.14055294769E+02  0.23647174570E+02  0.40000000000E+02  0.47000000000E+01 0. -1.
         -5    1    3    3    0  501  0.28656060857E+02  0.14055294769E+02 -0.23647174570E+02  0.40000000000E+02  0.47000000000E+01 0.  1.
</event>
<event>
 5    1  0.4781763E-001  0.8000000E+02  0.7546771E-02  0.1203772E+00
         11   -1    0    0    0    0  0.00000000000E+00  0.00000000000E+00  0.40000000000E+02  0.40000000000E+02  0.00000000000E+00 0.  1.
        -11   -1    0    0    0    0 -0.00000000000E+00 -0.00000000000E+00 -0.40000000000E+02  0.40000000000E+02  0.00000000000E+00 0. -1.
         23    2    1    2    0    0  0.00000000000E+00  0.00000000000E+00  0.00000000000E+00  0.80000000000E+02  0.80000000000E+02 0.  0.
          5    1    3    3  501    0  0.31152740849E+02  0.24643204136E+02  0.35948227476E+00  0.40000000000E+02  0.47000000000E+01 0. -1.
         -5    1    3    3    0  501 -0.31152740849E+02 -0.24643204136E+02 -0.35948227476E+00  0.40000000000E+02  0.47000000000E+01 0.  1.
</event>
<event>
 5    1  0.4781763E-001  0.8000000E+02  0.7546771E-02  0.1203772E+00
         11   -1    0    0    0    0  0.00000000000E+00  0.00000000000E+00  0.40000000000E+02  0.40000000000E+02  0.00000000000E+00 0.  1.
        -11   -1    0    0    0    0 -0.00000000000E+00 -0.00000000000E+00 -0.40000000000E+02  0.40000000000E+02  0.00000000000E+00 0. -1.
         23    2    1    2    0    0  0.00000000000E+00  0.00000000000E+00  0.00000000000E+00  0.80000000000E+02  0.80000000000E+02 0.  0.
          5    1    3    3  501    0 -0.11561167030E+02  0.22044390845E+02 -0.30956328096E+02  0.40000000000E+02  0.47000000000E+01 0. -1.
         -5    1    3    3    0  501  0.11561167030E+02 -0.22044390845E+02  0.30956328096E+02  0.40000000000E+02  0.47000000000E+01 0.  1.
</event>
<event>
 5    1  0.4781763E-001  0.8000000E+02  0.7546771E-02  0.1203772E+00
         11   -1    0    0    0    0  0.00000000000E+00  0.00000000000E+00  0.40000000000E+02  0.40000000000E+02  0.00000000000E+00 0.  1.
        -11   -1    0    0    0    0 -0.00000000000E+00 -0.00000000000E+00 -0.40000000000E+02  0.40000000000E+02  0.00000000000E+00 0. -1.
         23    2    1    2    0    0  0.00000000000E+00  0.00000000000E+00  0.00000000000E+00  0.80000000000E+02  0.80000000000E+02 0.  0.
          5    1    3    3  501    0 -0.45943088604E+01  0.60706689693E+01 -0.38986527216E+02  0.40000000000E+02  0.47000000000E+01 0. -1.
         -5    1    3    3    0  501  0.45943088604E+01 -0.60706689693E+01  0.38986527216E+02  0.40000000000E+02  0.47000000000E+01 0.  1.
</event>
<event>
 5    1  0.4781763E-001  0.8000000E+02  0.7546771E-02  0.1203772E+00
         11   -1    0    0    0    0  0.00000000000E+00  0.00000000000E+00  0.40000000000E+02  0.40000000000E+02  0.00000000000E+00 0.  1.
        -11   -1    0    0    0    0 -0.00000000000E+00 -0.00000000000E+00 -0.40000000000E+02  0.40000000000E+02  0.00000000000E+00 0. -1.
         23    2    1    2    0    0  0.00000000000E+00  0.00000000000E+00  0.00000000000E+00  0.80000000000E+02  0.80000000000E+02 0.  0.
          5    1    3    3  501    0  0.17714208479E+02 -0.18315703859E+02 -0.30473788903E+02  0.40000000000E+02  0.47000000000E+01 0. -1.
         -5    1    3    3    0  501 -0.17714208479E+02  0.18315703859E+02  0.30473788903E+02  0.40000000000E+02  0.47000000000E+01 0.  1.
</event>
<event>
 5    1  0.4781763E-001  0.8000000E+02  0.7546771E-02  0.1203772E+00
         11   -1    0    0    0    0  0.00000000000E+00  0.00000000000E+00  0.40000000000E+02  0.40000000000E+02  0.00000000000E+00 0.  1.
        -11   -1    0    0    0    0 -0.00000000000E+00 -0.00000000000E+00 -0.40000000000E+02  0.40000000000E+02  0.00000000000E+00 0. -1.
         23    2    1    2    0    0  0.00000000000E+00  0.00000000000E+00  0.00000000000E+00  0.80000000000E+02  0.80000000000E+02 0.  0.
          5    1    3    3  501    0 -0.26589752628E+02 -0.90887060938E+01 -0.28076511121E+02  0.40000000000E+02  0.47000000000E+01 0. -1.
         -5    1    3    3    0  501  0.26589752628E+02  0.90887060938E+01  0.28076511121E+02  0.40000000000E+02  0.47000000000E+01 0.  1.
</event>
<event>
 5    1  0.4781763E-001  0.8000000E+02  0.7546771E-02  0.1203772E+00
         11   -1    0    0    0    0  0.00000000000E+00  0.00000000000E+00  0.40000000000E+02  0.40000000000E+02  0.00000000000E+00 0. -1.
        -11   -1    0    0    0    0 -0.00000000000E+00 -0.00000000000E+00 -0.40000000000E+02  0.40000000000E+02  0.00000000000E+00 0.  1.
         23    2    1    2    0    0  0.00000000000E+00  0.00000000000E+00  0.00000000000E+00  0.80000000000E+02  0.80000000000E+02 0.  0.
          5    1    3    3  501    0 -0.76595541510E+01  0.35405766947E+02  0.16299475362E+02  0.40000000000E+02  0.47000000000E+01 0. -1.
         -5    1    3    3    0  501  0.76595541510E+01 -0.35405766947E+02 -0.16299475362E+02  0.40000000000E+02  0.47000000000E+01 0.  1.
</event>
<event>
 5    1  0.4781763E-001  0.8000000E+02  0.7546771E-02  0.1203772E+00
         11   -1    0    0    0    0  0.00000000000E+00  0.00000000000E+00  0.40000000000E+02  0.40000000000E+02  0.00000000000E+00 0.  1.
        -11   -1    0    0    0    0 -0.00000000000E+00 -0.00000000000E+00 -0.40000000000E+02  0.40000000000E+02  0.00000000000E+00 0. -1.
         23    2    1    2    0    0  0.00000000000E+00  0.00000000000E+00  0.00000000000E+00  0.80000000000E+02  0.80000000000E+02 0.  0.
          5    1    3    3  501    0 -0.13177327696E+02 -0.37214930270E+02  0.43951109016E+01  0.40000000000E+02  0.47000000000E+01 0. -1.
         -5    1    3    3    0  501  0.13177327696E+02  0.37214930270E+02 -0.43951109016E+01  0.40000000000E+02  0.47000000000E+01 0.  1.
</event>
<event>
 5    1  0.4781763E-001  0.8000000E+02  0.7546771E-02  0.1203772E+00
         11   -1    0    0    0    0  0.00000000000E+00  0.00000000000E+00  0.40000000000E+02  0.40000000000E+02  0.00000000000E+00 0.  1.
        -11   -1    0    0    0    0 -0.00000000000E+00 -0.00000000000E+00 -0.40000000000E+02  0.40000000000E+02  0.00000000000E+00 0. -1.
         23    2    1    2    0    0  0.00000000000E+00  0.00000000000E+00  0.00000000000E+00  0.80000000000E+02  0.80000000000E+02 0.  0.
          5    1    3    3  501    0 -0.16781371560E+02 -0.22394621546E+02 -0.28191780617E+02  0.40000000000E+02  0.47000000000E+01 0. -1.
         -5    1    3    3    0  501  0.16781371560E+02  0.22394621546E+02  0.28191780617E+02  0.40000000000E+02  0.47000000000E+01 0.  1.
</event>
<event>
 5    1  0.4781763E-001  0.8000000E+02  0.7546771E-02  0.1203772E+00
         11   -1    0    0    0    0  0.00000000000E+00  0.00000000000E+00  0.40000000000E+02  0.40000000000E+02  0.00000000000E+00 0.  1.
        -11   -1    0    0    0    0 -0.00000000000E+00 -0.00000000000E+00 -0.40000000000E+02  0.40000000000E+02  0.00000000000E+00 0. -1.
         23    2    1    2    0    0  0.00000000000E+00  0.00000000000E+00  0.00000000000E+00  0.80000000000E+02  0.80000000000E+02 0.  0.
          5    1    3    3  501    0 -0.37041914244E+02  0.22431011262E+00 -0.14344206987E+02  0.40000000000E+02  0.47000000000E+01 0. -1.
         -5    1    3    3    0  501  0.37041914244E+02 -0.22431011262E+00  0.14344206987E+02  0.40000000000E+02  0.47000000000E+01 0.  1.
</event>
<event>
 5    1  0.4781763E-001  0.8000000E+02  0.7546771E-02  0.1203772E+00
         11   -1    0    0    0    0  0.00000000000E+00  0.00000000000E+00  0.40000000000E+02  0.40000000000E+02  0.00000000000E+00 0.  1.
        -11   -1    0    0    0    0 -0.00000000000E+00 -0.00000000000E+00 -0.40000000000E+02  0.40000000000E+02  0.00000000000E+00 0. -1.
         23    2    1    2    0    0  0.00000000000E+00  0.00000000000E+00  0.00000000000E+00  0.80000000000E+02  0.80000000000E+02 0.  0.
          5    1    3    3  501    0  0.23017868351E+02  0.11294287551E+02 -0.30340184661E+02  0.40000000000E+02  0.47000000000E+01 0. -1.
         -5    1    3    3    0  501 -0.23017868351E+02 -0.11294287551E+02  0.30340184661E+02  0.40000000000E+02  0.47000000000E+01 0.  1.
</event>
<event>
 5    1  0.4781763E-001  0.8000000E+02  0.7546771E-02  0.1203772E+00
         11   -1    0    0    0    0  0.00000000000E+00  0.00000000000E+00  0.40000000000E+02  0.40000000000E+02  0.00000000000E+00 0.  1.
        -11   -1    0    0    0    0 -0.00000000000E+00 -0.00000000000E+00 -0.40000000000E+02  0.40000000000E+02  0.00000000000E+00 0. -1.
         23    2    1    2    0    0  0.00000000000E+00  0.00000000000E+00  0.00000000000E+00  0.80000000000E+02  0.80000000000E+02 0.  0.
          5    1    3    3  501    0 -0.84579190322E+01  0.18975387392E+02 -0.33857174704E+02  0.40000000000E+02  0.47000000000E+01 0. -1.
         -5    1    3    3    0  501  0.84579190322E+01 -0.18975387392E+02  0.33857174704E+02  0.40000000000E+02  0.47000000000E+01 0.  1.
</event>
<event>
 5    1  0.4781763E-001  0.8000000E+02  0.7546771E-02  0.1203772E+00
         11   -1    0    0    0    0  0.00000000000E+00  0.00000000000E+00  0.40000000000E+02  0.40000000000E+02  0.00000000000E+00 0.  1.
        -11   -1    0    0    0    0 -0.00000000000E+00 -0.00000000000E+00 -0.40000000000E+02  0.40000000000E+02  0.00000000000E+00 0. -1.
         23    2    1    2    0    0  0.00000000000E+00  0.00000000000E+00  0.00000000000E+00  0.80000000000E+02  0.80000000000E+02 0.  0.
          5    1    3    3  501    0  0.24427275126E+02  0.11371094363E+02 -0.29187607695E+02  0.40000000000E+02  0.47000000000E+01 0. -1.
         -5    1    3    3    0  501 -0.24427275126E+02 -0.11371094363E+02  0.29187607695E+02  0.40000000000E+02  0.47000000000E+01 0.  1.
</event>
<event>
 5    1  0.4781763E-001  0.8000000E+02  0.7546771E-02  0.1203772E+00
         11   -1    0    0    0    0  0.00000000000E+00  0.00000000000E+00  0.40000000000E+02  0.40000000000E+02  0.00000000000E+00 0. -1.
        -11   -1    0    0    0    0 -0.00000000000E+00 -0.00000000000E+00 -0.40000000000E+02  0.40000000000E+02  0.00000000000E+00 0.  1.
         23    2    1    2    0    0  0.00000000000E+00  0.00000000000E+00  0.00000000000E+00  0.80000000000E+02  0.80000000000E+02 0.  0.
          5    1    3    3  501    0 -0.32574271509E+02 -0.27685115446E+01 -0.22564622298E+02  0.40000000000E+02  0.47000000000E+01 0. -1.
         -5    1    3    3    0  501  0.32574271509E+02  0.27685115446E+01  0.22564622298E+02  0.40000000000E+02  0.47000000000E+01 0.  1.
</event>
<event>
 5    1  0.4781763E-001  0.8000000E+02  0.7546771E-02  0.1203772E+00
         11   -1    0    0    0    0  0.00000000000E+00  0.00000000000E+00  0.40000000000E+02  0.40000000000E+02  0.00000000000E+00 0. -1.
        -11   -1    0    0    0    0 -0.00000000000E+00 -0.00000000000E+00 -0.40000000000E+02  0.40000000000E+02  0.00000000000E+00 0.  1.
         23    2    1    2    0    0  0.00000000000E+00  0.00000000000E+00  0.00000000000E+00  0.80000000000E+02  0.80000000000E+02 0.  0.
          5    1    3    3  501    0 -0.11483869259E+02 -0.28813328632E+02  0.24815778046E+02  0.40000000000E+02  0.47000000000E+01 0. -1.
         -5    1    3    3    0  501  0.11483869259E+02  0.28813328632E+02 -0.24815778046E+02  0.40000000000E+02  0.47000000000E+01 0.  1.
</event>
<event>
 5    1  0.4781763E-001  0.8000000E+02  0.7546771E-02  0.1203772E+00
         11   -1    0    0    0    0  0.00000000000E+00  0.00000000000E+00  0.40000000000E+02  0.40000000000E+02  0.00000000000E+00 0.  1.
        -11   -1    0    0    0    0 -0.00000000000E+00 -0.00000000000E+00 -0.40000000000E+02  0.40000000000E+02  0.00000000000E+00 0. -1.
         23    2    1    2    0    0  0.00000000000E+00  0.00000000000E+00  0.00000000000E+00  0.80000000000E+02  0.80000000000E+02 0.  0.
          5    1    3    3  501    0  0.33326102910E+02 -0.17373030313E+02 -0.12863074382E+02  0.40000000000E+02  0.47000000000E+01 0. -1.
         -5    1    3    3    0  501 -0.33326102910E+02  0.17373030313E+02  0.12863074382E+02  0.40000000000E+02  0.47000000000E+01 0.  1.
</event>
<event>
 5    1  0.4781763E-001  0.8000000E+02  0.7546771E-02  0.1203772E+00
         11   -1    0    0    0    0  0.00000000000E+00  0.00000000000E+00  0.40000000000E+02  0.40000000000E+02  0.00000000000E+00 0.  1.
        -11   -1    0    0    0    0 -0.00000000000E+00 -0.00000000000E+00 -0.40000000000E+02  0.40000000000E+02  0.00000000000E+00 0. -1.
         23    2    1    2    0    0  0.00000000000E+00  0.00000000000E+00  0.00000000000E+00  0.80000000000E+02  0.80000000000E+02 0.  0.
          5    1    3    3  501    0 -0.29965273832E+02  0.10193559196E+02 -0.24001744001E+02  0.40000000000E+02  0.47000000000E+01 0. -1.
         -5    1    3    3    0  501  0.29965273832E+02 -0.10193559196E+02  0.24001744001E+02  0.40000000000E+02  0.47000000000E+01 0.  1.
</event>
<event>
 5    1  0.4781763E-001  0.8000000E+02  0.7546771E-02  0.1203772E+00
         11   -1    0    0    0    0  0.00000000000E+00  0.00000000000E+00  0.40000000000E+02  0.40000000000E+02  0.00000000000E+00 0.  1.
        -11   -1    0    0    0    0 -0.00000000000E+00 -0.00000000000E+00 -0.40000000000E+02  0.40000000000E+02  0.00000000000E+00 0. -1.
         23    2    1    2    0    0  0.00000000000E+00  0.00000000000E+00  0.00000000000E+00  0.80000000000E+02  0.80000000000E+02 0.  0.
          5    1    3    3  501    0 -0.33735945940E+02  0.19749119981E+02  0.70546588519E+01  0.40000000000E+02  0.47000000000E+01 0. -1.
         -5    1    3    3    0  501  0.33735945940E+02 -0.19749119981E+02 -0.70546588519E+01  0.40000000000E+02  0.47000000000E+01 0.  1.
</event>
<event>
 5    1  0.4781763E-001  0.8000000E+02  0.7546771E-02  0.1203772E+00
         11   -1    0    0    0    0  0.00000000000E+00  0.00000000000E+00  0.40000000000E+02  0.40000000000E+02  0.00000000000E+00 0.  1.
        -11   -1    0    0    0    0 -0.00000000000E+00 -0.00000000000E+00 -0.40000000000E+02  0.40000000000E+02  0.00000000000E+00 0. -1.
         23    2    1    2    0    0  0.00000000000E+00  0.00000000000E+00  0.00000000000E+00  0.80000000000E+02  0.80000000000E+02 0.  0.
          5    1    3    3  501    0 -0.30876236839E+02 -0.70047884036E+01  0.23989600624E+02  0.40000000000E+02  0.47000000000E+01 0. -1.
         -5    1    3    3    0  501  0.30876236839E+02  0.70047884036E+01 -0.23989600624E+02  0.40000000000E+02  0.47000000000E+01 0.  1.
</event>
<event>
 5    1  0.4781763E-001  0.8000000E+02  0.7546771E-02  0.1203772E+00
         11   -1    0    0    0    0  0.00000000000E+00  0.00000000000E+00  0.40000000000E+02  0.40000000000E+02  0.00000000000E+00 0.  1.
        -11   -1    0    0    0    0 -0.00000000000E+00 -0.00000000000E+00 -0.40000000000E+02  0.40000000000E+02  0.00000000000E+00 0. -1.
         23    2    1    2    0    0  0.00000000000E+00  0.00000000000E+00  0.00000000000E+00  0.80000000000E+02  0.80000000000E+02 0.  0.
          5    1    3    3  501    0 -0.28587463828E+02  0.22072398066E+02 -0.16537114484E+02  0.40000000000E+02  0.47000000000E+01 0. -1.
         -5    1    3    3    0  501  0.28587463828E+02 -0.22072398066E+02  0.16537114484E+02  0.40000000000E+02  0.47000000000E+01 0.  1.
</event>
<event>
 5    1  0.4781763E-001  0.8000000E+02  0.7546771E-02  0.1203772E+00
         11   -1    0    0    0    0  0.00000000000E+00  0.00000000000E+00  0.40000000000E+02  0.40000000000E+02  0.00000000000E+00 0.  1.
        -11   -1    0    0    0    0 -0.00000000000E+00 -0.00000000000E+00 -0.40000000000E+02  0.40000000000E+02  0.00000000000E+00 0. -1.
         23    2    1    2    0    0  0.00000000000E+00  0.00000000000E+00  0.00000000000E+00  0.80000000000E+02  0.80000000000E+02 0.  0.
          5    1    3    3  501    0  0.67530020629E+01 -0.67334008141E+01 -0.38561227634E+02  0.40000000000E+02  0.47000000000E+01 0. -1.
         -5    1    3    3    0  501 -0.67530020629E+01  0.67334008141E+01  0.38561227634E+02  0.40000000000E+02  0.47000000000E+01 0.  1.
</event>
<event>
 5    1  0.4781763E-001  0.8000000E+02  0.7546771E-02  0.1203772E+00
         11   -1    0    0    0    0  0.00000000000E+00  0.00000000000E+00  0.40000000000E+02  0.40000000000E+02  0.00000000000E+00 0.  1.
        -11   -1    0    0    0    0 -0.00000000000E+00 -0.00000000000E+00 -0.40000000000E+02  0.40000000000E+02  0.00000000000E+00 0. -1.
         23    2    1    2    0    0  0.00000000000E+00  0.00000000000E+00  0.00000000000E+00  0.80000000000E+02  0.80000000000E+02 0.  0.
          5    1    3    3  501    0 -0.22296095661E+02 -0.13009381793E+02 -0.30191888044E+02  0.40000000000E+02  0.47000000000E+01 0. -1.
         -5    1    3    3    0  501  0.22296095661E+02  0.13009381793E+02  0.30191888044E+02  0.40000000000E+02  0.47000000000E+01 0.  1.
</event>
<event>
 5    1  0.4781763E-001  0.8000000E+02  0.7546771E-02  0.1203772E+00
         11   -1    0    0    0    0  0.00000000000E+00  0.00000000000E+00  0.40000000000E+02  0.40000000000E+02  0.00000000000E+00 0.  1.
        -11   -1    0    0    0    0 -0.00000000000E+00 -0.00000000000E+00 -0.40000000000E+02  0.40000000000E+02  0.00000000000E+00 0. -1.
         23    2    1    2    0    0  0.00000000000E+00  0.00000000000E+00  0.00000000000E+00  0.80000000000E+02  0.80000000000E+02 0.  0.
          5    1    3    3  501    0 -0.63290008442E+01  0.27328209269E+02 -0.28125126248E+02  0.40000000000E+02  0.47000000000E+01 0. -1.
         -5    1    3    3    0  501  0.63290008442E+01 -0.27328209269E+02  0.28125126248E+02  0.40000000000E+02  0.47000000000E+01 0.  1.
</event>
<event>
 5    1  0.4781763E-001  0.8000000E+02  0.7546771E-02  0.1203772E+00
         11   -1    0    0    0    0  0.00000000000E+00  0.00000000000E+00  0.40000000000E+02  0.40000000000E+02  0.00000000000E+00 0. -1.
        -11   -1    0    0    0    0 -0.00000000000E+00 -0.00000000000E+00 -0.40000000000E+02  0.40000000000E+02  0.00000000000E+00 0.  1.
         23    2    1    2    0    0  0.00000000000E+00  0.00000000000E+00  0.00000000000E+00  0.80000000000E+02  0.80000000000E+02 0.  0.
          5    1    3    3  501    0  0.16783029062E+02 -0.35988391601E+02  0.10371140097E+01  0.40000000000E+02  0.47000000000E+01 0. -1.
         -5    1    3    3    0  501 -0.16783029062E+02  0.35988391601E+02 -0.10371140097E+01  0.40000000000E+02  0.47000000000E+01 0.  1.
</event>
<event>
 5    1  0.4781763E-001  0.8000000E+02  0.7546771E-02  0.1203772E+00
         11   -1    0    0    0    0  0.00000000000E+00  0.00000000000E+00  0.40000000000E+02  0.40000000000E+02  0.00000000000E+00 0. -1.
        -11   -1    0    0    0    0 -0.00000000000E+00 -0.00000000000E+00 -0.40000000000E+02  0.40000000000E+02  0.00000000000E+00 0.  1.
         23    2    1    2    0    0  0.00000000000E+00  0.00000000000E+00  0.00000000000E+00  0.80000000000E+02  0.80000000000E+02 0.  0.
          5    1    3    3  501    0 -0.34539205464E+02  0.60259181316E+01  0.18671946782E+02  0.40000000000E+02  0.47000000000E+01 0. -1.
         -5    1    3    3    0  501  0.34539205464E+02 -0.60259181316E+01 -0.18671946782E+02  0.40000000000E+02  0.47000000000E+01 0.  1.
</event>
<event>
 5    1  0.4781763E-001  0.8000000E+02  0.7546771E-02  0.1203772E+00
         11   -1    0    0    0    0  0.00000000000E+00  0.00000000000E+00  0.40000000000E+02  0.40000000000E+02  0.00000000000E+00 0. -1.
        -11   -1    0    0    0    0 -0.00000000000E+00 -0.00000000000E+00 -0.40000000000E+02  0.40000000000E+02  0.00000000000E+00 0.  1.
         23    2    1    2    0    0  0.00000000000E+00  0.00000000000E+00  0.00000000000E+00  0.80000000000E+02  0.80000000000E+02 0.  0.
          5    1    3    3  501    0 -0.23893489836E+02 -0.41989371418E+01  0.31454412574E+02  0.40000000000E+02  0.47000000000E+01 0. -1.
         -5    1    3    3    0  501  0.23893489836E+02  0.41989371418E+01 -0.31454412574E+02  0.40000000000E+02  0.47000000000E+01 0.  1.
</event>
<event>
 5    1  0.4781763E-001  0.8000000E+02  0.7546771E-02  0.1203772E+00
         11   -1    0    0    0    0  0.00000000000E+00  0.00000000000E+00  0.40000000000E+02  0.40000000000E+02  0.00000000000E+00 0.  1.
        -11   -1    0    0    0    0 -0.00000000000E+00 -0.00000000000E+00 -0.40000000000E+02  0.40000000000E+02  0.00000000000E+00 0. -1.
         23    2    1    2    0    0  0.00000000000E+00  0.00000000000E+00  0.00000000000E+00  0.80000000000E+02  0.80000000000E+02 0.  0.
          5    1    3    3  501    0  0.27672097970E+02 -0.28468613376E+02  0.13050081862E+01  0.40000000000E+02  0.47000000000E+01 0. -1.
         -5    1    3    3    0  501 -0.27672097970E+02  0.28468613376E+02 -0.13050081862E+01  0.40000000000E+02  0.47000000000E+01 0.  1.
</event>
<event>
 5    1  0.4781763E-001  0.8000000E+02  0.7546771E-02  0.1203772E+00
         11   -1    0    0    0    0  0.00000000000E+00  0.00000000000E+00  0.40000000000E+02  0.40000000000E+02  0.00000000000E+00 0.  1.
        -11   -1    0    0    0    0 -0.00000000000E+00 -0.00000000000E+00 -0.40000000000E+02  0.40000000000E+02  0.00000000000E+00 0. -1.
         23    2    1    2    0    0  0.00000000000E+00  0.00000000000E+00  0.00000000000E+00  0.80000000000E+02  0.80000000000E+02 0.  0.
          5    1    3    3  501    0  0.25558201292E+02 -0.29520755943E+02  0.72947457304E+01  0.40000000000E+02  0.47000000000E+01 0. -1.
         -5    1    3    3    0  501 -0.25558201292E+02  0.29520755943E+02 -0.72947457304E+01  0.40000000000E+02  0.47000000000E+01 0.  1.
</event>
<event>
 5    1  0.4781763E-001  0.8000000E+02  0.7546771E-02  0.1203772E+00
         11   -1    0    0    0    0  0.00000000000E+00  0.00000000000E+00  0.40000000000E+02  0.40000000000E+02  0.00000000000E+00 0. -1.
        -11   -1    0    0    0    0 -0.00000000000E+00 -0.00000000000E+00 -0.40000000000E+02  0.40000000000E+02  0.00000000000E+00 0.  1.
         23    2    1    2    0    0  0.00000000000E+00  0.00000000000E+00  0.00000000000E+00  0.80000000000E+02  0.80000000000E+02 0.  0.
          5    1    3    3  501    0  0.32207557019E+02 -0.25634947059E+01  0.23108694592E+02  0.40000000000E+02  0.47000000000E+01 0. -1.
         -5    1    3    3    0  501 -0.32207557019E+02  0.25634947059E+01 -0.23108694592E+02  0.40000000000E+02  0.47000000000E+01 0.  1.
</event>
<event>
 5    1  0.4781763E-001  0.8000000E+02  0.7546771E-02  0.1203772E+00
         11   -1    0    0    0    0  0.00000000000E+00  0.00000000000E+00  0.40000000000E+02  0.40000000000E+02  0.00000000000E+00 0.  1.
        -11   -1    0    0    0    0 -0.00000000000E+00 -0.00000000000E+00 -0.40000000000E+02  0.40000000000E+02  0.00000000000E+00 0. -1.
         23    2    1    2    0    0  0.00000000000E+00  0.00000000000E+00  0.00000000000E+00  0.80000000000E+02  0.80000000000E+02 0.  0.
          5    1    3    3  501    0 -0.24709609201E+02  0.78955026351E+01 -0.30083321812E+02  0.40000000000E+02  0.47000000000E+01 0. -1.
         -5    1    3    3    0  501  0.24709609201E+02 -0.78955026351E+01  0.30083321812E+02  0.40000000000E+02  0.47000000000E+01 0.  1.
</event>
<event>
 5    1  0.4781763E-001  0.8000000E+02  0.7546771E-02  0.1203772E+00
         11   -1    0    0    0    0  0.00000000000E+00  0.00000000000E+00  0.40000000000E+02  0.40000000000E+02  0.00000000000E+00 0.  1.
        -11   -1    0    0    0    0 -0.00000000000E+00 -0.00000000000E+00 -0.40000000000E+02  0.40000000000E+02  0.00000000000E+00 0. -1.
         23    2    1    2    0    0  0.00000000000E+00  0.00000000000E+00  0.00000000000E+00  0.80000000000E+02  0.80000000000E+02 0.  0.
          5    1    3    3  501    0 -0.42175191875E+01  0.15005822996E+01 -0.39469871860E+02  0.40000000000E+02  0.47000000000E+01 0. -1.
         -5    1    3    3    0  501  0.42175191875E+01 -0.15005822996E+01  0.39469871860E+02  0.40000000000E+02  0.47000000000E+01 0.  1.
</event>
<event>
 5    1  0.4781763E-001  0.8000000E+02  0.7546771E-02  0.1203772E+00
         11   -1    0    0    0    0  0.00000000000E+00  0.00000000000E+00  0.40000000000E+02  0.40000000000E+02  0.00000000000E+00 0.  1.
        -11   -1    0    0    0    0 -0.00000000000E+00 -0.00000000000E+00 -0.40000000000E+02  0.40000000000E+02  0.00000000000E+00 0. -1.
         23    2    1    2    0    0  0.00000000000E+00  0.00000000000E+00  0.00000000000E+00  0.80000000000E+02  0.80000000000E+02 0.  0.
          5    1    3    3  501    0 -0.13943176006E+02  0.34906333009E+02 -0.12847013611E+02  0.40000000000E+02  0.47000000000E+01 0. -1.
         -5    1    3    3    0  501  0.13943176006E+02 -0.34906333009E+02  0.12847013611E+02  0.40000000000E+02  0.47000000000E+01 0.  1.
</event>
<event>
 5    1  0.4781763E-001  0.8000000E+02  0.7546771E-02  0.1203772E+00
         11   -1    0    0    0    0  0.00000000000E+00  0.00000000000E+00  0.40000000000E+02  0.40000000000E+02  0.00000000000E+00 0.  1.
        -11   -1    0    0    0    0 -0.00000000000E+00 -0.00000000000E+00 -0.40000000000E+02  0.40000000000E+02  0.00000000000E+00 0. -1.
         23    2    1    2    0    0  0.00000000000E+00  0.00000000000E+00  0.00000000000E+00  0.80000000000E+02  0.80000000000E+02 0.  0.
          5    1    3    3  501    0 -0.29584075109E+02 -0.25090607400E+02  0.85530065041E+01  0.40000000000E+02  0.47000000000E+01 0. -1.
         -5    1    3    3    0  501  0.29584075109E+02  0.25090607400E+02 -0.85530065041E+01  0.40000000000E+02  0.47000000000E+01 0.  1.
</event>
<event>
 5    1  0.4781763E-001  0.8000000E+02  0.7546771E-02  0.1203772E+00
         11   -1    0    0    0    0  0.00000000000E+00  0.00000000000E+00  0.40000000000E+02  0.40000000000E+02  0.00000000000E+00 0. -1.
        -11   -1    0    0    0    0 -0.00000000000E+00 -0.00000000000E+00 -0.40000000000E+02  0.40000000000E+02  0.00000000000E+00 0.  1.
         23    2    1    2    0    0  0.00000000000E+00  0.00000000000E+00  0.00000000000E+00  0.80000000000E+02  0.80000000000E+02 0.  0.
          5    1    3    3  501    0 -0.17070625326E+02 -0.35796686742E+02  0.22585325489E+01  0.40000000000E+02  0.47000000000E+01 0.  1.
         -5    1    3    3    0  501  0.17070625326E+02  0.35796686742E+02 -0.22585325489E+01  0.40000000000E+02  0.47000000000E+01 0. -1.
</event>
<event>
 5    1  0.4781763E-001  0.8000000E+02  0.7546771E-02  0.1203772E+00
         11   -1    0    0    0    0  0.00000000000E+00  0.00000000000E+00  0.40000000000E+02  0.40000000000E+02  0.00000000000E+00 0. -1.
        -11   -1    0    0    0    0 -0.00000000000E+00 -0.00000000000E+00 -0.40000000000E+02  0.40000000000E+02  0.00000000000E+00 0.  1.
         23    2    1    2    0    0  0.00000000000E+00  0.00000000000E+00  0.00000000000E+00  0.80000000000E+02  0.80000000000E+02 0.  0.
          5    1    3    3  501    0 -0.23986486139E+02  0.21329274321E+02  0.23401293546E+02  0.40000000000E+02  0.47000000000E+01 0. -1.
         -5    1    3    3    0  501  0.23986486139E+02 -0.21329274321E+02 -0.23401293546E+02  0.40000000000E+02  0.47000000000E+01 0.  1.
</event>
<event>
 5    1  0.4781763E-001  0.8000000E+02  0.7546771E-02  0.1203772E+00
         11   -1    0    0    0    0  0.00000000000E+00  0.00000000000E+00  0.40000000000E+02  0.40000000000E+02  0.00000000000E+00 0. -1.
        -11   -1    0    0    0    0 -0.00000000000E+00 -0.00000000000E+00 -0.40000000000E+02  0.40000000000E+02  0.00000000000E+00 0.  1.
         23    2    1    2    0    0  0.00000000000E+00  0.00000000000E+00  0.00000000000E+00  0.80000000000E+02  0.80000000000E+02 0.  0.
          5    1    3    3  501    0 -0.13823689396E+02  0.32600093490E+01  0.37097007299E+02  0.40000000000E+02  0.47000000000E+01 0. -1.
         -5    1    3    3    0  501  0.13823689396E+02 -0.32600093490E+01 -0.37097007299E+02  0.40000000000E+02  0.47000000000E+01 0.  1.
</event>
<event>
 5    1  0.4781763E-001  0.8000000E+02  0.7546771E-02  0.1203772E+00
         11   -1    0    0    0    0  0.00000000000E+00  0.00000000000E+00  0.40000000000E+02  0.40000000000E+02  0.00000000000E+00 0. -1.
        -11   -1    0    0    0    0 -0.00000000000E+00 -0.00000000000E+00 -0.40000000000E+02  0.40000000000E+02  0.00000000000E+00 0.  1.
         23    2    1    2    0    0  0.00000000000E+00  0.00000000000E+00  0.00000000000E+00  0.80000000000E+02  0.80000000000E+02 0.  0.
          5    1    3    3  501    0  0.23683940615E+02 -0.15605608742E+02  0.27810895935E+02  0.40000000000E+02  0.47000000000E+01 0. -1.
         -5    1    3    3    0  501 -0.23683940615E+02  0.15605608742E+02 -0.27810895935E+02  0.40000000000E+02  0.47000000000E+01 0.  1.
</event>
<event>
 5    1  0.4781763E-001  0.8000000E+02  0.7546771E-02  0.1203772E+00
         11   -1    0    0    0    0  0.00000000000E+00  0.00000000000E+00  0.40000000000E+02  0.40000000000E+02  0.00000000000E+00 0.  1.
        -11   -1    0    0    0    0 -0.00000000000E+00 -0.00000000000E+00 -0.40000000000E+02  0.40000000000E+02  0.00000000000E+00 0. -1.
         23    2    1    2    0    0  0.00000000000E+00  0.00000000000E+00  0.00000000000E+00  0.80000000000E+02  0.80000000000E+02 0.  0.
          5    1    3    3  501    0  0.94512303987E+01 -0.30505038136E+01 -0.38461391946E+02  0.40000000000E+02  0.47000000000E+01 0. -1.
         -5    1    3    3    0  501 -0.94512303987E+01  0.30505038136E+01  0.38461391946E+02  0.40000000000E+02  0.47000000000E+01 0.  1.
</event>
<event>
 5    1  0.4781763E-001  0.8000000E+02  0.7546771E-02  0.1203772E+00
         11   -1    0    0    0    0  0.00000000000E+00  0.00000000000E+00  0.40000000000E+02  0.40000000000E+02  0.00000000000E+00 0.  1.
        -11   -1    0    0    0    0 -0.00000000000E+00 -0.00000000000E+00 -0.40000000000E+02  0.40000000000E+02  0.00000000000E+00 0. -1.
         23    2    1    2    0    0  0.00000000000E+00  0.00000000000E+00  0.00000000000E+00  0.80000000000E+02  0.80000000000E+02 0.  0.
          5    1    3    3  501    0 -0.28193059936E+01 -0.22731232132E+02 -0.32453853384E+02  0.40000000000E+02  0.47000000000E+01 0. -1.
         -5    1    3    3    0  501  0.28193059936E+01  0.22731232132E+02  0.32453853384E+02  0.40000000000E+02  0.47000000000E+01 0.  1.
</event>
<event>
 5    1  0.4781763E-001  0.8000000E+02  0.7546771E-02  0.1203772E+00
         11   -1    0    0    0    0  0.00000000000E+00  0.00000000000E+00  0.40000000000E+02  0.40000000000E+02  0.00000000000E+00 0.  1.
        -11   -1    0    0    0    0 -0.00000000000E+00 -0.00000000000E+00 -0.40000000000E+02  0.40000000000E+02  0.00000000000E+00 0. -1.
         23    2    1    2    0    0  0.00000000000E+00  0.00000000000E+00  0.00000000000E+00  0.80000000000E+02  0.80000000000E+02 0.  0.
          5    1    3    3  501    0 -0.47428374990E+01 -0.24976612089E+02 -0.30521866605E+02  0.40000000000E+02  0.47000000000E+01 0. -1.
         -5    1    3    3    0  501  0.47428374990E+01  0.24976612089E+02  0.30521866605E+02  0.40000000000E+02  0.47000000000E+01 0.  1.
</event>
<event>
 5    1  0.4781763E-001  0.8000000E+02  0.7546771E-02  0.1203772E+00
         11   -1    0    0    0    0  0.00000000000E+00  0.00000000000E+00  0.40000000000E+02  0.40000000000E+02  0.00000000000E+00 0. -1.
        -11   -1    0    0    0    0 -0.00000000000E+00 -0.00000000000E+00 -0.40000000000E+02  0.40000000000E+02  0.00000000000E+00 0.  1.
         23    2    1    2    0    0  0.00000000000E+00  0.00000000000E+00  0.00000000000E+00  0.80000000000E+02  0.80000000000E+02 0.  0.
          5    1    3    3  501    0 -0.21441572692E+02 -0.24319473374E+02  0.22950646512E+02  0.40000000000E+02  0.47000000000E+01 0. -1.
         -5    1    3    3    0  501  0.21441572692E+02  0.24319473374E+02 -0.22950646512E+02  0.40000000000E+02  0.47000000000E+01 0.  1.
</event>
<event>
 5    1  0.4781763E-001  0.8000000E+02  0.7546771E-02  0.1203772E+00
         11   -1    0    0    0    0  0.00000000000E+00  0.00000000000E+00  0.40000000000E+02  0.40000000000E+02  0.00000000000E+00 0.  1.
        -11   -1    0    0    0    0 -0.00000000000E+00 -0.00000000000E+00 -0.40000000000E+02  0.40000000000E+02  0.00000000000E+00 0. -1.
         23    2    1    2    0    0  0.00000000000E+00  0.00000000000E+00  0.00000000000E+00  0.80000000000E+02  0.80000000000E+02 0.  0.
          5    1    3    3  501    0 -0.12981858801E+02  0.16100634092E+02 -0.33913875094E+02  0.40000000000E+02  0.47000000000E+01 0. -1.
         -5    1    3    3    0  501  0.12981858801E+02 -0.16100634092E+02  0.33913875094E+02  0.40000000000E+02  0.47000000000E+01 0.  1.
</event>
<event>
 5    1  0.4781763E-001  0.8000000E+02  0.7546771E-02  0.1203772E+00
         11   -1    0    0    0    0  0.00000000000E+00  0.00000000000E+00  0.40000000000E+02  0.40000000000E+02  0.00000000000E+00 0. -1.
        -11   -1    0    0    0    0 -0.00000000000E+00 -0.00000000000E+00 -0.40000000000E+02  0.40000000000E+02  0.00000000000E+00 0.  1.
         23    2    1    2    0    0  0.00000000000E+00  0.00000000000E+00  0.00000000000E+00  0.80000000000E+02  0.80000000000E+02 0.  0.
          5    1    3    3  501    0 -0.23328836908E+02 -0.96427444971E+01  0.30670716442E+02  0.40000000000E+02  0.47000000000E+01 0. -1.
         -5    1    3    3    0  501  0.23328836908E+02  0.96427444971E+01 -0.30670716442E+02  0.40000000000E+02  0.47000000000E+01 0.  1.
</event>
<event>
 5    1  0.4781763E-001  0.8000000E+02  0.7546771E-02  0.1203772E+00
         11   -1    0    0    0    0  0.00000000000E+00  0.00000000000E+00  0.40000000000E+02  0.40000000000E+02  0.00000000000E+00 0.  1.
        -11   -1    0    0    0    0 -0.00000000000E+00 -0.00000000000E+00 -0.40000000000E+02  0.40000000000E+02  0.00000000000E+00 0. -1.
         23    2    1    2    0    0  0.00000000000E+00  0.00000000000E+00  0.00000000000E+00  0.80000000000E+02  0.80000000000E+02 0.  0.
          5    1    3    3  501    0 -0.34654093682E+02 -0.19366088617E+02  0.13994294515E+01  0.40000000000E+02  0.47000000000E+01 0. -1.
         -5    1    3    3    0  501  0.34654093682E+02  0.19366088617E+02 -0.13994294515E+01  0.40000000000E+02  0.47000000000E+01 0.  1.
</event>
<event>
 5    1  0.4781763E-001  0.8000000E+02  0.7546771E-02  0.1203772E+00
         11   -1    0    0    0    0  0.00000000000E+00  0.00000000000E+00  0.40000000000E+02  0.40000000000E+02  0.00000000000E+00 0. -1.
        -11   -1    0    0    0    0 -0.00000000000E+00 -0.00000000000E+00 -0.40000000000E+02  0.40000000000E+02  0.00000000000E+00 0.  1.
         23    2    1    2    0    0  0.00000000000E+00  0.00000000000E+00  0.00000000000E+00  0.80000000000E+02  0.80000000000E+02 0.  0.
          5    1    3    3  501    0 -0.16188306122E+02 -0.36170606727E+02 -0.27451691913E+01  0.40000000000E+02  0.47000000000E+01 0. -1.
         -5    1    3    3    0  501  0.16188306122E+02  0.36170606727E+02  0.27451691913E+01  0.40000000000E+02  0.47000000000E+01 0.  1.
</event>
<event>
 5    1  0.4781763E-001  0.8000000E+02  0.7546771E-02  0.1203772E+00
         11   -1    0    0    0    0  0.00000000000E+00  0.00000000000E+00  0.40000000000E+02  0.40000000000E+02  0.00000000000E+00 0.  1.
        -11   -1    0    0    0    0 -0.00000000000E+00 -0.00000000000E+00 -0.40000000000E+02  0.40000000000E+02  0.00000000000E+00 0. -1.
         23    2    1    2    0    0  0.00000000000E+00  0.00000000000E+00  0.00000000000E+00  0.80000000000E+02  0.80000000000E+02 0.  0.
          5    1    3    3  501    0  0.40760692935E+01  0.38008395288E+02 -0.10800812318E+02  0.40000000000E+02  0.47000000000E+01 0. -1.
         -5    1    3    3    0  501 -0.40760692935E+01 -0.38008395288E+02  0.10800812318E+02  0.40000000000E+02  0.47000000000E+01 0.  1.
</event>
<event>
 5    1  0.4781763E-001  0.8000000E+02  0.7546771E-02  0.1203772E+00
         11   -1    0    0    0    0  0.00000000000E+00  0.00000000000E+00  0.40000000000E+02  0.40000000000E+02  0.00000000000E+00 0.  1.
        -11   -1    0    0    0    0 -0.00000000000E+00 -0.00000000000E+00 -0.40000000000E+02  0.40000000000E+02  0.00000000000E+00 0. -1.
         23    2    1    2    0    0  0.00000000000E+00  0.00000000000E+00  0.00000000000E+00  0.80000000000E+02  0.80000000000E+02 0.  0.
          5    1    3    3  501    0  0.24051050958E+02 -0.27722624401E+02 -0.15195823246E+02  0.40000000000E+02  0.47000000000E+01 0. -1.
         -5    1    3    3    0  501 -0.24051050958E+02  0.27722624401E+02  0.15195823246E+02  0.40000000000E+02  0.47000000000E+01 0.  1.
</event>
<event>
 5    1  0.4781763E-001  0.8000000E+02  0.7546771E-02  0.1203772E+00
         11   -1    0    0    0    0  0.00000000000E+00  0.00000000000E+00  0.40000000000E+02  0.40000000000E+02  0.00000000000E+00 0.  1.
        -11   -1    0    0    0    0 -0.00000000000E+00 -0.00000000000E+00 -0.40000000000E+02  0.40000000000E+02  0.00000000000E+00 0. -1.
         23    2    1    2    0    0  0.00000000000E+00  0.00000000000E+00  0.00000000000E+00  0.80000000000E+02  0.80000000000E+02 0.  0.
          5    1    3    3  501    0 -0.19186910664E+02 -0.63551877704E+01 -0.34196257801E+02  0.40000000000E+02  0.47000000000E+01 0. -1.
         -5    1    3    3    0  501  0.19186910664E+02  0.63551877704E+01  0.34196257801E+02  0.40000000000E+02  0.47000000000E+01 0.  1.
</event>
<event>
 5    1  0.4781763E-001  0.8000000E+02  0.7546771E-02  0.1203772E+00
         11   -1    0    0    0    0  0.00000000000E+00  0.00000000000E+00  0.40000000000E+02  0.40000000000E+02  0.00000000000E+00 0. -1.
        -11   -1    0    0    0    0 -0.00000000000E+00 -0.00000000000E+00 -0.40000000000E+02  0.40000000000E+02  0.00000000000E+00 0.  1.
         23    2    1    2    0    0  0.00000000000E+00  0.00000000000E+00  0.00000000000E+00  0.80000000000E+02  0.80000000000E+02 0.  0.
          5    1    3    3  501    0  0.94345363970E+00  0.61268381102E+01  0.39236230069E+02  0.40000000000E+02  0.47000000000E+01 0. -1.
         -5    1    3    3    0  501 -0.94345363970E+00 -0.61268381102E+01 -0.39236230069E+02  0.40000000000E+02  0.47000000000E+01 0.  1.
</event>
<event>
 5    1  0.4781763E-001  0.8000000E+02  0.7546771E-02  0.1203772E+00
         11   -1    0    0    0    0  0.00000000000E+00  0.00000000000E+00  0.40000000000E+02  0.40000000000E+02  0.00000000000E+00 0.  1.
        -11   -1    0    0    0    0 -0.00000000000E+00 -0.00000000000E+00 -0.40000000000E+02  0.40000000000E+02  0.00000000000E+00 0. -1.
         23    2    1    2    0    0  0.00000000000E+00  0.00000000000E+00  0.00000000000E+00  0.80000000000E+02  0.80000000000E+02 0.  0.
          5    1    3    3  501    0  0.18360322742E+01  0.20955735813E+02 -0.33695639511E+02  0.40000000000E+02  0.47000000000E+01 0. -1.
         -5    1    3    3    0  501 -0.18360322742E+01 -0.20955735813E+02  0.33695639511E+02  0.40000000000E+02  0.47000000000E+01 0.  1.
</event>
<event>
 5    1  0.4781763E-001  0.8000000E+02  0.7546771E-02  0.1203772E+00
         11   -1    0    0    0    0  0.00000000000E+00  0.00000000000E+00  0.40000000000E+02  0.40000000000E+02  0.00000000000E+00 0. -1.
        -11   -1    0    0    0    0 -0.00000000000E+00 -0.00000000000E+00 -0.40000000000E+02  0.40000000000E+02  0.00000000000E+00 0.  1.
         23    2    1    2    0    0  0.00000000000E+00  0.00000000000E+00  0.00000000000E+00  0.80000000000E+02  0.80000000000E+02 0.  0.
          5    1    3    3  501    0 -0.13299772645E+02  0.19136952556E+02 -0.32168355483E+02  0.40000000000E+02  0.47000000000E+01 0.  1.
         -5    1    3    3    0  501  0.13299772645E+02 -0.19136952556E+02  0.32168355483E+02  0.40000000000E+02  0.47000000000E+01 0. -1.
</event>
<event>
 5    1  0.4781763E-001  0.8000000E+02  0.7546771E-02  0.1203772E+00
         11   -1    0    0    0    0  0.00000000000E+00  0.00000000000E+00  0.40000000000E+02  0.40000000000E+02  0.00000000000E+00 0.  1.
        -11   -1    0    0    0    0 -0.00000000000E+00 -0.00000000000E+00 -0.40000000000E+02  0.40000000000E+02  0.00000000000E+00 0. -1.
         23    2    1    2    0    0  0.00000000000E+00  0.00000000000E+00  0.00000000000E+00  0.80000000000E+02  0.80000000000E+02 0.  0.
          5    1    3    3  501    0 -0.29696369015E+02  0.24870833953E+02  0.88021182554E+01  0.40000000000E+02  0.47000000000E+01 0. -1.
         -5    1    3    3    0  501  0.29696369015E+02 -0.24870833953E+02 -0.88021182554E+01  0.40000000000E+02  0.47000000000E+01 0.  1.
</event>
<event>
 5    1  0.4781763E-001  0.8000000E+02  0.7546771E-02  0.1203772E+00
         11   -1    0    0    0    0  0.00000000000E+00  0.00000000000E+00  0.40000000000E+02  0.40000000000E+02  0.00000000000E+00 0.  1.
        -11   -1    0    0    0    0 -0.00000000000E+00 -0.00000000000E+00 -0.40000000000E+02  0.40000000000E+02  0.00000000000E+00 0. -1.
         23    2    1    2    0    0  0.00000000000E+00  0.00000000000E+00  0.00000000000E+00  0.80000000000E+02  0.80000000000E+02 0.  0.
          5    1    3    3  501    0 -0.18543431338E+01 -0.10353005011E+02 -0.38305178485E+02  0.40000000000E+02  0.47000000000E+01 0. -1.
         -5    1    3    3    0  501  0.18543431338E+01  0.10353005011E+02  0.38305178485E+02  0.40000000000E+02  0.47000000000E+01 0.  1.
</event>
<event>
 5    1  0.4781763E-001  0.8000000E+02  0.7546771E-02  0.1203772E+00
         11   -1    0    0    0    0  0.00000000000E+00  0.00000000000E+00  0.40000000000E+02  0.40000000000E+02  0.00000000000E+00 0. -1.
        -11   -1    0    0    0    0 -0.00000000000E+00 -0.00000000000E+00 -0.40000000000E+02  0.40000000000E+02  0.00000000000E+00 0.  1.
         23    2    1    2    0    0  0.00000000000E+00  0.00000000000E+00  0.00000000000E+00  0.80000000000E+02  0.80000000000E+02 0.  0.
          5    1    3    3  501    0 -0.19026095687E+02 -0.26923216394E+02 -0.22159830819E+02  0.40000000000E+02  0.47000000000E+01 0. -1.
         -5    1    3    3    0  501  0.19026095687E+02  0.26923216394E+02  0.22159830819E+02  0.40000000000E+02  0.47000000000E+01 0.  1.
</event>
<event>
 5    1  0.4781763E-001  0.8000000E+02  0.7546771E-02  0.1203772E+00
         11   -1    0    0    0    0  0.00000000000E+00  0.00000000000E+00  0.40000000000E+02  0.40000000000E+02  0.00000000000E+00 0.  1.
        -11   -1    0    0    0    0 -0.00000000000E+00 -0.00000000000E+00 -0.40000000000E+02  0.40000000000E+02  0.00000000000E+00 0. -1.
         23    2    1    2    0    0  0.00000000000E+00  0.00000000000E+00  0.00000000000E+00  0.80000000000E+02  0.80000000000E+02 0.  0.
          5    1    3    3  501    0  0.26700027632E+02  0.14116711227E+02 -0.25801879555E+02  0.40000000000E+02  0.47000000000E+01 0. -1.
         -5    1    3    3    0  501 -0.26700027632E+02 -0.14116711227E+02  0.25801879555E+02  0.40000000000E+02  0.47000000000E+01 0.  1.
</event>
<event>
 5    1  0.4781763E-001  0.8000000E+02  0.7546771E-02  0.1203772E+00
         11   -1    0    0    0    0  0.00000000000E+00  0.00000000000E+00  0.40000000000E+02  0.40000000000E+02  0.00000000000E+00 0.  1.
        -11   -1    0    0    0    0 -0.00000000000E+00 -0.00000000000E+00 -0.40000000000E+02  0.40000000000E+02  0.00000000000E+00 0. -1.
         23    2    1    2    0    0  0.00000000000E+00  0.00000000000E+00  0.00000000000E+00  0.80000000000E+02  0.80000000000E+02 0.  0.
          5    1    3    3  501    0 -0.11955709495E+02  0.12197529019E+02 -0.35863509258E+02  0.40000000000E+02  0.47000000000E+01 0. -1.
         -5    1    3    3    0  501  0.11955709495E+02 -0.12197529019E+02  0.35863509258E+02  0.40000000000E+02  0.47000000000E+01 0.  1.
</event>
<event>
 5    1  0.4781763E-001  0.8000000E+02  0.7546771E-02  0.1203772E+00
         11   -1    0    0    0    0  0.00000000000E+00  0.00000000000E+00  0.40000000000E+02  0.40000000000E+02  0.00000000000E+00 0. -1.
        -11   -1    0    0    0    0 -0.00000000000E+00 -0.00000000000E+00 -0.40000000000E+02  0.40000000000E+02  0.00000000000E+00 0.  1.
         23    2    1    2    0    0  0.00000000000E+00  0.00000000000E+00  0.00000000000E+00  0.80000000000E+02  0.80000000000E+02 0.  0.
          5    1    3    3  501    0  0.21935215367E+02 -0.30012841799E+02  0.13999487631E+02  0.40000000000E+02  0.47000000000E+01 0. -1.
         -5    1    3    3    0  501 -0.21935215367E+02  0.30012841799E+02 -0.13999487631E+02  0.40000000000E+02  0.47000000000E+01 0.  1.
</event>
<event>
 5    1  0.4781763E-001  0.8000000E+02  0.7546771E-02  0.1203772E+00
         11   -1    0    0    0    0  0.00000000000E+00  0.00000000000E+00  0.40000000000E+02  0.40000000000E+02  0.00000000000E+00 0.  1.
        -11   -1    0    0    0    0 -0.00000000000E+00 -0.00000000000E+00 -0.40000000000E+02  0.40000000000E+02  0.00000000000E+00 0. -1.
         23    2    1    2    0    0  0.00000000000E+00  0.00000000000E+00  0.00000000000E+00  0.80000000000E+02  0.80000000000E+02 0.  0.
          5    1    3    3  501    0 -0.29122326376E+02 -0.26964112887E+02 -0.16543042808E+01  0.40000000000E+02  0.47000000000E+01 0. -1.
         -5    1    3    3    0  501  0.29122326376E+02  0.26964112887E+02  0.16543042808E+01  0.40000000000E+02  0.47000000000E+01 0.  1.
</event>
<event>
 5    1  0.4781763E-001  0.8000000E+02  0.7546771E-02  0.1203772E+00
         11   -1    0    0    0    0  0.00000000000E+00  0.00000000000E+00  0.40000000000E+02  0.40000000000E+02  0.00000000000E+00 0.  1.
        -11   -1    0    0    0    0 -0.00000000000E+00 -0.00000000000E+00 -0.40000000000E+02  0.40000000000E+02  0.00000000000E+00 0. -1.
         23    2    1    2    0    0  0.00000000000E+00  0.00000000000E+00  0.00000000000E+00  0.80000000000E+02  0.80000000000E+02 0.  0.
          5    1    3    3  501    0  0.27852686052E+02 -0.27566235570E+02 -0.64992719743E+01  0.40000000000E+02  0.47000000000E+01 0. -1.
         -5    1    3    3    0  501 -0.27852686052E+02  0.27566235570E+02  0.64992719743E+01  0.40000000000E+02  0.47000000000E+01 0.  1.
</event>
<event>
 5    1  0.4781763E-001  0.8000000E+02  0.7546771E-02  0.1203772E+00
         11   -1    0    0    0    0  0.00000000000E+00  0.00000000000E+00  0.40000000000E+02  0.40000000000E+02  0.00000000000E+00 0. -1.
        -11   -1    0    0    0    0 -0.00000000000E+00 -0.00000000000E+00 -0.40000000000E+02  0.40000000000E+02  0.00000000000E+00 0.  1.
         23    2    1    2    0    0  0.00000000000E+00  0.00000000000E+00  0.00000000000E+00  0.80000000000E+02  0.80000000000E+02 0.  0.
          5    1    3    3  501    0 -0.29772763518E+02  0.24422333013E+02 -0.97489590558E+01  0.40000000000E+02  0.47000000000E+01 0.  1.
         -5    1    3    3    0  501  0.29772763518E+02 -0.24422333013E+02  0.97489590558E+01  0.40000000000E+02  0.47000000000E+01 0. -1.
</event>
<event>
 5    1  0.4781763E-001  0.8000000E+02  0.7546771E-02  0.1203772E+00
         11   -1    0    0    0    0  0.00000000000E+00  0.00000000000E+00  0.40000000000E+02  0.40000000000E+02  0.00000000000E+00 0.  1.
        -11   -1    0    0    0    0 -0.00000000000E+00 -0.00000000000E+00 -0.40000000000E+02  0.40000000000E+02  0.00000000000E+00 0. -1.
         23    2    1    2    0    0  0.00000000000E+00  0.00000000000E+00  0.00000000000E+00  0.80000000000E+02  0.80000000000E+02 0.  0.
          5    1    3    3  501    0  0.39372900021E+02  0.52614588638E+01 -0.42362372561E-01  0.40000000000E+02  0.47000000000E+01 0. -1.
         -5    1    3    3    0  501 -0.39372900021E+02 -0.52614588638E+01  0.42362372561E-01  0.40000000000E+02  0.47000000000E+01 0.  1.
</event>
<event>
 5    1  0.4781763E-001  0.8000000E+02  0.7546771E-02  0.1203772E+00
         11   -1    0    0    0    0  0.00000000000E+00  0.00000000000E+00  0.40000000000E+02  0.40000000000E+02  0.00000000000E+00 0.  1.
        -11   -1    0    0    0    0 -0.00000000000E+00 -0.00000000000E+00 -0.40000000000E+02  0.40000000000E+02  0.00000000000E+00 0. -1.
         23    2    1    2    0    0  0.00000000000E+00  0.00000000000E+00  0.00000000000E+00  0.80000000000E+02  0.80000000000E+02 0.  0.
          5    1    3    3  501    0 -0.32717070777E+02 -0.25890823329E+01 -0.22378559660E+02  0.40000000000E+02  0.47000000000E+01 0. -1.
         -5    1    3    3    0  501  0.32717070777E+02  0.25890823329E+01  0.22378559660E+02  0.40000000000E+02  0.47000000000E+01 0.  1.
</event>
<event>
 5    1  0.4781763E-001  0.8000000E+02  0.7546771E-02  0.1203772E+00
         11   -1    0    0    0    0  0.00000000000E+00  0.00000000000E+00  0.40000000000E+02  0.40000000000E+02  0.00000000000E+00 0.  1.
        -11   -1    0    0    0    0 -0.00000000000E+00 -0.00000000000E+00 -0.40000000000E+02  0.40000000000E+02  0.00000000000E+00 0. -1.
         23    2    1    2    0    0  0.00000000000E+00  0.00000000000E+00  0.00000000000E+00  0.80000000000E+02  0.80000000000E+02 0.  0.
          5    1    3    3  501    0  0.26387128688E+02 -0.22796210553E+02 -0.19025304834E+02  0.40000000000E+02  0.47000000000E+01 0. -1.
         -5    1    3    3    0  501 -0.26387128688E+02  0.22796210553E+02  0.19025304834E+02  0.40000000000E+02  0.47000000000E+01 0.  1.
</event>
<event>
 5    1  0.4781763E-001  0.8000000E+02  0.7546771E-02  0.1203772E+00
         11   -1    0    0    0    0  0.00000000000E+00  0.00000000000E+00  0.40000000000E+02  0.40000000000E+02  0.00000000000E+00 0.  1.
        -11   -1    0    0    0    0 -0.00000000000E+00 -0.00000000000E+00 -0.40000000000E+02  0.40000000000E+02  0.00000000000E+00 0. -1.
         23    2    1    2    0    0  0.00000000000E+00  0.00000000000E+00  0.00000000000E+00  0.80000000000E+02  0.80000000000E+02 0.  0.
          5    1    3    3  501    0 -0.30082293918E+02 -0.22289436840E+02 -0.13272023130E+02  0.40000000000E+02  0.47000000000E+01 0. -1.
         -5    1    3    3    0  501  0.30082293918E+02  0.22289436840E+02  0.13272023130E+02  0.40000000000E+02  0.47000000000E+01 0.  1.
</event>
<event>
 5    1  0.4781763E-001  0.8000000E+02  0.7546771E-02  0.1203772E+00
         11   -1    0    0    0    0  0.00000000000E+00  0.00000000000E+00  0.40000000000E+02  0.40000000000E+02  0.00000000000E+00 0.  1.
        -11   -1    0    0    0    0 -0.00000000000E+00 -0.00000000000E+00 -0.40000000000E+02  0.40000000000E+02  0.00000000000E+00 0. -1.
         23    2    1    2    0    0  0.00000000000E+00  0.00000000000E+00  0.00000000000E+00  0.80000000000E+02  0.80000000000E+02 0.  0.
          5    1    3    3  501    0 -0.15512413733E+02 -0.33876731470E+02 -0.13771059694E+02  0.40000000000E+02  0.47000000000E+01 0. -1.
         -5    1    3    3    0  501  0.15512413733E+02  0.33876731470E+02  0.13771059694E+02  0.40000000000E+02  0.47000000000E+01 0.  1.
</event>
<event>
 5    1  0.4781763E-001  0.8000000E+02  0.7546771E-02  0.1203772E+00
         11   -1    0    0    0    0  0.00000000000E+00  0.00000000000E+00  0.40000000000E+02  0.40000000000E+02  0.00000000000E+00 0.  1.
        -11   -1    0    0    0    0 -0.00000000000E+00 -0.00000000000E+00 -0.40000000000E+02  0.40000000000E+02  0.00000000000E+00 0. -1.
         23    2    1    2    0    0  0.00000000000E+00  0.00000000000E+00  0.00000000000E+00  0.80000000000E+02  0.80000000000E+02 0.  0.
          5    1    3    3  501    0  0.31224254360E+02 -0.13224412418E+02 -0.20689873269E+02  0.40000000000E+02  0.47000000000E+01 0. -1.
         -5    1    3    3    0  501 -0.31224254360E+02  0.13224412418E+02  0.20689873269E+02  0.40000000000E+02  0.47000000000E+01 0.  1.
</event>
<event>
 5    1  0.4781763E-001  0.8000000E+02  0.7546771E-02  0.1203772E+00
         11   -1    0    0    0    0  0.00000000000E+00  0.00000000000E+00  0.40000000000E+02  0.40000000000E+02  0.00000000000E+00 0. -1.
        -11   -1    0    0    0    0 -0.00000000000E+00 -0.00000000000E+00 -0.40000000000E+02  0.40000000000E+02  0.00000000000E+00 0.  1.
         23    2    1    2    0    0  0.00000000000E+00  0.00000000000E+00  0.00000000000E+00  0.80000000000E+02  0.80000000000E+02 0.  0.
          5    1    3    3  501    0 -0.12297737656E+02 -0.19019809556E+02  0.32633150216E+02  0.40000000000E+02  0.47000000000E+01 0. -1.
         -5    1    3    3    0  501  0.12297737656E+02  0.19019809556E+02 -0.32633150216E+02  0.40000000000E+02  0.47000000000E+01 0.  1.
</event>
<event>
 5    1  0.4781763E-001  0.8000000E+02  0.7546771E-02  0.1203772E+00
         11   -1    0    0    0    0  0.00000000000E+00  0.00000000000E+00  0.40000000000E+02  0.40000000000E+02  0.00000000000E+00 0.  1.
        -11   -1    0    0    0    0 -0.00000000000E+00 -0.00000000000E+00 -0.40000000000E+02  0.40000000000E+02  0.00000000000E+00 0. -1.
         23    2    1    2    0    0  0.00000000000E+00  0.00000000000E+00  0.00000000000E+00  0.80000000000E+02  0.80000000000E+02 0.  0.
          5    1    3    3  501    0 -0.72334619046E+01 -0.38957715150E+02  0.28077498366E+01  0.40000000000E+02  0.47000000000E+01 0. -1.
         -5    1    3    3    0  501  0.72334619046E+01  0.38957715150E+02 -0.28077498366E+01  0.40000000000E+02  0.47000000000E+01 0.  1.
</event>
<event>
 5    1  0.4781763E-001  0.8000000E+02  0.7546771E-02  0.1203772E+00
         11   -1    0    0    0    0  0.00000000000E+00  0.00000000000E+00  0.40000000000E+02  0.40000000000E+02  0.00000000000E+00 0.  1.
        -11   -1    0    0    0    0 -0.00000000000E+00 -0.00000000000E+00 -0.40000000000E+02  0.40000000000E+02  0.00000000000E+00 0. -1.
         23    2    1    2    0    0  0.00000000000E+00  0.00000000000E+00  0.00000000000E+00  0.80000000000E+02  0.80000000000E+02 0.  0.
          5    1    3    3  501    0  0.36374371453E+02 -0.15813256693E+02  0.21808287799E+01  0.40000000000E+02  0.47000000000E+01 0. -1.
         -5    1    3    3    0  501 -0.36374371453E+02  0.15813256693E+02 -0.21808287799E+01  0.40000000000E+02  0.47000000000E+01 0.  1.
</event>
<event>
 5    1  0.4781763E-001  0.8000000E+02  0.7546771E-02  0.1203772E+00
         11   -1    0    0    0    0  0.00000000000E+00  0.00000000000E+00  0.40000000000E+02  0.40000000000E+02  0.00000000000E+00 0.  1.
        -11   -1    0    0    0    0 -0.00000000000E+00 -0.00000000000E+00 -0.40000000000E+02  0.40000000000E+02  0.00000000000E+00 0. -1.
         23    2    1    2    0    0  0.00000000000E+00  0.00000000000E+00  0.00000000000E+00  0.80000000000E+02  0.80000000000E+02 0.  0.
          5    1    3    3  501    0 -0.34754076733E+02  0.18130591692E+02 -0.64300696216E+01  0.40000000000E+02  0.47000000000E+01 0. -1.
         -5    1    3    3    0  501  0.34754076733E+02 -0.18130591692E+02  0.64300696216E+01  0.40000000000E+02  0.47000000000E+01 0.  1.
</event>
<event>
 5    1  0.4781763E-001  0.8000000E+02  0.7546771E-02  0.1203772E+00
         11   -1    0    0    0    0  0.00000000000E+00  0.00000000000E+00  0.40000000000E+02  0.40000000000E+02  0.00000000000E+00 0. -1.
        -11   -1    0    0    0    0 -0.00000000000E+00 -0.00000000000E+00 -0.40000000000E+02  0.40000000000E+02  0.00000000000E+00 0.  1.
         23    2    1    2    0    0  0.00000000000E+00  0.00000000000E+00  0.00000000000E+00  0.80000000000E+02  0.80000000000E+02 0.  0.
          5    1    3    3  501    0  0.48698395392E+01  0.39309125508E+02  0.29978850266E+01  0.40000000000E+02  0.47000000000E+01 0. -1.
         -5    1    3    3    0  501 -0.48698395392E+01 -0.39309125508E+02 -0.29978850266E+01  0.40000000000E+02  0.47000000000E+01 0.  1.
</event>
<event>
 5    1  0.4781763E-001  0.8000000E+02  0.7546771E-02  0.1203772E+00
         11   -1    0    0    0    0  0.00000000000E+00  0.00000000000E+00  0.40000000000E+02  0.40000000000E+02  0.00000000000E+00 0.  1.
        -11   -1    0    0    0    0 -0.00000000000E+00 -0.00000000000E+00 -0.40000000000E+02  0.40000000000E+02  0.00000000000E+00 0. -1.
         23    2    1    2    0    0  0.00000000000E+00  0.00000000000E+00  0.00000000000E+00  0.80000000000E+02  0.80000000000E+02 0.  0.
          5    1    3    3  501    0  0.19111980065E+02  0.25697092202E+02 -0.23501099343E+02  0.40000000000E+02  0.47000000000E+01 0. -1.
         -5    1    3    3    0  501 -0.19111980065E+02 -0.25697092202E+02  0.23501099343E+02  0.40000000000E+02  0.47000000000E+01 0.  1.
</event>
<event>
 5    1  0.4781763E-001  0.8000000E+02  0.7546771E-02  0.1203772E+00
         11   -1    0    0    0    0  0.00000000000E+00  0.00000000000E+00  0.40000000000E+02  0.40000000000E+02  0.00000000000E+00 0.  1.
        -11   -1    0    0    0    0 -0.00000000000E+00 -0.00000000000E+00 -0.40000000000E+02  0.40000000000E+02  0.00000000000E+00 0. -1.
         23    2    1    2    0    0  0.00000000000E+00  0.00000000000E+00  0.00000000000E+00  0.80000000000E+02  0.80000000000E+02 0.  0.
          5    1    3    3  501    0 -0.26075727690E+02  0.27467226813E+02  0.11979894685E+02  0.40000000000E+02  0.47000000000E+01 0. -1.
         -5    1    3    3    0  501  0.26075727690E+02 -0.27467226813E+02 -0.11979894685E+02  0.40000000000E+02  0.47000000000E+01 0.  1.
</event>
<event>
 5    1  0.4781763E-001  0.8000000E+02  0.7546771E-02  0.1203772E+00
         11   -1    0    0    0    0  0.00000000000E+00  0.00000000000E+00  0.40000000000E+02  0.40000000000E+02  0.00000000000E+00 0. -1.
        -11   -1    0    0    0    0 -0.00000000000E+00 -0.00000000000E+00 -0.40000000000E+02  0.40000000000E+02  0.00000000000E+00 0.  1.
         23    2    1    2    0    0  0.00000000000E+00  0.00000000000E+00  0.00000000000E+00  0.80000000000E+02  0.80000000000E+02 0.  0.
          5    1    3    3  501    0  0.25074320710E+02 -0.20196051317E+02  0.23266025705E+02  0.40000000000E+02  0.47000000000E+01 0. -1.
         -5    1    3    3    0  501 -0.25074320710E+02  0.20196051317E+02 -0.23266025705E+02  0.40000000000E+02  0.47000000000E+01 0.  1.
</event>
<event>
 5    1  0.4781763E-001  0.8000000E+02  0.7546771E-02  0.1203772E+00
         11   -1    0    0    0    0  0.00000000000E+00  0.00000000000E+00  0.40000000000E+02  0.40000000000E+02  0.00000000000E+00 0.  1.
        -11   -1    0    0    0    0 -0.00000000000E+00 -0.00000000000E+00 -0.40000000000E+02  0.40000000000E+02  0.00000000000E+00 0. -1.
         23    2    1    2    0    0  0.00000000000E+00  0.00000000000E+00  0.00000000000E+00  0.80000000000E+02  0.80000000000E+02 0.  0.
          5    1    3    3  501    0 -0.38207828182E+02  0.97371841403E+01 -0.48227700173E+01  0.40000000000E+02  0.47000000000E+01 0. -1.
         -5    1    3    3    0  501  0.38207828182E+02 -0.97371841403E+01  0.48227700173E+01  0.40000000000E+02  0.47000000000E+01 0.  1.
</event>
<event>
 5    1  0.4781763E-001  0.8000000E+02  0.7546771E-02  0.1203772E+00
         11   -1    0    0    0    0  0.00000000000E+00  0.00000000000E+00  0.40000000000E+02  0.40000000000E+02  0.00000000000E+00 0.  1.
        -11   -1    0    0    0    0 -0.00000000000E+00 -0.00000000000E+00 -0.40000000000E+02  0.40000000000E+02  0.00000000000E+00 0. -1.
         23    2    1    2    0    0  0.00000000000E+00  0.00000000000E+00  0.00000000000E+00  0.80000000000E+02  0.80000000000E+02 0.  0.
          5    1    3    3  501    0 -0.19096924550E+01 -0.31501227617E+02 -0.24123344158E+02  0.40000000000E+02  0.47000000000E+01 0. -1.
         -5    1    3    3    0  501  0.19096924550E+01  0.31501227617E+02  0.24123344158E+02  0.40000000000E+02  0.47000000000E+01 0.  1.
</event>
<event>
 5    1  0.4781763E-001  0.8000000E+02  0.7546771E-02  0.1203772E+00
         11   -1    0    0    0    0  0.00000000000E+00  0.00000000000E+00  0.40000000000E+02  0.40000000000E+02  0.00000000000E+00 0. -1.
        -11   -1    0    0    0    0 -0.00000000000E+00 -0.00000000000E+00 -0.40000000000E+02  0.40000000000E+02  0.00000000000E+00 0.  1.
         23    2    1    2    0    0  0.00000000000E+00  0.00000000000E+00  0.00000000000E+00  0.80000000000E+02  0.80000000000E+02 0.  0.
          5    1    3    3  501    0  0.50692147421E+01  0.15284108275E+02 -0.36312657520E+02  0.40000000000E+02  0.47000000000E+01 0.  1.
         -5    1    3    3    0  501 -0.50692147421E+01 -0.15284108275E+02  0.36312657520E+02  0.40000000000E+02  0.47000000000E+01 0. -1.
</event>
<event>
 5    1  0.4781763E-001  0.8000000E+02  0.7546771E-02  0.1203772E+00
         11   -1    0    0    0    0  0.00000000000E+00  0.00000000000E+00  0.40000000000E+02  0.40000000000E+02  0.00000000000E+00 0.  1.
        -11   -1    0    0    0    0 -0.00000000000E+00 -0.00000000000E+00 -0.40000000000E+02  0.40000000000E+02  0.00000000000E+00 0. -1.
         23    2    1    2    0    0  0.00000000000E+00  0.00000000000E+00  0.00000000000E+00  0.80000000000E+02  0.80000000000E+02 0.  0.
          5    1    3    3  501    0 -0.85637859668E+01  0.60960091717E+01 -0.38306791070E+02  0.40000000000E+02  0.47000000000E+01 0. -1.
         -5    1    3    3    0  501  0.85637859668E+01 -0.60960091717E+01  0.38306791070E+02  0.40000000000E+02  0.47000000000E+01 0.  1.
</event>
<event>
 5    1  0.4781763E-001  0.8000000E+02  0.7546771E-02  0.1203772E+00
         11   -1    0    0    0    0  0.00000000000E+00  0.00000000000E+00  0.40000000000E+02  0.40000000000E+02  0.00000000000E+00 0. -1.
        -11   -1    0    0    0    0 -0.00000000000E+00 -0.00000000000E+00 -0.40000000000E+02  0.40000000000E+02  0.00000000000E+00 0.  1.
         23    2    1    2    0    0  0.00000000000E+00  0.00000000000E+00  0.00000000000E+00  0.80000000000E+02  0.80000000000E+02 0.  0.
          5    1    3    3  501    0  0.21710519729E+02  0.32248159011E+02  0.81620814463E+01  0.40000000000E+02  0.47000000000E+01 0.  1.
         -5    1    3    3    0  501 -0.21710519729E+02 -0.32248159011E+02 -0.81620814463E+01  0.40000000000E+02  0.47000000000E+01 0. -1.
</event>
<event>
 5    1  0.4781763E-001  0.8000000E+02  0.7546771E-02  0.1203772E+00
         11   -1    0    0    0    0  0.00000000000E+00  0.00000000000E+00  0.40000000000E+02  0.40000000000E+02  0.00000000000E+00 0.  1.
        -11   -1    0    0    0    0 -0.00000000000E+00 -0.00000000000E+00 -0.40000000000E+02  0.40000000000E+02  0.00000000000E+00 0. -1.
         23    2    1    2    0    0  0.00000000000E+00  0.00000000000E+00  0.00000000000E+00  0.80000000000E+02  0.80000000000E+02 0.  0.
          5    1    3    3  501    0 -0.79120295736E+01 -0.24132618741E+01 -0.38852103613E+02  0.40000000000E+02  0.47000000000E+01 0. -1.
         -5    1    3    3    0  501  0.79120295736E+01  0.24132618741E+01  0.38852103613E+02  0.40000000000E+02  0.47000000000E+01 0.  1.
</event>
<event>
 5    1  0.4781763E-001  0.8000000E+02  0.7546771E-02  0.1203772E+00
         11   -1    0    0    0    0  0.00000000000E+00  0.00000000000E+00  0.40000000000E+02  0.40000000000E+02  0.00000000000E+00 0. -1.
        -11   -1    0    0    0    0 -0.00000000000E+00 -0.00000000000E+00 -0.40000000000E+02  0.40000000000E+02  0.00000000000E+00 0.  1.
         23    2    1    2    0    0  0.00000000000E+00  0.00000000000E+00  0.00000000000E+00  0.80000000000E+02  0.80000000000E+02 0.  0.
          5    1    3    3  501    0 -0.29587547274E+02  0.23020572032E+02  0.13135460009E+02  0.40000000000E+02  0.47000000000E+01 0. -1.
         -5    1    3    3    0  501  0.29587547274E+02 -0.23020572032E+02 -0.13135460009E+02  0.40000000000E+02  0.47000000000E+01 0.  1.
</event>
<event>
 5    1  0.4781763E-001  0.8000000E+02  0.7546771E-02  0.1203772E+00
         11   -1    0    0    0    0  0.00000000000E+00  0.00000000000E+00  0.40000000000E+02  0.40000000000E+02  0.00000000000E+00 0.  1.
        -11   -1    0    0    0    0 -0.00000000000E+00 -0.00000000000E+00 -0.40000000000E+02  0.40000000000E+02  0.00000000000E+00 0. -1.
         23    2    1    2    0    0  0.00000000000E+00  0.00000000000E+00  0.00000000000E+00  0.80000000000E+02  0.80000000000E+02 0.  0.
          5    1    3    3  501    0  0.25040101054E+02  0.29964222794E+02 -0.72834532686E+01  0.40000000000E+02  0.47000000000E+01 0. -1.
         -5    1    3    3    0  501 -0.25040101054E+02 -0.29964222794E+02  0.72834532686E+01  0.40000000000E+02  0.47000000000E+01 0.  1.
</event>
<event>
 5    1  0.4781763E-001  0.8000000E+02  0.7546771E-02  0.1203772E+00
         11   -1    0    0    0    0  0.00000000000E+00  0.00000000000E+00  0.40000000000E+02  0.40000000000E+02  0.00000000000E+00 0.  1.
        -11   -1    0    0    0    0 -0.00000000000E+00 -0.00000000000E+00 -0.40000000000E+02  0.40000000000E+02  0.00000000000E+00 0. -1.
         23    2    1    2    0    0  0.00000000000E+00  0.00000000000E+00  0.00000000000E+00  0.80000000000E+02  0.80000000000E+02 0.  0.
          5    1    3    3  501    0  0.70184396263E+01 -0.37168596921E+02 -0.12130412529E+02  0.40000000000E+02  0.47000000000E+01 0. -1.
         -5    1    3    3    0  501 -0.70184396263E+01  0.37168596921E+02  0.12130412529E+02  0.40000000000E+02  0.47000000000E+01 0.  1.
</event>
<event>
 5    1  0.4781763E-001  0.8000000E+02  0.7546771E-02  0.1203772E+00
         11   -1    0    0    0    0  0.00000000000E+00  0.00000000000E+00  0.40000000000E+02  0.40000000000E+02  0.00000000000E+00 0. -1.
        -11   -1    0    0    0    0 -0.00000000000E+00 -0.00000000000E+00 -0.40000000000E+02  0.40000000000E+02  0.00000000000E+00 0.  1.
         23    2    1    2    0    0  0.00000000000E+00  0.00000000000E+00  0.00000000000E+00  0.80000000000E+02  0.80000000000E+02 0.  0.
          5    1    3    3  501    0 -0.37223447211E+02  0.53697645983E+00 -0.13857728315E+02  0.40000000000E+02  0.47000000000E+01 0.  1.
         -5    1    3    3    0  501  0.37223447211E+02 -0.53697645983E+00  0.13857728315E+02  0.40000000000E+02  0.47000000000E+01 0. -1.
</event>
<event>
 5    1  0.4781763E-001  0.8000000E+02  0.7546771E-02  0.1203772E+00
         11   -1    0    0    0    0  0.00000000000E+00  0.00000000000E+00  0.40000000000E+02  0.40000000000E+02  0.00000000000E+00 0.  1.
        -11   -1    0    0    0    0 -0.00000000000E+00 -0.00000000000E+00 -0.40000000000E+02  0.40000000000E+02  0.00000000000E+00 0. -1.
         23    2    1    2    0    0  0.00000000000E+00  0.00000000000E+00  0.00000000000E+00  0.80000000000E+02  0.80000000000E+02 0.  0.
          5    1    3    3  501    0  0.25863256139E+02  0.12514487962E+02 -0.27429720614E+02  0.40000000000E+02  0.47000000000E+01 0. -1.
         -5    1    3    3    0  501 -0.25863256139E+02 -0.12514487962E+02  0.27429720614E+02  0.40000000000E+02  0.47000000000E+01 0.  1.
</event>
<event>
 5    1  0.4781763E-001  0.8000000E+02  0.7546771E-02  0.1203772E+00
         11   -1    0    0    0    0  0.00000000000E+00  0.00000000000E+00  0.40000000000E+02  0.40000000000E+02  0.00000000000E+00 0. -1.
        -11   -1    0    0    0    0 -0.00000000000E+00 -0.00000000000E+00 -0.40000000000E+02  0.40000000000E+02  0.00000000000E+00 0.  1.
         23    2    1    2    0    0  0.00000000000E+00  0.00000000000E+00  0.00000000000E+00  0.80000000000E+02  0.80000000000E+02 0.  0.
          5    1    3    3  501    0 -0.57146224834E+01  0.30827317246E+02  0.24391178759E+02  0.40000000000E+02  0.47000000000E+01 0. -1.
         -5    1    3    3    0  501  0.57146224834E+01 -0.30827317246E+02 -0.24391178759E+02  0.40000000000E+02  0.47000000000E+01 0.  1.
</event>
<event>
 5    1  0.4781763E-001  0.8000000E+02  0.7546771E-02  0.1203772E+00
         11   -1    0    0    0    0  0.00000000000E+00  0.00000000000E+00  0.40000000000E+02  0.40000000000E+02  0.00000000000E+00 0. -1.
        -11   -1    0    0    0    0 -0.00000000000E+00 -0.00000000000E+00 -0.40000000000E+02  0.40000000000E+02  0.00000000000E+00 0.  1.
         23    2    1    2    0    0  0.00000000000E+00  0.00000000000E+00  0.00000000000E+00  0.80000000000E+02  0.80000000000E+02 0.  0.
          5    1    3    3  501    0  0.13259087023E+02 -0.15171505108E+02  0.34233493016E+02  0.40000000000E+02  0.47000000000E+01 0. -1.
         -5    1    3    3    0  501 -0.13259087023E+02  0.15171505108E+02 -0.34233493016E+02  0.40000000000E+02  0.47000000000E+01 0.  1.
</event>
<event>
 5    1  0.4781763E-001  0.8000000E+02  0.7546771E-02  0.1203772E+00
         11   -1    0    0    0    0  0.00000000000E+00  0.00000000000E+00  0.40000000000E+02  0.40000000000E+02  0.00000000000E+00 0. -1.
        -11   -1    0    0    0    0 -0.00000000000E+00 -0.00000000000E+00 -0.40000000000E+02  0.40000000000E+02  0.00000000000E+00 0.  1.
         23    2    1    2    0    0  0.00000000000E+00  0.00000000000E+00  0.00000000000E+00  0.80000000000E+02  0.80000000000E+02 0.  0.
          5    1    3    3  501    0 -0.15276380881E+02 -0.36557936632E+02  0.28389181749E+01  0.40000000000E+02  0.47000000000E+01 0. -1.
         -5    1    3    3    0  501  0.15276380881E+02  0.36557936632E+02 -0.28389181749E+01  0.40000000000E+02  0.47000000000E+01 0.  1.
</event>
<event>
 5    1  0.4781763E-001  0.8000000E+02  0.7546771E-02  0.1203772E+00
         11   -1    0    0    0    0  0.00000000000E+00  0.00000000000E+00  0.40000000000E+02  0.40000000000E+02  0.00000000000E+00 0.  1.
        -11   -1    0    0    0    0 -0.00000000000E+00 -0.00000000000E+00 -0.40000000000E+02  0.40000000000E+02  0.00000000000E+00 0. -1.
         23    2    1    2    0    0  0.00000000000E+00  0.00000000000E+00  0.00000000000E+00  0.80000000000E+02  0.80000000000E+02 0.  0.
          5    1    3    3  501    0 -0.20940608120E+02 -0.77329316993E+01 -0.32857308151E+02  0.40000000000E+02  0.47000000000E+01 0. -1.
         -5    1    3    3    0  501  0.20940608120E+02  0.77329316993E+01  0.32857308151E+02  0.40000000000E+02  0.47000000000E+01 0.  1.
</event>
<event>
 5    1  0.4781763E-001  0.8000000E+02  0.7546771E-02  0.1203772E+00
         11   -1    0    0    0    0  0.00000000000E+00  0.00000000000E+00  0.40000000000E+02  0.40000000000E+02  0.00000000000E+00 0.  1.
        -11   -1    0    0    0    0 -0.00000000000E+00 -0.00000000000E+00 -0.40000000000E+02  0.40000000000E+02  0.00000000000E+00 0. -1.
         23    2    1    2    0    0  0.00000000000E+00  0.00000000000E+00  0.00000000000E+00  0.80000000000E+02  0.80000000000E+02 0.  0.
          5    1    3    3  501    0 -0.31670242239E+02 -0.23427287668E+02  0.51056781132E+01  0.40000000000E+02  0.47000000000E+01 0. -1.
         -5    1    3    3    0  501  0.31670242239E+02  0.23427287668E+02 -0.51056781132E+01  0.40000000000E+02  0.47000000000E+01 0.  1.
</event>
<event>
 5    1  0.4781763E-001  0.8000000E+02  0.7546771E-02  0.1203772E+00
         11   -1    0    0    0    0  0.00000000000E+00  0.00000000000E+00  0.40000000000E+02  0.40000000000E+02  0.00000000000E+00 0.  1.
        -11   -1    0    0    0    0 -0.00000000000E+00 -0.00000000000E+00 -0.40000000000E+02  0.40000000000E+02  0.00000000000E+00 0. -1.
         23    2    1    2    0    0  0.00000000000E+00  0.00000000000E+00  0.00000000000E+00  0.80000000000E+02  0.80000000000E+02 0.  0.
          5    1    3    3  501    0 -0.38054937440E+02 -0.11275784919E+02 -0.16088539153E+01  0.40000000000E+02  0.47000000000E+01 0. -1.
         -5    1    3    3    0  501  0.38054937440E+02  0.11275784919E+02  0.16088539153E+01  0.40000000000E+02  0.47000000000E+01 0.  1.
</event>
<event>
 5    1  0.4781763E-001  0.8000000E+02  0.7546771E-02  0.1203772E+00
         11   -1    0    0    0    0  0.00000000000E+00  0.00000000000E+00  0.40000000000E+02  0.40000000000E+02  0.00000000000E+00 0.  1.
        -11   -1    0    0    0    0 -0.00000000000E+00 -0.00000000000E+00 -0.40000000000E+02  0.40000000000E+02  0.00000000000E+00 0. -1.
         23    2    1    2    0    0  0.00000000000E+00  0.00000000000E+00  0.00000000000E+00  0.80000000000E+02  0.80000000000E+02 0.  0.
          5    1    3    3  501    0  0.20007087521E+02 -0.10406282004E+02 -0.32700699439E+02  0.40000000000E+02  0.47000000000E+01 0. -1.
         -5    1    3    3    0  501 -0.20007087521E+02  0.10406282004E+02  0.32700699439E+02  0.40000000000E+02  0.47000000000E+01 0.  1.
</event>
<event>
 5    1  0.4781763E-001  0.8000000E+02  0.7546771E-02  0.1203772E+00
         11   -1    0    0    0    0  0.00000000000E+00  0.00000000000E+00  0.40000000000E+02  0.40000000000E+02  0.00000000000E+00 0. -1.
        -11   -1    0    0    0    0 -0.00000000000E+00 -0.00000000000E+00 -0.40000000000E+02  0.40000000000E+02  0.00000000000E+00 0.  1.
         23    2    1    2    0    0  0.00000000000E+00  0.00000000000E+00  0.00000000000E+00  0.80000000000E+02  0.80000000000E+02 0.  0.
          5    1    3    3  501    0 -0.26958559286E+01 -0.74839152734E+01 -0.38918290982E+02  0.40000000000E+02  0.47000000000E+01 0.  1.
         -5    1    3    3    0  501  0.26958559286E+01  0.74839152734E+01  0.38918290982E+02  0.40000000000E+02  0.47000000000E+01 0. -1.
</event>
<event>
 5    1  0.4781763E-001  0.8000000E+02  0.7546771E-02  0.1203772E+00
         11   -1    0    0    0    0  0.00000000000E+00  0.00000000000E+00  0.40000000000E+02  0.40000000000E+02  0.00000000000E+00 0.  1.
        -11   -1    0    0    0    0 -0.00000000000E+00 -0.00000000000E+00 -0.40000000000E+02  0.40000000000E+02  0.00000000000E+00 0. -1.
         23    2    1    2    0    0  0.00000000000E+00  0.00000000000E+00  0.00000000000E+00  0.80000000000E+02  0.80000000000E+02 0.  0.
          5    1    3    3  501    0 -0.30075972551E+02 -0.17158077278E+02 -0.19466542045E+02  0.40000000000E+02  0.47000000000E+01 0. -1.
         -5    1    3    3    0  501  0.30075972551E+02  0.17158077278E+02  0.19466542045E+02  0.40000000000E+02  0.47000000000E+01 0.  1.
</event>
<event>
 5    1  0.4781763E-001  0.8000000E+02  0.7546771E-02  0.1203772E+00
         11   -1    0    0    0    0  0.00000000000E+00  0.00000000000E+00  0.40000000000E+02  0.40000000000E+02  0.00000000000E+00 0. -1.
        -11   -1    0    0    0    0 -0.00000000000E+00 -0.00000000000E+00 -0.40000000000E+02  0.40000000000E+02  0.00000000000E+00 0.  1.
         23    2    1    2    0    0  0.00000000000E+00  0.00000000000E+00  0.00000000000E+00  0.80000000000E+02  0.80000000000E+02 0.  0.
          5    1    3    3  501    0 -0.82754939129E+01 -0.23238449136E+02 -0.31135200052E+02  0.40000000000E+02  0.47000000000E+01 0.  1.
         -5    1    3    3    0  501  0.82754939129E+01  0.23238449136E+02  0.31135200052E+02  0.40000000000E+02  0.47000000000E+01 0. -1.
</event>
<event>
 5    1  0.4781763E-001  0.8000000E+02  0.7546771E-02  0.1203772E+00
         11   -1    0    0    0    0  0.00000000000E+00  0.00000000000E+00  0.40000000000E+02  0.40000000000E+02  0.00000000000E+00 0. -1.
        -11   -1    0    0    0    0 -0.00000000000E+00 -0.00000000000E+00 -0.40000000000E+02  0.40000000000E+02  0.00000000000E+00 0.  1.
         23    2    1    2    0    0  0.00000000000E+00  0.00000000000E+00  0.00000000000E+00  0.80000000000E+02  0.80000000000E+02 0.  0.
          5    1    3    3  501    0  0.11489870009E+02 -0.30673836113E+02  0.22472397854E+02  0.40000000000E+02  0.47000000000E+01 0. -1.
         -5    1    3    3    0  501 -0.11489870009E+02  0.30673836113E+02 -0.22472397854E+02  0.40000000000E+02  0.47000000000E+01 0.  1.
</event>
<event>
 5    1  0.4781763E-001  0.8000000E+02  0.7546771E-02  0.1203772E+00
         11   -1    0    0    0    0  0.00000000000E+00  0.00000000000E+00  0.40000000000E+02  0.40000000000E+02  0.00000000000E+00 0.  1.
        -11   -1    0    0    0    0 -0.00000000000E+00 -0.00000000000E+00 -0.40000000000E+02  0.40000000000E+02  0.00000000000E+00 0. -1.
         23    2    1    2    0    0  0.00000000000E+00  0.00000000000E+00  0.00000000000E+00  0.80000000000E+02  0.80000000000E+02 0.  0.
          5    1    3    3  501    0 -0.21851650203E+02 -0.12134521370E+02 -0.30873431532E+02  0.40000000000E+02  0.47000000000E+01 0. -1.
         -5    1    3    3    0  501  0.21851650203E+02  0.12134521370E+02  0.30873431532E+02  0.40000000000E+02  0.47000000000E+01 0.  1.
</event>
<event>
 5    1  0.4781763E-001  0.8000000E+02  0.7546771E-02  0.1203772E+00
         11   -1    0    0    0    0  0.00000000000E+00  0.00000000000E+00  0.40000000000E+02  0.40000000000E+02  0.00000000000E+00 0.  1.
        -11   -1    0    0    0    0 -0.00000000000E+00 -0.00000000000E+00 -0.40000000000E+02  0.40000000000E+02  0.00000000000E+00 0. -1.
         23    2    1    2    0    0  0.00000000000E+00  0.00000000000E+00  0.00000000000E+00  0.80000000000E+02  0.80000000000E+02 0.  0.
          5    1    3    3  501    0  0.83672502914E+01 -0.18466771131E+02 -0.34159588501E+02  0.40000000000E+02  0.47000000000E+01 0. -1.
         -5    1    3    3    0  501 -0.83672502914E+01  0.18466771131E+02  0.34159588501E+02  0.40000000000E+02  0.47000000000E+01 0.  1.
</event>
<event>
 5    1  0.4781763E-001  0.8000000E+02  0.7546771E-02  0.1203772E+00
         11   -1    0    0    0    0  0.00000000000E+00  0.00000000000E+00  0.40000000000E+02  0.40000000000E+02  0.00000000000E+00 0.  1.
        -11   -1    0    0    0    0 -0.00000000000E+00 -0.00000000000E+00 -0.40000000000E+02  0.40000000000E+02  0.00000000000E+00 0. -1.
         23    2    1    2    0    0  0.00000000000E+00  0.00000000000E+00  0.00000000000E+00  0.80000000000E+02  0.80000000000E+02 0.  0.
          5    1    3    3  501    0 -0.26291292661E+01  0.14668702389E+02 -0.36821554143E+02  0.40000000000E+02  0.47000000000E+01 0. -1.
         -5    1    3    3    0  501  0.26291292661E+01 -0.14668702389E+02  0.36821554143E+02  0.40000000000E+02  0.47000000000E+01 0.  1.
</event>
<event>
 5    1  0.4781763E-001  0.8000000E+02  0.7546771E-02  0.1203772E+00
         11   -1    0    0    0    0  0.00000000000E+00  0.00000000000E+00  0.40000000000E+02  0.40000000000E+02  0.00000000000E+00 0.  1.
        -11   -1    0    0    0    0 -0.00000000000E+00 -0.00000000000E+00 -0.40000000000E+02  0.40000000000E+02  0.00000000000E+00 0. -1.
         23    2    1    2    0    0  0.00000000000E+00  0.00000000000E+00  0.00000000000E+00  0.80000000000E+02  0.80000000000E+02 0.  0.
          5    1    3    3  501    0 -0.43623399117E+01 -0.39429153987E+02 -0.20547034719E+01  0.40000000000E+02  0.47000000000E+01 0. -1.
         -5    1    3    3    0  501  0.43623399117E+01  0.39429153987E+02  0.20547034719E+01  0.40000000000E+02  0.47000000000E+01 0.  1.
</event>
<event>
 5    1  0.4781763E-001  0.8000000E+02  0.7546771E-02  0.1203772E+00
         11   -1    0    0    0    0  0.00000000000E+00  0.00000000000E+00  0.40000000000E+02  0.40000000000E+02  0.00000000000E+00 0.  1.
        -11   -1    0    0    0    0 -0.00000000000E+00 -0.00000000000E+00 -0.40000000000E+02  0.40000000000E+02  0.00000000000E+00 0. -1.
         23    2    1    2    0    0  0.00000000000E+00  0.00000000000E+00  0.00000000000E+00  0.80000000000E+02  0.80000000000E+02 0.  0.
          5    1    3    3  501    0 -0.35422720587E+01 -0.39006155263E+02  0.66243611214E+01  0.40000000000E+02  0.47000000000E+01 0. -1.
         -5    1    3    3    0  501  0.35422720587E+01  0.39006155263E+02 -0.66243611214E+01  0.40000000000E+02  0.47000000000E+01 0.  1.
</event>
<event>
 5    1  0.4781763E-001  0.8000000E+02  0.7546771E-02  0.1203772E+00
         11   -1    0    0    0    0  0.00000000000E+00  0.00000000000E+00  0.40000000000E+02  0.40000000000E+02  0.00000000000E+00 0.  1.
        -11   -1    0    0    0    0 -0.00000000000E+00 -0.00000000000E+00 -0.40000000000E+02  0.40000000000E+02  0.00000000000E+00 0. -1.
         23    2    1    2    0    0  0.00000000000E+00  0.00000000000E+00  0.00000000000E+00  0.80000000000E+02  0.80000000000E+02 0.  0.
          5    1    3    3  501    0  0.32216968939E+02  0.42457262647E+00 -0.23233524281E+02  0.40000000000E+02  0.47000000000E+01 0. -1.
         -5    1    3    3    0  501 -0.32216968939E+02 -0.42457262647E+00  0.23233524281E+02  0.40000000000E+02  0.47000000000E+01 0.  1.
</event>
<event>
 5    1  0.4781763E-001  0.8000000E+02  0.7546771E-02  0.1203772E+00
         11   -1    0    0    0    0  0.00000000000E+00  0.00000000000E+00  0.40000000000E+02  0.40000000000E+02  0.00000000000E+00 0.  1.
        -11   -1    0    0    0    0 -0.00000000000E+00 -0.00000000000E+00 -0.40000000000E+02  0.40000000000E+02  0.00000000000E+00 0. -1.
         23    2    1    2    0    0  0.00000000000E+00  0.00000000000E+00  0.00000000000E+00  0.80000000000E+02  0.80000000000E+02 0.  0.
          5    1    3    3  501    0 -0.32452330216E+02  0.20498171934E+02 -0.10226495535E+02  0.40000000000E+02  0.47000000000E+01 0. -1.
         -5    1    3    3    0  501  0.32452330216E+02 -0.20498171934E+02  0.10226495535E+02  0.40000000000E+02  0.47000000000E+01 0.  1.
</event>
<event>
 5    1  0.4781763E-001  0.8000000E+02  0.7546771E-02  0.1203772E+00
         11   -1    0    0    0    0  0.00000000000E+00  0.00000000000E+00  0.40000000000E+02  0.40000000000E+02  0.00000000000E+00 0. -1.
        -11   -1    0    0    0    0 -0.00000000000E+00 -0.00000000000E+00 -0.40000000000E+02  0.40000000000E+02  0.00000000000E+00 0.  1.
         23    2    1    2    0    0  0.00000000000E+00  0.00000000000E+00  0.00000000000E+00  0.80000000000E+02  0.80000000000E+02 0.  0.
          5    1    3    3  501    0 -0.11062637296E+02 -0.51006632387E+01  0.37808878462E+02  0.40000000000E+02  0.47000000000E+01 0. -1.
         -5    1    3    3    0  501  0.11062637296E+02  0.51006632387E+01 -0.37808878462E+02  0.40000000000E+02  0.47000000000E+01 0.  1.
</event>
<event>
 5    1  0.4781763E-001  0.8000000E+02  0.7546771E-02  0.1203772E+00
         11   -1    0    0    0    0  0.00000000000E+00  0.00000000000E+00  0.40000000000E+02  0.40000000000E+02  0.00000000000E+00 0. -1.
        -11   -1    0    0    0    0 -0.00000000000E+00 -0.00000000000E+00 -0.40000000000E+02  0.40000000000E+02  0.00000000000E+00 0.  1.
         23    2    1    2    0    0  0.00000000000E+00  0.00000000000E+00  0.00000000000E+00  0.80000000000E+02  0.80000000000E+02 0.  0.
          5    1    3    3  501    0 -0.23977618688E+01 -0.20167266764E+02  0.34138571870E+02  0.40000000000E+02  0.47000000000E+01 0. -1.
         -5    1    3    3    0  501  0.23977618688E+01  0.20167266764E+02 -0.34138571870E+02  0.40000000000E+02  0.47000000000E+01 0.  1.
</event>
<event>
 5    1  0.4781763E-001  0.8000000E+02  0.7546771E-02  0.1203772E+00
         11   -1    0    0    0    0  0.00000000000E+00  0.00000000000E+00  0.40000000000E+02  0.40000000000E+02  0.00000000000E+00 0.  1.
        -11   -1    0    0    0    0 -0.00000000000E+00 -0.00000000000E+00 -0.40000000000E+02  0.40000000000E+02  0.00000000000E+00 0. -1.
         23    2    1    2    0    0  0.00000000000E+00  0.00000000000E+00  0.00000000000E+00  0.80000000000E+02  0.80000000000E+02 0.  0.
          5    1    3    3  501    0 -0.40739785692E+01  0.25923921851E+02 -0.29820512647E+02  0.40000000000E+02  0.47000000000E+01 0. -1.
         -5    1    3    3    0  501  0.40739785692E+01 -0.25923921851E+02  0.29820512647E+02  0.40000000000E+02  0.47000000000E+01 0.  1.
</event>
<event>
 5    1  0.4781763E-001  0.8000000E+02  0.7546771E-02  0.1203772E+00
         11   -1    0    0    0    0  0.00000000000E+00  0.00000000000E+00  0.40000000000E+02  0.40000000000E+02  0.00000000000E+00 0.  1.
        -11   -1    0    0    0    0 -0.00000000000E+00 -0.00000000000E+00 -0.40000000000E+02  0.40000000000E+02  0.00000000000E+00 0. -1.
         23    2    1    2    0    0  0.00000000000E+00  0.00000000000E+00  0.00000000000E+00  0.80000000000E+02  0.80000000000E+02 0.  0.
          5    1    3    3  501    0 -0.18128879006E+02 -0.28298275092E+02 -0.21176906592E+02  0.40000000000E+02  0.47000000000E+01 0. -1.
         -5    1    3    3    0  501  0.18128879006E+02  0.28298275092E+02  0.21176906592E+02  0.40000000000E+02  0.47000000000E+01 0.  1.
</event>
<event>
 5    1  0.4781763E-001  0.8000000E+02  0.7546771E-02  0.1203772E+00
         11   -1    0    0    0    0  0.00000000000E+00  0.00000000000E+00  0.40000000000E+02  0.40000000000E+02  0.00000000000E+00 0. -1.
        -11   -1    0    0    0    0 -0.00000000000E+00 -0.00000000000E+00 -0.40000000000E+02  0.40000000000E+02  0.00000000000E+00 0.  1.
         23    2    1    2    0    0  0.00000000000E+00  0.00000000000E+00  0.00000000000E+00  0.80000000000E+02  0.80000000000E+02 0.  0.
          5    1    3    3  501    0 -0.26248195660E+02 -0.17391832633E+02  0.24217067995E+02  0.40000000000E+02  0.47000000000E+01 0. -1.
         -5    1    3    3    0  501  0.26248195660E+02  0.17391832633E+02 -0.24217067995E+02  0.40000000000E+02  0.47000000000E+01 0.  1.
</event>
<event>
 5    1  0.4781763E-001  0.8000000E+02  0.7546771E-02  0.1203772E+00
         11   -1    0    0    0    0  0.00000000000E+00  0.00000000000E+00  0.40000000000E+02  0.40000000000E+02  0.00000000000E+00 0.  1.
        -11   -1    0    0    0    0 -0.00000000000E+00 -0.00000000000E+00 -0.40000000000E+02  0.40000000000E+02  0.00000000000E+00 0. -1.
         23    2    1    2    0    0  0.00000000000E+00  0.00000000000E+00  0.00000000000E+00  0.80000000000E+02  0.80000000000E+02 0.  0.
          5    1    3    3  501    0 -0.23861882764E+02 -0.28908599873E+02 -0.13145851223E+02  0.40000000000E+02  0.47000000000E+01 0. -1.
         -5    1    3    3    0  501  0.23861882764E+02  0.28908599873E+02  0.13145851223E+02  0.40000000000E+02  0.47000000000E+01 0.  1.
</event>
<event>
 5    1  0.4781763E-001  0.8000000E+02  0.7546771E-02  0.1203772E+00
         11   -1    0    0    0    0  0.00000000000E+00  0.00000000000E+00  0.40000000000E+02  0.40000000000E+02  0.00000000000E+00 0. -1.
        -11   -1    0    0    0    0 -0.00000000000E+00 -0.00000000000E+00 -0.40000000000E+02  0.40000000000E+02  0.00000000000E+00 0.  1.
         23    2    1    2    0    0  0.00000000000E+00  0.00000000000E+00  0.00000000000E+00  0.80000000000E+02  0.80000000000E+02 0.  0.
          5    1    3    3  501    0  0.15759421204E+02  0.31383848014E+02  0.18563532184E+02  0.40000000000E+02  0.47000000000E+01 0. -1.
         -5    1    3    3    0  501 -0.15759421204E+02 -0.31383848014E+02 -0.18563532184E+02  0.40000000000E+02  0.47000000000E+01 0.  1.
</event>
<event>
 5    1  0.4781763E-001  0.8000000E+02  0.7546771E-02  0.1203772E+00
         11   -1    0    0    0    0  0.00000000000E+00  0.00000000000E+00  0.40000000000E+02  0.40000000000E+02  0.00000000000E+00 0. -1.
        -11   -1    0    0    0    0 -0.00000000000E+00 -0.00000000000E+00 -0.40000000000E+02  0.40000000000E+02  0.00000000000E+00 0.  1.
         23    2    1    2    0    0  0.00000000000E+00  0.00000000000E+00  0.00000000000E+00  0.80000000000E+02  0.80000000000E+02 0.  0.
          5    1    3    3  501    0 -0.53115366260E+00 -0.21532262478E+02  0.33376481965E+02  0.40000000000E+02  0.47000000000E+01 0. -1.
         -5    1    3    3    0  501  0.53115366260E+00  0.21532262478E+02 -0.33376481965E+02  0.40000000000E+02  0.47000000000E+01 0.  1.
</event>
<event>
 5    1  0.4781763E-001  0.8000000E+02  0.7546771E-02  0.1203772E+00
         11   -1    0    0    0    0  0.00000000000E+00  0.00000000000E+00  0.40000000000E+02  0.40000000000E+02  0.00000000000E+00 0.  1.
        -11   -1    0    0    0    0 -0.00000000000E+00 -0.00000000000E+00 -0.40000000000E+02  0.40000000000E+02  0.00000000000E+00 0. -1.
         23    2    1    2    0    0  0.00000000000E+00  0.00000000000E+00  0.00000000000E+00  0.80000000000E+02  0.80000000000E+02 0.  0.
          5    1    3    3  501    0 -0.25457506249E+02 -0.30491939168E+02  0.25888491772E+00  0.40000000000E+02  0.47000000000E+01 0. -1.
         -5    1    3    3    0  501  0.25457506249E+02  0.30491939168E+02 -0.25888491772E+00  0.40000000000E+02  0.47000000000E+01 0.  1.
</event>
<event>
 5    1  0.4781763E-001  0.8000000E+02  0.7546771E-02  0.1203772E+00
         11   -1    0    0    0    0  0.00000000000E+00  0.00000000000E+00  0.40000000000E+02  0.40000000000E+02  0.00000000000E+00 0.  1.
        -11   -1    0    0    0    0 -0.00000000000E+00 -0.00000000000E+00 -0.40000000000E+02  0.40000000000E+02  0.00000000000E+00 0. -1.
         23    2    1    2    0    0  0.00000000000E+00  0.00000000000E+00  0.00000000000E+00  0.80000000000E+02  0.80000000000E+02 0.  0.
          5    1    3    3  501    0  0.28346736533E+02 -0.58368119349E+01 -0.27208530912E+02  0.40000000000E+02  0.47000000000E+01 0. -1.
         -5    1    3    3    0  501 -0.28346736533E+02  0.58368119349E+01  0.27208530912E+02  0.40000000000E+02  0.47000000000E+01 0.  1.
</event>
<event>
 5    1  0.4781763E-001  0.8000000E+02  0.7546771E-02  0.1203772E+00
         11   -1    0    0    0    0  0.00000000000E+00  0.00000000000E+00  0.40000000000E+02  0.40000000000E+02  0.00000000000E+00 0.  1.
        -11   -1    0    0    0    0 -0.00000000000E+00 -0.00000000000E+00 -0.40000000000E+02  0.40000000000E+02  0.00000000000E+00 0. -1.
         23    2    1    2    0    0  0.00000000000E+00  0.00000000000E+00  0.00000000000E+00  0.80000000000E+02  0.80000000000E+02 0.  0.
          5    1    3    3  501    0 -0.17817202857E+02 -0.94685876800E+01 -0.34217000595E+02  0.40000000000E+02  0.47000000000E+01 0. -1.
         -5    1    3    3    0  501  0.17817202857E+02  0.94685876800E+01  0.34217000595E+02  0.40000000000E+02  0.47000000000E+01 0.  1.
</event>
<event>
 5    1  0.4781763E-001  0.8000000E+02  0.7546771E-02  0.1203772E+00
         11   -1    0    0    0    0  0.00000000000E+00  0.00000000000E+00  0.40000000000E+02  0.40000000000E+02  0.00000000000E+00 0.  1.
        -11   -1    0    0    0    0 -0.00000000000E+00 -0.00000000000E+00 -0.40000000000E+02  0.40000000000E+02  0.00000000000E+00 0. -1.
         23    2    1    2    0    0  0.00000000000E+00  0.00000000000E+00  0.00000000000E+00  0.80000000000E+02  0.80000000000E+02 0.  0.
          5    1    3    3  501    0  0.13109490870E+02  0.48548065035E+01 -0.37181744216E+02  0.40000000000E+02  0.47000000000E+01 0. -1.
         -5    1    3    3    0  501 -0.13109490870E+02 -0.48548065035E+01  0.37181744216E+02  0.40000000000E+02  0.47000000000E+01 0.  1.
</event>
<event>
 5    1  0.4781763E-001  0.8000000E+02  0.7546771E-02  0.1203772E+00
         11   -1    0    0    0    0  0.00000000000E+00  0.00000000000E+00  0.40000000000E+02  0.40000000000E+02  0.00000000000E+00 0.  1.
        -11   -1    0    0    0    0 -0.00000000000E+00 -0.00000000000E+00 -0.40000000000E+02  0.40000000000E+02  0.00000000000E+00 0. -1.
         23    2    1    2    0    0  0.00000000000E+00  0.00000000000E+00  0.00000000000E+00  0.80000000000E+02  0.80000000000E+02 0.  0.
          5    1    3    3  501    0  0.12183654965E+02  0.27512833146E+02 -0.25932847201E+02  0.40000000000E+02  0.47000000000E+01 0. -1.
         -5    1    3    3    0  501 -0.12183654965E+02 -0.27512833146E+02  0.25932847201E+02  0.40000000000E+02  0.47000000000E+01 0.  1.
</event>
<event>
 5    1  0.4781763E-001  0.8000000E+02  0.7546771E-02  0.1203772E+00
         11   -1    0    0    0    0  0.00000000000E+00  0.00000000000E+00  0.40000000000E+02  0.40000000000E+02  0.00000000000E+00 0.  1.
        -11   -1    0    0    0    0 -0.00000000000E+00 -0.00000000000E+00 -0.40000000000E+02  0.40000000000E+02  0.00000000000E+00 0. -1.
         23    2    1    2    0    0  0.00000000000E+00  0.00000000000E+00  0.00000000000E+00  0.80000000000E+02  0.80000000000E+02 0.  0.
          5    1    3    3  501    0 -0.86007744534E+01  0.78719376464E+01 -0.37973270553E+02  0.40000000000E+02  0.47000000000E+01 0. -1.
         -5    1    3    3    0  501  0.86007744534E+01 -0.78719376464E+01  0.37973270553E+02  0.40000000000E+02  0.47000000000E+01 0.  1.
</event>
<event>
 5    1  0.4781763E-001  0.8000000E+02  0.7546771E-02  0.1203772E+00
         11   -1    0    0    0    0  0.00000000000E+00  0.00000000000E+00  0.40000000000E+02  0.40000000000E+02  0.00000000000E+00 0.  1.
        -11   -1    0    0    0    0 -0.00000000000E+00 -0.00000000000E+00 -0.40000000000E+02  0.40000000000E+02  0.00000000000E+00 0. -1.
         23    2    1    2    0    0  0.00000000000E+00  0.00000000000E+00  0.00000000000E+00  0.80000000000E+02  0.80000000000E+02 0.  0.
          5    1    3    3  501    0  0.17214385578E+02  0.34103350175E+02 -0.10887443962E+02  0.40000000000E+02  0.47000000000E+01 0. -1.
         -5    1    3    3    0  501 -0.17214385578E+02 -0.34103350175E+02  0.10887443962E+02  0.40000000000E+02  0.47000000000E+01 0.  1.
</event>
<event>
 5    1  0.4781763E-001  0.8000000E+02  0.7546771E-02  0.1203772E+00
         11   -1    0    0    0    0  0.00000000000E+00  0.00000000000E+00  0.40000000000E+02  0.40000000000E+02  0.00000000000E+00 0. -1.
        -11   -1    0    0    0    0 -0.00000000000E+00 -0.00000000000E+00 -0.40000000000E+02  0.40000000000E+02  0.00000000000E+00 0.  1.
         23    2    1    2    0    0  0.00000000000E+00  0.00000000000E+00  0.00000000000E+00  0.80000000000E+02  0.80000000000E+02 0.  0.
          5    1    3    3  501    0 -0.24003516455E+01  0.27563938843E+02  0.28502238289E+02  0.40000000000E+02  0.47000000000E+01 0. -1.
         -5    1    3    3    0  501  0.24003516455E+01 -0.27563938843E+02 -0.28502238289E+02  0.40000000000E+02  0.47000000000E+01 0.  1.
</event>
<event>
 5    1  0.4781763E-001  0.8000000E+02  0.7546771E-02  0.1203772E+00
         11   -1    0    0    0    0  0.00000000000E+00  0.00000000000E+00  0.40000000000E+02  0.40000000000E+02  0.00000000000E+00 0. -1.
        -11   -1    0    0    0    0 -0.00000000000E+00 -0.00000000000E+00 -0.40000000000E+02  0.40000000000E+02  0.00000000000E+00 0.  1.
         23    2    1    2    0    0  0.00000000000E+00  0.00000000000E+00  0.00000000000E+00  0.80000000000E+02  0.80000000000E+02 0.  0.
          5    1    3    3  501    0  0.12015058113E+02  0.30208225942E+02  0.22825675542E+02  0.40000000000E+02  0.47000000000E+01 0. -1.
         -5    1    3    3    0  501 -0.12015058113E+02 -0.30208225942E+02 -0.22825675542E+02  0.40000000000E+02  0.47000000000E+01 0.  1.
</event>
<event>
 5    1  0.4781763E-001  0.8000000E+02  0.7546771E-02  0.1203772E+00
         11   -1    0    0    0    0  0.00000000000E+00  0.00000000000E+00  0.40000000000E+02  0.40000000000E+02  0.00000000000E+00 0.  1.
        -11   -1    0    0    0    0 -0.00000000000E+00 -0.00000000000E+00 -0.40000000000E+02  0.40000000000E+02  0.00000000000E+00 0. -1.
         23    2    1    2    0    0  0.00000000000E+00  0.00000000000E+00  0.00000000000E+00  0.80000000000E+02  0.80000000000E+02 0.  0.
          5    1    3    3  501    0 -0.14143738276E+02  0.22057204496E+02 -0.29855391429E+02  0.40000000000E+02  0.47000000000E+01 0. -1.
         -5    1    3    3    0  501  0.14143738276E+02 -0.22057204496E+02  0.29855391429E+02  0.40000000000E+02  0.47000000000E+01 0.  1.
</event>
<event>
 5    1  0.4781763E-001  0.8000000E+02  0.7546771E-02  0.1203772E+00
         11   -1    0    0    0    0  0.00000000000E+00  0.00000000000E+00  0.40000000000E+02  0.40000000000E+02  0.00000000000E+00 0. -1.
        -11   -1    0    0    0    0 -0.00000000000E+00 -0.00000000000E+00 -0.40000000000E+02  0.40000000000E+02  0.00000000000E+00 0.  1.
         23    2    1    2    0    0  0.00000000000E+00  0.00000000000E+00  0.00000000000E+00  0.80000000000E+02  0.80000000000E+02 0.  0.
          5    1    3    3  501    0 -0.36565153085E+02  0.12598357893E+02  0.90653713819E+01  0.40000000000E+02  0.47000000000E+01 0. -1.
         -5    1    3    3    0  501  0.36565153085E+02 -0.12598357893E+02 -0.90653713819E+01  0.40000000000E+02  0.47000000000E+01 0.  1.
</event>
<event>
 5    1  0.4781763E-001  0.8000000E+02  0.7546771E-02  0.1203772E+00
         11   -1    0    0    0    0  0.00000000000E+00  0.00000000000E+00  0.40000000000E+02  0.40000000000E+02  0.00000000000E+00 0.  1.
        -11   -1    0    0    0    0 -0.00000000000E+00 -0.00000000000E+00 -0.40000000000E+02  0.40000000000E+02  0.00000000000E+00 0. -1.
         23    2    1    2    0    0  0.00000000000E+00  0.00000000000E+00  0.00000000000E+00  0.80000000000E+02  0.80000000000E+02 0.  0.
          5    1    3    3  501    0  0.23094993851E+02  0.31195135406E+02 -0.84495435406E+01  0.40000000000E+02  0.47000000000E+01 0. -1.
         -5    1    3    3    0  501 -0.23094993851E+02 -0.31195135406E+02  0.84495435406E+01  0.40000000000E+02  0.47000000000E+01 0.  1.
</event>
<event>
 5    1  0.4781763E-001  0.8000000E+02  0.7546771E-02  0.1203772E+00
         11   -1    0    0    0    0  0.00000000000E+00  0.00000000000E+00  0.40000000000E+02  0.40000000000E+02  0.00000000000E+00 0. -1.
        -11   -1    0    0    0    0 -0.00000000000E+00 -0.00000000000E+00 -0.40000000000E+02  0.40000000000E+02  0.00000000000E+00 0.  1.
         23    2    1    2    0    0  0.00000000000E+00  0.00000000000E+00  0.00000000000E+00  0.80000000000E+02  0.80000000000E+02 0.  0.
          5    1    3    3  501    0 -0.90742543572E+01  0.27969637850E+02  0.26707063980E+02  0.40000000000E+02  0.47000000000E+01 0. -1.
         -5    1    3    3    0  501  0.90742543572E+01 -0.27969637850E+02 -0.26707063980E+02  0.40000000000E+02  0.47000000000E+01 0.  1.
</event>
<event>
 5    1  0.4781763E-001  0.8000000E+02  0.7546771E-02  0.1203772E+00
         11   -1    0    0    0    0  0.00000000000E+00  0.00000000000E+00  0.40000000000E+02  0.40000000000E+02  0.00000000000E+00 0. -1.
        -11   -1    0    0    0    0 -0.00000000000E+00 -0.00000000000E+00 -0.40000000000E+02  0.40000000000E+02  0.00000000000E+00 0.  1.
         23    2    1    2    0    0  0.00000000000E+00  0.00000000000E+00  0.00000000000E+00  0.80000000000E+02  0.80000000000E+02 0.  0.
          5    1    3    3  501    0 -0.21733475018E+02 -0.32161846956E+02  0.84369226635E+01  0.40000000000E+02  0.47000000000E+01 0. -1.
         -5    1    3    3    0  501  0.21733475018E+02  0.32161846956E+02 -0.84369226635E+01  0.40000000000E+02  0.47000000000E+01 0.  1.
</event>
<event>
 5    1  0.4781763E-001  0.8000000E+02  0.7546771E-02  0.1203772E+00
         11   -1    0    0    0    0  0.00000000000E+00  0.00000000000E+00  0.40000000000E+02  0.40000000000E+02  0.00000000000E+00 0.  1.
        -11   -1    0    0    0    0 -0.00000000000E+00 -0.00000000000E+00 -0.40000000000E+02  0.40000000000E+02  0.00000000000E+00 0. -1.
         23    2    1    2    0    0  0.00000000000E+00  0.00000000000E+00  0.00000000000E+00  0.80000000000E+02  0.80000000000E+02 0.  0.
          5    1    3    3  501    0 -0.15357711721E+02 -0.18484076784E+02 -0.31628936057E+02  0.40000000000E+02  0.47000000000E+01 0. -1.
         -5    1    3    3    0  501  0.15357711721E+02  0.18484076784E+02  0.31628936057E+02  0.40000000000E+02  0.47000000000E+01 0.  1.
</event>
<event>
 5    1  0.4781763E-001  0.8000000E+02  0.7546771E-02  0.1203772E+00
         11   -1    0    0    0    0  0.00000000000E+00  0.00000000000E+00  0.40000000000E+02  0.40000000000E+02  0.00000000000E+00 0.  1.
        -11   -1    0    0    0    0 -0.00000000000E+00 -0.00000000000E+00 -0.40000000000E+02  0.40000000000E+02  0.00000000000E+00 0. -1.
         23    2    1    2    0    0  0.00000000000E+00  0.00000000000E+00  0.00000000000E+00  0.80000000000E+02  0.80000000000E+02 0.  0.
          5    1    3    3  501    0 -0.23738330049E+02  0.26136417865E+02 -0.18201355655E+02  0.40000000000E+02  0.47000000000E+01 0. -1.
         -5    1    3    3    0  501  0.23738330049E+02 -0.26136417865E+02  0.18201355655E+02  0.40000000000E+02  0.47000000000E+01 0.  1.
</event>
<event>
 5    1  0.4781763E-001  0.8000000E+02  0.7546771E-02  0.1203772E+00
         11   -1    0    0    0    0  0.00000000000E+00  0.00000000000E+00  0.40000000000E+02  0.40000000000E+02  0.00000000000E+00 0.  1.
        -11   -1    0    0    0    0 -0.00000000000E+00 -0.00000000000E+00 -0.40000000000E+02  0.40000000000E+02  0.00000000000E+00 0. -1.
         23    2    1    2    0    0  0.00000000000E+00  0.00000000000E+00  0.00000000000E+00  0.80000000000E+02  0.80000000000E+02 0.  0.
          5    1    3    3  501    0  0.66561567042E+01 -0.18044328857E+02 -0.34756406230E+02  0.40000000000E+02  0.47000000000E+01 0. -1.
         -5    1    3    3    0  501 -0.66561567042E+01  0.18044328857E+02  0.34756406230E+02  0.40000000000E+02  0.47000000000E+01 0.  1.
</event>
<event>
 5    1  0.4781763E-001  0.8000000E+02  0.7546771E-02  0.1203772E+00
         11   -1    0    0    0    0  0.00000000000E+00  0.00000000000E+00  0.40000000000E+02  0.40000000000E+02  0.00000000000E+00 0.  1.
        -11   -1    0    0    0    0 -0.00000000000E+00 -0.00000000000E+00 -0.40000000000E+02  0.40000000000E+02  0.00000000000E+00 0. -1.
         23    2    1    2    0    0  0.00000000000E+00  0.00000000000E+00  0.00000000000E+00  0.80000000000E+02  0.80000000000E+02 0.  0.
          5    1    3    3  501    0 -0.39568763262E+02  0.25261092055E+01  0.24169704563E+01  0.40000000000E+02  0.47000000000E+01 0. -1.
         -5    1    3    3    0  501  0.39568763262E+02 -0.25261092055E+01 -0.24169704563E+01  0.40000000000E+02  0.47000000000E+01 0.  1.
</event>
<event>
 5    1  0.4781763E-001  0.8000000E+02  0.7546771E-02  0.1203772E+00
         11   -1    0    0    0    0  0.00000000000E+00  0.00000000000E+00  0.40000000000E+02  0.40000000000E+02  0.00000000000E+00 0. -1.
        -11   -1    0    0    0    0 -0.00000000000E+00 -0.00000000000E+00 -0.40000000000E+02  0.40000000000E+02  0.00000000000E+00 0.  1.
         23    2    1    2    0    0  0.00000000000E+00  0.00000000000E+00  0.00000000000E+00  0.80000000000E+02  0.80000000000E+02 0.  0.
          5    1    3    3  501    0 -0.25625125144E+02  0.27758790741E+02  0.12276501861E+02  0.40000000000E+02  0.47000000000E+01 0. -1.
         -5    1    3    3    0  501  0.25625125144E+02 -0.27758790741E+02 -0.12276501861E+02  0.40000000000E+02  0.47000000000E+01 0.  1.
</event>
<event>
 5    1  0.4781763E-001  0.8000000E+02  0.7546771E-02  0.1203772E+00
         11   -1    0    0    0    0  0.00000000000E+00  0.00000000000E+00  0.40000000000E+02  0.40000000000E+02  0.00000000000E+00 0. -1.
        -11   -1    0    0    0    0 -0.00000000000E+00 -0.00000000000E+00 -0.40000000000E+02  0.40000000000E+02  0.00000000000E+00 0.  1.
         23    2    1    2    0    0  0.00000000000E+00  0.00000000000E+00  0.00000000000E+00  0.80000000000E+02  0.80000000000E+02 0.  0.
          5    1    3    3  501    0 -0.36962126376E+02 -0.14540896100E+02  0.52302426741E+00  0.40000000000E+02  0.47000000000E+01 0. -1.
         -5    1    3    3    0  501  0.36962126376E+02  0.14540896100E+02 -0.52302426741E+00  0.40000000000E+02  0.47000000000E+01 0.  1.
</event>
<event>
 5    1  0.4781763E-001  0.8000000E+02  0.7546771E-02  0.1203772E+00
         11   -1    0    0    0    0  0.00000000000E+00  0.00000000000E+00  0.40000000000E+02  0.40000000000E+02  0.00000000000E+00 0.  1.
        -11   -1    0    0    0    0 -0.00000000000E+00 -0.00000000000E+00 -0.40000000000E+02  0.40000000000E+02  0.00000000000E+00 0. -1.
         23    2    1    2    0    0  0.00000000000E+00  0.00000000000E+00  0.00000000000E+00  0.80000000000E+02  0.80000000000E+02 0.  0.
          5    1    3    3  501    0  0.11543766179E+02  0.16212226978E+02 -0.34377538580E+02  0.40000000000E+02  0.47000000000E+01 0. -1.
         -5    1    3    3    0  501 -0.11543766179E+02 -0.16212226978E+02  0.34377538580E+02  0.40000000000E+02  0.47000000000E+01 0.  1.
</event>
<event>
 5    1  0.4781763E-001  0.8000000E+02  0.7546771E-02  0.1203772E+00
         11   -1    0    0    0    0  0.00000000000E+00  0.00000000000E+00  0.40000000000E+02  0.40000000000E+02  0.00000000000E+00 0. -1.
        -11   -1    0    0    0    0 -0.00000000000E+00 -0.00000000000E+00 -0.40000000000E+02  0.40000000000E+02  0.00000000000E+00 0.  1.
         23    2    1    2    0    0  0.00000000000E+00  0.00000000000E+00  0.00000000000E+00  0.80000000000E+02  0.80000000000E+02 0.  0.
          5    1    3    3  501    0  0.22608436615E+02 -0.14174246493E+02  0.29425487764E+02  0.40000000000E+02  0.47000000000E+01 0. -1.
         -5    1    3    3    0  501 -0.22608436615E+02  0.14174246493E+02 -0.29425487764E+02  0.40000000000E+02  0.47000000000E+01 0.  1.
</event>
<event>
 5    1  0.4781763E-001  0.8000000E+02  0.7546771E-02  0.1203772E+00
         11   -1    0    0    0    0  0.00000000000E+00  0.00000000000E+00  0.40000000000E+02  0.40000000000E+02  0.00000000000E+00 0.  1.
        -11   -1    0    0    0    0 -0.00000000000E+00 -0.00000000000E+00 -0.40000000000E+02  0.40000000000E+02  0.00000000000E+00 0. -1.
         23    2    1    2    0    0  0.00000000000E+00  0.00000000000E+00  0.00000000000E+00  0.80000000000E+02  0.80000000000E+02 0.  0.
          5    1    3    3  501    0 -0.15915808446E+02 -0.15883320447E+02 -0.32746254337E+02  0.40000000000E+02  0.47000000000E+01 0. -1.
         -5    1    3    3    0  501  0.15915808446E+02  0.15883320447E+02  0.32746254337E+02  0.40000000000E+02  0.47000000000E+01 0.  1.
</event>
<event>
 5    1  0.4781763E-001  0.8000000E+02  0.7546771E-02  0.1203772E+00
         11   -1    0    0    0    0  0.00000000000E+00  0.00000000000E+00  0.40000000000E+02  0.40000000000E+02  0.00000000000E+00 0.  1.
        -11   -1    0    0    0    0 -0.00000000000E+00 -0.00000000000E+00 -0.40000000000E+02  0.40000000000E+02  0.00000000000E+00 0. -1.
         23    2    1    2    0    0  0.00000000000E+00  0.00000000000E+00  0.00000000000E+00  0.80000000000E+02  0.80000000000E+02 0.  0.
          5    1    3    3  501    0 -0.11923192877E+02 -0.36998861211E+02 -0.81750682388E+01  0.40000000000E+02  0.47000000000E+01 0. -1.
         -5    1    3    3    0  501  0.11923192877E+02  0.36998861211E+02  0.81750682388E+01  0.40000000000E+02  0.47000000000E+01 0.  1.
</event>
<event>
 5    1  0.4781763E-001  0.8000000E+02  0.7546771E-02  0.1203772E+00
         11   -1    0    0    0    0  0.00000000000E+00  0.00000000000E+00  0.40000000000E+02  0.40000000000E+02  0.00000000000E+00 0. -1.
        -11   -1    0    0    0    0 -0.00000000000E+00 -0.00000000000E+00 -0.40000000000E+02  0.40000000000E+02  0.00000000000E+00 0.  1.
         23    2    1    2    0    0  0.00000000000E+00  0.00000000000E+00  0.00000000000E+00  0.80000000000E+02  0.80000000000E+02 0.  0.
          5    1    3    3  501    0  0.21466538893E+02  0.24268719204E+02  0.22981013384E+02  0.40000000000E+02  0.47000000000E+01 0. -1.
         -5    1    3    3    0  501 -0.21466538893E+02 -0.24268719204E+02 -0.22981013384E+02  0.40000000000E+02  0.47000000000E+01 0.  1.
</event>
<event>
 5    1  0.4781763E-001  0.8000000E+02  0.7546771E-02  0.1203772E+00
         11   -1    0    0    0    0  0.00000000000E+00  0.00000000000E+00  0.40000000000E+02  0.40000000000E+02  0.00000000000E+00 0.  1.
        -11   -1    0    0    0    0 -0.00000000000E+00 -0.00000000000E+00 -0.40000000000E+02  0.40000000000E+02  0.00000000000E+00 0. -1.
         23    2    1    2    0    0  0.00000000000E+00  0.00000000000E+00  0.00000000000E+00  0.80000000000E+02  0.80000000000E+02 0.  0.
          5    1    3    3  501    0 -0.19481633681E+02  0.24132447193E+02 -0.24819366261E+02  0.40000000000E+02  0.47000000000E+01 0. -1.
         -5    1    3    3    0  501  0.19481633681E+02 -0.24132447193E+02  0.24819366261E+02  0.40000000000E+02  0.47000000000E+01 0.  1.
</event>
<event>
 5    1  0.4781763E-001  0.8000000E+02  0.7546771E-02  0.1203772E+00
         11   -1    0    0    0    0  0.00000000000E+00  0.00000000000E+00  0.40000000000E+02  0.40000000000E+02  0.00000000000E+00 0.  1.
        -11   -1    0    0    0    0 -0.00000000000E+00 -0.00000000000E+00 -0.40000000000E+02  0.40000000000E+02  0.00000000000E+00 0. -1.
         23    2    1    2    0    0  0.00000000000E+00  0.00000000000E+00  0.00000000000E+00  0.80000000000E+02  0.80000000000E+02 0.  0.
          5    1    3    3  501    0 -0.30435349397E+00 -0.31293707798E+02  0.24464693360E+02  0.40000000000E+02  0.47000000000E+01 0. -1.
         -5    1    3    3    0  501  0.30435349397E+00  0.31293707798E+02 -0.24464693360E+02  0.40000000000E+02  0.47000000000E+01 0.  1.
</event>
<event>
 5    1  0.4781763E-001  0.8000000E+02  0.7546771E-02  0.1203772E+00
         11   -1    0    0    0    0  0.00000000000E+00  0.00000000000E+00  0.40000000000E+02  0.40000000000E+02  0.00000000000E+00 0.  1.
        -11   -1    0    0    0    0 -0.00000000000E+00 -0.00000000000E+00 -0.40000000000E+02  0.40000000000E+02  0.00000000000E+00 0. -1.
         23    2    1    2    0    0  0.00000000000E+00  0.00000000000E+00  0.00000000000E+00  0.80000000000E+02  0.80000000000E+02 0.  0.
          5    1    3    3  501    0  0.77693206820E+01 -0.75967402697E+00 -0.38948306144E+02  0.40000000000E+02  0.47000000000E+01 0. -1.
         -5    1    3    3    0  501 -0.77693206820E+01  0.75967402697E+00  0.38948306144E+02  0.40000000000E+02  0.47000000000E+01 0.  1.
</event>
<event>
 5    1  0.4781763E-001  0.8000000E+02  0.7546771E-02  0.1203772E+00
         11   -1    0    0    0    0  0.00000000000E+00  0.00000000000E+00  0.40000000000E+02  0.40000000000E+02  0.00000000000E+00 0.  1.
        -11   -1    0    0    0    0 -0.00000000000E+00 -0.00000000000E+00 -0.40000000000E+02  0.40000000000E+02  0.00000000000E+00 0. -1.
         23    2    1    2    0    0  0.00000000000E+00  0.00000000000E+00  0.00000000000E+00  0.80000000000E+02  0.80000000000E+02 0.  0.
          5    1    3    3  501    0 -0.19643958676E+02  0.29044380494E+02 -0.18666784652E+02  0.40000000000E+02  0.47000000000E+01 0. -1.
         -5    1    3    3    0  501  0.19643958676E+02 -0.29044380494E+02  0.18666784652E+02  0.40000000000E+02  0.47000000000E+01 0.  1.
</event>
<event>
 5    1  0.4781763E-001  0.8000000E+02  0.7546771E-02  0.1203772E+00
         11   -1    0    0    0    0  0.00000000000E+00  0.00000000000E+00  0.40000000000E+02  0.40000000000E+02  0.00000000000E+00 0.  1.
        -11   -1    0    0    0    0 -0.00000000000E+00 -0.00000000000E+00 -0.40000000000E+02  0.40000000000E+02  0.00000000000E+00 0. -1.
         23    2    1    2    0    0  0.00000000000E+00  0.00000000000E+00  0.00000000000E+00  0.80000000000E+02  0.80000000000E+02 0.  0.
          5    1    3    3  501    0  0.32902825487E+02  0.21689534736E+02 -0.49878009079E+01  0.40000000000E+02  0.47000000000E+01 0. -1.
         -5    1    3    3    0  501 -0.32902825487E+02 -0.21689534736E+02  0.49878009079E+01  0.40000000000E+02  0.47000000000E+01 0.  1.
</event>
<event>
 5    1  0.4781763E-001  0.8000000E+02  0.7546771E-02  0.1203772E+00
         11   -1    0    0    0    0  0.00000000000E+00  0.00000000000E+00  0.40000000000E+02  0.40000000000E+02  0.00000000000E+00 0.  1.
        -11   -1    0    0    0    0 -0.00000000000E+00 -0.00000000000E+00 -0.40000000000E+02  0.40000000000E+02  0.00000000000E+00 0. -1.
         23    2    1    2    0    0  0.00000000000E+00  0.00000000000E+00  0.00000000000E+00  0.80000000000E+02  0.80000000000E+02 0.  0.
          5    1    3    3  501    0 -0.29574468154E+02  0.25979469247E+02 -0.53224065059E+01  0.40000000000E+02  0.47000000000E+01 0. -1.
         -5    1    3    3    0  501  0.29574468154E+02 -0.25979469247E+02  0.53224065059E+01  0.40000000000E+02  0.47000000000E+01 0.  1.
</event>
<event>
 5    1  0.4781763E-001  0.8000000E+02  0.7546771E-02  0.1203772E+00
         11   -1    0    0    0    0  0.00000000000E+00  0.00000000000E+00  0.40000000000E+02  0.40000000000E+02  0.00000000000E+00 0.  1.
        -11   -1    0    0    0    0 -0.00000000000E+00 -0.00000000000E+00 -0.40000000000E+02  0.40000000000E+02  0.00000000000E+00 0. -1.
         23    2    1    2    0    0  0.00000000000E+00  0.00000000000E+00  0.00000000000E+00  0.80000000000E+02  0.80000000000E+02 0.  0.
          5    1    3    3  501    0  0.21885829356E+02  0.31433185393E+02  0.10529735489E+02  0.40000000000E+02  0.47000000000E+01 0. -1.
         -5    1    3    3    0  501 -0.21885829356E+02 -0.31433185393E+02 -0.10529735489E+02  0.40000000000E+02  0.47000000000E+01 0.  1.
</event>
<event>
 5    1  0.4781763E-001  0.8000000E+02  0.7546771E-02  0.1203772E+00
         11   -1    0    0    0    0  0.00000000000E+00  0.00000000000E+00  0.40000000000E+02  0.40000000000E+02  0.00000000000E+00 0. -1.
        -11   -1    0    0    0    0 -0.00000000000E+00 -0.00000000000E+00 -0.40000000000E+02  0.40000000000E+02  0.00000000000E+00 0.  1.
         23    2    1    2    0    0  0.00000000000E+00  0.00000000000E+00  0.00000000000E+00  0.80000000000E+02  0.80000000000E+02 0.  0.
          5    1    3    3  501    0  0.85259018557E+01 -0.35147899920E+02  0.16426933030E+02  0.40000000000E+02  0.47000000000E+01 0. -1.
         -5    1    3    3    0  501 -0.85259018557E+01  0.35147899920E+02 -0.16426933030E+02  0.40000000000E+02  0.47000000000E+01 0.  1.
</event>
<event>
 5    1  0.4781763E-001  0.8000000E+02  0.7546771E-02  0.1203772E+00
         11   -1    0    0    0    0  0.00000000000E+00  0.00000000000E+00  0.40000000000E+02  0.40000000000E+02  0.00000000000E+00 0. -1.
        -11   -1    0    0    0    0 -0.00000000000E+00 -0.00000000000E+00 -0.40000000000E+02  0.40000000000E+02  0.00000000000E+00 0.  1.
         23    2    1    2    0    0  0.00000000000E+00  0.00000000000E+00  0.00000000000E+00  0.80000000000E+02  0.80000000000E+02 0.  0.
          5    1    3    3  501    0 -0.14176685632E+02 -0.22101792506E+02  0.29806750117E+02  0.40000000000E+02  0.47000000000E+01 0. -1.
         -5    1    3    3    0  501  0.14176685632E+02  0.22101792506E+02 -0.29806750117E+02  0.40000000000E+02  0.47000000000E+01 0.  1.
</event>
<event>
 5    1  0.4781763E-001  0.8000000E+02  0.7546771E-02  0.1203772E+00
         11   -1    0    0    0    0  0.00000000000E+00  0.00000000000E+00  0.40000000000E+02  0.40000000000E+02  0.00000000000E+00 0. -1.
        -11   -1    0    0    0    0 -0.00000000000E+00 -0.00000000000E+00 -0.40000000000E+02  0.40000000000E+02  0.00000000000E+00 0.  1.
         23    2    1    2    0    0  0.00000000000E+00  0.00000000000E+00  0.00000000000E+00  0.80000000000E+02  0.80000000000E+02 0.  0.
          5    1    3    3  501    0  0.31621980084E+02  0.19146257429E+02 -0.14538954639E+02  0.40000000000E+02  0.47000000000E+01 0.  1.
         -5    1    3    3    0  501 -0.31621980084E+02 -0.19146257429E+02  0.14538954639E+02  0.40000000000E+02  0.47000000000E+01 0. -1.
</event>
<event>
 5    1  0.4781763E-001  0.8000000E+02  0.7546771E-02  0.1203772E+00
         11   -1    0    0    0    0  0.00000000000E+00  0.00000000000E+00  0.40000000000E+02  0.40000000000E+02  0.00000000000E+00 0.  1.
        -11   -1    0    0    0    0 -0.00000000000E+00 -0.00000000000E+00 -0.40000000000E+02  0.40000000000E+02  0.00000000000E+00 0. -1.
         23    2    1    2    0    0  0.00000000000E+00  0.00000000000E+00  0.00000000000E+00  0.80000000000E+02  0.80000000000E+02 0.  0.
          5    1    3    3  501    0  0.23421391033E+02  0.23819782759E+02 -0.21493403439E+02  0.40000000000E+02  0.47000000000E+01 0. -1.
         -5    1    3    3    0  501 -0.23421391033E+02 -0.23819782759E+02  0.21493403439E+02  0.40000000000E+02  0.47000000000E+01 0.  1.
</event>
<event>
 5    1  0.4781763E-001  0.8000000E+02  0.7546771E-02  0.1203772E+00
         11   -1    0    0    0    0  0.00000000000E+00  0.00000000000E+00  0.40000000000E+02  0.40000000000E+02  0.00000000000E+00 0. -1.
        -11   -1    0    0    0    0 -0.00000000000E+00 -0.00000000000E+00 -0.40000000000E+02  0.40000000000E+02  0.00000000000E+00 0.  1.
         23    2    1    2    0    0  0.00000000000E+00  0.00000000000E+00  0.00000000000E+00  0.80000000000E+02  0.80000000000E+02 0.  0.
          5    1    3    3  501    0  0.77507677466E+01 -0.36382413403E+02  0.13933972668E+02  0.40000000000E+02  0.47000000000E+01 0. -1.
         -5    1    3    3    0  501 -0.77507677466E+01  0.36382413403E+02 -0.13933972668E+02  0.40000000000E+02  0.47000000000E+01 0.  1.
</event>
<event>
 5    1  0.4781763E-001  0.8000000E+02  0.7546771E-02  0.1203772E+00
         11   -1    0    0    0    0  0.00000000000E+00  0.00000000000E+00  0.40000000000E+02  0.40000000000E+02  0.00000000000E+00 0.  1.
        -11   -1    0    0    0    0 -0.00000000000E+00 -0.00000000000E+00 -0.40000000000E+02  0.40000000000E+02  0.00000000000E+00 0. -1.
         23    2    1    2    0    0  0.00000000000E+00  0.00000000000E+00  0.00000000000E+00  0.80000000000E+02  0.80000000000E+02 0.  0.
          5    1    3    3  501    0  0.10442235488E+02 -0.86186813475E+01 -0.37344183615E+02  0.40000000000E+02  0.47000000000E+01 0. -1.
         -5    1    3    3    0  501 -0.10442235488E+02  0.86186813475E+01  0.37344183615E+02  0.40000000000E+02  0.47000000000E+01 0.  1.
</event>
<event>
 5    1  0.4781763E-001  0.8000000E+02  0.7546771E-02  0.1203772E+00
         11   -1    0    0    0    0  0.00000000000E+00  0.00000000000E+00  0.40000000000E+02  0.40000000000E+02  0.00000000000E+00 0.  1.
        -11   -1    0    0    0    0 -0.00000000000E+00 -0.00000000000E+00 -0.40000000000E+02  0.40000000000E+02  0.00000000000E+00 0. -1.
         23    2    1    2    0    0  0.00000000000E+00  0.00000000000E+00  0.00000000000E+00  0.80000000000E+02  0.80000000000E+02 0.  0.
          5    1    3    3  501    0  0.33377923564E+02  0.16862628832E+02 -0.13396864090E+02  0.40000000000E+02  0.47000000000E+01 0. -1.
         -5    1    3    3    0  501 -0.33377923564E+02 -0.16862628832E+02  0.13396864090E+02  0.40000000000E+02  0.47000000000E+01 0.  1.
</event>
<event>
 5    1  0.4781763E-001  0.8000000E+02  0.7546771E-02  0.1203772E+00
         11   -1    0    0    0    0  0.00000000000E+00  0.00000000000E+00  0.40000000000E+02  0.40000000000E+02  0.00000000000E+00 0. -1.
        -11   -1    0    0    0    0 -0.00000000000E+00 -0.00000000000E+00 -0.40000000000E+02  0.40000000000E+02  0.00000000000E+00 0.  1.
         23    2    1    2    0    0  0.00000000000E+00  0.00000000000E+00  0.00000000000E+00  0.80000000000E+02  0.80000000000E+02 0.  0.
          5    1    3    3  501    0 -0.17400947010E+01 -0.38231483755E+02  0.10641227387E+02  0.40000000000E+02  0.47000000000E+01 0. -1.
         -5    1    3    3    0  501  0.17400947010E+01  0.38231483755E+02 -0.10641227387E+02  0.40000000000E+02  0.47000000000E+01 0.  1.
</event>
<event>
 5    1  0.4781763E-001  0.8000000E+02  0.7546771E-02  0.1203772E+00
         11   -1    0    0    0    0  0.00000000000E+00  0.00000000000E+00  0.40000000000E+02  0.40000000000E+02  0.00000000000E+00 0.  1.
        -11   -1    0    0    0    0 -0.00000000000E+00 -0.00000000000E+00 -0.40000000000E+02  0.40000000000E+02  0.00000000000E+00 0. -1.
         23    2    1    2    0    0  0.00000000000E+00  0.00000000000E+00  0.00000000000E+00  0.80000000000E+02  0.80000000000E+02 0.  0.
          5    1    3    3  501    0  0.75684095180E+01 -0.38070952146E+02  0.84398921854E+01  0.40000000000E+02  0.47000000000E+01 0. -1.
         -5    1    3    3    0  501 -0.75684095180E+01  0.38070952146E+02 -0.84398921854E+01  0.40000000000E+02  0.47000000000E+01 0.  1.
</event>
<event>
 5    1  0.4781763E-001  0.8000000E+02  0.7546771E-02  0.1203772E+00
         11   -1    0    0    0    0  0.00000000000E+00  0.00000000000E+00  0.40000000000E+02  0.40000000000E+02  0.00000000000E+00 0.  1.
        -11   -1    0    0    0    0 -0.00000000000E+00 -0.00000000000E+00 -0.40000000000E+02  0.40000000000E+02  0.00000000000E+00 0. -1.
         23    2    1    2    0    0  0.00000000000E+00  0.00000000000E+00  0.00000000000E+00  0.80000000000E+02  0.80000000000E+02 0.  0.
          5    1    3    3  501    0 -0.31434583587E+02  0.20081977433E+02 -0.13656175785E+02  0.40000000000E+02  0.47000000000E+01 0. -1.
         -5    1    3    3    0  501  0.31434583587E+02 -0.20081977433E+02  0.13656175785E+02  0.40000000000E+02  0.47000000000E+01 0.  1.
</event>
<event>
 5    1  0.4781763E-001  0.8000000E+02  0.7546771E-02  0.1203772E+00
         11   -1    0    0    0    0  0.00000000000E+00  0.00000000000E+00  0.40000000000E+02  0.40000000000E+02  0.00000000000E+00 0.  1.
        -11   -1    0    0    0    0 -0.00000000000E+00 -0.00000000000E+00 -0.40000000000E+02  0.40000000000E+02  0.00000000000E+00 0. -1.
         23    2    1    2    0    0  0.00000000000E+00  0.00000000000E+00  0.00000000000E+00  0.80000000000E+02  0.80000000000E+02 0.  0.
          5    1    3    3  501    0 -0.13399160114E+02 -0.11866975407E+02 -0.35461914823E+02  0.40000000000E+02  0.47000000000E+01 0. -1.
         -5    1    3    3    0  501  0.13399160114E+02  0.11866975407E+02  0.35461914823E+02  0.40000000000E+02  0.47000000000E+01 0.  1.
</event>
<event>
 5    1  0.4781763E-001  0.8000000E+02  0.7546771E-02  0.1203772E+00
         11   -1    0    0    0    0  0.00000000000E+00  0.00000000000E+00  0.40000000000E+02  0.40000000000E+02  0.00000000000E+00 0. -1.
        -11   -1    0    0    0    0 -0.00000000000E+00 -0.00000000000E+00 -0.40000000000E+02  0.40000000000E+02  0.00000000000E+00 0.  1.
         23    2    1    2    0    0  0.00000000000E+00  0.00000000000E+00  0.00000000000E+00  0.80000000000E+02  0.80000000000E+02 0.  0.
          5    1    3    3  501    0 -0.56845698581E+01 -0.39059093527E+02 -0.44702212862E+01  0.40000000000E+02  0.47000000000E+01 0. -1.
         -5    1    3    3    0  501  0.56845698581E+01  0.39059093527E+02  0.44702212862E+01  0.40000000000E+02  0.47000000000E+01 0.  1.
</event>
<event>
 5    1  0.4781763E-001  0.8000000E+02  0.7546771E-02  0.1203772E+00
         11   -1    0    0    0    0  0.00000000000E+00  0.00000000000E+00  0.40000000000E+02  0.40000000000E+02  0.00000000000E+00 0. -1.
        -11   -1    0    0    0    0 -0.00000000000E+00 -0.00000000000E+00 -0.40000000000E+02  0.40000000000E+02  0.00000000000E+00 0.  1.
         23    2    1    2    0    0  0.00000000000E+00  0.00000000000E+00  0.00000000000E+00  0.80000000000E+02  0.80000000000E+02 0.  0.
          5    1    3    3  501    0  0.26083830654E+02  0.18858127933E+02  0.23279063324E+02  0.40000000000E+02  0.47000000000E+01 0. -1.
         -5    1    3    3    0  501 -0.26083830654E+02 -0.18858127933E+02 -0.23279063324E+02  0.40000000000E+02  0.47000000000E+01 0.  1.
</event>
<event>
 5    1  0.4781763E-001  0.8000000E+02  0.7546771E-02  0.1203772E+00
         11   -1    0    0    0    0  0.00000000000E+00  0.00000000000E+00  0.40000000000E+02  0.40000000000E+02  0.00000000000E+00 0.  1.
        -11   -1    0    0    0    0 -0.00000000000E+00 -0.00000000000E+00 -0.40000000000E+02  0.40000000000E+02  0.00000000000E+00 0. -1.
         23    2    1    2    0    0  0.00000000000E+00  0.00000000000E+00  0.00000000000E+00  0.80000000000E+02  0.80000000000E+02 0.  0.
          5    1    3    3  501    0  0.66250176451E+01  0.43794869843E+01 -0.38920935690E+02  0.40000000000E+02  0.47000000000E+01 0. -1.
         -5    1    3    3    0  501 -0.66250176451E+01 -0.43794869843E+01  0.38920935690E+02  0.40000000000E+02  0.47000000000E+01 0.  1.
</event>
<event>
 5    1  0.4781763E-001  0.8000000E+02  0.7546771E-02  0.1203772E+00
         11   -1    0    0    0    0  0.00000000000E+00  0.00000000000E+00  0.40000000000E+02  0.40000000000E+02  0.00000000000E+00 0. -1.
        -11   -1    0    0    0    0 -0.00000000000E+00 -0.00000000000E+00 -0.40000000000E+02  0.40000000000E+02  0.00000000000E+00 0.  1.
         23    2    1    2    0    0  0.00000000000E+00  0.00000000000E+00  0.00000000000E+00  0.80000000000E+02  0.80000000000E+02 0.  0.
          5    1    3    3  501    0  0.35913138608E+02 -0.57781742992E+00  0.16965335315E+02  0.40000000000E+02  0.47000000000E+01 0. -1.
         -5    1    3    3    0  501 -0.35913138608E+02  0.57781742992E+00 -0.16965335315E+02  0.40000000000E+02  0.47000000000E+01 0.  1.
</event>
<event>
 5    1  0.4781763E-001  0.8000000E+02  0.7546771E-02  0.1203772E+00
         11   -1    0    0    0    0  0.00000000000E+00  0.00000000000E+00  0.40000000000E+02  0.40000000000E+02  0.00000000000E+00 0.  1.
        -11   -1    0    0    0    0 -0.00000000000E+00 -0.00000000000E+00 -0.40000000000E+02  0.40000000000E+02  0.00000000000E+00 0. -1.
         23    2    1    2    0    0  0.00000000000E+00  0.00000000000E+00  0.00000000000E+00  0.80000000000E+02  0.80000000000E+02 0.  0.
          5    1    3    3  501    0 -0.39133499126E+02  0.67621397527E+01  0.86758981478E+00  0.40000000000E+02  0.47000000000E+01 0. -1.
         -5    1    3    3    0  501  0.39133499126E+02 -0.67621397527E+01 -0.86758981478E+00  0.40000000000E+02  0.47000000000E+01 0.  1.
</event>
<event>
 5    1  0.4781763E-001  0.8000000E+02  0.7546771E-02  0.1203772E+00
         11   -1    0    0    0    0  0.00000000000E+00  0.00000000000E+00  0.40000000000E+02  0.40000000000E+02  0.00000000000E+00 0.  1.
        -11   -1    0    0    0    0 -0.00000000000E+00 -0.00000000000E+00 -0.40000000000E+02  0.40000000000E+02  0.00000000000E+00 0. -1.
         23    2    1    2    0    0  0.00000000000E+00  0.00000000000E+00  0.00000000000E+00  0.80000000000E+02  0.80000000000E+02 0.  0.
          5    1    3    3  501    0  0.97076097547E+00 -0.39526867326E+02 -0.38202594872E+01  0.40000000000E+02  0.47000000000E+01 0. -1.
         -5    1    3    3    0  501 -0.97076097547E+00  0.39526867326E+02  0.38202594872E+01  0.40000000000E+02  0.47000000000E+01 0.  1.
</event>
<event>
 5    1  0.4781763E-001  0.8000000E+02  0.7546771E-02  0.1203772E+00
         11   -1    0    0    0    0  0.00000000000E+00  0.00000000000E+00  0.40000000000E+02  0.40000000000E+02  0.00000000000E+00 0.  1.
        -11   -1    0    0    0    0 -0.00000000000E+00 -0.00000000000E+00 -0.40000000000E+02  0.40000000000E+02  0.00000000000E+00 0. -1.
         23    2    1    2    0    0  0.00000000000E+00  0.00000000000E+00  0.00000000000E+00  0.80000000000E+02  0.80000000000E+02 0.  0.
          5    1    3    3  501    0 -0.26147707988E+02  0.82700359669E-01 -0.29903185911E+02  0.40000000000E+02  0.47000000000E+01 0. -1.
         -5    1    3    3    0  501  0.26147707988E+02 -0.82700359669E-01  0.29903185911E+02  0.40000000000E+02  0.47000000000E+01 0.  1.
</event>
<event>
 5    1  0.4781763E-001  0.8000000E+02  0.7546771E-02  0.1203772E+00
         11   -1    0    0    0    0  0.00000000000E+00  0.00000000000E+00  0.40000000000E+02  0.40000000000E+02  0.00000000000E+00 0.  1.
        -11   -1    0    0    0    0 -0.00000000000E+00 -0.00000000000E+00 -0.40000000000E+02  0.40000000000E+02  0.00000000000E+00 0. -1.
         23    2    1    2    0    0  0.00000000000E+00  0.00000000000E+00  0.00000000000E+00  0.80000000000E+02  0.80000000000E+02 0.  0.
          5    1    3    3  501    0  0.33930421530E+02  0.18588853396E+02 -0.90050554828E+01  0.40000000000E+02  0.47000000000E+01 0. -1.
         -5    1    3    3    0  501 -0.33930421530E+02 -0.18588853396E+02  0.90050554828E+01  0.40000000000E+02  0.47000000000E+01 0.  1.
</event>
<event>
 5    1  0.4781763E-001  0.8000000E+02  0.7546771E-02  0.1203772E+00
         11   -1    0    0    0    0  0.00000000000E+00  0.00000000000E+00  0.40000000000E+02  0.40000000000E+02  0.00000000000E+00 0.  1.
        -11   -1    0    0    0    0 -0.00000000000E+00 -0.00000000000E+00 -0.40000000000E+02  0.40000000000E+02  0.00000000000E+00 0. -1.
         23    2    1    2    0    0  0.00000000000E+00  0.00000000000E+00  0.00000000000E+00  0.80000000000E+02  0.80000000000E+02 0.  0.
          5    1    3    3  501    0  0.12257337851E+02 -0.37782891773E+02  0.34750259934E+00  0.40000000000E+02  0.47000000000E+01 0. -1.
         -5    1    3    3    0  501 -0.12257337851E+02  0.37782891773E+02 -0.34750259934E+00  0.40000000000E+02  0.47000000000E+01 0.  1.
</event>
<event>
 5    1  0.4781763E-001  0.8000000E+02  0.7546771E-02  0.1203772E+00
         11   -1    0    0    0    0  0.00000000000E+00  0.00000000000E+00  0.40000000000E+02  0.40000000000E+02  0.00000000000E+00 0. -1.
        -11   -1    0    0    0    0 -0.00000000000E+00 -0.00000000000E+00 -0.40000000000E+02  0.40000000000E+02  0.00000000000E+00 0.  1.
         23    2    1    2    0    0  0.00000000000E+00  0.00000000000E+00  0.00000000000E+00  0.80000000000E+02  0.80000000000E+02 0.  0.
          5    1    3    3  501    0  0.83663256383E+01  0.34318125683E+02 -0.18170879035E+02  0.40000000000E+02  0.47000000000E+01 0. -1.
         -5    1    3    3    0  501 -0.83663256383E+01 -0.34318125683E+02  0.18170879035E+02  0.40000000000E+02  0.47000000000E+01 0.  1.
</event>
<event>
 5    1  0.4781763E-001  0.8000000E+02  0.7546771E-02  0.1203772E+00
         11   -1    0    0    0    0  0.00000000000E+00  0.00000000000E+00  0.40000000000E+02  0.40000000000E+02  0.00000000000E+00 0. -1.
        -11   -1    0    0    0    0 -0.00000000000E+00 -0.00000000000E+00 -0.40000000000E+02  0.40000000000E+02  0.00000000000E+00 0.  1.
         23    2    1    2    0    0  0.00000000000E+00  0.00000000000E+00  0.00000000000E+00  0.80000000000E+02  0.80000000000E+02 0.  0.
          5    1    3    3  501    0 -0.25298497348E+00 -0.39658397075E+02 -0.22488975155E+01  0.40000000000E+02  0.47000000000E+01 0. -1.
         -5    1    3    3    0  501  0.25298497348E+00  0.39658397075E+02  0.22488975155E+01  0.40000000000E+02  0.47000000000E+01 0.  1.
</event>
<event>
 5    1  0.4781763E-001  0.8000000E+02  0.7546771E-02  0.1203772E+00
         11   -1    0    0    0    0  0.00000000000E+00  0.00000000000E+00  0.40000000000E+02  0.40000000000E+02  0.00000000000E+00 0.  1.
        -11   -1    0    0    0    0 -0.00000000000E+00 -0.00000000000E+00 -0.40000000000E+02  0.40000000000E+02  0.00000000000E+00 0. -1.
         23    2    1    2    0    0  0.00000000000E+00  0.00000000000E+00  0.00000000000E+00  0.80000000000E+02  0.80000000000E+02 0.  0.
          5    1    3    3  501    0 -0.27632669873E+02 -0.18809297749E+02 -0.21460565553E+02  0.40000000000E+02  0.47000000000E+01 0. -1.
         -5    1    3    3    0  501  0.27632669873E+02  0.18809297749E+02  0.21460565553E+02  0.40000000000E+02  0.47000000000E+01 0.  1.
</event>
<event>
 5    1  0.4781763E-001  0.8000000E+02  0.7546771E-02  0.1203772E+00
         11   -1    0    0    0    0  0.00000000000E+00  0.00000000000E+00  0.40000000000E+02  0.40000000000E+02  0.00000000000E+00 0. -1.
        -11   -1    0    0    0    0 -0.00000000000E+00 -0.00000000000E+00 -0.40000000000E+02  0.40000000000E+02  0.00000000000E+00 0.  1.
         23    2    1    2    0    0  0.00000000000E+00  0.00000000000E+00  0.00000000000E+00  0.80000000000E+02  0.80000000000E+02 0.  0.
          5    1    3    3  501    0 -0.30877291618E+02  0.21902771484E+02  0.12032101381E+02  0.40000000000E+02  0.47000000000E+01 0. -1.
         -5    1    3    3    0  501  0.30877291618E+02 -0.21902771484E+02 -0.12032101381E+02  0.40000000000E+02  0.47000000000E+01 0.  1.
</event>
<event>
 5    1  0.4781763E-001  0.8000000E+02  0.7546771E-02  0.1203772E+00
         11   -1    0    0    0    0  0.00000000000E+00  0.00000000000E+00  0.40000000000E+02  0.40000000000E+02  0.00000000000E+00 0.  1.
        -11   -1    0    0    0    0 -0.00000000000E+00 -0.00000000000E+00 -0.40000000000E+02  0.40000000000E+02  0.00000000000E+00 0. -1.
         23    2    1    2    0    0  0.00000000000E+00  0.00000000000E+00  0.00000000000E+00  0.80000000000E+02  0.80000000000E+02 0.  0.
          5    1    3    3  501    0  0.35074251055E+02 -0.13414881713E+02 -0.12951751292E+02  0.40000000000E+02  0.47000000000E+01 0. -1.
         -5    1    3    3    0  501 -0.35074251055E+02  0.13414881713E+02  0.12951751292E+02  0.40000000000E+02  0.47000000000E+01 0.  1.
</event>
<event>
 5    1  0.4781763E-001  0.8000000E+02  0.7546771E-02  0.1203772E+00
         11   -1    0    0    0    0  0.00000000000E+00  0.00000000000E+00  0.40000000000E+02  0.40000000000E+02  0.00000000000E+00 0.  1.
        -11   -1    0    0    0    0 -0.00000000000E+00 -0.00000000000E+00 -0.40000000000E+02  0.40000000000E+02  0.00000000000E+00 0. -1.
         23    2    1    2    0    0  0.00000000000E+00  0.00000000000E+00  0.00000000000E+00  0.80000000000E+02  0.80000000000E+02 0.  0.
          5    1    3    3  501    0 -0.27431992489E+02  0.26304193745E+02 -0.11553578647E+02  0.40000000000E+02  0.47000000000E+01 0. -1.
         -5    1    3    3    0  501  0.27431992489E+02 -0.26304193745E+02  0.11553578647E+02  0.40000000000E+02  0.47000000000E+01 0.  1.
</event>
<event>
 5    1  0.4781763E-001  0.8000000E+02  0.7546771E-02  0.1203772E+00
         11   -1    0    0    0    0  0.00000000000E+00  0.00000000000E+00  0.40000000000E+02  0.40000000000E+02  0.00000000000E+00 0.  1.
        -11   -1    0    0    0    0 -0.00000000000E+00 -0.00000000000E+00 -0.40000000000E+02  0.40000000000E+02  0.00000000000E+00 0. -1.
         23    2    1    2    0    0  0.00000000000E+00  0.00000000000E+00  0.00000000000E+00  0.80000000000E+02  0.80000000000E+02 0.  0.
          5    1    3    3  501    0 -0.24347266201E+02  0.26064833681E+02 -0.17485567584E+02  0.40000000000E+02  0.47000000000E+01 0. -1.
         -5    1    3    3    0  501  0.24347266201E+02 -0.26064833681E+02  0.17485567584E+02  0.40000000000E+02  0.47000000000E+01 0.  1.
</event>
<event>
 5    1  0.4781763E-001  0.8000000E+02  0.7546771E-02  0.1203772E+00
         11   -1    0    0    0    0  0.00000000000E+00  0.00000000000E+00  0.40000000000E+02  0.40000000000E+02  0.00000000000E+00 0.  1.
        -11   -1    0    0    0    0 -0.00000000000E+00 -0.00000000000E+00 -0.40000000000E+02  0.40000000000E+02  0.00000000000E+00 0. -1.
         23    2    1    2    0    0  0.00000000000E+00  0.00000000000E+00  0.00000000000E+00  0.80000000000E+02  0.80000000000E+02 0.  0.
          5    1    3    3  501    0 -0.28665267070E+02  0.25407904096E+02 -0.10519071882E+02  0.40000000000E+02  0.47000000000E+01 0. -1.
         -5    1    3    3    0  501  0.28665267070E+02 -0.25407904096E+02  0.10519071882E+02  0.40000000000E+02  0.47000000000E+01 0.  1.
</event>
<event>
 5    1  0.4781763E-001  0.8000000E+02  0.7546771E-02  0.1203772E+00
         11   -1    0    0    0    0  0.00000000000E+00  0.00000000000E+00  0.40000000000E+02  0.40000000000E+02  0.00000000000E+00 0. -1.
        -11   -1    0    0    0    0 -0.00000000000E+00 -0.00000000000E+00 -0.40000000000E+02  0.40000000000E+02  0.00000000000E+00 0.  1.
         23    2    1    2    0    0  0.00000000000E+00  0.00000000000E+00  0.00000000000E+00  0.80000000000E+02  0.80000000000E+02 0.  0.
          5    1    3    3  501    0 -0.13308781938E+02  0.29511203731E+02  0.23019017739E+02  0.40000000000E+02  0.47000000000E+01 0. -1.
         -5    1    3    3    0  501  0.13308781938E+02 -0.29511203731E+02 -0.23019017739E+02  0.40000000000E+02  0.47000000000E+01 0.  1.
</event>
<event>
 5    1  0.4781763E-001  0.8000000E+02  0.7546771E-02  0.1203772E+00
         11   -1    0    0    0    0  0.00000000000E+00  0.00000000000E+00  0.40000000000E+02  0.40000000000E+02  0.00000000000E+00 0. -1.
        -11   -1    0    0    0    0 -0.00000000000E+00 -0.00000000000E+00 -0.40000000000E+02  0.40000000000E+02  0.00000000000E+00 0.  1.
         23    2    1    2    0    0  0.00000000000E+00  0.00000000000E+00  0.00000000000E+00  0.80000000000E+02  0.80000000000E+02 0.  0.
          5    1    3    3  501    0 -0.31860210497E+02 -0.15192570214E+02  0.18221492732E+02  0.40000000000E+02  0.47000000000E+01 0. -1.
         -5    1    3    3    0  501  0.31860210497E+02  0.15192570214E+02 -0.18221492732E+02  0.40000000000E+02  0.47000000000E+01 0.  1.
</event>
<event>
 5    1  0.4781763E-001  0.8000000E+02  0.7546771E-02  0.1203772E+00
         11   -1    0    0    0    0  0.00000000000E+00  0.00000000000E+00  0.40000000000E+02  0.40000000000E+02  0.00000000000E+00 0. -1.
        -11   -1    0    0    0    0 -0.00000000000E+00 -0.00000000000E+00 -0.40000000000E+02  0.40000000000E+02  0.00000000000E+00 0.  1.
         23    2    1    2    0    0  0.00000000000E+00  0.00000000000E+00  0.00000000000E+00  0.80000000000E+02  0.80000000000E+02 0.  0.
          5    1    3    3  501    0  0.11488102424E+02  0.29663842137E+02 -0.23790543759E+02  0.40000000000E+02  0.47000000000E+01 0. -1.
         -5    1    3    3    0  501 -0.11488102424E+02 -0.29663842137E+02  0.23790543759E+02  0.40000000000E+02  0.47000000000E+01 0.  1.
</event>
<event>
 5    1  0.4781763E-001  0.8000000E+02  0.7546771E-02  0.1203772E+00
         11   -1    0    0    0    0  0.00000000000E+00  0.00000000000E+00  0.40000000000E+02  0.40000000000E+02  0.00000000000E+00 0.  1.
        -11   -1    0    0    0    0 -0.00000000000E+00 -0.00000000000E+00 -0.40000000000E+02  0.40000000000E+02  0.00000000000E+00 0. -1.
         23    2    1    2    0    0  0.00000000000E+00  0.00000000000E+00  0.00000000000E+00  0.80000000000E+02  0.80000000000E+02 0.  0.
          5    1    3    3  501    0 -0.27112494920E+02  0.28482921337E+01 -0.28891345609E+02  0.40000000000E+02  0.47000000000E+01 0. -1.
         -5    1    3    3    0  501  0.27112494920E+02 -0.28482921337E+01  0.28891345609E+02  0.40000000000E+02  0.47000000000E+01 0.  1.
</event>
<event>
 5    1  0.4781763E-001  0.8000000E+02  0.7546771E-02  0.1203772E+00
         11   -1    0    0    0    0  0.00000000000E+00  0.00000000000E+00  0.40000000000E+02  0.40000000000E+02  0.00000000000E+00 0.  1.
        -11   -1    0    0    0    0 -0.00000000000E+00 -0.00000000000E+00 -0.40000000000E+02  0.40000000000E+02  0.00000000000E+00 0. -1.
         23    2    1    2    0    0  0.00000000000E+00  0.00000000000E+00  0.00000000000E+00  0.80000000000E+02  0.80000000000E+02 0.  0.
          5    1    3    3  501    0 -0.30986129421E+02 -0.86411830636E+01 -0.23304500398E+02  0.40000000000E+02  0.47000000000E+01 0. -1.
         -5    1    3    3    0  501  0.30986129421E+02  0.86411830636E+01  0.23304500398E+02  0.40000000000E+02  0.47000000000E+01 0.  1.
</event>
<event>
 5    1  0.4781763E-001  0.8000000E+02  0.7546771E-02  0.1203772E+00
         11   -1    0    0    0    0  0.00000000000E+00  0.00000000000E+00  0.40000000000E+02  0.40000000000E+02  0.00000000000E+00 0. -1.
        -11   -1    0    0    0    0 -0.00000000000E+00 -0.00000000000E+00 -0.40000000000E+02  0.40000000000E+02  0.00000000000E+00 0.  1.
         23    2    1    2    0    0  0.00000000000E+00  0.00000000000E+00  0.00000000000E+00  0.80000000000E+02  0.80000000000E+02 0.  0.
          5    1    3    3  501    0  0.29625912804E+02  0.14419333570E+02  0.22187791912E+02  0.40000000000E+02  0.47000000000E+01 0. -1.
         -5    1    3    3    0  501 -0.29625912804E+02 -0.14419333570E+02 -0.22187791912E+02  0.40000000000E+02  0.47000000000E+01 0.  1.
</event>
<event>
 5    1  0.4781763E-001  0.8000000E+02  0.7546771E-02  0.1203772E+00
         11   -1    0    0    0    0  0.00000000000E+00  0.00000000000E+00  0.40000000000E+02  0.40000000000E+02  0.00000000000E+00 0.  1.
        -11   -1    0    0    0    0 -0.00000000000E+00 -0.00000000000E+00 -0.40000000000E+02  0.40000000000E+02  0.00000000000E+00 0. -1.
         23    2    1    2    0    0  0.00000000000E+00  0.00000000000E+00  0.00000000000E+00  0.80000000000E+02  0.80000000000E+02 0.  0.
          5    1    3    3  501    0 -0.21212632588E+02 -0.20145088369E+02 -0.26872097672E+02  0.40000000000E+02  0.47000000000E+01 0. -1.
         -5    1    3    3    0  501  0.21212632588E+02  0.20145088369E+02  0.26872097672E+02  0.40000000000E+02  0.47000000000E+01 0.  1.
</event>
<event>
 5    1  0.4781763E-001  0.8000000E+02  0.7546771E-02  0.1203772E+00
         11   -1    0    0    0    0  0.00000000000E+00  0.00000000000E+00  0.40000000000E+02  0.40000000000E+02  0.00000000000E+00 0. -1.
        -11   -1    0    0    0    0 -0.00000000000E+00 -0.00000000000E+00 -0.40000000000E+02  0.40000000000E+02  0.00000000000E+00 0.  1.
         23    2    1    2    0    0  0.00000000000E+00  0.00000000000E+00  0.00000000000E+00  0.80000000000E+02  0.80000000000E+02 0.  0.
          5    1    3    3  501    0  0.57112061501E+01 -0.40745643971E+01  0.39098466073E+02  0.40000000000E+02  0.47000000000E+01 0. -1.
         -5    1    3    3    0  501 -0.57112061501E+01  0.40745643971E+01 -0.39098466073E+02  0.40000000000E+02  0.47000000000E+01 0.  1.
</event>
<event>
 5    1  0.4781763E-001  0.8000000E+02  0.7546771E-02  0.1203772E+00
         11   -1    0    0    0    0  0.00000000000E+00  0.00000000000E+00  0.40000000000E+02  0.40000000000E+02  0.00000000000E+00 0.  1.
        -11   -1    0    0    0    0 -0.00000000000E+00 -0.00000000000E+00 -0.40000000000E+02  0.40000000000E+02  0.00000000000E+00 0. -1.
         23    2    1    2    0    0  0.00000000000E+00  0.00000000000E+00  0.00000000000E+00  0.80000000000E+02  0.80000000000E+02 0.  0.
          5    1    3    3  501    0  0.24809267276E+02  0.10801323540E+02 -0.29081637970E+02  0.40000000000E+02  0.47000000000E+01 0. -1.
         -5    1    3    3    0  501 -0.24809267276E+02 -0.10801323540E+02  0.29081637970E+02  0.40000000000E+02  0.47000000000E+01 0.  1.
</event>
<event>
 5    1  0.4781763E-001  0.8000000E+02  0.7546771E-02  0.1203772E+00
         11   -1    0    0    0    0  0.00000000000E+00  0.00000000000E+00  0.40000000000E+02  0.40000000000E+02  0.00000000000E+00 0.  1.
        -11   -1    0    0    0    0 -0.00000000000E+00 -0.00000000000E+00 -0.40000000000E+02  0.40000000000E+02  0.00000000000E+00 0. -1.
         23    2    1    2    0    0  0.00000000000E+00  0.00000000000E+00  0.00000000000E+00  0.80000000000E+02  0.80000000000E+02 0.  0.
          5    1    3    3  501    0  0.18362682921E+02  0.32471721449E+02  0.13649512155E+02  0.40000000000E+02  0.47000000000E+01 0. -1.
         -5    1    3    3    0  501 -0.18362682921E+02 -0.32471721449E+02 -0.13649512155E+02  0.40000000000E+02  0.47000000000E+01 0.  1.
</event>
<event>
 5    1  0.4781763E-001  0.8000000E+02  0.7546771E-02  0.1203772E+00
         11   -1    0    0    0    0  0.00000000000E+00  0.00000000000E+00  0.40000000000E+02  0.40000000000E+02  0.00000000000E+00 0.  1.
        -11   -1    0    0    0    0 -0.00000000000E+00 -0.00000000000E+00 -0.40000000000E+02  0.40000000000E+02  0.00000000000E+00 0. -1.
         23    2    1    2    0    0  0.00000000000E+00  0.00000000000E+00  0.00000000000E+00  0.80000000000E+02  0.80000000000E+02 0.  0.
          5    1    3    3  501    0 -0.16775284972E+02  0.35232980234E+02 -0.74254237560E+01  0.40000000000E+02  0.47000000000E+01 0. -1.
         -5    1    3    3    0  501  0.16775284972E+02 -0.35232980234E+02  0.74254237560E+01  0.40000000000E+02  0.47000000000E+01 0.  1.
</event>
<event>
 5    1  0.4781763E-001  0.8000000E+02  0.7546771E-02  0.1203772E+00
         11   -1    0    0    0    0  0.00000000000E+00  0.00000000000E+00  0.40000000000E+02  0.40000000000E+02  0.00000000000E+00 0.  1.
        -11   -1    0    0    0    0 -0.00000000000E+00 -0.00000000000E+00 -0.40000000000E+02  0.40000000000E+02  0.00000000000E+00 0. -1.
         23    2    1    2    0    0  0.00000000000E+00  0.00000000000E+00  0.00000000000E+00  0.80000000000E+02  0.80000000000E+02 0.  0.
          5    1    3    3  501    0  0.11718734979E+02 -0.31639249293E+02 -0.20965189116E+02  0.40000000000E+02  0.47000000000E+01 0. -1.
         -5    1    3    3    0  501 -0.11718734979E+02  0.31639249293E+02  0.20965189116E+02  0.40000000000E+02  0.47000000000E+01 0.  1.
</event>
<event>
 5    1  0.4781763E-001  0.8000000E+02  0.7546771E-02  0.1203772E+00
         11   -1    0    0    0    0  0.00000000000E+00  0.00000000000E+00  0.40000000000E+02  0.40000000000E+02  0.00000000000E+00 0. -1.
        -11   -1    0    0    0    0 -0.00000000000E+00 -0.00000000000E+00 -0.40000000000E+02  0.40000000000E+02  0.00000000000E+00 0.  1.
         23    2    1    2    0    0  0.00000000000E+00  0.00000000000E+00  0.00000000000E+00  0.80000000000E+02  0.80000000000E+02 0.  0.
          5    1    3    3  501    0 -0.29651039294E+02  0.25614771377E+02  0.65275842468E+01  0.40000000000E+02  0.47000000000E+01 0. -1.
         -5    1    3    3    0  501  0.29651039294E+02 -0.25614771377E+02 -0.65275842468E+01  0.40000000000E+02  0.47000000000E+01 0.  1.
</event>
<event>
 5    1  0.4781763E-001  0.8000000E+02  0.7546771E-02  0.1203772E+00
         11   -1    0    0    0    0  0.00000000000E+00  0.00000000000E+00  0.40000000000E+02  0.40000000000E+02  0.00000000000E+00 0. -1.
        -11   -1    0    0    0    0 -0.00000000000E+00 -0.00000000000E+00 -0.40000000000E+02  0.40000000000E+02  0.00000000000E+00 0.  1.
         23    2    1    2    0    0  0.00000000000E+00  0.00000000000E+00  0.00000000000E+00  0.80000000000E+02  0.80000000000E+02 0.  0.
          5    1    3    3  501    0 -0.29797433442E+02  0.25375096887E+02 -0.67917168870E+01  0.40000000000E+02  0.47000000000E+01 0. -1.
         -5    1    3    3    0  501  0.29797433442E+02 -0.25375096887E+02  0.67917168870E+01  0.40000000000E+02  0.47000000000E+01 0.  1.
</event>
<event>
 5    1  0.4781763E-001  0.8000000E+02  0.7546771E-02  0.1203772E+00
         11   -1    0    0    0    0  0.00000000000E+00  0.00000000000E+00  0.40000000000E+02  0.40000000000E+02  0.00000000000E+00 0.  1.
        -11   -1    0    0    0    0 -0.00000000000E+00 -0.00000000000E+00 -0.40000000000E+02  0.40000000000E+02  0.00000000000E+00 0. -1.
         23    2    1    2    0    0  0.00000000000E+00  0.00000000000E+00  0.00000000000E+00  0.80000000000E+02  0.80000000000E+02 0.  0.
          5    1    3    3  501    0 -0.25057474215E+02 -0.10665602961E+02 -0.28918469867E+02  0.40000000000E+02  0.47000000000E+01 0. -1.
         -5    1    3    3    0  501  0.25057474215E+02  0.10665602961E+02  0.28918469867E+02  0.40000000000E+02  0.47000000000E+01 0.  1.
</event>
<event>
 5    1  0.4781763E-001  0.8000000E+02  0.7546771E-02  0.1203772E+00
         11   -1    0    0    0    0  0.00000000000E+00  0.00000000000E+00  0.40000000000E+02  0.40000000000E+02  0.00000000000E+00 0. -1.
        -11   -1    0    0    0    0 -0.00000000000E+00 -0.00000000000E+00 -0.40000000000E+02  0.40000000000E+02  0.00000000000E+00 0.  1.
         23    2    1    2    0    0  0.00000000000E+00  0.00000000000E+00  0.00000000000E+00  0.80000000000E+02  0.80000000000E+02 0.  0.
          5    1    3    3  501    0 -0.25545968215E+02 -0.11195333620E+02  0.28283882568E+02  0.40000000000E+02  0.47000000000E+01 0. -1.
         -5    1    3    3    0  501  0.25545968215E+02  0.11195333620E+02 -0.28283882568E+02  0.40000000000E+02  0.47000000000E+01 0.  1.
</event>
<event>
 5    1  0.4781763E-001  0.8000000E+02  0.7546771E-02  0.1203772E+00
         11   -1    0    0    0    0  0.00000000000E+00  0.00000000000E+00  0.40000000000E+02  0.40000000000E+02  0.00000000000E+00 0.  1.
        -11   -1    0    0    0    0 -0.00000000000E+00 -0.00000000000E+00 -0.40000000000E+02  0.40000000000E+02  0.00000000000E+00 0. -1.
         23    2    1    2    0    0  0.00000000000E+00  0.00000000000E+00  0.00000000000E+00  0.80000000000E+02  0.80000000000E+02 0.  0.
          5    1    3    3  501    0  0.28661324759E+02  0.22209774850E+02 -0.16222341513E+02  0.40000000000E+02  0.47000000000E+01 0. -1.
         -5    1    3    3    0  501 -0.28661324759E+02 -0.22209774850E+02  0.16222341513E+02  0.40000000000E+02  0.47000000000E+01 0.  1.
</event>
<event>
 5    1  0.4781763E-001  0.8000000E+02  0.7546771E-02  0.1203772E+00
         11   -1    0    0    0    0  0.00000000000E+00  0.00000000000E+00  0.40000000000E+02  0.40000000000E+02  0.00000000000E+00 0.  1.
        -11   -1    0    0    0    0 -0.00000000000E+00 -0.00000000000E+00 -0.40000000000E+02  0.40000000000E+02  0.00000000000E+00 0. -1.
         23    2    1    2    0    0  0.00000000000E+00  0.00000000000E+00  0.00000000000E+00  0.80000000000E+02  0.80000000000E+02 0.  0.
          5    1    3    3  501    0  0.20204134721E+01 -0.11401341020E+02 -0.37997859839E+02  0.40000000000E+02  0.47000000000E+01 0. -1.
         -5    1    3    3    0  501 -0.20204134721E+01  0.11401341020E+02  0.37997859839E+02  0.40000000000E+02  0.47000000000E+01 0.  1.
</event>
<event>
 5    1  0.4781763E-001  0.8000000E+02  0.7546771E-02  0.1203772E+00
         11   -1    0    0    0    0  0.00000000000E+00  0.00000000000E+00  0.40000000000E+02  0.40000000000E+02  0.00000000000E+00 0. -1.
        -11   -1    0    0    0    0 -0.00000000000E+00 -0.00000000000E+00 -0.40000000000E+02  0.40000000000E+02  0.00000000000E+00 0.  1.
         23    2    1    2    0    0  0.00000000000E+00  0.00000000000E+00  0.00000000000E+00  0.80000000000E+02  0.80000000000E+02 0.  0.
          5    1    3    3  501    0  0.23648299576E+02  0.31183659599E+01  0.31763874463E+02  0.40000000000E+02  0.47000000000E+01 0. -1.
         -5    1    3    3    0  501 -0.23648299576E+02 -0.31183659599E+01 -0.31763874463E+02  0.40000000000E+02  0.47000000000E+01 0.  1.
</event>
<event>
 5    1  0.4781763E-001  0.8000000E+02  0.7546771E-02  0.1203772E+00
         11   -1    0    0    0    0  0.00000000000E+00  0.00000000000E+00  0.40000000000E+02  0.40000000000E+02  0.00000000000E+00 0. -1.
        -11   -1    0    0    0    0 -0.00000000000E+00 -0.00000000000E+00 -0.40000000000E+02  0.40000000000E+02  0.00000000000E+00 0.  1.
         23    2    1    2    0    0  0.00000000000E+00  0.00000000000E+00  0.00000000000E+00  0.80000000000E+02  0.80000000000E+02 0.  0.
          5    1    3    3  501    0 -0.34026311534E+02 -0.76677474316E+01  0.19008571033E+02  0.40000000000E+02  0.47000000000E+01 0. -1.
         -5    1    3    3    0  501  0.34026311534E+02  0.76677474316E+01 -0.19008571033E+02  0.40000000000E+02  0.47000000000E+01 0.  1.
</event>
<event>
 5    1  0.4781763E-001  0.8000000E+02  0.7546771E-02  0.1203772E+00
         11   -1    0    0    0    0  0.00000000000E+00  0.00000000000E+00  0.40000000000E+02  0.40000000000E+02  0.00000000000E+00 0.  1.
        -11   -1    0    0    0    0 -0.00000000000E+00 -0.00000000000E+00 -0.40000000000E+02  0.40000000000E+02  0.00000000000E+00 0. -1.
         23    2    1    2    0    0  0.00000000000E+00  0.00000000000E+00  0.00000000000E+00  0.80000000000E+02  0.80000000000E+02 0.  0.
          5    1    3    3  501    0 -0.39365253099E+02 -0.36510535571E+01 -0.38673836613E+01  0.40000000000E+02  0.47000000000E+01 0. -1.
         -5    1    3    3    0  501  0.39365253099E+02  0.36510535571E+01  0.38673836613E+01  0.40000000000E+02  0.47000000000E+01 0.  1.
</event>
<event>
 5    1  0.4781763E-001  0.8000000E+02  0.7546771E-02  0.1203772E+00
         11   -1    0    0    0    0  0.00000000000E+00  0.00000000000E+00  0.40000000000E+02  0.40000000000E+02  0.00000000000E+00 0.  1.
        -11   -1    0    0    0    0 -0.00000000000E+00 -0.00000000000E+00 -0.40000000000E+02  0.40000000000E+02  0.00000000000E+00 0. -1.
         23    2    1    2    0    0  0.00000000000E+00  0.00000000000E+00  0.00000000000E+00  0.80000000000E+02  0.80000000000E+02 0.  0.
          5    1    3    3  501    0 -0.23141923883E+02  0.12922433656E+02 -0.29586687334E+02  0.40000000000E+02  0.47000000000E+01 0. -1.
         -5    1    3    3    0  501  0.23141923883E+02 -0.12922433656E+02  0.29586687334E+02  0.40000000000E+02  0.47000000000E+01 0.  1.
</event>
<event>
 5    1  0.4781763E-001  0.8000000E+02  0.7546771E-02  0.1203772E+00
         11   -1    0    0    0    0  0.00000000000E+00  0.00000000000E+00  0.40000000000E+02  0.40000000000E+02  0.00000000000E+00 0. -1.
        -11   -1    0    0    0    0 -0.00000000000E+00 -0.00000000000E+00 -0.40000000000E+02  0.40000000000E+02  0.00000000000E+00 0.  1.
         23    2    1    2    0    0  0.00000000000E+00  0.00000000000E+00  0.00000000000E+00  0.80000000000E+02  0.80000000000E+02 0.  0.
          5    1    3    3  501    0  0.15391222640E+02 -0.19845877456E+02  0.30775987614E+02  0.40000000000E+02  0.47000000000E+01 0. -1.
         -5    1    3    3    0  501 -0.15391222640E+02  0.19845877456E+02 -0.30775987614E+02  0.40000000000E+02  0.47000000000E+01 0.  1.
</event>
<event>
 5    1  0.4781763E-001  0.8000000E+02  0.7546771E-02  0.1203772E+00
         11   -1    0    0    0    0  0.00000000000E+00  0.00000000000E+00  0.40000000000E+02  0.40000000000E+02  0.00000000000E+00 0.  1.
        -11   -1    0    0    0    0 -0.00000000000E+00 -0.00000000000E+00 -0.40000000000E+02  0.40000000000E+02  0.00000000000E+00 0. -1.
         23    2    1    2    0    0  0.00000000000E+00  0.00000000000E+00  0.00000000000E+00  0.80000000000E+02  0.80000000000E+02 0.  0.
          5    1    3    3  501    0  0.25797616131E+02  0.49058049394E+01 -0.29804799611E+02  0.40000000000E+02  0.47000000000E+01 0. -1.
         -5    1    3    3    0  501 -0.25797616131E+02 -0.49058049394E+01  0.29804799611E+02  0.40000000000E+02  0.47000000000E+01 0.  1.
</event>
<event>
 5    1  0.4781763E-001  0.8000000E+02  0.7546771E-02  0.1203772E+00
         11   -1    0    0    0    0  0.00000000000E+00  0.00000000000E+00  0.40000000000E+02  0.40000000000E+02  0.00000000000E+00 0. -1.
        -11   -1    0    0    0    0 -0.00000000000E+00 -0.00000000000E+00 -0.40000000000E+02  0.40000000000E+02  0.00000000000E+00 0.  1.
         23    2    1    2    0    0  0.00000000000E+00  0.00000000000E+00  0.00000000000E+00  0.80000000000E+02  0.80000000000E+02 0.  0.
          5    1    3    3  501    0 -0.23658151790E+02  0.28860004657E+02  0.13612567176E+02  0.40000000000E+02  0.47000000000E+01 0. -1.
         -5    1    3    3    0  501  0.23658151790E+02 -0.28860004657E+02 -0.13612567176E+02  0.40000000000E+02  0.47000000000E+01 0.  1.
</event>
<event>
 5    1  0.4781763E-001  0.8000000E+02  0.7546771E-02  0.1203772E+00
         11   -1    0    0    0    0  0.00000000000E+00  0.00000000000E+00  0.40000000000E+02  0.40000000000E+02  0.00000000000E+00 0.  1.
        -11   -1    0    0    0    0 -0.00000000000E+00 -0.00000000000E+00 -0.40000000000E+02  0.40000000000E+02  0.00000000000E+00 0. -1.
         23    2    1    2    0    0  0.00000000000E+00  0.00000000000E+00  0.00000000000E+00  0.80000000000E+02  0.80000000000E+02 0.  0.
          5    1    3    3  501    0 -0.10626720876E+02  0.20332839686E+02 -0.32427741731E+02  0.40000000000E+02  0.47000000000E+01 0. -1.
         -5    1    3    3    0  501  0.10626720876E+02 -0.20332839686E+02  0.32427741731E+02  0.40000000000E+02  0.47000000000E+01 0.  1.
</event>
<event>
 5    1  0.4781763E-001  0.8000000E+02  0.7546771E-02  0.1203772E+00
         11   -1    0    0    0    0  0.00000000000E+00  0.00000000000E+00  0.40000000000E+02  0.40000000000E+02  0.00000000000E+00 0.  1.
        -11   -1    0    0    0    0 -0.00000000000E+00 -0.00000000000E+00 -0.40000000000E+02  0.40000000000E+02  0.00000000000E+00 0. -1.
         23    2    1    2    0    0  0.00000000000E+00  0.00000000000E+00  0.00000000000E+00  0.80000000000E+02  0.80000000000E+02 0.  0.
          5    1    3    3  501    0 -0.17633974431E+02  0.33539595984E+02 -0.11918407904E+02  0.40000000000E+02  0.47000000000E+01 0. -1.
         -5    1    3    3    0  501  0.17633974431E+02 -0.33539595984E+02  0.11918407904E+02  0.40000000000E+02  0.47000000000E+01 0.  1.
</event>
<event>
 5    1  0.4781763E-001  0.8000000E+02  0.7546771E-02  0.1203772E+00
         11   -1    0    0    0    0  0.00000000000E+00  0.00000000000E+00  0.40000000000E+02  0.40000000000E+02  0.00000000000E+00 0. -1.
        -11   -1    0    0    0    0 -0.00000000000E+00 -0.00000000000E+00 -0.40000000000E+02  0.40000000000E+02  0.00000000000E+00 0.  1.
         23    2    1    2    0    0  0.00000000000E+00  0.00000000000E+00  0.00000000000E+00  0.80000000000E+02  0.80000000000E+02 0.  0.
          5    1    3    3  501    0  0.61730028903E+01  0.25910397746E+01  0.39154700206E+02  0.40000000000E+02  0.47000000000E+01 0. -1.
         -5    1    3    3    0  501 -0.61730028903E+01 -0.25910397746E+01 -0.39154700206E+02  0.40000000000E+02  0.47000000000E+01 0.  1.
</event>
<event>
 5    1  0.4781763E-001  0.8000000E+02  0.7546771E-02  0.1203772E+00
         11   -1    0    0    0    0  0.00000000000E+00  0.00000000000E+00  0.40000000000E+02  0.40000000000E+02  0.00000000000E+00 0. -1.
        -11   -1    0    0    0    0 -0.00000000000E+00 -0.00000000000E+00 -0.40000000000E+02  0.40000000000E+02  0.00000000000E+00 0.  1.
         23    2    1    2    0    0  0.00000000000E+00  0.00000000000E+00  0.00000000000E+00  0.80000000000E+02  0.80000000000E+02 0.  0.
          5    1    3    3  501    0  0.21321538436E+02 -0.29033989567E+02  0.16743041795E+02  0.40000000000E+02  0.47000000000E+01 0. -1.
         -5    1    3    3    0  501 -0.21321538436E+02  0.29033989567E+02 -0.16743041795E+02  0.40000000000E+02  0.47000000000E+01 0.  1.
</event>
<event>
 5    1  0.4781763E-001  0.8000000E+02  0.7546771E-02  0.1203772E+00
         11   -1    0    0    0    0  0.00000000000E+00  0.00000000000E+00  0.40000000000E+02  0.40000000000E+02  0.00000000000E+00 0. -1.
        -11   -1    0    0    0    0 -0.00000000000E+00 -0.00000000000E+00 -0.40000000000E+02  0.40000000000E+02  0.00000000000E+00 0.  1.
         23    2    1    2    0    0  0.00000000000E+00  0.00000000000E+00  0.00000000000E+00  0.80000000000E+02  0.80000000000E+02 0.  0.
          5    1    3    3  501    0 -0.94993976442E+01 -0.26122738421E+02 -0.28377349802E+02  0.40000000000E+02  0.47000000000E+01 0.  1.
         -5    1    3    3    0  501  0.94993976442E+01  0.26122738421E+02  0.28377349802E+02  0.40000000000E+02  0.47000000000E+01 0. -1.
</event>
<event>
 5    1  0.4781763E-001  0.8000000E+02  0.7546771E-02  0.1203772E+00
         11   -1    0    0    0    0  0.00000000000E+00  0.00000000000E+00  0.40000000000E+02  0.40000000000E+02  0.00000000000E+00 0. -1.
        -11   -1    0    0    0    0 -0.00000000000E+00 -0.00000000000E+00 -0.40000000000E+02  0.40000000000E+02  0.00000000000E+00 0.  1.
         23    2    1    2    0    0  0.00000000000E+00  0.00000000000E+00  0.00000000000E+00  0.80000000000E+02  0.80000000000E+02 0.  0.
          5    1    3    3  501    0 -0.38482606849E+02 -0.87543385826E+01 -0.45122639660E+01  0.40000000000E+02  0.47000000000E+01 0. -1.
         -5    1    3    3    0  501  0.38482606849E+02  0.87543385826E+01  0.45122639660E+01  0.40000000000E+02  0.47000000000E+01 0.  1.
</event>
<event>
 5    1  0.4781763E-001  0.8000000E+02  0.7546771E-02  0.1203772E+00
         11   -1    0    0    0    0  0.00000000000E+00  0.00000000000E+00  0.40000000000E+02  0.40000000000E+02  0.00000000000E+00 0. -1.
        -11   -1    0    0    0    0 -0.00000000000E+00 -0.00000000000E+00 -0.40000000000E+02  0.40000000000E+02  0.00000000000E+00 0.  1.
         23    2    1    2    0    0  0.00000000000E+00  0.00000000000E+00  0.00000000000E+00  0.80000000000E+02  0.80000000000E+02 0.  0.
          5    1    3    3  501    0 -0.29328920501E+02  0.23822150272E+02  0.12256817640E+02  0.40000000000E+02  0.47000000000E+01 0. -1.
         -5    1    3    3    0  501  0.29328920501E+02 -0.23822150272E+02 -0.12256817640E+02  0.40000000000E+02  0.47000000000E+01 0.  1.
</event>
<event>
 5    1  0.4781763E-001  0.8000000E+02  0.7546771E-02  0.1203772E+00
         11   -1    0    0    0    0  0.00000000000E+00  0.00000000000E+00  0.40000000000E+02  0.40000000000E+02  0.00000000000E+00 0. -1.
        -11   -1    0    0    0    0 -0.00000000000E+00 -0.00000000000E+00 -0.40000000000E+02  0.40000000000E+02  0.00000000000E+00 0.  1.
         23    2    1    2    0    0  0.00000000000E+00  0.00000000000E+00  0.00000000000E+00  0.80000000000E+02  0.80000000000E+02 0.  0.
          5    1    3    3  501    0  0.58875098907E+01 -0.22831498455E+02  0.31968264038E+02  0.40000000000E+02  0.47000000000E+01 0. -1.
         -5    1    3    3    0  501 -0.58875098907E+01  0.22831498455E+02 -0.31968264038E+02  0.40000000000E+02  0.47000000000E+01 0.  1.
</event>
<event>
 5    1  0.4781763E-001  0.8000000E+02  0.7546771E-02  0.1203772E+00
         11   -1    0    0    0    0  0.00000000000E+00  0.00000000000E+00  0.40000000000E+02  0.40000000000E+02  0.00000000000E+00 0. -1.
        -11   -1    0    0    0    0 -0.00000000000E+00 -0.00000000000E+00 -0.40000000000E+02  0.40000000000E+02  0.00000000000E+00 0.  1.
         23    2    1    2    0    0  0.00000000000E+00  0.00000000000E+00  0.00000000000E+00  0.80000000000E+02  0.80000000000E+02 0.  0.
          5    1    3    3  501    0  0.65076986416E+01 -0.39186207428E+02 -0.31714383618E-01  0.40000000000E+02  0.47000000000E+01 0. -1.
         -5    1    3    3    0  501 -0.65076986416E+01  0.39186207428E+02  0.31714383618E-01  0.40000000000E+02  0.47000000000E+01 0.  1.
</event>
<event>
 5    1  0.4781763E-001  0.8000000E+02  0.7546771E-02  0.1203772E+00
         11   -1    0    0    0    0  0.00000000000E+00  0.00000000000E+00  0.40000000000E+02  0.40000000000E+02  0.00000000000E+00 0.  1.
        -11   -1    0    0    0    0 -0.00000000000E+00 -0.00000000000E+00 -0.40000000000E+02  0.40000000000E+02  0.00000000000E+00 0. -1.
         23    2    1    2    0    0  0.00000000000E+00  0.00000000000E+00  0.00000000000E+00  0.80000000000E+02  0.80000000000E+02 0.  0.
          5    1    3    3  501    0 -0.26967128496E+02  0.71400669922E+01 -0.28279027989E+02  0.40000000000E+02  0.47000000000E+01 0. -1.
         -5    1    3    3    0  501  0.26967128496E+02 -0.71400669922E+01  0.28279027989E+02  0.40000000000E+02  0.47000000000E+01 0.  1.
</event>
<event>
 5    1  0.4781763E-001  0.8000000E+02  0.7546771E-02  0.1203772E+00
         11   -1    0    0    0    0  0.00000000000E+00  0.00000000000E+00  0.40000000000E+02  0.40000000000E+02  0.00000000000E+00 0. -1.
        -11   -1    0    0    0    0 -0.00000000000E+00 -0.00000000000E+00 -0.40000000000E+02  0.40000000000E+02  0.00000000000E+00 0.  1.
         23    2    1    2    0    0  0.00000000000E+00  0.00000000000E+00  0.00000000000E+00  0.80000000000E+02  0.80000000000E+02 0.  0.
          5    1    3    3  501    0 -0.29606052817E+02  0.22059455991E+02  0.14655102798E+02  0.40000000000E+02  0.47000000000E+01 0. -1.
         -5    1    3    3    0  501  0.29606052817E+02 -0.22059455991E+02 -0.14655102798E+02  0.40000000000E+02  0.47000000000E+01 0.  1.
</event>
<event>
 5    1  0.4781763E-001  0.8000000E+02  0.7546771E-02  0.1203772E+00
         11   -1    0    0    0    0  0.00000000000E+00  0.00000000000E+00  0.40000000000E+02  0.40000000000E+02  0.00000000000E+00 0. -1.
        -11   -1    0    0    0    0 -0.00000000000E+00 -0.00000000000E+00 -0.40000000000E+02  0.40000000000E+02  0.00000000000E+00 0.  1.
         23    2    1    2    0    0  0.00000000000E+00  0.00000000000E+00  0.00000000000E+00  0.80000000000E+02  0.80000000000E+02 0.  0.
          5    1    3    3  501    0  0.30145732561E+02  0.10490468095E+02  0.23645187406E+02  0.40000000000E+02  0.47000000000E+01 0. -1.
         -5    1    3    3    0  501 -0.30145732561E+02 -0.10490468095E+02 -0.23645187406E+02  0.40000000000E+02  0.47000000000E+01 0.  1.
</event>
<event>
 5    1  0.4781763E-001  0.8000000E+02  0.7546771E-02  0.1203772E+00
         11   -1    0    0    0    0  0.00000000000E+00  0.00000000000E+00  0.40000000000E+02  0.40000000000E+02  0.00000000000E+00 0. -1.
        -11   -1    0    0    0    0 -0.00000000000E+00 -0.00000000000E+00 -0.40000000000E+02  0.40000000000E+02  0.00000000000E+00 0.  1.
         23    2    1    2    0    0  0.00000000000E+00  0.00000000000E+00  0.00000000000E+00  0.80000000000E+02  0.80000000000E+02 0.  0.
          5    1    3    3  501    0 -0.10305281231E+01  0.39465458977E+02  0.43960845676E+01  0.40000000000E+02  0.47000000000E+01 0. -1.
         -5    1    3    3    0  501  0.10305281231E+01 -0.39465458977E+02 -0.43960845676E+01  0.40000000000E+02  0.47000000000E+01 0.  1.
</event>
<event>
 5    1  0.4781763E-001  0.8000000E+02  0.7546771E-02  0.1203772E+00
         11   -1    0    0    0    0  0.00000000000E+00  0.00000000000E+00  0.40000000000E+02  0.40000000000E+02  0.00000000000E+00 0.  1.
        -11   -1    0    0    0    0 -0.00000000000E+00 -0.00000000000E+00 -0.40000000000E+02  0.40000000000E+02  0.00000000000E+00 0. -1.
         23    2    1    2    0    0  0.00000000000E+00  0.00000000000E+00  0.00000000000E+00  0.80000000000E+02  0.80000000000E+02 0.  0.
          5    1    3    3  501    0  0.35378958472E+02  0.13372975818E+02 -0.12140956107E+02  0.40000000000E+02  0.47000000000E+01 0. -1.
         -5    1    3    3    0  501 -0.35378958472E+02 -0.13372975818E+02  0.12140956107E+02  0.40000000000E+02  0.47000000000E+01 0.  1.
</event>
<event>
 5    1  0.4781763E-001  0.8000000E+02  0.7546771E-02  0.1203772E+00
         11   -1    0    0    0    0  0.00000000000E+00  0.00000000000E+00  0.40000000000E+02  0.40000000000E+02  0.00000000000E+00 0.  1.
        -11   -1    0    0    0    0 -0.00000000000E+00 -0.00000000000E+00 -0.40000000000E+02  0.40000000000E+02  0.00000000000E+00 0. -1.
         23    2    1    2    0    0  0.00000000000E+00  0.00000000000E+00  0.00000000000E+00  0.80000000000E+02  0.80000000000E+02 0.  0.
          5    1    3    3  501    0  0.20883892149E+02  0.27823147600E+02  0.19174084238E+02  0.40000000000E+02  0.47000000000E+01 0. -1.
         -5    1    3    3    0  501 -0.20883892149E+02 -0.27823147600E+02 -0.19174084238E+02  0.40000000000E+02  0.47000000000E+01 0.  1.
</event>
<event>
 5    1  0.4781763E-001  0.8000000E+02  0.7546771E-02  0.1203772E+00
         11   -1    0    0    0    0  0.00000000000E+00  0.00000000000E+00  0.40000000000E+02  0.40000000000E+02  0.00000000000E+00 0.  1.
        -11   -1    0    0    0    0 -0.00000000000E+00 -0.00000000000E+00 -0.40000000000E+02  0.40000000000E+02  0.00000000000E+00 0. -1.
         23    2    1    2    0    0  0.00000000000E+00  0.00000000000E+00  0.00000000000E+00  0.80000000000E+02  0.80000000000E+02 0.  0.
          5    1    3    3  501    0 -0.11907689293E+02 -0.22088035972E+02 -0.30793434407E+02  0.40000000000E+02  0.47000000000E+01 0. -1.
         -5    1    3    3    0  501  0.11907689293E+02  0.22088035972E+02  0.30793434407E+02  0.40000000000E+02  0.47000000000E+01 0.  1.
</event>
<event>
 5    1  0.4781763E-001  0.8000000E+02  0.7546771E-02  0.1203772E+00
         11   -1    0    0    0    0  0.00000000000E+00  0.00000000000E+00  0.40000000000E+02  0.40000000000E+02  0.00000000000E+00 0.  1.
        -11   -1    0    0    0    0 -0.00000000000E+00 -0.00000000000E+00 -0.40000000000E+02  0.40000000000E+02  0.00000000000E+00 0. -1.
         23    2    1    2    0    0  0.00000000000E+00  0.00000000000E+00  0.00000000000E+00  0.80000000000E+02  0.80000000000E+02 0.  0.
          5    1    3    3  501    0  0.10725488947E+02  0.15363749280E+02 -0.35026120181E+02  0.40000000000E+02  0.47000000000E+01 0. -1.
         -5    1    3    3    0  501 -0.10725488947E+02 -0.15363749280E+02  0.35026120181E+02  0.40000000000E+02  0.47000000000E+01 0.  1.
</event>
<event>
 5    1  0.4781763E-001  0.8000000E+02  0.7546771E-02  0.1203772E+00
         11   -1    0    0    0    0  0.00000000000E+00  0.00000000000E+00  0.40000000000E+02  0.40000000000E+02  0.00000000000E+00 0. -1.
        -11   -1    0    0    0    0 -0.00000000000E+00 -0.00000000000E+00 -0.40000000000E+02  0.40000000000E+02  0.00000000000E+00 0.  1.
         23    2    1    2    0    0  0.00000000000E+00  0.00000000000E+00  0.00000000000E+00  0.80000000000E+02  0.80000000000E+02 0.  0.
          5    1    3    3  501    0  0.24779595026E+02 -0.61453322697E+01  0.30432163275E+02  0.40000000000E+02  0.47000000000E+01 0. -1.
         -5    1    3    3    0  501 -0.24779595026E+02  0.61453322697E+01 -0.30432163275E+02  0.40000000000E+02  0.47000000000E+01 0.  1.
</event>
<event>
 5    1  0.4781763E-001  0.8000000E+02  0.7546771E-02  0.1203772E+00
         11   -1    0    0    0    0  0.00000000000E+00  0.00000000000E+00  0.40000000000E+02  0.40000000000E+02  0.00000000000E+00 0. -1.
        -11   -1    0    0    0    0 -0.00000000000E+00 -0.00000000000E+00 -0.40000000000E+02  0.40000000000E+02  0.00000000000E+00 0.  1.
         23    2    1    2    0    0  0.00000000000E+00  0.00000000000E+00  0.00000000000E+00  0.80000000000E+02  0.80000000000E+02 0.  0.
          5    1    3    3  501    0 -0.11824754931E+02 -0.19204642801E+02  0.32699646263E+02  0.40000000000E+02  0.47000000000E+01 0. -1.
         -5    1    3    3    0  501  0.11824754931E+02  0.19204642801E+02 -0.32699646263E+02  0.40000000000E+02  0.47000000000E+01 0.  1.
</event>
<event>
 5    1  0.4781763E-001  0.8000000E+02  0.7546771E-02  0.1203772E+00
         11   -1    0    0    0    0  0.00000000000E+00  0.00000000000E+00  0.40000000000E+02  0.40000000000E+02  0.00000000000E+00 0.  1.
        -11   -1    0    0    0    0 -0.00000000000E+00 -0.00000000000E+00 -0.40000000000E+02  0.40000000000E+02  0.00000000000E+00 0. -1.
         23    2    1    2    0    0  0.00000000000E+00  0.00000000000E+00  0.00000000000E+00  0.80000000000E+02  0.80000000000E+02 0.  0.
          5    1    3    3  501    0 -0.20968255809E+02  0.31757970233E+02 -0.11387430573E+02  0.40000000000E+02  0.47000000000E+01 0. -1.
         -5    1    3    3    0  501  0.20968255809E+02 -0.31757970233E+02  0.11387430573E+02  0.40000000000E+02  0.47000000000E+01 0.  1.
</event>
<event>
 5    1  0.4781763E-001  0.8000000E+02  0.7546771E-02  0.1203772E+00
         11   -1    0    0    0    0  0.00000000000E+00  0.00000000000E+00  0.40000000000E+02  0.40000000000E+02  0.00000000000E+00 0.  1.
        -11   -1    0    0    0    0 -0.00000000000E+00 -0.00000000000E+00 -0.40000000000E+02  0.40000000000E+02  0.00000000000E+00 0. -1.
         23    2    1    2    0    0  0.00000000000E+00  0.00000000000E+00  0.00000000000E+00  0.80000000000E+02  0.80000000000E+02 0.  0.
          5    1    3    3  501    0  0.37743742384E+02  0.12342271198E+02  0.99410889806E+00  0.40000000000E+02  0.47000000000E+01 0. -1.
         -5    1    3    3    0  501 -0.37743742384E+02 -0.12342271198E+02 -0.99410889806E+00  0.40000000000E+02  0.47000000000E+01 0.  1.
</event>
<event>
 5    1  0.4781763E-001  0.8000000E+02  0.7546771E-02  0.1203772E+00
         11   -1    0    0    0    0  0.00000000000E+00  0.00000000000E+00  0.40000000000E+02  0.40000000000E+02  0.00000000000E+00 0.  1.
        -11   -1    0    0    0    0 -0.00000000000E+00 -0.00000000000E+00 -0.40000000000E+02  0.40000000000E+02  0.00000000000E+00 0. -1.
         23    2    1    2    0    0  0.00000000000E+00  0.00000000000E+00  0.00000000000E+00  0.80000000000E+02  0.80000000000E+02 0.  0.
          5    1    3    3  501    0  0.65180754523E+01 -0.35400721430E+02 -0.16799214704E+02  0.40000000000E+02  0.47000000000E+01 0. -1.
         -5    1    3    3    0  501 -0.65180754523E+01  0.35400721430E+02  0.16799214704E+02  0.40000000000E+02  0.47000000000E+01 0.  1.
</event>
<event>
 5    1  0.4781763E-001  0.8000000E+02  0.7546771E-02  0.1203772E+00
         11   -1    0    0    0    0  0.00000000000E+00  0.00000000000E+00  0.40000000000E+02  0.40000000000E+02  0.00000000000E+00 0. -1.
        -11   -1    0    0    0    0 -0.00000000000E+00 -0.00000000000E+00 -0.40000000000E+02  0.40000000000E+02  0.00000000000E+00 0.  1.
         23    2    1    2    0    0  0.00000000000E+00  0.00000000000E+00  0.00000000000E+00  0.80000000000E+02  0.80000000000E+02 0.  0.
          5    1    3    3  501    0  0.22965848659E+02 -0.75317377417E+01 -0.31523843705E+02  0.40000000000E+02  0.47000000000E+01 0. -1.
         -5    1    3    3    0  501 -0.22965848659E+02  0.75317377417E+01  0.31523843705E+02  0.40000000000E+02  0.47000000000E+01 0.  1.
</event>
<event>
 5    1  0.4781763E-001  0.8000000E+02  0.7546771E-02  0.1203772E+00
         11   -1    0    0    0    0  0.00000000000E+00  0.00000000000E+00  0.40000000000E+02  0.40000000000E+02  0.00000000000E+00 0. -1.
        -11   -1    0    0    0    0 -0.00000000000E+00 -0.00000000000E+00 -0.40000000000E+02  0.40000000000E+02  0.00000000000E+00 0.  1.
         23    2    1    2    0    0  0.00000000000E+00  0.00000000000E+00  0.00000000000E+00  0.80000000000E+02  0.80000000000E+02 0.  0.
          5    1    3    3  501    0  0.19397184909E+02 -0.13442108829E+02  0.31952604399E+02  0.40000000000E+02  0.47000000000E+01 0. -1.
         -5    1    3    3    0  501 -0.19397184909E+02  0.13442108829E+02 -0.31952604399E+02  0.40000000000E+02  0.47000000000E+01 0.  1.
</event>
<event>
 5    1  0.4781763E-001  0.8000000E+02  0.7546771E-02  0.1203772E+00
         11   -1    0    0    0    0  0.00000000000E+00  0.00000000000E+00  0.40000000000E+02  0.40000000000E+02  0.00000000000E+00 0.  1.
        -11   -1    0    0    0    0 -0.00000000000E+00 -0.00000000000E+00 -0.40000000000E+02  0.40000000000E+02  0.00000000000E+00 0. -1.
         23    2    1    2    0    0  0.00000000000E+00  0.00000000000E+00  0.00000000000E+00  0.80000000000E+02  0.80000000000E+02 0.  0.
          5    1    3    3  501    0  0.38487443620E+02  0.25305391559E+01 -0.94985817438E+01  0.40000000000E+02  0.47000000000E+01 0. -1.
         -5    1    3    3    0  501 -0.38487443620E+02 -0.25305391559E+01  0.94985817438E+01  0.40000000000E+02  0.47000000000E+01 0.  1.
</event>
<event>
 5    1  0.4781763E-001  0.8000000E+02  0.7546771E-02  0.1203772E+00
         11   -1    0    0    0    0  0.00000000000E+00  0.00000000000E+00  0.40000000000E+02  0.40000000000E+02  0.00000000000E+00 0. -1.
        -11   -1    0    0    0    0 -0.00000000000E+00 -0.00000000000E+00 -0.40000000000E+02  0.40000000000E+02  0.00000000000E+00 0.  1.
         23    2    1    2    0    0  0.00000000000E+00  0.00000000000E+00  0.00000000000E+00  0.80000000000E+02  0.80000000000E+02 0.  0.
          5    1    3    3  501    0  0.12671636897E+01  0.12847282148E+02  0.37566629308E+02  0.40000000000E+02  0.47000000000E+01 0. -1.
         -5    1    3    3    0  501 -0.12671636897E+01 -0.12847282148E+02 -0.37566629308E+02  0.40000000000E+02  0.47000000000E+01 0.  1.
</event>
<event>
 5    1  0.4781763E-001  0.8000000E+02  0.7546771E-02  0.1203772E+00
         11   -1    0    0    0    0  0.00000000000E+00  0.00000000000E+00  0.40000000000E+02  0.40000000000E+02  0.00000000000E+00 0.  1.
        -11   -1    0    0    0    0 -0.00000000000E+00 -0.00000000000E+00 -0.40000000000E+02  0.40000000000E+02  0.00000000000E+00 0. -1.
         23    2    1    2    0    0  0.00000000000E+00  0.00000000000E+00  0.00000000000E+00  0.80000000000E+02  0.80000000000E+02 0.  0.
          5    1    3    3  501    0 -0.60417674861E+00 -0.13556728928E+01 -0.39695177559E+02  0.40000000000E+02  0.47000000000E+01 0. -1.
         -5    1    3    3    0  501  0.60417674861E+00  0.13556728928E+01  0.39695177559E+02  0.40000000000E+02  0.47000000000E+01 0.  1.
</event>
<event>
 5    1  0.4781763E-001  0.8000000E+02  0.7546771E-02  0.1203772E+00
         11   -1    0    0    0    0  0.00000000000E+00  0.00000000000E+00  0.40000000000E+02  0.40000000000E+02  0.00000000000E+00 0. -1.
        -11   -1    0    0    0    0 -0.00000000000E+00 -0.00000000000E+00 -0.40000000000E+02  0.40000000000E+02  0.00000000000E+00 0.  1.
         23    2    1    2    0    0  0.00000000000E+00  0.00000000000E+00  0.00000000000E+00  0.80000000000E+02  0.80000000000E+02 0.  0.
          5    1    3    3  501    0 -0.19972934660E+02 -0.33526706483E+02  0.74129503892E+01  0.40000000000E+02  0.47000000000E+01 0.  1.
         -5    1    3    3    0  501  0.19972934660E+02  0.33526706483E+02 -0.74129503892E+01  0.40000000000E+02  0.47000000000E+01 0. -1.
</event>
<event>
 5    1  0.4781763E-001  0.8000000E+02  0.7546771E-02  0.1203772E+00
         11   -1    0    0    0    0  0.00000000000E+00  0.00000000000E+00  0.40000000000E+02  0.40000000000E+02  0.00000000000E+00 0.  1.
        -11   -1    0    0    0    0 -0.00000000000E+00 -0.00000000000E+00 -0.40000000000E+02  0.40000000000E+02  0.00000000000E+00 0. -1.
         23    2    1    2    0    0  0.00000000000E+00  0.00000000000E+00  0.00000000000E+00  0.80000000000E+02  0.80000000000E+02 0.  0.
          5    1    3    3  501    0 -0.17343723828E+02  0.32253063902E+02  0.15389772992E+02  0.40000000000E+02  0.47000000000E+01 0. -1.
         -5    1    3    3    0  501  0.17343723828E+02 -0.32253063902E+02 -0.15389772992E+02  0.40000000000E+02  0.47000000000E+01 0.  1.
</event>
<event>
 5    1  0.4781763E-001  0.8000000E+02  0.7546771E-02  0.1203772E+00
         11   -1    0    0    0    0  0.00000000000E+00  0.00000000000E+00  0.40000000000E+02  0.40000000000E+02  0.00000000000E+00 0. -1.
        -11   -1    0    0    0    0 -0.00000000000E+00 -0.00000000000E+00 -0.40000000000E+02  0.40000000000E+02  0.00000000000E+00 0.  1.
         23    2    1    2    0    0  0.00000000000E+00  0.00000000000E+00  0.00000000000E+00  0.80000000000E+02  0.80000000000E+02 0.  0.
          5    1    3    3  501    0 -0.17229058859E+02  0.44386582192E+01  0.35515740793E+02  0.40000000000E+02  0.47000000000E+01 0. -1.
         -5    1    3    3    0  501  0.17229058859E+02 -0.44386582192E+01 -0.35515740793E+02  0.40000000000E+02  0.47000000000E+01 0.  1.
</event>
<event>
 5    1  0.4781763E-001  0.8000000E+02  0.7546771E-02  0.1203772E+00
         11   -1    0    0    0    0  0.00000000000E+00  0.00000000000E+00  0.40000000000E+02  0.40000000000E+02  0.00000000000E+00 0.  1.
        -11   -1    0    0    0    0 -0.00000000000E+00 -0.00000000000E+00 -0.40000000000E+02  0.40000000000E+02  0.00000000000E+00 0. -1.
         23    2    1    2    0    0  0.00000000000E+00  0.00000000000E+00  0.00000000000E+00  0.80000000000E+02  0.80000000000E+02 0.  0.
          5    1    3    3  501    0  0.13741164736E+02 -0.21798914590E+02 -0.30230741215E+02  0.40000000000E+02  0.47000000000E+01 0. -1.
         -5    1    3    3    0  501 -0.13741164736E+02  0.21798914590E+02  0.30230741215E+02  0.40000000000E+02  0.47000000000E+01 0.  1.
</event>
<event>
 5    1  0.4781763E-001  0.8000000E+02  0.7546771E-02  0.1203772E+00
         11   -1    0    0    0    0  0.00000000000E+00  0.00000000000E+00  0.40000000000E+02  0.40000000000E+02  0.00000000000E+00 0. -1.
        -11   -1    0    0    0    0 -0.00000000000E+00 -0.00000000000E+00 -0.40000000000E+02  0.40000000000E+02  0.00000000000E+00 0.  1.
         23    2    1    2    0    0  0.00000000000E+00  0.00000000000E+00  0.00000000000E+00  0.80000000000E+02  0.80000000000E+02 0.  0.
          5    1    3    3  501    0  0.19944028505E+02 -0.23462114718E+02  0.25093323812E+02  0.40000000000E+02  0.47000000000E+01 0. -1.
         -5    1    3    3    0  501 -0.19944028505E+02  0.23462114718E+02 -0.25093323812E+02  0.40000000000E+02  0.47000000000E+01 0.  1.
</event>
<event>
 5    1  0.4781763E-001  0.8000000E+02  0.7546771E-02  0.1203772E+00
         11   -1    0    0    0    0  0.00000000000E+00  0.00000000000E+00  0.40000000000E+02  0.40000000000E+02  0.00000000000E+00 0.  1.
        -11   -1    0    0    0    0 -0.00000000000E+00 -0.00000000000E+00 -0.40000000000E+02  0.40000000000E+02  0.00000000000E+00 0. -1.
         23    2    1    2    0    0  0.00000000000E+00  0.00000000000E+00  0.00000000000E+00  0.80000000000E+02  0.80000000000E+02 0.  0.
          5    1    3    3  501    0 -0.14212204529E+02  0.36520796179E+02 -0.64926642386E+01  0.40000000000E+02  0.47000000000E+01 0. -1.
         -5    1    3    3    0  501  0.14212204529E+02 -0.36520796179E+02  0.64926642386E+01  0.40000000000E+02  0.47000000000E+01 0.  1.
</event>
<event>
 5    1  0.4781763E-001  0.8000000E+02  0.7546771E-02  0.1203772E+00
         11   -1    0    0    0    0  0.00000000000E+00  0.00000000000E+00  0.40000000000E+02  0.40000000000E+02  0.00000000000E+00 0.  1.
        -11   -1    0    0    0    0 -0.00000000000E+00 -0.00000000000E+00 -0.40000000000E+02  0.40000000000E+02  0.00000000000E+00 0. -1.
         23    2    1    2    0    0  0.00000000000E+00  0.00000000000E+00  0.00000000000E+00  0.80000000000E+02  0.80000000000E+02 0.  0.
          5    1    3    3  501    0  0.18635675344E+02 -0.20067007165E+01 -0.35022774829E+02  0.40000000000E+02  0.47000000000E+01 0. -1.
         -5    1    3    3    0  501 -0.18635675344E+02  0.20067007165E+01  0.35022774829E+02  0.40000000000E+02  0.47000000000E+01 0.  1.
</event>
<event>
 5    1  0.4781763E-001  0.8000000E+02  0.7546771E-02  0.1203772E+00
         11   -1    0    0    0    0  0.00000000000E+00  0.00000000000E+00  0.40000000000E+02  0.40000000000E+02  0.00000000000E+00 0. -1.
        -11   -1    0    0    0    0 -0.00000000000E+00 -0.00000000000E+00 -0.40000000000E+02  0.40000000000E+02  0.00000000000E+00 0.  1.
         23    2    1    2    0    0  0.00000000000E+00  0.00000000000E+00  0.00000000000E+00  0.80000000000E+02  0.80000000000E+02 0.  0.
          5    1    3    3  501    0  0.44008194021E+01 -0.39465308778E+02 -0.10159683146E+01  0.40000000000E+02  0.47000000000E+01 0. -1.
         -5    1    3    3    0  501 -0.44008194021E+01  0.39465308778E+02  0.10159683146E+01  0.40000000000E+02  0.47000000000E+01 0.  1.
</event>
<event>
 5    1  0.4781763E-001  0.8000000E+02  0.7546771E-02  0.1203772E+00
         11   -1    0    0    0    0  0.00000000000E+00  0.00000000000E+00  0.40000000000E+02  0.40000000000E+02  0.00000000000E+00 0.  1.
        -11   -1    0    0    0    0 -0.00000000000E+00 -0.00000000000E+00 -0.40000000000E+02  0.40000000000E+02  0.00000000000E+00 0. -1.
         23    2    1    2    0    0  0.00000000000E+00  0.00000000000E+00  0.00000000000E+00  0.80000000000E+02  0.80000000000E+02 0.  0.
          5    1    3    3  501    0 -0.31635170868E+02  0.23974264417E+02 -0.15364276134E+01  0.40000000000E+02  0.47000000000E+01 0. -1.
         -5    1    3    3    0  501  0.31635170868E+02 -0.23974264417E+02  0.15364276134E+01  0.40000000000E+02  0.47000000000E+01 0.  1.
</event>
<event>
 5    1  0.4781763E-001  0.8000000E+02  0.7546771E-02  0.1203772E+00
         11   -1    0    0    0    0  0.00000000000E+00  0.00000000000E+00  0.40000000000E+02  0.40000000000E+02  0.00000000000E+00 0.  1.
        -11   -1    0    0    0    0 -0.00000000000E+00 -0.00000000000E+00 -0.40000000000E+02  0.40000000000E+02  0.00000000000E+00 0. -1.
         23    2    1    2    0    0  0.00000000000E+00  0.00000000000E+00  0.00000000000E+00  0.80000000000E+02  0.80000000000E+02 0.  0.
          5    1    3    3  501    0 -0.10327826943E+02  0.38342905750E+02 -0.10332324635E+01  0.40000000000E+02  0.47000000000E+01 0. -1.
         -5    1    3    3    0  501  0.10327826943E+02 -0.38342905750E+02  0.10332324635E+01  0.40000000000E+02  0.47000000000E+01 0.  1.
</event>
<event>
 5    1  0.4781763E-001  0.8000000E+02  0.7546771E-02  0.1203772E+00
         11   -1    0    0    0    0  0.00000000000E+00  0.00000000000E+00  0.40000000000E+02  0.40000000000E+02  0.00000000000E+00 0.  1.
        -11   -1    0    0    0    0 -0.00000000000E+00 -0.00000000000E+00 -0.40000000000E+02  0.40000000000E+02  0.00000000000E+00 0. -1.
         23    2    1    2    0    0  0.00000000000E+00  0.00000000000E+00  0.00000000000E+00  0.80000000000E+02  0.80000000000E+02 0.  0.
          5    1    3    3  501    0  0.22081736859E+02 -0.21659381232E+02 -0.24923444825E+02  0.40000000000E+02  0.47000000000E+01 0. -1.
         -5    1    3    3    0  501 -0.22081736859E+02  0.21659381232E+02  0.24923444825E+02  0.40000000000E+02  0.47000000000E+01 0.  1.
</event>
<event>
 5    1  0.4781763E-001  0.8000000E+02  0.7546771E-02  0.1203772E+00
         11   -1    0    0    0    0  0.00000000000E+00  0.00000000000E+00  0.40000000000E+02  0.40000000000E+02  0.00000000000E+00 0. -1.
        -11   -1    0    0    0    0 -0.00000000000E+00 -0.00000000000E+00 -0.40000000000E+02  0.40000000000E+02  0.00000000000E+00 0.  1.
         23    2    1    2    0    0  0.00000000000E+00  0.00000000000E+00  0.00000000000E+00  0.80000000000E+02  0.80000000000E+02 0.  0.
          5    1    3    3  501    0 -0.32346366738E+02 -0.98267347447E+01  0.20858040252E+02  0.40000000000E+02  0.47000000000E+01 0. -1.
         -5    1    3    3    0  501  0.32346366738E+02  0.98267347447E+01 -0.20858040252E+02  0.40000000000E+02  0.47000000000E+01 0.  1.
</event>
<event>
 5    1  0.4781763E-001  0.8000000E+02  0.7546771E-02  0.1203772E+00
         11   -1    0    0    0    0  0.00000000000E+00  0.00000000000E+00  0.40000000000E+02  0.40000000000E+02  0.00000000000E+00 0.  1.
        -11   -1    0    0    0    0 -0.00000000000E+00 -0.00000000000E+00 -0.40000000000E+02  0.40000000000E+02  0.00000000000E+00 0. -1.
         23    2    1    2    0    0  0.00000000000E+00  0.00000000000E+00  0.00000000000E+00  0.80000000000E+02  0.80000000000E+02 0.  0.
          5    1    3    3  501    0  0.29176281490E+02  0.21123347129E+02 -0.16746904325E+02  0.40000000000E+02  0.47000000000E+01 0. -1.
         -5    1    3    3    0  501 -0.29176281490E+02 -0.21123347129E+02  0.16746904325E+02  0.40000000000E+02  0.47000000000E+01 0.  1.
</event>
<event>
 5    1  0.4781763E-001  0.8000000E+02  0.7546771E-02  0.1203772E+00
         11   -1    0    0    0    0  0.00000000000E+00  0.00000000000E+00  0.40000000000E+02  0.40000000000E+02  0.00000000000E+00 0.  1.
        -11   -1    0    0    0    0 -0.00000000000E+00 -0.00000000000E+00 -0.40000000000E+02  0.40000000000E+02  0.00000000000E+00 0. -1.
         23    2    1    2    0    0  0.00000000000E+00  0.00000000000E+00  0.00000000000E+00  0.80000000000E+02  0.80000000000E+02 0.  0.
          5    1    3    3  501    0 -0.22230599555E+02  0.29320157646E+02  0.14967925676E+02  0.40000000000E+02  0.47000000000E+01 0. -1.
         -5    1    3    3    0  501  0.22230599555E+02 -0.29320157646E+02 -0.14967925676E+02  0.40000000000E+02  0.47000000000E+01 0.  1.
</event>
<event>
 5    1  0.4781763E-001  0.8000000E+02  0.7546771E-02  0.1203772E+00
         11   -1    0    0    0    0  0.00000000000E+00  0.00000000000E+00  0.40000000000E+02  0.40000000000E+02  0.00000000000E+00 0.  1.
        -11   -1    0    0    0    0 -0.00000000000E+00 -0.00000000000E+00 -0.40000000000E+02  0.40000000000E+02  0.00000000000E+00 0. -1.
         23    2    1    2    0    0  0.00000000000E+00  0.00000000000E+00  0.00000000000E+00  0.80000000000E+02  0.80000000000E+02 0.  0.
          5    1    3    3  501    0  0.14253141118E+02 -0.15265273075E+02 -0.33789486622E+02  0.40000000000E+02  0.47000000000E+01 0. -1.
         -5    1    3    3    0  501 -0.14253141118E+02  0.15265273075E+02  0.33789486622E+02  0.40000000000E+02  0.47000000000E+01 0.  1.
</event>
<event>
 5    1  0.4781763E-001  0.8000000E+02  0.7546771E-02  0.1203772E+00
         11   -1    0    0    0    0  0.00000000000E+00  0.00000000000E+00  0.40000000000E+02  0.40000000000E+02  0.00000000000E+00 0.  1.
        -11   -1    0    0    0    0 -0.00000000000E+00 -0.00000000000E+00 -0.40000000000E+02  0.40000000000E+02  0.00000000000E+00 0. -1.
         23    2    1    2    0    0  0.00000000000E+00  0.00000000000E+00  0.00000000000E+00  0.80000000000E+02  0.80000000000E+02 0.  0.
          5    1    3    3  501    0 -0.26780590184E+02  0.96318120887E+01 -0.27711697625E+02  0.40000000000E+02  0.47000000000E+01 0. -1.
         -5    1    3    3    0  501  0.26780590184E+02 -0.96318120887E+01  0.27711697625E+02  0.40000000000E+02  0.47000000000E+01 0.  1.
</event>
<event>
 5    1  0.4781763E-001  0.8000000E+02  0.7546771E-02  0.1203772E+00
         11   -1    0    0    0    0  0.00000000000E+00  0.00000000000E+00  0.40000000000E+02  0.40000000000E+02  0.00000000000E+00 0.  1.
        -11   -1    0    0    0    0 -0.00000000000E+00 -0.00000000000E+00 -0.40000000000E+02  0.40000000000E+02  0.00000000000E+00 0. -1.
         23    2    1    2    0    0  0.00000000000E+00  0.00000000000E+00  0.00000000000E+00  0.80000000000E+02  0.80000000000E+02 0.  0.
          5    1    3    3  501    0 -0.52972641082E+01 -0.14189458899E+02 -0.36722040372E+02  0.40000000000E+02  0.47000000000E+01 0. -1.
         -5    1    3    3    0  501  0.52972641082E+01  0.14189458899E+02  0.36722040372E+02  0.40000000000E+02  0.47000000000E+01 0.  1.
</event>
<event>
 5    1  0.4781763E-001  0.8000000E+02  0.7546771E-02  0.1203772E+00
         11   -1    0    0    0    0  0.00000000000E+00  0.00000000000E+00  0.40000000000E+02  0.40000000000E+02  0.00000000000E+00 0.  1.
        -11   -1    0    0    0    0 -0.00000000000E+00 -0.00000000000E+00 -0.40000000000E+02  0.40000000000E+02  0.00000000000E+00 0. -1.
         23    2    1    2    0    0  0.00000000000E+00  0.00000000000E+00  0.00000000000E+00  0.80000000000E+02  0.80000000000E+02 0.  0.
          5    1    3    3  501    0 -0.31593602245E+00 -0.27041522146E+02 -0.29095811803E+02  0.40000000000E+02  0.47000000000E+01 0. -1.
         -5    1    3    3    0  501  0.31593602245E+00  0.27041522146E+02  0.29095811803E+02  0.40000000000E+02  0.47000000000E+01 0.  1.
</event>
<event>
 5    1  0.4781763E-001  0.8000000E+02  0.7546771E-02  0.1203772E+00
         11   -1    0    0    0    0  0.00000000000E+00  0.00000000000E+00  0.40000000000E+02  0.40000000000E+02  0.00000000000E+00 0. -1.
        -11   -1    0    0    0    0 -0.00000000000E+00 -0.00000000000E+00 -0.40000000000E+02  0.40000000000E+02  0.00000000000E+00 0.  1.
         23    2    1    2    0    0  0.00000000000E+00  0.00000000000E+00  0.00000000000E+00  0.80000000000E+02  0.80000000000E+02 0.  0.
          5    1    3    3  501    0  0.25746918563E+02  0.51614753023E+01  0.29805458514E+02  0.40000000000E+02  0.47000000000E+01 0. -1.
         -5    1    3    3    0  501 -0.25746918563E+02 -0.51614753023E+01 -0.29805458514E+02  0.40000000000E+02  0.47000000000E+01 0.  1.
</event>
<event>
 5    1  0.4781763E-001  0.8000000E+02  0.7546771E-02  0.1203772E+00
         11   -1    0    0    0    0  0.00000000000E+00  0.00000000000E+00  0.40000000000E+02  0.40000000000E+02  0.00000000000E+00 0.  1.
        -11   -1    0    0    0    0 -0.00000000000E+00 -0.00000000000E+00 -0.40000000000E+02  0.40000000000E+02  0.00000000000E+00 0. -1.
         23    2    1    2    0    0  0.00000000000E+00  0.00000000000E+00  0.00000000000E+00  0.80000000000E+02  0.80000000000E+02 0.  0.
          5    1    3    3  501    0  0.24409086837E+02 -0.31288925404E+02  0.17634133955E+01  0.40000000000E+02  0.47000000000E+01 0. -1.
         -5    1    3    3    0  501 -0.24409086837E+02  0.31288925404E+02 -0.17634133955E+01  0.40000000000E+02  0.47000000000E+01 0.  1.
</event>
<event>
 5    1  0.4781763E-001  0.8000000E+02  0.7546771E-02  0.1203772E+00
         11   -1    0    0    0    0  0.00000000000E+00  0.00000000000E+00  0.40000000000E+02  0.40000000000E+02  0.00000000000E+00 0. -1.
        -11   -1    0    0    0    0 -0.00000000000E+00 -0.00000000000E+00 -0.40000000000E+02  0.40000000000E+02  0.00000000000E+00 0.  1.
         23    2    1    2    0    0  0.00000000000E+00  0.00000000000E+00  0.00000000000E+00  0.80000000000E+02  0.80000000000E+02 0.  0.
          5    1    3    3  501    0  0.10721111511E+02  0.37977683267E+02 -0.45456948501E+01  0.40000000000E+02  0.47000000000E+01 0. -1.
         -5    1    3    3    0  501 -0.10721111511E+02 -0.37977683267E+02  0.45456948501E+01  0.40000000000E+02  0.47000000000E+01 0.  1.
</event>
<event>
 5    1  0.4781763E-001  0.8000000E+02  0.7546771E-02  0.1203772E+00
         11   -1    0    0    0    0  0.00000000000E+00  0.00000000000E+00  0.40000000000E+02  0.40000000000E+02  0.00000000000E+00 0. -1.
        -11   -1    0    0    0    0 -0.00000000000E+00 -0.00000000000E+00 -0.40000000000E+02  0.40000000000E+02  0.00000000000E+00 0.  1.
         23    2    1    2    0    0  0.00000000000E+00  0.00000000000E+00  0.00000000000E+00  0.80000000000E+02  0.80000000000E+02 0.  0.
          5    1    3    3  501    0  0.12243472923E+02 -0.22142745699E+02  0.30621988565E+02  0.40000000000E+02  0.47000000000E+01 0. -1.
         -5    1    3    3    0  501 -0.12243472923E+02  0.22142745699E+02 -0.30621988565E+02  0.40000000000E+02  0.47000000000E+01 0.  1.
</event>
<event>
 5    1  0.4781763E-001  0.8000000E+02  0.7546771E-02  0.1203772E+00
         11   -1    0    0    0    0  0.00000000000E+00  0.00000000000E+00  0.40000000000E+02  0.40000000000E+02  0.00000000000E+00 0.  1.
        -11   -1    0    0    0    0 -0.00000000000E+00 -0.00000000000E+00 -0.40000000000E+02  0.40000000000E+02  0.00000000000E+00 0. -1.
         23    2    1    2    0    0  0.00000000000E+00  0.00000000000E+00  0.00000000000E+00  0.80000000000E+02  0.80000000000E+02 0.  0.
          5    1    3    3  501    0  0.23372285569E+02  0.32062478128E+02 -0.19088644754E+01  0.40000000000E+02  0.47000000000E+01 0. -1.
         -5    1    3    3    0  501 -0.23372285569E+02 -0.32062478128E+02  0.19088644754E+01  0.40000000000E+02  0.47000000000E+01 0.  1.
</event>
<event>
 5    1  0.4781763E-001  0.8000000E+02  0.7546771E-02  0.1203772E+00
         11   -1    0    0    0    0  0.00000000000E+00  0.00000000000E+00  0.40000000000E+02  0.40000000000E+02  0.00000000000E+00 0.  1.
        -11   -1    0    0    0    0 -0.00000000000E+00 -0.00000000000E+00 -0.40000000000E+02  0.40000000000E+02  0.00000000000E+00 0. -1.
         23    2    1    2    0    0  0.00000000000E+00  0.00000000000E+00  0.00000000000E+00  0.80000000000E+02  0.80000000000E+02 0.  0.
          5    1    3    3  501    0  0.18257848505E+02 -0.12875419890E+02 -0.32844855467E+02  0.40000000000E+02  0.47000000000E+01 0. -1.
         -5    1    3    3    0  501 -0.18257848505E+02  0.12875419890E+02  0.32844855467E+02  0.40000000000E+02  0.47000000000E+01 0.  1.
</event>
<event>
 5    1  0.4781763E-001  0.8000000E+02  0.7546771E-02  0.1203772E+00
         11   -1    0    0    0    0  0.00000000000E+00  0.00000000000E+00  0.40000000000E+02  0.40000000000E+02  0.00000000000E+00 0. -1.
        -11   -1    0    0    0    0 -0.00000000000E+00 -0.00000000000E+00 -0.40000000000E+02  0.40000000000E+02  0.00000000000E+00 0.  1.
         23    2    1    2    0    0  0.00000000000E+00  0.00000000000E+00  0.00000000000E+00  0.80000000000E+02  0.80000000000E+02 0.  0.
          5    1    3    3  501    0 -0.35209106968E+02 -0.16046269910E+02  0.89858782800E+01  0.40000000000E+02  0.47000000000E+01 0.  1.
         -5    1    3    3    0  501  0.35209106968E+02  0.16046269910E+02 -0.89858782800E+01  0.40000000000E+02  0.47000000000E+01 0. -1.
</event>
<event>
 5    1  0.4781763E-001  0.8000000E+02  0.7546771E-02  0.1203772E+00
         11   -1    0    0    0    0  0.00000000000E+00  0.00000000000E+00  0.40000000000E+02  0.40000000000E+02  0.00000000000E+00 0. -1.
        -11   -1    0    0    0    0 -0.00000000000E+00 -0.00000000000E+00 -0.40000000000E+02  0.40000000000E+02  0.00000000000E+00 0.  1.
         23    2    1    2    0    0  0.00000000000E+00  0.00000000000E+00  0.00000000000E+00  0.80000000000E+02  0.80000000000E+02 0.  0.
          5    1    3    3  501    0 -0.29221463482E+02 -0.34419827220E+01  0.26686491468E+02  0.40000000000E+02  0.47000000000E+01 0. -1.
         -5    1    3    3    0  501  0.29221463482E+02  0.34419827220E+01 -0.26686491468E+02  0.40000000000E+02  0.47000000000E+01 0.  1.
</event>
<event>
 5    1  0.4781763E-001  0.8000000E+02  0.7546771E-02  0.1203772E+00
         11   -1    0    0    0    0  0.00000000000E+00  0.00000000000E+00  0.40000000000E+02  0.40000000000E+02  0.00000000000E+00 0.  1.
        -11   -1    0    0    0    0 -0.00000000000E+00 -0.00000000000E+00 -0.40000000000E+02  0.40000000000E+02  0.00000000000E+00 0. -1.
         23    2    1    2    0    0  0.00000000000E+00  0.00000000000E+00  0.00000000000E+00  0.80000000000E+02  0.80000000000E+02 0.  0.
          5    1    3    3  501    0  0.22358307482E+02 -0.28780630845E+02 -0.15801625698E+02  0.40000000000E+02  0.47000000000E+01 0. -1.
         -5    1    3    3    0  501 -0.22358307482E+02  0.28780630845E+02  0.15801625698E+02  0.40000000000E+02  0.47000000000E+01 0.  1.
</event>
<event>
 5    1  0.4781763E-001  0.8000000E+02  0.7546771E-02  0.1203772E+00
         11   -1    0    0    0    0  0.00000000000E+00  0.00000000000E+00  0.40000000000E+02  0.40000000000E+02  0.00000000000E+00 0. -1.
        -11   -1    0    0    0    0 -0.00000000000E+00 -0.00000000000E+00 -0.40000000000E+02  0.40000000000E+02  0.00000000000E+00 0.  1.
         23    2    1    2    0    0  0.00000000000E+00  0.00000000000E+00  0.00000000000E+00  0.80000000000E+02  0.80000000000E+02 0.  0.
          5    1    3    3  501    0  0.12920650901E+01  0.11474739156E+02  0.38007511483E+02  0.40000000000E+02  0.47000000000E+01 0. -1.
         -5    1    3    3    0  501 -0.12920650901E+01 -0.11474739156E+02 -0.38007511483E+02  0.40000000000E+02  0.47000000000E+01 0.  1.
</event>
<event>
 5    1  0.4781763E-001  0.8000000E+02  0.7546771E-02  0.1203772E+00
         11   -1    0    0    0    0  0.00000000000E+00  0.00000000000E+00  0.40000000000E+02  0.40000000000E+02  0.00000000000E+00 0. -1.
        -11   -1    0    0    0    0 -0.00000000000E+00 -0.00000000000E+00 -0.40000000000E+02  0.40000000000E+02  0.00000000000E+00 0.  1.
         23    2    1    2    0    0  0.00000000000E+00  0.00000000000E+00  0.00000000000E+00  0.80000000000E+02  0.80000000000E+02 0.  0.
          5    1    3    3  501    0 -0.35386272689E+02  0.10824777704E+02  0.14441118129E+02  0.40000000000E+02  0.47000000000E+01 0. -1.
         -5    1    3    3    0  501  0.35386272689E+02 -0.10824777704E+02 -0.14441118129E+02  0.40000000000E+02  0.47000000000E+01 0.  1.
</event>
<event>
 5    1  0.4781763E-001  0.8000000E+02  0.7546771E-02  0.1203772E+00
         11   -1    0    0    0    0  0.00000000000E+00  0.00000000000E+00  0.40000000000E+02  0.40000000000E+02  0.00000000000E+00 0.  1.
        -11   -1    0    0    0    0 -0.00000000000E+00 -0.00000000000E+00 -0.40000000000E+02  0.40000000000E+02  0.00000000000E+00 0. -1.
         23    2    1    2    0    0  0.00000000000E+00  0.00000000000E+00  0.00000000000E+00  0.80000000000E+02  0.80000000000E+02 0.  0.
          5    1    3    3  501    0 -0.23425664681E+02  0.31811896400E+02  0.41414347348E+01  0.40000000000E+02  0.47000000000E+01 0.  1.
         -5    1    3    3    0  501  0.23425664681E+02 -0.31811896400E+02 -0.41414347348E+01  0.40000000000E+02  0.47000000000E+01 0.  1.
</event>
<event>
 5    1  0.4781763E-001  0.8000000E+02  0.7546771E-02  0.1203772E+00
         11   -1    0    0    0    0  0.00000000000E+00  0.00000000000E+00  0.40000000000E+02  0.40000000000E+02  0.00000000000E+00 0. -1.
        -11   -1    0    0    0    0 -0.00000000000E+00 -0.00000000000E+00 -0.40000000000E+02  0.40000000000E+02  0.00000000000E+00 0.  1.
         23    2    1    2    0    0  0.00000000000E+00  0.00000000000E+00  0.00000000000E+00  0.80000000000E+02  0.80000000000E+02 0.  0.
          5    1    3    3  501    0 -0.39642563124E+02  0.11118884463E+00  0.25228606778E+01  0.40000000000E+02  0.47000000000E+01 0. -1.
         -5    1    3    3    0  501  0.39642563124E+02 -0.11118884463E+00 -0.25228606778E+01  0.40000000000E+02  0.47000000000E+01 0.  1.
</event>
<event>
 5    1  0.4781763E-001  0.8000000E+02  0.7546771E-02  0.1203772E+00
         11   -1    0    0    0    0  0.00000000000E+00  0.00000000000E+00  0.40000000000E+02  0.40000000000E+02  0.00000000000E+00 0. -1.
        -11   -1    0    0    0    0 -0.00000000000E+00 -0.00000000000E+00 -0.40000000000E+02  0.40000000000E+02  0.00000000000E+00 0.  1.
         23    2    1    2    0    0  0.00000000000E+00  0.00000000000E+00  0.00000000000E+00  0.80000000000E+02  0.80000000000E+02 0.  0.
          5    1    3    3  501    0 -0.59655837581E+01 -0.56675784422E+01  0.38861296492E+02  0.40000000000E+02  0.47000000000E+01 0. -1.
         -5    1    3    3    0  501  0.59655837581E+01  0.56675784422E+01 -0.38861296492E+02  0.40000000000E+02  0.47000000000E+01 0.  1.
</event>
<event>
 5    1  0.4781763E-001  0.8000000E+02  0.7546771E-02  0.1203772E+00
         11   -1    0    0    0    0  0.00000000000E+00  0.00000000000E+00  0.40000000000E+02  0.40000000000E+02  0.00000000000E+00 0. -1.
        -11   -1    0    0    0    0 -0.00000000000E+00 -0.00000000000E+00 -0.40000000000E+02  0.40000000000E+02  0.00000000000E+00 0.  1.
         23    2    1    2    0    0  0.00000000000E+00  0.00000000000E+00  0.00000000000E+00  0.80000000000E+02  0.80000000000E+02 0.  0.
          5    1    3    3  501    0 -0.11102346365E+02 -0.37147011040E+02  0.86456622623E+01  0.40000000000E+02  0.47000000000E+01 0. -1.
         -5    1    3    3    0  501  0.11102346365E+02  0.37147011040E+02 -0.86456622623E+01  0.40000000000E+02  0.47000000000E+01 0.  1.
</event>
<event>
 5    1  0.4781763E-001  0.8000000E+02  0.7546771E-02  0.1203772E+00
         11   -1    0    0    0    0  0.00000000000E+00  0.00000000000E+00  0.40000000000E+02  0.40000000000E+02  0.00000000000E+00 0.  1.
        -11   -1    0    0    0    0 -0.00000000000E+00 -0.00000000000E+00 -0.40000000000E+02  0.40000000000E+02  0.00000000000E+00 0. -1.
         23    2    1    2    0    0  0.00000000000E+00  0.00000000000E+00  0.00000000000E+00  0.80000000000E+02  0.80000000000E+02 0.  0.
          5    1    3    3  501    0 -0.11653101664E+01 -0.37964212276E+02  0.11630590634E+02  0.40000000000E+02  0.47000000000E+01 0. -1.
         -5    1    3    3    0  501  0.11653101664E+01  0.37964212276E+02 -0.11630590634E+02  0.40000000000E+02  0.47000000000E+01 0.  1.
</event>
<event>
 5    1  0.4781763E-001  0.8000000E+02  0.7546771E-02  0.1203772E+00
         11   -1    0    0    0    0  0.00000000000E+00  0.00000000000E+00  0.40000000000E+02  0.40000000000E+02  0.00000000000E+00 0.  1.
        -11   -1    0    0    0    0 -0.00000000000E+00 -0.00000000000E+00 -0.40000000000E+02  0.40000000000E+02  0.00000000000E+00 0. -1.
         23    2    1    2    0    0  0.00000000000E+00  0.00000000000E+00  0.00000000000E+00  0.80000000000E+02  0.80000000000E+02 0.  0.
          5    1    3    3  501    0 -0.15741402861E+02 -0.25211024160E+02 -0.26353794731E+02  0.40000000000E+02  0.47000000000E+01 0. -1.
         -5    1    3    3    0  501  0.15741402861E+02  0.25211024160E+02  0.26353794731E+02  0.40000000000E+02  0.47000000000E+01 0.  1.
</event>
<event>
 5    1  0.4781763E-001  0.8000000E+02  0.7546771E-02  0.1203772E+00
         11   -1    0    0    0    0  0.00000000000E+00  0.00000000000E+00  0.40000000000E+02  0.40000000000E+02  0.00000000000E+00 0. -1.
        -11   -1    0    0    0    0 -0.00000000000E+00 -0.00000000000E+00 -0.40000000000E+02  0.40000000000E+02  0.00000000000E+00 0.  1.
         23    2    1    2    0    0  0.00000000000E+00  0.00000000000E+00  0.00000000000E+00  0.80000000000E+02  0.80000000000E+02 0.  0.
          5    1    3    3  501    0  0.34717185933E+02  0.12337612664E+02  0.14846222235E+02  0.40000000000E+02  0.47000000000E+01 0. -1.
         -5    1    3    3    0  501 -0.34717185933E+02 -0.12337612664E+02 -0.14846222235E+02  0.40000000000E+02  0.47000000000E+01 0.  1.
</event>
<event>
 5    1  0.4781763E-001  0.8000000E+02  0.7546771E-02  0.1203772E+00
         11   -1    0    0    0    0  0.00000000000E+00  0.00000000000E+00  0.40000000000E+02  0.40000000000E+02  0.00000000000E+00 0. -1.
        -11   -1    0    0    0    0 -0.00000000000E+00 -0.00000000000E+00 -0.40000000000E+02  0.40000000000E+02  0.00000000000E+00 0.  1.
         23    2    1    2    0    0  0.00000000000E+00  0.00000000000E+00  0.00000000000E+00  0.80000000000E+02  0.80000000000E+02 0.  0.
          5    1    3    3  501    0  0.15185477450E+02 -0.30125899089E+02  0.20970013798E+02  0.40000000000E+02  0.47000000000E+01 0. -1.
         -5    1    3    3    0  501 -0.15185477450E+02  0.30125899089E+02 -0.20970013798E+02  0.40000000000E+02  0.47000000000E+01 0.  1.
</event>
<event>
 5    1  0.4781763E-001  0.8000000E+02  0.7546771E-02  0.1203772E+00
         11   -1    0    0    0    0  0.00000000000E+00  0.00000000000E+00  0.40000000000E+02  0.40000000000E+02  0.00000000000E+00 0.  1.
        -11   -1    0    0    0    0 -0.00000000000E+00 -0.00000000000E+00 -0.40000000000E+02  0.40000000000E+02  0.00000000000E+00 0. -1.
         23    2    1    2    0    0  0.00000000000E+00  0.00000000000E+00  0.00000000000E+00  0.80000000000E+02  0.80000000000E+02 0.  0.
          5    1    3    3  501    0 -0.10024725860E+02 -0.36363256388E+02 -0.12455057458E+02  0.40000000000E+02  0.47000000000E+01 0. -1.
         -5    1    3    3    0  501  0.10024725860E+02  0.36363256388E+02  0.12455057458E+02  0.40000000000E+02  0.47000000000E+01 0.  1.
</event>
<event>
 5    1  0.4781763E-001  0.8000000E+02  0.7546771E-02  0.1203772E+00
         11   -1    0    0    0    0  0.00000000000E+00  0.00000000000E+00  0.40000000000E+02  0.40000000000E+02  0.00000000000E+00 0.  1.
        -11   -1    0    0    0    0 -0.00000000000E+00 -0.00000000000E+00 -0.40000000000E+02  0.40000000000E+02  0.00000000000E+00 0. -1.
         23    2    1    2    0    0  0.00000000000E+00  0.00000000000E+00  0.00000000000E+00  0.80000000000E+02  0.80000000000E+02 0.  0.
          5    1    3    3  501    0 -0.82094966737E+01  0.47267610376E+01 -0.38576831058E+02  0.40000000000E+02  0.47000000000E+01 0. -1.
         -5    1    3    3    0  501  0.82094966737E+01 -0.47267610376E+01  0.38576831058E+02  0.40000000000E+02  0.47000000000E+01 0.  1.
</event>
<event>
 5    1  0.4781763E-001  0.8000000E+02  0.7546771E-02  0.1203772E+00
         11   -1    0    0    0    0  0.00000000000E+00  0.00000000000E+00  0.40000000000E+02  0.40000000000E+02  0.00000000000E+00 0. -1.
        -11   -1    0    0    0    0 -0.00000000000E+00 -0.00000000000E+00 -0.40000000000E+02  0.40000000000E+02  0.00000000000E+00 0.  1.
         23    2    1    2    0    0  0.00000000000E+00  0.00000000000E+00  0.00000000000E+00  0.80000000000E+02  0.80000000000E+02 0.  0.
          5    1    3    3  501    0  0.16760210432E+02  0.28551386064E+02  0.21950482912E+02  0.40000000000E+02  0.47000000000E+01 0. -1.
         -5    1    3    3    0  501 -0.16760210432E+02 -0.28551386064E+02 -0.21950482912E+02  0.40000000000E+02  0.47000000000E+01 0.  1.
</event>
<event>
 5    1  0.4781763E-001  0.8000000E+02  0.7546771E-02  0.1203772E+00
         11   -1    0    0    0    0  0.00000000000E+00  0.00000000000E+00  0.40000000000E+02  0.40000000000E+02  0.00000000000E+00 0.  1.
        -11   -1    0    0    0    0 -0.00000000000E+00 -0.00000000000E+00 -0.40000000000E+02  0.40000000000E+02  0.00000000000E+00 0. -1.
         23    2    1    2    0    0  0.00000000000E+00  0.00000000000E+00  0.00000000000E+00  0.80000000000E+02  0.80000000000E+02 0.  0.
          5    1    3    3  501    0 -0.86715741420E+01  0.31277210943E+02  0.22900870672E+02  0.40000000000E+02  0.47000000000E+01 0. -1.
         -5    1    3    3    0  501  0.86715741420E+01 -0.31277210943E+02 -0.22900870672E+02  0.40000000000E+02  0.47000000000E+01 0.  1.
</event>
<event>
 5    1  0.4781763E-001  0.8000000E+02  0.7546771E-02  0.1203772E+00
         11   -1    0    0    0    0  0.00000000000E+00  0.00000000000E+00  0.40000000000E+02  0.40000000000E+02  0.00000000000E+00 0.  1.
        -11   -1    0    0    0    0 -0.00000000000E+00 -0.00000000000E+00 -0.40000000000E+02  0.40000000000E+02  0.00000000000E+00 0. -1.
         23    2    1    2    0    0  0.00000000000E+00  0.00000000000E+00  0.00000000000E+00  0.80000000000E+02  0.80000000000E+02 0.  0.
          5    1    3    3  501    0 -0.36538391954E+01  0.26805319968E+02 -0.29086668433E+02  0.40000000000E+02  0.47000000000E+01 0. -1.
         -5    1    3    3    0  501  0.36538391954E+01 -0.26805319968E+02  0.29086668433E+02  0.40000000000E+02  0.47000000000E+01 0.  1.
</event>
<event>
 5    1  0.4781763E-001  0.8000000E+02  0.7546771E-02  0.1203772E+00
         11   -1    0    0    0    0  0.00000000000E+00  0.00000000000E+00  0.40000000000E+02  0.40000000000E+02  0.00000000000E+00 0. -1.
        -11   -1    0    0    0    0 -0.00000000000E+00 -0.00000000000E+00 -0.40000000000E+02  0.40000000000E+02  0.00000000000E+00 0.  1.
         23    2    1    2    0    0  0.00000000000E+00  0.00000000000E+00  0.00000000000E+00  0.80000000000E+02  0.80000000000E+02 0.  0.
          5    1    3    3  501    0  0.11692922830E+02  0.13901873394E+02  0.35325960310E+02  0.40000000000E+02  0.47000000000E+01 0. -1.
         -5    1    3    3    0  501 -0.11692922830E+02 -0.13901873394E+02 -0.35325960310E+02  0.40000000000E+02  0.47000000000E+01 0.  1.
</event>
<event>
 5    1  0.4781763E-001  0.8000000E+02  0.7546771E-02  0.1203772E+00
         11   -1    0    0    0    0  0.00000000000E+00  0.00000000000E+00  0.40000000000E+02  0.40000000000E+02  0.00000000000E+00 0. -1.
        -11   -1    0    0    0    0 -0.00000000000E+00 -0.00000000000E+00 -0.40000000000E+02  0.40000000000E+02  0.00000000000E+00 0.  1.
         23    2    1    2    0    0  0.00000000000E+00  0.00000000000E+00  0.00000000000E+00  0.80000000000E+02  0.80000000000E+02 0.  0.
          5    1    3    3  501    0 -0.16249493579E+01  0.19311596204E+02  0.34674656331E+02  0.40000000000E+02  0.47000000000E+01 0. -1.
         -5    1    3    3    0  501  0.16249493579E+01 -0.19311596204E+02 -0.34674656331E+02  0.40000000000E+02  0.47000000000E+01 0.  1.
</event>
<event>
 5    1  0.4781763E-001  0.8000000E+02  0.7546771E-02  0.1203772E+00
         11   -1    0    0    0    0  0.00000000000E+00  0.00000000000E+00  0.40000000000E+02  0.40000000000E+02  0.00000000000E+00 0.  1.
        -11   -1    0    0    0    0 -0.00000000000E+00 -0.00000000000E+00 -0.40000000000E+02  0.40000000000E+02  0.00000000000E+00 0. -1.
         23    2    1    2    0    0  0.00000000000E+00  0.00000000000E+00  0.00000000000E+00  0.80000000000E+02  0.80000000000E+02 0.  0.
          5    1    3    3  501    0  0.14608795893E+02  0.14294137343E+02 -0.34061278898E+02  0.40000000000E+02  0.47000000000E+01 0. -1.
         -5    1    3    3    0  501 -0.14608795893E+02 -0.14294137343E+02  0.34061278898E+02  0.40000000000E+02  0.47000000000E+01 0.  1.
</event>
<event>
 5    1  0.4781763E-001  0.8000000E+02  0.7546771E-02  0.1203772E+00
         11   -1    0    0    0    0  0.00000000000E+00  0.00000000000E+00  0.40000000000E+02  0.40000000000E+02  0.00000000000E+00 0. -1.
        -11   -1    0    0    0    0 -0.00000000000E+00 -0.00000000000E+00 -0.40000000000E+02  0.40000000000E+02  0.00000000000E+00 0.  1.
         23    2    1    2    0    0  0.00000000000E+00  0.00000000000E+00  0.00000000000E+00  0.80000000000E+02  0.80000000000E+02 0.  0.
          5    1    3    3  501    0  0.38109215260E+02  0.22848526549E+00  0.11204709133E+02  0.40000000000E+02  0.47000000000E+01 0. -1.
         -5    1    3    3    0  501 -0.38109215260E+02 -0.22848526549E+00 -0.11204709133E+02  0.40000000000E+02  0.47000000000E+01 0.  1.
</event>
<event>
 5    1  0.4781763E-001  0.8000000E+02  0.7546771E-02  0.1203772E+00
         11   -1    0    0    0    0  0.00000000000E+00  0.00000000000E+00  0.40000000000E+02  0.40000000000E+02  0.00000000000E+00 0. -1.
        -11   -1    0    0    0    0 -0.00000000000E+00 -0.00000000000E+00 -0.40000000000E+02  0.40000000000E+02  0.00000000000E+00 0.  1.
         23    2    1    2    0    0  0.00000000000E+00  0.00000000000E+00  0.00000000000E+00  0.80000000000E+02  0.80000000000E+02 0.  0.
          5    1    3    3  501    0 -0.32184007818E+02 -0.79025063760E+01 -0.21900913993E+02  0.40000000000E+02  0.47000000000E+01 0. -1.
         -5    1    3    3    0  501  0.32184007818E+02  0.79025063760E+01  0.21900913993E+02  0.40000000000E+02  0.47000000000E+01 0.  1.
</event>
<event>
 5    1  0.4781763E-001  0.8000000E+02  0.7546771E-02  0.1203772E+00
         11   -1    0    0    0    0  0.00000000000E+00  0.00000000000E+00  0.40000000000E+02  0.40000000000E+02  0.00000000000E+00 0.  1.
        -11   -1    0    0    0    0 -0.00000000000E+00 -0.00000000000E+00 -0.40000000000E+02  0.40000000000E+02  0.00000000000E+00 0. -1.
         23    2    1    2    0    0  0.00000000000E+00  0.00000000000E+00  0.00000000000E+00  0.80000000000E+02  0.80000000000E+02 0.  0.
          5    1    3    3  501    0  0.70014691564E+01 -0.58403956586E+00 -0.39096653660E+02  0.40000000000E+02  0.47000000000E+01 0. -1.
         -5    1    3    3    0  501 -0.70014691564E+01  0.58403956586E+00  0.39096653660E+02  0.40000000000E+02  0.47000000000E+01 0.  1.
</event>
<event>
 5    1  0.4781763E-001  0.8000000E+02  0.7546771E-02  0.1203772E+00
         11   -1    0    0    0    0  0.00000000000E+00  0.00000000000E+00  0.40000000000E+02  0.40000000000E+02  0.00000000000E+00 0. -1.
        -11   -1    0    0    0    0 -0.00000000000E+00 -0.00000000000E+00 -0.40000000000E+02  0.40000000000E+02  0.00000000000E+00 0.  1.
         23    2    1    2    0    0  0.00000000000E+00  0.00000000000E+00  0.00000000000E+00  0.80000000000E+02  0.80000000000E+02 0.  0.
          5    1    3    3  501    0 -0.92046230175E+01 -0.18359374524E+02  0.34001739400E+02  0.40000000000E+02  0.47000000000E+01 0. -1.
         -5    1    3    3    0  501  0.92046230175E+01  0.18359374524E+02 -0.34001739400E+02  0.40000000000E+02  0.47000000000E+01 0.  1.
</event>
<event>
 5    1  0.4781763E-001  0.8000000E+02  0.7546771E-02  0.1203772E+00
         11   -1    0    0    0    0  0.00000000000E+00  0.00000000000E+00  0.40000000000E+02  0.40000000000E+02  0.00000000000E+00 0. -1.
        -11   -1    0    0    0    0 -0.00000000000E+00 -0.00000000000E+00 -0.40000000000E+02  0.40000000000E+02  0.00000000000E+00 0.  1.
         23    2    1    2    0    0  0.00000000000E+00  0.00000000000E+00  0.00000000000E+00  0.80000000000E+02  0.80000000000E+02 0.  0.
          5    1    3    3  501    0 -0.30629948123E+02 -0.22059940676E+02  0.12372360137E+02  0.40000000000E+02  0.47000000000E+01 0. -1.
         -5    1    3    3    0  501  0.30629948123E+02  0.22059940676E+02 -0.12372360137E+02  0.40000000000E+02  0.47000000000E+01 0.  1.
</event>
<event>
 5    1  0.4781763E-001  0.8000000E+02  0.7546771E-02  0.1203772E+00
         11   -1    0    0    0    0  0.00000000000E+00  0.00000000000E+00  0.40000000000E+02  0.40000000000E+02  0.00000000000E+00 0.  1.
        -11   -1    0    0    0    0 -0.00000000000E+00 -0.00000000000E+00 -0.40000000000E+02  0.40000000000E+02  0.00000000000E+00 0. -1.
         23    2    1    2    0    0  0.00000000000E+00  0.00000000000E+00  0.00000000000E+00  0.80000000000E+02  0.80000000000E+02 0.  0.
          5    1    3    3  501    0  0.26332303966E+02 -0.18919526015E+02 -0.22947141504E+02  0.40000000000E+02  0.47000000000E+01 0. -1.
         -5    1    3    3    0  501 -0.26332303966E+02  0.18919526015E+02  0.22947141504E+02  0.40000000000E+02  0.47000000000E+01 0.  1.
</event>
<event>
 5    1  0.4781763E-001  0.8000000E+02  0.7546771E-02  0.1203772E+00
         11   -1    0    0    0    0  0.00000000000E+00  0.00000000000E+00  0.40000000000E+02  0.40000000000E+02  0.00000000000E+00 0. -1.
        -11   -1    0    0    0    0 -0.00000000000E+00 -0.00000000000E+00 -0.40000000000E+02  0.40000000000E+02  0.00000000000E+00 0.  1.
         23    2    1    2    0    0  0.00000000000E+00  0.00000000000E+00  0.00000000000E+00  0.80000000000E+02  0.80000000000E+02 0.  0.
          5    1    3    3  501    0  0.19696712793E+01  0.34779472224E+02  0.19089753976E+02  0.40000000000E+02  0.47000000000E+01 0. -1.
         -5    1    3    3    0  501 -0.19696712793E+01 -0.34779472224E+02 -0.19089753976E+02  0.40000000000E+02  0.47000000000E+01 0.  1.
</event>
<event>
 5    1  0.4781763E-001  0.8000000E+02  0.7546771E-02  0.1203772E+00
         11   -1    0    0    0    0  0.00000000000E+00  0.00000000000E+00  0.40000000000E+02  0.40000000000E+02  0.00000000000E+00 0. -1.
        -11   -1    0    0    0    0 -0.00000000000E+00 -0.00000000000E+00 -0.40000000000E+02  0.40000000000E+02  0.00000000000E+00 0.  1.
         23    2    1    2    0    0  0.00000000000E+00  0.00000000000E+00  0.00000000000E+00  0.80000000000E+02  0.80000000000E+02 0.  0.
          5    1    3    3  501    0  0.43787701923E+01 -0.13233515201E+02  0.37196914483E+02  0.40000000000E+02  0.47000000000E+01 0. -1.
         -5    1    3    3    0  501 -0.43787701923E+01  0.13233515201E+02 -0.37196914483E+02  0.40000000000E+02  0.47000000000E+01 0.  1.
</event>
<event>
 5    1  0.4781763E-001  0.8000000E+02  0.7546771E-02  0.1203772E+00
         11   -1    0    0    0    0  0.00000000000E+00  0.00000000000E+00  0.40000000000E+02  0.40000000000E+02  0.00000000000E+00 0. -1.
        -11   -1    0    0    0    0 -0.00000000000E+00 -0.00000000000E+00 -0.40000000000E+02  0.40000000000E+02  0.00000000000E+00 0.  1.
         23    2    1    2    0    0  0.00000000000E+00  0.00000000000E+00  0.00000000000E+00  0.80000000000E+02  0.80000000000E+02 0.  0.
          5    1    3    3  501    0 -0.26047260743E+02 -0.26653952132E+02  0.13748346937E+02  0.40000000000E+02  0.47000000000E+01 0. -1.
         -5    1    3    3    0  501  0.26047260743E+02  0.26653952132E+02 -0.13748346937E+02  0.40000000000E+02  0.47000000000E+01 0.  1.
</event>
<event>
 5    1  0.4781763E-001  0.8000000E+02  0.7546771E-02  0.1203772E+00
         11   -1    0    0    0    0  0.00000000000E+00  0.00000000000E+00  0.40000000000E+02  0.40000000000E+02  0.00000000000E+00 0.  1.
        -11   -1    0    0    0    0 -0.00000000000E+00 -0.00000000000E+00 -0.40000000000E+02  0.40000000000E+02  0.00000000000E+00 0. -1.
         23    2    1    2    0    0  0.00000000000E+00  0.00000000000E+00  0.00000000000E+00  0.80000000000E+02  0.80000000000E+02 0.  0.
          5    1    3    3  501    0 -0.13715919111E+02  0.28577149435E+02 -0.23940135612E+02  0.40000000000E+02  0.47000000000E+01 0. -1.
         -5    1    3    3    0  501  0.13715919111E+02 -0.28577149435E+02  0.23940135612E+02  0.40000000000E+02  0.47000000000E+01 0.  1.
</event>
<event>
 5    1  0.4781763E-001  0.8000000E+02  0.7546771E-02  0.1203772E+00
         11   -1    0    0    0    0  0.00000000000E+00  0.00000000000E+00  0.40000000000E+02  0.40000000000E+02  0.00000000000E+00 0.  1.
        -11   -1    0    0    0    0 -0.00000000000E+00 -0.00000000000E+00 -0.40000000000E+02  0.40000000000E+02  0.00000000000E+00 0. -1.
         23    2    1    2    0    0  0.00000000000E+00  0.00000000000E+00  0.00000000000E+00  0.80000000000E+02  0.80000000000E+02 0.  0.
          5    1    3    3  501    0  0.23419458247E+01 -0.10402191458E+02 -0.38265123842E+02  0.40000000000E+02  0.47000000000E+01 0. -1.
         -5    1    3    3    0  501 -0.23419458247E+01  0.10402191458E+02  0.38265123842E+02  0.40000000000E+02  0.47000000000E+01 0.  1.
</event>
<event>
 5    1  0.4781763E-001  0.8000000E+02  0.7546771E-02  0.1203772E+00
         11   -1    0    0    0    0  0.00000000000E+00  0.00000000000E+00  0.40000000000E+02  0.40000000000E+02  0.00000000000E+00 0.  1.
        -11   -1    0    0    0    0 -0.00000000000E+00 -0.00000000000E+00 -0.40000000000E+02  0.40000000000E+02  0.00000000000E+00 0. -1.
         23    2    1    2    0    0  0.00000000000E+00  0.00000000000E+00  0.00000000000E+00  0.80000000000E+02  0.80000000000E+02 0.  0.
          5    1    3    3  501    0 -0.35185718873E+02 -0.18373557168E+02 -0.15124762518E+01  0.40000000000E+02  0.47000000000E+01 0. -1.
         -5    1    3    3    0  501  0.35185718873E+02  0.18373557168E+02  0.15124762518E+01  0.40000000000E+02  0.47000000000E+01 0.  1.
</event>
<event>
 5    1  0.4781763E-001  0.8000000E+02  0.7546771E-02  0.1203772E+00
         11   -1    0    0    0    0  0.00000000000E+00  0.00000000000E+00  0.40000000000E+02  0.40000000000E+02  0.00000000000E+00 0. -1.
        -11   -1    0    0    0    0 -0.00000000000E+00 -0.00000000000E+00 -0.40000000000E+02  0.40000000000E+02  0.00000000000E+00 0.  1.
         23    2    1    2    0    0  0.00000000000E+00  0.00000000000E+00  0.00000000000E+00  0.80000000000E+02  0.80000000000E+02 0.  0.
          5    1    3    3  501    0  0.23845369673E+01 -0.15101322526E+01  0.39622512339E+02  0.40000000000E+02  0.47000000000E+01 0. -1.
         -5    1    3    3    0  501 -0.23845369673E+01  0.15101322526E+01 -0.39622512339E+02  0.40000000000E+02  0.47000000000E+01 0.  1.
</event>
<event>
 5    1  0.4781763E-001  0.8000000E+02  0.7546771E-02  0.1203772E+00
         11   -1    0    0    0    0  0.00000000000E+00  0.00000000000E+00  0.40000000000E+02  0.40000000000E+02  0.00000000000E+00 0. -1.
        -11   -1    0    0    0    0 -0.00000000000E+00 -0.00000000000E+00 -0.40000000000E+02  0.40000000000E+02  0.00000000000E+00 0.  1.
         23    2    1    2    0    0  0.00000000000E+00  0.00000000000E+00  0.00000000000E+00  0.80000000000E+02  0.80000000000E+02 0.  0.
          5    1    3    3  501    0 -0.26314869242E+02 -0.14240696868E+02  0.26127384284E+02  0.40000000000E+02  0.47000000000E+01 0. -1.
         -5    1    3    3    0  501  0.26314869242E+02  0.14240696868E+02 -0.26127384284E+02  0.40000000000E+02  0.47000000000E+01 0.  1.
</event>
<event>
 5    1  0.4781763E-001  0.8000000E+02  0.7546771E-02  0.1203772E+00
         11   -1    0    0    0    0  0.00000000000E+00  0.00000000000E+00  0.40000000000E+02  0.40000000000E+02  0.00000000000E+00 0. -1.
        -11   -1    0    0    0    0 -0.00000000000E+00 -0.00000000000E+00 -0.40000000000E+02  0.40000000000E+02  0.00000000000E+00 0.  1.
         23    2    1    2    0    0  0.00000000000E+00  0.00000000000E+00  0.00000000000E+00  0.80000000000E+02  0.80000000000E+02 0.  0.
          5    1    3    3  501    0 -0.68555627680E+01 -0.20516135726E+02 -0.33316654004E+02  0.40000000000E+02  0.47000000000E+01 0.  1.
         -5    1    3    3    0  501  0.68555627680E+01  0.20516135726E+02  0.33316654004E+02  0.40000000000E+02  0.47000000000E+01 0. -1.
</event>
<event>
 5    1  0.4781763E-001  0.8000000E+02  0.7546771E-02  0.1203772E+00
         11   -1    0    0    0    0  0.00000000000E+00  0.00000000000E+00  0.40000000000E+02  0.40000000000E+02  0.00000000000E+00 0.  1.
        -11   -1    0    0    0    0 -0.00000000000E+00 -0.00000000000E+00 -0.40000000000E+02  0.40000000000E+02  0.00000000000E+00 0. -1.
         23    2    1    2    0    0  0.00000000000E+00  0.00000000000E+00  0.00000000000E+00  0.80000000000E+02  0.80000000000E+02 0.  0.
          5    1    3    3  501    0  0.31098143458E+01 -0.17102442620E+01 -0.39564050845E+02  0.40000000000E+02  0.47000000000E+01 0. -1.
         -5    1    3    3    0  501 -0.31098143458E+01  0.17102442620E+01  0.39564050845E+02  0.40000000000E+02  0.47000000000E+01 0.  1.
</event>
<event>
 5    1  0.4781763E-001  0.8000000E+02  0.7546771E-02  0.1203772E+00
         11   -1    0    0    0    0  0.00000000000E+00  0.00000000000E+00  0.40000000000E+02  0.40000000000E+02  0.00000000000E+00 0.  1.
        -11   -1    0    0    0    0 -0.00000000000E+00 -0.00000000000E+00 -0.40000000000E+02  0.40000000000E+02  0.00000000000E+00 0. -1.
         23    2    1    2    0    0  0.00000000000E+00  0.00000000000E+00  0.00000000000E+00  0.80000000000E+02  0.80000000000E+02 0.  0.
          5    1    3    3  501    0 -0.23264113162E+02 -0.32113605437E+02 -0.23253783824E+01  0.40000000000E+02  0.47000000000E+01 0. -1.
         -5    1    3    3    0  501  0.23264113162E+02  0.32113605437E+02  0.23253783824E+01  0.40000000000E+02  0.47000000000E+01 0.  1.
</event>
<event>
 5    1  0.4781763E-001  0.8000000E+02  0.7546771E-02  0.1203772E+00
         11   -1    0    0    0    0  0.00000000000E+00  0.00000000000E+00  0.40000000000E+02  0.40000000000E+02  0.00000000000E+00 0.  1.
        -11   -1    0    0    0    0 -0.00000000000E+00 -0.00000000000E+00 -0.40000000000E+02  0.40000000000E+02  0.00000000000E+00 0. -1.
         23    2    1    2    0    0  0.00000000000E+00  0.00000000000E+00  0.00000000000E+00  0.80000000000E+02  0.80000000000E+02 0.  0.
          5    1    3    3  501    0  0.40274799505E+01 -0.16595983297E+02 -0.35864505345E+02  0.40000000000E+02  0.47000000000E+01 0. -1.
         -5    1    3    3    0  501 -0.40274799505E+01  0.16595983297E+02  0.35864505345E+02  0.40000000000E+02  0.47000000000E+01 0.  1.
</event>
<event>
 5    1  0.4781763E-001  0.8000000E+02  0.7546771E-02  0.1203772E+00
         11   -1    0    0    0    0  0.00000000000E+00  0.00000000000E+00  0.40000000000E+02  0.40000000000E+02  0.00000000000E+00 0. -1.
        -11   -1    0    0    0    0 -0.00000000000E+00 -0.00000000000E+00 -0.40000000000E+02  0.40000000000E+02  0.00000000000E+00 0.  1.
         23    2    1    2    0    0  0.00000000000E+00  0.00000000000E+00  0.00000000000E+00  0.80000000000E+02  0.80000000000E+02 0.  0.
          5    1    3    3  501    0  0.25153791888E+01 -0.22168979192E+02 -0.32865167414E+02  0.40000000000E+02  0.47000000000E+01 0.  1.
         -5    1    3    3    0  501 -0.25153791888E+01  0.22168979192E+02  0.32865167414E+02  0.40000000000E+02  0.47000000000E+01 0. -1.
</event>
<event>
 5    1  0.4781763E-001  0.8000000E+02  0.7546771E-02  0.1203772E+00
         11   -1    0    0    0    0  0.00000000000E+00  0.00000000000E+00  0.40000000000E+02  0.40000000000E+02  0.00000000000E+00 0. -1.
        -11   -1    0    0    0    0 -0.00000000000E+00 -0.00000000000E+00 -0.40000000000E+02  0.40000000000E+02  0.00000000000E+00 0.  1.
         23    2    1    2    0    0  0.00000000000E+00  0.00000000000E+00  0.00000000000E+00  0.80000000000E+02  0.80000000000E+02 0.  0.
          5    1    3    3  501    0  0.30785820644E+02  0.24372694457E+02 -0.60095767073E+01  0.40000000000E+02  0.47000000000E+01 0. -1.
         -5    1    3    3    0  501 -0.30785820644E+02 -0.24372694457E+02  0.60095767073E+01  0.40000000000E+02  0.47000000000E+01 0.  1.
</event>
<event>
 5    1  0.4781763E-001  0.8000000E+02  0.7546771E-02  0.1203772E+00
         11   -1    0    0    0    0  0.00000000000E+00  0.00000000000E+00  0.40000000000E+02  0.40000000000E+02  0.00000000000E+00 0. -1.
        -11   -1    0    0    0    0 -0.00000000000E+00 -0.00000000000E+00 -0.40000000000E+02  0.40000000000E+02  0.00000000000E+00 0.  1.
         23    2    1    2    0    0  0.00000000000E+00  0.00000000000E+00  0.00000000000E+00  0.80000000000E+02  0.80000000000E+02 0.  0.
          5    1    3    3  501    0  0.28301762785E+02  0.16178822923E+02 -0.22697266621E+02  0.40000000000E+02  0.47000000000E+01 0.  1.
         -5    1    3    3    0  501 -0.28301762785E+02 -0.16178822923E+02  0.22697266621E+02  0.40000000000E+02  0.47000000000E+01 0. -1.
</event>
<event>
 5    1  0.4781763E-001  0.8000000E+02  0.7546771E-02  0.1203772E+00
         11   -1    0    0    0    0  0.00000000000E+00  0.00000000000E+00  0.40000000000E+02  0.40000000000E+02  0.00000000000E+00 0. -1.
        -11   -1    0    0    0    0 -0.00000000000E+00 -0.00000000000E+00 -0.40000000000E+02  0.40000000000E+02  0.00000000000E+00 0.  1.
         23    2    1    2    0    0  0.00000000000E+00  0.00000000000E+00  0.00000000000E+00  0.80000000000E+02  0.80000000000E+02 0.  0.
          5    1    3    3  501    0 -0.16167481747E+02 -0.60715363817E+01  0.35772321422E+02  0.40000000000E+02  0.47000000000E+01 0. -1.
         -5    1    3    3    0  501  0.16167481747E+02  0.60715363817E+01 -0.35772321422E+02  0.40000000000E+02  0.47000000000E+01 0.  1.
</event>
<event>
 5    1  0.4781763E-001  0.8000000E+02  0.7546771E-02  0.1203772E+00
         11   -1    0    0    0    0  0.00000000000E+00  0.00000000000E+00  0.40000000000E+02  0.40000000000E+02  0.00000000000E+00 0.  1.
        -11   -1    0    0    0    0 -0.00000000000E+00 -0.00000000000E+00 -0.40000000000E+02  0.40000000000E+02  0.00000000000E+00 0. -1.
         23    2    1    2    0    0  0.00000000000E+00  0.00000000000E+00  0.00000000000E+00  0.80000000000E+02  0.80000000000E+02 0.  0.
          5    1    3    3  501    0  0.14463451496E+02 -0.36199268664E+02 -0.76375073812E+01  0.40000000000E+02  0.47000000000E+01 0. -1.
         -5    1    3    3    0  501 -0.14463451496E+02  0.36199268664E+02  0.76375073812E+01  0.40000000000E+02  0.47000000000E+01 0.  1.
</event>
<event>
 5    1  0.4781763E-001  0.8000000E+02  0.7546771E-02  0.1203772E+00
         11   -1    0    0    0    0  0.00000000000E+00  0.00000000000E+00  0.40000000000E+02  0.40000000000E+02  0.00000000000E+00 0. -1.
        -11   -1    0    0    0    0 -0.00000000000E+00 -0.00000000000E+00 -0.40000000000E+02  0.40000000000E+02  0.00000000000E+00 0.  1.
         23    2    1    2    0    0  0.00000000000E+00  0.00000000000E+00  0.00000000000E+00  0.80000000000E+02  0.80000000000E+02 0.  0.
          5    1    3    3  501    0 -0.39369440758E+02  0.54771891152E+00  0.52590054538E+01  0.40000000000E+02  0.47000000000E+01 0. -1.
         -5    1    3    3    0  501  0.39369440758E+02 -0.54771891152E+00 -0.52590054538E+01  0.40000000000E+02  0.47000000000E+01 0.  1.
</event>
<event>
 5    1  0.4781763E-001  0.8000000E+02  0.7546771E-02  0.1203772E+00
         11   -1    0    0    0    0  0.00000000000E+00  0.00000000000E+00  0.40000000000E+02  0.40000000000E+02  0.00000000000E+00 0. -1.
        -11   -1    0    0    0    0 -0.00000000000E+00 -0.00000000000E+00 -0.40000000000E+02  0.40000000000E+02  0.00000000000E+00 0.  1.
         23    2    1    2    0    0  0.00000000000E+00  0.00000000000E+00  0.00000000000E+00  0.80000000000E+02  0.80000000000E+02 0.  0.
          5    1    3    3  501    0 -0.18073143014E+02 -0.15820920185E+02  0.31638109711E+02  0.40000000000E+02  0.47000000000E+01 0. -1.
         -5    1    3    3    0  501  0.18073143014E+02  0.15820920185E+02 -0.31638109711E+02  0.40000000000E+02  0.47000000000E+01 0.  1.
</event>
<event>
 5    1  0.4781763E-001  0.8000000E+02  0.7546771E-02  0.1203772E+00
         11   -1    0    0    0    0  0.00000000000E+00  0.00000000000E+00  0.40000000000E+02  0.40000000000E+02  0.00000000000E+00 0.  1.
        -11   -1    0    0    0    0 -0.00000000000E+00 -0.00000000000E+00 -0.40000000000E+02  0.40000000000E+02  0.00000000000E+00 0. -1.
         23    2    1    2    0    0  0.00000000000E+00  0.00000000000E+00  0.00000000000E+00  0.80000000000E+02  0.80000000000E+02 0.  0.
          5    1    3    3  501    0  0.21569557650E+02  0.10046455900E+02 -0.31807749160E+02  0.40000000000E+02  0.47000000000E+01 0. -1.
         -5    1    3    3    0  501 -0.21569557650E+02 -0.10046455900E+02  0.31807749160E+02  0.40000000000E+02  0.47000000000E+01 0.  1.
</event>
<event>
 5    1  0.4781763E-001  0.8000000E+02  0.7546771E-02  0.1203772E+00
         11   -1    0    0    0    0  0.00000000000E+00  0.00000000000E+00  0.40000000000E+02  0.40000000000E+02  0.00000000000E+00 0. -1.
        -11   -1    0    0    0    0 -0.00000000000E+00 -0.00000000000E+00 -0.40000000000E+02  0.40000000000E+02  0.00000000000E+00 0.  1.
         23    2    1    2    0    0  0.00000000000E+00  0.00000000000E+00  0.00000000000E+00  0.80000000000E+02  0.80000000000E+02 0.  0.
          5    1    3    3  501    0 -0.32305886578E+02 -0.16031480215E+02 -0.16650265299E+02  0.40000000000E+02  0.47000000000E+01 0. -1.
         -5    1    3    3    0  501  0.32305886578E+02  0.16031480215E+02  0.16650265299E+02  0.40000000000E+02  0.47000000000E+01 0.  1.
</event>
<event>
 5    1  0.4781763E-001  0.8000000E+02  0.7546771E-02  0.1203772E+00
         11   -1    0    0    0    0  0.00000000000E+00  0.00000000000E+00  0.40000000000E+02  0.40000000000E+02  0.00000000000E+00 0. -1.
        -11   -1    0    0    0    0 -0.00000000000E+00 -0.00000000000E+00 -0.40000000000E+02  0.40000000000E+02  0.00000000000E+00 0.  1.
         23    2    1    2    0    0  0.00000000000E+00  0.00000000000E+00  0.00000000000E+00  0.80000000000E+02  0.80000000000E+02 0.  0.
          5    1    3    3  501    0  0.29747126171E+01  0.36376467223E+02 -0.15678447539E+02  0.40000000000E+02  0.47000000000E+01 0.  1.
         -5    1    3    3    0  501 -0.29747126171E+01 -0.36376467223E+02  0.15678447539E+02  0.40000000000E+02  0.47000000000E+01 0. -1.
</event>
<event>
 5    1  0.4781763E-001  0.8000000E+02  0.7546771E-02  0.1203772E+00
         11   -1    0    0    0    0  0.00000000000E+00  0.00000000000E+00  0.40000000000E+02  0.40000000000E+02  0.00000000000E+00 0.  1.
        -11   -1    0    0    0    0 -0.00000000000E+00 -0.00000000000E+00 -0.40000000000E+02  0.40000000000E+02  0.00000000000E+00 0. -1.
         23    2    1    2    0    0  0.00000000000E+00  0.00000000000E+00  0.00000000000E+00  0.80000000000E+02  0.80000000000E+02 0.  0.
          5    1    3    3  501    0  0.21301946936E+02  0.31740734229E+02  0.10801057695E+02  0.40000000000E+02  0.47000000000E+01 0. -1.
         -5    1    3    3    0  501 -0.21301946936E+02 -0.31740734229E+02 -0.10801057695E+02  0.40000000000E+02  0.47000000000E+01 0.  1.
</event>
<event>
 5    1  0.4781763E-001  0.8000000E+02  0.7546771E-02  0.1203772E+00
         11   -1    0    0    0    0  0.00000000000E+00  0.00000000000E+00  0.40000000000E+02  0.40000000000E+02  0.00000000000E+00 0.  1.
        -11   -1    0    0    0    0 -0.00000000000E+00 -0.00000000000E+00 -0.40000000000E+02  0.40000000000E+02  0.00000000000E+00 0. -1.
         23    2    1    2    0    0  0.00000000000E+00  0.00000000000E+00  0.00000000000E+00  0.80000000000E+02  0.80000000000E+02 0.  0.
          5    1    3    3  501    0 -0.34366368203E+02 -0.13463349726E+02 -0.14683356248E+02  0.40000000000E+02  0.47000000000E+01 0. -1.
         -5    1    3    3    0  501  0.34366368203E+02  0.13463349726E+02  0.14683356248E+02  0.40000000000E+02  0.47000000000E+01 0.  1.
</event>
<event>
 5    1  0.4781763E-001  0.8000000E+02  0.7546771E-02  0.1203772E+00
         11   -1    0    0    0    0  0.00000000000E+00  0.00000000000E+00  0.40000000000E+02  0.40000000000E+02  0.00000000000E+00 0.  1.
        -11   -1    0    0    0    0 -0.00000000000E+00 -0.00000000000E+00 -0.40000000000E+02  0.40000000000E+02  0.00000000000E+00 0. -1.
         23    2    1    2    0    0  0.00000000000E+00  0.00000000000E+00  0.00000000000E+00  0.80000000000E+02  0.80000000000E+02 0.  0.
          5    1    3    3  501    0  0.35547057650E+02 -0.26866403907E+00 -0.17726943111E+02  0.40000000000E+02  0.47000000000E+01 0. -1.
         -5    1    3    3    0  501 -0.35547057650E+02  0.26866403907E+00  0.17726943111E+02  0.40000000000E+02  0.47000000000E+01 0.  1.
</event>
<event>
 5    1  0.4781763E-001  0.8000000E+02  0.7546771E-02  0.1203772E+00
         11   -1    0    0    0    0  0.00000000000E+00  0.00000000000E+00  0.40000000000E+02  0.40000000000E+02  0.00000000000E+00 0. -1.
        -11   -1    0    0    0    0 -0.00000000000E+00 -0.00000000000E+00 -0.40000000000E+02  0.40000000000E+02  0.00000000000E+00 0.  1.
         23    2    1    2    0    0  0.00000000000E+00  0.00000000000E+00  0.00000000000E+00  0.80000000000E+02  0.80000000000E+02 0.  0.
          5    1    3    3  501    0  0.64638768515E+01 -0.38896911642E+02 -0.48123342325E+01  0.40000000000E+02  0.47000000000E+01 0.  1.
         -5    1    3    3    0  501 -0.64638768515E+01  0.38896911642E+02  0.48123342325E+01  0.40000000000E+02  0.47000000000E+01 0. -1.
</event>
<event>
 5    1  0.4781763E-001  0.8000000E+02  0.7546771E-02  0.1203772E+00
         11   -1    0    0    0    0  0.00000000000E+00  0.00000000000E+00  0.40000000000E+02  0.40000000000E+02  0.00000000000E+00 0. -1.
        -11   -1    0    0    0    0 -0.00000000000E+00 -0.00000000000E+00 -0.40000000000E+02  0.40000000000E+02  0.00000000000E+00 0.  1.
         23    2    1    2    0    0  0.00000000000E+00  0.00000000000E+00  0.00000000000E+00  0.80000000000E+02  0.80000000000E+02 0.  0.
          5    1    3    3  501    0 -0.31819697304E+02  0.13811397390E+02  0.19356191920E+02  0.40000000000E+02  0.47000000000E+01 0. -1.
         -5    1    3    3    0  501  0.31819697304E+02 -0.13811397390E+02 -0.19356191920E+02  0.40000000000E+02  0.47000000000E+01 0.  1.
</event>
<event>
 5    1  0.4781763E-001  0.8000000E+02  0.7546771E-02  0.1203772E+00
         11   -1    0    0    0    0  0.00000000000E+00  0.00000000000E+00  0.40000000000E+02  0.40000000000E+02  0.00000000000E+00 0. -1.
        -11   -1    0    0    0    0 -0.00000000000E+00 -0.00000000000E+00 -0.40000000000E+02  0.40000000000E+02  0.00000000000E+00 0.  1.
         23    2    1    2    0    0  0.00000000000E+00  0.00000000000E+00  0.00000000000E+00  0.80000000000E+02  0.80000000000E+02 0.  0.
          5    1    3    3  501    0  0.24556444625E+02 -0.12808456181E+02  0.28475155446E+02  0.40000000000E+02  0.47000000000E+01 0. -1.
         -5    1    3    3    0  501 -0.24556444625E+02  0.12808456181E+02 -0.28475155446E+02  0.40000000000E+02  0.47000000000E+01 0.  1.
</event>
<event>
 5    1  0.4781763E-001  0.8000000E+02  0.7546771E-02  0.1203772E+00
         11   -1    0    0    0    0  0.00000000000E+00  0.00000000000E+00  0.40000000000E+02  0.40000000000E+02  0.00000000000E+00 0. -1.
        -11   -1    0    0    0    0 -0.00000000000E+00 -0.00000000000E+00 -0.40000000000E+02  0.40000000000E+02  0.00000000000E+00 0.  1.
         23    2    1    2    0    0  0.00000000000E+00  0.00000000000E+00  0.00000000000E+00  0.80000000000E+02  0.80000000000E+02 0.  0.
          5    1    3    3  501    0 -0.23496817064E+02  0.41954633048E+01  0.31752286146E+02  0.40000000000E+02  0.47000000000E+01 0. -1.
         -5    1    3    3    0  501  0.23496817064E+02 -0.41954633048E+01 -0.31752286146E+02  0.40000000000E+02  0.47000000000E+01 0.  1.
</event>
<event>
 5    1  0.4781763E-001  0.8000000E+02  0.7546771E-02  0.1203772E+00
         11   -1    0    0    0    0  0.00000000000E+00  0.00000000000E+00  0.40000000000E+02  0.40000000000E+02  0.00000000000E+00 0. -1.
        -11   -1    0    0    0    0 -0.00000000000E+00 -0.00000000000E+00 -0.40000000000E+02  0.40000000000E+02  0.00000000000E+00 0.  1.
         23    2    1    2    0    0  0.00000000000E+00  0.00000000000E+00  0.00000000000E+00  0.80000000000E+02  0.80000000000E+02 0.  0.
          5    1    3    3  501    0  0.11477455694E+02  0.27637903320E+02  0.26121338229E+02  0.40000000000E+02  0.47000000000E+01 0. -1.
         -5    1    3    3    0  501 -0.11477455694E+02 -0.27637903320E+02 -0.26121338229E+02  0.40000000000E+02  0.47000000000E+01 0.  1.
</event>
<event>
 5    1  0.4781763E-001  0.8000000E+02  0.7546771E-02  0.1203772E+00
         11   -1    0    0    0    0  0.00000000000E+00  0.00000000000E+00  0.40000000000E+02  0.40000000000E+02  0.00000000000E+00 0. -1.
        -11   -1    0    0    0    0 -0.00000000000E+00 -0.00000000000E+00 -0.40000000000E+02  0.40000000000E+02  0.00000000000E+00 0.  1.
         23    2    1    2    0    0  0.00000000000E+00  0.00000000000E+00  0.00000000000E+00  0.80000000000E+02  0.80000000000E+02 0.  0.
          5    1    3    3  501    0  0.11371012997E+02  0.14472869972E+02  0.35201507044E+02  0.40000000000E+02  0.47000000000E+01 0. -1.
         -5    1    3    3    0  501 -0.11371012997E+02 -0.14472869972E+02 -0.35201507044E+02  0.40000000000E+02  0.47000000000E+01 0.  1.
</event>
<event>
 5    1  0.4781763E-001  0.8000000E+02  0.7546771E-02  0.1203772E+00
         11   -1    0    0    0    0  0.00000000000E+00  0.00000000000E+00  0.40000000000E+02  0.40000000000E+02  0.00000000000E+00 0. -1.
        -11   -1    0    0    0    0 -0.00000000000E+00 -0.00000000000E+00 -0.40000000000E+02  0.40000000000E+02  0.00000000000E+00 0.  1.
         23    2    1    2    0    0  0.00000000000E+00  0.00000000000E+00  0.00000000000E+00  0.80000000000E+02  0.80000000000E+02 0.  0.
          5    1    3    3  501    0 -0.18841129691E+01  0.96973323487E+01  0.38474951119E+02  0.40000000000E+02  0.47000000000E+01 0. -1.
         -5    1    3    3    0  501  0.18841129691E+01 -0.96973323487E+01 -0.38474951119E+02  0.40000000000E+02  0.47000000000E+01 0.  1.
</event>
<event>
 5    1  0.4781763E-001  0.8000000E+02  0.7546771E-02  0.1203772E+00
         11   -1    0    0    0    0  0.00000000000E+00  0.00000000000E+00  0.40000000000E+02  0.40000000000E+02  0.00000000000E+00 0.  1.
        -11   -1    0    0    0    0 -0.00000000000E+00 -0.00000000000E+00 -0.40000000000E+02  0.40000000000E+02  0.00000000000E+00 0. -1.
         23    2    1    2    0    0  0.00000000000E+00  0.00000000000E+00  0.00000000000E+00  0.80000000000E+02  0.80000000000E+02 0.  0.
          5    1    3    3  501    0  0.21205994248E+02 -0.10598556409E+02 -0.31872973033E+02  0.40000000000E+02  0.47000000000E+01 0. -1.
         -5    1    3    3    0  501 -0.21205994248E+02  0.10598556409E+02  0.31872973033E+02  0.40000000000E+02  0.47000000000E+01 0.  1.
</event>
<event>
 5    1  0.4781763E-001  0.8000000E+02  0.7546771E-02  0.1203772E+00
         11   -1    0    0    0    0  0.00000000000E+00  0.00000000000E+00  0.40000000000E+02  0.40000000000E+02  0.00000000000E+00 0. -1.
        -11   -1    0    0    0    0 -0.00000000000E+00 -0.00000000000E+00 -0.40000000000E+02  0.40000000000E+02  0.00000000000E+00 0.  1.
         23    2    1    2    0    0  0.00000000000E+00  0.00000000000E+00  0.00000000000E+00  0.80000000000E+02  0.80000000000E+02 0.  0.
          5    1    3    3  501    0  0.18551269711E+02  0.54214485268E+01  0.34704009681E+02  0.40000000000E+02  0.47000000000E+01 0. -1.
         -5    1    3    3    0  501 -0.18551269711E+02 -0.54214485268E+01 -0.34704009681E+02  0.40000000000E+02  0.47000000000E+01 0.  1.
</event>
<event>
 5    1  0.4781763E-001  0.8000000E+02  0.7546771E-02  0.1203772E+00
         11   -1    0    0    0    0  0.00000000000E+00  0.00000000000E+00  0.40000000000E+02  0.40000000000E+02  0.00000000000E+00 0. -1.
        -11   -1    0    0    0    0 -0.00000000000E+00 -0.00000000000E+00 -0.40000000000E+02  0.40000000000E+02  0.00000000000E+00 0.  1.
         23    2    1    2    0    0  0.00000000000E+00  0.00000000000E+00  0.00000000000E+00  0.80000000000E+02  0.80000000000E+02 0.  0.
          5    1    3    3  501    0  0.17584389207E+02  0.20042578012E+02  0.29444767326E+02  0.40000000000E+02  0.47000000000E+01 0. -1.
         -5    1    3    3    0  501 -0.17584389207E+02 -0.20042578012E+02 -0.29444767326E+02  0.40000000000E+02  0.47000000000E+01 0.  1.
</event>
<event>
 5    1  0.4781763E-001  0.8000000E+02  0.7546771E-02  0.1203772E+00
         11   -1    0    0    0    0  0.00000000000E+00  0.00000000000E+00  0.40000000000E+02  0.40000000000E+02  0.00000000000E+00 0.  1.
        -11   -1    0    0    0    0 -0.00000000000E+00 -0.00000000000E+00 -0.40000000000E+02  0.40000000000E+02  0.00000000000E+00 0. -1.
         23    2    1    2    0    0  0.00000000000E+00  0.00000000000E+00  0.00000000000E+00  0.80000000000E+02  0.80000000000E+02 0.  0.
          5    1    3    3  501    0 -0.95176673256E+01  0.21275833943E+02 -0.32166176314E+02  0.40000000000E+02  0.47000000000E+01 0. -1.
         -5    1    3    3    0  501  0.95176673256E+01 -0.21275833943E+02  0.32166176314E+02  0.40000000000E+02  0.47000000000E+01 0.  1.
</event>
<event>
 5    1  0.4781763E-001  0.8000000E+02  0.7546771E-02  0.1203772E+00
         11   -1    0    0    0    0  0.00000000000E+00  0.00000000000E+00  0.40000000000E+02  0.40000000000E+02  0.00000000000E+00 0.  1.
        -11   -1    0    0    0    0 -0.00000000000E+00 -0.00000000000E+00 -0.40000000000E+02  0.40000000000E+02  0.00000000000E+00 0. -1.
         23    2    1    2    0    0  0.00000000000E+00  0.00000000000E+00  0.00000000000E+00  0.80000000000E+02  0.80000000000E+02 0.  0.
          5    1    3    3  501    0 -0.33994904931E+02 -0.10416946773E+02 -0.17712810581E+02  0.40000000000E+02  0.47000000000E+01 0. -1.
         -5    1    3    3    0  501  0.33994904931E+02  0.10416946773E+02  0.17712810581E+02  0.40000000000E+02  0.47000000000E+01 0.  1.
</event>
<event>
 5    1  0.4781763E-001  0.8000000E+02  0.7546771E-02  0.1203772E+00
         11   -1    0    0    0    0  0.00000000000E+00  0.00000000000E+00  0.40000000000E+02  0.40000000000E+02  0.00000000000E+00 0.  1.
        -11   -1    0    0    0    0 -0.00000000000E+00 -0.00000000000E+00 -0.40000000000E+02  0.40000000000E+02  0.00000000000E+00 0. -1.
         23    2    1    2    0    0  0.00000000000E+00  0.00000000000E+00  0.00000000000E+00  0.80000000000E+02  0.80000000000E+02 0.  0.
          5    1    3    3  501    0  0.22112065670E+02  0.28591680186E+02 -0.16476722245E+02  0.40000000000E+02  0.47000000000E+01 0. -1.
         -5    1    3    3    0  501 -0.22112065670E+02 -0.28591680186E+02  0.16476722245E+02  0.40000000000E+02  0.47000000000E+01 0.  1.
</event>
<event>
 5    1  0.4781763E-001  0.8000000E+02  0.7546771E-02  0.1203772E+00
         11   -1    0    0    0    0  0.00000000000E+00  0.00000000000E+00  0.40000000000E+02  0.40000000000E+02  0.00000000000E+00 0.  1.
        -11   -1    0    0    0    0 -0.00000000000E+00 -0.00000000000E+00 -0.40000000000E+02  0.40000000000E+02  0.00000000000E+00 0. -1.
         23    2    1    2    0    0  0.00000000000E+00  0.00000000000E+00  0.00000000000E+00  0.80000000000E+02  0.80000000000E+02 0.  0.
          5    1    3    3  501    0 -0.15801086245E+01  0.81215634145E+01 -0.38851685477E+02  0.40000000000E+02  0.47000000000E+01 0. -1.
         -5    1    3    3    0  501  0.15801086245E+01 -0.81215634145E+01  0.38851685477E+02  0.40000000000E+02  0.47000000000E+01 0.  1.
</event>
<event>
 5    1  0.4781763E-001  0.8000000E+02  0.7546771E-02  0.1203772E+00
         11   -1    0    0    0    0  0.00000000000E+00  0.00000000000E+00  0.40000000000E+02  0.40000000000E+02  0.00000000000E+00 0. -1.
        -11   -1    0    0    0    0 -0.00000000000E+00 -0.00000000000E+00 -0.40000000000E+02  0.40000000000E+02  0.00000000000E+00 0.  1.
         23    2    1    2    0    0  0.00000000000E+00  0.00000000000E+00  0.00000000000E+00  0.80000000000E+02  0.80000000000E+02 0.  0.
          5    1    3    3  501    0  0.10523290811E+02 -0.38753511078E+01  0.38107112253E+02  0.40000000000E+02  0.47000000000E+01 0. -1.
         -5    1    3    3    0  501 -0.10523290811E+02  0.38753511078E+01 -0.38107112253E+02  0.40000000000E+02  0.47000000000E+01 0.  1.
</event>
<event>
 5    1  0.4781763E-001  0.8000000E+02  0.7546771E-02  0.1203772E+00
         11   -1    0    0    0    0  0.00000000000E+00  0.00000000000E+00  0.40000000000E+02  0.40000000000E+02  0.00000000000E+00 0. -1.
        -11   -1    0    0    0    0 -0.00000000000E+00 -0.00000000000E+00 -0.40000000000E+02  0.40000000000E+02  0.00000000000E+00 0.  1.
         23    2    1    2    0    0  0.00000000000E+00  0.00000000000E+00  0.00000000000E+00  0.80000000000E+02  0.80000000000E+02 0.  0.
          5    1    3    3  501    0  0.72773129549E+01  0.87405741509E+01  0.38059861793E+02  0.40000000000E+02  0.47000000000E+01 0. -1.
         -5    1    3    3    0  501 -0.72773129549E+01 -0.87405741509E+01 -0.38059861793E+02  0.40000000000E+02  0.47000000000E+01 0.  1.
</event>
<event>
 5    1  0.4781763E-001  0.8000000E+02  0.7546771E-02  0.1203772E+00
         11   -1    0    0    0    0  0.00000000000E+00  0.00000000000E+00  0.40000000000E+02  0.40000000000E+02  0.00000000000E+00 0.  1.
        -11   -1    0    0    0    0 -0.00000000000E+00 -0.00000000000E+00 -0.40000000000E+02  0.40000000000E+02  0.00000000000E+00 0. -1.
         23    2    1    2    0    0  0.00000000000E+00  0.00000000000E+00  0.00000000000E+00  0.80000000000E+02  0.80000000000E+02 0.  0.
          5    1    3    3  501    0 -0.99976577147E+00 -0.35573079111E+02 -0.17648413838E+02  0.40000000000E+02  0.47000000000E+01 0. -1.
         -5    1    3    3    0  501  0.99976577147E+00  0.35573079111E+02  0.17648413838E+02  0.40000000000E+02  0.47000000000E+01 0.  1.
</event>
<event>
 5    1  0.4781763E-001  0.8000000E+02  0.7546771E-02  0.1203772E+00
         11   -1    0    0    0    0  0.00000000000E+00  0.00000000000E+00  0.40000000000E+02  0.40000000000E+02  0.00000000000E+00 0.  1.
        -11   -1    0    0    0    0 -0.00000000000E+00 -0.00000000000E+00 -0.40000000000E+02  0.40000000000E+02  0.00000000000E+00 0. -1.
         23    2    1    2    0    0  0.00000000000E+00  0.00000000000E+00  0.00000000000E+00  0.80000000000E+02  0.80000000000E+02 0.  0.
          5    1    3    3  501    0  0.13509477810E+02  0.59598593633E+01 -0.36876606211E+02  0.40000000000E+02  0.47000000000E+01 0. -1.
         -5    1    3    3    0  501 -0.13509477810E+02 -0.59598593633E+01  0.36876606211E+02  0.40000000000E+02  0.47000000000E+01 0.  1.
</event>
<event>
 5    1  0.4781763E-001  0.8000000E+02  0.7546771E-02  0.1203772E+00
         11   -1    0    0    0    0  0.00000000000E+00  0.00000000000E+00  0.40000000000E+02  0.40000000000E+02  0.00000000000E+00 0.  1.
        -11   -1    0    0    0    0 -0.00000000000E+00 -0.00000000000E+00 -0.40000000000E+02  0.40000000000E+02  0.00000000000E+00 0. -1.
         23    2    1    2    0    0  0.00000000000E+00  0.00000000000E+00  0.00000000000E+00  0.80000000000E+02  0.80000000000E+02 0.  0.
          5    1    3    3  501    0  0.19999055665E+02  0.34303107236E+02 -0.11156193270E+01  0.40000000000E+02  0.47000000000E+01 0. -1.
         -5    1    3    3    0  501 -0.19999055665E+02 -0.34303107236E+02  0.11156193270E+01  0.40000000000E+02  0.47000000000E+01 0.  1.
</event>
<event>
 5    1  0.4781763E-001  0.8000000E+02  0.7546771E-02  0.1203772E+00
         11   -1    0    0    0    0  0.00000000000E+00  0.00000000000E+00  0.40000000000E+02  0.40000000000E+02  0.00000000000E+00 0. -1.
        -11   -1    0    0    0    0 -0.00000000000E+00 -0.00000000000E+00 -0.40000000000E+02  0.40000000000E+02  0.00000000000E+00 0.  1.
         23    2    1    2    0    0  0.00000000000E+00  0.00000000000E+00  0.00000000000E+00  0.80000000000E+02  0.80000000000E+02 0.  0.
          5    1    3    3  501    0  0.20884618428E+02  0.25034065061E+02  0.22694455262E+02  0.40000000000E+02  0.47000000000E+01 0. -1.
         -5    1    3    3    0  501 -0.20884618428E+02 -0.25034065061E+02 -0.22694455262E+02  0.40000000000E+02  0.47000000000E+01 0.  1.
</event>
<event>
 5    1  0.4781763E-001  0.8000000E+02  0.7546771E-02  0.1203772E+00
         11   -1    0    0    0    0  0.00000000000E+00  0.00000000000E+00  0.40000000000E+02  0.40000000000E+02  0.00000000000E+00 0.  1.
        -11   -1    0    0    0    0 -0.00000000000E+00 -0.00000000000E+00 -0.40000000000E+02  0.40000000000E+02  0.00000000000E+00 0. -1.
         23    2    1    2    0    0  0.00000000000E+00  0.00000000000E+00  0.00000000000E+00  0.80000000000E+02  0.80000000000E+02 0.  0.
          5    1    3    3  501    0 -0.16772755709E+01 -0.15928252618E+02 -0.36350894283E+02  0.40000000000E+02  0.47000000000E+01 0. -1.
         -5    1    3    3    0  501  0.16772755709E+01  0.15928252618E+02  0.36350894283E+02  0.40000000000E+02  0.47000000000E+01 0.  1.
</event>
<event>
 5    1  0.4781763E-001  0.8000000E+02  0.7546771E-02  0.1203772E+00
         11   -1    0    0    0    0  0.00000000000E+00  0.00000000000E+00  0.40000000000E+02  0.40000000000E+02  0.00000000000E+00 0.  1.
        -11   -1    0    0    0    0 -0.00000000000E+00 -0.00000000000E+00 -0.40000000000E+02  0.40000000000E+02  0.00000000000E+00 0. -1.
         23    2    1    2    0    0  0.00000000000E+00  0.00000000000E+00  0.00000000000E+00  0.80000000000E+02  0.80000000000E+02 0.  0.
          5    1    3    3  501    0  0.87308921284E+01  0.31578219496E+02 -0.22461023488E+02  0.40000000000E+02  0.47000000000E+01 0. -1.
         -5    1    3    3    0  501 -0.87308921284E+01 -0.31578219496E+02  0.22461023488E+02  0.40000000000E+02  0.47000000000E+01 0.  1.
</event>
<event>
 5    1  0.4781763E-001  0.8000000E+02  0.7546771E-02  0.1203772E+00
         11   -1    0    0    0    0  0.00000000000E+00  0.00000000000E+00  0.40000000000E+02  0.40000000000E+02  0.00000000000E+00 0. -1.
        -11   -1    0    0    0    0 -0.00000000000E+00 -0.00000000000E+00 -0.40000000000E+02  0.40000000000E+02  0.00000000000E+00 0.  1.
         23    2    1    2    0    0  0.00000000000E+00  0.00000000000E+00  0.00000000000E+00  0.80000000000E+02  0.80000000000E+02 0.  0.
          5    1    3    3  501    0  0.29495089490E+01  0.23421573824E+02  0.31947461192E+02  0.40000000000E+02  0.47000000000E+01 0. -1.
         -5    1    3    3    0  501 -0.29495089490E+01 -0.23421573824E+02 -0.31947461192E+02  0.40000000000E+02  0.47000000000E+01 0.  1.
</event>
<event>
 5    1  0.4781763E-001  0.8000000E+02  0.7546771E-02  0.1203772E+00
         11   -1    0    0    0    0  0.00000000000E+00  0.00000000000E+00  0.40000000000E+02  0.40000000000E+02  0.00000000000E+00 0.  1.
        -11   -1    0    0    0    0 -0.00000000000E+00 -0.00000000000E+00 -0.40000000000E+02  0.40000000000E+02  0.00000000000E+00 0. -1.
         23    2    1    2    0    0  0.00000000000E+00  0.00000000000E+00  0.00000000000E+00  0.80000000000E+02  0.80000000000E+02 0.  0.
          5    1    3    3  501    0 -0.23253204867E+02 -0.18345552619E+02 -0.26469589391E+02  0.40000000000E+02  0.47000000000E+01 0. -1.
         -5    1    3    3    0  501  0.23253204867E+02  0.18345552619E+02  0.26469589391E+02  0.40000000000E+02  0.47000000000E+01 0.  1.
</event>
<event>
 5    1  0.4781763E-001  0.8000000E+02  0.7546771E-02  0.1203772E+00
         11   -1    0    0    0    0  0.00000000000E+00  0.00000000000E+00  0.40000000000E+02  0.40000000000E+02  0.00000000000E+00 0.  1.
        -11   -1    0    0    0    0 -0.00000000000E+00 -0.00000000000E+00 -0.40000000000E+02  0.40000000000E+02  0.00000000000E+00 0. -1.
         23    2    1    2    0    0  0.00000000000E+00  0.00000000000E+00  0.00000000000E+00  0.80000000000E+02  0.80000000000E+02 0.  0.
          5    1    3    3  501    0  0.31727310106E+02  0.72734214117E+00 -0.23890558111E+02  0.40000000000E+02  0.47000000000E+01 0. -1.
         -5    1    3    3    0  501 -0.31727310106E+02 -0.72734214117E+00  0.23890558111E+02  0.40000000000E+02  0.47000000000E+01 0.  1.
</event>
<event>
 5    1  0.4781763E-001  0.8000000E+02  0.7546771E-02  0.1203772E+00
         11   -1    0    0    0    0  0.00000000000E+00  0.00000000000E+00  0.40000000000E+02  0.40000000000E+02  0.00000000000E+00 0.  1.
        -11   -1    0    0    0    0 -0.00000000000E+00 -0.00000000000E+00 -0.40000000000E+02  0.40000000000E+02  0.00000000000E+00 0. -1.
         23    2    1    2    0    0  0.00000000000E+00  0.00000000000E+00  0.00000000000E+00  0.80000000000E+02  0.80000000000E+02 0.  0.
          5    1    3    3  501    0  0.14106024285E+01 -0.27929008524E+02 -0.28211534585E+02  0.40000000000E+02  0.47000000000E+01 0. -1.
         -5    1    3    3    0  501 -0.14106024285E+01  0.27929008524E+02  0.28211534585E+02  0.40000000000E+02  0.47000000000E+01 0.  1.
</event>
<event>
 5    1  0.4781763E-001  0.8000000E+02  0.7546771E-02  0.1203772E+00
         11   -1    0    0    0    0  0.00000000000E+00  0.00000000000E+00  0.40000000000E+02  0.40000000000E+02  0.00000000000E+00 0. -1.
        -11   -1    0    0    0    0 -0.00000000000E+00 -0.00000000000E+00 -0.40000000000E+02  0.40000000000E+02  0.00000000000E+00 0.  1.
         23    2    1    2    0    0  0.00000000000E+00  0.00000000000E+00  0.00000000000E+00  0.80000000000E+02  0.80000000000E+02 0.  0.
          5    1    3    3  501    0  0.20732335610E+02  0.22329753752E+02  0.25484551350E+02  0.40000000000E+02  0.47000000000E+01 0. -1.
         -5    1    3    3    0  501 -0.20732335610E+02 -0.22329753752E+02 -0.25484551350E+02  0.40000000000E+02  0.47000000000E+01 0.  1.
</event>
<event>
 5    1  0.4781763E-001  0.8000000E+02  0.7546771E-02  0.1203772E+00
         11   -1    0    0    0    0  0.00000000000E+00  0.00000000000E+00  0.40000000000E+02  0.40000000000E+02  0.00000000000E+00 0. -1.
        -11   -1    0    0    0    0 -0.00000000000E+00 -0.00000000000E+00 -0.40000000000E+02  0.40000000000E+02  0.00000000000E+00 0.  1.
         23    2    1    2    0    0  0.00000000000E+00  0.00000000000E+00  0.00000000000E+00  0.80000000000E+02  0.80000000000E+02 0.  0.
          5    1    3    3  501    0  0.32095699774E+02 -0.22490187791E+02 -0.64782334911E+01  0.40000000000E+02  0.47000000000E+01 0. -1.
         -5    1    3    3    0  501 -0.32095699774E+02  0.22490187791E+02  0.64782334911E+01  0.40000000000E+02  0.47000000000E+01 0.  1.
</event>
<event>
 5    1  0.4781763E-001  0.8000000E+02  0.7546771E-02  0.1203772E+00
         11   -1    0    0    0    0  0.00000000000E+00  0.00000000000E+00  0.40000000000E+02  0.40000000000E+02  0.00000000000E+00 0. -1.
        -11   -1    0    0    0    0 -0.00000000000E+00 -0.00000000000E+00 -0.40000000000E+02  0.40000000000E+02  0.00000000000E+00 0.  1.
         23    2    1    2    0    0  0.00000000000E+00  0.00000000000E+00  0.00000000000E+00  0.80000000000E+02  0.80000000000E+02 0.  0.
          5    1    3    3  501    0  0.12332360860E+02 -0.21922405095E+02  0.30744609779E+02  0.40000000000E+02  0.47000000000E+01 0. -1.
         -5    1    3    3    0  501 -0.12332360860E+02  0.21922405095E+02 -0.30744609779E+02  0.40000000000E+02  0.47000000000E+01 0.  1.
</event>
<event>
 5    1  0.4781763E-001  0.8000000E+02  0.7546771E-02  0.1203772E+00
         11   -1    0    0    0    0  0.00000000000E+00  0.00000000000E+00  0.40000000000E+02  0.40000000000E+02  0.00000000000E+00 0.  1.
        -11   -1    0    0    0    0 -0.00000000000E+00 -0.00000000000E+00 -0.40000000000E+02  0.40000000000E+02  0.00000000000E+00 0. -1.
         23    2    1    2    0    0  0.00000000000E+00  0.00000000000E+00  0.00000000000E+00  0.80000000000E+02  0.80000000000E+02 0.  0.
          5    1    3    3  501    0 -0.28432258569E+02  0.21734591837E+02 -0.17237290689E+02  0.40000000000E+02  0.47000000000E+01 0. -1.
         -5    1    3    3    0  501  0.28432258569E+02 -0.21734591837E+02  0.17237290689E+02  0.40000000000E+02  0.47000000000E+01 0.  1.
</event>
<event>
 5    1  0.4781763E-001  0.8000000E+02  0.7546771E-02  0.1203772E+00
         11   -1    0    0    0    0  0.00000000000E+00  0.00000000000E+00  0.40000000000E+02  0.40000000000E+02  0.00000000000E+00 0.  1.
        -11   -1    0    0    0    0 -0.00000000000E+00 -0.00000000000E+00 -0.40000000000E+02  0.40000000000E+02  0.00000000000E+00 0. -1.
         23    2    1    2    0    0  0.00000000000E+00  0.00000000000E+00  0.00000000000E+00  0.80000000000E+02  0.80000000000E+02 0.  0.
          5    1    3    3  501    0 -0.25776121987E+02 -0.29872665445E+02 -0.45962369979E+01  0.40000000000E+02  0.47000000000E+01 0. -1.
         -5    1    3    3    0  501  0.25776121987E+02  0.29872665445E+02  0.45962369979E+01  0.40000000000E+02  0.47000000000E+01 0.  1.
</event>
<event>
 5    1  0.4781763E-001  0.8000000E+02  0.7546771E-02  0.1203772E+00
         11   -1    0    0    0    0  0.00000000000E+00  0.00000000000E+00  0.40000000000E+02  0.40000000000E+02  0.00000000000E+00 0.  1.
        -11   -1    0    0    0    0 -0.00000000000E+00 -0.00000000000E+00 -0.40000000000E+02  0.40000000000E+02  0.00000000000E+00 0. -1.
         23    2    1    2    0    0  0.00000000000E+00  0.00000000000E+00  0.00000000000E+00  0.80000000000E+02  0.80000000000E+02 0.  0.
          5    1    3    3  501    0  0.28382018131E+02  0.34110075055E+01 -0.27581444389E+02  0.40000000000E+02  0.47000000000E+01 0. -1.
         -5    1    3    3    0  501 -0.28382018131E+02 -0.34110075055E+01  0.27581444389E+02  0.40000000000E+02  0.47000000000E+01 0.  1.
</event>
<event>
 5    1  0.4781763E-001  0.8000000E+02  0.7546771E-02  0.1203772E+00
         11   -1    0    0    0    0  0.00000000000E+00  0.00000000000E+00  0.40000000000E+02  0.40000000000E+02  0.00000000000E+00 0. -1.
        -11   -1    0    0    0    0 -0.00000000000E+00 -0.00000000000E+00 -0.40000000000E+02  0.40000000000E+02  0.00000000000E+00 0.  1.
         23    2    1    2    0    0  0.00000000000E+00  0.00000000000E+00  0.00000000000E+00  0.80000000000E+02  0.80000000000E+02 0.  0.
          5    1    3    3  501    0  0.19892206460E+02 -0.14078865657E+02 -0.31368705168E+02  0.40000000000E+02  0.47000000000E+01 0.  1.
         -5    1    3    3    0  501 -0.19892206460E+02  0.14078865657E+02  0.31368705168E+02  0.40000000000E+02  0.47000000000E+01 0. -1.
</event>
<event>
 5    1  0.4781763E-001  0.8000000E+02  0.7546771E-02  0.1203772E+00
         11   -1    0    0    0    0  0.00000000000E+00  0.00000000000E+00  0.40000000000E+02  0.40000000000E+02  0.00000000000E+00 0.  1.
        -11   -1    0    0    0    0 -0.00000000000E+00 -0.00000000000E+00 -0.40000000000E+02  0.40000000000E+02  0.00000000000E+00 0. -1.
         23    2    1    2    0    0  0.00000000000E+00  0.00000000000E+00  0.00000000000E+00  0.80000000000E+02  0.80000000000E+02 0.  0.
          5    1    3    3  501    0  0.66842999120E+01  0.25807943291E+02 -0.29447923488E+02  0.40000000000E+02  0.47000000000E+01 0. -1.
         -5    1    3    3    0  501 -0.66842999120E+01 -0.25807943291E+02  0.29447923488E+02  0.40000000000E+02  0.47000000000E+01 0.  1.
</event>
<event>
 5    1  0.4781763E-001  0.8000000E+02  0.7546771E-02  0.1203772E+00
         11   -1    0    0    0    0  0.00000000000E+00  0.00000000000E+00  0.40000000000E+02  0.40000000000E+02  0.00000000000E+00 0.  1.
        -11   -1    0    0    0    0 -0.00000000000E+00 -0.00000000000E+00 -0.40000000000E+02  0.40000000000E+02  0.00000000000E+00 0. -1.
         23    2    1    2    0    0  0.00000000000E+00  0.00000000000E+00  0.00000000000E+00  0.80000000000E+02  0.80000000000E+02 0.  0.
          5    1    3    3  501    0  0.33975250564E+02  0.15920029781E+02 -0.13043964154E+02  0.40000000000E+02  0.47000000000E+01 0. -1.
         -5    1    3    3    0  501 -0.33975250564E+02 -0.15920029781E+02  0.13043964154E+02  0.40000000000E+02  0.47000000000E+01 0.  1.
</event>
<event>
 5    1  0.4781763E-001  0.8000000E+02  0.7546771E-02  0.1203772E+00
         11   -1    0    0    0    0  0.00000000000E+00  0.00000000000E+00  0.40000000000E+02  0.40000000000E+02  0.00000000000E+00 0. -1.
        -11   -1    0    0    0    0 -0.00000000000E+00 -0.00000000000E+00 -0.40000000000E+02  0.40000000000E+02  0.00000000000E+00 0.  1.
         23    2    1    2    0    0  0.00000000000E+00  0.00000000000E+00  0.00000000000E+00  0.80000000000E+02  0.80000000000E+02 0.  0.
          5    1    3    3  501    0 -0.35619492073E+02  0.17434519640E+02  0.22801994133E+01  0.40000000000E+02  0.47000000000E+01 0. -1.
         -5    1    3    3    0  501  0.35619492073E+02 -0.17434519640E+02 -0.22801994133E+01  0.40000000000E+02  0.47000000000E+01 0.  1.
</event>
<event>
 5    1  0.4781763E-001  0.8000000E+02  0.7546771E-02  0.1203772E+00
         11   -1    0    0    0    0  0.00000000000E+00  0.00000000000E+00  0.40000000000E+02  0.40000000000E+02  0.00000000000E+00 0.  1.
        -11   -1    0    0    0    0 -0.00000000000E+00 -0.00000000000E+00 -0.40000000000E+02  0.40000000000E+02  0.00000000000E+00 0. -1.
         23    2    1    2    0    0  0.00000000000E+00  0.00000000000E+00  0.00000000000E+00  0.80000000000E+02  0.80000000000E+02 0.  0.
          5    1    3    3  501    0 -0.22368191124E+02 -0.30760059338E+02 -0.11462668772E+02  0.40000000000E+02  0.47000000000E+01 0. -1.
         -5    1    3    3    0  501  0.22368191124E+02  0.30760059338E+02  0.11462668772E+02  0.40000000000E+02  0.47000000000E+01 0.  1.
</event>
<event>
 5    1  0.4781763E-001  0.8000000E+02  0.7546771E-02  0.1203772E+00
         11   -1    0    0    0    0  0.00000000000E+00  0.00000000000E+00  0.40000000000E+02  0.40000000000E+02  0.00000000000E+00 0. -1.
        -11   -1    0    0    0    0 -0.00000000000E+00 -0.00000000000E+00 -0.40000000000E+02  0.40000000000E+02  0.00000000000E+00 0.  1.
         23    2    1    2    0    0  0.00000000000E+00  0.00000000000E+00  0.00000000000E+00  0.80000000000E+02  0.80000000000E+02 0.  0.
          5    1    3    3  501    0 -0.26031390758E+01 -0.39316891396E+02  0.50314727361E+01  0.40000000000E+02  0.47000000000E+01 0. -1.
         -5    1    3    3    0  501  0.26031390758E+01  0.39316891396E+02 -0.50314727361E+01  0.40000000000E+02  0.47000000000E+01 0.  1.
</event>
<event>
 5    1  0.4781763E-001  0.8000000E+02  0.7546771E-02  0.1203772E+00
         11   -1    0    0    0    0  0.00000000000E+00  0.00000000000E+00  0.40000000000E+02  0.40000000000E+02  0.00000000000E+00 0. -1.
        -11   -1    0    0    0    0 -0.00000000000E+00 -0.00000000000E+00 -0.40000000000E+02  0.40000000000E+02  0.00000000000E+00 0.  1.
         23    2    1    2    0    0  0.00000000000E+00  0.00000000000E+00  0.00000000000E+00  0.80000000000E+02  0.80000000000E+02 0.  0.
          5    1    3    3  501    0 -0.23636921494E+02 -0.30609165415E+02 -0.90711043917E+01  0.40000000000E+02  0.47000000000E+01 0. -1.
         -5    1    3    3    0  501  0.23636921494E+02  0.30609165415E+02  0.90711043917E+01  0.40000000000E+02  0.47000000000E+01 0.  1.
</event>
<event>
 5    1  0.4781763E-001  0.8000000E+02  0.7546771E-02  0.1203772E+00
         11   -1    0    0    0    0  0.00000000000E+00  0.00000000000E+00  0.40000000000E+02  0.40000000000E+02  0.00000000000E+00 0.  1.
        -11   -1    0    0    0    0 -0.00000000000E+00 -0.00000000000E+00 -0.40000000000E+02  0.40000000000E+02  0.00000000000E+00 0. -1.
         23    2    1    2    0    0  0.00000000000E+00  0.00000000000E+00  0.00000000000E+00  0.80000000000E+02  0.80000000000E+02 0.  0.
          5    1    3    3  501    0  0.36502661955E+02 -0.15534136370E+02  0.20386950355E+01  0.40000000000E+02  0.47000000000E+01 0. -1.
         -5    1    3    3    0  501 -0.36502661955E+02  0.15534136370E+02 -0.20386950355E+01  0.40000000000E+02  0.47000000000E+01 0.  1.
</event>
<event>
 5    1  0.4781763E-001  0.8000000E+02  0.7546771E-02  0.1203772E+00
         11   -1    0    0    0    0  0.00000000000E+00  0.00000000000E+00  0.40000000000E+02  0.40000000000E+02  0.00000000000E+00 0. -1.
        -11   -1    0    0    0    0 -0.00000000000E+00 -0.00000000000E+00 -0.40000000000E+02  0.40000000000E+02  0.00000000000E+00 0.  1.
         23    2    1    2    0    0  0.00000000000E+00  0.00000000000E+00  0.00000000000E+00  0.80000000000E+02  0.80000000000E+02 0.  0.
          5    1    3    3  501    0  0.14102527180E+02  0.18325699280E+02  0.32298567662E+02  0.40000000000E+02  0.47000000000E+01 0. -1.
         -5    1    3    3    0  501 -0.14102527180E+02 -0.18325699280E+02 -0.32298567662E+02  0.40000000000E+02  0.47000000000E+01 0.  1.
</event>
<event>
 5    1  0.4781763E-001  0.8000000E+02  0.7546771E-02  0.1203772E+00
         11   -1    0    0    0    0  0.00000000000E+00  0.00000000000E+00  0.40000000000E+02  0.40000000000E+02  0.00000000000E+00 0.  1.
        -11   -1    0    0    0    0 -0.00000000000E+00 -0.00000000000E+00 -0.40000000000E+02  0.40000000000E+02  0.00000000000E+00 0. -1.
         23    2    1    2    0    0  0.00000000000E+00  0.00000000000E+00  0.00000000000E+00  0.80000000000E+02  0.80000000000E+02 0.  0.
          5    1    3    3  501    0  0.19835252114E+02 -0.14884058425E+02 -0.31031235527E+02  0.40000000000E+02  0.47000000000E+01 0. -1.
         -5    1    3    3    0  501 -0.19835252114E+02  0.14884058425E+02  0.31031235527E+02  0.40000000000E+02  0.47000000000E+01 0.  1.
</event>
<event>
 5    1  0.4781763E-001  0.8000000E+02  0.7546771E-02  0.1203772E+00
         11   -1    0    0    0    0  0.00000000000E+00  0.00000000000E+00  0.40000000000E+02  0.40000000000E+02  0.00000000000E+00 0.  1.
        -11   -1    0    0    0    0 -0.00000000000E+00 -0.00000000000E+00 -0.40000000000E+02  0.40000000000E+02  0.00000000000E+00 0. -1.
         23    2    1    2    0    0  0.00000000000E+00  0.00000000000E+00  0.00000000000E+00  0.80000000000E+02  0.80000000000E+02 0.  0.
          5    1    3    3  501    0 -0.14196552708E+02 -0.21817581272E+02 -0.30006016708E+02  0.40000000000E+02  0.47000000000E+01 0. -1.
         -5    1    3    3    0  501  0.14196552708E+02  0.21817581272E+02  0.30006016708E+02  0.40000000000E+02  0.47000000000E+01 0.  1.
</event>
<event>
 5    1  0.4781763E-001  0.8000000E+02  0.7546771E-02  0.1203772E+00
         11   -1    0    0    0    0  0.00000000000E+00  0.00000000000E+00  0.40000000000E+02  0.40000000000E+02  0.00000000000E+00 0. -1.
        -11   -1    0    0    0    0 -0.00000000000E+00 -0.00000000000E+00 -0.40000000000E+02  0.40000000000E+02  0.00000000000E+00 0.  1.
         23    2    1    2    0    0  0.00000000000E+00  0.00000000000E+00  0.00000000000E+00  0.80000000000E+02  0.80000000000E+02 0.  0.
          5    1    3    3  501    0 -0.15953278125E+02  0.16602343290E+02  0.32369200088E+02  0.40000000000E+02  0.47000000000E+01 0. -1.
         -5    1    3    3    0  501  0.15953278125E+02 -0.16602343290E+02 -0.32369200088E+02  0.40000000000E+02  0.47000000000E+01 0.  1.
</event>
<event>
 5    1  0.4781763E-001  0.8000000E+02  0.7546771E-02  0.1203772E+00
         11   -1    0    0    0    0  0.00000000000E+00  0.00000000000E+00  0.40000000000E+02  0.40000000000E+02  0.00000000000E+00 0.  1.
        -11   -1    0    0    0    0 -0.00000000000E+00 -0.00000000000E+00 -0.40000000000E+02  0.40000000000E+02  0.00000000000E+00 0. -1.
         23    2    1    2    0    0  0.00000000000E+00  0.00000000000E+00  0.00000000000E+00  0.80000000000E+02  0.80000000000E+02 0.  0.
          5    1    3    3  501    0  0.25942348710E+02  0.99857827800E+01 -0.28375846871E+02  0.40000000000E+02  0.47000000000E+01 0. -1.
         -5    1    3    3    0  501 -0.25942348710E+02 -0.99857827800E+01  0.28375846871E+02  0.40000000000E+02  0.47000000000E+01 0.  1.
</event>
<event>
 5    1  0.4781763E-001  0.8000000E+02  0.7546771E-02  0.1203772E+00
         11   -1    0    0    0    0  0.00000000000E+00  0.00000000000E+00  0.40000000000E+02  0.40000000000E+02  0.00000000000E+00 0. -1.
        -11   -1    0    0    0    0 -0.00000000000E+00 -0.00000000000E+00 -0.40000000000E+02  0.40000000000E+02  0.00000000000E+00 0.  1.
         23    2    1    2    0    0  0.00000000000E+00  0.00000000000E+00  0.00000000000E+00  0.80000000000E+02  0.80000000000E+02 0.  0.
          5    1    3    3  501    0  0.30818617459E+02  0.17732059488E+02 -0.17711490176E+02  0.40000000000E+02  0.47000000000E+01 0. -1.
         -5    1    3    3    0  501 -0.30818617459E+02 -0.17732059488E+02  0.17711490176E+02  0.40000000000E+02  0.47000000000E+01 0.  1.
</event>
<event>
 5    1  0.4781763E-001  0.8000000E+02  0.7546771E-02  0.1203772E+00
         11   -1    0    0    0    0  0.00000000000E+00  0.00000000000E+00  0.40000000000E+02  0.40000000000E+02  0.00000000000E+00 0.  1.
        -11   -1    0    0    0    0 -0.00000000000E+00 -0.00000000000E+00 -0.40000000000E+02  0.40000000000E+02  0.00000000000E+00 0. -1.
         23    2    1    2    0    0  0.00000000000E+00  0.00000000000E+00  0.00000000000E+00  0.80000000000E+02  0.80000000000E+02 0.  0.
          5    1    3    3  501    0 -0.17259234364E+02 -0.50147617611E-01 -0.35777455393E+02  0.40000000000E+02  0.47000000000E+01 0. -1.
         -5    1    3    3    0  501  0.17259234364E+02  0.50147617611E-01  0.35777455393E+02  0.40000000000E+02  0.47000000000E+01 0.  1.
</event>
<event>
 5    1  0.4781763E-001  0.8000000E+02  0.7546771E-02  0.1203772E+00
         11   -1    0    0    0    0  0.00000000000E+00  0.00000000000E+00  0.40000000000E+02  0.40000000000E+02  0.00000000000E+00 0.  1.
        -11   -1    0    0    0    0 -0.00000000000E+00 -0.00000000000E+00 -0.40000000000E+02  0.40000000000E+02  0.00000000000E+00 0. -1.
         23    2    1    2    0    0  0.00000000000E+00  0.00000000000E+00  0.00000000000E+00  0.80000000000E+02  0.80000000000E+02 0.  0.
          5    1    3    3  501    0  0.30614392776E+02  0.98515429344E+01 -0.23315575412E+02  0.40000000000E+02  0.47000000000E+01 0. -1.
         -5    1    3    3    0  501 -0.30614392776E+02 -0.98515429344E+01  0.23315575412E+02  0.40000000000E+02  0.47000000000E+01 0.  1.
</event>
<event>
 5    1  0.4781763E-001  0.8000000E+02  0.7546771E-02  0.1203772E+00
         11   -1    0    0    0    0  0.00000000000E+00  0.00000000000E+00  0.40000000000E+02  0.40000000000E+02  0.00000000000E+00 0. -1.
        -11   -1    0    0    0    0 -0.00000000000E+00 -0.00000000000E+00 -0.40000000000E+02  0.40000000000E+02  0.00000000000E+00 0.  1.
         23    2    1    2    0    0  0.00000000000E+00  0.00000000000E+00  0.00000000000E+00  0.80000000000E+02  0.80000000000E+02 0.  0.
          5    1    3    3  501    0 -0.20109742135E+02  0.32901588650E+02 -0.95390636653E+01  0.40000000000E+02  0.47000000000E+01 0. -1.
         -5    1    3    3    0  501  0.20109742135E+02 -0.32901588650E+02  0.95390636653E+01  0.40000000000E+02  0.47000000000E+01 0.  1.
</event>
<event>
 5    1  0.4781763E-001  0.8000000E+02  0.7546771E-02  0.1203772E+00
         11   -1    0    0    0    0  0.00000000000E+00  0.00000000000E+00  0.40000000000E+02  0.40000000000E+02  0.00000000000E+00 0.  1.
        -11   -1    0    0    0    0 -0.00000000000E+00 -0.00000000000E+00 -0.40000000000E+02  0.40000000000E+02  0.00000000000E+00 0. -1.
         23    2    1    2    0    0  0.00000000000E+00  0.00000000000E+00  0.00000000000E+00  0.80000000000E+02  0.80000000000E+02 0.  0.
          5    1    3    3  501    0 -0.56409492309E+01  0.35989039457E+02 -0.15839151832E+02  0.40000000000E+02  0.47000000000E+01 0. -1.
         -5    1    3    3    0  501  0.56409492309E+01 -0.35989039457E+02  0.15839151832E+02  0.40000000000E+02  0.47000000000E+01 0.  1.
</event>
<event>
 5    1  0.4781763E-001  0.8000000E+02  0.7546771E-02  0.1203772E+00
         11   -1    0    0    0    0  0.00000000000E+00  0.00000000000E+00  0.40000000000E+02  0.40000000000E+02  0.00000000000E+00 0. -1.
        -11   -1    0    0    0    0 -0.00000000000E+00 -0.00000000000E+00 -0.40000000000E+02  0.40000000000E+02  0.00000000000E+00 0.  1.
         23    2    1    2    0    0  0.00000000000E+00  0.00000000000E+00  0.00000000000E+00  0.80000000000E+02  0.80000000000E+02 0.  0.
          5    1    3    3  501    0 -0.20983040962E+02  0.18708729803E+02  0.28064308671E+02  0.40000000000E+02  0.47000000000E+01 0. -1.
         -5    1    3    3    0  501  0.20983040962E+02 -0.18708729803E+02 -0.28064308671E+02  0.40000000000E+02  0.47000000000E+01 0.  1.
</event>
<event>
 5    1  0.4781763E-001  0.8000000E+02  0.7546771E-02  0.1203772E+00
         11   -1    0    0    0    0  0.00000000000E+00  0.00000000000E+00  0.40000000000E+02  0.40000000000E+02  0.00000000000E+00 0.  1.
        -11   -1    0    0    0    0 -0.00000000000E+00 -0.00000000000E+00 -0.40000000000E+02  0.40000000000E+02  0.00000000000E+00 0. -1.
         23    2    1    2    0    0  0.00000000000E+00  0.00000000000E+00  0.00000000000E+00  0.80000000000E+02  0.80000000000E+02 0.  0.
          5    1    3    3  501    0  0.18355036807E+02  0.31219151953E+02 -0.16320759025E+02  0.40000000000E+02  0.47000000000E+01 0. -1.
         -5    1    3    3    0  501 -0.18355036807E+02 -0.31219151953E+02  0.16320759025E+02  0.40000000000E+02  0.47000000000E+01 0.  1.
</event>
<event>
 5    1  0.4781763E-001  0.8000000E+02  0.7546771E-02  0.1203772E+00
         11   -1    0    0    0    0  0.00000000000E+00  0.00000000000E+00  0.40000000000E+02  0.40000000000E+02  0.00000000000E+00 0. -1.
        -11   -1    0    0    0    0 -0.00000000000E+00 -0.00000000000E+00 -0.40000000000E+02  0.40000000000E+02  0.00000000000E+00 0.  1.
         23    2    1    2    0    0  0.00000000000E+00  0.00000000000E+00  0.00000000000E+00  0.80000000000E+02  0.80000000000E+02 0.  0.
          5    1    3    3  501    0  0.10170707752E+02 -0.31238603877E+02  0.22329718576E+02  0.40000000000E+02  0.47000000000E+01 0. -1.
         -5    1    3    3    0  501 -0.10170707752E+02  0.31238603877E+02 -0.22329718576E+02  0.40000000000E+02  0.47000000000E+01 0.  1.
</event>
<event>
 5    1  0.4781763E-001  0.8000000E+02  0.7546771E-02  0.1203772E+00
         11   -1    0    0    0    0  0.00000000000E+00  0.00000000000E+00  0.40000000000E+02  0.40000000000E+02  0.00000000000E+00 0. -1.
        -11   -1    0    0    0    0 -0.00000000000E+00 -0.00000000000E+00 -0.40000000000E+02  0.40000000000E+02  0.00000000000E+00 0.  1.
         23    2    1    2    0    0  0.00000000000E+00  0.00000000000E+00  0.00000000000E+00  0.80000000000E+02  0.80000000000E+02 0.  0.
          5    1    3    3  501    0 -0.44567365619E+01 -0.52699898992E+01  0.39118725768E+02  0.40000000000E+02  0.47000000000E+01 0. -1.
         -5    1    3    3    0  501  0.44567365619E+01  0.52699898992E+01 -0.39118725768E+02  0.40000000000E+02  0.47000000000E+01 0.  1.
</event>
<event>
 5    1  0.4781763E-001  0.8000000E+02  0.7546771E-02  0.1203772E+00
         11   -1    0    0    0    0  0.00000000000E+00  0.00000000000E+00  0.40000000000E+02  0.40000000000E+02  0.00000000000E+00 0.  1.
        -11   -1    0    0    0    0 -0.00000000000E+00 -0.00000000000E+00 -0.40000000000E+02  0.40000000000E+02  0.00000000000E+00 0. -1.
         23    2    1    2    0    0  0.00000000000E+00  0.00000000000E+00  0.00000000000E+00  0.80000000000E+02  0.80000000000E+02 0.  0.
          5    1    3    3  501    0 -0.20378815726E+02  0.11910817683E+02 -0.31949120359E+02  0.40000000000E+02  0.47000000000E+01 0. -1.
         -5    1    3    3    0  501  0.20378815726E+02 -0.11910817683E+02  0.31949120359E+02  0.40000000000E+02  0.47000000000E+01 0.  1.
</event>
<event>
 5    1  0.4781763E-001  0.8000000E+02  0.7546771E-02  0.1203772E+00
         11   -1    0    0    0    0  0.00000000000E+00  0.00000000000E+00  0.40000000000E+02  0.40000000000E+02  0.00000000000E+00 0. -1.
        -11   -1    0    0    0    0 -0.00000000000E+00 -0.00000000000E+00 -0.40000000000E+02  0.40000000000E+02  0.00000000000E+00 0.  1.
         23    2    1    2    0    0  0.00000000000E+00  0.00000000000E+00  0.00000000000E+00  0.80000000000E+02  0.80000000000E+02 0.  0.
          5    1    3    3  501    0  0.14254416382E+02  0.22713652555E+02  0.29305487561E+02  0.40000000000E+02  0.47000000000E+01 0. -1.
         -5    1    3    3    0  501 -0.14254416382E+02 -0.22713652555E+02 -0.29305487561E+02  0.40000000000E+02  0.47000000000E+01 0.  1.
</event>
<event>
 5    1  0.4781763E-001  0.8000000E+02  0.7546771E-02  0.1203772E+00
         11   -1    0    0    0    0  0.00000000000E+00  0.00000000000E+00  0.40000000000E+02  0.40000000000E+02  0.00000000000E+00 0.  1.
        -11   -1    0    0    0    0 -0.00000000000E+00 -0.00000000000E+00 -0.40000000000E+02  0.40000000000E+02  0.00000000000E+00 0. -1.
         23    2    1    2    0    0  0.00000000000E+00  0.00000000000E+00  0.00000000000E+00  0.80000000000E+02  0.80000000000E+02 0.  0.
          5    1    3    3  501    0  0.18637257232E+02  0.32321663613E+01 -0.34930155217E+02  0.40000000000E+02  0.47000000000E+01 0. -1.
         -5    1    3    3    0  501 -0.18637257232E+02 -0.32321663613E+01  0.34930155217E+02  0.40000000000E+02  0.47000000000E+01 0.  1.
</event>
<event>
 5    1  0.4781763E-001  0.8000000E+02  0.7546771E-02  0.1203772E+00
         11   -1    0    0    0    0  0.00000000000E+00  0.00000000000E+00  0.40000000000E+02  0.40000000000E+02  0.00000000000E+00 0. -1.
        -11   -1    0    0    0    0 -0.00000000000E+00 -0.00000000000E+00 -0.40000000000E+02  0.40000000000E+02  0.00000000000E+00 0.  1.
         23    2    1    2    0    0  0.00000000000E+00  0.00000000000E+00  0.00000000000E+00  0.80000000000E+02  0.80000000000E+02 0.  0.
          5    1    3    3  501    0 -0.26274878763E+02 -0.80250888099E+01  0.28690393786E+02  0.40000000000E+02  0.47000000000E+01 0. -1.
         -5    1    3    3    0  501  0.26274878763E+02  0.80250888099E+01 -0.28690393786E+02  0.40000000000E+02  0.47000000000E+01 0.  1.
</event>
<event>
 5    1  0.4781763E-001  0.8000000E+02  0.7546771E-02  0.1203772E+00
         11   -1    0    0    0    0  0.00000000000E+00  0.00000000000E+00  0.40000000000E+02  0.40000000000E+02  0.00000000000E+00 0.  1.
        -11   -1    0    0    0    0 -0.00000000000E+00 -0.00000000000E+00 -0.40000000000E+02  0.40000000000E+02  0.00000000000E+00 0. -1.
         23    2    1    2    0    0  0.00000000000E+00  0.00000000000E+00  0.00000000000E+00  0.80000000000E+02  0.80000000000E+02 0.  0.
          5    1    3    3  501    0 -0.38161591791E+02 -0.48071319911E+00 -0.11016888255E+02  0.40000000000E+02  0.47000000000E+01 0. -1.
         -5    1    3    3    0  501  0.38161591791E+02  0.48071319911E+00  0.11016888255E+02  0.40000000000E+02  0.47000000000E+01 0.  1.
</event>
<event>
 5    1  0.4781763E-001  0.8000000E+02  0.7546771E-02  0.1203772E+00
         11   -1    0    0    0    0  0.00000000000E+00  0.00000000000E+00  0.40000000000E+02  0.40000000000E+02  0.00000000000E+00 0.  1.
        -11   -1    0    0    0    0 -0.00000000000E+00 -0.00000000000E+00 -0.40000000000E+02  0.40000000000E+02  0.00000000000E+00 0. -1.
         23    2    1    2    0    0  0.00000000000E+00  0.00000000000E+00  0.00000000000E+00  0.80000000000E+02  0.80000000000E+02 0.  0.
          5    1    3    3  501    0  0.19752487930E+02 -0.21831324911E+01 -0.34394522138E+02  0.40000000000E+02  0.47000000000E+01 0. -1.
         -5    1    3    3    0  501 -0.19752487930E+02  0.21831324911E+01  0.34394522138E+02  0.40000000000E+02  0.47000000000E+01 0.  1.
</event>
<event>
 5    1  0.4781763E-001  0.8000000E+02  0.7546771E-02  0.1203772E+00
         11   -1    0    0    0    0  0.00000000000E+00  0.00000000000E+00  0.40000000000E+02  0.40000000000E+02  0.00000000000E+00 0. -1.
        -11   -1    0    0    0    0 -0.00000000000E+00 -0.00000000000E+00 -0.40000000000E+02  0.40000000000E+02  0.00000000000E+00 0.  1.
         23    2    1    2    0    0  0.00000000000E+00  0.00000000000E+00  0.00000000000E+00  0.80000000000E+02  0.80000000000E+02 0.  0.
          5    1    3    3  501    0  0.26034328893E+02 -0.25211047131E+02  0.16264280545E+02  0.40000000000E+02  0.47000000000E+01 0. -1.
         -5    1    3    3    0  501 -0.26034328893E+02  0.25211047131E+02 -0.16264280545E+02  0.40000000000E+02  0.47000000000E+01 0.  1.
</event>
<event>
 5    1  0.4781763E-001  0.8000000E+02  0.7546771E-02  0.1203772E+00
         11   -1    0    0    0    0  0.00000000000E+00  0.00000000000E+00  0.40000000000E+02  0.40000000000E+02  0.00000000000E+00 0.  1.
        -11   -1    0    0    0    0 -0.00000000000E+00 -0.00000000000E+00 -0.40000000000E+02  0.40000000000E+02  0.00000000000E+00 0. -1.
         23    2    1    2    0    0  0.00000000000E+00  0.00000000000E+00  0.00000000000E+00  0.80000000000E+02  0.80000000000E+02 0.  0.
          5    1    3    3  501    0 -0.10874075750E+01  0.39565805308E+02 -0.33577663795E+01  0.40000000000E+02  0.47000000000E+01 0. -1.
         -5    1    3    3    0  501  0.10874075750E+01 -0.39565805308E+02  0.33577663795E+01  0.40000000000E+02  0.47000000000E+01 0.  1.
</event>
<event>
 5    1  0.4781763E-001  0.8000000E+02  0.7546771E-02  0.1203772E+00
         11   -1    0    0    0    0  0.00000000000E+00  0.00000000000E+00  0.40000000000E+02  0.40000000000E+02  0.00000000000E+00 0.  1.
        -11   -1    0    0    0    0 -0.00000000000E+00 -0.00000000000E+00 -0.40000000000E+02  0.40000000000E+02  0.00000000000E+00 0. -1.
         23    2    1    2    0    0  0.00000000000E+00  0.00000000000E+00  0.00000000000E+00  0.80000000000E+02  0.80000000000E+02 0.  0.
          5    1    3    3  501    0 -0.96226078933E+01  0.31836743852E+02 -0.21719511004E+02  0.40000000000E+02  0.47000000000E+01 0. -1.
         -5    1    3    3    0  501  0.96226078933E+01 -0.31836743852E+02  0.21719511004E+02  0.40000000000E+02  0.47000000000E+01 0.  1.
</event>
<event>
 5    1  0.4781763E-001  0.8000000E+02  0.7546771E-02  0.1203772E+00
         11   -1    0    0    0    0  0.00000000000E+00  0.00000000000E+00  0.40000000000E+02  0.40000000000E+02  0.00000000000E+00 0. -1.
        -11   -1    0    0    0    0 -0.00000000000E+00 -0.00000000000E+00 -0.40000000000E+02  0.40000000000E+02  0.00000000000E+00 0.  1.
         23    2    1    2    0    0  0.00000000000E+00  0.00000000000E+00  0.00000000000E+00  0.80000000000E+02  0.80000000000E+02 0.  0.
          5    1    3    3  501    0  0.30255309410E+02 -0.25739535612E+02  0.50586041515E-01  0.40000000000E+02  0.47000000000E+01 0. -1.
         -5    1    3    3    0  501 -0.30255309410E+02  0.25739535612E+02 -0.50586041515E-01  0.40000000000E+02  0.47000000000E+01 0.  1.
</event>
<event>
 5    1  0.4781763E-001  0.8000000E+02  0.7546771E-02  0.1203772E+00
         11   -1    0    0    0    0  0.00000000000E+00  0.00000000000E+00  0.40000000000E+02  0.40000000000E+02  0.00000000000E+00 0.  1.
        -11   -1    0    0    0    0 -0.00000000000E+00 -0.00000000000E+00 -0.40000000000E+02  0.40000000000E+02  0.00000000000E+00 0. -1.
         23    2    1    2    0    0  0.00000000000E+00  0.00000000000E+00  0.00000000000E+00  0.80000000000E+02  0.80000000000E+02 0.  0.
          5    1    3    3  501    0 -0.58448937265E+01 -0.19974611487E+02 -0.33834333350E+02  0.40000000000E+02  0.47000000000E+01 0. -1.
         -5    1    3    3    0  501  0.58448937265E+01  0.19974611487E+02  0.33834333350E+02  0.40000000000E+02  0.47000000000E+01 0.  1.
</event>
<event>
 5    1  0.4781763E-001  0.8000000E+02  0.7546771E-02  0.1203772E+00
         11   -1    0    0    0    0  0.00000000000E+00  0.00000000000E+00  0.40000000000E+02  0.40000000000E+02  0.00000000000E+00 0. -1.
        -11   -1    0    0    0    0 -0.00000000000E+00 -0.00000000000E+00 -0.40000000000E+02  0.40000000000E+02  0.00000000000E+00 0.  1.
         23    2    1    2    0    0  0.00000000000E+00  0.00000000000E+00  0.00000000000E+00  0.80000000000E+02  0.80000000000E+02 0.  0.
          5    1    3    3  501    0 -0.25431985968E+02 -0.19105114635E+02  0.23793248717E+02  0.40000000000E+02  0.47000000000E+01 0. -1.
         -5    1    3    3    0  501  0.25431985968E+02  0.19105114635E+02 -0.23793248717E+02  0.40000000000E+02  0.47000000000E+01 0.  1.
</event>
<event>
 5    1  0.4781763E-001  0.8000000E+02  0.7546771E-02  0.1203772E+00
         11   -1    0    0    0    0  0.00000000000E+00  0.00000000000E+00  0.40000000000E+02  0.40000000000E+02  0.00000000000E+00 0.  1.
        -11   -1    0    0    0    0 -0.00000000000E+00 -0.00000000000E+00 -0.40000000000E+02  0.40000000000E+02  0.00000000000E+00 0. -1.
         23    2    1    2    0    0  0.00000000000E+00  0.00000000000E+00  0.00000000000E+00  0.80000000000E+02  0.80000000000E+02 0.  0.
          5    1    3    3  501    0  0.41415904459E+01  0.39435195489E+02  0.23711991360E+01  0.40000000000E+02  0.47000000000E+01 0. -1.
         -5    1    3    3    0  501 -0.41415904459E+01 -0.39435195489E+02 -0.23711991360E+01  0.40000000000E+02  0.47000000000E+01 0.  1.
</event>
<event>
 5    1  0.4781763E-001  0.8000000E+02  0.7546771E-02  0.1203772E+00
         11   -1    0    0    0    0  0.00000000000E+00  0.00000000000E+00  0.40000000000E+02  0.40000000000E+02  0.00000000000E+00 0.  1.
        -11   -1    0    0    0    0 -0.00000000000E+00 -0.00000000000E+00 -0.40000000000E+02  0.40000000000E+02  0.00000000000E+00 0. -1.
         23    2    1    2    0    0  0.00000000000E+00  0.00000000000E+00  0.00000000000E+00  0.80000000000E+02  0.80000000000E+02 0.  0.
          5    1    3    3  501    0  0.19130328596E+01  0.75448462791E+01 -0.38952863822E+02  0.40000000000E+02  0.47000000000E+01 0. -1.
         -5    1    3    3    0  501 -0.19130328596E+01 -0.75448462791E+01  0.38952863822E+02  0.40000000000E+02  0.47000000000E+01 0.  1.
</event>
<event>
 5    1  0.4781763E-001  0.8000000E+02  0.7546771E-02  0.1203772E+00
         11   -1    0    0    0    0  0.00000000000E+00  0.00000000000E+00  0.40000000000E+02  0.40000000000E+02  0.00000000000E+00 0. -1.
        -11   -1    0    0    0    0 -0.00000000000E+00 -0.00000000000E+00 -0.40000000000E+02  0.40000000000E+02  0.00000000000E+00 0.  1.
         23    2    1    2    0    0  0.00000000000E+00  0.00000000000E+00  0.00000000000E+00  0.80000000000E+02  0.80000000000E+02 0.  0.
          5    1    3    3  501    0  0.18912770109E+02 -0.14831143316E+02  0.31626797416E+02  0.40000000000E+02  0.47000000000E+01 0. -1.
         -5    1    3    3    0  501 -0.18912770109E+02  0.14831143316E+02 -0.31626797416E+02  0.40000000000E+02  0.47000000000E+01 0.  1.
</event>
<event>
 5    1  0.4781763E-001  0.8000000E+02  0.7546771E-02  0.1203772E+00
         11   -1    0    0    0    0  0.00000000000E+00  0.00000000000E+00  0.40000000000E+02  0.40000000000E+02  0.00000000000E+00 0. -1.
        -11   -1    0    0    0    0 -0.00000000000E+00 -0.00000000000E+00 -0.40000000000E+02  0.40000000000E+02  0.00000000000E+00 0.  1.
         23    2    1    2    0    0  0.00000000000E+00  0.00000000000E+00  0.00000000000E+00  0.80000000000E+02  0.80000000000E+02 0.  0.
          5    1    3    3  501    0 -0.31814626866E+02  0.13578723689E+02  0.19528383967E+02  0.40000000000E+02  0.47000000000E+01 0. -1.
         -5    1    3    3    0  501  0.31814626866E+02 -0.13578723689E+02 -0.19528383967E+02  0.40000000000E+02  0.47000000000E+01 0.  1.
</event>
<event>
 5    1  0.4781763E-001  0.8000000E+02  0.7546771E-02  0.1203772E+00
         11   -1    0    0    0    0  0.00000000000E+00  0.00000000000E+00  0.40000000000E+02  0.40000000000E+02  0.00000000000E+00 0.  1.
        -11   -1    0    0    0    0 -0.00000000000E+00 -0.00000000000E+00 -0.40000000000E+02  0.40000000000E+02  0.00000000000E+00 0. -1.
         23    2    1    2    0    0  0.00000000000E+00  0.00000000000E+00  0.00000000000E+00  0.80000000000E+02  0.80000000000E+02 0.  0.
          5    1    3    3  501    0  0.28583755257E+02  0.27538307404E+02 -0.15876273957E+01  0.40000000000E+02  0.47000000000E+01 0. -1.
         -5    1    3    3    0  501 -0.28583755257E+02 -0.27538307404E+02  0.15876273957E+01  0.40000000000E+02  0.47000000000E+01 0.  1.
</event>
<event>
 5    1  0.4781763E-001  0.8000000E+02  0.7546771E-02  0.1203772E+00
         11   -1    0    0    0    0  0.00000000000E+00  0.00000000000E+00  0.40000000000E+02  0.40000000000E+02  0.00000000000E+00 0. -1.
        -11   -1    0    0    0    0 -0.00000000000E+00 -0.00000000000E+00 -0.40000000000E+02  0.40000000000E+02  0.00000000000E+00 0.  1.
         23    2    1    2    0    0  0.00000000000E+00  0.00000000000E+00  0.00000000000E+00  0.80000000000E+02  0.80000000000E+02 0.  0.
          5    1    3    3  501    0 -0.84906479856E+01 -0.24779159916E+02  0.29863223715E+02  0.40000000000E+02  0.47000000000E+01 0. -1.
         -5    1    3    3    0  501  0.84906479856E+01  0.24779159916E+02 -0.29863223715E+02  0.40000000000E+02  0.47000000000E+01 0.  1.
</event>
<event>
 5    1  0.4781763E-001  0.8000000E+02  0.7546771E-02  0.1203772E+00
         11   -1    0    0    0    0  0.00000000000E+00  0.00000000000E+00  0.40000000000E+02  0.40000000000E+02  0.00000000000E+00 0.  1.
        -11   -1    0    0    0    0 -0.00000000000E+00 -0.00000000000E+00 -0.40000000000E+02  0.40000000000E+02  0.00000000000E+00 0. -1.
         23    2    1    2    0    0  0.00000000000E+00  0.00000000000E+00  0.00000000000E+00  0.80000000000E+02  0.80000000000E+02 0.  0.
          5    1    3    3  501    0  0.38414717894E+02  0.63744342793E+01  0.78476771578E+01  0.40000000000E+02  0.47000000000E+01 0. -1.
         -5    1    3    3    0  501 -0.38414717894E+02 -0.63744342793E+01 -0.78476771578E+01  0.40000000000E+02  0.47000000000E+01 0.  1.
</event>
<event>
 5    1  0.4781763E-001  0.8000000E+02  0.7546771E-02  0.1203772E+00
         11   -1    0    0    0    0  0.00000000000E+00  0.00000000000E+00  0.40000000000E+02  0.40000000000E+02  0.00000000000E+00 0. -1.
        -11   -1    0    0    0    0 -0.00000000000E+00 -0.00000000000E+00 -0.40000000000E+02  0.40000000000E+02  0.00000000000E+00 0.  1.
         23    2    1    2    0    0  0.00000000000E+00  0.00000000000E+00  0.00000000000E+00  0.80000000000E+02  0.80000000000E+02 0.  0.
          5    1    3    3  501    0  0.74284146565E+01  0.36678093862E+02  0.13320889098E+02  0.40000000000E+02  0.47000000000E+01 0. -1.
         -5    1    3    3    0  501 -0.74284146565E+01 -0.36678093862E+02 -0.13320889098E+02  0.40000000000E+02  0.47000000000E+01 0.  1.
</event>
<event>
 5    1  0.4781763E-001  0.8000000E+02  0.7546771E-02  0.1203772E+00
         11   -1    0    0    0    0  0.00000000000E+00  0.00000000000E+00  0.40000000000E+02  0.40000000000E+02  0.00000000000E+00 0.  1.
        -11   -1    0    0    0    0 -0.00000000000E+00 -0.00000000000E+00 -0.40000000000E+02  0.40000000000E+02  0.00000000000E+00 0. -1.
         23    2    1    2    0    0  0.00000000000E+00  0.00000000000E+00  0.00000000000E+00  0.80000000000E+02  0.80000000000E+02 0.  0.
          5    1    3    3  501    0 -0.25211281960E+02 -0.32146722722E+01 -0.30528136925E+02  0.40000000000E+02  0.47000000000E+01 0. -1.
         -5    1    3    3    0  501  0.25211281960E+02  0.32146722722E+01  0.30528136925E+02  0.40000000000E+02  0.47000000000E+01 0.  1.
</event>
<event>
 5    1  0.4781763E-001  0.8000000E+02  0.7546771E-02  0.1203772E+00
         11   -1    0    0    0    0  0.00000000000E+00  0.00000000000E+00  0.40000000000E+02  0.40000000000E+02  0.00000000000E+00 0. -1.
        -11   -1    0    0    0    0 -0.00000000000E+00 -0.00000000000E+00 -0.40000000000E+02  0.40000000000E+02  0.00000000000E+00 0.  1.
         23    2    1    2    0    0  0.00000000000E+00  0.00000000000E+00  0.00000000000E+00  0.80000000000E+02  0.80000000000E+02 0.  0.
          5    1    3    3  501    0 -0.36187162654E+01 -0.11351661903E+02  0.37893992461E+02  0.40000000000E+02  0.47000000000E+01 0. -1.
         -5    1    3    3    0  501  0.36187162654E+01  0.11351661903E+02 -0.37893992461E+02  0.40000000000E+02  0.47000000000E+01 0.  1.
</event>
<event>
 5    1  0.4781763E-001  0.8000000E+02  0.7546771E-02  0.1203772E+00
         11   -1    0    0    0    0  0.00000000000E+00  0.00000000000E+00  0.40000000000E+02  0.40000000000E+02  0.00000000000E+00 0. -1.
        -11   -1    0    0    0    0 -0.00000000000E+00 -0.00000000000E+00 -0.40000000000E+02  0.40000000000E+02  0.00000000000E+00 0.  1.
         23    2    1    2    0    0  0.00000000000E+00  0.00000000000E+00  0.00000000000E+00  0.80000000000E+02  0.80000000000E+02 0.  0.
          5    1    3    3  501    0  0.36126505450E+02  0.10508746723E+02  0.12741736392E+02  0.40000000000E+02  0.47000000000E+01 0. -1.
         -5    1    3    3    0  501 -0.36126505450E+02 -0.10508746723E+02 -0.12741736392E+02  0.40000000000E+02  0.47000000000E+01 0.  1.
</event>
<event>
 5    1  0.4781763E-001  0.8000000E+02  0.7546771E-02  0.1203772E+00
         11   -1    0    0    0    0  0.00000000000E+00  0.00000000000E+00  0.40000000000E+02  0.40000000000E+02  0.00000000000E+00 0. -1.
        -11   -1    0    0    0    0 -0.00000000000E+00 -0.00000000000E+00 -0.40000000000E+02  0.40000000000E+02  0.00000000000E+00 0.  1.
         23    2    1    2    0    0  0.00000000000E+00  0.00000000000E+00  0.00000000000E+00  0.80000000000E+02  0.80000000000E+02 0.  0.
          5    1    3    3  501    0  0.78312858053E+01  0.12880897281E+02  0.36751373415E+02  0.40000000000E+02  0.47000000000E+01 0. -1.
         -5    1    3    3    0  501 -0.78312858053E+01 -0.12880897281E+02 -0.36751373415E+02  0.40000000000E+02  0.47000000000E+01 0.  1.
</event>
<event>
 5    1  0.4781763E-001  0.8000000E+02  0.7546771E-02  0.1203772E+00
         11   -1    0    0    0    0  0.00000000000E+00  0.00000000000E+00  0.40000000000E+02  0.40000000000E+02  0.00000000000E+00 0. -1.
        -11   -1    0    0    0    0 -0.00000000000E+00 -0.00000000000E+00 -0.40000000000E+02  0.40000000000E+02  0.00000000000E+00 0.  1.
         23    2    1    2    0    0  0.00000000000E+00  0.00000000000E+00  0.00000000000E+00  0.80000000000E+02  0.80000000000E+02 0.  0.
          5    1    3    3  501    0 -0.24675426126E+02 -0.31042429894E+02  0.23239818806E+01  0.40000000000E+02  0.47000000000E+01 0. -1.
         -5    1    3    3    0  501  0.24675426126E+02  0.31042429894E+02 -0.23239818806E+01  0.40000000000E+02  0.47000000000E+01 0.  1.
</event>
<event>
 5    1  0.4781763E-001  0.8000000E+02  0.7546771E-02  0.1203772E+00
         11   -1    0    0    0    0  0.00000000000E+00  0.00000000000E+00  0.40000000000E+02  0.40000000000E+02  0.00000000000E+00 0.  1.
        -11   -1    0    0    0    0 -0.00000000000E+00 -0.00000000000E+00 -0.40000000000E+02  0.40000000000E+02  0.00000000000E+00 0. -1.
         23    2    1    2    0    0  0.00000000000E+00  0.00000000000E+00  0.00000000000E+00  0.80000000000E+02  0.80000000000E+02 0.  0.
          5    1    3    3  501    0 -0.79731909266E+01 -0.37309761982E+02  0.11059832155E+02  0.40000000000E+02  0.47000000000E+01 0. -1.
         -5    1    3    3    0  501  0.79731909266E+01  0.37309761982E+02 -0.11059832155E+02  0.40000000000E+02  0.47000000000E+01 0.  1.
</event>
<event>
 5    1  0.4781763E-001  0.8000000E+02  0.7546771E-02  0.1203772E+00
         11   -1    0    0    0    0  0.00000000000E+00  0.00000000000E+00  0.40000000000E+02  0.40000000000E+02  0.00000000000E+00 0.  1.
        -11   -1    0    0    0    0 -0.00000000000E+00 -0.00000000000E+00 -0.40000000000E+02  0.40000000000E+02  0.00000000000E+00 0. -1.
         23    2    1    2    0    0  0.00000000000E+00  0.00000000000E+00  0.00000000000E+00  0.80000000000E+02  0.80000000000E+02 0.  0.
          5    1    3    3  501    0  0.49746548561E+01 -0.12723136698E+02 -0.37299927636E+02  0.40000000000E+02  0.47000000000E+01 0. -1.
         -5    1    3    3    0  501 -0.49746548561E+01  0.12723136698E+02  0.37299927636E+02  0.40000000000E+02  0.47000000000E+01 0.  1.
</event>
<event>
 5    1  0.4781763E-001  0.8000000E+02  0.7546771E-02  0.1203772E+00
         11   -1    0    0    0    0  0.00000000000E+00  0.00000000000E+00  0.40000000000E+02  0.40000000000E+02  0.00000000000E+00 0.  1.
        -11   -1    0    0    0    0 -0.00000000000E+00 -0.00000000000E+00 -0.40000000000E+02  0.40000000000E+02  0.00000000000E+00 0. -1.
         23    2    1    2    0    0  0.00000000000E+00  0.00000000000E+00  0.00000000000E+00  0.80000000000E+02  0.80000000000E+02 0.  0.
          5    1    3    3  501    0 -0.34630350884E+02  0.17946788046E+02 -0.75207444103E+01  0.40000000000E+02  0.47000000000E+01 0. -1.
         -5    1    3    3    0  501  0.34630350884E+02 -0.17946788046E+02  0.75207444103E+01  0.40000000000E+02  0.47000000000E+01 0.  1.
</event>
<event>
 5    1  0.4781763E-001  0.8000000E+02  0.7546771E-02  0.1203772E+00
         11   -1    0    0    0    0  0.00000000000E+00  0.00000000000E+00  0.40000000000E+02  0.40000000000E+02  0.00000000000E+00 0. -1.
        -11   -1    0    0    0    0 -0.00000000000E+00 -0.00000000000E+00 -0.40000000000E+02  0.40000000000E+02  0.00000000000E+00 0.  1.
         23    2    1    2    0    0  0.00000000000E+00  0.00000000000E+00  0.00000000000E+00  0.80000000000E+02  0.80000000000E+02 0.  0.
          5    1    3    3  501    0 -0.17250004126E+01  0.18489496670E+02  0.35115137568E+02  0.40000000000E+02  0.47000000000E+01 0. -1.
         -5    1    3    3    0  501  0.17250004126E+01 -0.18489496670E+02 -0.35115137568E+02  0.40000000000E+02  0.47000000000E+01 0.  1.
</event>
<event>
 5    1  0.4781763E-001  0.8000000E+02  0.7546771E-02  0.1203772E+00
         11   -1    0    0    0    0  0.00000000000E+00  0.00000000000E+00  0.40000000000E+02  0.40000000000E+02  0.00000000000E+00 0. -1.
        -11   -1    0    0    0    0 -0.00000000000E+00 -0.00000000000E+00 -0.40000000000E+02  0.40000000000E+02  0.00000000000E+00 0.  1.
         23    2    1    2    0    0  0.00000000000E+00  0.00000000000E+00  0.00000000000E+00  0.80000000000E+02  0.80000000000E+02 0.  0.
          5    1    3    3  501    0  0.21804812650E+02  0.10925938345E+02  0.31354170641E+02  0.40000000000E+02  0.47000000000E+01 0. -1.
         -5    1    3    3    0  501 -0.21804812650E+02 -0.10925938345E+02 -0.31354170641E+02  0.40000000000E+02  0.47000000000E+01 0.  1.
</event>
<event>
 5    1  0.4781763E-001  0.8000000E+02  0.7546771E-02  0.1203772E+00
         11   -1    0    0    0    0  0.00000000000E+00  0.00000000000E+00  0.40000000000E+02  0.40000000000E+02  0.00000000000E+00 0.  1.
        -11   -1    0    0    0    0 -0.00000000000E+00 -0.00000000000E+00 -0.40000000000E+02  0.40000000000E+02  0.00000000000E+00 0. -1.
         23    2    1    2    0    0  0.00000000000E+00  0.00000000000E+00  0.00000000000E+00  0.80000000000E+02  0.80000000000E+02 0.  0.
          5    1    3    3  501    0  0.37380240345E+02 -0.13438281282E+02 -0.20056892662E+00  0.40000000000E+02  0.47000000000E+01 0. -1.
         -5    1    3    3    0  501 -0.37380240345E+02  0.13438281282E+02  0.20056892662E+00  0.40000000000E+02  0.47000000000E+01 0.  1.
</event>
<event>
 5    1  0.4781763E-001  0.8000000E+02  0.7546771E-02  0.1203772E+00
         11   -1    0    0    0    0  0.00000000000E+00  0.00000000000E+00  0.40000000000E+02  0.40000000000E+02  0.00000000000E+00 0.  1.
        -11   -1    0    0    0    0 -0.00000000000E+00 -0.00000000000E+00 -0.40000000000E+02  0.40000000000E+02  0.00000000000E+00 0. -1.
         23    2    1    2    0    0  0.00000000000E+00  0.00000000000E+00  0.00000000000E+00  0.80000000000E+02  0.80000000000E+02 0.  0.
          5    1    3    3  501    0 -0.38673414166E+02  0.72292146579E+01 -0.54786396304E+01  0.40000000000E+02  0.47000000000E+01 0. -1.
         -5    1    3    3    0  501  0.38673414166E+02 -0.72292146579E+01  0.54786396304E+01  0.40000000000E+02  0.47000000000E+01 0.  1.
</event>
<event>
 5    1  0.4781763E-001  0.8000000E+02  0.7546771E-02  0.1203772E+00
         11   -1    0    0    0    0  0.00000000000E+00  0.00000000000E+00  0.40000000000E+02  0.40000000000E+02  0.00000000000E+00 0. -1.
        -11   -1    0    0    0    0 -0.00000000000E+00 -0.00000000000E+00 -0.40000000000E+02  0.40000000000E+02  0.00000000000E+00 0.  1.
         23    2    1    2    0    0  0.00000000000E+00  0.00000000000E+00  0.00000000000E+00  0.80000000000E+02  0.80000000000E+02 0.  0.
          5    1    3    3  501    0  0.61899254343E+00  0.21032258781E+02  0.33692297915E+02  0.40000000000E+02  0.47000000000E+01 0. -1.
         -5    1    3    3    0  501 -0.61899254343E+00 -0.21032258781E+02 -0.33692297915E+02  0.40000000000E+02  0.47000000000E+01 0.  1.
</event>
<event>
 5    1  0.4781763E-001  0.8000000E+02  0.7546771E-02  0.1203772E+00
         11   -1    0    0    0    0  0.00000000000E+00  0.00000000000E+00  0.40000000000E+02  0.40000000000E+02  0.00000000000E+00 0. -1.
        -11   -1    0    0    0    0 -0.00000000000E+00 -0.00000000000E+00 -0.40000000000E+02  0.40000000000E+02  0.00000000000E+00 0.  1.
         23    2    1    2    0    0  0.00000000000E+00  0.00000000000E+00  0.00000000000E+00  0.80000000000E+02  0.80000000000E+02 0.  0.
          5    1    3    3  501    0  0.37833933261E+02 -0.11825457344E+02  0.25810952347E+01  0.40000000000E+02  0.47000000000E+01 0. -1.
         -5    1    3    3    0  501 -0.37833933261E+02  0.11825457344E+02 -0.25810952347E+01  0.40000000000E+02  0.47000000000E+01 0.  1.
</event>
<event>
 5    1  0.4781763E-001  0.8000000E+02  0.7546771E-02  0.1203772E+00
         11   -1    0    0    0    0  0.00000000000E+00  0.00000000000E+00  0.40000000000E+02  0.40000000000E+02  0.00000000000E+00 0.  1.
        -11   -1    0    0    0    0 -0.00000000000E+00 -0.00000000000E+00 -0.40000000000E+02  0.40000000000E+02  0.00000000000E+00 0. -1.
         23    2    1    2    0    0  0.00000000000E+00  0.00000000000E+00  0.00000000000E+00  0.80000000000E+02  0.80000000000E+02 0.  0.
          5    1    3    3  501    0 -0.62955536918E+01 -0.26086948175E+02 -0.29287320441E+02  0.40000000000E+02  0.47000000000E+01 0. -1.
         -5    1    3    3    0  501  0.62955536918E+01  0.26086948175E+02  0.29287320441E+02  0.40000000000E+02  0.47000000000E+01 0.  1.
</event>
<event>
 5    1  0.4781763E-001  0.8000000E+02  0.7546771E-02  0.1203772E+00
         11   -1    0    0    0    0  0.00000000000E+00  0.00000000000E+00  0.40000000000E+02  0.40000000000E+02  0.00000000000E+00 0. -1.
        -11   -1    0    0    0    0 -0.00000000000E+00 -0.00000000000E+00 -0.40000000000E+02  0.40000000000E+02  0.00000000000E+00 0.  1.
         23    2    1    2    0    0  0.00000000000E+00  0.00000000000E+00  0.00000000000E+00  0.80000000000E+02  0.80000000000E+02 0.  0.
          5    1    3    3  501    0  0.34936508503E+02 -0.68927944843E+01  0.17602265702E+02  0.40000000000E+02  0.47000000000E+01 0. -1.
         -5    1    3    3    0  501 -0.34936508503E+02  0.68927944843E+01 -0.17602265702E+02  0.40000000000E+02  0.47000000000E+01 0.  1.
</event>
<event>
 5    1  0.4781763E-001  0.8000000E+02  0.7546771E-02  0.1203772E+00
         11   -1    0    0    0    0  0.00000000000E+00  0.00000000000E+00  0.40000000000E+02  0.40000000000E+02  0.00000000000E+00 0. -1.
        -11   -1    0    0    0    0 -0.00000000000E+00 -0.00000000000E+00 -0.40000000000E+02  0.40000000000E+02  0.00000000000E+00 0.  1.
         23    2    1    2    0    0  0.00000000000E+00  0.00000000000E+00  0.00000000000E+00  0.80000000000E+02  0.80000000000E+02 0.  0.
          5    1    3    3  501    0 -0.26403829178E+01 -0.99388410421E+01  0.38368708824E+02  0.40000000000E+02  0.47000000000E+01 0. -1.
         -5    1    3    3    0  501  0.26403829178E+01  0.99388410421E+01 -0.38368708824E+02  0.40000000000E+02  0.47000000000E+01 0.  1.
</event>
<event>
 5    1  0.4781763E-001  0.8000000E+02  0.7546771E-02  0.1203772E+00
         11   -1    0    0    0    0  0.00000000000E+00  0.00000000000E+00  0.40000000000E+02  0.40000000000E+02  0.00000000000E+00 0.  1.
        -11   -1    0    0    0    0 -0.00000000000E+00 -0.00000000000E+00 -0.40000000000E+02  0.40000000000E+02  0.00000000000E+00 0. -1.
         23    2    1    2    0    0  0.00000000000E+00  0.00000000000E+00  0.00000000000E+00  0.80000000000E+02  0.80000000000E+02 0.  0.
          5    1    3    3  501    0  0.22501077408E+02  0.11161633656E+02 -0.30773843595E+02  0.40000000000E+02  0.47000000000E+01 0. -1.
         -5    1    3    3    0  501 -0.22501077408E+02 -0.11161633656E+02  0.30773843595E+02  0.40000000000E+02  0.47000000000E+01 0.  1.
</event>
<event>
 5    1  0.4781763E-001  0.8000000E+02  0.7546771E-02  0.1203772E+00
         11   -1    0    0    0    0  0.00000000000E+00  0.00000000000E+00  0.40000000000E+02  0.40000000000E+02  0.00000000000E+00 0.  1.
        -11   -1    0    0    0    0 -0.00000000000E+00 -0.00000000000E+00 -0.40000000000E+02  0.40000000000E+02  0.00000000000E+00 0. -1.
         23    2    1    2    0    0  0.00000000000E+00  0.00000000000E+00  0.00000000000E+00  0.80000000000E+02  0.80000000000E+02 0.  0.
          5    1    3    3  501    0  0.25903813799E+02 -0.25595514048E+02 -0.15867327793E+02  0.40000000000E+02  0.47000000000E+01 0. -1.
         -5    1    3    3    0  501 -0.25903813799E+02  0.25595514048E+02  0.15867327793E+02  0.40000000000E+02  0.47000000000E+01 0.  1.
</event>
<event>
 5    1  0.4781763E-001  0.8000000E+02  0.7546771E-02  0.1203772E+00
         11   -1    0    0    0    0  0.00000000000E+00  0.00000000000E+00  0.40000000000E+02  0.40000000000E+02  0.00000000000E+00 0. -1.
        -11   -1    0    0    0    0 -0.00000000000E+00 -0.00000000000E+00 -0.40000000000E+02  0.40000000000E+02  0.00000000000E+00 0.  1.
         23    2    1    2    0    0  0.00000000000E+00  0.00000000000E+00  0.00000000000E+00  0.80000000000E+02  0.80000000000E+02 0.  0.
          5    1    3    3  501    0  0.11971902590E+02 -0.37763003143E+02 -0.29221810377E+01  0.40000000000E+02  0.47000000000E+01 0. -1.
         -5    1    3    3    0  501 -0.11971902590E+02  0.37763003143E+02  0.29221810377E+01  0.40000000000E+02  0.47000000000E+01 0.  1.
</event>
<event>
 5    1  0.4781763E-001  0.8000000E+02  0.7546771E-02  0.1203772E+00
         11   -1    0    0    0    0  0.00000000000E+00  0.00000000000E+00  0.40000000000E+02  0.40000000000E+02  0.00000000000E+00 0. -1.
        -11   -1    0    0    0    0 -0.00000000000E+00 -0.00000000000E+00 -0.40000000000E+02  0.40000000000E+02  0.00000000000E+00 0.  1.
         23    2    1    2    0    0  0.00000000000E+00  0.00000000000E+00  0.00000000000E+00  0.80000000000E+02  0.80000000000E+02 0.  0.
          5    1    3    3  501    0 -0.33561311981E+02 -0.20985788372E+02  0.33384164691E+01  0.40000000000E+02  0.47000000000E+01 0. -1.
         -5    1    3    3    0  501  0.33561311981E+02  0.20985788372E+02 -0.33384164691E+01  0.40000000000E+02  0.47000000000E+01 0.  1.
</event>
<event>
 5    1  0.4781763E-001  0.8000000E+02  0.7546771E-02  0.1203772E+00
         11   -1    0    0    0    0  0.00000000000E+00  0.00000000000E+00  0.40000000000E+02  0.40000000000E+02  0.00000000000E+00 0.  1.
        -11   -1    0    0    0    0 -0.00000000000E+00 -0.00000000000E+00 -0.40000000000E+02  0.40000000000E+02  0.00000000000E+00 0. -1.
         23    2    1    2    0    0  0.00000000000E+00  0.00000000000E+00  0.00000000000E+00  0.80000000000E+02  0.80000000000E+02 0.  0.
          5    1    3    3  501    0  0.12322985940E+02  0.26667837234E+02 -0.26737248826E+02  0.40000000000E+02  0.47000000000E+01 0. -1.
         -5    1    3    3    0  501 -0.12322985940E+02 -0.26667837234E+02  0.26737248826E+02  0.40000000000E+02  0.47000000000E+01 0.  1.
</event>
<event>
 5    1  0.4781763E-001  0.8000000E+02  0.7546771E-02  0.1203772E+00
         11   -1    0    0    0    0  0.00000000000E+00  0.00000000000E+00  0.40000000000E+02  0.40000000000E+02  0.00000000000E+00 0. -1.
        -11   -1    0    0    0    0 -0.00000000000E+00 -0.00000000000E+00 -0.40000000000E+02  0.40000000000E+02  0.00000000000E+00 0.  1.
         23    2    1    2    0    0  0.00000000000E+00  0.00000000000E+00  0.00000000000E+00  0.80000000000E+02  0.80000000000E+02 0.  0.
          5    1    3    3  501    0  0.33873352966E+02  0.11281241414E+02  0.17413774748E+02  0.40000000000E+02  0.47000000000E+01 0. -1.
         -5    1    3    3    0  501 -0.33873352966E+02 -0.11281241414E+02 -0.17413774748E+02  0.40000000000E+02  0.47000000000E+01 0.  1.
</event>
<event>
 5    1  0.4781763E-001  0.8000000E+02  0.7546771E-02  0.1203772E+00
         11   -1    0    0    0    0  0.00000000000E+00  0.00000000000E+00  0.40000000000E+02  0.40000000000E+02  0.00000000000E+00 0. -1.
        -11   -1    0    0    0    0 -0.00000000000E+00 -0.00000000000E+00 -0.40000000000E+02  0.40000000000E+02  0.00000000000E+00 0.  1.
         23    2    1    2    0    0  0.00000000000E+00  0.00000000000E+00  0.00000000000E+00  0.80000000000E+02  0.80000000000E+02 0.  0.
          5    1    3    3  501    0 -0.16844131896E+02  0.35130299944E+02  0.77490158425E+01  0.40000000000E+02  0.47000000000E+01 0. -1.
         -5    1    3    3    0  501  0.16844131896E+02 -0.35130299944E+02 -0.77490158425E+01  0.40000000000E+02  0.47000000000E+01 0.  1.
</event>
<event>
 5    1  0.4781763E-001  0.8000000E+02  0.7546771E-02  0.1203772E+00
         11   -1    0    0    0    0  0.00000000000E+00  0.00000000000E+00  0.40000000000E+02  0.40000000000E+02  0.00000000000E+00 0.  1.
        -11   -1    0    0    0    0 -0.00000000000E+00 -0.00000000000E+00 -0.40000000000E+02  0.40000000000E+02  0.00000000000E+00 0. -1.
         23    2    1    2    0    0  0.00000000000E+00  0.00000000000E+00  0.00000000000E+00  0.80000000000E+02  0.80000000000E+02 0.  0.
          5    1    3    3  501    0 -0.26730376407E+02  0.17536870943E+01 -0.29331238615E+02  0.40000000000E+02  0.47000000000E+01 0. -1.
         -5    1    3    3    0  501  0.26730376407E+02 -0.17536870943E+01  0.29331238615E+02  0.40000000000E+02  0.47000000000E+01 0.  1.
</event>
<event>
 5    1  0.4781763E-001  0.8000000E+02  0.7546771E-02  0.1203772E+00
         11   -1    0    0    0    0  0.00000000000E+00  0.00000000000E+00  0.40000000000E+02  0.40000000000E+02  0.00000000000E+00 0.  1.
        -11   -1    0    0    0    0 -0.00000000000E+00 -0.00000000000E+00 -0.40000000000E+02  0.40000000000E+02  0.00000000000E+00 0. -1.
         23    2    1    2    0    0  0.00000000000E+00  0.00000000000E+00  0.00000000000E+00  0.80000000000E+02  0.80000000000E+02 0.  0.
          5    1    3    3  501    0  0.48641608315E+01  0.31552390447E+02 -0.23636763664E+02  0.40000000000E+02  0.47000000000E+01 0. -1.
         -5    1    3    3    0  501 -0.48641608315E+01 -0.31552390447E+02  0.23636763664E+02  0.40000000000E+02  0.47000000000E+01 0.  1.
</event>
<event>
 5    1  0.4781763E-001  0.8000000E+02  0.7546771E-02  0.1203772E+00
         11   -1    0    0    0    0  0.00000000000E+00  0.00000000000E+00  0.40000000000E+02  0.40000000000E+02  0.00000000000E+00 0. -1.
        -11   -1    0    0    0    0 -0.00000000000E+00 -0.00000000000E+00 -0.40000000000E+02  0.40000000000E+02  0.00000000000E+00 0.  1.
         23    2    1    2    0    0  0.00000000000E+00  0.00000000000E+00  0.00000000000E+00  0.80000000000E+02  0.80000000000E+02 0.  0.
          5    1    3    3  501    0 -0.36661140146E+02 -0.28551231021E-01 -0.15292808376E+02  0.40000000000E+02  0.47000000000E+01 0. -1.
         -5    1    3    3    0  501  0.36661140146E+02  0.28551231021E-01  0.15292808376E+02  0.40000000000E+02  0.47000000000E+01 0.  1.
</event>
<event>
 5    1  0.4781763E-001  0.8000000E+02  0.7546771E-02  0.1203772E+00
         11   -1    0    0    0    0  0.00000000000E+00  0.00000000000E+00  0.40000000000E+02  0.40000000000E+02  0.00000000000E+00 0. -1.
        -11   -1    0    0    0    0 -0.00000000000E+00 -0.00000000000E+00 -0.40000000000E+02  0.40000000000E+02  0.00000000000E+00 0.  1.
         23    2    1    2    0    0  0.00000000000E+00  0.00000000000E+00  0.00000000000E+00  0.80000000000E+02  0.80000000000E+02 0.  0.
          5    1    3    3  501    0 -0.13216094158E+02 -0.22461898802E+02  0.29978458223E+02  0.40000000000E+02  0.47000000000E+01 0. -1.
         -5    1    3    3    0  501  0.13216094158E+02  0.22461898802E+02 -0.29978458223E+02  0.40000000000E+02  0.47000000000E+01 0.  1.
</event>
<event>
 5    1  0.4781763E-001  0.8000000E+02  0.7546771E-02  0.1203772E+00
         11   -1    0    0    0    0  0.00000000000E+00  0.00000000000E+00  0.40000000000E+02  0.40000000000E+02  0.00000000000E+00 0.  1.
        -11   -1    0    0    0    0 -0.00000000000E+00 -0.00000000000E+00 -0.40000000000E+02  0.40000000000E+02  0.00000000000E+00 0. -1.
         23    2    1    2    0    0  0.00000000000E+00  0.00000000000E+00  0.00000000000E+00  0.80000000000E+02  0.80000000000E+02 0.  0.
          5    1    3    3  501    0  0.13030385576E+02  0.36885126982E+02  0.68997434231E+01  0.40000000000E+02  0.47000000000E+01 0. -1.
         -5    1    3    3    0  501 -0.13030385576E+02 -0.36885126982E+02 -0.68997434231E+01  0.40000000000E+02  0.47000000000E+01 0.  1.
</event>
<event>
 5    1  0.4781763E-001  0.8000000E+02  0.7546771E-02  0.1203772E+00
         11   -1    0    0    0    0  0.00000000000E+00  0.00000000000E+00  0.40000000000E+02  0.40000000000E+02  0.00000000000E+00 0. -1.
        -11   -1    0    0    0    0 -0.00000000000E+00 -0.00000000000E+00 -0.40000000000E+02  0.40000000000E+02  0.00000000000E+00 0.  1.
         23    2    1    2    0    0  0.00000000000E+00  0.00000000000E+00  0.00000000000E+00  0.80000000000E+02  0.80000000000E+02 0.  0.
          5    1    3    3  501    0 -0.35666845284E+02 -0.18985450539E+01  0.17383373498E+02  0.40000000000E+02  0.47000000000E+01 0. -1.
         -5    1    3    3    0  501  0.35666845284E+02  0.18985450539E+01 -0.17383373498E+02  0.40000000000E+02  0.47000000000E+01 0.  1.
</event>
<event>
 5    1  0.4781763E-001  0.8000000E+02  0.7546771E-02  0.1203772E+00
         11   -1    0    0    0    0  0.00000000000E+00  0.00000000000E+00  0.40000000000E+02  0.40000000000E+02  0.00000000000E+00 0. -1.
        -11   -1    0    0    0    0 -0.00000000000E+00 -0.00000000000E+00 -0.40000000000E+02  0.40000000000E+02  0.00000000000E+00 0.  1.
         23    2    1    2    0    0  0.00000000000E+00  0.00000000000E+00  0.00000000000E+00  0.80000000000E+02  0.80000000000E+02 0.  0.
          5    1    3    3  501    0  0.19301158826E+02  0.18419826388E+02  0.29429326594E+02  0.40000000000E+02  0.47000000000E+01 0. -1.
         -5    1    3    3    0  501 -0.19301158826E+02 -0.18419826388E+02 -0.29429326594E+02  0.40000000000E+02  0.47000000000E+01 0.  1.
</event>
<event>
 5    1  0.4781763E-001  0.8000000E+02  0.7546771E-02  0.1203772E+00
         11   -1    0    0    0    0  0.00000000000E+00  0.00000000000E+00  0.40000000000E+02  0.40000000000E+02  0.00000000000E+00 0. -1.
        -11   -1    0    0    0    0 -0.00000000000E+00 -0.00000000000E+00 -0.40000000000E+02  0.40000000000E+02  0.00000000000E+00 0.  1.
         23    2    1    2    0    0  0.00000000000E+00  0.00000000000E+00  0.00000000000E+00  0.80000000000E+02  0.80000000000E+02 0.  0.
          5    1    3    3  501    0 -0.33994222343E+02  0.18043453898E+02  0.98354775529E+01  0.40000000000E+02  0.47000000000E+01 0. -1.
         -5    1    3    3    0  501  0.33994222343E+02 -0.18043453898E+02 -0.98354775529E+01  0.40000000000E+02  0.47000000000E+01 0.  1.
</event>
<event>
 5    1  0.4781763E-001  0.8000000E+02  0.7546771E-02  0.1203772E+00
         11   -1    0    0    0    0  0.00000000000E+00  0.00000000000E+00  0.40000000000E+02  0.40000000000E+02  0.00000000000E+00 0. -1.
        -11   -1    0    0    0    0 -0.00000000000E+00 -0.00000000000E+00 -0.40000000000E+02  0.40000000000E+02  0.00000000000E+00 0.  1.
         23    2    1    2    0    0  0.00000000000E+00  0.00000000000E+00  0.00000000000E+00  0.80000000000E+02  0.80000000000E+02 0.  0.
          5    1    3    3  501    0  0.20599050543E+02  0.17134094892E+02 -0.29325959643E+02  0.40000000000E+02  0.47000000000E+01 0.  1.
         -5    1    3    3    0  501 -0.20599050543E+02 -0.17134094892E+02  0.29325959643E+02  0.40000000000E+02  0.47000000000E+01 0. -1.
</event>
<event>
 5    1  0.4781763E-001  0.8000000E+02  0.7546771E-02  0.1203772E+00
         11   -1    0    0    0    0  0.00000000000E+00  0.00000000000E+00  0.40000000000E+02  0.40000000000E+02  0.00000000000E+00 0. -1.
        -11   -1    0    0    0    0 -0.00000000000E+00 -0.00000000000E+00 -0.40000000000E+02  0.40000000000E+02  0.00000000000E+00 0.  1.
         23    2    1    2    0    0  0.00000000000E+00  0.00000000000E+00  0.00000000000E+00  0.80000000000E+02  0.80000000000E+02 0.  0.
          5    1    3    3  501    0  0.29031673128E+02  0.12547707780E+02  0.24033871615E+02  0.40000000000E+02  0.47000000000E+01 0.  1.
         -5    1    3    3    0  501 -0.29031673128E+02 -0.12547707780E+02 -0.24033871615E+02  0.40000000000E+02  0.47000000000E+01 0. -1.
</event>
<event>
 5    1  0.4781763E-001  0.8000000E+02  0.7546771E-02  0.1203772E+00
         11   -1    0    0    0    0  0.00000000000E+00  0.00000000000E+00  0.40000000000E+02  0.40000000000E+02  0.00000000000E+00 0.  1.
        -11   -1    0    0    0    0 -0.00000000000E+00 -0.00000000000E+00 -0.40000000000E+02  0.40000000000E+02  0.00000000000E+00 0. -1.
         23    2    1    2    0    0  0.00000000000E+00  0.00000000000E+00  0.00000000000E+00  0.80000000000E+02  0.80000000000E+02 0.  0.
          5    1    3    3  501    0  0.36000737245E+02  0.16366164018E+02 -0.37424047310E+01  0.40000000000E+02  0.47000000000E+01 0. -1.
         -5    1    3    3    0  501 -0.36000737245E+02 -0.16366164018E+02  0.37424047310E+01  0.40000000000E+02  0.47000000000E+01 0.  1.
</event>
<event>
 5    1  0.4781763E-001  0.8000000E+02  0.7546771E-02  0.1203772E+00
         11   -1    0    0    0    0  0.00000000000E+00  0.00000000000E+00  0.40000000000E+02  0.40000000000E+02  0.00000000000E+00 0. -1.
        -11   -1    0    0    0    0 -0.00000000000E+00 -0.00000000000E+00 -0.40000000000E+02  0.40000000000E+02  0.00000000000E+00 0.  1.
         23    2    1    2    0    0  0.00000000000E+00  0.00000000000E+00  0.00000000000E+00  0.80000000000E+02  0.80000000000E+02 0.  0.
          5    1    3    3  501    0  0.12081237342E+02  0.14738547657E+02  0.34852961384E+02  0.40000000000E+02  0.47000000000E+01 0. -1.
         -5    1    3    3    0  501 -0.12081237342E+02 -0.14738547657E+02 -0.34852961384E+02  0.40000000000E+02  0.47000000000E+01 0.  1.
</event>
<event>
 5    1  0.4781763E-001  0.8000000E+02  0.7546771E-02  0.1203772E+00
         11   -1    0    0    0    0  0.00000000000E+00  0.00000000000E+00  0.40000000000E+02  0.40000000000E+02  0.00000000000E+00 0.  1.
        -11   -1    0    0    0    0 -0.00000000000E+00 -0.00000000000E+00 -0.40000000000E+02  0.40000000000E+02  0.00000000000E+00 0. -1.
         23    2    1    2    0    0  0.00000000000E+00  0.00000000000E+00  0.00000000000E+00  0.80000000000E+02  0.80000000000E+02 0.  0.
          5    1    3    3  501    0 -0.26620357292E+02 -0.13879904473E+02 -0.26011820956E+02  0.40000000000E+02  0.47000000000E+01 0. -1.
         -5    1    3    3    0  501  0.26620357292E+02  0.13879904473E+02  0.26011820956E+02  0.40000000000E+02  0.47000000000E+01 0.  1.
</event>
<event>
 5    1  0.4781763E-001  0.8000000E+02  0.7546771E-02  0.1203772E+00
         11   -1    0    0    0    0  0.00000000000E+00  0.00000000000E+00  0.40000000000E+02  0.40000000000E+02  0.00000000000E+00 0. -1.
        -11   -1    0    0    0    0 -0.00000000000E+00 -0.00000000000E+00 -0.40000000000E+02  0.40000000000E+02  0.00000000000E+00 0.  1.
         23    2    1    2    0    0  0.00000000000E+00  0.00000000000E+00  0.00000000000E+00  0.80000000000E+02  0.80000000000E+02 0.  0.
          5    1    3    3  501    0  0.20666543760E+01 -0.25977802410E+02  0.29979871941E+02  0.40000000000E+02  0.47000000000E+01 0. -1.
         -5    1    3    3    0  501 -0.20666543760E+01  0.25977802410E+02 -0.29979871941E+02  0.40000000000E+02  0.47000000000E+01 0.  1.
</event>
<event>
 5    1  0.4781763E-001  0.8000000E+02  0.7546771E-02  0.1203772E+00
         11   -1    0    0    0    0  0.00000000000E+00  0.00000000000E+00  0.40000000000E+02  0.40000000000E+02  0.00000000000E+00 0.  1.
        -11   -1    0    0    0    0 -0.00000000000E+00 -0.00000000000E+00 -0.40000000000E+02  0.40000000000E+02  0.00000000000E+00 0. -1.
         23    2    1    2    0    0  0.00000000000E+00  0.00000000000E+00  0.00000000000E+00  0.80000000000E+02  0.80000000000E+02 0.  0.
          5    1    3    3  501    0  0.19699236243E+02  0.15362950172E+02 -0.30884135952E+02  0.40000000000E+02  0.47000000000E+01 0. -1.
         -5    1    3    3    0  501 -0.19699236243E+02 -0.15362950172E+02  0.30884135952E+02  0.40000000000E+02  0.47000000000E+01 0.  1.
</event>
<event>
 5    1  0.4781763E-001  0.8000000E+02  0.7546771E-02  0.1203772E+00
         11   -1    0    0    0    0  0.00000000000E+00  0.00000000000E+00  0.40000000000E+02  0.40000000000E+02  0.00000000000E+00 0. -1.
        -11   -1    0    0    0    0 -0.00000000000E+00 -0.00000000000E+00 -0.40000000000E+02  0.40000000000E+02  0.00000000000E+00 0.  1.
         23    2    1    2    0    0  0.00000000000E+00  0.00000000000E+00  0.00000000000E+00  0.80000000000E+02  0.80000000000E+02 0.  0.
          5    1    3    3  501    0  0.12790841657E+00 -0.37075836022E+02  0.14257490057E+02  0.40000000000E+02  0.47000000000E+01 0. -1.
         -5    1    3    3    0  501 -0.12790841657E+00  0.37075836022E+02 -0.14257490057E+02  0.40000000000E+02  0.47000000000E+01 0.  1.
</event>
<event>
 5    1  0.4781763E-001  0.8000000E+02  0.7546771E-02  0.1203772E+00
         11   -1    0    0    0    0  0.00000000000E+00  0.00000000000E+00  0.40000000000E+02  0.40000000000E+02  0.00000000000E+00 0. -1.
        -11   -1    0    0    0    0 -0.00000000000E+00 -0.00000000000E+00 -0.40000000000E+02  0.40000000000E+02  0.00000000000E+00 0.  1.
         23    2    1    2    0    0  0.00000000000E+00  0.00000000000E+00  0.00000000000E+00  0.80000000000E+02  0.80000000000E+02 0.  0.
          5    1    3    3  501    0 -0.23755058864E+02 -0.27776415137E+02  0.15558854086E+02  0.40000000000E+02  0.47000000000E+01 0. -1.
         -5    1    3    3    0  501  0.23755058864E+02  0.27776415137E+02 -0.15558854086E+02  0.40000000000E+02  0.47000000000E+01 0.  1.
</event>
<event>
 5    1  0.4781763E-001  0.8000000E+02  0.7546771E-02  0.1203772E+00
         11   -1    0    0    0    0  0.00000000000E+00  0.00000000000E+00  0.40000000000E+02  0.40000000000E+02  0.00000000000E+00 0.  1.
        -11   -1    0    0    0    0 -0.00000000000E+00 -0.00000000000E+00 -0.40000000000E+02  0.40000000000E+02  0.00000000000E+00 0. -1.
         23    2    1    2    0    0  0.00000000000E+00  0.00000000000E+00  0.00000000000E+00  0.80000000000E+02  0.80000000000E+02 0.  0.
          5    1    3    3  501    0  0.65115185136E+01 -0.29580315402E+02 -0.25700487688E+02  0.40000000000E+02  0.47000000000E+01 0. -1.
         -5    1    3    3    0  501 -0.65115185136E+01  0.29580315402E+02  0.25700487688E+02  0.40000000000E+02  0.47000000000E+01 0.  1.
</event>
<event>
 5    1  0.4781763E-001  0.8000000E+02  0.7546771E-02  0.1203772E+00
         11   -1    0    0    0    0  0.00000000000E+00  0.00000000000E+00  0.40000000000E+02  0.40000000000E+02  0.00000000000E+00 0.  1.
        -11   -1    0    0    0    0 -0.00000000000E+00 -0.00000000000E+00 -0.40000000000E+02  0.40000000000E+02  0.00000000000E+00 0. -1.
         23    2    1    2    0    0  0.00000000000E+00  0.00000000000E+00  0.00000000000E+00  0.80000000000E+02  0.80000000000E+02 0.  0.
          5    1    3    3  501    0  0.83711594231E+01 -0.22548622429E+02 -0.31613182637E+02  0.40000000000E+02  0.47000000000E+01 0. -1.
         -5    1    3    3    0  501 -0.83711594231E+01  0.22548622429E+02  0.31613182637E+02  0.40000000000E+02  0.47000000000E+01 0.  1.
</event>
<event>
 5    1  0.4781763E-001  0.8000000E+02  0.7546771E-02  0.1203772E+00
         11   -1    0    0    0    0  0.00000000000E+00  0.00000000000E+00  0.40000000000E+02  0.40000000000E+02  0.00000000000E+00 0.  1.
        -11   -1    0    0    0    0 -0.00000000000E+00 -0.00000000000E+00 -0.40000000000E+02  0.40000000000E+02  0.00000000000E+00 0. -1.
         23    2    1    2    0    0  0.00000000000E+00  0.00000000000E+00  0.00000000000E+00  0.80000000000E+02  0.80000000000E+02 0.  0.
          5    1    3    3  501    0  0.11839916366E+02 -0.32970527029E+02 -0.18726204310E+02  0.40000000000E+02  0.47000000000E+01 0. -1.
         -5    1    3    3    0  501 -0.11839916366E+02  0.32970527029E+02  0.18726204310E+02  0.40000000000E+02  0.47000000000E+01 0.  1.
</event>
<event>
 5    1  0.4781763E-001  0.8000000E+02  0.7546771E-02  0.1203772E+00
         11   -1    0    0    0    0  0.00000000000E+00  0.00000000000E+00  0.40000000000E+02  0.40000000000E+02  0.00000000000E+00 0. -1.
        -11   -1    0    0    0    0 -0.00000000000E+00 -0.00000000000E+00 -0.40000000000E+02  0.40000000000E+02  0.00000000000E+00 0.  1.
         23    2    1    2    0    0  0.00000000000E+00  0.00000000000E+00  0.00000000000E+00  0.80000000000E+02  0.80000000000E+02 0.  0.
          5    1    3    3  501    0  0.42995296840E+01 -0.28368479004E+02  0.27470956363E+02  0.40000000000E+02  0.47000000000E+01 0. -1.
         -5    1    3    3    0  501 -0.42995296840E+01  0.28368479004E+02 -0.27470956363E+02  0.40000000000E+02  0.47000000000E+01 0.  1.
</event>
<event>
 5    1  0.4781763E-001  0.8000000E+02  0.7546771E-02  0.1203772E+00
         11   -1    0    0    0    0  0.00000000000E+00  0.00000000000E+00  0.40000000000E+02  0.40000000000E+02  0.00000000000E+00 0. -1.
        -11   -1    0    0    0    0 -0.00000000000E+00 -0.00000000000E+00 -0.40000000000E+02  0.40000000000E+02  0.00000000000E+00 0.  1.
         23    2    1    2    0    0  0.00000000000E+00  0.00000000000E+00  0.00000000000E+00  0.80000000000E+02  0.80000000000E+02 0.  0.
          5    1    3    3  501    0  0.35799701739E+02  0.16975249214E+02 -0.28517134336E+01  0.40000000000E+02  0.47000000000E+01 0. -1.
         -5    1    3    3    0  501 -0.35799701739E+02 -0.16975249214E+02  0.28517134336E+01  0.40000000000E+02  0.47000000000E+01 0.  1.
</event>
<event>
 5    1  0.4781763E-001  0.8000000E+02  0.7546771E-02  0.1203772E+00
         11   -1    0    0    0    0  0.00000000000E+00  0.00000000000E+00  0.40000000000E+02  0.40000000000E+02  0.00000000000E+00 0.  1.
        -11   -1    0    0    0    0 -0.00000000000E+00 -0.00000000000E+00 -0.40000000000E+02  0.40000000000E+02  0.00000000000E+00 0. -1.
         23    2    1    2    0    0  0.00000000000E+00  0.00000000000E+00  0.00000000000E+00  0.80000000000E+02  0.80000000000E+02 0.  0.
          5    1    3    3  501    0  0.20318428485E+02 -0.33746161152E+02  0.51252386662E+01  0.40000000000E+02  0.47000000000E+01 0. -1.
         -5    1    3    3    0  501 -0.20318428485E+02  0.33746161152E+02 -0.51252386662E+01  0.40000000000E+02  0.47000000000E+01 0.  1.
</event>
<event>
 5    1  0.4781763E-001  0.8000000E+02  0.7546771E-02  0.1203772E+00
         11   -1    0    0    0    0  0.00000000000E+00  0.00000000000E+00  0.40000000000E+02  0.40000000000E+02  0.00000000000E+00 0.  1.
        -11   -1    0    0    0    0 -0.00000000000E+00 -0.00000000000E+00 -0.40000000000E+02  0.40000000000E+02  0.00000000000E+00 0. -1.
         23    2    1    2    0    0  0.00000000000E+00  0.00000000000E+00  0.00000000000E+00  0.80000000000E+02  0.80000000000E+02 0.  0.
          5    1    3    3  501    0 -0.12585987281E+02  0.15973715453E+01 -0.37642413954E+02  0.40000000000E+02  0.47000000000E+01 0. -1.
         -5    1    3    3    0  501  0.12585987281E+02 -0.15973715453E+01  0.37642413954E+02  0.40000000000E+02  0.47000000000E+01 0.  1.
</event>
<event>
 5    1  0.4781763E-001  0.8000000E+02  0.7546771E-02  0.1203772E+00
         11   -1    0    0    0    0  0.00000000000E+00  0.00000000000E+00  0.40000000000E+02  0.40000000000E+02  0.00000000000E+00 0.  1.
        -11   -1    0    0    0    0 -0.00000000000E+00 -0.00000000000E+00 -0.40000000000E+02  0.40000000000E+02  0.00000000000E+00 0. -1.
         23    2    1    2    0    0  0.00000000000E+00  0.00000000000E+00  0.00000000000E+00  0.80000000000E+02  0.80000000000E+02 0.  0.
          5    1    3    3  501    0  0.21066951194E+01 -0.39666509579E+02 -0.19963344439E+00  0.40000000000E+02  0.47000000000E+01 0. -1.
         -5    1    3    3    0  501 -0.21066951194E+01  0.39666509579E+02  0.19963344439E+00  0.40000000000E+02  0.47000000000E+01 0.  1.
</event>
<event>
 5    1  0.4781763E-001  0.8000000E+02  0.7546771E-02  0.1203772E+00
         11   -1    0    0    0    0  0.00000000000E+00  0.00000000000E+00  0.40000000000E+02  0.40000000000E+02  0.00000000000E+00 0. -1.
        -11   -1    0    0    0    0 -0.00000000000E+00 -0.00000000000E+00 -0.40000000000E+02  0.40000000000E+02  0.00000000000E+00 0.  1.
         23    2    1    2    0    0  0.00000000000E+00  0.00000000000E+00  0.00000000000E+00  0.80000000000E+02  0.80000000000E+02 0.  0.
          5    1    3    3  501    0 -0.13429657751E+02 -0.37090807669E+02  0.46718603493E+01  0.40000000000E+02  0.47000000000E+01 0. -1.
         -5    1    3    3    0  501  0.13429657751E+02  0.37090807669E+02 -0.46718603493E+01  0.40000000000E+02  0.47000000000E+01 0.  1.
</event>
<event>
 5    1  0.4781763E-001  0.8000000E+02  0.7546771E-02  0.1203772E+00
         11   -1    0    0    0    0  0.00000000000E+00  0.00000000000E+00  0.40000000000E+02  0.40000000000E+02  0.00000000000E+00 0.  1.
        -11   -1    0    0    0    0 -0.00000000000E+00 -0.00000000000E+00 -0.40000000000E+02  0.40000000000E+02  0.00000000000E+00 0. -1.
         23    2    1    2    0    0  0.00000000000E+00  0.00000000000E+00  0.00000000000E+00  0.80000000000E+02  0.80000000000E+02 0.  0.
          5    1    3    3  501    0  0.31076964151E+02 -0.19969511056E+02 -0.14606537143E+02  0.40000000000E+02  0.47000000000E+01 0. -1.
         -5    1    3    3    0  501 -0.31076964151E+02  0.19969511056E+02  0.14606537143E+02  0.40000000000E+02  0.47000000000E+01 0.  1.
</event>
<event>
 5    1  0.4781763E-001  0.8000000E+02  0.7546771E-02  0.1203772E+00
         11   -1    0    0    0    0  0.00000000000E+00  0.00000000000E+00  0.40000000000E+02  0.40000000000E+02  0.00000000000E+00 0. -1.
        -11   -1    0    0    0    0 -0.00000000000E+00 -0.00000000000E+00 -0.40000000000E+02  0.40000000000E+02  0.00000000000E+00 0.  1.
         23    2    1    2    0    0  0.00000000000E+00  0.00000000000E+00  0.00000000000E+00  0.80000000000E+02  0.80000000000E+02 0.  0.
          5    1    3    3  501    0 -0.31595790580E+01  0.39537893256E+02 -0.21638061478E+01  0.40000000000E+02  0.47000000000E+01 0. -1.
         -5    1    3    3    0  501  0.31595790580E+01 -0.39537893256E+02  0.21638061478E+01  0.40000000000E+02  0.47000000000E+01 0.  1.
</event>
<event>
 5    1  0.4781763E-001  0.8000000E+02  0.7546771E-02  0.1203772E+00
         11   -1    0    0    0    0  0.00000000000E+00  0.00000000000E+00  0.40000000000E+02  0.40000000000E+02  0.00000000000E+00 0.  1.
        -11   -1    0    0    0    0 -0.00000000000E+00 -0.00000000000E+00 -0.40000000000E+02  0.40000000000E+02  0.00000000000E+00 0. -1.
         23    2    1    2    0    0  0.00000000000E+00  0.00000000000E+00  0.00000000000E+00  0.80000000000E+02  0.80000000000E+02 0.  0.
          5    1    3    3  501    0  0.39074729608E+02 -0.52035844551E+01  0.48987972859E+01  0.40000000000E+02  0.47000000000E+01 0. -1.
         -5    1    3    3    0  501 -0.39074729608E+02  0.52035844551E+01 -0.48987972859E+01  0.40000000000E+02  0.47000000000E+01 0.  1.
</event>
<event>
 5    1  0.4781763E-001  0.8000000E+02  0.7546771E-02  0.1203772E+00
         11   -1    0    0    0    0  0.00000000000E+00  0.00000000000E+00  0.40000000000E+02  0.40000000000E+02  0.00000000000E+00 0.  1.
        -11   -1    0    0    0    0 -0.00000000000E+00 -0.00000000000E+00 -0.40000000000E+02  0.40000000000E+02  0.00000000000E+00 0. -1.
         23    2    1    2    0    0  0.00000000000E+00  0.00000000000E+00  0.00000000000E+00  0.80000000000E+02  0.80000000000E+02 0.  0.
          5    1    3    3  501    0  0.29960079739E+02  0.25503799625E+02  0.54644145801E+01  0.40000000000E+02  0.47000000000E+01 0. -1.
         -5    1    3    3    0  501 -0.29960079739E+02 -0.25503799625E+02 -0.54644145801E+01  0.40000000000E+02  0.47000000000E+01 0.  1.
</event>
<event>
 5    1  0.4781763E-001  0.8000000E+02  0.7546771E-02  0.1203772E+00
         11   -1    0    0    0    0  0.00000000000E+00  0.00000000000E+00  0.40000000000E+02  0.40000000000E+02  0.00000000000E+00 0.  1.
        -11   -1    0    0    0    0 -0.00000000000E+00 -0.00000000000E+00 -0.40000000000E+02  0.40000000000E+02  0.00000000000E+00 0. -1.
         23    2    1    2    0    0  0.00000000000E+00  0.00000000000E+00  0.00000000000E+00  0.80000000000E+02  0.80000000000E+02 0.  0.
          5    1    3    3  501    0 -0.16183797514E+02 -0.22053590933E+02 -0.28803364821E+02  0.40000000000E+02  0.47000000000E+01 0. -1.
         -5    1    3    3    0  501  0.16183797514E+02  0.22053590933E+02  0.28803364821E+02  0.40000000000E+02  0.47000000000E+01 0.  1.
</event>
<event>
 5    1  0.4781763E-001  0.8000000E+02  0.7546771E-02  0.1203772E+00
         11   -1    0    0    0    0  0.00000000000E+00  0.00000000000E+00  0.40000000000E+02  0.40000000000E+02  0.00000000000E+00 0.  1.
        -11   -1    0    0    0    0 -0.00000000000E+00 -0.00000000000E+00 -0.40000000000E+02  0.40000000000E+02  0.00000000000E+00 0. -1.
         23    2    1    2    0    0  0.00000000000E+00  0.00000000000E+00  0.00000000000E+00  0.80000000000E+02  0.80000000000E+02 0.  0.
          5    1    3    3  501    0  0.24017104795E+02  0.26595711873E+02 -0.17139334504E+02  0.40000000000E+02  0.47000000000E+01 0. -1.
         -5    1    3    3    0  501 -0.24017104795E+02 -0.26595711873E+02  0.17139334504E+02  0.40000000000E+02  0.47000000000E+01 0.  1.
</event>
<event>
 5    1  0.4781763E-001  0.8000000E+02  0.7546771E-02  0.1203772E+00
         11   -1    0    0    0    0  0.00000000000E+00  0.00000000000E+00  0.40000000000E+02  0.40000000000E+02  0.00000000000E+00 0.  1.
        -11   -1    0    0    0    0 -0.00000000000E+00 -0.00000000000E+00 -0.40000000000E+02  0.40000000000E+02  0.00000000000E+00 0. -1.
         23    2    1    2    0    0  0.00000000000E+00  0.00000000000E+00  0.00000000000E+00  0.80000000000E+02  0.80000000000E+02 0.  0.
          5    1    3    3  501    0  0.12379777888E+02 -0.15818233937E+02 -0.34270024432E+02  0.40000000000E+02  0.47000000000E+01 0. -1.
         -5    1    3    3    0  501 -0.12379777888E+02  0.15818233937E+02  0.34270024432E+02  0.40000000000E+02  0.47000000000E+01 0.  1.
</event>
<event>
 5    1  0.4781763E-001  0.8000000E+02  0.7546771E-02  0.1203772E+00
         11   -1    0    0    0    0  0.00000000000E+00  0.00000000000E+00  0.40000000000E+02  0.40000000000E+02  0.00000000000E+00 0.  1.
        -11   -1    0    0    0    0 -0.00000000000E+00 -0.00000000000E+00 -0.40000000000E+02  0.40000000000E+02  0.00000000000E+00 0. -1.
         23    2    1    2    0    0  0.00000000000E+00  0.00000000000E+00  0.00000000000E+00  0.80000000000E+02  0.80000000000E+02 0.  0.
          5    1    3    3  501    0 -0.38037825943E+02  0.46025848273E+00 -0.11437742768E+02  0.40000000000E+02  0.47000000000E+01 0. -1.
         -5    1    3    3    0  501  0.38037825943E+02 -0.46025848273E+00  0.11437742768E+02  0.40000000000E+02  0.47000000000E+01 0.  1.
</event>
<event>
 5    1  0.4781763E-001  0.8000000E+02  0.7546771E-02  0.1203772E+00
         11   -1    0    0    0    0  0.00000000000E+00  0.00000000000E+00  0.40000000000E+02  0.40000000000E+02  0.00000000000E+00 0. -1.
        -11   -1    0    0    0    0 -0.00000000000E+00 -0.00000000000E+00 -0.40000000000E+02  0.40000000000E+02  0.00000000000E+00 0.  1.
         23    2    1    2    0    0  0.00000000000E+00  0.00000000000E+00  0.00000000000E+00  0.80000000000E+02  0.80000000000E+02 0.  0.
          5    1    3    3  501    0 -0.10763971033E+02 -0.26274121249E+02  0.27779803458E+02  0.40000000000E+02  0.47000000000E+01 0. -1.
         -5    1    3    3    0  501  0.10763971033E+02  0.26274121249E+02 -0.27779803458E+02  0.40000000000E+02  0.47000000000E+01 0.  1.
</event>
<event>
 5    1  0.4781763E-001  0.8000000E+02  0.7546771E-02  0.1203772E+00
         11   -1    0    0    0    0  0.00000000000E+00  0.00000000000E+00  0.40000000000E+02  0.40000000000E+02  0.00000000000E+00 0. -1.
        -11   -1    0    0    0    0 -0.00000000000E+00 -0.00000000000E+00 -0.40000000000E+02  0.40000000000E+02  0.00000000000E+00 0.  1.
         23    2    1    2    0    0  0.00000000000E+00  0.00000000000E+00  0.00000000000E+00  0.80000000000E+02  0.80000000000E+02 0.  0.
          5    1    3    3  501    0  0.15931076008E+02 -0.24590454190E+02 -0.26822012974E+02  0.40000000000E+02  0.47000000000E+01 0.  1.
         -5    1    3    3    0  501 -0.15931076008E+02  0.24590454190E+02  0.26822012974E+02  0.40000000000E+02  0.47000000000E+01 0. -1.
</event>
<event>
 5    1  0.4781763E-001  0.8000000E+02  0.7546771E-02  0.1203772E+00
         11   -1    0    0    0    0  0.00000000000E+00  0.00000000000E+00  0.40000000000E+02  0.40000000000E+02  0.00000000000E+00 0. -1.
        -11   -1    0    0    0    0 -0.00000000000E+00 -0.00000000000E+00 -0.40000000000E+02  0.40000000000E+02  0.00000000000E+00 0.  1.
         23    2    1    2    0    0  0.00000000000E+00  0.00000000000E+00  0.00000000000E+00  0.80000000000E+02  0.80000000000E+02 0.  0.
          5    1    3    3  501    0  0.29904131868E+01 -0.13580642126E+02  0.37209321257E+02  0.40000000000E+02  0.47000000000E+01 0. -1.
         -5    1    3    3    0  501 -0.29904131868E+01  0.13580642126E+02 -0.37209321257E+02  0.40000000000E+02  0.47000000000E+01 0.  1.
</event>
<event>
 5    1  0.4781763E-001  0.8000000E+02  0.7546771E-02  0.1203772E+00
         11   -1    0    0    0    0  0.00000000000E+00  0.00000000000E+00  0.40000000000E+02  0.40000000000E+02  0.00000000000E+00 0.  1.
        -11   -1    0    0    0    0 -0.00000000000E+00 -0.00000000000E+00 -0.40000000000E+02  0.40000000000E+02  0.00000000000E+00 0. -1.
         23    2    1    2    0    0  0.00000000000E+00  0.00000000000E+00  0.00000000000E+00  0.80000000000E+02  0.80000000000E+02 0.  0.
          5    1    3    3  501    0  0.20411083255E+01  0.19525301518E+02 -0.34532687087E+02  0.40000000000E+02  0.47000000000E+01 0. -1.
         -5    1    3    3    0  501 -0.20411083255E+01 -0.19525301518E+02  0.34532687087E+02  0.40000000000E+02  0.47000000000E+01 0.  1.
</event>
<event>
 5    1  0.4781763E-001  0.8000000E+02  0.7546771E-02  0.1203772E+00
         11   -1    0    0    0    0  0.00000000000E+00  0.00000000000E+00  0.40000000000E+02  0.40000000000E+02  0.00000000000E+00 0.  1.
        -11   -1    0    0    0    0 -0.00000000000E+00 -0.00000000000E+00 -0.40000000000E+02  0.40000000000E+02  0.00000000000E+00 0. -1.
         23    2    1    2    0    0  0.00000000000E+00  0.00000000000E+00  0.00000000000E+00  0.80000000000E+02  0.80000000000E+02 0.  0.
          5    1    3    3  501    0  0.26365229399E+02  0.26263085176E+02 -0.13893704897E+02  0.40000000000E+02  0.47000000000E+01 0. -1.
         -5    1    3    3    0  501 -0.26365229399E+02 -0.26263085176E+02  0.13893704897E+02  0.40000000000E+02  0.47000000000E+01 0.  1.
</event>
<event>
 5    1  0.4781763E-001  0.8000000E+02  0.7546771E-02  0.1203772E+00
         11   -1    0    0    0    0  0.00000000000E+00  0.00000000000E+00  0.40000000000E+02  0.40000000000E+02  0.00000000000E+00 0.  1.
        -11   -1    0    0    0    0 -0.00000000000E+00 -0.00000000000E+00 -0.40000000000E+02  0.40000000000E+02  0.00000000000E+00 0. -1.
         23    2    1    2    0    0  0.00000000000E+00  0.00000000000E+00  0.00000000000E+00  0.80000000000E+02  0.80000000000E+02 0.  0.
          5    1    3    3  501    0 -0.47101888865E+01  0.68095338119E+01 -0.38850410164E+02  0.40000000000E+02  0.47000000000E+01 0. -1.
         -5    1    3    3    0  501  0.47101888865E+01 -0.68095338119E+01  0.38850410164E+02  0.40000000000E+02  0.47000000000E+01 0.  1.
</event>
<event>
 5    1  0.4781763E-001  0.8000000E+02  0.7546771E-02  0.1203772E+00
         11   -1    0    0    0    0  0.00000000000E+00  0.00000000000E+00  0.40000000000E+02  0.40000000000E+02  0.00000000000E+00 0.  1.
        -11   -1    0    0    0    0 -0.00000000000E+00 -0.00000000000E+00 -0.40000000000E+02  0.40000000000E+02  0.00000000000E+00 0. -1.
         23    2    1    2    0    0  0.00000000000E+00  0.00000000000E+00  0.00000000000E+00  0.80000000000E+02  0.80000000000E+02 0.  0.
          5    1    3    3  501    0  0.33574903394E+02 -0.20334665209E+02 -0.60940342094E+01  0.40000000000E+02  0.47000000000E+01 0. -1.
         -5    1    3    3    0  501 -0.33574903394E+02  0.20334665209E+02  0.60940342094E+01  0.40000000000E+02  0.47000000000E+01 0.  1.
</event>
<event>
 5    1  0.4781763E-001  0.8000000E+02  0.7546771E-02  0.1203772E+00
         11   -1    0    0    0    0  0.00000000000E+00  0.00000000000E+00  0.40000000000E+02  0.40000000000E+02  0.00000000000E+00 0.  1.
        -11   -1    0    0    0    0 -0.00000000000E+00 -0.00000000000E+00 -0.40000000000E+02  0.40000000000E+02  0.00000000000E+00 0. -1.
         23    2    1    2    0    0  0.00000000000E+00  0.00000000000E+00  0.00000000000E+00  0.80000000000E+02  0.80000000000E+02 0.  0.
          5    1    3    3  501    0  0.19618305220E+02  0.75381939538E+01 -0.33707680612E+02  0.40000000000E+02  0.47000000000E+01 0. -1.
         -5    1    3    3    0  501 -0.19618305220E+02 -0.75381939538E+01  0.33707680612E+02  0.40000000000E+02  0.47000000000E+01 0.  1.
</event>
<event>
 5    1  0.4781763E-001  0.8000000E+02  0.7546771E-02  0.1203772E+00
         11   -1    0    0    0    0  0.00000000000E+00  0.00000000000E+00  0.40000000000E+02  0.40000000000E+02  0.00000000000E+00 0. -1.
        -11   -1    0    0    0    0 -0.00000000000E+00 -0.00000000000E+00 -0.40000000000E+02  0.40000000000E+02  0.00000000000E+00 0.  1.
         23    2    1    2    0    0  0.00000000000E+00  0.00000000000E+00  0.00000000000E+00  0.80000000000E+02  0.80000000000E+02 0.  0.
          5    1    3    3  501    0  0.35486462586E+02 -0.17710802398E+02  0.22245115275E+01  0.40000000000E+02  0.47000000000E+01 0. -1.
         -5    1    3    3    0  501 -0.35486462586E+02  0.17710802398E+02 -0.22245115275E+01  0.40000000000E+02  0.47000000000E+01 0.  1.
</event>
<event>
 5    1  0.4781763E-001  0.8000000E+02  0.7546771E-02  0.1203772E+00
         11   -1    0    0    0    0  0.00000000000E+00  0.00000000000E+00  0.40000000000E+02  0.40000000000E+02  0.00000000000E+00 0.  1.
        -11   -1    0    0    0    0 -0.00000000000E+00 -0.00000000000E+00 -0.40000000000E+02  0.40000000000E+02  0.00000000000E+00 0. -1.
         23    2    1    2    0    0  0.00000000000E+00  0.00000000000E+00  0.00000000000E+00  0.80000000000E+02  0.80000000000E+02 0.  0.
          5    1    3    3  501    0 -0.54110002324E+01 -0.10173606035E+02 -0.38014849950E+02  0.40000000000E+02  0.47000000000E+01 0. -1.
         -5    1    3    3    0  501  0.54110002324E+01  0.10173606035E+02  0.38014849950E+02  0.40000000000E+02  0.47000000000E+01 0.  1.
</event>
<event>
 5    1  0.4781763E-001  0.8000000E+02  0.7546771E-02  0.1203772E+00
         11   -1    0    0    0    0  0.00000000000E+00  0.00000000000E+00  0.40000000000E+02  0.40000000000E+02  0.00000000000E+00 0.  1.
        -11   -1    0    0    0    0 -0.00000000000E+00 -0.00000000000E+00 -0.40000000000E+02  0.40000000000E+02  0.00000000000E+00 0. -1.
         23    2    1    2    0    0  0.00000000000E+00  0.00000000000E+00  0.00000000000E+00  0.80000000000E+02  0.80000000000E+02 0.  0.
          5    1    3    3  501    0 -0.34038211208E+02  0.52319904176E+01  0.19797385029E+02  0.40000000000E+02  0.47000000000E+01 0. -1.
         -5    1    3    3    0  501  0.34038211208E+02 -0.52319904176E+01 -0.19797385029E+02  0.40000000000E+02  0.47000000000E+01 0.  1.
</event>
<event>
 5    1  0.4781763E-001  0.8000000E+02  0.7546771E-02  0.1203772E+00
         11   -1    0    0    0    0  0.00000000000E+00  0.00000000000E+00  0.40000000000E+02  0.40000000000E+02  0.00000000000E+00 0.  1.
        -11   -1    0    0    0    0 -0.00000000000E+00 -0.00000000000E+00 -0.40000000000E+02  0.40000000000E+02  0.00000000000E+00 0. -1.
         23    2    1    2    0    0  0.00000000000E+00  0.00000000000E+00  0.00000000000E+00  0.80000000000E+02  0.80000000000E+02 0.  0.
          5    1    3    3  501    0  0.18776628692E+02  0.34898349422E+02 -0.27300957041E+01  0.40000000000E+02  0.47000000000E+01 0. -1.
         -5    1    3    3    0  501 -0.18776628692E+02 -0.34898349422E+02  0.27300957041E+01  0.40000000000E+02  0.47000000000E+01 0.  1.
</event>
<event>
 5    1  0.4781763E-001  0.8000000E+02  0.7546771E-02  0.1203772E+00
         11   -1    0    0    0    0  0.00000000000E+00  0.00000000000E+00  0.40000000000E+02  0.40000000000E+02  0.00000000000E+00 0. -1.
        -11   -1    0    0    0    0 -0.00000000000E+00 -0.00000000000E+00 -0.40000000000E+02  0.40000000000E+02  0.00000000000E+00 0.  1.
         23    2    1    2    0    0  0.00000000000E+00  0.00000000000E+00  0.00000000000E+00  0.80000000000E+02  0.80000000000E+02 0.  0.
          5    1    3    3  501    0 -0.32398999515E+02  0.19757358706E+02 -0.11741448266E+02  0.40000000000E+02  0.47000000000E+01 0. -1.
         -5    1    3    3    0  501  0.32398999515E+02 -0.19757358706E+02  0.11741448266E+02  0.40000000000E+02  0.47000000000E+01 0.  1.
</event>
<event>
 5    1  0.4781763E-001  0.8000000E+02  0.7546771E-02  0.1203772E+00
         11   -1    0    0    0    0  0.00000000000E+00  0.00000000000E+00  0.40000000000E+02  0.40000000000E+02  0.00000000000E+00 0.  1.
        -11   -1    0    0    0    0 -0.00000000000E+00 -0.00000000000E+00 -0.40000000000E+02  0.40000000000E+02  0.00000000000E+00 0. -1.
         23    2    1    2    0    0  0.00000000000E+00  0.00000000000E+00  0.00000000000E+00  0.80000000000E+02  0.80000000000E+02 0.  0.
          5    1    3    3  501    0 -0.39413701578E+02 -0.37274940868E+01 -0.32520633022E+01  0.40000000000E+02  0.47000000000E+01 0. -1.
         -5    1    3    3    0  501  0.39413701578E+02  0.37274940868E+01  0.32520633022E+01  0.40000000000E+02  0.47000000000E+01 0.  1.
</event>
<event>
 5    1  0.4781763E-001  0.8000000E+02  0.7546771E-02  0.1203772E+00
         11   -1    0    0    0    0  0.00000000000E+00  0.00000000000E+00  0.40000000000E+02  0.40000000000E+02  0.00000000000E+00 0.  1.
        -11   -1    0    0    0    0 -0.00000000000E+00 -0.00000000000E+00 -0.40000000000E+02  0.40000000000E+02  0.00000000000E+00 0. -1.
         23    2    1    2    0    0  0.00000000000E+00  0.00000000000E+00  0.00000000000E+00  0.80000000000E+02  0.80000000000E+02 0.  0.
          5    1    3    3  501    0 -0.33976017955E+02  0.19669005198E+02 -0.60556121430E+01  0.40000000000E+02  0.47000000000E+01 0. -1.
         -5    1    3    3    0  501  0.33976017955E+02 -0.19669005198E+02  0.60556121430E+01  0.40000000000E+02  0.47000000000E+01 0.  1.
</event>
<event>
 5    1  0.4781763E-001  0.8000000E+02  0.7546771E-02  0.1203772E+00
         11   -1    0    0    0    0  0.00000000000E+00  0.00000000000E+00  0.40000000000E+02  0.40000000000E+02  0.00000000000E+00 0.  1.
        -11   -1    0    0    0    0 -0.00000000000E+00 -0.00000000000E+00 -0.40000000000E+02  0.40000000000E+02  0.00000000000E+00 0. -1.
         23    2    1    2    0    0  0.00000000000E+00  0.00000000000E+00  0.00000000000E+00  0.80000000000E+02  0.80000000000E+02 0.  0.
          5    1    3    3  501    0  0.12069583706E+02  0.19862660912E+02 -0.32213504167E+02  0.40000000000E+02  0.47000000000E+01 0. -1.
         -5    1    3    3    0  501 -0.12069583706E+02 -0.19862660912E+02  0.32213504167E+02  0.40000000000E+02  0.47000000000E+01 0.  1.
</event>
<event>
 5    1  0.4781763E-001  0.8000000E+02  0.7546771E-02  0.1203772E+00
         11   -1    0    0    0    0  0.00000000000E+00  0.00000000000E+00  0.40000000000E+02  0.40000000000E+02  0.00000000000E+00 0. -1.
        -11   -1    0    0    0    0 -0.00000000000E+00 -0.00000000000E+00 -0.40000000000E+02  0.40000000000E+02  0.00000000000E+00 0.  1.
         23    2    1    2    0    0  0.00000000000E+00  0.00000000000E+00  0.00000000000E+00  0.80000000000E+02  0.80000000000E+02 0.  0.
          5    1    3    3  501    0  0.31945630210E+02 -0.18594947392E+02  0.14546980512E+02  0.40000000000E+02  0.47000000000E+01 0. -1.
         -5    1    3    3    0  501 -0.31945630210E+02  0.18594947392E+02 -0.14546980512E+02  0.40000000000E+02  0.47000000000E+01 0.  1.
</event>
<event>
 5    1  0.4781763E-001  0.8000000E+02  0.7546771E-02  0.1203772E+00
         11   -1    0    0    0    0  0.00000000000E+00  0.00000000000E+00  0.40000000000E+02  0.40000000000E+02  0.00000000000E+00 0.  1.
        -11   -1    0    0    0    0 -0.00000000000E+00 -0.00000000000E+00 -0.40000000000E+02  0.40000000000E+02  0.00000000000E+00 0. -1.
         23    2    1    2    0    0  0.00000000000E+00  0.00000000000E+00  0.00000000000E+00  0.80000000000E+02  0.80000000000E+02 0.  0.
          5    1    3    3  501    0  0.18307271449E+01  0.21085506214E+02 -0.33614875663E+02  0.40000000000E+02  0.47000000000E+01 0. -1.
         -5    1    3    3    0  501 -0.18307271449E+01 -0.21085506214E+02  0.33614875663E+02  0.40000000000E+02  0.47000000000E+01 0.  1.
</event>
<event>
 5    1  0.4781763E-001  0.8000000E+02  0.7546771E-02  0.1203772E+00
         11   -1    0    0    0    0  0.00000000000E+00  0.00000000000E+00  0.40000000000E+02  0.40000000000E+02  0.00000000000E+00 0. -1.
        -11   -1    0    0    0    0 -0.00000000000E+00 -0.00000000000E+00 -0.40000000000E+02  0.40000000000E+02  0.00000000000E+00 0.  1.
         23    2    1    2    0    0  0.00000000000E+00  0.00000000000E+00  0.00000000000E+00  0.80000000000E+02  0.80000000000E+02 0.  0.
          5    1    3    3  501    0 -0.50078920165E+01 -0.19363958250E+02  0.34320083602E+02  0.40000000000E+02  0.47000000000E+01 0. -1.
         -5    1    3    3    0  501  0.50078920165E+01  0.19363958250E+02 -0.34320083602E+02  0.40000000000E+02  0.47000000000E+01 0.  1.
</event>
<event>
 5    1  0.4781763E-001  0.8000000E+02  0.7546771E-02  0.1203772E+00
         11   -1    0    0    0    0  0.00000000000E+00  0.00000000000E+00  0.40000000000E+02  0.40000000000E+02  0.00000000000E+00 0. -1.
        -11   -1    0    0    0    0 -0.00000000000E+00 -0.00000000000E+00 -0.40000000000E+02  0.40000000000E+02  0.00000000000E+00 0.  1.
         23    2    1    2    0    0  0.00000000000E+00  0.00000000000E+00  0.00000000000E+00  0.80000000000E+02  0.80000000000E+02 0.  0.
          5    1    3    3  501    0 -0.30949771983E+02  0.13634733546E+02  0.20835442287E+02  0.40000000000E+02  0.47000000000E+01 0. -1.
         -5    1    3    3    0  501  0.30949771983E+02 -0.13634733546E+02 -0.20835442287E+02  0.40000000000E+02  0.47000000000E+01 0.  1.
</event>
<event>
 5    1  0.4781763E-001  0.8000000E+02  0.7546771E-02  0.1203772E+00
         11   -1    0    0    0    0  0.00000000000E+00  0.00000000000E+00  0.40000000000E+02  0.40000000000E+02  0.00000000000E+00 0. -1.
        -11   -1    0    0    0    0 -0.00000000000E+00 -0.00000000000E+00 -0.40000000000E+02  0.40000000000E+02  0.00000000000E+00 0.  1.
         23    2    1    2    0    0  0.00000000000E+00  0.00000000000E+00  0.00000000000E+00  0.80000000000E+02  0.80000000000E+02 0.  0.
          5    1    3    3  501    0 -0.79103268604E+01 -0.16148301562E+02 -0.35419896748E+02  0.40000000000E+02  0.47000000000E+01 0.  1.
         -5    1    3    3    0  501  0.79103268604E+01  0.16148301562E+02  0.35419896748E+02  0.40000000000E+02  0.47000000000E+01 0. -1.
</event>
<event>
 5    1  0.4781763E-001  0.8000000E+02  0.7546771E-02  0.1203772E+00
         11   -1    0    0    0    0  0.00000000000E+00  0.00000000000E+00  0.40000000000E+02  0.40000000000E+02  0.00000000000E+00 0. -1.
        -11   -1    0    0    0    0 -0.00000000000E+00 -0.00000000000E+00 -0.40000000000E+02  0.40000000000E+02  0.00000000000E+00 0.  1.
         23    2    1    2    0    0  0.00000000000E+00  0.00000000000E+00  0.00000000000E+00  0.80000000000E+02  0.80000000000E+02 0.  0.
          5    1    3    3  501    0  0.16571469006E+02 -0.28359445298E+02  0.22339164653E+02  0.40000000000E+02  0.47000000000E+01 0. -1.
         -5    1    3    3    0  501 -0.16571469006E+02  0.28359445298E+02 -0.22339164653E+02  0.40000000000E+02  0.47000000000E+01 0.  1.
</event>
<event>
 5    1  0.4781763E-001  0.8000000E+02  0.7546771E-02  0.1203772E+00
         11   -1    0    0    0    0  0.00000000000E+00  0.00000000000E+00  0.40000000000E+02  0.40000000000E+02  0.00000000000E+00 0.  1.
        -11   -1    0    0    0    0 -0.00000000000E+00 -0.00000000000E+00 -0.40000000000E+02  0.40000000000E+02  0.00000000000E+00 0. -1.
         23    2    1    2    0    0  0.00000000000E+00  0.00000000000E+00  0.00000000000E+00  0.80000000000E+02  0.80000000000E+02 0.  0.
          5    1    3    3  501    0 -0.56738060335E+01 -0.31208564888E+02 -0.23911156449E+02  0.40000000000E+02  0.47000000000E+01 0. -1.
         -5    1    3    3    0  501  0.56738060335E+01  0.31208564888E+02  0.23911156449E+02  0.40000000000E+02  0.47000000000E+01 0.  1.
</event>
<event>
 5    1  0.4781763E-001  0.8000000E+02  0.7546771E-02  0.1203772E+00
         11   -1    0    0    0    0  0.00000000000E+00  0.00000000000E+00  0.40000000000E+02  0.40000000000E+02  0.00000000000E+00 0.  1.
        -11   -1    0    0    0    0 -0.00000000000E+00 -0.00000000000E+00 -0.40000000000E+02  0.40000000000E+02  0.00000000000E+00 0. -1.
         23    2    1    2    0    0  0.00000000000E+00  0.00000000000E+00  0.00000000000E+00  0.80000000000E+02  0.80000000000E+02 0.  0.
          5    1    3    3  501    0 -0.34144029288E+02 -0.92312476239E+01  0.18079804516E+02  0.40000000000E+02  0.47000000000E+01 0. -1.
         -5    1    3    3    0  501  0.34144029288E+02  0.92312476239E+01 -0.18079804516E+02  0.40000000000E+02  0.47000000000E+01 0.  1.
</event>
<event>
 5    1  0.4781763E-001  0.8000000E+02  0.7546771E-02  0.1203772E+00
         11   -1    0    0    0    0  0.00000000000E+00  0.00000000000E+00  0.40000000000E+02  0.40000000000E+02  0.00000000000E+00 0.  1.
        -11   -1    0    0    0    0 -0.00000000000E+00 -0.00000000000E+00 -0.40000000000E+02  0.40000000000E+02  0.00000000000E+00 0. -1.
         23    2    1    2    0    0  0.00000000000E+00  0.00000000000E+00  0.00000000000E+00  0.80000000000E+02  0.80000000000E+02 0.  0.
          5    1    3    3  501    0  0.26221164628E+02 -0.48883440513E+01 -0.29435771062E+02  0.40000000000E+02  0.47000000000E+01 0. -1.
         -5    1    3    3    0  501 -0.26221164628E+02  0.48883440513E+01  0.29435771062E+02  0.40000000000E+02  0.47000000000E+01 0.  1.
</event>
<event>
 5    1  0.4781763E-001  0.8000000E+02  0.7546771E-02  0.1203772E+00
         11   -1    0    0    0    0  0.00000000000E+00  0.00000000000E+00  0.40000000000E+02  0.40000000000E+02  0.00000000000E+00 0.  1.
        -11   -1    0    0    0    0 -0.00000000000E+00 -0.00000000000E+00 -0.40000000000E+02  0.40000000000E+02  0.00000000000E+00 0. -1.
         23    2    1    2    0    0  0.00000000000E+00  0.00000000000E+00  0.00000000000E+00  0.80000000000E+02  0.80000000000E+02 0.  0.
          5    1    3    3  501    0  0.16097460316E+02  0.31571501527E+02 -0.17944973187E+02  0.40000000000E+02  0.47000000000E+01 0. -1.
         -5    1    3    3    0  501 -0.16097460316E+02 -0.31571501527E+02  0.17944973187E+02  0.40000000000E+02  0.47000000000E+01 0.  1.
</event>
<event>
 5    1  0.4781763E-001  0.8000000E+02  0.7546771E-02  0.1203772E+00
         11   -1    0    0    0    0  0.00000000000E+00  0.00000000000E+00  0.40000000000E+02  0.40000000000E+02  0.00000000000E+00 0.  1.
        -11   -1    0    0    0    0 -0.00000000000E+00 -0.00000000000E+00 -0.40000000000E+02  0.40000000000E+02  0.00000000000E+00 0. -1.
         23    2    1    2    0    0  0.00000000000E+00  0.00000000000E+00  0.00000000000E+00  0.80000000000E+02  0.80000000000E+02 0.  0.
          5    1    3    3  501    0  0.13970849774E+02 -0.13706076075E+01 -0.37159746923E+02  0.40000000000E+02  0.47000000000E+01 0. -1.
         -5    1    3    3    0  501 -0.13970849774E+02  0.13706076075E+01  0.37159746923E+02  0.40000000000E+02  0.47000000000E+01 0.  1.
</event>
<event>
 5    1  0.4781763E-001  0.8000000E+02  0.7546771E-02  0.1203772E+00
         11   -1    0    0    0    0  0.00000000000E+00  0.00000000000E+00  0.40000000000E+02  0.40000000000E+02  0.00000000000E+00 0. -1.
        -11   -1    0    0    0    0 -0.00000000000E+00 -0.00000000000E+00 -0.40000000000E+02  0.40000000000E+02  0.00000000000E+00 0.  1.
         23    2    1    2    0    0  0.00000000000E+00  0.00000000000E+00  0.00000000000E+00  0.80000000000E+02  0.80000000000E+02 0.  0.
          5    1    3    3  501    0 -0.21697889487E+01  0.17878552348E+02  0.35405640537E+02  0.40000000000E+02  0.47000000000E+01 0. -1.
         -5    1    3    3    0  501  0.21697889487E+01 -0.17878552348E+02 -0.35405640537E+02  0.40000000000E+02  0.47000000000E+01 0.  1.
</event>
<event>
 5    1  0.4781763E-001  0.8000000E+02  0.7546771E-02  0.1203772E+00
         11   -1    0    0    0    0  0.00000000000E+00  0.00000000000E+00  0.40000000000E+02  0.40000000000E+02  0.00000000000E+00 0. -1.
        -11   -1    0    0    0    0 -0.00000000000E+00 -0.00000000000E+00 -0.40000000000E+02  0.40000000000E+02  0.00000000000E+00 0.  1.
         23    2    1    2    0    0  0.00000000000E+00  0.00000000000E+00  0.00000000000E+00  0.80000000000E+02  0.80000000000E+02 0.  0.
          5    1    3    3  501    0 -0.12048817382E+02  0.30753464962E+02  0.22067179079E+02  0.40000000000E+02  0.47000000000E+01 0. -1.
         -5    1    3    3    0  501  0.12048817382E+02 -0.30753464962E+02 -0.22067179079E+02  0.40000000000E+02  0.47000000000E+01 0.  1.
</event>
<event>
 5    1  0.4781763E-001  0.8000000E+02  0.7546771E-02  0.1203772E+00
         11   -1    0    0    0    0  0.00000000000E+00  0.00000000000E+00  0.40000000000E+02  0.40000000000E+02  0.00000000000E+00 0. -1.
        -11   -1    0    0    0    0 -0.00000000000E+00 -0.00000000000E+00 -0.40000000000E+02  0.40000000000E+02  0.00000000000E+00 0.  1.
         23    2    1    2    0    0  0.00000000000E+00  0.00000000000E+00  0.00000000000E+00  0.80000000000E+02  0.80000000000E+02 0.  0.
          5    1    3    3  501    0  0.22581625574E+02  0.24815283994E+02 -0.21264568341E+02  0.40000000000E+02  0.47000000000E+01 0. -1.
         -5    1    3    3    0  501 -0.22581625574E+02 -0.24815283994E+02  0.21264568341E+02  0.40000000000E+02  0.47000000000E+01 0.  1.
</event>
<event>
 5    1  0.4781763E-001  0.8000000E+02  0.7546771E-02  0.1203772E+00
         11   -1    0    0    0    0  0.00000000000E+00  0.00000000000E+00  0.40000000000E+02  0.40000000000E+02  0.00000000000E+00 0. -1.
        -11   -1    0    0    0    0 -0.00000000000E+00 -0.00000000000E+00 -0.40000000000E+02  0.40000000000E+02  0.00000000000E+00 0.  1.
         23    2    1    2    0    0  0.00000000000E+00  0.00000000000E+00  0.00000000000E+00  0.80000000000E+02  0.80000000000E+02 0.  0.
          5    1    3    3  501    0  0.76616430520E+01 -0.68002708525E+01  0.38379233214E+02  0.40000000000E+02  0.47000000000E+01 0. -1.
         -5    1    3    3    0  501 -0.76616430520E+01  0.68002708525E+01 -0.38379233214E+02  0.40000000000E+02  0.47000000000E+01 0.  1.
</event>
<event>
 5    1  0.4781763E-001  0.8000000E+02  0.7546771E-02  0.1203772E+00
         11   -1    0    0    0    0  0.00000000000E+00  0.00000000000E+00  0.40000000000E+02  0.40000000000E+02  0.00000000000E+00 0. -1.
        -11   -1    0    0    0    0 -0.00000000000E+00 -0.00000000000E+00 -0.40000000000E+02  0.40000000000E+02  0.00000000000E+00 0.  1.
         23    2    1    2    0    0  0.00000000000E+00  0.00000000000E+00  0.00000000000E+00  0.80000000000E+02  0.80000000000E+02 0.  0.
          5    1    3    3  501    0 -0.35133226977E+02  0.16425682044E+02 -0.85885581756E+01  0.40000000000E+02  0.47000000000E+01 0. -1.
         -5    1    3    3    0  501  0.35133226977E+02 -0.16425682044E+02  0.85885581756E+01  0.40000000000E+02  0.47000000000E+01 0.  1.
</event>
<event>
 5    1  0.4781763E-001  0.8000000E+02  0.7546771E-02  0.1203772E+00
         11   -1    0    0    0    0  0.00000000000E+00  0.00000000000E+00  0.40000000000E+02  0.40000000000E+02  0.00000000000E+00 0.  1.
        -11   -1    0    0    0    0 -0.00000000000E+00 -0.00000000000E+00 -0.40000000000E+02  0.40000000000E+02  0.00000000000E+00 0. -1.
         23    2    1    2    0    0  0.00000000000E+00  0.00000000000E+00  0.00000000000E+00  0.80000000000E+02  0.80000000000E+02 0.  0.
          5    1    3    3  501    0  0.34972617835E+02 -0.18599895420E+02 -0.29782364151E+01  0.40000000000E+02  0.47000000000E+01 0. -1.
         -5    1    3    3    0  501 -0.34972617835E+02  0.18599895420E+02  0.29782364151E+01  0.40000000000E+02  0.47000000000E+01 0.  1.
</event>
<event>
 5    1  0.4781763E-001  0.8000000E+02  0.7546771E-02  0.1203772E+00
         11   -1    0    0    0    0  0.00000000000E+00  0.00000000000E+00  0.40000000000E+02  0.40000000000E+02  0.00000000000E+00 0.  1.
        -11   -1    0    0    0    0 -0.00000000000E+00 -0.00000000000E+00 -0.40000000000E+02  0.40000000000E+02  0.00000000000E+00 0. -1.
         23    2    1    2    0    0  0.00000000000E+00  0.00000000000E+00  0.00000000000E+00  0.80000000000E+02  0.80000000000E+02 0.  0.
          5    1    3    3  501    0  0.24185194554E+02  0.20281498120E+02 -0.24117363007E+02  0.40000000000E+02  0.47000000000E+01 0. -1.
         -5    1    3    3    0  501 -0.24185194554E+02 -0.20281498120E+02  0.24117363007E+02  0.40000000000E+02  0.47000000000E+01 0.  1.
</event>
<event>
 5    1  0.4781763E-001  0.8000000E+02  0.7546771E-02  0.1203772E+00
         11   -1    0    0    0    0  0.00000000000E+00  0.00000000000E+00  0.40000000000E+02  0.40000000000E+02  0.00000000000E+00 0. -1.
        -11   -1    0    0    0    0 -0.00000000000E+00 -0.00000000000E+00 -0.40000000000E+02  0.40000000000E+02  0.00000000000E+00 0.  1.
         23    2    1    2    0    0  0.00000000000E+00  0.00000000000E+00  0.00000000000E+00  0.80000000000E+02  0.80000000000E+02 0.  0.
          5    1    3    3  501    0  0.11014647495E+02 -0.37489984475E+02 -0.71476293002E+01  0.40000000000E+02  0.47000000000E+01 0. -1.
         -5    1    3    3    0  501 -0.11014647495E+02  0.37489984475E+02  0.71476293002E+01  0.40000000000E+02  0.47000000000E+01 0.  1.
</event>
<event>
 5    1  0.4781763E-001  0.8000000E+02  0.7546771E-02  0.1203772E+00
         11   -1    0    0    0    0  0.00000000000E+00  0.00000000000E+00  0.40000000000E+02  0.40000000000E+02  0.00000000000E+00 0.  1.
        -11   -1    0    0    0    0 -0.00000000000E+00 -0.00000000000E+00 -0.40000000000E+02  0.40000000000E+02  0.00000000000E+00 0. -1.
         23    2    1    2    0    0  0.00000000000E+00  0.00000000000E+00  0.00000000000E+00  0.80000000000E+02  0.80000000000E+02 0.  0.
          5    1    3    3  501    0 -0.31327413311E+02 -0.23938093276E+02 -0.48446739325E+01  0.40000000000E+02  0.47000000000E+01 0. -1.
         -5    1    3    3    0  501  0.31327413311E+02  0.23938093276E+02  0.48446739325E+01  0.40000000000E+02  0.47000000000E+01 0.  1.
</event>
<event>
 5    1  0.4781763E-001  0.8000000E+02  0.7546771E-02  0.1203772E+00
         11   -1    0    0    0    0  0.00000000000E+00  0.00000000000E+00  0.40000000000E+02  0.40000000000E+02  0.00000000000E+00 0.  1.
        -11   -1    0    0    0    0 -0.00000000000E+00 -0.00000000000E+00 -0.40000000000E+02  0.40000000000E+02  0.00000000000E+00 0. -1.
         23    2    1    2    0    0  0.00000000000E+00  0.00000000000E+00  0.00000000000E+00  0.80000000000E+02  0.80000000000E+02 0.  0.
          5    1    3    3  501    0  0.13645632750E+02  0.91368748008E+01 -0.36169382435E+02  0.40000000000E+02  0.47000000000E+01 0. -1.
         -5    1    3    3    0  501 -0.13645632750E+02 -0.91368748008E+01  0.36169382435E+02  0.40000000000E+02  0.47000000000E+01 0.  1.
</event>
<event>
 5    1  0.4781763E-001  0.8000000E+02  0.7546771E-02  0.1203772E+00
         11   -1    0    0    0    0  0.00000000000E+00  0.00000000000E+00  0.40000000000E+02  0.40000000000E+02  0.00000000000E+00 0.  1.
        -11   -1    0    0    0    0 -0.00000000000E+00 -0.00000000000E+00 -0.40000000000E+02  0.40000000000E+02  0.00000000000E+00 0. -1.
         23    2    1    2    0    0  0.00000000000E+00  0.00000000000E+00  0.00000000000E+00  0.80000000000E+02  0.80000000000E+02 0.  0.
          5    1    3    3  501    0 -0.22607746195E+00  0.28065657128E+02 -0.28110101013E+02  0.40000000000E+02  0.47000000000E+01 0. -1.
         -5    1    3    3    0  501  0.22607746195E+00 -0.28065657128E+02  0.28110101013E+02  0.40000000000E+02  0.47000000000E+01 0.  1.
</event>
<event>
 5    1  0.4781763E-001  0.8000000E+02  0.7546771E-02  0.1203772E+00
         11   -1    0    0    0    0  0.00000000000E+00  0.00000000000E+00  0.40000000000E+02  0.40000000000E+02  0.00000000000E+00 0. -1.
        -11   -1    0    0    0    0 -0.00000000000E+00 -0.00000000000E+00 -0.40000000000E+02  0.40000000000E+02  0.00000000000E+00 0.  1.
         23    2    1    2    0    0  0.00000000000E+00  0.00000000000E+00  0.00000000000E+00  0.80000000000E+02  0.80000000000E+02 0.  0.
          5    1    3    3  501    0  0.47039265392E+01  0.30488429661E+02  0.25024762374E+02  0.40000000000E+02  0.47000000000E+01 0. -1.
         -5    1    3    3    0  501 -0.47039265392E+01 -0.30488429661E+02 -0.25024762374E+02  0.40000000000E+02  0.47000000000E+01 0.  1.
</event>
<event>
 5    1  0.4781763E-001  0.8000000E+02  0.7546771E-02  0.1203772E+00
         11   -1    0    0    0    0  0.00000000000E+00  0.00000000000E+00  0.40000000000E+02  0.40000000000E+02  0.00000000000E+00 0.  1.
        -11   -1    0    0    0    0 -0.00000000000E+00 -0.00000000000E+00 -0.40000000000E+02  0.40000000000E+02  0.00000000000E+00 0. -1.
         23    2    1    2    0    0  0.00000000000E+00  0.00000000000E+00  0.00000000000E+00  0.80000000000E+02  0.80000000000E+02 0.  0.
          5    1    3    3  501    0  0.38546383400E+02 -0.37090830598E+01 -0.88503688987E+01  0.40000000000E+02  0.47000000000E+01 0. -1.
         -5    1    3    3    0  501 -0.38546383400E+02  0.37090830598E+01  0.88503688987E+01  0.40000000000E+02  0.47000000000E+01 0.  1.
</event>
<event>
 5    1  0.4781763E-001  0.8000000E+02  0.7546771E-02  0.1203772E+00
         11   -1    0    0    0    0  0.00000000000E+00  0.00000000000E+00  0.40000000000E+02  0.40000000000E+02  0.00000000000E+00 0. -1.
        -11   -1    0    0    0    0 -0.00000000000E+00 -0.00000000000E+00 -0.40000000000E+02  0.40000000000E+02  0.00000000000E+00 0.  1.
         23    2    1    2    0    0  0.00000000000E+00  0.00000000000E+00  0.00000000000E+00  0.80000000000E+02  0.80000000000E+02 0.  0.
          5    1    3    3  501    0  0.31104292148E+02  0.17157262561E+02  0.17778114393E+02  0.40000000000E+02  0.47000000000E+01 0. -1.
         -5    1    3    3    0  501 -0.31104292148E+02 -0.17157262561E+02 -0.17778114393E+02  0.40000000000E+02  0.47000000000E+01 0.  1.
</event>
<event>
 5    1  0.4781763E-001  0.8000000E+02  0.7546771E-02  0.1203772E+00
         11   -1    0    0    0    0  0.00000000000E+00  0.00000000000E+00  0.40000000000E+02  0.40000000000E+02  0.00000000000E+00 0. -1.
        -11   -1    0    0    0    0 -0.00000000000E+00 -0.00000000000E+00 -0.40000000000E+02  0.40000000000E+02  0.00000000000E+00 0.  1.
         23    2    1    2    0    0  0.00000000000E+00  0.00000000000E+00  0.00000000000E+00  0.80000000000E+02  0.80000000000E+02 0.  0.
          5    1    3    3  501    0  0.34449261304E+01 -0.28363456350E+02  0.27596319099E+02  0.40000000000E+02  0.47000000000E+01 0. -1.
         -5    1    3    3    0  501 -0.34449261304E+01  0.28363456350E+02 -0.27596319099E+02  0.40000000000E+02  0.47000000000E+01 0.  1.
</event>
<event>
 5    1  0.4781763E-001  0.8000000E+02  0.7546771E-02  0.1203772E+00
         11   -1    0    0    0    0  0.00000000000E+00  0.00000000000E+00  0.40000000000E+02  0.40000000000E+02  0.00000000000E+00 0. -1.
        -11   -1    0    0    0    0 -0.00000000000E+00 -0.00000000000E+00 -0.40000000000E+02  0.40000000000E+02  0.00000000000E+00 0.  1.
         23    2    1    2    0    0  0.00000000000E+00  0.00000000000E+00  0.00000000000E+00  0.80000000000E+02  0.80000000000E+02 0.  0.
          5    1    3    3  501    0 -0.30870849582E+02  0.20547768113E+02  0.14236919319E+02  0.40000000000E+02  0.47000000000E+01 0. -1.
         -5    1    3    3    0  501  0.30870849582E+02 -0.20547768113E+02 -0.14236919319E+02  0.40000000000E+02  0.47000000000E+01 0.  1.
</event>
<event>
 5    1  0.4781763E-001  0.8000000E+02  0.7546771E-02  0.1203772E+00
         11   -1    0    0    0    0  0.00000000000E+00  0.00000000000E+00  0.40000000000E+02  0.40000000000E+02  0.00000000000E+00 0. -1.
        -11   -1    0    0    0    0 -0.00000000000E+00 -0.00000000000E+00 -0.40000000000E+02  0.40000000000E+02  0.00000000000E+00 0.  1.
         23    2    1    2    0    0  0.00000000000E+00  0.00000000000E+00  0.00000000000E+00  0.80000000000E+02  0.80000000000E+02 0.  0.
          5    1    3    3  501    0 -0.22098224300E+02 -0.34639712591E+01  0.32826504320E+02  0.40000000000E+02  0.47000000000E+01 0. -1.
         -5    1    3    3    0  501  0.22098224300E+02  0.34639712591E+01 -0.32826504320E+02  0.40000000000E+02  0.47000000000E+01 0.  1.
</event>
<event>
 5    1  0.4781763E-001  0.8000000E+02  0.7546771E-02  0.1203772E+00
         11   -1    0    0    0    0  0.00000000000E+00  0.00000000000E+00  0.40000000000E+02  0.40000000000E+02  0.00000000000E+00 0.  1.
        -11   -1    0    0    0    0 -0.00000000000E+00 -0.00000000000E+00 -0.40000000000E+02  0.40000000000E+02  0.00000000000E+00 0. -1.
         23    2    1    2    0    0  0.00000000000E+00  0.00000000000E+00  0.00000000000E+00  0.80000000000E+02  0.80000000000E+02 0.  0.
          5    1    3    3  501    0  0.65895846848E+01  0.38634339141E+02  0.64711059982E+01  0.40000000000E+02  0.47000000000E+01 0. -1.
         -5    1    3    3    0  501 -0.65895846848E+01 -0.38634339141E+02 -0.64711059982E+01  0.40000000000E+02  0.47000000000E+01 0.  1.
</event>
<event>
 5    1  0.4781763E-001  0.8000000E+02  0.7546771E-02  0.1203772E+00
         11   -1    0    0    0    0  0.00000000000E+00  0.00000000000E+00  0.40000000000E+02  0.40000000000E+02  0.00000000000E+00 0. -1.
        -11   -1    0    0    0    0 -0.00000000000E+00 -0.00000000000E+00 -0.40000000000E+02  0.40000000000E+02  0.00000000000E+00 0.  1.
         23    2    1    2    0    0  0.00000000000E+00  0.00000000000E+00  0.00000000000E+00  0.80000000000E+02  0.80000000000E+02 0.  0.
          5    1    3    3  501    0  0.18743800610E+02  0.18486367262E+02  0.29746162175E+02  0.40000000000E+02  0.47000000000E+01 0. -1.
         -5    1    3    3    0  501 -0.18743800610E+02 -0.18486367262E+02 -0.29746162175E+02  0.40000000000E+02  0.47000000000E+01 0.  1.
</event>
<event>
 5    1  0.4781763E-001  0.8000000E+02  0.7546771E-02  0.1203772E+00
         11   -1    0    0    0    0  0.00000000000E+00  0.00000000000E+00  0.40000000000E+02  0.40000000000E+02  0.00000000000E+00 0. -1.
        -11   -1    0    0    0    0 -0.00000000000E+00 -0.00000000000E+00 -0.40000000000E+02  0.40000000000E+02  0.00000000000E+00 0.  1.
         23    2    1    2    0    0  0.00000000000E+00  0.00000000000E+00  0.00000000000E+00  0.80000000000E+02  0.80000000000E+02 0.  0.
          5    1    3    3  501    0  0.35417388597E+02 -0.90552126176E+01  0.15540968742E+02  0.40000000000E+02  0.47000000000E+01 0. -1.
         -5    1    3    3    0  501 -0.35417388597E+02  0.90552126176E+01 -0.15540968742E+02  0.40000000000E+02  0.47000000000E+01 0.  1.
</event>
<event>
 5    1  0.4781763E-001  0.8000000E+02  0.7546771E-02  0.1203772E+00
         11   -1    0    0    0    0  0.00000000000E+00  0.00000000000E+00  0.40000000000E+02  0.40000000000E+02  0.00000000000E+00 0.  1.
        -11   -1    0    0    0    0 -0.00000000000E+00 -0.00000000000E+00 -0.40000000000E+02  0.40000000000E+02  0.00000000000E+00 0. -1.
         23    2    1    2    0    0  0.00000000000E+00  0.00000000000E+00  0.00000000000E+00  0.80000000000E+02  0.80000000000E+02 0.  0.
          5    1    3    3  501    0 -0.38396089421E+00 -0.38114373134E+02 -0.11182894733E+02  0.40000000000E+02  0.47000000000E+01 0. -1.
         -5    1    3    3    0  501  0.38396089421E+00  0.38114373134E+02  0.11182894733E+02  0.40000000000E+02  0.47000000000E+01 0.  1.
</event>
<event>
 5    1  0.4781763E-001  0.8000000E+02  0.7546771E-02  0.1203772E+00
         11   -1    0    0    0    0  0.00000000000E+00  0.00000000000E+00  0.40000000000E+02  0.40000000000E+02  0.00000000000E+00 0. -1.
        -11   -1    0    0    0    0 -0.00000000000E+00 -0.00000000000E+00 -0.40000000000E+02  0.40000000000E+02  0.00000000000E+00 0.  1.
         23    2    1    2    0    0  0.00000000000E+00  0.00000000000E+00  0.00000000000E+00  0.80000000000E+02  0.80000000000E+02 0.  0.
          5    1    3    3  501    0 -0.13692748884E+01  0.16484129065E+02  0.36115212518E+02  0.40000000000E+02  0.47000000000E+01 0. -1.
         -5    1    3    3    0  501  0.13692748884E+01 -0.16484129065E+02 -0.36115212518E+02  0.40000000000E+02  0.47000000000E+01 0.  1.
</event>
<event>
 5    1  0.4781763E-001  0.8000000E+02  0.7546771E-02  0.1203772E+00
         11   -1    0    0    0    0  0.00000000000E+00  0.00000000000E+00  0.40000000000E+02  0.40000000000E+02  0.00000000000E+00 0.  1.
        -11   -1    0    0    0    0 -0.00000000000E+00 -0.00000000000E+00 -0.40000000000E+02  0.40000000000E+02  0.00000000000E+00 0. -1.
         23    2    1    2    0    0  0.00000000000E+00  0.00000000000E+00  0.00000000000E+00  0.80000000000E+02  0.80000000000E+02 0.  0.
          5    1    3    3  501    0  0.12544134282E+02 -0.32418200574E+01 -0.37550569874E+02  0.40000000000E+02  0.47000000000E+01 0. -1.
         -5    1    3    3    0  501 -0.12544134282E+02  0.32418200574E+01  0.37550569874E+02  0.40000000000E+02  0.47000000000E+01 0.  1.
</event>
<event>
 5    1  0.4781763E-001  0.8000000E+02  0.7546771E-02  0.1203772E+00
         11   -1    0    0    0    0  0.00000000000E+00  0.00000000000E+00  0.40000000000E+02  0.40000000000E+02  0.00000000000E+00 0.  1.
        -11   -1    0    0    0    0 -0.00000000000E+00 -0.00000000000E+00 -0.40000000000E+02  0.40000000000E+02  0.00000000000E+00 0. -1.
         23    2    1    2    0    0  0.00000000000E+00  0.00000000000E+00  0.00000000000E+00  0.80000000000E+02  0.80000000000E+02 0.  0.
          5    1    3    3  501    0  0.28312847861E+02 -0.27397312185E+02  0.50675369837E+01  0.40000000000E+02  0.47000000000E+01 0. -1.
         -5    1    3    3    0  501 -0.28312847861E+02  0.27397312185E+02 -0.50675369837E+01  0.40000000000E+02  0.47000000000E+01 0.  1.
</event>
<event>
 5    1  0.4781763E-001  0.8000000E+02  0.7546771E-02  0.1203772E+00
         11   -1    0    0    0    0  0.00000000000E+00  0.00000000000E+00  0.40000000000E+02  0.40000000000E+02  0.00000000000E+00 0.  1.
        -11   -1    0    0    0    0 -0.00000000000E+00 -0.00000000000E+00 -0.40000000000E+02  0.40000000000E+02  0.00000000000E+00 0. -1.
         23    2    1    2    0    0  0.00000000000E+00  0.00000000000E+00  0.00000000000E+00  0.80000000000E+02  0.80000000000E+02 0.  0.
          5    1    3    3  501    0 -0.13120386562E+02 -0.37491267268E+02  0.41271671664E+00  0.40000000000E+02  0.47000000000E+01 0. -1.
         -5    1    3    3    0  501  0.13120386562E+02  0.37491267268E+02 -0.41271671664E+00  0.40000000000E+02  0.47000000000E+01 0.  1.
</event>
<event>
 5    1  0.4781763E-001  0.8000000E+02  0.7546771E-02  0.1203772E+00
         11   -1    0    0    0    0  0.00000000000E+00  0.00000000000E+00  0.40000000000E+02  0.40000000000E+02  0.00000000000E+00 0.  1.
        -11   -1    0    0    0    0 -0.00000000000E+00 -0.00000000000E+00 -0.40000000000E+02  0.40000000000E+02  0.00000000000E+00 0. -1.
         23    2    1    2    0    0  0.00000000000E+00  0.00000000000E+00  0.00000000000E+00  0.80000000000E+02  0.80000000000E+02 0.  0.
          5    1    3    3  501    0  0.12404702612E+02 -0.29501756628E+02 -0.23530399677E+02  0.40000000000E+02  0.47000000000E+01 0. -1.
         -5    1    3    3    0  501 -0.12404702612E+02  0.29501756628E+02  0.23530399677E+02  0.40000000000E+02  0.47000000000E+01 0.  1.
</event>
<event>
 5    1  0.4781763E-001  0.8000000E+02  0.7546771E-02  0.1203772E+00
         11   -1    0    0    0    0  0.00000000000E+00  0.00000000000E+00  0.40000000000E+02  0.40000000000E+02  0.00000000000E+00 0.  1.
        -11   -1    0    0    0    0 -0.00000000000E+00 -0.00000000000E+00 -0.40000000000E+02  0.40000000000E+02  0.00000000000E+00 0. -1.
         23    2    1    2    0    0  0.00000000000E+00  0.00000000000E+00  0.00000000000E+00  0.80000000000E+02  0.80000000000E+02 0.  0.
          5    1    3    3  501    0  0.33451642454E+01 -0.20805579398E+02 -0.33672655703E+02  0.40000000000E+02  0.47000000000E+01 0. -1.
         -5    1    3    3    0  501 -0.33451642454E+01  0.20805579398E+02  0.33672655703E+02  0.40000000000E+02  0.47000000000E+01 0.  1.
</event>
<event>
 5    1  0.4781763E-001  0.8000000E+02  0.7546771E-02  0.1203772E+00
         11   -1    0    0    0    0  0.00000000000E+00  0.00000000000E+00  0.40000000000E+02  0.40000000000E+02  0.00000000000E+00 0.  1.
        -11   -1    0    0    0    0 -0.00000000000E+00 -0.00000000000E+00 -0.40000000000E+02  0.40000000000E+02  0.00000000000E+00 0. -1.
         23    2    1    2    0    0  0.00000000000E+00  0.00000000000E+00  0.00000000000E+00  0.80000000000E+02  0.80000000000E+02 0.  0.
          5    1    3    3  501    0  0.78252886043E+01  0.17399756799E+02 -0.34841402406E+02  0.40000000000E+02  0.47000000000E+01 0. -1.
         -5    1    3    3    0  501 -0.78252886043E+01 -0.17399756799E+02  0.34841402406E+02  0.40000000000E+02  0.47000000000E+01 0.  1.
</event>
<event>
 5    1  0.4781763E-001  0.8000000E+02  0.7546771E-02  0.1203772E+00
         11   -1    0    0    0    0  0.00000000000E+00  0.00000000000E+00  0.40000000000E+02  0.40000000000E+02  0.00000000000E+00 0. -1.
        -11   -1    0    0    0    0 -0.00000000000E+00 -0.00000000000E+00 -0.40000000000E+02  0.40000000000E+02  0.00000000000E+00 0.  1.
         23    2    1    2    0    0  0.00000000000E+00  0.00000000000E+00  0.00000000000E+00  0.80000000000E+02  0.80000000000E+02 0.  0.
          5    1    3    3  501    0 -0.35226868081E+02 -0.17470933320E+02  0.56342039511E+01  0.40000000000E+02  0.47000000000E+01 0. -1.
         -5    1    3    3    0  501  0.35226868081E+02  0.17470933320E+02 -0.56342039511E+01  0.40000000000E+02  0.47000000000E+01 0.  1.
</event>
<event>
 5    1  0.4781763E-001  0.8000000E+02  0.7546771E-02  0.1203772E+00
         11   -1    0    0    0    0  0.00000000000E+00  0.00000000000E+00  0.40000000000E+02  0.40000000000E+02  0.00000000000E+00 0.  1.
        -11   -1    0    0    0    0 -0.00000000000E+00 -0.00000000000E+00 -0.40000000000E+02  0.40000000000E+02  0.00000000000E+00 0. -1.
         23    2    1    2    0    0  0.00000000000E+00  0.00000000000E+00  0.00000000000E+00  0.80000000000E+02  0.80000000000E+02 0.  0.
          5    1    3    3  501    0 -0.58161843723E+01  0.38230486714E+00 -0.39292949016E+02  0.40000000000E+02  0.47000000000E+01 0. -1.
         -5    1    3    3    0  501  0.58161843723E+01 -0.38230486714E+00  0.39292949016E+02  0.40000000000E+02  0.47000000000E+01 0.  1.
</event>
<event>
 5    1  0.4781763E-001  0.8000000E+02  0.7546771E-02  0.1203772E+00
         11   -1    0    0    0    0  0.00000000000E+00  0.00000000000E+00  0.40000000000E+02  0.40000000000E+02  0.00000000000E+00 0.  1.
        -11   -1    0    0    0    0 -0.00000000000E+00 -0.00000000000E+00 -0.40000000000E+02  0.40000000000E+02  0.00000000000E+00 0. -1.
         23    2    1    2    0    0  0.00000000000E+00  0.00000000000E+00  0.00000000000E+00  0.80000000000E+02  0.80000000000E+02 0.  0.
          5    1    3    3  501    0  0.20184282720E+02  0.17733972716E+02 -0.29257664685E+02  0.40000000000E+02  0.47000000000E+01 0. -1.
         -5    1    3    3    0  501 -0.20184282720E+02 -0.17733972716E+02  0.29257664685E+02  0.40000000000E+02  0.47000000000E+01 0.  1.
</event>
<event>
 5    1  0.4781763E-001  0.8000000E+02  0.7546771E-02  0.1203772E+00
         11   -1    0    0    0    0  0.00000000000E+00  0.00000000000E+00  0.40000000000E+02  0.40000000000E+02  0.00000000000E+00 0. -1.
        -11   -1    0    0    0    0 -0.00000000000E+00 -0.00000000000E+00 -0.40000000000E+02  0.40000000000E+02  0.00000000000E+00 0.  1.
         23    2    1    2    0    0  0.00000000000E+00  0.00000000000E+00  0.00000000000E+00  0.80000000000E+02  0.80000000000E+02 0.  0.
          5    1    3    3  501    0  0.20446499463E+02  0.15375671594E+02  0.30388145431E+02  0.40000000000E+02  0.47000000000E+01 0. -1.
         -5    1    3    3    0  501 -0.20446499463E+02 -0.15375671594E+02 -0.30388145431E+02  0.40000000000E+02  0.47000000000E+01 0.  1.
</event>
<event>
 5    1  0.4781763E-001  0.8000000E+02  0.7546771E-02  0.1203772E+00
         11   -1    0    0    0    0  0.00000000000E+00  0.00000000000E+00  0.40000000000E+02  0.40000000000E+02  0.00000000000E+00 0.  1.
        -11   -1    0    0    0    0 -0.00000000000E+00 -0.00000000000E+00 -0.40000000000E+02  0.40000000000E+02  0.00000000000E+00 0. -1.
         23    2    1    2    0    0  0.00000000000E+00  0.00000000000E+00  0.00000000000E+00  0.80000000000E+02  0.80000000000E+02 0.  0.
          5    1    3    3  501    0 -0.71685499383E+01 -0.27149570540E+01 -0.38976286380E+02  0.40000000000E+02  0.47000000000E+01 0. -1.
         -5    1    3    3    0  501  0.71685499383E+01  0.27149570540E+01  0.38976286380E+02  0.40000000000E+02  0.47000000000E+01 0.  1.
</event>
<event>
 5    1  0.4781763E-001  0.8000000E+02  0.7546771E-02  0.1203772E+00
         11   -1    0    0    0    0  0.00000000000E+00  0.00000000000E+00  0.40000000000E+02  0.40000000000E+02  0.00000000000E+00 0. -1.
        -11   -1    0    0    0    0 -0.00000000000E+00 -0.00000000000E+00 -0.40000000000E+02  0.40000000000E+02  0.00000000000E+00 0.  1.
         23    2    1    2    0    0  0.00000000000E+00  0.00000000000E+00  0.00000000000E+00  0.80000000000E+02  0.80000000000E+02 0.  0.
          5    1    3    3  501    0  0.27587965622E+02  0.27497406090E+02 -0.77914575750E+01  0.40000000000E+02  0.47000000000E+01 0. -1.
         -5    1    3    3    0  501 -0.27587965622E+02 -0.27497406090E+02  0.77914575750E+01  0.40000000000E+02  0.47000000000E+01 0.  1.
</event>
<event>
 5    1  0.4781763E-001  0.8000000E+02  0.7546771E-02  0.1203772E+00
         11   -1    0    0    0    0  0.00000000000E+00  0.00000000000E+00  0.40000000000E+02  0.40000000000E+02  0.00000000000E+00 0.  1.
        -11   -1    0    0    0    0 -0.00000000000E+00 -0.00000000000E+00 -0.40000000000E+02  0.40000000000E+02  0.00000000000E+00 0. -1.
         23    2    1    2    0    0  0.00000000000E+00  0.00000000000E+00  0.00000000000E+00  0.80000000000E+02  0.80000000000E+02 0.  0.
          5    1    3    3  501    0  0.28393292279E+02 -0.26322423133E+02  0.88803712760E+01  0.40000000000E+02  0.47000000000E+01 0. -1.
         -5    1    3    3    0  501 -0.28393292279E+02  0.26322423133E+02 -0.88803712760E+01  0.40000000000E+02  0.47000000000E+01 0.  1.
</event>
<event>
 5    1  0.4781763E-001  0.8000000E+02  0.7546771E-02  0.1203772E+00
         11   -1    0    0    0    0  0.00000000000E+00  0.00000000000E+00  0.40000000000E+02  0.40000000000E+02  0.00000000000E+00 0.  1.
        -11   -1    0    0    0    0 -0.00000000000E+00 -0.00000000000E+00 -0.40000000000E+02  0.40000000000E+02  0.00000000000E+00 0. -1.
         23    2    1    2    0    0  0.00000000000E+00  0.00000000000E+00  0.00000000000E+00  0.80000000000E+02  0.80000000000E+02 0.  0.
          5    1    3    3  501    0  0.10719772481E+02  0.15005591434E+02 -0.35182789879E+02  0.40000000000E+02  0.47000000000E+01 0. -1.
         -5    1    3    3    0  501 -0.10719772481E+02 -0.15005591434E+02  0.35182789879E+02  0.40000000000E+02  0.47000000000E+01 0.  1.
</event>
<event>
 5    1  0.4781763E-001  0.8000000E+02  0.7546771E-02  0.1203772E+00
         11   -1    0    0    0    0  0.00000000000E+00  0.00000000000E+00  0.40000000000E+02  0.40000000000E+02  0.00000000000E+00 0. -1.
        -11   -1    0    0    0    0 -0.00000000000E+00 -0.00000000000E+00 -0.40000000000E+02  0.40000000000E+02  0.00000000000E+00 0.  1.
         23    2    1    2    0    0  0.00000000000E+00  0.00000000000E+00  0.00000000000E+00  0.80000000000E+02  0.80000000000E+02 0.  0.
          5    1    3    3  501    0  0.31859030330E+01  0.39381523944E+02 -0.41055564404E+01  0.40000000000E+02  0.47000000000E+01 0. -1.
         -5    1    3    3    0  501 -0.31859030330E+01 -0.39381523944E+02  0.41055564404E+01  0.40000000000E+02  0.47000000000E+01 0.  1.
</event>
<event>
 5    1  0.4781763E-001  0.8000000E+02  0.7546771E-02  0.1203772E+00
         11   -1    0    0    0    0  0.00000000000E+00  0.00000000000E+00  0.40000000000E+02  0.40000000000E+02  0.00000000000E+00 0.  1.
        -11   -1    0    0    0    0 -0.00000000000E+00 -0.00000000000E+00 -0.40000000000E+02  0.40000000000E+02  0.00000000000E+00 0. -1.
         23    2    1    2    0    0  0.00000000000E+00  0.00000000000E+00  0.00000000000E+00  0.80000000000E+02  0.80000000000E+02 0.  0.
          5    1    3    3  501    0  0.23640622084E+02 -0.22161152834E+02 -0.22976385542E+02  0.40000000000E+02  0.47000000000E+01 0. -1.
         -5    1    3    3    0  501 -0.23640622084E+02  0.22161152834E+02  0.22976385542E+02  0.40000000000E+02  0.47000000000E+01 0.  1.
</event>
<event>
 5    1  0.4781763E-001  0.8000000E+02  0.7546771E-02  0.1203772E+00
         11   -1    0    0    0    0  0.00000000000E+00  0.00000000000E+00  0.40000000000E+02  0.40000000000E+02  0.00000000000E+00 0. -1.
        -11   -1    0    0    0    0 -0.00000000000E+00 -0.00000000000E+00 -0.40000000000E+02  0.40000000000E+02  0.00000000000E+00 0.  1.
         23    2    1    2    0    0  0.00000000000E+00  0.00000000000E+00  0.00000000000E+00  0.80000000000E+02  0.80000000000E+02 0.  0.
          5    1    3    3  501    0  0.30632606830E+02 -0.30591240143E+01  0.25103688157E+02  0.40000000000E+02  0.47000000000E+01 0. -1.
         -5    1    3    3    0  501 -0.30632606830E+02  0.30591240143E+01 -0.25103688157E+02  0.40000000000E+02  0.47000000000E+01 0.  1.
</event>
<event>
 5    1  0.4781763E-001  0.8000000E+02  0.7546771E-02  0.1203772E+00
         11   -1    0    0    0    0  0.00000000000E+00  0.00000000000E+00  0.40000000000E+02  0.40000000000E+02  0.00000000000E+00 0.  1.
        -11   -1    0    0    0    0 -0.00000000000E+00 -0.00000000000E+00 -0.40000000000E+02  0.40000000000E+02  0.00000000000E+00 0. -1.
         23    2    1    2    0    0  0.00000000000E+00  0.00000000000E+00  0.00000000000E+00  0.80000000000E+02  0.80000000000E+02 0.  0.
          5    1    3    3  501    0 -0.45661604044E+01  0.29769695506E+02 -0.25900297463E+02  0.40000000000E+02  0.47000000000E+01 0. -1.
         -5    1    3    3    0  501  0.45661604044E+01 -0.29769695506E+02  0.25900297463E+02  0.40000000000E+02  0.47000000000E+01 0.  1.
</event>
<event>
 5    1  0.4781763E-001  0.8000000E+02  0.7546771E-02  0.1203772E+00
         11   -1    0    0    0    0  0.00000000000E+00  0.00000000000E+00  0.40000000000E+02  0.40000000000E+02  0.00000000000E+00 0.  1.
        -11   -1    0    0    0    0 -0.00000000000E+00 -0.00000000000E+00 -0.40000000000E+02  0.40000000000E+02  0.00000000000E+00 0. -1.
         23    2    1    2    0    0  0.00000000000E+00  0.00000000000E+00  0.00000000000E+00  0.80000000000E+02  0.80000000000E+02 0.  0.
          5    1    3    3  501    0  0.30345354110E+02  0.94977412295E+01 -0.23808872201E+02  0.40000000000E+02  0.47000000000E+01 0. -1.
         -5    1    3    3    0  501 -0.30345354110E+02 -0.94977412295E+01  0.23808872201E+02  0.40000000000E+02  0.47000000000E+01 0.  1.
</event>
<event>
 5    1  0.4781763E-001  0.8000000E+02  0.7546771E-02  0.1203772E+00
         11   -1    0    0    0    0  0.00000000000E+00  0.00000000000E+00  0.40000000000E+02  0.40000000000E+02  0.00000000000E+00 0.  1.
        -11   -1    0    0    0    0 -0.00000000000E+00 -0.00000000000E+00 -0.40000000000E+02  0.40000000000E+02  0.00000000000E+00 0. -1.
         23    2    1    2    0    0  0.00000000000E+00  0.00000000000E+00  0.00000000000E+00  0.80000000000E+02  0.80000000000E+02 0.  0.
          5    1    3    3  501    0  0.35267459559E+02  0.67699268220E+01 -0.16978939517E+02  0.40000000000E+02  0.47000000000E+01 0. -1.
         -5    1    3    3    0  501 -0.35267459559E+02 -0.67699268220E+01  0.16978939517E+02  0.40000000000E+02  0.47000000000E+01 0.  1.
</event>
<event>
 5    1  0.4781763E-001  0.8000000E+02  0.7546771E-02  0.1203772E+00
         11   -1    0    0    0    0  0.00000000000E+00  0.00000000000E+00  0.40000000000E+02  0.40000000000E+02  0.00000000000E+00 0. -1.
        -11   -1    0    0    0    0 -0.00000000000E+00 -0.00000000000E+00 -0.40000000000E+02  0.40000000000E+02  0.00000000000E+00 0.  1.
         23    2    1    2    0    0  0.00000000000E+00  0.00000000000E+00  0.00000000000E+00  0.80000000000E+02  0.80000000000E+02 0.  0.
          5    1    3    3  501    0  0.26639454724E+02  0.55507107008E+01 -0.28938539402E+02  0.40000000000E+02  0.47000000000E+01 0. -1.
         -5    1    3    3    0  501 -0.26639454724E+02 -0.55507107008E+01  0.28938539402E+02  0.40000000000E+02  0.47000000000E+01 0.  1.
</event>
<event>
 5    1  0.4781763E-001  0.8000000E+02  0.7546771E-02  0.1203772E+00
         11   -1    0    0    0    0  0.00000000000E+00  0.00000000000E+00  0.40000000000E+02  0.40000000000E+02  0.00000000000E+00 0.  1.
        -11   -1    0    0    0    0 -0.00000000000E+00 -0.00000000000E+00 -0.40000000000E+02  0.40000000000E+02  0.00000000000E+00 0. -1.
         23    2    1    2    0    0  0.00000000000E+00  0.00000000000E+00  0.00000000000E+00  0.80000000000E+02  0.80000000000E+02 0.  0.
          5    1    3    3  501    0 -0.86485819046E+01  0.12626610140E+00 -0.38769783181E+02  0.40000000000E+02  0.47000000000E+01 0. -1.
         -5    1    3    3    0  501  0.86485819046E+01 -0.12626610140E+00  0.38769783181E+02  0.40000000000E+02  0.47000000000E+01 0.  1.
</event>
<event>
 5    1  0.4781763E-001  0.8000000E+02  0.7546771E-02  0.1203772E+00
         11   -1    0    0    0    0  0.00000000000E+00  0.00000000000E+00  0.40000000000E+02  0.40000000000E+02  0.00000000000E+00 0.  1.
        -11   -1    0    0    0    0 -0.00000000000E+00 -0.00000000000E+00 -0.40000000000E+02  0.40000000000E+02  0.00000000000E+00 0. -1.
         23    2    1    2    0    0  0.00000000000E+00  0.00000000000E+00  0.00000000000E+00  0.80000000000E+02  0.80000000000E+02 0.  0.
          5    1    3    3  501    0 -0.34268595569E+02 -0.91290131995E+01 -0.17895096416E+02  0.40000000000E+02  0.47000000000E+01 0. -1.
         -5    1    3    3    0  501  0.34268595569E+02  0.91290131995E+01  0.17895096416E+02  0.40000000000E+02  0.47000000000E+01 0.  1.
</event>
<event>
 5    1  0.4781763E-001  0.8000000E+02  0.7546771E-02  0.1203772E+00
         11   -1    0    0    0    0  0.00000000000E+00  0.00000000000E+00  0.40000000000E+02  0.40000000000E+02  0.00000000000E+00 0. -1.
        -11   -1    0    0    0    0 -0.00000000000E+00 -0.00000000000E+00 -0.40000000000E+02  0.40000000000E+02  0.00000000000E+00 0.  1.
         23    2    1    2    0    0  0.00000000000E+00  0.00000000000E+00  0.00000000000E+00  0.80000000000E+02  0.80000000000E+02 0.  0.
          5    1    3    3  501    0 -0.22861518315E+02 -0.18528546442E+01  0.32431896491E+02  0.40000000000E+02  0.47000000000E+01 0. -1.
         -5    1    3    3    0  501  0.22861518315E+02  0.18528546442E+01 -0.32431896491E+02  0.40000000000E+02  0.47000000000E+01 0.  1.
</event>
<event>
 5    1  0.4781763E-001  0.8000000E+02  0.7546771E-02  0.1203772E+00
         11   -1    0    0    0    0  0.00000000000E+00  0.00000000000E+00  0.40000000000E+02  0.40000000000E+02  0.00000000000E+00 0.  1.
        -11   -1    0    0    0    0 -0.00000000000E+00 -0.00000000000E+00 -0.40000000000E+02  0.40000000000E+02  0.00000000000E+00 0. -1.
         23    2    1    2    0    0  0.00000000000E+00  0.00000000000E+00  0.00000000000E+00  0.80000000000E+02  0.80000000000E+02 0.  0.
          5    1    3    3  501    0 -0.37986497048E+02  0.43629578865E+01 -0.10765715978E+02  0.40000000000E+02  0.47000000000E+01 0. -1.
         -5    1    3    3    0  501  0.37986497048E+02 -0.43629578865E+01  0.10765715978E+02  0.40000000000E+02  0.47000000000E+01 0.  1.
</event>
<event>
 5    1  0.4781763E-001  0.8000000E+02  0.7546771E-02  0.1203772E+00
         11   -1    0    0    0    0  0.00000000000E+00  0.00000000000E+00  0.40000000000E+02  0.40000000000E+02  0.00000000000E+00 0.  1.
        -11   -1    0    0    0    0 -0.00000000000E+00 -0.00000000000E+00 -0.40000000000E+02  0.40000000000E+02  0.00000000000E+00 0. -1.
         23    2    1    2    0    0  0.00000000000E+00  0.00000000000E+00  0.00000000000E+00  0.80000000000E+02  0.80000000000E+02 0.  0.
          5    1    3    3  501    0  0.31440997539E+02 -0.17267603915E+02 -0.17064686601E+02  0.40000000000E+02  0.47000000000E+01 0. -1.
         -5    1    3    3    0  501 -0.31440997539E+02  0.17267603915E+02  0.17064686601E+02  0.40000000000E+02  0.47000000000E+01 0.  1.
</event>
<event>
 5    1  0.4781763E-001  0.8000000E+02  0.7546771E-02  0.1203772E+00
         11   -1    0    0    0    0  0.00000000000E+00  0.00000000000E+00  0.40000000000E+02  0.40000000000E+02  0.00000000000E+00 0.  1.
        -11   -1    0    0    0    0 -0.00000000000E+00 -0.00000000000E+00 -0.40000000000E+02  0.40000000000E+02  0.00000000000E+00 0. -1.
         23    2    1    2    0    0  0.00000000000E+00  0.00000000000E+00  0.00000000000E+00  0.80000000000E+02  0.80000000000E+02 0.  0.
          5    1    3    3  501    0  0.34183085037E+02  0.20234241496E+02 -0.46566539772E-01  0.40000000000E+02  0.47000000000E+01 0. -1.
         -5    1    3    3    0  501 -0.34183085037E+02 -0.20234241496E+02  0.46566539772E-01  0.40000000000E+02  0.47000000000E+01 0.  1.
</event>
<event>
 5    1  0.4781763E-001  0.8000000E+02  0.7546771E-02  0.1203772E+00
         11   -1    0    0    0    0  0.00000000000E+00  0.00000000000E+00  0.40000000000E+02  0.40000000000E+02  0.00000000000E+00 0.  1.
        -11   -1    0    0    0    0 -0.00000000000E+00 -0.00000000000E+00 -0.40000000000E+02  0.40000000000E+02  0.00000000000E+00 0. -1.
         23    2    1    2    0    0  0.00000000000E+00  0.00000000000E+00  0.00000000000E+00  0.80000000000E+02  0.80000000000E+02 0.  0.
          5    1    3    3  501    0 -0.30879213336E+02  0.10117969446E+02 -0.22847557375E+02  0.40000000000E+02  0.47000000000E+01 0. -1.
         -5    1    3    3    0  501  0.30879213336E+02 -0.10117969446E+02  0.22847557375E+02  0.40000000000E+02  0.47000000000E+01 0.  1.
</event>
<event>
 5    1  0.4781763E-001  0.8000000E+02  0.7546771E-02  0.1203772E+00
         11   -1    0    0    0    0  0.00000000000E+00  0.00000000000E+00  0.40000000000E+02  0.40000000000E+02  0.00000000000E+00 0.  1.
        -11   -1    0    0    0    0 -0.00000000000E+00 -0.00000000000E+00 -0.40000000000E+02  0.40000000000E+02  0.00000000000E+00 0. -1.
         23    2    1    2    0    0  0.00000000000E+00  0.00000000000E+00  0.00000000000E+00  0.80000000000E+02  0.80000000000E+02 0.  0.
          5    1    3    3  501    0 -0.80417419678E+01 -0.38338951111E+02  0.65852269379E+01  0.40000000000E+02  0.47000000000E+01 0. -1.
         -5    1    3    3    0  501  0.80417419678E+01  0.38338951111E+02 -0.65852269379E+01  0.40000000000E+02  0.47000000000E+01 0.  1.
</event>
<event>
 5    1  0.4781763E-001  0.8000000E+02  0.7546771E-02  0.1203772E+00
         11   -1    0    0    0    0  0.00000000000E+00  0.00000000000E+00  0.40000000000E+02  0.40000000000E+02  0.00000000000E+00 0.  1.
        -11   -1    0    0    0    0 -0.00000000000E+00 -0.00000000000E+00 -0.40000000000E+02  0.40000000000E+02  0.00000000000E+00 0. -1.
         23    2    1    2    0    0  0.00000000000E+00  0.00000000000E+00  0.00000000000E+00  0.80000000000E+02  0.80000000000E+02 0.  0.
          5    1    3    3  501    0  0.21064637733E+02 -0.11411819666E+02 -0.31685350071E+02  0.40000000000E+02  0.47000000000E+01 0. -1.
         -5    1    3    3    0  501 -0.21064637733E+02  0.11411819666E+02  0.31685350071E+02  0.40000000000E+02  0.47000000000E+01 0.  1.
</event>
<event>
 5    1  0.4781763E-001  0.8000000E+02  0.7546771E-02  0.1203772E+00
         11   -1    0    0    0    0  0.00000000000E+00  0.00000000000E+00  0.40000000000E+02  0.40000000000E+02  0.00000000000E+00 0. -1.
        -11   -1    0    0    0    0 -0.00000000000E+00 -0.00000000000E+00 -0.40000000000E+02  0.40000000000E+02  0.00000000000E+00 0.  1.
         23    2    1    2    0    0  0.00000000000E+00  0.00000000000E+00  0.00000000000E+00  0.80000000000E+02  0.80000000000E+02 0.  0.
          5    1    3    3  501    0 -0.11545054272E+02 -0.24053417653E+02  0.29428809372E+02  0.40000000000E+02  0.47000000000E+01 0. -1.
         -5    1    3    3    0  501  0.11545054272E+02  0.24053417653E+02 -0.29428809372E+02  0.40000000000E+02  0.47000000000E+01 0.  1.
</event>
<event>
 5    1  0.4781763E-001  0.8000000E+02  0.7546771E-02  0.1203772E+00
         11   -1    0    0    0    0  0.00000000000E+00  0.00000000000E+00  0.40000000000E+02  0.40000000000E+02  0.00000000000E+00 0. -1.
        -11   -1    0    0    0    0 -0.00000000000E+00 -0.00000000000E+00 -0.40000000000E+02  0.40000000000E+02  0.00000000000E+00 0.  1.
         23    2    1    2    0    0  0.00000000000E+00  0.00000000000E+00  0.00000000000E+00  0.80000000000E+02  0.80000000000E+02 0.  0.
          5    1    3    3  501    0  0.34818323628E+02 -0.17309724208E+02  0.81220556232E+01  0.40000000000E+02  0.47000000000E+01 0. -1.
         -5    1    3    3    0  501 -0.34818323628E+02  0.17309724208E+02 -0.81220556232E+01  0.40000000000E+02  0.47000000000E+01 0.  1.
</event>
<event>
 5    1  0.4781763E-001  0.8000000E+02  0.7546771E-02  0.1203772E+00
         11   -1    0    0    0    0  0.00000000000E+00  0.00000000000E+00  0.40000000000E+02  0.40000000000E+02  0.00000000000E+00 0.  1.
        -11   -1    0    0    0    0 -0.00000000000E+00 -0.00000000000E+00 -0.40000000000E+02  0.40000000000E+02  0.00000000000E+00 0. -1.
         23    2    1    2    0    0  0.00000000000E+00  0.00000000000E+00  0.00000000000E+00  0.80000000000E+02  0.80000000000E+02 0.  0.
          5    1    3    3  501    0 -0.25864398666E+02  0.29954007167E+02  0.34205754317E+01  0.40000000000E+02  0.47000000000E+01 0. -1.
         -5    1    3    3    0  501  0.25864398666E+02 -0.29954007167E+02 -0.34205754317E+01  0.40000000000E+02  0.47000000000E+01 0.  1.
</event>
<event>
 5    1  0.4781763E-001  0.8000000E+02  0.7546771E-02  0.1203772E+00
         11   -1    0    0    0    0  0.00000000000E+00  0.00000000000E+00  0.40000000000E+02  0.40000000000E+02  0.00000000000E+00 0.  1.
        -11   -1    0    0    0    0 -0.00000000000E+00 -0.00000000000E+00 -0.40000000000E+02  0.40000000000E+02  0.00000000000E+00 0. -1.
         23    2    1    2    0    0  0.00000000000E+00  0.00000000000E+00  0.00000000000E+00  0.80000000000E+02  0.80000000000E+02 0.  0.
          5    1    3    3  501    0  0.99760568883E+01  0.13610802758E+02 -0.35960177103E+02  0.40000000000E+02  0.47000000000E+01 0. -1.
         -5    1    3    3    0  501 -0.99760568883E+01 -0.13610802758E+02  0.35960177103E+02  0.40000000000E+02  0.47000000000E+01 0.  1.
</event>
<event>
 5    1  0.4781763E-001  0.8000000E+02  0.7546771E-02  0.1203772E+00
         11   -1    0    0    0    0  0.00000000000E+00  0.00000000000E+00  0.40000000000E+02  0.40000000000E+02  0.00000000000E+00 0. -1.
        -11   -1    0    0    0    0 -0.00000000000E+00 -0.00000000000E+00 -0.40000000000E+02  0.40000000000E+02  0.00000000000E+00 0.  1.
         23    2    1    2    0    0  0.00000000000E+00  0.00000000000E+00  0.00000000000E+00  0.80000000000E+02  0.80000000000E+02 0.  0.
          5    1    3    3  501    0 -0.22926187567E+02 -0.29551087709E+02 -0.13380326561E+02  0.40000000000E+02  0.47000000000E+01 0. -1.
         -5    1    3    3    0  501  0.22926187567E+02  0.29551087709E+02  0.13380326561E+02  0.40000000000E+02  0.47000000000E+01 0.  1.
</event>
<event>
 5    1  0.4781763E-001  0.8000000E+02  0.7546771E-02  0.1203772E+00
         11   -1    0    0    0    0  0.00000000000E+00  0.00000000000E+00  0.40000000000E+02  0.40000000000E+02  0.00000000000E+00 0.  1.
        -11   -1    0    0    0    0 -0.00000000000E+00 -0.00000000000E+00 -0.40000000000E+02  0.40000000000E+02  0.00000000000E+00 0. -1.
         23    2    1    2    0    0  0.00000000000E+00  0.00000000000E+00  0.00000000000E+00  0.80000000000E+02  0.80000000000E+02 0.  0.
          5    1    3    3  501    0 -0.28328613577E+02 -0.27386388352E+02 -0.50383911962E+01  0.40000000000E+02  0.47000000000E+01 0. -1.
         -5    1    3    3    0  501  0.28328613577E+02  0.27386388352E+02  0.50383911962E+01  0.40000000000E+02  0.47000000000E+01 0.  1.
</event>
<event>
 5    1  0.4781763E-001  0.8000000E+02  0.7546771E-02  0.1203772E+00
         11   -1    0    0    0    0  0.00000000000E+00  0.00000000000E+00  0.40000000000E+02  0.40000000000E+02  0.00000000000E+00 0. -1.
        -11   -1    0    0    0    0 -0.00000000000E+00 -0.00000000000E+00 -0.40000000000E+02  0.40000000000E+02  0.00000000000E+00 0.  1.
         23    2    1    2    0    0  0.00000000000E+00  0.00000000000E+00  0.00000000000E+00  0.80000000000E+02  0.80000000000E+02 0.  0.
          5    1    3    3  501    0 -0.38937639699E+02  0.70482773071E+01  0.34773555525E+01  0.40000000000E+02  0.47000000000E+01 0. -1.
         -5    1    3    3    0  501  0.38937639699E+02 -0.70482773071E+01 -0.34773555525E+01  0.40000000000E+02  0.47000000000E+01 0.  1.
</event>
<event>
 5    1  0.4781763E-001  0.8000000E+02  0.7546771E-02  0.1203772E+00
         11   -1    0    0    0    0  0.00000000000E+00  0.00000000000E+00  0.40000000000E+02  0.40000000000E+02  0.00000000000E+00 0.  1.
        -11   -1    0    0    0    0 -0.00000000000E+00 -0.00000000000E+00 -0.40000000000E+02  0.40000000000E+02  0.00000000000E+00 0. -1.
         23    2    1    2    0    0  0.00000000000E+00  0.00000000000E+00  0.00000000000E+00  0.80000000000E+02  0.80000000000E+02 0.  0.
          5    1    3    3  501    0  0.17093519385E+02  0.77053200001E+01 -0.35019275246E+02  0.40000000000E+02  0.47000000000E+01 0. -1.
         -5    1    3    3    0  501 -0.17093519385E+02 -0.77053200001E+01  0.35019275246E+02  0.40000000000E+02  0.47000000000E+01 0.  1.
</event>
<event>
 5    1  0.4781763E-001  0.8000000E+02  0.7546771E-02  0.1203772E+00
         11   -1    0    0    0    0  0.00000000000E+00  0.00000000000E+00  0.40000000000E+02  0.40000000000E+02  0.00000000000E+00 0. -1.
        -11   -1    0    0    0    0 -0.00000000000E+00 -0.00000000000E+00 -0.40000000000E+02  0.40000000000E+02  0.00000000000E+00 0.  1.
         23    2    1    2    0    0  0.00000000000E+00  0.00000000000E+00  0.00000000000E+00  0.80000000000E+02  0.80000000000E+02 0.  0.
          5    1    3    3  501    0  0.25499264898E+02 -0.26185821510E+02  0.15556356948E+02  0.40000000000E+02  0.47000000000E+01 0. -1.
         -5    1    3    3    0  501 -0.25499264898E+02  0.26185821510E+02 -0.15556356948E+02  0.40000000000E+02  0.47000000000E+01 0.  1.
</event>
<event>
 5    1  0.4781763E-001  0.8000000E+02  0.7546771E-02  0.1203772E+00
         11   -1    0    0    0    0  0.00000000000E+00  0.00000000000E+00  0.40000000000E+02  0.40000000000E+02  0.00000000000E+00 0. -1.
        -11   -1    0    0    0    0 -0.00000000000E+00 -0.00000000000E+00 -0.40000000000E+02  0.40000000000E+02  0.00000000000E+00 0.  1.
         23    2    1    2    0    0  0.00000000000E+00  0.00000000000E+00  0.00000000000E+00  0.80000000000E+02  0.80000000000E+02 0.  0.
          5    1    3    3  501    0  0.30450819386E+02  0.49333716830E+01  0.25026374939E+02  0.40000000000E+02  0.47000000000E+01 0. -1.
         -5    1    3    3    0  501 -0.30450819386E+02 -0.49333716830E+01 -0.25026374939E+02  0.40000000000E+02  0.47000000000E+01 0.  1.
</event>
<event>
 5    1  0.4781763E-001  0.8000000E+02  0.7546771E-02  0.1203772E+00
         11   -1    0    0    0    0  0.00000000000E+00  0.00000000000E+00  0.40000000000E+02  0.40000000000E+02  0.00000000000E+00 0. -1.
        -11   -1    0    0    0    0 -0.00000000000E+00 -0.00000000000E+00 -0.40000000000E+02  0.40000000000E+02  0.00000000000E+00 0.  1.
         23    2    1    2    0    0  0.00000000000E+00  0.00000000000E+00  0.00000000000E+00  0.80000000000E+02  0.80000000000E+02 0.  0.
          5    1    3    3  501    0 -0.36256873153E+02  0.89329523923E+00  0.16203430896E+02  0.40000000000E+02  0.47000000000E+01 0. -1.
         -5    1    3    3    0  501  0.36256873153E+02 -0.89329523923E+00 -0.16203430896E+02  0.40000000000E+02  0.47000000000E+01 0.  1.
</event>
<event>
 5    1  0.4781763E-001  0.8000000E+02  0.7546771E-02  0.1203772E+00
         11   -1    0    0    0    0  0.00000000000E+00  0.00000000000E+00  0.40000000000E+02  0.40000000000E+02  0.00000000000E+00 0.  1.
        -11   -1    0    0    0    0 -0.00000000000E+00 -0.00000000000E+00 -0.40000000000E+02  0.40000000000E+02  0.00000000000E+00 0. -1.
         23    2    1    2    0    0  0.00000000000E+00  0.00000000000E+00  0.00000000000E+00  0.80000000000E+02  0.80000000000E+02 0.  0.
          5    1    3    3  501    0  0.27514167756E+02  0.52284841169E+01 -0.28169904625E+02  0.40000000000E+02  0.47000000000E+01 0. -1.
         -5    1    3    3    0  501 -0.27514167756E+02 -0.52284841169E+01  0.28169904625E+02  0.40000000000E+02  0.47000000000E+01 0.  1.
</event>
<event>
 5    1  0.4781763E-001  0.8000000E+02  0.7546771E-02  0.1203772E+00
         11   -1    0    0    0    0  0.00000000000E+00  0.00000000000E+00  0.40000000000E+02  0.40000000000E+02  0.00000000000E+00 0. -1.
        -11   -1    0    0    0    0 -0.00000000000E+00 -0.00000000000E+00 -0.40000000000E+02  0.40000000000E+02  0.00000000000E+00 0.  1.
         23    2    1    2    0    0  0.00000000000E+00  0.00000000000E+00  0.00000000000E+00  0.80000000000E+02  0.80000000000E+02 0.  0.
          5    1    3    3  501    0 -0.24010999286E+02  0.42367758761E+01 -0.31359713702E+02  0.40000000000E+02  0.47000000000E+01 0.  1.
         -5    1    3    3    0  501  0.24010999286E+02 -0.42367758761E+01  0.31359713702E+02  0.40000000000E+02  0.47000000000E+01 0. -1.
</event>
<event>
 5    1  0.4781763E-001  0.8000000E+02  0.7546771E-02  0.1203772E+00
         11   -1    0    0    0    0  0.00000000000E+00  0.00000000000E+00  0.40000000000E+02  0.40000000000E+02  0.00000000000E+00 0. -1.
        -11   -1    0    0    0    0 -0.00000000000E+00 -0.00000000000E+00 -0.40000000000E+02  0.40000000000E+02  0.00000000000E+00 0.  1.
         23    2    1    2    0    0  0.00000000000E+00  0.00000000000E+00  0.00000000000E+00  0.80000000000E+02  0.80000000000E+02 0.  0.
          5    1    3    3  501    0 -0.30781915262E+02  0.25105832722E+02  0.28435204580E+00  0.40000000000E+02  0.47000000000E+01 0. -1.
         -5    1    3    3    0  501  0.30781915262E+02 -0.25105832722E+02 -0.28435204580E+00  0.40000000000E+02  0.47000000000E+01 0.  1.
</event>
<event>
 5    1  0.4781763E-001  0.8000000E+02  0.7546771E-02  0.1203772E+00
         11   -1    0    0    0    0  0.00000000000E+00  0.00000000000E+00  0.40000000000E+02  0.40000000000E+02  0.00000000000E+00 0. -1.
        -11   -1    0    0    0    0 -0.00000000000E+00 -0.00000000000E+00 -0.40000000000E+02  0.40000000000E+02  0.00000000000E+00 0.  1.
         23    2    1    2    0    0  0.00000000000E+00  0.00000000000E+00  0.00000000000E+00  0.80000000000E+02  0.80000000000E+02 0.  0.
          5    1    3    3  501    0  0.24955913351E+02 -0.26065738285E+02 -0.16603905459E+02  0.40000000000E+02  0.47000000000E+01 0. -1.
         -5    1    3    3    0  501 -0.24955913351E+02  0.26065738285E+02  0.16603905459E+02  0.40000000000E+02  0.47000000000E+01 0.  1.
</event>
<event>
 5    1  0.4781763E-001  0.8000000E+02  0.7546771E-02  0.1203772E+00
         11   -1    0    0    0    0  0.00000000000E+00  0.00000000000E+00  0.40000000000E+02  0.40000000000E+02  0.00000000000E+00 0. -1.
        -11   -1    0    0    0    0 -0.00000000000E+00 -0.00000000000E+00 -0.40000000000E+02  0.40000000000E+02  0.00000000000E+00 0.  1.
         23    2    1    2    0    0  0.00000000000E+00  0.00000000000E+00  0.00000000000E+00  0.80000000000E+02  0.80000000000E+02 0.  0.
          5    1    3    3  501    0  0.12012835906E+02  0.19310045945E+02  0.32568756487E+02  0.40000000000E+02  0.47000000000E+01 0. -1.
         -5    1    3    3    0  501 -0.12012835906E+02 -0.19310045945E+02 -0.32568756487E+02  0.40000000000E+02  0.47000000000E+01 0.  1.
</event>
<event>
 5    1  0.4781763E-001  0.8000000E+02  0.7546771E-02  0.1203772E+00
         11   -1    0    0    0    0  0.00000000000E+00  0.00000000000E+00  0.40000000000E+02  0.40000000000E+02  0.00000000000E+00 0.  1.
        -11   -1    0    0    0    0 -0.00000000000E+00 -0.00000000000E+00 -0.40000000000E+02  0.40000000000E+02  0.00000000000E+00 0. -1.
         23    2    1    2    0    0  0.00000000000E+00  0.00000000000E+00  0.00000000000E+00  0.80000000000E+02  0.80000000000E+02 0.  0.
          5    1    3    3  501    0 -0.30262389679E+02 -0.44281401023E+01 -0.25347373555E+02  0.40000000000E+02  0.47000000000E+01 0. -1.
         -5    1    3    3    0  501  0.30262389679E+02  0.44281401023E+01  0.25347373555E+02  0.40000000000E+02  0.47000000000E+01 0.  1.
</event>
<event>
 5    1  0.4781763E-001  0.8000000E+02  0.7546771E-02  0.1203772E+00
         11   -1    0    0    0    0  0.00000000000E+00  0.00000000000E+00  0.40000000000E+02  0.40000000000E+02  0.00000000000E+00 0. -1.
        -11   -1    0    0    0    0 -0.00000000000E+00 -0.00000000000E+00 -0.40000000000E+02  0.40000000000E+02  0.00000000000E+00 0.  1.
         23    2    1    2    0    0  0.00000000000E+00  0.00000000000E+00  0.00000000000E+00  0.80000000000E+02  0.80000000000E+02 0.  0.
          5    1    3    3  501    0 -0.15553891058E+02 -0.36054135530E+02  0.60071444242E+01  0.40000000000E+02  0.47000000000E+01 0. -1.
         -5    1    3    3    0  501  0.15553891058E+02  0.36054135530E+02 -0.60071444242E+01  0.40000000000E+02  0.47000000000E+01 0.  1.
</event>
<event>
 5    1  0.4781763E-001  0.8000000E+02  0.7546771E-02  0.1203772E+00
         11   -1    0    0    0    0  0.00000000000E+00  0.00000000000E+00  0.40000000000E+02  0.40000000000E+02  0.00000000000E+00 0.  1.
        -11   -1    0    0    0    0 -0.00000000000E+00 -0.00000000000E+00 -0.40000000000E+02  0.40000000000E+02  0.00000000000E+00 0. -1.
         23    2    1    2    0    0  0.00000000000E+00  0.00000000000E+00  0.00000000000E+00  0.80000000000E+02  0.80000000000E+02 0.  0.
          5    1    3    3  501    0  0.37988136363E+02  0.30156793862E+01 -0.11212366989E+02  0.40000000000E+02  0.47000000000E+01 0. -1.
         -5    1    3    3    0  501 -0.37988136363E+02 -0.30156793862E+01  0.11212366989E+02  0.40000000000E+02  0.47000000000E+01 0.  1.
</event>
<event>
 5    1  0.4781763E-001  0.8000000E+02  0.7546771E-02  0.1203772E+00
         11   -1    0    0    0    0  0.00000000000E+00  0.00000000000E+00  0.40000000000E+02  0.40000000000E+02  0.00000000000E+00 0. -1.
        -11   -1    0    0    0    0 -0.00000000000E+00 -0.00000000000E+00 -0.40000000000E+02  0.40000000000E+02  0.00000000000E+00 0.  1.
         23    2    1    2    0    0  0.00000000000E+00  0.00000000000E+00  0.00000000000E+00  0.80000000000E+02  0.80000000000E+02 0.  0.
          5    1    3    3  501    0 -0.87584622342E+00 -0.60442051231E+01  0.39250611178E+02  0.40000000000E+02  0.47000000000E+01 0. -1.
         -5    1    3    3    0  501  0.87584622342E+00  0.60442051231E+01 -0.39250611178E+02  0.40000000000E+02  0.47000000000E+01 0.  1.
</event>
<event>
 5    1  0.4781763E-001  0.8000000E+02  0.7546771E-02  0.1203772E+00
         11   -1    0    0    0    0  0.00000000000E+00  0.00000000000E+00  0.40000000000E+02  0.40000000000E+02  0.00000000000E+00 0. -1.
        -11   -1    0    0    0    0 -0.00000000000E+00 -0.00000000000E+00 -0.40000000000E+02  0.40000000000E+02  0.00000000000E+00 0.  1.
         23    2    1    2    0    0  0.00000000000E+00  0.00000000000E+00  0.00000000000E+00  0.80000000000E+02  0.80000000000E+02 0.  0.
          5    1    3    3  501    0 -0.10983564204E+02  0.22656377196E+01  0.38106931169E+02  0.40000000000E+02  0.47000000000E+01 0. -1.
         -5    1    3    3    0  501  0.10983564204E+02 -0.22656377196E+01 -0.38106931169E+02  0.40000000000E+02  0.47000000000E+01 0.  1.
</event>
<event>
 5    1  0.4781763E-001  0.8000000E+02  0.7546771E-02  0.1203772E+00
         11   -1    0    0    0    0  0.00000000000E+00  0.00000000000E+00  0.40000000000E+02  0.40000000000E+02  0.00000000000E+00 0. -1.
        -11   -1    0    0    0    0 -0.00000000000E+00 -0.00000000000E+00 -0.40000000000E+02  0.40000000000E+02  0.00000000000E+00 0.  1.
         23    2    1    2    0    0  0.00000000000E+00  0.00000000000E+00  0.00000000000E+00  0.80000000000E+02  0.80000000000E+02 0.  0.
          5    1    3    3  501    0  0.21752179534E+02  0.15393108767E+02  0.29458528273E+02  0.40000000000E+02  0.47000000000E+01 0. -1.
         -5    1    3    3    0  501 -0.21752179534E+02 -0.15393108767E+02 -0.29458528273E+02  0.40000000000E+02  0.47000000000E+01 0.  1.
</event>
<event>
 5    1  0.4781763E-001  0.8000000E+02  0.7546771E-02  0.1203772E+00
         11   -1    0    0    0    0  0.00000000000E+00  0.00000000000E+00  0.40000000000E+02  0.40000000000E+02  0.00000000000E+00 0. -1.
        -11   -1    0    0    0    0 -0.00000000000E+00 -0.00000000000E+00 -0.40000000000E+02  0.40000000000E+02  0.00000000000E+00 0.  1.
         23    2    1    2    0    0  0.00000000000E+00  0.00000000000E+00  0.00000000000E+00  0.80000000000E+02  0.80000000000E+02 0.  0.
          5    1    3    3  501    0 -0.21344236735E+02  0.32825119871E+02  0.66966457023E+01  0.40000000000E+02  0.47000000000E+01 0. -1.
         -5    1    3    3    0  501  0.21344236735E+02 -0.32825119871E+02 -0.66966457023E+01  0.40000000000E+02  0.47000000000E+01 0.  1.
</event>
<event>
 5    1  0.4781763E-001  0.8000000E+02  0.7546771E-02  0.1203772E+00
         11   -1    0    0    0    0  0.00000000000E+00  0.00000000000E+00  0.40000000000E+02  0.40000000000E+02  0.00000000000E+00 0. -1.
        -11   -1    0    0    0    0 -0.00000000000E+00 -0.00000000000E+00 -0.40000000000E+02  0.40000000000E+02  0.00000000000E+00 0.  1.
         23    2    1    2    0    0  0.00000000000E+00  0.00000000000E+00  0.00000000000E+00  0.80000000000E+02  0.80000000000E+02 0.  0.
          5    1    3    3  501    0  0.32289110733E+02  0.15854008678E+02 -0.16851520314E+02  0.40000000000E+02  0.47000000000E+01 0.  1.
         -5    1    3    3    0  501 -0.32289110733E+02 -0.15854008678E+02  0.16851520314E+02  0.40000000000E+02  0.47000000000E+01 0. -1.
</event>
<event>
 5    1  0.4781763E-001  0.8000000E+02  0.7546771E-02  0.1203772E+00
         11   -1    0    0    0    0  0.00000000000E+00  0.00000000000E+00  0.40000000000E+02  0.40000000000E+02  0.00000000000E+00 0. -1.
        -11   -1    0    0    0    0 -0.00000000000E+00 -0.00000000000E+00 -0.40000000000E+02  0.40000000000E+02  0.00000000000E+00 0.  1.
         23    2    1    2    0    0  0.00000000000E+00  0.00000000000E+00  0.00000000000E+00  0.80000000000E+02  0.80000000000E+02 0.  0.
          5    1    3    3  501    0  0.15354289172E+02 -0.27011645972E+02  0.24749278493E+02  0.40000000000E+02  0.47000000000E+01 0. -1.
         -5    1    3    3    0  501 -0.15354289172E+02  0.27011645972E+02 -0.24749278493E+02  0.40000000000E+02  0.47000000000E+01 0.  1.
</event>
<event>
 5    1  0.4781763E-001  0.8000000E+02  0.7546771E-02  0.1203772E+00
         11   -1    0    0    0    0  0.00000000000E+00  0.00000000000E+00  0.40000000000E+02  0.40000000000E+02  0.00000000000E+00 0. -1.
        -11   -1    0    0    0    0 -0.00000000000E+00 -0.00000000000E+00 -0.40000000000E+02  0.40000000000E+02  0.00000000000E+00 0.  1.
         23    2    1    2    0    0  0.00000000000E+00  0.00000000000E+00  0.00000000000E+00  0.80000000000E+02  0.80000000000E+02 0.  0.
          5    1    3    3  501    0  0.25951768694E+02 -0.18211653859E+02  0.23932224414E+02  0.40000000000E+02  0.47000000000E+01 0. -1.
         -5    1    3    3    0  501 -0.25951768694E+02  0.18211653859E+02 -0.23932224414E+02  0.40000000000E+02  0.47000000000E+01 0.  1.
</event>
<event>
 5    1  0.4781763E-001  0.8000000E+02  0.7546771E-02  0.1203772E+00
         11   -1    0    0    0    0  0.00000000000E+00  0.00000000000E+00  0.40000000000E+02  0.40000000000E+02  0.00000000000E+00 0. -1.
        -11   -1    0    0    0    0 -0.00000000000E+00 -0.00000000000E+00 -0.40000000000E+02  0.40000000000E+02  0.00000000000E+00 0.  1.
         23    2    1    2    0    0  0.00000000000E+00  0.00000000000E+00  0.00000000000E+00  0.80000000000E+02  0.80000000000E+02 0.  0.
          5    1    3    3  501    0  0.29542120081E+02 -0.17188113863E+02  0.20242081982E+02  0.40000000000E+02  0.47000000000E+01 0. -1.
         -5    1    3    3    0  501 -0.29542120081E+02  0.17188113863E+02 -0.20242081982E+02  0.40000000000E+02  0.47000000000E+01 0.  1.
</event>
<event>
 5    1  0.4781763E-001  0.8000000E+02  0.7546771E-02  0.1203772E+00
         11   -1    0    0    0    0  0.00000000000E+00  0.00000000000E+00  0.40000000000E+02  0.40000000000E+02  0.00000000000E+00 0.  1.
        -11   -1    0    0    0    0 -0.00000000000E+00 -0.00000000000E+00 -0.40000000000E+02  0.40000000000E+02  0.00000000000E+00 0. -1.
         23    2    1    2    0    0  0.00000000000E+00  0.00000000000E+00  0.00000000000E+00  0.80000000000E+02  0.80000000000E+02 0.  0.
          5    1    3    3  501    0 -0.22796895148E+01 -0.12185099776E+02 -0.37739056151E+02  0.40000000000E+02  0.47000000000E+01 0. -1.
         -5    1    3    3    0  501  0.22796895148E+01  0.12185099776E+02  0.37739056151E+02  0.40000000000E+02  0.47000000000E+01 0.  1.
</event>
<event>
 5    1  0.4781763E-001  0.8000000E+02  0.7546771E-02  0.1203772E+00
         11   -1    0    0    0    0  0.00000000000E+00  0.00000000000E+00  0.40000000000E+02  0.40000000000E+02  0.00000000000E+00 0. -1.
        -11   -1    0    0    0    0 -0.00000000000E+00 -0.00000000000E+00 -0.40000000000E+02  0.40000000000E+02  0.00000000000E+00 0.  1.
         23    2    1    2    0    0  0.00000000000E+00  0.00000000000E+00  0.00000000000E+00  0.80000000000E+02  0.80000000000E+02 0.  0.
          5    1    3    3  501    0  0.12749250411E+02 -0.18696308207E+02 -0.32646817202E+02  0.40000000000E+02  0.47000000000E+01 0.  1.
         -5    1    3    3    0  501 -0.12749250411E+02  0.18696308207E+02  0.32646817202E+02  0.40000000000E+02  0.47000000000E+01 0. -1.
</event>
<event>
 5    1  0.4781763E-001  0.8000000E+02  0.7546771E-02  0.1203772E+00
         11   -1    0    0    0    0  0.00000000000E+00  0.00000000000E+00  0.40000000000E+02  0.40000000000E+02  0.00000000000E+00 0.  1.
        -11   -1    0    0    0    0 -0.00000000000E+00 -0.00000000000E+00 -0.40000000000E+02  0.40000000000E+02  0.00000000000E+00 0. -1.
         23    2    1    2    0    0  0.00000000000E+00  0.00000000000E+00  0.00000000000E+00  0.80000000000E+02  0.80000000000E+02 0.  0.
          5    1    3    3  501    0 -0.94126457666E+01 -0.35621313239E+02 -0.14847024713E+02  0.40000000000E+02  0.47000000000E+01 0. -1.
         -5    1    3    3    0  501  0.94126457666E+01  0.35621313239E+02  0.14847024713E+02  0.40000000000E+02  0.47000000000E+01 0.  1.
</event>
<event>
 5    1  0.4781763E-001  0.8000000E+02  0.7546771E-02  0.1203772E+00
         11   -1    0    0    0    0  0.00000000000E+00  0.00000000000E+00  0.40000000000E+02  0.40000000000E+02  0.00000000000E+00 0.  1.
        -11   -1    0    0    0    0 -0.00000000000E+00 -0.00000000000E+00 -0.40000000000E+02  0.40000000000E+02  0.00000000000E+00 0. -1.
         23    2    1    2    0    0  0.00000000000E+00  0.00000000000E+00  0.00000000000E+00  0.80000000000E+02  0.80000000000E+02 0.  0.
          5    1    3    3  501    0  0.38285693282E+02 -0.10286122959E+02 -0.25122428919E+01  0.40000000000E+02  0.47000000000E+01 0. -1.
         -5    1    3    3    0  501 -0.38285693282E+02  0.10286122959E+02  0.25122428919E+01  0.40000000000E+02  0.47000000000E+01 0.  1.
</event>
<event>
 5    1  0.4781763E-001  0.8000000E+02  0.7546771E-02  0.1203772E+00
         11   -1    0    0    0    0  0.00000000000E+00  0.00000000000E+00  0.40000000000E+02  0.40000000000E+02  0.00000000000E+00 0. -1.
        -11   -1    0    0    0    0 -0.00000000000E+00 -0.00000000000E+00 -0.40000000000E+02  0.40000000000E+02  0.00000000000E+00 0.  1.
         23    2    1    2    0    0  0.00000000000E+00  0.00000000000E+00  0.00000000000E+00  0.80000000000E+02  0.80000000000E+02 0.  0.
          5    1    3    3  501    0  0.39497132136E+01 -0.33542819786E+02 -0.20909065171E+02  0.40000000000E+02  0.47000000000E+01 0. -1.
         -5    1    3    3    0  501 -0.39497132136E+01  0.33542819786E+02  0.20909065171E+02  0.40000000000E+02  0.47000000000E+01 0.  1.
</event>
<event>
 5    1  0.4781763E-001  0.8000000E+02  0.7546771E-02  0.1203772E+00
         11   -1    0    0    0    0  0.00000000000E+00  0.00000000000E+00  0.40000000000E+02  0.40000000000E+02  0.00000000000E+00 0. -1.
        -11   -1    0    0    0    0 -0.00000000000E+00 -0.00000000000E+00 -0.40000000000E+02  0.40000000000E+02  0.00000000000E+00 0.  1.
         23    2    1    2    0    0  0.00000000000E+00  0.00000000000E+00  0.00000000000E+00  0.80000000000E+02  0.80000000000E+02 0.  0.
          5    1    3    3  501    0  0.14096737429E+02 -0.15300438304E+02  0.33839157519E+02  0.40000000000E+02  0.47000000000E+01 0. -1.
         -5    1    3    3    0  501 -0.14096737429E+02  0.15300438304E+02 -0.33839157519E+02  0.40000000000E+02  0.47000000000E+01 0.  1.
</event>
<event>
 5    1  0.4781763E-001  0.8000000E+02  0.7546771E-02  0.1203772E+00
         11   -1    0    0    0    0  0.00000000000E+00  0.00000000000E+00  0.40000000000E+02  0.40000000000E+02  0.00000000000E+00 0.  1.
        -11   -1    0    0    0    0 -0.00000000000E+00 -0.00000000000E+00 -0.40000000000E+02  0.40000000000E+02  0.00000000000E+00 0. -1.
         23    2    1    2    0    0  0.00000000000E+00  0.00000000000E+00  0.00000000000E+00  0.80000000000E+02  0.80000000000E+02 0.  0.
          5    1    3    3  501    0 -0.38783180210E+02  0.26275777951E+01 -0.81774548452E+01  0.40000000000E+02  0.47000000000E+01 0. -1.
         -5    1    3    3    0  501  0.38783180210E+02 -0.26275777951E+01  0.81774548452E+01  0.40000000000E+02  0.47000000000E+01 0.  1.
</event>
<event>
 5    1  0.4781763E-001  0.8000000E+02  0.7546771E-02  0.1203772E+00
         11   -1    0    0    0    0  0.00000000000E+00  0.00000000000E+00  0.40000000000E+02  0.40000000000E+02  0.00000000000E+00 0.  1.
        -11   -1    0    0    0    0 -0.00000000000E+00 -0.00000000000E+00 -0.40000000000E+02  0.40000000000E+02  0.00000000000E+00 0. -1.
         23    2    1    2    0    0  0.00000000000E+00  0.00000000000E+00  0.00000000000E+00  0.80000000000E+02  0.80000000000E+02 0.  0.
          5    1    3    3  501    0 -0.17375986582E+02  0.18576127310E+02 -0.30510860107E+02  0.40000000000E+02  0.47000000000E+01 0. -1.
         -5    1    3    3    0  501  0.17375986582E+02 -0.18576127310E+02  0.30510860107E+02  0.40000000000E+02  0.47000000000E+01 0.  1.
</event>
<event>
 5    1  0.4781763E-001  0.8000000E+02  0.7546771E-02  0.1203772E+00
         11   -1    0    0    0    0  0.00000000000E+00  0.00000000000E+00  0.40000000000E+02  0.40000000000E+02  0.00000000000E+00 0.  1.
        -11   -1    0    0    0    0 -0.00000000000E+00 -0.00000000000E+00 -0.40000000000E+02  0.40000000000E+02  0.00000000000E+00 0. -1.
         23    2    1    2    0    0  0.00000000000E+00  0.00000000000E+00  0.00000000000E+00  0.80000000000E+02  0.80000000000E+02 0.  0.
          5    1    3    3  501    0 -0.35488366183E+02 -0.16633275926E+02 -0.64668383036E+01  0.40000000000E+02  0.47000000000E+01 0. -1.
         -5    1    3    3    0  501  0.35488366183E+02  0.16633275926E+02  0.64668383036E+01  0.40000000000E+02  0.47000000000E+01 0.  1.
</event>
<event>
 5    1  0.4781763E-001  0.8000000E+02  0.7546771E-02  0.1203772E+00
         11   -1    0    0    0    0  0.00000000000E+00  0.00000000000E+00  0.40000000000E+02  0.40000000000E+02  0.00000000000E+00 0.  1.
        -11   -1    0    0    0    0 -0.00000000000E+00 -0.00000000000E+00 -0.40000000000E+02  0.40000000000E+02  0.00000000000E+00 0. -1.
         23    2    1    2    0    0  0.00000000000E+00  0.00000000000E+00  0.00000000000E+00  0.80000000000E+02  0.80000000000E+02 0.  0.
          5    1    3    3  501    0  0.36266658011E+02  0.15256547546E+02 -0.54660107685E+01  0.40000000000E+02  0.47000000000E+01 0. -1.
         -5    1    3    3    0  501 -0.36266658011E+02 -0.15256547546E+02  0.54660107685E+01  0.40000000000E+02  0.47000000000E+01 0.  1.
</event>
<event>
 5    1  0.4781763E-001  0.8000000E+02  0.7546771E-02  0.1203772E+00
         11   -1    0    0    0    0  0.00000000000E+00  0.00000000000E+00  0.40000000000E+02  0.40000000000E+02  0.00000000000E+00 0. -1.
        -11   -1    0    0    0    0 -0.00000000000E+00 -0.00000000000E+00 -0.40000000000E+02  0.40000000000E+02  0.00000000000E+00 0.  1.
         23    2    1    2    0    0  0.00000000000E+00  0.00000000000E+00  0.00000000000E+00  0.80000000000E+02  0.80000000000E+02 0.  0.
          5    1    3    3  501    0  0.70010022428E+01  0.37307686165E+02  0.11706089040E+02  0.40000000000E+02  0.47000000000E+01 0. -1.
         -5    1    3    3    0  501 -0.70010022428E+01 -0.37307686165E+02 -0.11706089040E+02  0.40000000000E+02  0.47000000000E+01 0.  1.
</event>
<event>
 5    1  0.4781763E-001  0.8000000E+02  0.7546771E-02  0.1203772E+00
         11   -1    0    0    0    0  0.00000000000E+00  0.00000000000E+00  0.40000000000E+02  0.40000000000E+02  0.00000000000E+00 0.  1.
        -11   -1    0    0    0    0 -0.00000000000E+00 -0.00000000000E+00 -0.40000000000E+02  0.40000000000E+02  0.00000000000E+00 0. -1.
         23    2    1    2    0    0  0.00000000000E+00  0.00000000000E+00  0.00000000000E+00  0.80000000000E+02  0.80000000000E+02 0.  0.
          5    1    3    3  501    0  0.34763759098E+01 -0.13512373409E+02 -0.37191942345E+02  0.40000000000E+02  0.47000000000E+01 0. -1.
         -5    1    3    3    0  501 -0.34763759098E+01  0.13512373409E+02  0.37191942345E+02  0.40000000000E+02  0.47000000000E+01 0.  1.
</event>
<event>
 5    1  0.4781763E-001  0.8000000E+02  0.7546771E-02  0.1203772E+00
         11   -1    0    0    0    0  0.00000000000E+00  0.00000000000E+00  0.40000000000E+02  0.40000000000E+02  0.00000000000E+00 0. -1.
        -11   -1    0    0    0    0 -0.00000000000E+00 -0.00000000000E+00 -0.40000000000E+02  0.40000000000E+02  0.00000000000E+00 0.  1.
         23    2    1    2    0    0  0.00000000000E+00  0.00000000000E+00  0.00000000000E+00  0.80000000000E+02  0.80000000000E+02 0.  0.
          5    1    3    3  501    0 -0.15820968172E+02  0.81295974599E+01  0.35517835115E+02  0.40000000000E+02  0.47000000000E+01 0. -1.
         -5    1    3    3    0  501  0.15820968172E+02 -0.81295974599E+01 -0.35517835115E+02  0.40000000000E+02  0.47000000000E+01 0.  1.
</event>
<event>
 5    1  0.4781763E-001  0.8000000E+02  0.7546771E-02  0.1203772E+00
         11   -1    0    0    0    0  0.00000000000E+00  0.00000000000E+00  0.40000000000E+02  0.40000000000E+02  0.00000000000E+00 0.  1.
        -11   -1    0    0    0    0 -0.00000000000E+00 -0.00000000000E+00 -0.40000000000E+02  0.40000000000E+02  0.00000000000E+00 0. -1.
         23    2    1    2    0    0  0.00000000000E+00  0.00000000000E+00  0.00000000000E+00  0.80000000000E+02  0.80000000000E+02 0.  0.
          5    1    3    3  501    0  0.36338107428E+02 -0.13278429472E+02 -0.90075112728E+01  0.40000000000E+02  0.47000000000E+01 0. -1.
         -5    1    3    3    0  501 -0.36338107428E+02  0.13278429472E+02  0.90075112728E+01  0.40000000000E+02  0.47000000000E+01 0.  1.
</event>
<event>
 5    1  0.4781763E-001  0.8000000E+02  0.7546771E-02  0.1203772E+00
         11   -1    0    0    0    0  0.00000000000E+00  0.00000000000E+00  0.40000000000E+02  0.40000000000E+02  0.00000000000E+00 0. -1.
        -11   -1    0    0    0    0 -0.00000000000E+00 -0.00000000000E+00 -0.40000000000E+02  0.40000000000E+02  0.00000000000E+00 0.  1.
         23    2    1    2    0    0  0.00000000000E+00  0.00000000000E+00  0.00000000000E+00  0.80000000000E+02  0.80000000000E+02 0.  0.
          5    1    3    3  501    0  0.31722635719E+02 -0.10741804086E+01  0.23883687309E+02  0.40000000000E+02  0.47000000000E+01 0. -1.
         -5    1    3    3    0  501 -0.31722635719E+02  0.10741804086E+01 -0.23883687309E+02  0.40000000000E+02  0.47000000000E+01 0.  1.
</event>
<event>
 5    1  0.4781763E-001  0.8000000E+02  0.7546771E-02  0.1203772E+00
         11   -1    0    0    0    0  0.00000000000E+00  0.00000000000E+00  0.40000000000E+02  0.40000000000E+02  0.00000000000E+00 0.  1.
        -11   -1    0    0    0    0 -0.00000000000E+00 -0.00000000000E+00 -0.40000000000E+02  0.40000000000E+02  0.00000000000E+00 0. -1.
         23    2    1    2    0    0  0.00000000000E+00  0.00000000000E+00  0.00000000000E+00  0.80000000000E+02  0.80000000000E+02 0.  0.
          5    1    3    3  501    0 -0.18156961378E+02  0.34318757804E+02  0.83939035214E+01  0.40000000000E+02  0.47000000000E+01 0. -1.
         -5    1    3    3    0  501  0.18156961378E+02 -0.34318757804E+02 -0.83939035214E+01  0.40000000000E+02  0.47000000000E+01 0.  1.
</event>
<event>
 5    1  0.4781763E-001  0.8000000E+02  0.7546771E-02  0.1203772E+00
         11   -1    0    0    0    0  0.00000000000E+00  0.00000000000E+00  0.40000000000E+02  0.40000000000E+02  0.00000000000E+00 0.  1.
        -11   -1    0    0    0    0 -0.00000000000E+00 -0.00000000000E+00 -0.40000000000E+02  0.40000000000E+02  0.00000000000E+00 0. -1.
         23    2    1    2    0    0  0.00000000000E+00  0.00000000000E+00  0.00000000000E+00  0.80000000000E+02  0.80000000000E+02 0.  0.
          5    1    3    3  501    0 -0.14197809604E+02  0.21790624040E+02 -0.30025004686E+02  0.40000000000E+02  0.47000000000E+01 0. -1.
         -5    1    3    3    0  501  0.14197809604E+02 -0.21790624040E+02  0.30025004686E+02  0.40000000000E+02  0.47000000000E+01 0.  1.
</event>
<event>
 5    1  0.4781763E-001  0.8000000E+02  0.7546771E-02  0.1203772E+00
         11   -1    0    0    0    0  0.00000000000E+00  0.00000000000E+00  0.40000000000E+02  0.40000000000E+02  0.00000000000E+00 0. -1.
        -11   -1    0    0    0    0 -0.00000000000E+00 -0.00000000000E+00 -0.40000000000E+02  0.40000000000E+02  0.00000000000E+00 0.  1.
         23    2    1    2    0    0  0.00000000000E+00  0.00000000000E+00  0.00000000000E+00  0.80000000000E+02  0.80000000000E+02 0.  0.
          5    1    3    3  501    0  0.85995268136E+01  0.15008855394E+02  0.35758808682E+02  0.40000000000E+02  0.47000000000E+01 0. -1.
         -5    1    3    3    0  501 -0.85995268136E+01 -0.15008855394E+02 -0.35758808682E+02  0.40000000000E+02  0.47000000000E+01 0.  1.
</event>
<event>
 5    1  0.4781763E-001  0.8000000E+02  0.7546771E-02  0.1203772E+00
         11   -1    0    0    0    0  0.00000000000E+00  0.00000000000E+00  0.40000000000E+02  0.40000000000E+02  0.00000000000E+00 0. -1.
        -11   -1    0    0    0    0 -0.00000000000E+00 -0.00000000000E+00 -0.40000000000E+02  0.40000000000E+02  0.00000000000E+00 0.  1.
         23    2    1    2    0    0  0.00000000000E+00  0.00000000000E+00  0.00000000000E+00  0.80000000000E+02  0.80000000000E+02 0.  0.
          5    1    3    3  501    0 -0.24948584740E+02  0.12849125109E+02  0.28113663998E+02  0.40000000000E+02  0.47000000000E+01 0. -1.
         -5    1    3    3    0  501  0.24948584740E+02 -0.12849125109E+02 -0.28113663998E+02  0.40000000000E+02  0.47000000000E+01 0.  1.
</event>
<event>
 5    1  0.4781763E-001  0.8000000E+02  0.7546771E-02  0.1203772E+00
         11   -1    0    0    0    0  0.00000000000E+00  0.00000000000E+00  0.40000000000E+02  0.40000000000E+02  0.00000000000E+00 0. -1.
        -11   -1    0    0    0    0 -0.00000000000E+00 -0.00000000000E+00 -0.40000000000E+02  0.40000000000E+02  0.00000000000E+00 0.  1.
         23    2    1    2    0    0  0.00000000000E+00  0.00000000000E+00  0.00000000000E+00  0.80000000000E+02  0.80000000000E+02 0.  0.
          5    1    3    3  501    0 -0.19144416385E+02 -0.15930315995E+02  0.30945538509E+02  0.40000000000E+02  0.47000000000E+01 0. -1.
         -5    1    3    3    0  501  0.19144416385E+02  0.15930315995E+02 -0.30945538509E+02  0.40000000000E+02  0.47000000000E+01 0.  1.
</event>
<event>
 5    1  0.4781763E-001  0.8000000E+02  0.7546771E-02  0.1203772E+00
         11   -1    0    0    0    0  0.00000000000E+00  0.00000000000E+00  0.40000000000E+02  0.40000000000E+02  0.00000000000E+00 0.  1.
        -11   -1    0    0    0    0 -0.00000000000E+00 -0.00000000000E+00 -0.40000000000E+02  0.40000000000E+02  0.00000000000E+00 0. -1.
         23    2    1    2    0    0  0.00000000000E+00  0.00000000000E+00  0.00000000000E+00  0.80000000000E+02  0.80000000000E+02 0.  0.
          5    1    3    3  501    0  0.10584258871E+02  0.36132005476E+02  0.12663397824E+02  0.40000000000E+02  0.47000000000E+01 0. -1.
         -5    1    3    3    0  501 -0.10584258871E+02 -0.36132005476E+02 -0.12663397824E+02  0.40000000000E+02  0.47000000000E+01 0.  1.
</event>
<event>
 5    1  0.4781763E-001  0.8000000E+02  0.7546771E-02  0.1203772E+00
         11   -1    0    0    0    0  0.00000000000E+00  0.00000000000E+00  0.40000000000E+02  0.40000000000E+02  0.00000000000E+00 0. -1.
        -11   -1    0    0    0    0 -0.00000000000E+00 -0.00000000000E+00 -0.40000000000E+02  0.40000000000E+02  0.00000000000E+00 0.  1.
         23    2    1    2    0    0  0.00000000000E+00  0.00000000000E+00  0.00000000000E+00  0.80000000000E+02  0.80000000000E+02 0.  0.
          5    1    3    3  501    0  0.17080799625E+02 -0.34683092561E+02 -0.91235615070E+01  0.40000000000E+02  0.47000000000E+01 0. -1.
         -5    1    3    3    0  501 -0.17080799625E+02  0.34683092561E+02  0.91235615070E+01  0.40000000000E+02  0.47000000000E+01 0.  1.
</event>
<event>
 5    1  0.4781763E-001  0.8000000E+02  0.7546771E-02  0.1203772E+00
         11   -1    0    0    0    0  0.00000000000E+00  0.00000000000E+00  0.40000000000E+02  0.40000000000E+02  0.00000000000E+00 0. -1.
        -11   -1    0    0    0    0 -0.00000000000E+00 -0.00000000000E+00 -0.40000000000E+02  0.40000000000E+02  0.00000000000E+00 0.  1.
         23    2    1    2    0    0  0.00000000000E+00  0.00000000000E+00  0.00000000000E+00  0.80000000000E+02  0.80000000000E+02 0.  0.
          5    1    3    3  501    0 -0.24256338578E+02  0.21866852228E+02  0.22613730618E+02  0.40000000000E+02  0.47000000000E+01 0. -1.
         -5    1    3    3    0  501  0.24256338578E+02 -0.21866852228E+02 -0.22613730618E+02  0.40000000000E+02  0.47000000000E+01 0.  1.
</event>
<event>
 5    1  0.4781763E-001  0.8000000E+02  0.7546771E-02  0.1203772E+00
         11   -1    0    0    0    0  0.00000000000E+00  0.00000000000E+00  0.40000000000E+02  0.40000000000E+02  0.00000000000E+00 0.  1.
        -11   -1    0    0    0    0 -0.00000000000E+00 -0.00000000000E+00 -0.40000000000E+02  0.40000000000E+02  0.00000000000E+00 0. -1.
         23    2    1    2    0    0  0.00000000000E+00  0.00000000000E+00  0.00000000000E+00  0.80000000000E+02  0.80000000000E+02 0.  0.
          5    1    3    3  501    0  0.35988253151E+02 -0.13536900016E+02  0.99753683196E+01  0.40000000000E+02  0.47000000000E+01 0. -1.
         -5    1    3    3    0  501 -0.35988253151E+02  0.13536900016E+02 -0.99753683196E+01  0.40000000000E+02  0.47000000000E+01 0.  1.
</event>
<event>
 5    1  0.4781763E-001  0.8000000E+02  0.7546771E-02  0.1203772E+00
         11   -1    0    0    0    0  0.00000000000E+00  0.00000000000E+00  0.40000000000E+02  0.40000000000E+02  0.00000000000E+00 0. -1.
        -11   -1    0    0    0    0 -0.00000000000E+00 -0.00000000000E+00 -0.40000000000E+02  0.40000000000E+02  0.00000000000E+00 0.  1.
         23    2    1    2    0    0  0.00000000000E+00  0.00000000000E+00  0.00000000000E+00  0.80000000000E+02  0.80000000000E+02 0.  0.
          5    1    3    3  501    0 -0.32129742778E+02 -0.19491361980E+02  0.12871535930E+02  0.40000000000E+02  0.47000000000E+01 0. -1.
         -5    1    3    3    0  501  0.32129742778E+02  0.19491361980E+02 -0.12871535930E+02  0.40000000000E+02  0.47000000000E+01 0.  1.
</event>
<event>
 5    1  0.4781763E-001  0.8000000E+02  0.7546771E-02  0.1203772E+00
         11   -1    0    0    0    0  0.00000000000E+00  0.00000000000E+00  0.40000000000E+02  0.40000000000E+02  0.00000000000E+00 0. -1.
        -11   -1    0    0    0    0 -0.00000000000E+00 -0.00000000000E+00 -0.40000000000E+02  0.40000000000E+02  0.00000000000E+00 0.  1.
         23    2    1    2    0    0  0.00000000000E+00  0.00000000000E+00  0.00000000000E+00  0.80000000000E+02  0.80000000000E+02 0.  0.
          5    1    3    3  501    0 -0.77256811492E+01  0.15325355542E+02  0.35823977003E+02  0.40000000000E+02  0.47000000000E+01 0. -1.
         -5    1    3    3    0  501  0.77256811492E+01 -0.15325355542E+02 -0.35823977003E+02  0.40000000000E+02  0.47000000000E+01 0.  1.
</event>
<event>
 5    1  0.4781763E-001  0.8000000E+02  0.7546771E-02  0.1203772E+00
         11   -1    0    0    0    0  0.00000000000E+00  0.00000000000E+00  0.40000000000E+02  0.40000000000E+02  0.00000000000E+00 0. -1.
        -11   -1    0    0    0    0 -0.00000000000E+00 -0.00000000000E+00 -0.40000000000E+02  0.40000000000E+02  0.00000000000E+00 0.  1.
         23    2    1    2    0    0  0.00000000000E+00  0.00000000000E+00  0.00000000000E+00  0.80000000000E+02  0.80000000000E+02 0.  0.
          5    1    3    3  501    0  0.32849780842E+02  0.10041048046E+02  0.19949417354E+02  0.40000000000E+02  0.47000000000E+01 0. -1.
         -5    1    3    3    0  501 -0.32849780842E+02 -0.10041048046E+02 -0.19949417354E+02  0.40000000000E+02  0.47000000000E+01 0.  1.
</event>
<event>
 5    1  0.4781763E-001  0.8000000E+02  0.7546771E-02  0.1203772E+00
         11   -1    0    0    0    0  0.00000000000E+00  0.00000000000E+00  0.40000000000E+02  0.40000000000E+02  0.00000000000E+00 0.  1.
        -11   -1    0    0    0    0 -0.00000000000E+00 -0.00000000000E+00 -0.40000000000E+02  0.40000000000E+02  0.00000000000E+00 0. -1.
         23    2    1    2    0    0  0.00000000000E+00  0.00000000000E+00  0.00000000000E+00  0.80000000000E+02  0.80000000000E+02 0.  0.
          5    1    3    3  501    0 -0.30469412343E+02 -0.20182116834E+02 -0.15563003295E+02  0.40000000000E+02  0.47000000000E+01 0. -1.
         -5    1    3    3    0  501  0.30469412343E+02  0.20182116834E+02  0.15563003295E+02  0.40000000000E+02  0.47000000000E+01 0.  1.
</event>
<event>
 5    1  0.4781763E-001  0.8000000E+02  0.7546771E-02  0.1203772E+00
         11   -1    0    0    0    0  0.00000000000E+00  0.00000000000E+00  0.40000000000E+02  0.40000000000E+02  0.00000000000E+00 0. -1.
        -11   -1    0    0    0    0 -0.00000000000E+00 -0.00000000000E+00 -0.40000000000E+02  0.40000000000E+02  0.00000000000E+00 0.  1.
         23    2    1    2    0    0  0.00000000000E+00  0.00000000000E+00  0.00000000000E+00  0.80000000000E+02  0.80000000000E+02 0.  0.
          5    1    3    3  501    0  0.32655961574E+01 -0.25159632477E+02  0.30565319814E+02  0.40000000000E+02  0.47000000000E+01 0. -1.
         -5    1    3    3    0  501 -0.32655961574E+01  0.25159632477E+02 -0.30565319814E+02  0.40000000000E+02  0.47000000000E+01 0.  1.
</event>
<event>
 5    1  0.4781763E-001  0.8000000E+02  0.7546771E-02  0.1203772E+00
         11   -1    0    0    0    0  0.00000000000E+00  0.00000000000E+00  0.40000000000E+02  0.40000000000E+02  0.00000000000E+00 0. -1.
        -11   -1    0    0    0    0 -0.00000000000E+00 -0.00000000000E+00 -0.40000000000E+02  0.40000000000E+02  0.00000000000E+00 0.  1.
         23    2    1    2    0    0  0.00000000000E+00  0.00000000000E+00  0.00000000000E+00  0.80000000000E+02  0.80000000000E+02 0.  0.
          5    1    3    3  501    0  0.36253574471E+02  0.48436235446E+01  0.15496052691E+02  0.40000000000E+02  0.47000000000E+01 0. -1.
         -5    1    3    3    0  501 -0.36253574471E+02 -0.48436235446E+01 -0.15496052691E+02  0.40000000000E+02  0.47000000000E+01 0.  1.
</event>
<event>
 5    1  0.4781763E-001  0.8000000E+02  0.7546771E-02  0.1203772E+00
         11   -1    0    0    0    0  0.00000000000E+00  0.00000000000E+00  0.40000000000E+02  0.40000000000E+02  0.00000000000E+00 0.  1.
        -11   -1    0    0    0    0 -0.00000000000E+00 -0.00000000000E+00 -0.40000000000E+02  0.40000000000E+02  0.00000000000E+00 0. -1.
         23    2    1    2    0    0  0.00000000000E+00  0.00000000000E+00  0.00000000000E+00  0.80000000000E+02  0.80000000000E+02 0.  0.
          5    1    3    3  501    0  0.29753724719E+02 -0.16934607463E+02 -0.20145593450E+02  0.40000000000E+02  0.47000000000E+01 0. -1.
         -5    1    3    3    0  501 -0.29753724719E+02  0.16934607463E+02  0.20145593450E+02  0.40000000000E+02  0.47000000000E+01 0.  1.
</event>
<event>
 5    1  0.4781763E-001  0.8000000E+02  0.7546771E-02  0.1203772E+00
         11   -1    0    0    0    0  0.00000000000E+00  0.00000000000E+00  0.40000000000E+02  0.40000000000E+02  0.00000000000E+00 0. -1.
        -11   -1    0    0    0    0 -0.00000000000E+00 -0.00000000000E+00 -0.40000000000E+02  0.40000000000E+02  0.00000000000E+00 0.  1.
         23    2    1    2    0    0  0.00000000000E+00  0.00000000000E+00  0.00000000000E+00  0.80000000000E+02  0.80000000000E+02 0.  0.
          5    1    3    3  501    0 -0.57525407464E+01 -0.26028283512E+02  0.29450750965E+02  0.40000000000E+02  0.47000000000E+01 0. -1.
         -5    1    3    3    0  501  0.57525407464E+01  0.26028283512E+02 -0.29450750965E+02  0.40000000000E+02  0.47000000000E+01 0.  1.
</event>
<event>
 5    1  0.4781763E-001  0.8000000E+02  0.7546771E-02  0.1203772E+00
         11   -1    0    0    0    0  0.00000000000E+00  0.00000000000E+00  0.40000000000E+02  0.40000000000E+02  0.00000000000E+00 0.  1.
        -11   -1    0    0    0    0 -0.00000000000E+00 -0.00000000000E+00 -0.40000000000E+02  0.40000000000E+02  0.00000000000E+00 0. -1.
         23    2    1    2    0    0  0.00000000000E+00  0.00000000000E+00  0.00000000000E+00  0.80000000000E+02  0.80000000000E+02 0.  0.
          5    1    3    3  501    0 -0.31725040713E+02  0.12936347566E+02 -0.20101808461E+02  0.40000000000E+02  0.47000000000E+01 0. -1.
         -5    1    3    3    0  501  0.31725040713E+02 -0.12936347566E+02  0.20101808461E+02  0.40000000000E+02  0.47000000000E+01 0.  1.
</event>
<event>
 5    1  0.4781763E-001  0.8000000E+02  0.7546771E-02  0.1203772E+00
         11   -1    0    0    0    0  0.00000000000E+00  0.00000000000E+00  0.40000000000E+02  0.40000000000E+02  0.00000000000E+00 0. -1.
        -11   -1    0    0    0    0 -0.00000000000E+00 -0.00000000000E+00 -0.40000000000E+02  0.40000000000E+02  0.00000000000E+00 0.  1.
         23    2    1    2    0    0  0.00000000000E+00  0.00000000000E+00  0.00000000000E+00  0.80000000000E+02  0.80000000000E+02 0.  0.
          5    1    3    3  501    0  0.32457588989E+02  0.58859984156E-01 -0.22900031715E+02  0.40000000000E+02  0.47000000000E+01 0.  1.
         -5    1    3    3    0  501 -0.32457588989E+02 -0.58859984156E-01  0.22900031715E+02  0.40000000000E+02  0.47000000000E+01 0. -1.
</event>
<event>
 5    1  0.4781763E-001  0.8000000E+02  0.7546771E-02  0.1203772E+00
         11   -1    0    0    0    0  0.00000000000E+00  0.00000000000E+00  0.40000000000E+02  0.40000000000E+02  0.00000000000E+00 0. -1.
        -11   -1    0    0    0    0 -0.00000000000E+00 -0.00000000000E+00 -0.40000000000E+02  0.40000000000E+02  0.00000000000E+00 0.  1.
         23    2    1    2    0    0  0.00000000000E+00  0.00000000000E+00  0.00000000000E+00  0.80000000000E+02  0.80000000000E+02 0.  0.
          5    1    3    3  501    0 -0.31751563948E+02  0.46696217940E+01  0.23408178467E+02  0.40000000000E+02  0.47000000000E+01 0. -1.
         -5    1    3    3    0  501  0.31751563948E+02 -0.46696217940E+01 -0.23408178467E+02  0.40000000000E+02  0.47000000000E+01 0.  1.
</event>
<event>
 5    1  0.4781763E-001  0.8000000E+02  0.7546771E-02  0.1203772E+00
         11   -1    0    0    0    0  0.00000000000E+00  0.00000000000E+00  0.40000000000E+02  0.40000000000E+02  0.00000000000E+00 0.  1.
        -11   -1    0    0    0    0 -0.00000000000E+00 -0.00000000000E+00 -0.40000000000E+02  0.40000000000E+02  0.00000000000E+00 0. -1.
         23    2    1    2    0    0  0.00000000000E+00  0.00000000000E+00  0.00000000000E+00  0.80000000000E+02  0.80000000000E+02 0.  0.
          5    1    3    3  501    0  0.30779256638E+02  0.58155576030E+01  0.24427989082E+02  0.40000000000E+02  0.47000000000E+01 0. -1.
         -5    1    3    3    0  501 -0.30779256638E+02 -0.58155576030E+01 -0.24427989082E+02  0.40000000000E+02  0.47000000000E+01 0.  1.
</event>
<event>
 5    1  0.4781763E-001  0.8000000E+02  0.7546771E-02  0.1203772E+00
         11   -1    0    0    0    0  0.00000000000E+00  0.00000000000E+00  0.40000000000E+02  0.40000000000E+02  0.00000000000E+00 0. -1.
        -11   -1    0    0    0    0 -0.00000000000E+00 -0.00000000000E+00 -0.40000000000E+02  0.40000000000E+02  0.00000000000E+00 0.  1.
         23    2    1    2    0    0  0.00000000000E+00  0.00000000000E+00  0.00000000000E+00  0.80000000000E+02  0.80000000000E+02 0.  0.
          5    1    3    3  501    0 -0.18556706247E+01 -0.36253285380E+02  0.16129655472E+02  0.40000000000E+02  0.47000000000E+01 0. -1.
         -5    1    3    3    0  501  0.18556706247E+01  0.36253285380E+02 -0.16129655472E+02  0.40000000000E+02  0.47000000000E+01 0.  1.
</event>
<event>
 5    1  0.4781763E-001  0.8000000E+02  0.7546771E-02  0.1203772E+00
         11   -1    0    0    0    0  0.00000000000E+00  0.00000000000E+00  0.40000000000E+02  0.40000000000E+02  0.00000000000E+00 0. -1.
        -11   -1    0    0    0    0 -0.00000000000E+00 -0.00000000000E+00 -0.40000000000E+02  0.40000000000E+02  0.00000000000E+00 0.  1.
         23    2    1    2    0    0  0.00000000000E+00  0.00000000000E+00  0.00000000000E+00  0.80000000000E+02  0.80000000000E+02 0.  0.
          5    1    3    3  501    0 -0.25854450522E+02 -0.24904278277E+02  0.17006890125E+02  0.40000000000E+02  0.47000000000E+01 0. -1.
         -5    1    3    3    0  501  0.25854450522E+02  0.24904278277E+02 -0.17006890125E+02  0.40000000000E+02  0.47000000000E+01 0.  1.
</event>
<event>
 5    1  0.4781763E-001  0.8000000E+02  0.7546771E-02  0.1203772E+00
         11   -1    0    0    0    0  0.00000000000E+00  0.00000000000E+00  0.40000000000E+02  0.40000000000E+02  0.00000000000E+00 0. -1.
        -11   -1    0    0    0    0 -0.00000000000E+00 -0.00000000000E+00 -0.40000000000E+02  0.40000000000E+02  0.00000000000E+00 0.  1.
         23    2    1    2    0    0  0.00000000000E+00  0.00000000000E+00  0.00000000000E+00  0.80000000000E+02  0.80000000000E+02 0.  0.
          5    1    3    3  501    0 -0.20177549503E+02  0.20960667580E+02 -0.27044905448E+02  0.40000000000E+02  0.47000000000E+01 0.  1.
         -5    1    3    3    0  501  0.20177549503E+02 -0.20960667580E+02  0.27044905448E+02  0.40000000000E+02  0.47000000000E+01 0. -1.
</event>
<event>
 5    1  0.4781763E-001  0.8000000E+02  0.7546771E-02  0.1203772E+00
         11   -1    0    0    0    0  0.00000000000E+00  0.00000000000E+00  0.40000000000E+02  0.40000000000E+02  0.00000000000E+00 0. -1.
        -11   -1    0    0    0    0 -0.00000000000E+00 -0.00000000000E+00 -0.40000000000E+02  0.40000000000E+02  0.00000000000E+00 0.  1.
         23    2    1    2    0    0  0.00000000000E+00  0.00000000000E+00  0.00000000000E+00  0.80000000000E+02  0.80000000000E+02 0.  0.
          5    1    3    3  501    0  0.18482896462E+02 -0.29070143510E+02  0.19779264260E+02  0.40000000000E+02  0.47000000000E+01 0. -1.
         -5    1    3    3    0  501 -0.18482896462E+02  0.29070143510E+02 -0.19779264260E+02  0.40000000000E+02  0.47000000000E+01 0.  1.
</event>
<event>
 5    1  0.4781763E-001  0.8000000E+02  0.7546771E-02  0.1203772E+00
         11   -1    0    0    0    0  0.00000000000E+00  0.00000000000E+00  0.40000000000E+02  0.40000000000E+02  0.00000000000E+00 0.  1.
        -11   -1    0    0    0    0 -0.00000000000E+00 -0.00000000000E+00 -0.40000000000E+02  0.40000000000E+02  0.00000000000E+00 0. -1.
         23    2    1    2    0    0  0.00000000000E+00  0.00000000000E+00  0.00000000000E+00  0.80000000000E+02  0.80000000000E+02 0.  0.
          5    1    3    3  501    0 -0.32781861896E+02 -0.23796208525E+01 -0.22306880894E+02  0.40000000000E+02  0.47000000000E+01 0. -1.
         -5    1    3    3    0  501  0.32781861896E+02  0.23796208525E+01  0.22306880894E+02  0.40000000000E+02  0.47000000000E+01 0.  1.
</event>
<event>
 5    1  0.4781763E-001  0.8000000E+02  0.7546771E-02  0.1203772E+00
         11   -1    0    0    0    0  0.00000000000E+00  0.00000000000E+00  0.40000000000E+02  0.40000000000E+02  0.00000000000E+00 0.  1.
        -11   -1    0    0    0    0 -0.00000000000E+00 -0.00000000000E+00 -0.40000000000E+02  0.40000000000E+02  0.00000000000E+00 0. -1.
         23    2    1    2    0    0  0.00000000000E+00  0.00000000000E+00  0.00000000000E+00  0.80000000000E+02  0.80000000000E+02 0.  0.
          5    1    3    3  501    0 -0.10269256683E+02  0.38315672925E+02  0.20884385221E+01  0.40000000000E+02  0.47000000000E+01 0. -1.
         -5    1    3    3    0  501  0.10269256683E+02 -0.38315672925E+02 -0.20884385221E+01  0.40000000000E+02  0.47000000000E+01 0.  1.
</event>
<event>
 5    1  0.4781763E-001  0.8000000E+02  0.7546771E-02  0.1203772E+00
         11   -1    0    0    0    0  0.00000000000E+00  0.00000000000E+00  0.40000000000E+02  0.40000000000E+02  0.00000000000E+00 0.  1.
        -11   -1    0    0    0    0 -0.00000000000E+00 -0.00000000000E+00 -0.40000000000E+02  0.40000000000E+02  0.00000000000E+00 0. -1.
         23    2    1    2    0    0  0.00000000000E+00  0.00000000000E+00  0.00000000000E+00  0.80000000000E+02  0.80000000000E+02 0.  0.
          5    1    3    3  501    0 -0.32864988842E+02  0.19050924387E+02 -0.11613130000E+02  0.40000000000E+02  0.47000000000E+01 0. -1.
         -5    1    3    3    0  501  0.32864988842E+02 -0.19050924387E+02  0.11613130000E+02  0.40000000000E+02  0.47000000000E+01 0.  1.
</event>
<event>
 5    1  0.4781763E-001  0.8000000E+02  0.7546771E-02  0.1203772E+00
         11   -1    0    0    0    0  0.00000000000E+00  0.00000000000E+00  0.40000000000E+02  0.40000000000E+02  0.00000000000E+00 0. -1.
        -11   -1    0    0    0    0 -0.00000000000E+00 -0.00000000000E+00 -0.40000000000E+02  0.40000000000E+02  0.00000000000E+00 0.  1.
         23    2    1    2    0    0  0.00000000000E+00  0.00000000000E+00  0.00000000000E+00  0.80000000000E+02  0.80000000000E+02 0.  0.
          5    1    3    3  501    0  0.27765075013E+02  0.27671040667E+02  0.64283837717E+01  0.40000000000E+02  0.47000000000E+01 0.  1.
         -5    1    3    3    0  501 -0.27765075013E+02 -0.27671040667E+02 -0.64283837717E+01  0.40000000000E+02  0.47000000000E+01 0. -1.
</event>
<event>
 5    1  0.4781763E-001  0.8000000E+02  0.7546771E-02  0.1203772E+00
         11   -1    0    0    0    0  0.00000000000E+00  0.00000000000E+00  0.40000000000E+02  0.40000000000E+02  0.00000000000E+00 0. -1.
        -11   -1    0    0    0    0 -0.00000000000E+00 -0.00000000000E+00 -0.40000000000E+02  0.40000000000E+02  0.00000000000E+00 0.  1.
         23    2    1    2    0    0  0.00000000000E+00  0.00000000000E+00  0.00000000000E+00  0.80000000000E+02  0.80000000000E+02 0.  0.
          5    1    3    3  501    0  0.20168547938E+01  0.45169619272E+01  0.39413694976E+02  0.40000000000E+02  0.47000000000E+01 0. -1.
         -5    1    3    3    0  501 -0.20168547938E+01 -0.45169619272E+01 -0.39413694976E+02  0.40000000000E+02  0.47000000000E+01 0.  1.
</event>
<event>
 5    1  0.4781763E-001  0.8000000E+02  0.7546771E-02  0.1203772E+00
         11   -1    0    0    0    0  0.00000000000E+00  0.00000000000E+00  0.40000000000E+02  0.40000000000E+02  0.00000000000E+00 0.  1.
        -11   -1    0    0    0    0 -0.00000000000E+00 -0.00000000000E+00 -0.40000000000E+02  0.40000000000E+02  0.00000000000E+00 0. -1.
         23    2    1    2    0    0  0.00000000000E+00  0.00000000000E+00  0.00000000000E+00  0.80000000000E+02  0.80000000000E+02 0.  0.
          5    1    3    3  501    0  0.11957858502E+02  0.31649912567E+02  0.20813520955E+02  0.40000000000E+02  0.47000000000E+01 0. -1.
         -5    1    3    3    0  501 -0.11957858502E+02 -0.31649912567E+02 -0.20813520955E+02  0.40000000000E+02  0.47000000000E+01 0.  1.
</event>
<event>
 5    1  0.4781763E-001  0.8000000E+02  0.7546771E-02  0.1203772E+00
         11   -1    0    0    0    0  0.00000000000E+00  0.00000000000E+00  0.40000000000E+02  0.40000000000E+02  0.00000000000E+00 0.  1.
        -11   -1    0    0    0    0 -0.00000000000E+00 -0.00000000000E+00 -0.40000000000E+02  0.40000000000E+02  0.00000000000E+00 0. -1.
         23    2    1    2    0    0  0.00000000000E+00  0.00000000000E+00  0.00000000000E+00  0.80000000000E+02  0.80000000000E+02 0.  0.
          5    1    3    3  501    0  0.17734929496E+02  0.34646811661E+02 -0.79360391580E+01  0.40000000000E+02  0.47000000000E+01 0. -1.
         -5    1    3    3    0  501 -0.17734929496E+02 -0.34646811661E+02  0.79360391580E+01  0.40000000000E+02  0.47000000000E+01 0.  1.
</event>
<event>
 5    1  0.4781763E-001  0.8000000E+02  0.7546771E-02  0.1203772E+00
         11   -1    0    0    0    0  0.00000000000E+00  0.00000000000E+00  0.40000000000E+02  0.40000000000E+02  0.00000000000E+00 0. -1.
        -11   -1    0    0    0    0 -0.00000000000E+00 -0.00000000000E+00 -0.40000000000E+02  0.40000000000E+02  0.00000000000E+00 0.  1.
         23    2    1    2    0    0  0.00000000000E+00  0.00000000000E+00  0.00000000000E+00  0.80000000000E+02  0.80000000000E+02 0.  0.
          5    1    3    3  501    0 -0.35273411362E+01  0.28464730161E+02 -0.27481393730E+02  0.40000000000E+02  0.47000000000E+01 0.  1.
         -5    1    3    3    0  501  0.35273411362E+01 -0.28464730161E+02  0.27481393730E+02  0.40000000000E+02  0.47000000000E+01 0. -1.
</event>
<event>
 5    1  0.4781763E-001  0.8000000E+02  0.7546771E-02  0.1203772E+00
         11   -1    0    0    0    0  0.00000000000E+00  0.00000000000E+00  0.40000000000E+02  0.40000000000E+02  0.00000000000E+00 0.  1.
        -11   -1    0    0    0    0 -0.00000000000E+00 -0.00000000000E+00 -0.40000000000E+02  0.40000000000E+02  0.00000000000E+00 0. -1.
         23    2    1    2    0    0  0.00000000000E+00  0.00000000000E+00  0.00000000000E+00  0.80000000000E+02  0.80000000000E+02 0.  0.
          5    1    3    3  501    0 -0.15414331441E+02 -0.29051559862E+02 -0.22278134029E+02  0.40000000000E+02  0.47000000000E+01 0. -1.
         -5    1    3    3    0  501  0.15414331441E+02  0.29051559862E+02  0.22278134029E+02  0.40000000000E+02  0.47000000000E+01 0.  1.
</event>
<event>
 5    1  0.4781763E-001  0.8000000E+02  0.7546771E-02  0.1203772E+00
         11   -1    0    0    0    0  0.00000000000E+00  0.00000000000E+00  0.40000000000E+02  0.40000000000E+02  0.00000000000E+00 0. -1.
        -11   -1    0    0    0    0 -0.00000000000E+00 -0.00000000000E+00 -0.40000000000E+02  0.40000000000E+02  0.00000000000E+00 0.  1.
         23    2    1    2    0    0  0.00000000000E+00  0.00000000000E+00  0.00000000000E+00  0.80000000000E+02  0.80000000000E+02 0.  0.
          5    1    3    3  501    0 -0.10219775063E+02  0.36049674285E+02 -0.13186628895E+02  0.40000000000E+02  0.47000000000E+01 0. -1.
         -5    1    3    3    0  501  0.10219775063E+02 -0.36049674285E+02  0.13186628895E+02  0.40000000000E+02  0.47000000000E+01 0.  1.
</event>
<event>
 5    1  0.4781763E-001  0.8000000E+02  0.7546771E-02  0.1203772E+00
         11   -1    0    0    0    0  0.00000000000E+00  0.00000000000E+00  0.40000000000E+02  0.40000000000E+02  0.00000000000E+00 0. -1.
        -11   -1    0    0    0    0 -0.00000000000E+00 -0.00000000000E+00 -0.40000000000E+02  0.40000000000E+02  0.00000000000E+00 0.  1.
         23    2    1    2    0    0  0.00000000000E+00  0.00000000000E+00  0.00000000000E+00  0.80000000000E+02  0.80000000000E+02 0.  0.
          5    1    3    3  501    0  0.14829442409E+02  0.24996910297E+02  0.27076781815E+02  0.40000000000E+02  0.47000000000E+01 0. -1.
         -5    1    3    3    0  501 -0.14829442409E+02 -0.24996910297E+02 -0.27076781815E+02  0.40000000000E+02  0.47000000000E+01 0.  1.
</event>
<event>
 5    1  0.4781763E-001  0.8000000E+02  0.7546771E-02  0.1203772E+00
         11   -1    0    0    0    0  0.00000000000E+00  0.00000000000E+00  0.40000000000E+02  0.40000000000E+02  0.00000000000E+00 0.  1.
        -11   -1    0    0    0    0 -0.00000000000E+00 -0.00000000000E+00 -0.40000000000E+02  0.40000000000E+02  0.00000000000E+00 0. -1.
         23    2    1    2    0    0  0.00000000000E+00  0.00000000000E+00  0.00000000000E+00  0.80000000000E+02  0.80000000000E+02 0.  0.
          5    1    3    3  501    0  0.50275051464E+01  0.35884907636E+02 -0.16275982180E+02  0.40000000000E+02  0.47000000000E+01 0. -1.
         -5    1    3    3    0  501 -0.50275051464E+01 -0.35884907636E+02  0.16275982180E+02  0.40000000000E+02  0.47000000000E+01 0.  1.
</event>
<event>
 5    1  0.4781763E-001  0.8000000E+02  0.7546771E-02  0.1203772E+00
         11   -1    0    0    0    0  0.00000000000E+00  0.00000000000E+00  0.40000000000E+02  0.40000000000E+02  0.00000000000E+00 0. -1.
        -11   -1    0    0    0    0 -0.00000000000E+00 -0.00000000000E+00 -0.40000000000E+02  0.40000000000E+02  0.00000000000E+00 0.  1.
         23    2    1    2    0    0  0.00000000000E+00  0.00000000000E+00  0.00000000000E+00  0.80000000000E+02  0.80000000000E+02 0.  0.
          5    1    3    3  501    0  0.10184057482E+02  0.34420138563E+02  0.17013201771E+02  0.40000000000E+02  0.47000000000E+01 0. -1.
         -5    1    3    3    0  501 -0.10184057482E+02 -0.34420138563E+02 -0.17013201771E+02  0.40000000000E+02  0.47000000000E+01 0.  1.
</event>
<event>
 5    1  0.4781763E-001  0.8000000E+02  0.7546771E-02  0.1203772E+00
         11   -1    0    0    0    0  0.00000000000E+00  0.00000000000E+00  0.40000000000E+02  0.40000000000E+02  0.00000000000E+00 0. -1.
        -11   -1    0    0    0    0 -0.00000000000E+00 -0.00000000000E+00 -0.40000000000E+02  0.40000000000E+02  0.00000000000E+00 0.  1.
         23    2    1    2    0    0  0.00000000000E+00  0.00000000000E+00  0.00000000000E+00  0.80000000000E+02  0.80000000000E+02 0.  0.
          5    1    3    3  501    0  0.15590593057E+02 -0.23857765703E+02  0.27670388935E+02  0.40000000000E+02  0.47000000000E+01 0. -1.
         -5    1    3    3    0  501 -0.15590593057E+02  0.23857765703E+02 -0.27670388935E+02  0.40000000000E+02  0.47000000000E+01 0.  1.
</event>
<event>
 5    1  0.4781763E-001  0.8000000E+02  0.7546771E-02  0.1203772E+00
         11   -1    0    0    0    0  0.00000000000E+00  0.00000000000E+00  0.40000000000E+02  0.40000000000E+02  0.00000000000E+00 0.  1.
        -11   -1    0    0    0    0 -0.00000000000E+00 -0.00000000000E+00 -0.40000000000E+02  0.40000000000E+02  0.00000000000E+00 0. -1.
         23    2    1    2    0    0  0.00000000000E+00  0.00000000000E+00  0.00000000000E+00  0.80000000000E+02  0.80000000000E+02 0.  0.
          5    1    3    3  501    0 -0.25540575424E+02 -0.14580715584E+02 -0.26701905177E+02  0.40000000000E+02  0.47000000000E+01 0. -1.
         -5    1    3    3    0  501  0.25540575424E+02  0.14580715584E+02  0.26701905177E+02  0.40000000000E+02  0.47000000000E+01 0.  1.
</event>
<event>
 5    1  0.4781763E-001  0.8000000E+02  0.7546771E-02  0.1203772E+00
         11   -1    0    0    0    0  0.00000000000E+00  0.00000000000E+00  0.40000000000E+02  0.40000000000E+02  0.00000000000E+00 0. -1.
        -11   -1    0    0    0    0 -0.00000000000E+00 -0.00000000000E+00 -0.40000000000E+02  0.40000000000E+02  0.00000000000E+00 0.  1.
         23    2    1    2    0    0  0.00000000000E+00  0.00000000000E+00  0.00000000000E+00  0.80000000000E+02  0.80000000000E+02 0.  0.
          5    1    3    3  501    0  0.90307065672E+00  0.22999141061E+02  0.32374897279E+02  0.40000000000E+02  0.47000000000E+01 0. -1.
         -5    1    3    3    0  501 -0.90307065672E+00 -0.22999141061E+02 -0.32374897279E+02  0.40000000000E+02  0.47000000000E+01 0.  1.
</event>
<event>
 5    1  0.4781763E-001  0.8000000E+02  0.7546771E-02  0.1203772E+00
         11   -1    0    0    0    0  0.00000000000E+00  0.00000000000E+00  0.40000000000E+02  0.40000000000E+02  0.00000000000E+00 0.  1.
        -11   -1    0    0    0    0 -0.00000000000E+00 -0.00000000000E+00 -0.40000000000E+02  0.40000000000E+02  0.00000000000E+00 0. -1.
         23    2    1    2    0    0  0.00000000000E+00  0.00000000000E+00  0.00000000000E+00  0.80000000000E+02  0.80000000000E+02 0.  0.
          5    1    3    3  501    0 -0.38878459863E+01  0.12757918922E+02 -0.37416976874E+02  0.40000000000E+02  0.47000000000E+01 0. -1.
         -5    1    3    3    0  501  0.38878459863E+01 -0.12757918922E+02  0.37416976874E+02  0.40000000000E+02  0.47000000000E+01 0.  1.
</event>
<event>
 5    1  0.4781763E-001  0.8000000E+02  0.7546771E-02  0.1203772E+00
         11   -1    0    0    0    0  0.00000000000E+00  0.00000000000E+00  0.40000000000E+02  0.40000000000E+02  0.00000000000E+00 0. -1.
        -11   -1    0    0    0    0 -0.00000000000E+00 -0.00000000000E+00 -0.40000000000E+02  0.40000000000E+02  0.00000000000E+00 0.  1.
         23    2    1    2    0    0  0.00000000000E+00  0.00000000000E+00  0.00000000000E+00  0.80000000000E+02  0.80000000000E+02 0.  0.
          5    1    3    3  501    0 -0.21498745808E+02 -0.28768931487E+02  0.16972404360E+02  0.40000000000E+02  0.47000000000E+01 0. -1.
         -5    1    3    3    0  501  0.21498745808E+02  0.28768931487E+02 -0.16972404360E+02  0.40000000000E+02  0.47000000000E+01 0.  1.
</event>
<event>
 5    1  0.4781763E-001  0.8000000E+02  0.7546771E-02  0.1203772E+00
         11   -1    0    0    0    0  0.00000000000E+00  0.00000000000E+00  0.40000000000E+02  0.40000000000E+02  0.00000000000E+00 0.  1.
        -11   -1    0    0    0    0 -0.00000000000E+00 -0.00000000000E+00 -0.40000000000E+02  0.40000000000E+02  0.00000000000E+00 0. -1.
         23    2    1    2    0    0  0.00000000000E+00  0.00000000000E+00  0.00000000000E+00  0.80000000000E+02  0.80000000000E+02 0.  0.
          5    1    3    3  501    0 -0.94410184140E+01 -0.28532226163E+02 -0.25974780875E+02  0.40000000000E+02  0.47000000000E+01 0. -1.
         -5    1    3    3    0  501  0.94410184140E+01  0.28532226163E+02  0.25974780875E+02  0.40000000000E+02  0.47000000000E+01 0.  1.
</event>
<event>
 5    1  0.4781763E-001  0.8000000E+02  0.7546771E-02  0.1203772E+00
         11   -1    0    0    0    0  0.00000000000E+00  0.00000000000E+00  0.40000000000E+02  0.40000000000E+02  0.00000000000E+00 0. -1.
        -11   -1    0    0    0    0 -0.00000000000E+00 -0.00000000000E+00 -0.40000000000E+02  0.40000000000E+02  0.00000000000E+00 0.  1.
         23    2    1    2    0    0  0.00000000000E+00  0.00000000000E+00  0.00000000000E+00  0.80000000000E+02  0.80000000000E+02 0.  0.
          5    1    3    3  501    0  0.13091518760E+02 -0.12852981392E+02  0.35232414137E+02  0.40000000000E+02  0.47000000000E+01 0. -1.
         -5    1    3    3    0  501 -0.13091518760E+02  0.12852981392E+02 -0.35232414137E+02  0.40000000000E+02  0.47000000000E+01 0.  1.
</event>
<event>
 5    1  0.4781763E-001  0.8000000E+02  0.7546771E-02  0.1203772E+00
         11   -1    0    0    0    0  0.00000000000E+00  0.00000000000E+00  0.40000000000E+02  0.40000000000E+02  0.00000000000E+00 0. -1.
        -11   -1    0    0    0    0 -0.00000000000E+00 -0.00000000000E+00 -0.40000000000E+02  0.40000000000E+02  0.00000000000E+00 0.  1.
         23    2    1    2    0    0  0.00000000000E+00  0.00000000000E+00  0.00000000000E+00  0.80000000000E+02  0.80000000000E+02 0.  0.
          5    1    3    3  501    0  0.35567381042E+02  0.16612087824E+02  0.60753554584E+01  0.40000000000E+02  0.47000000000E+01 0. -1.
         -5    1    3    3    0  501 -0.35567381042E+02 -0.16612087824E+02 -0.60753554584E+01  0.40000000000E+02  0.47000000000E+01 0.  1.
</event>
<event>
 5    1  0.4781763E-001  0.8000000E+02  0.7546771E-02  0.1203772E+00
         11   -1    0    0    0    0  0.00000000000E+00  0.00000000000E+00  0.40000000000E+02  0.40000000000E+02  0.00000000000E+00 0.  1.
        -11   -1    0    0    0    0 -0.00000000000E+00 -0.00000000000E+00 -0.40000000000E+02  0.40000000000E+02  0.00000000000E+00 0. -1.
         23    2    1    2    0    0  0.00000000000E+00  0.00000000000E+00  0.00000000000E+00  0.80000000000E+02  0.80000000000E+02 0.  0.
          5    1    3    3  501    0 -0.33218909323E+02 -0.96139191445E+01 -0.19544478045E+02  0.40000000000E+02  0.47000000000E+01 0. -1.
         -5    1    3    3    0  501  0.33218909323E+02  0.96139191445E+01  0.19544478045E+02  0.40000000000E+02  0.47000000000E+01 0.  1.
</event>
<event>
 5    1  0.4781763E-001  0.8000000E+02  0.7546771E-02  0.1203772E+00
         11   -1    0    0    0    0  0.00000000000E+00  0.00000000000E+00  0.40000000000E+02  0.40000000000E+02  0.00000000000E+00 0. -1.
        -11   -1    0    0    0    0 -0.00000000000E+00 -0.00000000000E+00 -0.40000000000E+02  0.40000000000E+02  0.00000000000E+00 0.  1.
         23    2    1    2    0    0  0.00000000000E+00  0.00000000000E+00  0.00000000000E+00  0.80000000000E+02  0.80000000000E+02 0.  0.
          5    1    3    3  501    0 -0.26865126336E+00  0.24405201754E+02  0.31340452355E+02  0.40000000000E+02  0.47000000000E+01 0. -1.
         -5    1    3    3    0  501  0.26865126336E+00 -0.24405201754E+02 -0.31340452355E+02  0.40000000000E+02  0.47000000000E+01 0.  1.
</event>
<event>
 5    1  0.4781763E-001  0.8000000E+02  0.7546771E-02  0.1203772E+00
         11   -1    0    0    0    0  0.00000000000E+00  0.00000000000E+00  0.40000000000E+02  0.40000000000E+02  0.00000000000E+00 0. -1.
        -11   -1    0    0    0    0 -0.00000000000E+00 -0.00000000000E+00 -0.40000000000E+02  0.40000000000E+02  0.00000000000E+00 0.  1.
         23    2    1    2    0    0  0.00000000000E+00  0.00000000000E+00  0.00000000000E+00  0.80000000000E+02  0.80000000000E+02 0.  0.
          5    1    3    3  501    0  0.14183297373E+02 -0.65103154746E+01  0.36528890868E+02  0.40000000000E+02  0.47000000000E+01 0. -1.
         -5    1    3    3    0  501 -0.14183297373E+02  0.65103154746E+01 -0.36528890868E+02  0.40000000000E+02  0.47000000000E+01 0.  1.
</event>
<event>
 5    1  0.4781763E-001  0.8000000E+02  0.7546771E-02  0.1203772E+00
         11   -1    0    0    0    0  0.00000000000E+00  0.00000000000E+00  0.40000000000E+02  0.40000000000E+02  0.00000000000E+00 0. -1.
        -11   -1    0    0    0    0 -0.00000000000E+00 -0.00000000000E+00 -0.40000000000E+02  0.40000000000E+02  0.00000000000E+00 0.  1.
         23    2    1    2    0    0  0.00000000000E+00  0.00000000000E+00  0.00000000000E+00  0.80000000000E+02  0.80000000000E+02 0.  0.
          5    1    3    3  501    0 -0.13429130736E+02 -0.36919851778E+02  0.58730734997E+01  0.40000000000E+02  0.47000000000E+01 0. -1.
         -5    1    3    3    0  501  0.13429130736E+02  0.36919851778E+02 -0.58730734997E+01  0.40000000000E+02  0.47000000000E+01 0.  1.
</event>
<event>
 5    1  0.4781763E-001  0.8000000E+02  0.7546771E-02  0.1203772E+00
         11   -1    0    0    0    0  0.00000000000E+00  0.00000000000E+00  0.40000000000E+02  0.40000000000E+02  0.00000000000E+00 0.  1.
        -11   -1    0    0    0    0 -0.00000000000E+00 -0.00000000000E+00 -0.40000000000E+02  0.40000000000E+02  0.00000000000E+00 0. -1.
         23    2    1    2    0    0  0.00000000000E+00  0.00000000000E+00  0.00000000000E+00  0.80000000000E+02  0.80000000000E+02 0.  0.
          5    1    3    3  501    0  0.27631259775E+02 -0.19246680420E+01 -0.28473130074E+02  0.40000000000E+02  0.47000000000E+01 0. -1.
         -5    1    3    3    0  501 -0.27631259775E+02  0.19246680420E+01  0.28473130074E+02  0.40000000000E+02  0.47000000000E+01 0.  1.
</event>
<event>
 5    1  0.4781763E-001  0.8000000E+02  0.7546771E-02  0.1203772E+00
         11   -1    0    0    0    0  0.00000000000E+00  0.00000000000E+00  0.40000000000E+02  0.40000000000E+02  0.00000000000E+00 0.  1.
        -11   -1    0    0    0    0 -0.00000000000E+00 -0.00000000000E+00 -0.40000000000E+02  0.40000000000E+02  0.00000000000E+00 0. -1.
         23    2    1    2    0    0  0.00000000000E+00  0.00000000000E+00  0.00000000000E+00  0.80000000000E+02  0.80000000000E+02 0.  0.
          5    1    3    3  501    0  0.80873808973E+01  0.89544663152E+01 -0.37846027575E+02  0.40000000000E+02  0.47000000000E+01 0. -1.
         -5    1    3    3    0  501 -0.80873808973E+01 -0.89544663152E+01  0.37846027575E+02  0.40000000000E+02  0.47000000000E+01 0.  1.
</event>
<event>
 5    1  0.4781763E-001  0.8000000E+02  0.7546771E-02  0.1203772E+00
         11   -1    0    0    0    0  0.00000000000E+00  0.00000000000E+00  0.40000000000E+02  0.40000000000E+02  0.00000000000E+00 0. -1.
        -11   -1    0    0    0    0 -0.00000000000E+00 -0.00000000000E+00 -0.40000000000E+02  0.40000000000E+02  0.00000000000E+00 0.  1.
         23    2    1    2    0    0  0.00000000000E+00  0.00000000000E+00  0.00000000000E+00  0.80000000000E+02  0.80000000000E+02 0.  0.
          5    1    3    3  501    0  0.34106504067E+01  0.57735562812E+01  0.39152822525E+02  0.40000000000E+02  0.47000000000E+01 0. -1.
         -5    1    3    3    0  501 -0.34106504067E+01 -0.57735562812E+01 -0.39152822525E+02  0.40000000000E+02  0.47000000000E+01 0.  1.
</event>
<event>
 5    1  0.4781763E-001  0.8000000E+02  0.7546771E-02  0.1203772E+00
         11   -1    0    0    0    0  0.00000000000E+00  0.00000000000E+00  0.40000000000E+02  0.40000000000E+02  0.00000000000E+00 0.  1.
        -11   -1    0    0    0    0 -0.00000000000E+00 -0.00000000000E+00 -0.40000000000E+02  0.40000000000E+02  0.00000000000E+00 0. -1.
         23    2    1    2    0    0  0.00000000000E+00  0.00000000000E+00  0.00000000000E+00  0.80000000000E+02  0.80000000000E+02 0.  0.
          5    1    3    3  501    0 -0.79013953299E+01 -0.14919696916E+02 -0.35956648839E+02  0.40000000000E+02  0.47000000000E+01 0. -1.
         -5    1    3    3    0  501  0.79013953299E+01  0.14919696916E+02  0.35956648839E+02  0.40000000000E+02  0.47000000000E+01 0.  1.
</event>
<event>
 5    1  0.4781763E-001  0.8000000E+02  0.7546771E-02  0.1203772E+00
         11   -1    0    0    0    0  0.00000000000E+00  0.00000000000E+00  0.40000000000E+02  0.40000000000E+02  0.00000000000E+00 0. -1.
        -11   -1    0    0    0    0 -0.00000000000E+00 -0.00000000000E+00 -0.40000000000E+02  0.40000000000E+02  0.00000000000E+00 0.  1.
         23    2    1    2    0    0  0.00000000000E+00  0.00000000000E+00  0.00000000000E+00  0.80000000000E+02  0.80000000000E+02 0.  0.
          5    1    3    3  501    0 -0.75921180008E+01  0.12713060887E+02  0.36859840303E+02  0.40000000000E+02  0.47000000000E+01 0. -1.
         -5    1    3    3    0  501  0.75921180008E+01 -0.12713060887E+02 -0.36859840303E+02  0.40000000000E+02  0.47000000000E+01 0.  1.
</event>
<event>
 5    1  0.4781763E-001  0.8000000E+02  0.7546771E-02  0.1203772E+00
         11   -1    0    0    0    0  0.00000000000E+00  0.00000000000E+00  0.40000000000E+02  0.40000000000E+02  0.00000000000E+00 0. -1.
        -11   -1    0    0    0    0 -0.00000000000E+00 -0.00000000000E+00 -0.40000000000E+02  0.40000000000E+02  0.00000000000E+00 0.  1.
         23    2    1    2    0    0  0.00000000000E+00  0.00000000000E+00  0.00000000000E+00  0.80000000000E+02  0.80000000000E+02 0.  0.
          5    1    3    3  501    0  0.47554628563E+01 -0.39435718082E+02  0.34599482210E+00  0.40000000000E+02  0.47000000000E+01 0. -1.
         -5    1    3    3    0  501 -0.47554628563E+01  0.39435718082E+02 -0.34599482210E+00  0.40000000000E+02  0.47000000000E+01 0.  1.
</event>
<event>
 5    1  0.4781763E-001  0.8000000E+02  0.7546771E-02  0.1203772E+00
         11   -1    0    0    0    0  0.00000000000E+00  0.00000000000E+00  0.40000000000E+02  0.40000000000E+02  0.00000000000E+00 0.  1.
        -11   -1    0    0    0    0 -0.00000000000E+00 -0.00000000000E+00 -0.40000000000E+02  0.40000000000E+02  0.00000000000E+00 0. -1.
         23    2    1    2    0    0  0.00000000000E+00  0.00000000000E+00  0.00000000000E+00  0.80000000000E+02  0.80000000000E+02 0.  0.
          5    1    3    3  501    0  0.31107055991E+02  0.15869767840E+01 -0.24652435423E+02  0.40000000000E+02  0.47000000000E+01 0. -1.
         -5    1    3    3    0  501 -0.31107055991E+02 -0.15869767840E+01  0.24652435423E+02  0.40000000000E+02  0.47000000000E+01 0.  1.
</event>
<event>
 5    1  0.4781763E-001  0.8000000E+02  0.7546771E-02  0.1203772E+00
         11   -1    0    0    0    0  0.00000000000E+00  0.00000000000E+00  0.40000000000E+02  0.40000000000E+02  0.00000000000E+00 0. -1.
        -11   -1    0    0    0    0 -0.00000000000E+00 -0.00000000000E+00 -0.40000000000E+02  0.40000000000E+02  0.00000000000E+00 0.  1.
         23    2    1    2    0    0  0.00000000000E+00  0.00000000000E+00  0.00000000000E+00  0.80000000000E+02  0.80000000000E+02 0.  0.
          5    1    3    3  501    0 -0.44873228487E+00 -0.14459659374E+02  0.36994957631E+02  0.40000000000E+02  0.47000000000E+01 0. -1.
         -5    1    3    3    0  501  0.44873228487E+00  0.14459659374E+02 -0.36994957631E+02  0.40000000000E+02  0.47000000000E+01 0.  1.
</event>
<event>
 5    1  0.4781763E-001  0.8000000E+02  0.7546771E-02  0.1203772E+00
         11   -1    0    0    0    0  0.00000000000E+00  0.00000000000E+00  0.40000000000E+02  0.40000000000E+02  0.00000000000E+00 0.  1.
        -11   -1    0    0    0    0 -0.00000000000E+00 -0.00000000000E+00 -0.40000000000E+02  0.40000000000E+02  0.00000000000E+00 0. -1.
         23    2    1    2    0    0  0.00000000000E+00  0.00000000000E+00  0.00000000000E+00  0.80000000000E+02  0.80000000000E+02 0.  0.
          5    1    3    3  501    0  0.16633473694E+01  0.49718375630E+01 -0.39375425163E+02  0.40000000000E+02  0.47000000000E+01 0. -1.
         -5    1    3    3    0  501 -0.16633473694E+01 -0.49718375630E+01  0.39375425163E+02  0.40000000000E+02  0.47000000000E+01 0.  1.
</event>
<event>
 5    1  0.4781763E-001  0.8000000E+02  0.7546771E-02  0.1203772E+00
         11   -1    0    0    0    0  0.00000000000E+00  0.00000000000E+00  0.40000000000E+02  0.40000000000E+02  0.00000000000E+00 0.  1.
        -11   -1    0    0    0    0 -0.00000000000E+00 -0.00000000000E+00 -0.40000000000E+02  0.40000000000E+02  0.00000000000E+00 0. -1.
         23    2    1    2    0    0  0.00000000000E+00  0.00000000000E+00  0.00000000000E+00  0.80000000000E+02  0.80000000000E+02 0.  0.
          5    1    3    3  501    0 -0.20702875247E+02  0.33131478186E+02  0.71837392566E+01  0.40000000000E+02  0.47000000000E+01 0. -1.
         -5    1    3    3    0  501  0.20702875247E+02 -0.33131478186E+02 -0.71837392566E+01  0.40000000000E+02  0.47000000000E+01 0.  1.
</event>
<event>
 5    1  0.4781763E-001  0.8000000E+02  0.7546771E-02  0.1203772E+00
         11   -1    0    0    0    0  0.00000000000E+00  0.00000000000E+00  0.40000000000E+02  0.40000000000E+02  0.00000000000E+00 0.  1.
        -11   -1    0    0    0    0 -0.00000000000E+00 -0.00000000000E+00 -0.40000000000E+02  0.40000000000E+02  0.00000000000E+00 0. -1.
         23    2    1    2    0    0  0.00000000000E+00  0.00000000000E+00  0.00000000000E+00  0.80000000000E+02  0.80000000000E+02 0.  0.
          5    1    3    3  501    0  0.66429123121E+01  0.36559132646E+02  0.14043202491E+02  0.40000000000E+02  0.47000000000E+01 0. -1.
         -5    1    3    3    0  501 -0.66429123121E+01 -0.36559132646E+02 -0.14043202491E+02  0.40000000000E+02  0.47000000000E+01 0.  1.
</event>
<event>
 5    1  0.4781763E-001  0.8000000E+02  0.7546771E-02  0.1203772E+00
         11   -1    0    0    0    0  0.00000000000E+00  0.00000000000E+00  0.40000000000E+02  0.40000000000E+02  0.00000000000E+00 0.  1.
        -11   -1    0    0    0    0 -0.00000000000E+00 -0.00000000000E+00 -0.40000000000E+02  0.40000000000E+02  0.00000000000E+00 0. -1.
         23    2    1    2    0    0  0.00000000000E+00  0.00000000000E+00  0.00000000000E+00  0.80000000000E+02  0.80000000000E+02 0.  0.
          5    1    3    3  501    0  0.64974944288E+01 -0.97684541815E+01 -0.37950887592E+02  0.40000000000E+02  0.47000000000E+01 0. -1.
         -5    1    3    3    0  501 -0.64974944288E+01  0.97684541815E+01  0.37950887592E+02  0.40000000000E+02  0.47000000000E+01 0.  1.
</event>
<event>
 5    1  0.4781763E-001  0.8000000E+02  0.7546771E-02  0.1203772E+00
         11   -1    0    0    0    0  0.00000000000E+00  0.00000000000E+00  0.40000000000E+02  0.40000000000E+02  0.00000000000E+00 0.  1.
        -11   -1    0    0    0    0 -0.00000000000E+00 -0.00000000000E+00 -0.40000000000E+02  0.40000000000E+02  0.00000000000E+00 0. -1.
         23    2    1    2    0    0  0.00000000000E+00  0.00000000000E+00  0.00000000000E+00  0.80000000000E+02  0.80000000000E+02 0.  0.
          5    1    3    3  501    0  0.79981261760E+01 -0.38813768392E+02 -0.27260522588E+01  0.40000000000E+02  0.47000000000E+01 0. -1.
         -5    1    3    3    0  501 -0.79981261760E+01  0.38813768392E+02  0.27260522588E+01  0.40000000000E+02  0.47000000000E+01 0.  1.
</event>
<event>
 5    1  0.4781763E-001  0.8000000E+02  0.7546771E-02  0.1203772E+00
         11   -1    0    0    0    0  0.00000000000E+00  0.00000000000E+00  0.40000000000E+02  0.40000000000E+02  0.00000000000E+00 0. -1.
        -11   -1    0    0    0    0 -0.00000000000E+00 -0.00000000000E+00 -0.40000000000E+02  0.40000000000E+02  0.00000000000E+00 0.  1.
         23    2    1    2    0    0  0.00000000000E+00  0.00000000000E+00  0.00000000000E+00  0.80000000000E+02  0.80000000000E+02 0.  0.
          5    1    3    3  501    0 -0.13777475355E+02 -0.35287780791E+02  0.11952560384E+02  0.40000000000E+02  0.47000000000E+01 0. -1.
         -5    1    3    3    0  501  0.13777475355E+02  0.35287780791E+02 -0.11952560384E+02  0.40000000000E+02  0.47000000000E+01 0.  1.
</event>
<event>
 5    1  0.4781763E-001  0.8000000E+02  0.7546771E-02  0.1203772E+00
         11   -1    0    0    0    0  0.00000000000E+00  0.00000000000E+00  0.40000000000E+02  0.40000000000E+02  0.00000000000E+00 0.  1.
        -11   -1    0    0    0    0 -0.00000000000E+00 -0.00000000000E+00 -0.40000000000E+02  0.40000000000E+02  0.00000000000E+00 0. -1.
         23    2    1    2    0    0  0.00000000000E+00  0.00000000000E+00  0.00000000000E+00  0.80000000000E+02  0.80000000000E+02 0.  0.
          5    1    3    3  501    0  0.26065056739E+02  0.29615590262E+02  0.46302948702E+01  0.40000000000E+02  0.47000000000E+01 0. -1.
         -5    1    3    3    0  501 -0.26065056739E+02 -0.29615590262E+02 -0.46302948702E+01  0.40000000000E+02  0.47000000000E+01 0.  1.
</event>
<event>
 5    1  0.4781763E-001  0.8000000E+02  0.7546771E-02  0.1203772E+00
         11   -1    0    0    0    0  0.00000000000E+00  0.00000000000E+00  0.40000000000E+02  0.40000000000E+02  0.00000000000E+00 0.  1.
        -11   -1    0    0    0    0 -0.00000000000E+00 -0.00000000000E+00 -0.40000000000E+02  0.40000000000E+02  0.00000000000E+00 0. -1.
         23    2    1    2    0    0  0.00000000000E+00  0.00000000000E+00  0.00000000000E+00  0.80000000000E+02  0.80000000000E+02 0.  0.
          5    1    3    3  501    0 -0.21569477672E+02 -0.31387150805E+02 -0.11292227296E+02  0.40000000000E+02  0.47000000000E+01 0. -1.
         -5    1    3    3    0  501  0.21569477672E+02  0.31387150805E+02  0.11292227296E+02  0.40000000000E+02  0.47000000000E+01 0.  1.
</event>
<event>
 5    1  0.4781763E-001  0.8000000E+02  0.7546771E-02  0.1203772E+00
         11   -1    0    0    0    0  0.00000000000E+00  0.00000000000E+00  0.40000000000E+02  0.40000000000E+02  0.00000000000E+00 0.  1.
        -11   -1    0    0    0    0 -0.00000000000E+00 -0.00000000000E+00 -0.40000000000E+02  0.40000000000E+02  0.00000000000E+00 0. -1.
         23    2    1    2    0    0  0.00000000000E+00  0.00000000000E+00  0.00000000000E+00  0.80000000000E+02  0.80000000000E+02 0.  0.
          5    1    3    3  501    0 -0.31115203545E+01 -0.80837077551E+01 -0.38767023487E+02  0.40000000000E+02  0.47000000000E+01 0. -1.
         -5    1    3    3    0  501  0.31115203545E+01  0.80837077551E+01  0.38767023487E+02  0.40000000000E+02  0.47000000000E+01 0.  1.
</event>
<event>
 5    1  0.4781763E-001  0.8000000E+02  0.7546771E-02  0.1203772E+00
         11   -1    0    0    0    0  0.00000000000E+00  0.00000000000E+00  0.40000000000E+02  0.40000000000E+02  0.00000000000E+00 0. -1.
        -11   -1    0    0    0    0 -0.00000000000E+00 -0.00000000000E+00 -0.40000000000E+02  0.40000000000E+02  0.00000000000E+00 0.  1.
         23    2    1    2    0    0  0.00000000000E+00  0.00000000000E+00  0.00000000000E+00  0.80000000000E+02  0.80000000000E+02 0.  0.
          5    1    3    3  501    0  0.26230035163E+02  0.17642368115E+02  0.24054980829E+02  0.40000000000E+02  0.47000000000E+01 0. -1.
         -5    1    3    3    0  501 -0.26230035163E+02 -0.17642368115E+02 -0.24054980829E+02  0.40000000000E+02  0.47000000000E+01 0.  1.
</event>
<event>
 5    1  0.4781763E-001  0.8000000E+02  0.7546771E-02  0.1203772E+00
         11   -1    0    0    0    0  0.00000000000E+00  0.00000000000E+00  0.40000000000E+02  0.40000000000E+02  0.00000000000E+00 0.  1.
        -11   -1    0    0    0    0 -0.00000000000E+00 -0.00000000000E+00 -0.40000000000E+02  0.40000000000E+02  0.00000000000E+00 0. -1.
         23    2    1    2    0    0  0.00000000000E+00  0.00000000000E+00  0.00000000000E+00  0.80000000000E+02  0.80000000000E+02 0.  0.
          5    1    3    3  501    0 -0.29009364627E+02 -0.97369686374E+01 -0.25328999303E+02  0.40000000000E+02  0.47000000000E+01 0. -1.
         -5    1    3    3    0  501  0.29009364627E+02  0.97369686374E+01  0.25328999303E+02  0.40000000000E+02  0.47000000000E+01 0.  1.
</event>
<event>
 5    1  0.4781763E-001  0.8000000E+02  0.7546771E-02  0.1203772E+00
         11   -1    0    0    0    0  0.00000000000E+00  0.00000000000E+00  0.40000000000E+02  0.40000000000E+02  0.00000000000E+00 0. -1.
        -11   -1    0    0    0    0 -0.00000000000E+00 -0.00000000000E+00 -0.40000000000E+02  0.40000000000E+02  0.00000000000E+00 0.  1.
         23    2    1    2    0    0  0.00000000000E+00  0.00000000000E+00  0.00000000000E+00  0.80000000000E+02  0.80000000000E+02 0.  0.
          5    1    3    3  501    0 -0.85800409698E+01  0.28789895306E+01  0.38678215008E+02  0.40000000000E+02  0.47000000000E+01 0. -1.
         -5    1    3    3    0  501  0.85800409698E+01 -0.28789895306E+01 -0.38678215008E+02  0.40000000000E+02  0.47000000000E+01 0.  1.
</event>
<event>
 5    1  0.4781763E-001  0.8000000E+02  0.7546771E-02  0.1203772E+00
         11   -1    0    0    0    0  0.00000000000E+00  0.00000000000E+00  0.40000000000E+02  0.40000000000E+02  0.00000000000E+00 0. -1.
        -11   -1    0    0    0    0 -0.00000000000E+00 -0.00000000000E+00 -0.40000000000E+02  0.40000000000E+02  0.00000000000E+00 0.  1.
         23    2    1    2    0    0  0.00000000000E+00  0.00000000000E+00  0.00000000000E+00  0.80000000000E+02  0.80000000000E+02 0.  0.
          5    1    3    3  501    0 -0.33239164550E+02 -0.27870612849E+01  0.21570818932E+02  0.40000000000E+02  0.47000000000E+01 0. -1.
         -5    1    3    3    0  501  0.33239164550E+02  0.27870612849E+01 -0.21570818932E+02  0.40000000000E+02  0.47000000000E+01 0.  1.
</event>
<event>
 5    1  0.4781763E-001  0.8000000E+02  0.7546771E-02  0.1203772E+00
         11   -1    0    0    0    0  0.00000000000E+00  0.00000000000E+00  0.40000000000E+02  0.40000000000E+02  0.00000000000E+00 0.  1.
        -11   -1    0    0    0    0 -0.00000000000E+00 -0.00000000000E+00 -0.40000000000E+02  0.40000000000E+02  0.00000000000E+00 0. -1.
         23    2    1    2    0    0  0.00000000000E+00  0.00000000000E+00  0.00000000000E+00  0.80000000000E+02  0.80000000000E+02 0.  0.
          5    1    3    3  501    0 -0.57780234474E+01  0.31343012895E+02 -0.23709491510E+02  0.40000000000E+02  0.47000000000E+01 0. -1.
         -5    1    3    3    0  501  0.57780234474E+01 -0.31343012895E+02  0.23709491510E+02  0.40000000000E+02  0.47000000000E+01 0.  1.
</event>
<event>
 5    1  0.4781763E-001  0.8000000E+02  0.7546771E-02  0.1203772E+00
         11   -1    0    0    0    0  0.00000000000E+00  0.00000000000E+00  0.40000000000E+02  0.40000000000E+02  0.00000000000E+00 0.  1.
        -11   -1    0    0    0    0 -0.00000000000E+00 -0.00000000000E+00 -0.40000000000E+02  0.40000000000E+02  0.00000000000E+00 0. -1.
         23    2    1    2    0    0  0.00000000000E+00  0.00000000000E+00  0.00000000000E+00  0.80000000000E+02  0.80000000000E+02 0.  0.
          5    1    3    3  501    0  0.22875775752E+01  0.38789079674E+02 -0.82513203135E+01  0.40000000000E+02  0.47000000000E+01 0. -1.
         -5    1    3    3    0  501 -0.22875775752E+01 -0.38789079674E+02  0.82513203135E+01  0.40000000000E+02  0.47000000000E+01 0.  1.
</event>
<event>
 5    1  0.4781763E-001  0.8000000E+02  0.7546771E-02  0.1203772E+00
         11   -1    0    0    0    0  0.00000000000E+00  0.00000000000E+00  0.40000000000E+02  0.40000000000E+02  0.00000000000E+00 0.  1.
        -11   -1    0    0    0    0 -0.00000000000E+00 -0.00000000000E+00 -0.40000000000E+02  0.40000000000E+02  0.00000000000E+00 0. -1.
         23    2    1    2    0    0  0.00000000000E+00  0.00000000000E+00  0.00000000000E+00  0.80000000000E+02  0.80000000000E+02 0.  0.
          5    1    3    3  501    0 -0.38213236007E+02  0.67897901101E+01 -0.84591574138E+01  0.40000000000E+02  0.47000000000E+01 0. -1.
         -5    1    3    3    0  501  0.38213236007E+02 -0.67897901101E+01  0.84591574138E+01  0.40000000000E+02  0.47000000000E+01 0.  1.
</event>
<event>
 5    1  0.4781763E-001  0.8000000E+02  0.7546771E-02  0.1203772E+00
         11   -1    0    0    0    0  0.00000000000E+00  0.00000000000E+00  0.40000000000E+02  0.40000000000E+02  0.00000000000E+00 0. -1.
        -11   -1    0    0    0    0 -0.00000000000E+00 -0.00000000000E+00 -0.40000000000E+02  0.40000000000E+02  0.00000000000E+00 0.  1.
         23    2    1    2    0    0  0.00000000000E+00  0.00000000000E+00  0.00000000000E+00  0.80000000000E+02  0.80000000000E+02 0.  0.
          5    1    3    3  501    0  0.33868871661E+02  0.20171613813E+02  0.48903505569E+01  0.40000000000E+02  0.47000000000E+01 0. -1.
         -5    1    3    3    0  501 -0.33868871661E+02 -0.20171613813E+02 -0.48903505569E+01  0.40000000000E+02  0.47000000000E+01 0.  1.
</event>
<event>
 5    1  0.4781763E-001  0.8000000E+02  0.7546771E-02  0.1203772E+00
         11   -1    0    0    0    0  0.00000000000E+00  0.00000000000E+00  0.40000000000E+02  0.40000000000E+02  0.00000000000E+00 0. -1.
        -11   -1    0    0    0    0 -0.00000000000E+00 -0.00000000000E+00 -0.40000000000E+02  0.40000000000E+02  0.00000000000E+00 0.  1.
         23    2    1    2    0    0  0.00000000000E+00  0.00000000000E+00  0.00000000000E+00  0.80000000000E+02  0.80000000000E+02 0.  0.
          5    1    3    3  501    0  0.20184093091E+02 -0.25254403180E+02  0.23080890496E+02  0.40000000000E+02  0.47000000000E+01 0. -1.
         -5    1    3    3    0  501 -0.20184093091E+02  0.25254403180E+02 -0.23080890496E+02  0.40000000000E+02  0.47000000000E+01 0.  1.
</event>
<event>
 5    1  0.4781763E-001  0.8000000E+02  0.7546771E-02  0.1203772E+00
         11   -1    0    0    0    0  0.00000000000E+00  0.00000000000E+00  0.40000000000E+02  0.40000000000E+02  0.00000000000E+00 0.  1.
        -11   -1    0    0    0    0 -0.00000000000E+00 -0.00000000000E+00 -0.40000000000E+02  0.40000000000E+02  0.00000000000E+00 0. -1.
         23    2    1    2    0    0  0.00000000000E+00  0.00000000000E+00  0.00000000000E+00  0.80000000000E+02  0.80000000000E+02 0.  0.
          5    1    3    3  501    0 -0.57131415525E+01  0.43875330184E+01 -0.39064300424E+02  0.40000000000E+02  0.47000000000E+01 0. -1.
         -5    1    3    3    0  501  0.57131415525E+01 -0.43875330184E+01  0.39064300424E+02  0.40000000000E+02  0.47000000000E+01 0.  1.
</event>
<event>
 5    1  0.4781763E-001  0.8000000E+02  0.7546771E-02  0.1203772E+00
         11   -1    0    0    0    0  0.00000000000E+00  0.00000000000E+00  0.40000000000E+02  0.40000000000E+02  0.00000000000E+00 0.  1.
        -11   -1    0    0    0    0 -0.00000000000E+00 -0.00000000000E+00 -0.40000000000E+02  0.40000000000E+02  0.00000000000E+00 0. -1.
         23    2    1    2    0    0  0.00000000000E+00  0.00000000000E+00  0.00000000000E+00  0.80000000000E+02  0.80000000000E+02 0.  0.
          5    1    3    3  501    0 -0.14642180687E+02 -0.17788232537E+02 -0.32358852389E+02  0.40000000000E+02  0.47000000000E+01 0. -1.
         -5    1    3    3    0  501  0.14642180687E+02  0.17788232537E+02  0.32358852389E+02  0.40000000000E+02  0.47000000000E+01 0.  1.
</event>
<event>
 5    1  0.4781763E-001  0.8000000E+02  0.7546771E-02  0.1203772E+00
         11   -1    0    0    0    0  0.00000000000E+00  0.00000000000E+00  0.40000000000E+02  0.40000000000E+02  0.00000000000E+00 0. -1.
        -11   -1    0    0    0    0 -0.00000000000E+00 -0.00000000000E+00 -0.40000000000E+02  0.40000000000E+02  0.00000000000E+00 0.  1.
         23    2    1    2    0    0  0.00000000000E+00  0.00000000000E+00  0.00000000000E+00  0.80000000000E+02  0.80000000000E+02 0.  0.
          5    1    3    3  501    0 -0.37720309141E+02  0.12146685162E+02  0.27470562282E+01  0.40000000000E+02  0.47000000000E+01 0.  1.
         -5    1    3    3    0  501  0.37720309141E+02 -0.12146685162E+02 -0.27470562282E+01  0.40000000000E+02  0.47000000000E+01 0. -1.
</event>
<event>
 5    1  0.4781763E-001  0.8000000E+02  0.7546771E-02  0.1203772E+00
         11   -1    0    0    0    0  0.00000000000E+00  0.00000000000E+00  0.40000000000E+02  0.40000000000E+02  0.00000000000E+00 0. -1.
        -11   -1    0    0    0    0 -0.00000000000E+00 -0.00000000000E+00 -0.40000000000E+02  0.40000000000E+02  0.00000000000E+00 0.  1.
         23    2    1    2    0    0  0.00000000000E+00  0.00000000000E+00  0.00000000000E+00  0.80000000000E+02  0.80000000000E+02 0.  0.
          5    1    3    3  501    0 -0.18353298276E+02  0.30540205372E+02  0.17560247671E+02  0.40000000000E+02  0.47000000000E+01 0. -1.
         -5    1    3    3    0  501  0.18353298276E+02 -0.30540205372E+02 -0.17560247671E+02  0.40000000000E+02  0.47000000000E+01 0.  1.
</event>
<event>
 5    1  0.4781763E-001  0.8000000E+02  0.7546771E-02  0.1203772E+00
         11   -1    0    0    0    0  0.00000000000E+00  0.00000000000E+00  0.40000000000E+02  0.40000000000E+02  0.00000000000E+00 0. -1.
        -11   -1    0    0    0    0 -0.00000000000E+00 -0.00000000000E+00 -0.40000000000E+02  0.40000000000E+02  0.00000000000E+00 0.  1.
         23    2    1    2    0    0  0.00000000000E+00  0.00000000000E+00  0.00000000000E+00  0.80000000000E+02  0.80000000000E+02 0.  0.
          5    1    3    3  501    0  0.25124916803E+02 -0.10706853188E+01  0.30749019311E+02  0.40000000000E+02  0.47000000000E+01 0. -1.
         -5    1    3    3    0  501 -0.25124916803E+02  0.10706853188E+01 -0.30749019311E+02  0.40000000000E+02  0.47000000000E+01 0.  1.
</event>
<event>
 5    1  0.4781763E-001  0.8000000E+02  0.7546771E-02  0.1203772E+00
         11   -1    0    0    0    0  0.00000000000E+00  0.00000000000E+00  0.40000000000E+02  0.40000000000E+02  0.00000000000E+00 0.  1.
        -11   -1    0    0    0    0 -0.00000000000E+00 -0.00000000000E+00 -0.40000000000E+02  0.40000000000E+02  0.00000000000E+00 0. -1.
         23    2    1    2    0    0  0.00000000000E+00  0.00000000000E+00  0.00000000000E+00  0.80000000000E+02  0.80000000000E+02 0.  0.
          5    1    3    3  501    0 -0.13038848646E+01  0.30923403517E+01 -0.39580895839E+02  0.40000000000E+02  0.47000000000E+01 0. -1.
         -5    1    3    3    0  501  0.13038848646E+01 -0.30923403517E+01  0.39580895839E+02  0.40000000000E+02  0.47000000000E+01 0.  1.
</event>
<event>
 5    1  0.4781763E-001  0.8000000E+02  0.7546771E-02  0.1203772E+00
         11   -1    0    0    0    0  0.00000000000E+00  0.00000000000E+00  0.40000000000E+02  0.40000000000E+02  0.00000000000E+00 0. -1.
        -11   -1    0    0    0    0 -0.00000000000E+00 -0.00000000000E+00 -0.40000000000E+02  0.40000000000E+02  0.00000000000E+00 0.  1.
         23    2    1    2    0    0  0.00000000000E+00  0.00000000000E+00  0.00000000000E+00  0.80000000000E+02  0.80000000000E+02 0.  0.
          5    1    3    3  501    0  0.31648665154E+01  0.21922557635E+01  0.39535903109E+02  0.40000000000E+02  0.47000000000E+01 0. -1.
         -5    1    3    3    0  501 -0.31648665154E+01 -0.21922557635E+01 -0.39535903109E+02  0.40000000000E+02  0.47000000000E+01 0.  1.
</event>
<event>
 5    1  0.4781763E-001  0.8000000E+02  0.7546771E-02  0.1203772E+00
         11   -1    0    0    0    0  0.00000000000E+00  0.00000000000E+00  0.40000000000E+02  0.40000000000E+02  0.00000000000E+00 0. -1.
        -11   -1    0    0    0    0 -0.00000000000E+00 -0.00000000000E+00 -0.40000000000E+02  0.40000000000E+02  0.00000000000E+00 0.  1.
         23    2    1    2    0    0  0.00000000000E+00  0.00000000000E+00  0.00000000000E+00  0.80000000000E+02  0.80000000000E+02 0.  0.
          5    1    3    3  501    0 -0.19465649994E+02 -0.16747977885E+02  0.30306826081E+02  0.40000000000E+02  0.47000000000E+01 0. -1.
         -5    1    3    3    0  501  0.19465649994E+02  0.16747977885E+02 -0.30306826081E+02  0.40000000000E+02  0.47000000000E+01 0.  1.
</event>
<event>
 5    1  0.4781763E-001  0.8000000E+02  0.7546771E-02  0.1203772E+00
         11   -1    0    0    0    0  0.00000000000E+00  0.00000000000E+00  0.40000000000E+02  0.40000000000E+02  0.00000000000E+00 0. -1.
        -11   -1    0    0    0    0 -0.00000000000E+00 -0.00000000000E+00 -0.40000000000E+02  0.40000000000E+02  0.00000000000E+00 0.  1.
         23    2    1    2    0    0  0.00000000000E+00  0.00000000000E+00  0.00000000000E+00  0.80000000000E+02  0.80000000000E+02 0.  0.
          5    1    3    3  501    0 -0.38987366492E+02 -0.52424060060E+01  0.55147468911E+01  0.40000000000E+02  0.47000000000E+01 0. -1.
         -5    1    3    3    0  501  0.38987366492E+02  0.52424060060E+01 -0.55147468911E+01  0.40000000000E+02  0.47000000000E+01 0.  1.
</event>
<event>
 5    1  0.4781763E-001  0.8000000E+02  0.7546771E-02  0.1203772E+00
         11   -1    0    0    0    0  0.00000000000E+00  0.00000000000E+00  0.40000000000E+02  0.40000000000E+02  0.00000000000E+00 0. -1.
        -11   -1    0    0    0    0 -0.00000000000E+00 -0.00000000000E+00 -0.40000000000E+02  0.40000000000E+02  0.00000000000E+00 0.  1.
         23    2    1    2    0    0  0.00000000000E+00  0.00000000000E+00  0.00000000000E+00  0.80000000000E+02  0.80000000000E+02 0.  0.
          5    1    3    3  501    0  0.15686904572E+00 -0.39351632351E+02 -0.54161262338E+01  0.40000000000E+02  0.47000000000E+01 0. -1.
         -5    1    3    3    0  501 -0.15686904572E+00  0.39351632351E+02  0.54161262338E+01  0.40000000000E+02  0.47000000000E+01 0.  1.
</event>
<event>
 5    1  0.4781763E-001  0.8000000E+02  0.7546771E-02  0.1203772E+00
         11   -1    0    0    0    0  0.00000000000E+00  0.00000000000E+00  0.40000000000E+02  0.40000000000E+02  0.00000000000E+00 0. -1.
        -11   -1    0    0    0    0 -0.00000000000E+00 -0.00000000000E+00 -0.40000000000E+02  0.40000000000E+02  0.00000000000E+00 0.  1.
         23    2    1    2    0    0  0.00000000000E+00  0.00000000000E+00  0.00000000000E+00  0.80000000000E+02  0.80000000000E+02 0.  0.
          5    1    3    3  501    0  0.13606201987E+02  0.15501509734E+02  0.33948261567E+02  0.40000000000E+02  0.47000000000E+01 0. -1.
         -5    1    3    3    0  501 -0.13606201987E+02 -0.15501509734E+02 -0.33948261567E+02  0.40000000000E+02  0.47000000000E+01 0.  1.
</event>
<event>
 5    1  0.4781763E-001  0.8000000E+02  0.7546771E-02  0.1203772E+00
         11   -1    0    0    0    0  0.00000000000E+00  0.00000000000E+00  0.40000000000E+02  0.40000000000E+02  0.00000000000E+00 0. -1.
        -11   -1    0    0    0    0 -0.00000000000E+00 -0.00000000000E+00 -0.40000000000E+02  0.40000000000E+02  0.00000000000E+00 0.  1.
         23    2    1    2    0    0  0.00000000000E+00  0.00000000000E+00  0.00000000000E+00  0.80000000000E+02  0.80000000000E+02 0.  0.
          5    1    3    3  501    0 -0.11087414457E+02  0.34236065617E+02  0.16818770816E+02  0.40000000000E+02  0.47000000000E+01 0. -1.
         -5    1    3    3    0  501  0.11087414457E+02 -0.34236065617E+02 -0.16818770816E+02  0.40000000000E+02  0.47000000000E+01 0.  1.
</event>
<event>
 5    1  0.4781763E-001  0.8000000E+02  0.7546771E-02  0.1203772E+00
         11   -1    0    0    0    0  0.00000000000E+00  0.00000000000E+00  0.40000000000E+02  0.40000000000E+02  0.00000000000E+00 0. -1.
        -11   -1    0    0    0    0 -0.00000000000E+00 -0.00000000000E+00 -0.40000000000E+02  0.40000000000E+02  0.00000000000E+00 0.  1.
         23    2    1    2    0    0  0.00000000000E+00  0.00000000000E+00  0.00000000000E+00  0.80000000000E+02  0.80000000000E+02 0.  0.
          5    1    3    3  501    0 -0.28734585840E+02  0.22368597309E+02  0.15870709847E+02  0.40000000000E+02  0.47000000000E+01 0. -1.
         -5    1    3    3    0  501  0.28734585840E+02 -0.22368597309E+02 -0.15870709847E+02  0.40000000000E+02  0.47000000000E+01 0.  1.
</event>
<event>
 5    1  0.4781763E-001  0.8000000E+02  0.7546771E-02  0.1203772E+00
         11   -1    0    0    0    0  0.00000000000E+00  0.00000000000E+00  0.40000000000E+02  0.40000000000E+02  0.00000000000E+00 0. -1.
        -11   -1    0    0    0    0 -0.00000000000E+00 -0.00000000000E+00 -0.40000000000E+02  0.40000000000E+02  0.00000000000E+00 0.  1.
         23    2    1    2    0    0  0.00000000000E+00  0.00000000000E+00  0.00000000000E+00  0.80000000000E+02  0.80000000000E+02 0.  0.
          5    1    3    3  501    0 -0.99792019456E+01 -0.28566600173E+02  0.25734701923E+02  0.40000000000E+02  0.47000000000E+01 0. -1.
         -5    1    3    3    0  501  0.99792019456E+01  0.28566600173E+02 -0.25734701923E+02  0.40000000000E+02  0.47000000000E+01 0.  1.
</event>
<event>
 5    1  0.4781763E-001  0.8000000E+02  0.7546771E-02  0.1203772E+00
         11   -1    0    0    0    0  0.00000000000E+00  0.00000000000E+00  0.40000000000E+02  0.40000000000E+02  0.00000000000E+00 0. -1.
        -11   -1    0    0    0    0 -0.00000000000E+00 -0.00000000000E+00 -0.40000000000E+02  0.40000000000E+02  0.00000000000E+00 0.  1.
         23    2    1    2    0    0  0.00000000000E+00  0.00000000000E+00  0.00000000000E+00  0.80000000000E+02  0.80000000000E+02 0.  0.
          5    1    3    3  501    0 -0.24916800741E+02 -0.26339000156E+02  0.16227141202E+02  0.40000000000E+02  0.47000000000E+01 0. -1.
         -5    1    3    3    0  501  0.24916800741E+02  0.26339000156E+02 -0.16227141202E+02  0.40000000000E+02  0.47000000000E+01 0.  1.
</event>
<event>
 5    1  0.4781763E-001  0.8000000E+02  0.7546771E-02  0.1203772E+00
         11   -1    0    0    0    0  0.00000000000E+00  0.00000000000E+00  0.40000000000E+02  0.40000000000E+02  0.00000000000E+00 0. -1.
        -11   -1    0    0    0    0 -0.00000000000E+00 -0.00000000000E+00 -0.40000000000E+02  0.40000000000E+02  0.00000000000E+00 0.  1.
         23    2    1    2    0    0  0.00000000000E+00  0.00000000000E+00  0.00000000000E+00  0.80000000000E+02  0.80000000000E+02 0.  0.
          5    1    3    3  501    0  0.33661088862E+02 -0.78483915480E+01  0.19576614793E+02  0.40000000000E+02  0.47000000000E+01 0. -1.
         -5    1    3    3    0  501 -0.33661088862E+02  0.78483915480E+01 -0.19576614793E+02  0.40000000000E+02  0.47000000000E+01 0.  1.
</event>
<event>
 5    1  0.4781763E-001  0.8000000E+02  0.7546771E-02  0.1203772E+00
         11   -1    0    0    0    0  0.00000000000E+00  0.00000000000E+00  0.40000000000E+02  0.40000000000E+02  0.00000000000E+00 0. -1.
        -11   -1    0    0    0    0 -0.00000000000E+00 -0.00000000000E+00 -0.40000000000E+02  0.40000000000E+02  0.00000000000E+00 0.  1.
         23    2    1    2    0    0  0.00000000000E+00  0.00000000000E+00  0.00000000000E+00  0.80000000000E+02  0.80000000000E+02 0.  0.
          5    1    3    3  501    0  0.23394522111E+02 -0.13704063237E+02  0.29031103768E+02  0.40000000000E+02  0.47000000000E+01 0. -1.
         -5    1    3    3    0  501 -0.23394522111E+02  0.13704063237E+02 -0.29031103768E+02  0.40000000000E+02  0.47000000000E+01 0.  1.
</event>
<event>
 5    1  0.4781763E-001  0.8000000E+02  0.7546771E-02  0.1203772E+00
         11   -1    0    0    0    0  0.00000000000E+00  0.00000000000E+00  0.40000000000E+02  0.40000000000E+02  0.00000000000E+00 0.  1.
        -11   -1    0    0    0    0 -0.00000000000E+00 -0.00000000000E+00 -0.40000000000E+02  0.40000000000E+02  0.00000000000E+00 0. -1.
         23    2    1    2    0    0  0.00000000000E+00  0.00000000000E+00  0.00000000000E+00  0.80000000000E+02  0.80000000000E+02 0.  0.
          5    1    3    3  501    0  0.16031025112E+02 -0.12764239851E+01 -0.36321990249E+02  0.40000000000E+02  0.47000000000E+01 0. -1.
         -5    1    3    3    0  501 -0.16031025112E+02  0.12764239851E+01  0.36321990249E+02  0.40000000000E+02  0.47000000000E+01 0.  1.
</event>
<event>
 5    1  0.4781763E-001  0.8000000E+02  0.7546771E-02  0.1203772E+00
         11   -1    0    0    0    0  0.00000000000E+00  0.00000000000E+00  0.40000000000E+02  0.40000000000E+02  0.00000000000E+00 0.  1.
        -11   -1    0    0    0    0 -0.00000000000E+00 -0.00000000000E+00 -0.40000000000E+02  0.40000000000E+02  0.00000000000E+00 0. -1.
         23    2    1    2    0    0  0.00000000000E+00  0.00000000000E+00  0.00000000000E+00  0.80000000000E+02  0.80000000000E+02 0.  0.
          5    1    3    3  501    0 -0.29564240565E+02  0.10446582769E+02 -0.24387180818E+02  0.40000000000E+02  0.47000000000E+01 0. -1.
         -5    1    3    3    0  501  0.29564240565E+02 -0.10446582769E+02  0.24387180818E+02  0.40000000000E+02  0.47000000000E+01 0.  1.
</event>
<event>
 5    1  0.4781763E-001  0.8000000E+02  0.7546771E-02  0.1203772E+00
         11   -1    0    0    0    0  0.00000000000E+00  0.00000000000E+00  0.40000000000E+02  0.40000000000E+02  0.00000000000E+00 0.  1.
        -11   -1    0    0    0    0 -0.00000000000E+00 -0.00000000000E+00 -0.40000000000E+02  0.40000000000E+02  0.00000000000E+00 0. -1.
         23    2    1    2    0    0  0.00000000000E+00  0.00000000000E+00  0.00000000000E+00  0.80000000000E+02  0.80000000000E+02 0.  0.
          5    1    3    3  501    0 -0.27460325406E+01  0.24324133730E+02 -0.31284274381E+02  0.40000000000E+02  0.47000000000E+01 0. -1.
         -5    1    3    3    0  501  0.27460325406E+01 -0.24324133730E+02  0.31284274381E+02  0.40000000000E+02  0.47000000000E+01 0.  1.
</event>
<event>
 5    1  0.4781763E-001  0.8000000E+02  0.7546771E-02  0.1203772E+00
         11   -1    0    0    0    0  0.00000000000E+00  0.00000000000E+00  0.40000000000E+02  0.40000000000E+02  0.00000000000E+00 0.  1.
        -11   -1    0    0    0    0 -0.00000000000E+00 -0.00000000000E+00 -0.40000000000E+02  0.40000000000E+02  0.00000000000E+00 0. -1.
         23    2    1    2    0    0  0.00000000000E+00  0.00000000000E+00  0.00000000000E+00  0.80000000000E+02  0.80000000000E+02 0.  0.
          5    1    3    3  501    0  0.38286359397E+02 -0.53302209374E+00 -0.10572633143E+02  0.40000000000E+02  0.47000000000E+01 0. -1.
         -5    1    3    3    0  501 -0.38286359397E+02  0.53302209374E+00  0.10572633143E+02  0.40000000000E+02  0.47000000000E+01 0.  1.
</event>
<event>
 5    1  0.4781763E-001  0.8000000E+02  0.7546771E-02  0.1203772E+00
         11   -1    0    0    0    0  0.00000000000E+00  0.00000000000E+00  0.40000000000E+02  0.40000000000E+02  0.00000000000E+00 0.  1.
        -11   -1    0    0    0    0 -0.00000000000E+00 -0.00000000000E+00 -0.40000000000E+02  0.40000000000E+02  0.00000000000E+00 0. -1.
         23    2    1    2    0    0  0.00000000000E+00  0.00000000000E+00  0.00000000000E+00  0.80000000000E+02  0.80000000000E+02 0.  0.
          5    1    3    3  501    0  0.15036568739E+02  0.18637390479E+02 -0.31693205529E+02  0.40000000000E+02  0.47000000000E+01 0. -1.
         -5    1    3    3    0  501 -0.15036568739E+02 -0.18637390479E+02  0.31693205529E+02  0.40000000000E+02  0.47000000000E+01 0.  1.
</event>
<event>
 5    1  0.4781763E-001  0.8000000E+02  0.7546771E-02  0.1203772E+00
         11   -1    0    0    0    0  0.00000000000E+00  0.00000000000E+00  0.40000000000E+02  0.40000000000E+02  0.00000000000E+00 0.  1.
        -11   -1    0    0    0    0 -0.00000000000E+00 -0.00000000000E+00 -0.40000000000E+02  0.40000000000E+02  0.00000000000E+00 0. -1.
         23    2    1    2    0    0  0.00000000000E+00  0.00000000000E+00  0.00000000000E+00  0.80000000000E+02  0.80000000000E+02 0.  0.
          5    1    3    3  501    0 -0.24696068308E+02  0.12391486926E+01 -0.31088240874E+02  0.40000000000E+02  0.47000000000E+01 0. -1.
         -5    1    3    3    0  501  0.24696068308E+02 -0.12391486926E+01  0.31088240874E+02  0.40000000000E+02  0.47000000000E+01 0.  1.
</event>
<event>
 5    1  0.4781763E-001  0.8000000E+02  0.7546771E-02  0.1203772E+00
         11   -1    0    0    0    0  0.00000000000E+00  0.00000000000E+00  0.40000000000E+02  0.40000000000E+02  0.00000000000E+00 0.  1.
        -11   -1    0    0    0    0 -0.00000000000E+00 -0.00000000000E+00 -0.40000000000E+02  0.40000000000E+02  0.00000000000E+00 0. -1.
         23    2    1    2    0    0  0.00000000000E+00  0.00000000000E+00  0.00000000000E+00  0.80000000000E+02  0.80000000000E+02 0.  0.
          5    1    3    3  501    0  0.10168867911E+02 -0.37649327052E+02 -0.75519731131E+01  0.40000000000E+02  0.47000000000E+01 0. -1.
         -5    1    3    3    0  501 -0.10168867911E+02  0.37649327052E+02  0.75519731131E+01  0.40000000000E+02  0.47000000000E+01 0.  1.
</event>
<event>
 5    1  0.4781763E-001  0.8000000E+02  0.7546771E-02  0.1203772E+00
         11   -1    0    0    0    0  0.00000000000E+00  0.00000000000E+00  0.40000000000E+02  0.40000000000E+02  0.00000000000E+00 0. -1.
        -11   -1    0    0    0    0 -0.00000000000E+00 -0.00000000000E+00 -0.40000000000E+02  0.40000000000E+02  0.00000000000E+00 0.  1.
         23    2    1    2    0    0  0.00000000000E+00  0.00000000000E+00  0.00000000000E+00  0.80000000000E+02  0.80000000000E+02 0.  0.
          5    1    3    3  501    0  0.90680137279E+01 -0.21227141562E+02  0.32327845399E+02  0.40000000000E+02  0.47000000000E+01 0. -1.
         -5    1    3    3    0  501 -0.90680137279E+01  0.21227141562E+02 -0.32327845399E+02  0.40000000000E+02  0.47000000000E+01 0.  1.
</event>
<event>
 5    1  0.4781763E-001  0.8000000E+02  0.7546771E-02  0.1203772E+00
         11   -1    0    0    0    0  0.00000000000E+00  0.00000000000E+00  0.40000000000E+02  0.40000000000E+02  0.00000000000E+00 0. -1.
        -11   -1    0    0    0    0 -0.00000000000E+00 -0.00000000000E+00 -0.40000000000E+02  0.40000000000E+02  0.00000000000E+00 0.  1.
         23    2    1    2    0    0  0.00000000000E+00  0.00000000000E+00  0.00000000000E+00  0.80000000000E+02  0.80000000000E+02 0.  0.
          5    1    3    3  501    0 -0.17394602277E+02 -0.35324647032E+02  0.52447234104E+01  0.40000000000E+02  0.47000000000E+01 0. -1.
         -5    1    3    3    0  501  0.17394602277E+02  0.35324647032E+02 -0.52447234104E+01  0.40000000000E+02  0.47000000000E+01 0.  1.
</event>
<event>
 5    1  0.4781763E-001  0.8000000E+02  0.7546771E-02  0.1203772E+00
         11   -1    0    0    0    0  0.00000000000E+00  0.00000000000E+00  0.40000000000E+02  0.40000000000E+02  0.00000000000E+00 0.  1.
        -11   -1    0    0    0    0 -0.00000000000E+00 -0.00000000000E+00 -0.40000000000E+02  0.40000000000E+02  0.00000000000E+00 0. -1.
         23    2    1    2    0    0  0.00000000000E+00  0.00000000000E+00  0.00000000000E+00  0.80000000000E+02  0.80000000000E+02 0.  0.
          5    1    3    3  501    0  0.24751890429E+02  0.12784732552E+02 -0.28316153230E+02  0.40000000000E+02  0.47000000000E+01 0. -1.
         -5    1    3    3    0  501 -0.24751890429E+02 -0.12784732552E+02  0.28316153230E+02  0.40000000000E+02  0.47000000000E+01 0.  1.
</event>
<event>
 5    1  0.4781763E-001  0.8000000E+02  0.7546771E-02  0.1203772E+00
         11   -1    0    0    0    0  0.00000000000E+00  0.00000000000E+00  0.40000000000E+02  0.40000000000E+02  0.00000000000E+00 0.  1.
        -11   -1    0    0    0    0 -0.00000000000E+00 -0.00000000000E+00 -0.40000000000E+02  0.40000000000E+02  0.00000000000E+00 0. -1.
         23    2    1    2    0    0  0.00000000000E+00  0.00000000000E+00  0.00000000000E+00  0.80000000000E+02  0.80000000000E+02 0.  0.
          5    1    3    3  501    0 -0.11885283870E+02  0.36813316919E+02 -0.90238420187E+01  0.40000000000E+02  0.47000000000E+01 0. -1.
         -5    1    3    3    0  501  0.11885283870E+02 -0.36813316919E+02  0.90238420187E+01  0.40000000000E+02  0.47000000000E+01 0.  1.
</event>
<event>
 5    1  0.4781763E-001  0.8000000E+02  0.7546771E-02  0.1203772E+00
         11   -1    0    0    0    0  0.00000000000E+00  0.00000000000E+00  0.40000000000E+02  0.40000000000E+02  0.00000000000E+00 0. -1.
        -11   -1    0    0    0    0 -0.00000000000E+00 -0.00000000000E+00 -0.40000000000E+02  0.40000000000E+02  0.00000000000E+00 0.  1.
         23    2    1    2    0    0  0.00000000000E+00  0.00000000000E+00  0.00000000000E+00  0.80000000000E+02  0.80000000000E+02 0.  0.
          5    1    3    3  501    0  0.16306024246E+02 -0.10801319251E+00 -0.36221704908E+02  0.40000000000E+02  0.47000000000E+01 0.  1.
         -5    1    3    3    0  501 -0.16306024246E+02  0.10801319251E+00  0.36221704908E+02  0.40000000000E+02  0.47000000000E+01 0. -1.
</event>
<event>
 5    1  0.4781763E-001  0.8000000E+02  0.7546771E-02  0.1203772E+00
         11   -1    0    0    0    0  0.00000000000E+00  0.00000000000E+00  0.40000000000E+02  0.40000000000E+02  0.00000000000E+00 0. -1.
        -11   -1    0    0    0    0 -0.00000000000E+00 -0.00000000000E+00 -0.40000000000E+02  0.40000000000E+02  0.00000000000E+00 0.  1.
         23    2    1    2    0    0  0.00000000000E+00  0.00000000000E+00  0.00000000000E+00  0.80000000000E+02  0.80000000000E+02 0.  0.
          5    1    3    3  501    0  0.24335020486E+02 -0.29849437447E+02 -0.97328239494E+01  0.40000000000E+02  0.47000000000E+01 0. -1.
         -5    1    3    3    0  501 -0.24335020486E+02  0.29849437447E+02  0.97328239494E+01  0.40000000000E+02  0.47000000000E+01 0.  1.
</event>
<event>
 5    1  0.4781763E-001  0.8000000E+02  0.7546771E-02  0.1203772E+00
         11   -1    0    0    0    0  0.00000000000E+00  0.00000000000E+00  0.40000000000E+02  0.40000000000E+02  0.00000000000E+00 0. -1.
        -11   -1    0    0    0    0 -0.00000000000E+00 -0.00000000000E+00 -0.40000000000E+02  0.40000000000E+02  0.00000000000E+00 0.  1.
         23    2    1    2    0    0  0.00000000000E+00  0.00000000000E+00  0.00000000000E+00  0.80000000000E+02  0.80000000000E+02 0.  0.
          5    1    3    3  501    0  0.43656264070E+01  0.52531844530E+01  0.39131258083E+02  0.40000000000E+02  0.47000000000E+01 0. -1.
         -5    1    3    3    0  501 -0.43656264070E+01 -0.52531844530E+01 -0.39131258083E+02  0.40000000000E+02  0.47000000000E+01 0.  1.
</event>
<event>
 5    1  0.4781763E-001  0.8000000E+02  0.7546771E-02  0.1203772E+00
         11   -1    0    0    0    0  0.00000000000E+00  0.00000000000E+00  0.40000000000E+02  0.40000000000E+02  0.00000000000E+00 0.  1.
        -11   -1    0    0    0    0 -0.00000000000E+00 -0.00000000000E+00 -0.40000000000E+02  0.40000000000E+02  0.00000000000E+00 0. -1.
         23    2    1    2    0    0  0.00000000000E+00  0.00000000000E+00  0.00000000000E+00  0.80000000000E+02  0.80000000000E+02 0.  0.
          5    1    3    3  501    0  0.34031574853E+02 -0.27753607705E+01 -0.20299243474E+02  0.40000000000E+02  0.47000000000E+01 0. -1.
         -5    1    3    3    0  501 -0.34031574853E+02  0.27753607705E+01  0.20299243474E+02  0.40000000000E+02  0.47000000000E+01 0.  1.
</event>
<event>
 5    1  0.4781763E-001  0.8000000E+02  0.7546771E-02  0.1203772E+00
         11   -1    0    0    0    0  0.00000000000E+00  0.00000000000E+00  0.40000000000E+02  0.40000000000E+02  0.00000000000E+00 0.  1.
        -11   -1    0    0    0    0 -0.00000000000E+00 -0.00000000000E+00 -0.40000000000E+02  0.40000000000E+02  0.00000000000E+00 0. -1.
         23    2    1    2    0    0  0.00000000000E+00  0.00000000000E+00  0.00000000000E+00  0.80000000000E+02  0.80000000000E+02 0.  0.
          5    1    3    3  501    0  0.29012487190E+02 -0.26638795425E+02 -0.51536555355E+01  0.40000000000E+02  0.47000000000E+01 0. -1.
         -5    1    3    3    0  501 -0.29012487190E+02  0.26638795425E+02  0.51536555355E+01  0.40000000000E+02  0.47000000000E+01 0.  1.
</event>
<event>
 5    1  0.4781763E-001  0.8000000E+02  0.7546771E-02  0.1203772E+00
         11   -1    0    0    0    0  0.00000000000E+00  0.00000000000E+00  0.40000000000E+02  0.40000000000E+02  0.00000000000E+00 0. -1.
        -11   -1    0    0    0    0 -0.00000000000E+00 -0.00000000000E+00 -0.40000000000E+02  0.40000000000E+02  0.00000000000E+00 0.  1.
         23    2    1    2    0    0  0.00000000000E+00  0.00000000000E+00  0.00000000000E+00  0.80000000000E+02  0.80000000000E+02 0.  0.
          5    1    3    3  501    0 -0.21338380667E-03  0.38088552248E+02  0.11277064671E+02  0.40000000000E+02  0.47000000000E+01 0. -1.
         -5    1    3    3    0  501  0.21338380667E-03 -0.38088552248E+02 -0.11277064671E+02  0.40000000000E+02  0.47000000000E+01 0.  1.
</event>
<event>
 5    1  0.4781763E-001  0.8000000E+02  0.7546771E-02  0.1203772E+00
         11   -1    0    0    0    0  0.00000000000E+00  0.00000000000E+00  0.40000000000E+02  0.40000000000E+02  0.00000000000E+00 0.  1.
        -11   -1    0    0    0    0 -0.00000000000E+00 -0.00000000000E+00 -0.40000000000E+02  0.40000000000E+02  0.00000000000E+00 0. -1.
         23    2    1    2    0    0  0.00000000000E+00  0.00000000000E+00  0.00000000000E+00  0.80000000000E+02  0.80000000000E+02 0.  0.
          5    1    3    3  501    0 -0.11925615165E+02  0.35782748581E+02 -0.12461324444E+02  0.40000000000E+02  0.47000000000E+01 0. -1.
         -5    1    3    3    0  501  0.11925615165E+02 -0.35782748581E+02  0.12461324444E+02  0.40000000000E+02  0.47000000000E+01 0.  1.
</event>
<event>
 5    1  0.4781763E-001  0.8000000E+02  0.7546771E-02  0.1203772E+00
         11   -1    0    0    0    0  0.00000000000E+00  0.00000000000E+00  0.40000000000E+02  0.40000000000E+02  0.00000000000E+00 0.  1.
        -11   -1    0    0    0    0 -0.00000000000E+00 -0.00000000000E+00 -0.40000000000E+02  0.40000000000E+02  0.00000000000E+00 0. -1.
         23    2    1    2    0    0  0.00000000000E+00  0.00000000000E+00  0.00000000000E+00  0.80000000000E+02  0.80000000000E+02 0.  0.
          5    1    3    3  501    0  0.28460492921E+02 -0.14518030527E+02 -0.23603752505E+02  0.40000000000E+02  0.47000000000E+01 0. -1.
         -5    1    3    3    0  501 -0.28460492921E+02  0.14518030527E+02  0.23603752505E+02  0.40000000000E+02  0.47000000000E+01 0.  1.
</event>
<event>
 5    1  0.4781763E-001  0.8000000E+02  0.7546771E-02  0.1203772E+00
         11   -1    0    0    0    0  0.00000000000E+00  0.00000000000E+00  0.40000000000E+02  0.40000000000E+02  0.00000000000E+00 0. -1.
        -11   -1    0    0    0    0 -0.00000000000E+00 -0.00000000000E+00 -0.40000000000E+02  0.40000000000E+02  0.00000000000E+00 0.  1.
         23    2    1    2    0    0  0.00000000000E+00  0.00000000000E+00  0.00000000000E+00  0.80000000000E+02  0.80000000000E+02 0.  0.
          5    1    3    3  501    0  0.26256342411E+02  0.13357687876E+01  0.29778015464E+02  0.40000000000E+02  0.47000000000E+01 0. -1.
         -5    1    3    3    0  501 -0.26256342411E+02 -0.13357687876E+01 -0.29778015464E+02  0.40000000000E+02  0.47000000000E+01 0.  1.
</event>
<event>
 5    1  0.4781763E-001  0.8000000E+02  0.7546771E-02  0.1203772E+00
         11   -1    0    0    0    0  0.00000000000E+00  0.00000000000E+00  0.40000000000E+02  0.40000000000E+02  0.00000000000E+00 0.  1.
        -11   -1    0    0    0    0 -0.00000000000E+00 -0.00000000000E+00 -0.40000000000E+02  0.40000000000E+02  0.00000000000E+00 0. -1.
         23    2    1    2    0    0  0.00000000000E+00  0.00000000000E+00  0.00000000000E+00  0.80000000000E+02  0.80000000000E+02 0.  0.
          5    1    3    3  501    0 -0.22554140625E+02 -0.30284169455E+02 -0.12332470193E+02  0.40000000000E+02  0.47000000000E+01 0. -1.
         -5    1    3    3    0  501  0.22554140625E+02  0.30284169455E+02  0.12332470193E+02  0.40000000000E+02  0.47000000000E+01 0.  1.
</event>
<event>
 5    1  0.4781763E-001  0.8000000E+02  0.7546771E-02  0.1203772E+00
         11   -1    0    0    0    0  0.00000000000E+00  0.00000000000E+00  0.40000000000E+02  0.40000000000E+02  0.00000000000E+00 0. -1.
        -11   -1    0    0    0    0 -0.00000000000E+00 -0.00000000000E+00 -0.40000000000E+02  0.40000000000E+02  0.00000000000E+00 0.  1.
         23    2    1    2    0    0  0.00000000000E+00  0.00000000000E+00  0.00000000000E+00  0.80000000000E+02  0.80000000000E+02 0.  0.
          5    1    3    3  501    0  0.27129230989E+02  0.27905648391E+02  0.79491895055E+01  0.40000000000E+02  0.47000000000E+01 0. -1.
         -5    1    3    3    0  501 -0.27129230989E+02 -0.27905648391E+02 -0.79491895055E+01  0.40000000000E+02  0.47000000000E+01 0.  1.
</event>
<event>
 5    1  0.4781763E-001  0.8000000E+02  0.7546771E-02  0.1203772E+00
         11   -1    0    0    0    0  0.00000000000E+00  0.00000000000E+00  0.40000000000E+02  0.40000000000E+02  0.00000000000E+00 0.  1.
        -11   -1    0    0    0    0 -0.00000000000E+00 -0.00000000000E+00 -0.40000000000E+02  0.40000000000E+02  0.00000000000E+00 0. -1.
         23    2    1    2    0    0  0.00000000000E+00  0.00000000000E+00  0.00000000000E+00  0.80000000000E+02  0.80000000000E+02 0.  0.
          5    1    3    3  501    0  0.31924745331E+02  0.15265901612E+01 -0.23587923988E+02  0.40000000000E+02  0.47000000000E+01 0. -1.
         -5    1    3    3    0  501 -0.31924745331E+02 -0.15265901612E+01  0.23587923988E+02  0.40000000000E+02  0.47000000000E+01 0.  1.
</event>
<event>
 5    1  0.4781763E-001  0.8000000E+02  0.7546771E-02  0.1203772E+00
         11   -1    0    0    0    0  0.00000000000E+00  0.00000000000E+00  0.40000000000E+02  0.40000000000E+02  0.00000000000E+00 0.  1.
        -11   -1    0    0    0    0 -0.00000000000E+00 -0.00000000000E+00 -0.40000000000E+02  0.40000000000E+02  0.00000000000E+00 0. -1.
         23    2    1    2    0    0  0.00000000000E+00  0.00000000000E+00  0.00000000000E+00  0.80000000000E+02  0.80000000000E+02 0.  0.
          5    1    3    3  501    0  0.39567436989E+02 -0.10810682065E+01 -0.33405421246E+01  0.40000000000E+02  0.47000000000E+01 0. -1.
         -5    1    3    3    0  501 -0.39567436989E+02  0.10810682065E+01  0.33405421246E+01  0.40000000000E+02  0.47000000000E+01 0.  1.
</event>
<event>
 5    1  0.4781763E-001  0.8000000E+02  0.7546771E-02  0.1203772E+00
         11   -1    0    0    0    0  0.00000000000E+00  0.00000000000E+00  0.40000000000E+02  0.40000000000E+02  0.00000000000E+00 0. -1.
        -11   -1    0    0    0    0 -0.00000000000E+00 -0.00000000000E+00 -0.40000000000E+02  0.40000000000E+02  0.00000000000E+00 0.  1.
         23    2    1    2    0    0  0.00000000000E+00  0.00000000000E+00  0.00000000000E+00  0.80000000000E+02  0.80000000000E+02 0.  0.
          5    1    3    3  501    0 -0.15953849689E+02 -0.16353863465E+02  0.32495166254E+02  0.40000000000E+02  0.47000000000E+01 0. -1.
         -5    1    3    3    0  501  0.15953849689E+02  0.16353863465E+02 -0.32495166254E+02  0.40000000000E+02  0.47000000000E+01 0.  1.
</event>
<event>
 5    1  0.4781763E-001  0.8000000E+02  0.7546771E-02  0.1203772E+00
         11   -1    0    0    0    0  0.00000000000E+00  0.00000000000E+00  0.40000000000E+02  0.40000000000E+02  0.00000000000E+00 0. -1.
        -11   -1    0    0    0    0 -0.00000000000E+00 -0.00000000000E+00 -0.40000000000E+02  0.40000000000E+02  0.00000000000E+00 0.  1.
         23    2    1    2    0    0  0.00000000000E+00  0.00000000000E+00  0.00000000000E+00  0.80000000000E+02  0.80000000000E+02 0.  0.
          5    1    3    3  501    0 -0.44647598100E+01 -0.67660771511E+01  0.38886965937E+02  0.40000000000E+02  0.47000000000E+01 0. -1.
         -5    1    3    3    0  501  0.44647598100E+01  0.67660771511E+01 -0.38886965937E+02  0.40000000000E+02  0.47000000000E+01 0.  1.
</event>
<event>
 5    1  0.4781763E-001  0.8000000E+02  0.7546771E-02  0.1203772E+00
         11   -1    0    0    0    0  0.00000000000E+00  0.00000000000E+00  0.40000000000E+02  0.40000000000E+02  0.00000000000E+00 0.  1.
        -11   -1    0    0    0    0 -0.00000000000E+00 -0.00000000000E+00 -0.40000000000E+02  0.40000000000E+02  0.00000000000E+00 0. -1.
         23    2    1    2    0    0  0.00000000000E+00  0.00000000000E+00  0.00000000000E+00  0.80000000000E+02  0.80000000000E+02 0.  0.
          5    1    3    3  501    0 -0.13802324509E+02  0.26741028088E+02 -0.25929196960E+02  0.40000000000E+02  0.47000000000E+01 0. -1.
         -5    1    3    3    0  501  0.13802324509E+02 -0.26741028088E+02  0.25929196960E+02  0.40000000000E+02  0.47000000000E+01 0.  1.
</event>
<event>
 5    1  0.4781763E-001  0.8000000E+02  0.7546771E-02  0.1203772E+00
         11   -1    0    0    0    0  0.00000000000E+00  0.00000000000E+00  0.40000000000E+02  0.40000000000E+02  0.00000000000E+00 0. -1.
        -11   -1    0    0    0    0 -0.00000000000E+00 -0.00000000000E+00 -0.40000000000E+02  0.40000000000E+02  0.00000000000E+00 0.  1.
         23    2    1    2    0    0  0.00000000000E+00  0.00000000000E+00  0.00000000000E+00  0.80000000000E+02  0.80000000000E+02 0.  0.
          5    1    3    3  501    0  0.12191185226E+02 -0.10906694317E-01  0.37805884249E+02  0.40000000000E+02  0.47000000000E+01 0. -1.
         -5    1    3    3    0  501 -0.12191185226E+02  0.10906694317E-01 -0.37805884249E+02  0.40000000000E+02  0.47000000000E+01 0.  1.
</event>
<event>
 5    1  0.4781763E-001  0.8000000E+02  0.7546771E-02  0.1203772E+00
         11   -1    0    0    0    0  0.00000000000E+00  0.00000000000E+00  0.40000000000E+02  0.40000000000E+02  0.00000000000E+00 0. -1.
        -11   -1    0    0    0    0 -0.00000000000E+00 -0.00000000000E+00 -0.40000000000E+02  0.40000000000E+02  0.00000000000E+00 0.  1.
         23    2    1    2    0    0  0.00000000000E+00  0.00000000000E+00  0.00000000000E+00  0.80000000000E+02  0.80000000000E+02 0.  0.
          5    1    3    3  501    0 -0.17925214633E+02  0.34521407103E+02  0.80541375702E+01  0.40000000000E+02  0.47000000000E+01 0. -1.
         -5    1    3    3    0  501  0.17925214633E+02 -0.34521407103E+02 -0.80541375702E+01  0.40000000000E+02  0.47000000000E+01 0.  1.
</event>
<event>
 5    1  0.4781763E-001  0.8000000E+02  0.7546771E-02  0.1203772E+00
         11   -1    0    0    0    0  0.00000000000E+00  0.00000000000E+00  0.40000000000E+02  0.40000000000E+02  0.00000000000E+00 0.  1.
        -11   -1    0    0    0    0 -0.00000000000E+00 -0.00000000000E+00 -0.40000000000E+02  0.40000000000E+02  0.00000000000E+00 0. -1.
         23    2    1    2    0    0  0.00000000000E+00  0.00000000000E+00  0.00000000000E+00  0.80000000000E+02  0.80000000000E+02 0.  0.
          5    1    3    3  501    0 -0.20840787430E+02 -0.33634431617E+02 -0.35066492664E+01  0.40000000000E+02  0.47000000000E+01 0. -1.
         -5    1    3    3    0  501  0.20840787430E+02  0.33634431617E+02  0.35066492664E+01  0.40000000000E+02  0.47000000000E+01 0.  1.
</event>
<event>
 5    1  0.4781763E-001  0.8000000E+02  0.7546771E-02  0.1203772E+00
         11   -1    0    0    0    0  0.00000000000E+00  0.00000000000E+00  0.40000000000E+02  0.40000000000E+02  0.00000000000E+00 0. -1.
        -11   -1    0    0    0    0 -0.00000000000E+00 -0.00000000000E+00 -0.40000000000E+02  0.40000000000E+02  0.00000000000E+00 0.  1.
         23    2    1    2    0    0  0.00000000000E+00  0.00000000000E+00  0.00000000000E+00  0.80000000000E+02  0.80000000000E+02 0.  0.
          5    1    3    3  501    0  0.33569129183E+02  0.19169304488E+02  0.91411887272E+01  0.40000000000E+02  0.47000000000E+01 0. -1.
         -5    1    3    3    0  501 -0.33569129183E+02 -0.19169304488E+02 -0.91411887272E+01  0.40000000000E+02  0.47000000000E+01 0.  1.
</event>
<event>
 5    1  0.4781763E-001  0.8000000E+02  0.7546771E-02  0.1203772E+00
         11   -1    0    0    0    0  0.00000000000E+00  0.00000000000E+00  0.40000000000E+02  0.40000000000E+02  0.00000000000E+00 0.  1.
        -11   -1    0    0    0    0 -0.00000000000E+00 -0.00000000000E+00 -0.40000000000E+02  0.40000000000E+02  0.00000000000E+00 0. -1.
         23    2    1    2    0    0  0.00000000000E+00  0.00000000000E+00  0.00000000000E+00  0.80000000000E+02  0.80000000000E+02 0.  0.
          5    1    3    3  501    0  0.16524197088E+02  0.66551276223E+01 -0.35504509389E+02  0.40000000000E+02  0.47000000000E+01 0. -1.
         -5    1    3    3    0  501 -0.16524197088E+02 -0.66551276223E+01  0.35504509389E+02  0.40000000000E+02  0.47000000000E+01 0.  1.
</event>
<event>
 5    1  0.4781763E-001  0.8000000E+02  0.7546771E-02  0.1203772E+00
         11   -1    0    0    0    0  0.00000000000E+00  0.00000000000E+00  0.40000000000E+02  0.40000000000E+02  0.00000000000E+00 0. -1.
        -11   -1    0    0    0    0 -0.00000000000E+00 -0.00000000000E+00 -0.40000000000E+02  0.40000000000E+02  0.00000000000E+00 0.  1.
         23    2    1    2    0    0  0.00000000000E+00  0.00000000000E+00  0.00000000000E+00  0.80000000000E+02  0.80000000000E+02 0.  0.
          5    1    3    3  501    0 -0.25665069831E+02 -0.74481765279E+00  0.30309395197E+02  0.40000000000E+02  0.47000000000E+01 0. -1.
         -5    1    3    3    0  501  0.25665069831E+02  0.74481765279E+00 -0.30309395197E+02  0.40000000000E+02  0.47000000000E+01 0.  1.
</event>
<event>
 5    1  0.4781763E-001  0.8000000E+02  0.7546771E-02  0.1203772E+00
         11   -1    0    0    0    0  0.00000000000E+00  0.00000000000E+00  0.40000000000E+02  0.40000000000E+02  0.00000000000E+00 0. -1.
        -11   -1    0    0    0    0 -0.00000000000E+00 -0.00000000000E+00 -0.40000000000E+02  0.40000000000E+02  0.00000000000E+00 0.  1.
         23    2    1    2    0    0  0.00000000000E+00  0.00000000000E+00  0.00000000000E+00  0.80000000000E+02  0.80000000000E+02 0.  0.
          5    1    3    3  501    0 -0.15510766099E+02 -0.14811878314E+02  0.33435525954E+02  0.40000000000E+02  0.47000000000E+01 0. -1.
         -5    1    3    3    0  501  0.15510766099E+02  0.14811878314E+02 -0.33435525954E+02  0.40000000000E+02  0.47000000000E+01 0.  1.
</event>
<event>
 5    1  0.4781763E-001  0.8000000E+02  0.7546771E-02  0.1203772E+00
         11   -1    0    0    0    0  0.00000000000E+00  0.00000000000E+00  0.40000000000E+02  0.40000000000E+02  0.00000000000E+00 0. -1.
        -11   -1    0    0    0    0 -0.00000000000E+00 -0.00000000000E+00 -0.40000000000E+02  0.40000000000E+02  0.00000000000E+00 0.  1.
         23    2    1    2    0    0  0.00000000000E+00  0.00000000000E+00  0.00000000000E+00  0.80000000000E+02  0.80000000000E+02 0.  0.
          5    1    3    3  501    0  0.16593483839E+02  0.24063125729E+02  0.26898555244E+02  0.40000000000E+02  0.47000000000E+01 0. -1.
         -5    1    3    3    0  501 -0.16593483839E+02 -0.24063125729E+02 -0.26898555244E+02  0.40000000000E+02  0.47000000000E+01 0.  1.
</event>
<event>
 5    1  0.4781763E-001  0.8000000E+02  0.7546771E-02  0.1203772E+00
         11   -1    0    0    0    0  0.00000000000E+00  0.00000000000E+00  0.40000000000E+02  0.40000000000E+02  0.00000000000E+00 0.  1.
        -11   -1    0    0    0    0 -0.00000000000E+00 -0.00000000000E+00 -0.40000000000E+02  0.40000000000E+02  0.00000000000E+00 0. -1.
         23    2    1    2    0    0  0.00000000000E+00  0.00000000000E+00  0.00000000000E+00  0.80000000000E+02  0.80000000000E+02 0.  0.
          5    1    3    3  501    0 -0.35979870859E+02  0.14054253238E+02 -0.92648183401E+01  0.40000000000E+02  0.47000000000E+01 0. -1.
         -5    1    3    3    0  501  0.35979870859E+02 -0.14054253238E+02  0.92648183401E+01  0.40000000000E+02  0.47000000000E+01 0.  1.
</event>
<event>
 5    1  0.4781763E-001  0.8000000E+02  0.7546771E-02  0.1203772E+00
         11   -1    0    0    0    0  0.00000000000E+00  0.00000000000E+00  0.40000000000E+02  0.40000000000E+02  0.00000000000E+00 0. -1.
        -11   -1    0    0    0    0 -0.00000000000E+00 -0.00000000000E+00 -0.40000000000E+02  0.40000000000E+02  0.00000000000E+00 0.  1.
         23    2    1    2    0    0  0.00000000000E+00  0.00000000000E+00  0.00000000000E+00  0.80000000000E+02  0.80000000000E+02 0.  0.
          5    1    3    3  501    0 -0.14000157306E+01  0.22682377489E+02  0.32580050758E+02  0.40000000000E+02  0.47000000000E+01 0. -1.
         -5    1    3    3    0  501  0.14000157306E+01 -0.22682377489E+02 -0.32580050758E+02  0.40000000000E+02  0.47000000000E+01 0.  1.
</event>
<event>
 5    1  0.4781763E-001  0.8000000E+02  0.7546771E-02  0.1203772E+00
         11   -1    0    0    0    0  0.00000000000E+00  0.00000000000E+00  0.40000000000E+02  0.40000000000E+02  0.00000000000E+00 0.  1.
        -11   -1    0    0    0    0 -0.00000000000E+00 -0.00000000000E+00 -0.40000000000E+02  0.40000000000E+02  0.00000000000E+00 0. -1.
         23    2    1    2    0    0  0.00000000000E+00  0.00000000000E+00  0.00000000000E+00  0.80000000000E+02  0.80000000000E+02 0.  0.
          5    1    3    3  501    0 -0.38928961260E+02  0.21748190997E+01 -0.75971137330E+01  0.40000000000E+02  0.47000000000E+01 0. -1.
         -5    1    3    3    0  501  0.38928961260E+02 -0.21748190997E+01  0.75971137330E+01  0.40000000000E+02  0.47000000000E+01 0.  1.
</event>
<event>
 5    1  0.4781763E-001  0.8000000E+02  0.7546771E-02  0.1203772E+00
         11   -1    0    0    0    0  0.00000000000E+00  0.00000000000E+00  0.40000000000E+02  0.40000000000E+02  0.00000000000E+00 0. -1.
        -11   -1    0    0    0    0 -0.00000000000E+00 -0.00000000000E+00 -0.40000000000E+02  0.40000000000E+02  0.00000000000E+00 0.  1.
         23    2    1    2    0    0  0.00000000000E+00  0.00000000000E+00  0.00000000000E+00  0.80000000000E+02  0.80000000000E+02 0.  0.
          5    1    3    3  501    0  0.11894139799E+02  0.34974438417E+02  0.14602331865E+02  0.40000000000E+02  0.47000000000E+01 0. -1.
         -5    1    3    3    0  501 -0.11894139799E+02 -0.34974438417E+02 -0.14602331865E+02  0.40000000000E+02  0.47000000000E+01 0.  1.
</event>
<event>
 5    1  0.4781763E-001  0.8000000E+02  0.7546771E-02  0.1203772E+00
         11   -1    0    0    0    0  0.00000000000E+00  0.00000000000E+00  0.40000000000E+02  0.40000000000E+02  0.00000000000E+00 0. -1.
        -11   -1    0    0    0    0 -0.00000000000E+00 -0.00000000000E+00 -0.40000000000E+02  0.40000000000E+02  0.00000000000E+00 0.  1.
         23    2    1    2    0    0  0.00000000000E+00  0.00000000000E+00  0.00000000000E+00  0.80000000000E+02  0.80000000000E+02 0.  0.
          5    1    3    3  501    0 -0.34220088490E+02 -0.12648299397E+02  0.15713563125E+02  0.40000000000E+02  0.47000000000E+01 0. -1.
         -5    1    3    3    0  501  0.34220088490E+02  0.12648299397E+02 -0.15713563125E+02  0.40000000000E+02  0.47000000000E+01 0.  1.
</event>
<event>
 5    1  0.4781763E-001  0.8000000E+02  0.7546771E-02  0.1203772E+00
         11   -1    0    0    0    0  0.00000000000E+00  0.00000000000E+00  0.40000000000E+02  0.40000000000E+02  0.00000000000E+00 0.  1.
        -11   -1    0    0    0    0 -0.00000000000E+00 -0.00000000000E+00 -0.40000000000E+02  0.40000000000E+02  0.00000000000E+00 0. -1.
         23    2    1    2    0    0  0.00000000000E+00  0.00000000000E+00  0.00000000000E+00  0.80000000000E+02  0.80000000000E+02 0.  0.
          5    1    3    3  501    0  0.25650954865E+02 -0.41124697361E+01 -0.30050392796E+02  0.40000000000E+02  0.47000000000E+01 0. -1.
         -5    1    3    3    0  501 -0.25650954865E+02  0.41124697361E+01  0.30050392796E+02  0.40000000000E+02  0.47000000000E+01 0.  1.
</event>
<event>
 5    1  0.4781763E-001  0.8000000E+02  0.7546771E-02  0.1203772E+00
         11   -1    0    0    0    0  0.00000000000E+00  0.00000000000E+00  0.40000000000E+02  0.40000000000E+02  0.00000000000E+00 0.  1.
        -11   -1    0    0    0    0 -0.00000000000E+00 -0.00000000000E+00 -0.40000000000E+02  0.40000000000E+02  0.00000000000E+00 0. -1.
         23    2    1    2    0    0  0.00000000000E+00  0.00000000000E+00  0.00000000000E+00  0.80000000000E+02  0.80000000000E+02 0.  0.
          5    1    3    3  501    0  0.26803069315E+02 -0.86440844314E+01 -0.28014019341E+02  0.40000000000E+02  0.47000000000E+01 0. -1.
         -5    1    3    3    0  501 -0.26803069315E+02  0.86440844314E+01  0.28014019341E+02  0.40000000000E+02  0.47000000000E+01 0.  1.
</event>
<event>
 5    1  0.4781763E-001  0.8000000E+02  0.7546771E-02  0.1203772E+00
         11   -1    0    0    0    0  0.00000000000E+00  0.00000000000E+00  0.40000000000E+02  0.40000000000E+02  0.00000000000E+00 0.  1.
        -11   -1    0    0    0    0 -0.00000000000E+00 -0.00000000000E+00 -0.40000000000E+02  0.40000000000E+02  0.00000000000E+00 0. -1.
         23    2    1    2    0    0  0.00000000000E+00  0.00000000000E+00  0.00000000000E+00  0.80000000000E+02  0.80000000000E+02 0.  0.
          5    1    3    3  501    0  0.34313330273E+02  0.16537602984E+02 -0.11270006793E+02  0.40000000000E+02  0.47000000000E+01 0. -1.
         -5    1    3    3    0  501 -0.34313330273E+02 -0.16537602984E+02  0.11270006793E+02  0.40000000000E+02  0.47000000000E+01 0.  1.
</event>
<event>
 5    1  0.4781763E-001  0.8000000E+02  0.7546771E-02  0.1203772E+00
         11   -1    0    0    0    0  0.00000000000E+00  0.00000000000E+00  0.40000000000E+02  0.40000000000E+02  0.00000000000E+00 0.  1.
        -11   -1    0    0    0    0 -0.00000000000E+00 -0.00000000000E+00 -0.40000000000E+02  0.40000000000E+02  0.00000000000E+00 0. -1.
         23    2    1    2    0    0  0.00000000000E+00  0.00000000000E+00  0.00000000000E+00  0.80000000000E+02  0.80000000000E+02 0.  0.
          5    1    3    3  501    0 -0.36332395210E+02 -0.81238320277E+01  0.13851729550E+02  0.40000000000E+02  0.47000000000E+01 0. -1.
         -5    1    3    3    0  501  0.36332395210E+02  0.81238320277E+01 -0.13851729550E+02  0.40000000000E+02  0.47000000000E+01 0.  1.
</event>
<event>
 5    1  0.4781763E-001  0.8000000E+02  0.7546771E-02  0.1203772E+00
         11   -1    0    0    0    0  0.00000000000E+00  0.00000000000E+00  0.40000000000E+02  0.40000000000E+02  0.00000000000E+00 0.  1.
        -11   -1    0    0    0    0 -0.00000000000E+00 -0.00000000000E+00 -0.40000000000E+02  0.40000000000E+02  0.00000000000E+00 0. -1.
         23    2    1    2    0    0  0.00000000000E+00  0.00000000000E+00  0.00000000000E+00  0.80000000000E+02  0.80000000000E+02 0.  0.
          5    1    3    3  501    0  0.30733422329E+02  0.10713678406E+02 -0.22772436123E+02  0.40000000000E+02  0.47000000000E+01 0. -1.
         -5    1    3    3    0  501 -0.30733422329E+02 -0.10713678406E+02  0.22772436123E+02  0.40000000000E+02  0.47000000000E+01 0.  1.
</event>
<event>
 5    1  0.4781763E-001  0.8000000E+02  0.7546771E-02  0.1203772E+00
         11   -1    0    0    0    0  0.00000000000E+00  0.00000000000E+00  0.40000000000E+02  0.40000000000E+02  0.00000000000E+00 0.  1.
        -11   -1    0    0    0    0 -0.00000000000E+00 -0.00000000000E+00 -0.40000000000E+02  0.40000000000E+02  0.00000000000E+00 0. -1.
         23    2    1    2    0    0  0.00000000000E+00  0.00000000000E+00  0.00000000000E+00  0.80000000000E+02  0.80000000000E+02 0.  0.
          5    1    3    3  501    0  0.19409784808E+02  0.20840543935E+02 -0.27691911855E+02  0.40000000000E+02  0.47000000000E+01 0. -1.
         -5    1    3    3    0  501 -0.19409784808E+02 -0.20840543935E+02  0.27691911855E+02  0.40000000000E+02  0.47000000000E+01 0.  1.
</event>
<event>
 5    1  0.4781763E-001  0.8000000E+02  0.7546771E-02  0.1203772E+00
         11   -1    0    0    0    0  0.00000000000E+00  0.00000000000E+00  0.40000000000E+02  0.40000000000E+02  0.00000000000E+00 0. -1.
        -11   -1    0    0    0    0 -0.00000000000E+00 -0.00000000000E+00 -0.40000000000E+02  0.40000000000E+02  0.00000000000E+00 0.  1.
         23    2    1    2    0    0  0.00000000000E+00  0.00000000000E+00  0.00000000000E+00  0.80000000000E+02  0.80000000000E+02 0.  0.
          5    1    3    3  501    0  0.24811943093E+02  0.22294924646E+02  0.21568815799E+02  0.40000000000E+02  0.47000000000E+01 0. -1.
         -5    1    3    3    0  501 -0.24811943093E+02 -0.22294924646E+02 -0.21568815799E+02  0.40000000000E+02  0.47000000000E+01 0.  1.
</event>
<event>
 5    1  0.4781763E-001  0.8000000E+02  0.7546771E-02  0.1203772E+00
         11   -1    0    0    0    0  0.00000000000E+00  0.00000000000E+00  0.40000000000E+02  0.40000000000E+02  0.00000000000E+00 0.  1.
        -11   -1    0    0    0    0 -0.00000000000E+00 -0.00000000000E+00 -0.40000000000E+02  0.40000000000E+02  0.00000000000E+00 0. -1.
         23    2    1    2    0    0  0.00000000000E+00  0.00000000000E+00  0.00000000000E+00  0.80000000000E+02  0.80000000000E+02 0.  0.
          5    1    3    3  501    0 -0.87497651947E+01  0.17592196797E+02 -0.34523415545E+02  0.40000000000E+02  0.47000000000E+01 0. -1.
         -5    1    3    3    0  501  0.87497651947E+01 -0.17592196797E+02  0.34523415545E+02  0.40000000000E+02  0.47000000000E+01 0.  1.
</event>
<event>
 5    1  0.4781763E-001  0.8000000E+02  0.7546771E-02  0.1203772E+00
         11   -1    0    0    0    0  0.00000000000E+00  0.00000000000E+00  0.40000000000E+02  0.40000000000E+02  0.00000000000E+00 0.  1.
        -11   -1    0    0    0    0 -0.00000000000E+00 -0.00000000000E+00 -0.40000000000E+02  0.40000000000E+02  0.00000000000E+00 0. -1.
         23    2    1    2    0    0  0.00000000000E+00  0.00000000000E+00  0.00000000000E+00  0.80000000000E+02  0.80000000000E+02 0.  0.
          5    1    3    3  501    0 -0.63344635354E+01  0.17854918355E+02 -0.34913986628E+02  0.40000000000E+02  0.47000000000E+01 0. -1.
         -5    1    3    3    0  501  0.63344635354E+01 -0.17854918355E+02  0.34913986628E+02  0.40000000000E+02  0.47000000000E+01 0.  1.
</event>
<event>
 5    1  0.4781763E-001  0.8000000E+02  0.7546771E-02  0.1203772E+00
         11   -1    0    0    0    0  0.00000000000E+00  0.00000000000E+00  0.40000000000E+02  0.40000000000E+02  0.00000000000E+00 0. -1.
        -11   -1    0    0    0    0 -0.00000000000E+00 -0.00000000000E+00 -0.40000000000E+02  0.40000000000E+02  0.00000000000E+00 0.  1.
         23    2    1    2    0    0  0.00000000000E+00  0.00000000000E+00  0.00000000000E+00  0.80000000000E+02  0.80000000000E+02 0.  0.
          5    1    3    3  501    0 -0.34529186387E+02  0.18850439515E+02  0.55051083148E+01  0.40000000000E+02  0.47000000000E+01 0. -1.
         -5    1    3    3    0  501  0.34529186387E+02 -0.18850439515E+02 -0.55051083148E+01  0.40000000000E+02  0.47000000000E+01 0.  1.
</event>
<event>
 5    1  0.4781763E-001  0.8000000E+02  0.7546771E-02  0.1203772E+00
         11   -1    0    0    0    0  0.00000000000E+00  0.00000000000E+00  0.40000000000E+02  0.40000000000E+02  0.00000000000E+00 0.  1.
        -11   -1    0    0    0    0 -0.00000000000E+00 -0.00000000000E+00 -0.40000000000E+02  0.40000000000E+02  0.00000000000E+00 0. -1.
         23    2    1    2    0    0  0.00000000000E+00  0.00000000000E+00  0.00000000000E+00  0.80000000000E+02  0.80000000000E+02 0.  0.
          5    1    3    3  501    0  0.18131578645E+02  0.17859340899E+02 -0.30499177014E+02  0.40000000000E+02  0.47000000000E+01 0. -1.
         -5    1    3    3    0  501 -0.18131578645E+02 -0.17859340899E+02  0.30499177014E+02  0.40000000000E+02  0.47000000000E+01 0.  1.
</event>
<event>
 5    1  0.4781763E-001  0.8000000E+02  0.7546771E-02  0.1203772E+00
         11   -1    0    0    0    0  0.00000000000E+00  0.00000000000E+00  0.40000000000E+02  0.40000000000E+02  0.00000000000E+00 0.  1.
        -11   -1    0    0    0    0 -0.00000000000E+00 -0.00000000000E+00 -0.40000000000E+02  0.40000000000E+02  0.00000000000E+00 0. -1.
         23    2    1    2    0    0  0.00000000000E+00  0.00000000000E+00  0.00000000000E+00  0.80000000000E+02  0.80000000000E+02 0.  0.
          5    1    3    3  501    0 -0.22613581874E+02 -0.55785164688E+01 -0.32177881671E+02  0.40000000000E+02  0.47000000000E+01 0. -1.
         -5    1    3    3    0  501  0.22613581874E+02  0.55785164688E+01  0.32177881671E+02  0.40000000000E+02  0.47000000000E+01 0.  1.
</event>
<event>
 5    1  0.4781763E-001  0.8000000E+02  0.7546771E-02  0.1203772E+00
         11   -1    0    0    0    0  0.00000000000E+00  0.00000000000E+00  0.40000000000E+02  0.40000000000E+02  0.00000000000E+00 0. -1.
        -11   -1    0    0    0    0 -0.00000000000E+00 -0.00000000000E+00 -0.40000000000E+02  0.40000000000E+02  0.00000000000E+00 0.  1.
         23    2    1    2    0    0  0.00000000000E+00  0.00000000000E+00  0.00000000000E+00  0.80000000000E+02  0.80000000000E+02 0.  0.
          5    1    3    3  501    0  0.22175006734E+02  0.28813610122E+02 -0.15998592067E+02  0.40000000000E+02  0.47000000000E+01 0.  1.
         -5    1    3    3    0  501 -0.22175006734E+02 -0.28813610122E+02  0.15998592067E+02  0.40000000000E+02  0.47000000000E+01 0. -1.
</event>
<event>
 5    1  0.4781763E-001  0.8000000E+02  0.7546771E-02  0.1203772E+00
         11   -1    0    0    0    0  0.00000000000E+00  0.00000000000E+00  0.40000000000E+02  0.40000000000E+02  0.00000000000E+00 0. -1.
        -11   -1    0    0    0    0 -0.00000000000E+00 -0.00000000000E+00 -0.40000000000E+02  0.40000000000E+02  0.00000000000E+00 0.  1.
         23    2    1    2    0    0  0.00000000000E+00  0.00000000000E+00  0.00000000000E+00  0.80000000000E+02  0.80000000000E+02 0.  0.
          5    1    3    3  501    0  0.37086359631E+00  0.24095841014E+02  0.31577886345E+02  0.40000000000E+02  0.47000000000E+01 0. -1.
         -5    1    3    3    0  501 -0.37086359631E+00 -0.24095841014E+02 -0.31577886345E+02  0.40000000000E+02  0.47000000000E+01 0.  1.
</event>
<event>
 5    1  0.4781763E-001  0.8000000E+02  0.7546771E-02  0.1203772E+00
         11   -1    0    0    0    0  0.00000000000E+00  0.00000000000E+00  0.40000000000E+02  0.40000000000E+02  0.00000000000E+00 0. -1.
        -11   -1    0    0    0    0 -0.00000000000E+00 -0.00000000000E+00 -0.40000000000E+02  0.40000000000E+02  0.00000000000E+00 0.  1.
         23    2    1    2    0    0  0.00000000000E+00  0.00000000000E+00  0.00000000000E+00  0.80000000000E+02  0.80000000000E+02 0.  0.
          5    1    3    3  501    0 -0.48324955106E+01 -0.27331755462E+02  0.28417109820E+02  0.40000000000E+02  0.47000000000E+01 0. -1.
         -5    1    3    3    0  501  0.48324955106E+01  0.27331755462E+02 -0.28417109820E+02  0.40000000000E+02  0.47000000000E+01 0.  1.
</event>
<event>
 5    1  0.4781763E-001  0.8000000E+02  0.7546771E-02  0.1203772E+00
         11   -1    0    0    0    0  0.00000000000E+00  0.00000000000E+00  0.40000000000E+02  0.40000000000E+02  0.00000000000E+00 0. -1.
        -11   -1    0    0    0    0 -0.00000000000E+00 -0.00000000000E+00 -0.40000000000E+02  0.40000000000E+02  0.00000000000E+00 0.  1.
         23    2    1    2    0    0  0.00000000000E+00  0.00000000000E+00  0.00000000000E+00  0.80000000000E+02  0.80000000000E+02 0.  0.
          5    1    3    3  501    0 -0.36619621748E+02  0.11931009117E+02  0.97244189803E+01  0.40000000000E+02  0.47000000000E+01 0. -1.
         -5    1    3    3    0  501  0.36619621748E+02 -0.11931009117E+02 -0.97244189803E+01  0.40000000000E+02  0.47000000000E+01 0.  1.
</event>
<event>
 5    1  0.4781763E-001  0.8000000E+02  0.7546771E-02  0.1203772E+00
         11   -1    0    0    0    0  0.00000000000E+00  0.00000000000E+00  0.40000000000E+02  0.40000000000E+02  0.00000000000E+00 0. -1.
        -11   -1    0    0    0    0 -0.00000000000E+00 -0.00000000000E+00 -0.40000000000E+02  0.40000000000E+02  0.00000000000E+00 0.  1.
         23    2    1    2    0    0  0.00000000000E+00  0.00000000000E+00  0.00000000000E+00  0.80000000000E+02  0.80000000000E+02 0.  0.
          5    1    3    3  501    0  0.21944290849E+02 -0.22622932326E+02  0.24177696997E+02  0.40000000000E+02  0.47000000000E+01 0. -1.
         -5    1    3    3    0  501 -0.21944290849E+02  0.22622932326E+02 -0.24177696997E+02  0.40000000000E+02  0.47000000000E+01 0.  1.
</event>
<event>
 5    1  0.4781763E-001  0.8000000E+02  0.7546771E-02  0.1203772E+00
         11   -1    0    0    0    0  0.00000000000E+00  0.00000000000E+00  0.40000000000E+02  0.40000000000E+02  0.00000000000E+00 0. -1.
        -11   -1    0    0    0    0 -0.00000000000E+00 -0.00000000000E+00 -0.40000000000E+02  0.40000000000E+02  0.00000000000E+00 0.  1.
         23    2    1    2    0    0  0.00000000000E+00  0.00000000000E+00  0.00000000000E+00  0.80000000000E+02  0.80000000000E+02 0.  0.
          5    1    3    3  501    0 -0.19576249038E+01  0.10791533806E+02  0.38178796509E+02  0.40000000000E+02  0.47000000000E+01 0. -1.
         -5    1    3    3    0  501  0.19576249038E+01 -0.10791533806E+02 -0.38178796509E+02  0.40000000000E+02  0.47000000000E+01 0.  1.
</event>
<event>
 5    1  0.4781763E-001  0.8000000E+02  0.7546771E-02  0.1203772E+00
         11   -1    0    0    0    0  0.00000000000E+00  0.00000000000E+00  0.40000000000E+02  0.40000000000E+02  0.00000000000E+00 0. -1.
        -11   -1    0    0    0    0 -0.00000000000E+00 -0.00000000000E+00 -0.40000000000E+02  0.40000000000E+02  0.00000000000E+00 0.  1.
         23    2    1    2    0    0  0.00000000000E+00  0.00000000000E+00  0.00000000000E+00  0.80000000000E+02  0.80000000000E+02 0.  0.
          5    1    3    3  501    0 -0.31417575891E+02  0.49580154085E+01  0.23796302410E+02  0.40000000000E+02  0.47000000000E+01 0. -1.
         -5    1    3    3    0  501  0.31417575891E+02 -0.49580154085E+01 -0.23796302410E+02  0.40000000000E+02  0.47000000000E+01 0.  1.
</event>
<event>
 5    1  0.4781763E-001  0.8000000E+02  0.7546771E-02  0.1203772E+00
         11   -1    0    0    0    0  0.00000000000E+00  0.00000000000E+00  0.40000000000E+02  0.40000000000E+02  0.00000000000E+00 0. -1.
        -11   -1    0    0    0    0 -0.00000000000E+00 -0.00000000000E+00 -0.40000000000E+02  0.40000000000E+02  0.00000000000E+00 0.  1.
         23    2    1    2    0    0  0.00000000000E+00  0.00000000000E+00  0.00000000000E+00  0.80000000000E+02  0.80000000000E+02 0.  0.
          5    1    3    3  501    0 -0.15010646617E+02  0.26391093182E+02  0.25614462493E+02  0.40000000000E+02  0.47000000000E+01 0. -1.
         -5    1    3    3    0  501  0.15010646617E+02 -0.26391093182E+02 -0.25614462493E+02  0.40000000000E+02  0.47000000000E+01 0.  1.
</event>
<event>
 5    1  0.4781763E-001  0.8000000E+02  0.7546771E-02  0.1203772E+00
         11   -1    0    0    0    0  0.00000000000E+00  0.00000000000E+00  0.40000000000E+02  0.40000000000E+02  0.00000000000E+00 0.  1.
        -11   -1    0    0    0    0 -0.00000000000E+00 -0.00000000000E+00 -0.40000000000E+02  0.40000000000E+02  0.00000000000E+00 0. -1.
         23    2    1    2    0    0  0.00000000000E+00  0.00000000000E+00  0.00000000000E+00  0.80000000000E+02  0.80000000000E+02 0.  0.
          5    1    3    3  501    0  0.18132210724E+02 -0.79764482768E+00 -0.35334072748E+02  0.40000000000E+02  0.47000000000E+01 0. -1.
         -5    1    3    3    0  501 -0.18132210724E+02  0.79764482768E+00  0.35334072748E+02  0.40000000000E+02  0.47000000000E+01 0.  1.
</event>
<event>
 5    1  0.4781763E-001  0.8000000E+02  0.7546771E-02  0.1203772E+00
         11   -1    0    0    0    0  0.00000000000E+00  0.00000000000E+00  0.40000000000E+02  0.40000000000E+02  0.00000000000E+00 0.  1.
        -11   -1    0    0    0    0 -0.00000000000E+00 -0.00000000000E+00 -0.40000000000E+02  0.40000000000E+02  0.00000000000E+00 0. -1.
         23    2    1    2    0    0  0.00000000000E+00  0.00000000000E+00  0.00000000000E+00  0.80000000000E+02  0.80000000000E+02 0.  0.
          5    1    3    3  501    0  0.60274570229E+01  0.73615193816E+01 -0.38566666880E+02  0.40000000000E+02  0.47000000000E+01 0. -1.
         -5    1    3    3    0  501 -0.60274570229E+01 -0.73615193816E+01  0.38566666880E+02  0.40000000000E+02  0.47000000000E+01 0.  1.
</event>
<event>
 5    1  0.4781763E-001  0.8000000E+02  0.7546771E-02  0.1203772E+00
         11   -1    0    0    0    0  0.00000000000E+00  0.00000000000E+00  0.40000000000E+02  0.40000000000E+02  0.00000000000E+00 0.  1.
        -11   -1    0    0    0    0 -0.00000000000E+00 -0.00000000000E+00 -0.40000000000E+02  0.40000000000E+02  0.00000000000E+00 0. -1.
         23    2    1    2    0    0  0.00000000000E+00  0.00000000000E+00  0.00000000000E+00  0.80000000000E+02  0.80000000000E+02 0.  0.
          5    1    3    3  501    0 -0.48013178090E+01  0.24783257165E+01 -0.39353719633E+02  0.40000000000E+02  0.47000000000E+01 0. -1.
         -5    1    3    3    0  501  0.48013178090E+01 -0.24783257165E+01  0.39353719633E+02  0.40000000000E+02  0.47000000000E+01 0.  1.
</event>
<event>
 5    1  0.4781763E-001  0.8000000E+02  0.7546771E-02  0.1203772E+00
         11   -1    0    0    0    0  0.00000000000E+00  0.00000000000E+00  0.40000000000E+02  0.40000000000E+02  0.00000000000E+00 0. -1.
        -11   -1    0    0    0    0 -0.00000000000E+00 -0.00000000000E+00 -0.40000000000E+02  0.40000000000E+02  0.00000000000E+00 0.  1.
         23    2    1    2    0    0  0.00000000000E+00  0.00000000000E+00  0.00000000000E+00  0.80000000000E+02  0.80000000000E+02 0.  0.
          5    1    3    3  501    0  0.16858081174E+02 -0.68391871770E+00  0.35961748488E+02  0.40000000000E+02  0.47000000000E+01 0. -1.
         -5    1    3    3    0  501 -0.16858081174E+02  0.68391871770E+00 -0.35961748488E+02  0.40000000000E+02  0.47000000000E+01 0.  1.
</event>
<event>
 5    1  0.4781763E-001  0.8000000E+02  0.7546771E-02  0.1203772E+00
         11   -1    0    0    0    0  0.00000000000E+00  0.00000000000E+00  0.40000000000E+02  0.40000000000E+02  0.00000000000E+00 0.  1.
        -11   -1    0    0    0    0 -0.00000000000E+00 -0.00000000000E+00 -0.40000000000E+02  0.40000000000E+02  0.00000000000E+00 0. -1.
         23    2    1    2    0    0  0.00000000000E+00  0.00000000000E+00  0.00000000000E+00  0.80000000000E+02  0.80000000000E+02 0.  0.
          5    1    3    3  501    0 -0.92607667525E+01  0.58839682714E+01 -0.38177573476E+02  0.40000000000E+02  0.47000000000E+01 0. -1.
         -5    1    3    3    0  501  0.92607667525E+01 -0.58839682714E+01  0.38177573476E+02  0.40000000000E+02  0.47000000000E+01 0.  1.
</event>
<event>
 5    1  0.4781763E-001  0.8000000E+02  0.7546771E-02  0.1203772E+00
         11   -1    0    0    0    0  0.00000000000E+00  0.00000000000E+00  0.40000000000E+02  0.40000000000E+02  0.00000000000E+00 0.  1.
        -11   -1    0    0    0    0 -0.00000000000E+00 -0.00000000000E+00 -0.40000000000E+02  0.40000000000E+02  0.00000000000E+00 0. -1.
         23    2    1    2    0    0  0.00000000000E+00  0.00000000000E+00  0.00000000000E+00  0.80000000000E+02  0.80000000000E+02 0.  0.
          5    1    3    3  501    0 -0.36310555244E+02  0.14566708616E+02 -0.68749238514E+01  0.40000000000E+02  0.47000000000E+01 0. -1.
         -5    1    3    3    0  501  0.36310555244E+02 -0.14566708616E+02  0.68749238514E+01  0.40000000000E+02  0.47000000000E+01 0.  1.
</event>
<event>
 5    1  0.4781763E-001  0.8000000E+02  0.7546771E-02  0.1203772E+00
         11   -1    0    0    0    0  0.00000000000E+00  0.00000000000E+00  0.40000000000E+02  0.40000000000E+02  0.00000000000E+00 0. -1.
        -11   -1    0    0    0    0 -0.00000000000E+00 -0.00000000000E+00 -0.40000000000E+02  0.40000000000E+02  0.00000000000E+00 0.  1.
         23    2    1    2    0    0  0.00000000000E+00  0.00000000000E+00  0.00000000000E+00  0.80000000000E+02  0.80000000000E+02 0.  0.
          5    1    3    3  501    0 -0.58194970223E+00  0.25285843323E+01  0.39638082646E+02  0.40000000000E+02  0.47000000000E+01 0. -1.
         -5    1    3    3    0  501  0.58194970223E+00 -0.25285843323E+01 -0.39638082646E+02  0.40000000000E+02  0.47000000000E+01 0.  1.
</event>
<event>
 5    1  0.4781763E-001  0.8000000E+02  0.7546771E-02  0.1203772E+00
         11   -1    0    0    0    0  0.00000000000E+00  0.00000000000E+00  0.40000000000E+02  0.40000000000E+02  0.00000000000E+00 0.  1.
        -11   -1    0    0    0    0 -0.00000000000E+00 -0.00000000000E+00 -0.40000000000E+02  0.40000000000E+02  0.00000000000E+00 0. -1.
         23    2    1    2    0    0  0.00000000000E+00  0.00000000000E+00  0.00000000000E+00  0.80000000000E+02  0.80000000000E+02 0.  0.
          5    1    3    3  501    0  0.11729707511E+02  0.15388863779E+02 -0.34691596004E+02  0.40000000000E+02  0.47000000000E+01 0. -1.
         -5    1    3    3    0  501 -0.11729707511E+02 -0.15388863779E+02  0.34691596004E+02  0.40000000000E+02  0.47000000000E+01 0.  1.
</event>
<event>
 5    1  0.4781763E-001  0.8000000E+02  0.7546771E-02  0.1203772E+00
         11   -1    0    0    0    0  0.00000000000E+00  0.00000000000E+00  0.40000000000E+02  0.40000000000E+02  0.00000000000E+00 0.  1.
        -11   -1    0    0    0    0 -0.00000000000E+00 -0.00000000000E+00 -0.40000000000E+02  0.40000000000E+02  0.00000000000E+00 0. -1.
         23    2    1    2    0    0  0.00000000000E+00  0.00000000000E+00  0.00000000000E+00  0.80000000000E+02  0.80000000000E+02 0.  0.
          5    1    3    3  501    0 -0.10714305894E+02  0.36709166657E+02 -0.10749452664E+02  0.40000000000E+02  0.47000000000E+01 0. -1.
         -5    1    3    3    0  501  0.10714305894E+02 -0.36709166657E+02  0.10749452664E+02  0.40000000000E+02  0.47000000000E+01 0.  1.
</event>
<event>
 5    1  0.4781763E-001  0.8000000E+02  0.7546771E-02  0.1203772E+00
         11   -1    0    0    0    0  0.00000000000E+00  0.00000000000E+00  0.40000000000E+02  0.40000000000E+02  0.00000000000E+00 0. -1.
        -11   -1    0    0    0    0 -0.00000000000E+00 -0.00000000000E+00 -0.40000000000E+02  0.40000000000E+02  0.00000000000E+00 0.  1.
         23    2    1    2    0    0  0.00000000000E+00  0.00000000000E+00  0.00000000000E+00  0.80000000000E+02  0.80000000000E+02 0.  0.
          5    1    3    3  501    0 -0.26806725110E+02  0.41592342203E+01 -0.29017413040E+02  0.40000000000E+02  0.47000000000E+01 0.  1.
         -5    1    3    3    0  501  0.26806725110E+02 -0.41592342203E+01  0.29017413040E+02  0.40000000000E+02  0.47000000000E+01 0. -1.
</event>
<event>
 5    1  0.4781763E-001  0.8000000E+02  0.7546771E-02  0.1203772E+00
         11   -1    0    0    0    0  0.00000000000E+00  0.00000000000E+00  0.40000000000E+02  0.40000000000E+02  0.00000000000E+00 0. -1.
        -11   -1    0    0    0    0 -0.00000000000E+00 -0.00000000000E+00 -0.40000000000E+02  0.40000000000E+02  0.00000000000E+00 0.  1.
         23    2    1    2    0    0  0.00000000000E+00  0.00000000000E+00  0.00000000000E+00  0.80000000000E+02  0.80000000000E+02 0.  0.
          5    1    3    3  501    0 -0.62796941548E+01 -0.26705677715E+02  0.28727725617E+02  0.40000000000E+02  0.47000000000E+01 0. -1.
         -5    1    3    3    0  501  0.62796941548E+01  0.26705677715E+02 -0.28727725617E+02  0.40000000000E+02  0.47000000000E+01 0.  1.
</event>
<event>
 5    1  0.4781763E-001  0.8000000E+02  0.7546771E-02  0.1203772E+00
         11   -1    0    0    0    0  0.00000000000E+00  0.00000000000E+00  0.40000000000E+02  0.40000000000E+02  0.00000000000E+00 0. -1.
        -11   -1    0    0    0    0 -0.00000000000E+00 -0.00000000000E+00 -0.40000000000E+02  0.40000000000E+02  0.00000000000E+00 0.  1.
         23    2    1    2    0    0  0.00000000000E+00  0.00000000000E+00  0.00000000000E+00  0.80000000000E+02  0.80000000000E+02 0.  0.
          5    1    3    3  501    0 -0.78820463310E+00 -0.75494017519E+01  0.38990963910E+02  0.40000000000E+02  0.47000000000E+01 0. -1.
         -5    1    3    3    0  501  0.78820463310E+00  0.75494017519E+01 -0.38990963910E+02  0.40000000000E+02  0.47000000000E+01 0.  1.
</event>
<event>
 5    1  0.4781763E-001  0.8000000E+02  0.7546771E-02  0.1203772E+00
         11   -1    0    0    0    0  0.00000000000E+00  0.00000000000E+00  0.40000000000E+02  0.40000000000E+02  0.00000000000E+00 0.  1.
        -11   -1    0    0    0    0 -0.00000000000E+00 -0.00000000000E+00 -0.40000000000E+02  0.40000000000E+02  0.00000000000E+00 0. -1.
         23    2    1    2    0    0  0.00000000000E+00  0.00000000000E+00  0.00000000000E+00  0.80000000000E+02  0.80000000000E+02 0.  0.
          5    1    3    3  501    0  0.31894249843E+01 -0.27621664436E+02 -0.28368666202E+02  0.40000000000E+02  0.47000000000E+01 0. -1.
         -5    1    3    3    0  501 -0.31894249843E+01  0.27621664436E+02  0.28368666202E+02  0.40000000000E+02  0.47000000000E+01 0.  1.
</event>
<event>
 5    1  0.4781763E-001  0.8000000E+02  0.7546771E-02  0.1203772E+00
         11   -1    0    0    0    0  0.00000000000E+00  0.00000000000E+00  0.40000000000E+02  0.40000000000E+02  0.00000000000E+00 0. -1.
        -11   -1    0    0    0    0 -0.00000000000E+00 -0.00000000000E+00 -0.40000000000E+02  0.40000000000E+02  0.00000000000E+00 0.  1.
         23    2    1    2    0    0  0.00000000000E+00  0.00000000000E+00  0.00000000000E+00  0.80000000000E+02  0.80000000000E+02 0.  0.
          5    1    3    3  501    0 -0.86568165830E+01 -0.37791387505E+02  0.86475752128E+01  0.40000000000E+02  0.47000000000E+01 0. -1.
         -5    1    3    3    0  501  0.86568165830E+01  0.37791387505E+02 -0.86475752128E+01  0.40000000000E+02  0.47000000000E+01 0.  1.
</event>
<event>
 5    1  0.4781763E-001  0.8000000E+02  0.7546771E-02  0.1203772E+00
         11   -1    0    0    0    0  0.00000000000E+00  0.00000000000E+00  0.40000000000E+02  0.40000000000E+02  0.00000000000E+00 0.  1.
        -11   -1    0    0    0    0 -0.00000000000E+00 -0.00000000000E+00 -0.40000000000E+02  0.40000000000E+02  0.00000000000E+00 0. -1.
         23    2    1    2    0    0  0.00000000000E+00  0.00000000000E+00  0.00000000000E+00  0.80000000000E+02  0.80000000000E+02 0.  0.
          5    1    3    3  501    0 -0.30246273858E+02  0.25746426533E+02  0.44095177156E+00  0.40000000000E+02  0.47000000000E+01 0. -1.
         -5    1    3    3    0  501  0.30246273858E+02 -0.25746426533E+02 -0.44095177156E+00  0.40000000000E+02  0.47000000000E+01 0.  1.
</event>
<event>
 5    1  0.4781763E-001  0.8000000E+02  0.7546771E-02  0.1203772E+00
         11   -1    0    0    0    0  0.00000000000E+00  0.00000000000E+00  0.40000000000E+02  0.40000000000E+02  0.00000000000E+00 0.  1.
        -11   -1    0    0    0    0 -0.00000000000E+00 -0.00000000000E+00 -0.40000000000E+02  0.40000000000E+02  0.00000000000E+00 0. -1.
         23    2    1    2    0    0  0.00000000000E+00  0.00000000000E+00  0.00000000000E+00  0.80000000000E+02  0.80000000000E+02 0.  0.
          5    1    3    3  501    0 -0.20312201968E+02 -0.23755290781E+02 -0.24515517762E+02  0.40000000000E+02  0.47000000000E+01 0. -1.
         -5    1    3    3    0  501  0.20312201968E+02  0.23755290781E+02  0.24515517762E+02  0.40000000000E+02  0.47000000000E+01 0.  1.
</event>
<event>
 5    1  0.4781763E-001  0.8000000E+02  0.7546771E-02  0.1203772E+00
         11   -1    0    0    0    0  0.00000000000E+00  0.00000000000E+00  0.40000000000E+02  0.40000000000E+02  0.00000000000E+00 0.  1.
        -11   -1    0    0    0    0 -0.00000000000E+00 -0.00000000000E+00 -0.40000000000E+02  0.40000000000E+02  0.00000000000E+00 0. -1.
         23    2    1    2    0    0  0.00000000000E+00  0.00000000000E+00  0.00000000000E+00  0.80000000000E+02  0.80000000000E+02 0.  0.
          5    1    3    3  501    0  0.15300950630E+02 -0.15026137158E+02 -0.33436598391E+02  0.40000000000E+02  0.47000000000E+01 0. -1.
         -5    1    3    3    0  501 -0.15300950630E+02  0.15026137158E+02  0.33436598391E+02  0.40000000000E+02  0.47000000000E+01 0.  1.
</event>
<event>
 5    1  0.4781763E-001  0.8000000E+02  0.7546771E-02  0.1203772E+00
         11   -1    0    0    0    0  0.00000000000E+00  0.00000000000E+00  0.40000000000E+02  0.40000000000E+02  0.00000000000E+00 0.  1.
        -11   -1    0    0    0    0 -0.00000000000E+00 -0.00000000000E+00 -0.40000000000E+02  0.40000000000E+02  0.00000000000E+00 0. -1.
         23    2    1    2    0    0  0.00000000000E+00  0.00000000000E+00  0.00000000000E+00  0.80000000000E+02  0.80000000000E+02 0.  0.
          5    1    3    3  501    0  0.13694886206E+02 -0.19063977578E+00 -0.37287045315E+02  0.40000000000E+02  0.47000000000E+01 0. -1.
         -5    1    3    3    0  501 -0.13694886206E+02  0.19063977578E+00  0.37287045315E+02  0.40000000000E+02  0.47000000000E+01 0.  1.
</event>
<event>
 5    1  0.4781763E-001  0.8000000E+02  0.7546771E-02  0.1203772E+00
         11   -1    0    0    0    0  0.00000000000E+00  0.00000000000E+00  0.40000000000E+02  0.40000000000E+02  0.00000000000E+00 0. -1.
        -11   -1    0    0    0    0 -0.00000000000E+00 -0.00000000000E+00 -0.40000000000E+02  0.40000000000E+02  0.00000000000E+00 0.  1.
         23    2    1    2    0    0  0.00000000000E+00  0.00000000000E+00  0.00000000000E+00  0.80000000000E+02  0.80000000000E+02 0.  0.
          5    1    3    3  501    0 -0.22107237390E+01 -0.67403106591E+01  0.39084407540E+02  0.40000000000E+02  0.47000000000E+01 0. -1.
         -5    1    3    3    0  501  0.22107237390E+01  0.67403106591E+01 -0.39084407540E+02  0.40000000000E+02  0.47000000000E+01 0.  1.
</event>
<event>
 5    1  0.4781763E-001  0.8000000E+02  0.7546771E-02  0.1203772E+00
         11   -1    0    0    0    0  0.00000000000E+00  0.00000000000E+00  0.40000000000E+02  0.40000000000E+02  0.00000000000E+00 0. -1.
        -11   -1    0    0    0    0 -0.00000000000E+00 -0.00000000000E+00 -0.40000000000E+02  0.40000000000E+02  0.00000000000E+00 0.  1.
         23    2    1    2    0    0  0.00000000000E+00  0.00000000000E+00  0.00000000000E+00  0.80000000000E+02  0.80000000000E+02 0.  0.
          5    1    3    3  501    0 -0.22474759769E+01 -0.15455169792E+02 -0.36523917895E+02  0.40000000000E+02  0.47000000000E+01 0.  1.
         -5    1    3    3    0  501  0.22474759769E+01  0.15455169792E+02  0.36523917895E+02  0.40000000000E+02  0.47000000000E+01 0. -1.
</event>
<event>
 5    1  0.4781763E-001  0.8000000E+02  0.7546771E-02  0.1203772E+00
         11   -1    0    0    0    0  0.00000000000E+00  0.00000000000E+00  0.40000000000E+02  0.40000000000E+02  0.00000000000E+00 0.  1.
        -11   -1    0    0    0    0 -0.00000000000E+00 -0.00000000000E+00 -0.40000000000E+02  0.40000000000E+02  0.00000000000E+00 0. -1.
         23    2    1    2    0    0  0.00000000000E+00  0.00000000000E+00  0.00000000000E+00  0.80000000000E+02  0.80000000000E+02 0.  0.
          5    1    3    3  501    0 -0.70125357851E+01  0.31254334929E+02 -0.23492570954E+02  0.40000000000E+02  0.47000000000E+01 0. -1.
         -5    1    3    3    0  501  0.70125357851E+01 -0.31254334929E+02  0.23492570954E+02  0.40000000000E+02  0.47000000000E+01 0.  1.
</event>
<event>
 5    1  0.4781763E-001  0.8000000E+02  0.7546771E-02  0.1203772E+00
         11   -1    0    0    0    0  0.00000000000E+00  0.00000000000E+00  0.40000000000E+02  0.40000000000E+02  0.00000000000E+00 0. -1.
        -11   -1    0    0    0    0 -0.00000000000E+00 -0.00000000000E+00 -0.40000000000E+02  0.40000000000E+02  0.00000000000E+00 0.  1.
         23    2    1    2    0    0  0.00000000000E+00  0.00000000000E+00  0.00000000000E+00  0.80000000000E+02  0.80000000000E+02 0.  0.
          5    1    3    3  501    0 -0.22009356845E+02  0.25159575390E+02 -0.21459123409E+02  0.40000000000E+02  0.47000000000E+01 0. -1.
         -5    1    3    3    0  501  0.22009356845E+02 -0.25159575390E+02  0.21459123409E+02  0.40000000000E+02  0.47000000000E+01 0.  1.
</event>
<event>
 5    1  0.4781763E-001  0.8000000E+02  0.7546771E-02  0.1203772E+00
         11   -1    0    0    0    0  0.00000000000E+00  0.00000000000E+00  0.40000000000E+02  0.40000000000E+02  0.00000000000E+00 0.  1.
        -11   -1    0    0    0    0 -0.00000000000E+00 -0.00000000000E+00 -0.40000000000E+02  0.40000000000E+02  0.00000000000E+00 0. -1.
         23    2    1    2    0    0  0.00000000000E+00  0.00000000000E+00  0.00000000000E+00  0.80000000000E+02  0.80000000000E+02 0.  0.
          5    1    3    3  501    0  0.29624316137E+00 -0.26530758872E+02 -0.29562494375E+02  0.40000000000E+02  0.47000000000E+01 0. -1.
         -5    1    3    3    0  501 -0.29624316137E+00  0.26530758872E+02  0.29562494375E+02  0.40000000000E+02  0.47000000000E+01 0.  1.
</event>
<event>
 5    1  0.4781763E-001  0.8000000E+02  0.7546771E-02  0.1203772E+00
         11   -1    0    0    0    0  0.00000000000E+00  0.00000000000E+00  0.40000000000E+02  0.40000000000E+02  0.00000000000E+00 0.  1.
        -11   -1    0    0    0    0 -0.00000000000E+00 -0.00000000000E+00 -0.40000000000E+02  0.40000000000E+02  0.00000000000E+00 0. -1.
         23    2    1    2    0    0  0.00000000000E+00  0.00000000000E+00  0.00000000000E+00  0.80000000000E+02  0.80000000000E+02 0.  0.
          5    1    3    3  501    0 -0.57890570096E+01 -0.22374589692E+02 -0.32307499982E+02  0.40000000000E+02  0.47000000000E+01 0. -1.
         -5    1    3    3    0  501  0.57890570096E+01  0.22374589692E+02  0.32307499982E+02  0.40000000000E+02  0.47000000000E+01 0.  1.
</event>
<event>
 5    1  0.4781763E-001  0.8000000E+02  0.7546771E-02  0.1203772E+00
         11   -1    0    0    0    0  0.00000000000E+00  0.00000000000E+00  0.40000000000E+02  0.40000000000E+02  0.00000000000E+00 0.  1.
        -11   -1    0    0    0    0 -0.00000000000E+00 -0.00000000000E+00 -0.40000000000E+02  0.40000000000E+02  0.00000000000E+00 0. -1.
         23    2    1    2    0    0  0.00000000000E+00  0.00000000000E+00  0.00000000000E+00  0.80000000000E+02  0.80000000000E+02 0.  0.
          5    1    3    3  501    0 -0.22590321178E+02  0.13135799055E+02 -0.29917188576E+02  0.40000000000E+02  0.47000000000E+01 0. -1.
         -5    1    3    3    0  501  0.22590321178E+02 -0.13135799055E+02  0.29917188576E+02  0.40000000000E+02  0.47000000000E+01 0.  1.
</event>
<event>
 5    1  0.4781763E-001  0.8000000E+02  0.7546771E-02  0.1203772E+00
         11   -1    0    0    0    0  0.00000000000E+00  0.00000000000E+00  0.40000000000E+02  0.40000000000E+02  0.00000000000E+00 0. -1.
        -11   -1    0    0    0    0 -0.00000000000E+00 -0.00000000000E+00 -0.40000000000E+02  0.40000000000E+02  0.00000000000E+00 0.  1.
         23    2    1    2    0    0  0.00000000000E+00  0.00000000000E+00  0.00000000000E+00  0.80000000000E+02  0.80000000000E+02 0.  0.
          5    1    3    3  501    0 -0.38114541295E+01  0.99339403801E+00  0.39527155042E+02  0.40000000000E+02  0.47000000000E+01 0. -1.
         -5    1    3    3    0  501  0.38114541295E+01 -0.99339403801E+00 -0.39527155042E+02  0.40000000000E+02  0.47000000000E+01 0.  1.
</event>
<event>
 5    1  0.4781763E-001  0.8000000E+02  0.7546771E-02  0.1203772E+00
         11   -1    0    0    0    0  0.00000000000E+00  0.00000000000E+00  0.40000000000E+02  0.40000000000E+02  0.00000000000E+00 0. -1.
        -11   -1    0    0    0    0 -0.00000000000E+00 -0.00000000000E+00 -0.40000000000E+02  0.40000000000E+02  0.00000000000E+00 0.  1.
         23    2    1    2    0    0  0.00000000000E+00  0.00000000000E+00  0.00000000000E+00  0.80000000000E+02  0.80000000000E+02 0.  0.
          5    1    3    3  501    0 -0.22194643299E+02 -0.27969442358E+02 -0.17407415173E+02  0.40000000000E+02  0.47000000000E+01 0.  1.
         -5    1    3    3    0  501  0.22194643299E+02  0.27969442358E+02  0.17407415173E+02  0.40000000000E+02  0.47000000000E+01 0. -1.
</event>
<event>
 5    1  0.4781763E-001  0.8000000E+02  0.7546771E-02  0.1203772E+00
         11   -1    0    0    0    0  0.00000000000E+00  0.00000000000E+00  0.40000000000E+02  0.40000000000E+02  0.00000000000E+00 0.  1.
        -11   -1    0    0    0    0 -0.00000000000E+00 -0.00000000000E+00 -0.40000000000E+02  0.40000000000E+02  0.00000000000E+00 0. -1.
         23    2    1    2    0    0  0.00000000000E+00  0.00000000000E+00  0.00000000000E+00  0.80000000000E+02  0.80000000000E+02 0.  0.
          5    1    3    3  501    0  0.23014188003E+00 -0.36182418226E+02 -0.16391755428E+02  0.40000000000E+02  0.47000000000E+01 0. -1.
         -5    1    3    3    0  501 -0.23014188003E+00  0.36182418226E+02  0.16391755428E+02  0.40000000000E+02  0.47000000000E+01 0.  1.
</event>
<event>
 5    1  0.4781763E-001  0.8000000E+02  0.7546771E-02  0.1203772E+00
         11   -1    0    0    0    0  0.00000000000E+00  0.00000000000E+00  0.40000000000E+02  0.40000000000E+02  0.00000000000E+00 0.  1.
        -11   -1    0    0    0    0 -0.00000000000E+00 -0.00000000000E+00 -0.40000000000E+02  0.40000000000E+02  0.00000000000E+00 0. -1.
         23    2    1    2    0    0  0.00000000000E+00  0.00000000000E+00  0.00000000000E+00  0.80000000000E+02  0.80000000000E+02 0.  0.
          5    1    3    3  501    0  0.17242512266E+02 -0.74773745475E+01 -0.34995637451E+02  0.40000000000E+02  0.47000000000E+01 0. -1.
         -5    1    3    3    0  501 -0.17242512266E+02  0.74773745475E+01  0.34995637451E+02  0.40000000000E+02  0.47000000000E+01 0.  1.
</event>
<event>
 5    1  0.4781763E-001  0.8000000E+02  0.7546771E-02  0.1203772E+00
         11   -1    0    0    0    0  0.00000000000E+00  0.00000000000E+00  0.40000000000E+02  0.40000000000E+02  0.00000000000E+00 0. -1.
        -11   -1    0    0    0    0 -0.00000000000E+00 -0.00000000000E+00 -0.40000000000E+02  0.40000000000E+02  0.00000000000E+00 0.  1.
         23    2    1    2    0    0  0.00000000000E+00  0.00000000000E+00  0.00000000000E+00  0.80000000000E+02  0.80000000000E+02 0.  0.
          5    1    3    3  501    0  0.27291821051E+02  0.12214869895E+02  0.26150783108E+02  0.40000000000E+02  0.47000000000E+01 0. -1.
         -5    1    3    3    0  501 -0.27291821051E+02 -0.12214869895E+02 -0.26150783108E+02  0.40000000000E+02  0.47000000000E+01 0.  1.
</event>
<event>
 5    1  0.4781763E-001  0.8000000E+02  0.7546771E-02  0.1203772E+00
         11   -1    0    0    0    0  0.00000000000E+00  0.00000000000E+00  0.40000000000E+02  0.40000000000E+02  0.00000000000E+00 0. -1.
        -11   -1    0    0    0    0 -0.00000000000E+00 -0.00000000000E+00 -0.40000000000E+02  0.40000000000E+02  0.00000000000E+00 0.  1.
         23    2    1    2    0    0  0.00000000000E+00  0.00000000000E+00  0.00000000000E+00  0.80000000000E+02  0.80000000000E+02 0.  0.
          5    1    3    3  501    0  0.38042194226E+02  0.82706849738E+01  0.78928593404E+01  0.40000000000E+02  0.47000000000E+01 0.  1.
         -5    1    3    3    0  501 -0.38042194226E+02 -0.82706849738E+01 -0.78928593404E+01  0.40000000000E+02  0.47000000000E+01 0. -1.
</event>
<event>
 5    1  0.4781763E-001  0.8000000E+02  0.7546771E-02  0.1203772E+00
         11   -1    0    0    0    0  0.00000000000E+00  0.00000000000E+00  0.40000000000E+02  0.40000000000E+02  0.00000000000E+00 0. -1.
        -11   -1    0    0    0    0 -0.00000000000E+00 -0.00000000000E+00 -0.40000000000E+02  0.40000000000E+02  0.00000000000E+00 0.  1.
         23    2    1    2    0    0  0.00000000000E+00  0.00000000000E+00  0.00000000000E+00  0.80000000000E+02  0.80000000000E+02 0.  0.
          5    1    3    3  501    0  0.35996824573E+02 -0.23795835279E+01  0.16627573572E+02  0.40000000000E+02  0.47000000000E+01 0. -1.
         -5    1    3    3    0  501 -0.35996824573E+02  0.23795835279E+01 -0.16627573572E+02  0.40000000000E+02  0.47000000000E+01 0.  1.
</event>
<event>
 5    1  0.4781763E-001  0.8000000E+02  0.7546771E-02  0.1203772E+00
         11   -1    0    0    0    0  0.00000000000E+00  0.00000000000E+00  0.40000000000E+02  0.40000000000E+02  0.00000000000E+00 0.  1.
        -11   -1    0    0    0    0 -0.00000000000E+00 -0.00000000000E+00 -0.40000000000E+02  0.40000000000E+02  0.00000000000E+00 0. -1.
         23    2    1    2    0    0  0.00000000000E+00  0.00000000000E+00  0.00000000000E+00  0.80000000000E+02  0.80000000000E+02 0.  0.
          5    1    3    3  501    0 -0.13019512307E+02  0.23416530545E+02 -0.29326922725E+02  0.40000000000E+02  0.47000000000E+01 0. -1.
         -5    1    3    3    0  501  0.13019512307E+02 -0.23416530545E+02  0.29326922725E+02  0.40000000000E+02  0.47000000000E+01 0.  1.
</event>
<event>
 5    1  0.4781763E-001  0.8000000E+02  0.7546771E-02  0.1203772E+00
         11   -1    0    0    0    0  0.00000000000E+00  0.00000000000E+00  0.40000000000E+02  0.40000000000E+02  0.00000000000E+00 0.  1.
        -11   -1    0    0    0    0 -0.00000000000E+00 -0.00000000000E+00 -0.40000000000E+02  0.40000000000E+02  0.00000000000E+00 0. -1.
         23    2    1    2    0    0  0.00000000000E+00  0.00000000000E+00  0.00000000000E+00  0.80000000000E+02  0.80000000000E+02 0.  0.
          5    1    3    3  501    0  0.14852057332E+02  0.25519733221E+01 -0.36753419231E+02  0.40000000000E+02  0.47000000000E+01 0. -1.
         -5    1    3    3    0  501 -0.14852057332E+02 -0.25519733221E+01  0.36753419231E+02  0.40000000000E+02  0.47000000000E+01 0.  1.
</event>
<event>
 5    1  0.4781763E-001  0.8000000E+02  0.7546771E-02  0.1203772E+00
         11   -1    0    0    0    0  0.00000000000E+00  0.00000000000E+00  0.40000000000E+02  0.40000000000E+02  0.00000000000E+00 0.  1.
        -11   -1    0    0    0    0 -0.00000000000E+00 -0.00000000000E+00 -0.40000000000E+02  0.40000000000E+02  0.00000000000E+00 0. -1.
         23    2    1    2    0    0  0.00000000000E+00  0.00000000000E+00  0.00000000000E+00  0.80000000000E+02  0.80000000000E+02 0.  0.
          5    1    3    3  501    0 -0.23729047143E+02  0.29554329577E+02 -0.11890497254E+02  0.40000000000E+02  0.47000000000E+01 0. -1.
         -5    1    3    3    0  501  0.23729047143E+02 -0.29554329577E+02  0.11890497254E+02  0.40000000000E+02  0.47000000000E+01 0.  1.
</event>
<event>
 5    1  0.4781763E-001  0.8000000E+02  0.7546771E-02  0.1203772E+00
         11   -1    0    0    0    0  0.00000000000E+00  0.00000000000E+00  0.40000000000E+02  0.40000000000E+02  0.00000000000E+00 0. -1.
        -11   -1    0    0    0    0 -0.00000000000E+00 -0.00000000000E+00 -0.40000000000E+02  0.40000000000E+02  0.00000000000E+00 0.  1.
         23    2    1    2    0    0  0.00000000000E+00  0.00000000000E+00  0.00000000000E+00  0.80000000000E+02  0.80000000000E+02 0.  0.
          5    1    3    3  501    0 -0.23942334287E+02 -0.87609956839E+01  0.30461772495E+02  0.40000000000E+02  0.47000000000E+01 0. -1.
         -5    1    3    3    0  501  0.23942334287E+02  0.87609956839E+01 -0.30461772495E+02  0.40000000000E+02  0.47000000000E+01 0.  1.
</event>
<event>
 5    1  0.4781763E-001  0.8000000E+02  0.7546771E-02  0.1203772E+00
         11   -1    0    0    0    0  0.00000000000E+00  0.00000000000E+00  0.40000000000E+02  0.40000000000E+02  0.00000000000E+00 0.  1.
        -11   -1    0    0    0    0 -0.00000000000E+00 -0.00000000000E+00 -0.40000000000E+02  0.40000000000E+02  0.00000000000E+00 0. -1.
         23    2    1    2    0    0  0.00000000000E+00  0.00000000000E+00  0.00000000000E+00  0.80000000000E+02  0.80000000000E+02 0.  0.
          5    1    3    3  501    0  0.57791955462E+01  0.29385953814E+02 -0.26095528684E+02  0.40000000000E+02  0.47000000000E+01 0. -1.
         -5    1    3    3    0  501 -0.57791955462E+01 -0.29385953814E+02  0.26095528684E+02  0.40000000000E+02  0.47000000000E+01 0.  1.
</event>
<event>
 5    1  0.4781763E-001  0.8000000E+02  0.7546771E-02  0.1203772E+00
         11   -1    0    0    0    0  0.00000000000E+00  0.00000000000E+00  0.40000000000E+02  0.40000000000E+02  0.00000000000E+00 0. -1.
        -11   -1    0    0    0    0 -0.00000000000E+00 -0.00000000000E+00 -0.40000000000E+02  0.40000000000E+02  0.00000000000E+00 0.  1.
         23    2    1    2    0    0  0.00000000000E+00  0.00000000000E+00  0.00000000000E+00  0.80000000000E+02  0.80000000000E+02 0.  0.
          5    1    3    3  501    0 -0.25339795763E+02  0.29853973863E+02  0.66742037189E+01  0.40000000000E+02  0.47000000000E+01 0. -1.
         -5    1    3    3    0  501  0.25339795763E+02 -0.29853973863E+02 -0.66742037189E+01  0.40000000000E+02  0.47000000000E+01 0.  1.
</event>
<event>
 5    1  0.4781763E-001  0.8000000E+02  0.7546771E-02  0.1203772E+00
         11   -1    0    0    0    0  0.00000000000E+00  0.00000000000E+00  0.40000000000E+02  0.40000000000E+02  0.00000000000E+00 0.  1.
        -11   -1    0    0    0    0 -0.00000000000E+00 -0.00000000000E+00 -0.40000000000E+02  0.40000000000E+02  0.00000000000E+00 0. -1.
         23    2    1    2    0    0  0.00000000000E+00  0.00000000000E+00  0.00000000000E+00  0.80000000000E+02  0.80000000000E+02 0.  0.
          5    1    3    3  501    0  0.98688525453E+01  0.10228515141E+02 -0.37093034757E+02  0.40000000000E+02  0.47000000000E+01 0. -1.
         -5    1    3    3    0  501 -0.98688525453E+01 -0.10228515141E+02  0.37093034757E+02  0.40000000000E+02  0.47000000000E+01 0.  1.
</event>
<event>
 5    1  0.4781763E-001  0.8000000E+02  0.7546771E-02  0.1203772E+00
         11   -1    0    0    0    0  0.00000000000E+00  0.00000000000E+00  0.40000000000E+02  0.40000000000E+02  0.00000000000E+00 0.  1.
        -11   -1    0    0    0    0 -0.00000000000E+00 -0.00000000000E+00 -0.40000000000E+02  0.40000000000E+02  0.00000000000E+00 0. -1.
         23    2    1    2    0    0  0.00000000000E+00  0.00000000000E+00  0.00000000000E+00  0.80000000000E+02  0.80000000000E+02 0.  0.
          5    1    3    3  501    0  0.27348283078E+02 -0.30625337009E+01 -0.28646156810E+02  0.40000000000E+02  0.47000000000E+01 0. -1.
         -5    1    3    3    0  501 -0.27348283078E+02  0.30625337009E+01  0.28646156810E+02  0.40000000000E+02  0.47000000000E+01 0.  1.
</event>
<event>
 5    1  0.4781763E-001  0.8000000E+02  0.7546771E-02  0.1203772E+00
         11   -1    0    0    0    0  0.00000000000E+00  0.00000000000E+00  0.40000000000E+02  0.40000000000E+02  0.00000000000E+00 0.  1.
        -11   -1    0    0    0    0 -0.00000000000E+00 -0.00000000000E+00 -0.40000000000E+02  0.40000000000E+02  0.00000000000E+00 0. -1.
         23    2    1    2    0    0  0.00000000000E+00  0.00000000000E+00  0.00000000000E+00  0.80000000000E+02  0.80000000000E+02 0.  0.
          5    1    3    3  501    0  0.38146999088E+02  0.53901998088E+01  0.96779236705E+01  0.40000000000E+02  0.47000000000E+01 0. -1.
         -5    1    3    3    0  501 -0.38146999088E+02 -0.53901998088E+01 -0.96779236705E+01  0.40000000000E+02  0.47000000000E+01 0.  1.
</event>
<event>
 5    1  0.4781763E-001  0.8000000E+02  0.7546771E-02  0.1203772E+00
         11   -1    0    0    0    0  0.00000000000E+00  0.00000000000E+00  0.40000000000E+02  0.40000000000E+02  0.00000000000E+00 0.  1.
        -11   -1    0    0    0    0 -0.00000000000E+00 -0.00000000000E+00 -0.40000000000E+02  0.40000000000E+02  0.00000000000E+00 0. -1.
         23    2    1    2    0    0  0.00000000000E+00  0.00000000000E+00  0.00000000000E+00  0.80000000000E+02  0.80000000000E+02 0.  0.
          5    1    3    3  501    0  0.70641487081E+01 -0.38709937900E+02 -0.54358541914E+01  0.40000000000E+02  0.47000000000E+01 0. -1.
         -5    1    3    3    0  501 -0.70641487081E+01  0.38709937900E+02  0.54358541914E+01  0.40000000000E+02  0.47000000000E+01 0.  1.
</event>
<event>
 5    1  0.4781763E-001  0.8000000E+02  0.7546771E-02  0.1203772E+00
         11   -1    0    0    0    0  0.00000000000E+00  0.00000000000E+00  0.40000000000E+02  0.40000000000E+02  0.00000000000E+00 0. -1.
        -11   -1    0    0    0    0 -0.00000000000E+00 -0.00000000000E+00 -0.40000000000E+02  0.40000000000E+02  0.00000000000E+00 0.  1.
         23    2    1    2    0    0  0.00000000000E+00  0.00000000000E+00  0.00000000000E+00  0.80000000000E+02  0.80000000000E+02 0.  0.
          5    1    3    3  501    0  0.19803677649E+02  0.64528650186E+01  0.33824323861E+02  0.40000000000E+02  0.47000000000E+01 0. -1.
         -5    1    3    3    0  501 -0.19803677649E+02 -0.64528650186E+01 -0.33824323861E+02  0.40000000000E+02  0.47000000000E+01 0.  1.
</event>
<event>
 5    1  0.4781763E-001  0.8000000E+02  0.7546771E-02  0.1203772E+00
         11   -1    0    0    0    0  0.00000000000E+00  0.00000000000E+00  0.40000000000E+02  0.40000000000E+02  0.00000000000E+00 0. -1.
        -11   -1    0    0    0    0 -0.00000000000E+00 -0.00000000000E+00 -0.40000000000E+02  0.40000000000E+02  0.00000000000E+00 0.  1.
         23    2    1    2    0    0  0.00000000000E+00  0.00000000000E+00  0.00000000000E+00  0.80000000000E+02  0.80000000000E+02 0.  0.
          5    1    3    3  501    0 -0.21751054890E+02  0.15308191637E+02  0.29503574021E+02  0.40000000000E+02  0.47000000000E+01 0. -1.
         -5    1    3    3    0  501  0.21751054890E+02 -0.15308191637E+02 -0.29503574021E+02  0.40000000000E+02  0.47000000000E+01 0.  1.
</event>
<event>
 5    1  0.4781763E-001  0.8000000E+02  0.7546771E-02  0.1203772E+00
         11   -1    0    0    0    0  0.00000000000E+00  0.00000000000E+00  0.40000000000E+02  0.40000000000E+02  0.00000000000E+00 0.  1.
        -11   -1    0    0    0    0 -0.00000000000E+00 -0.00000000000E+00 -0.40000000000E+02  0.40000000000E+02  0.00000000000E+00 0. -1.
         23    2    1    2    0    0  0.00000000000E+00  0.00000000000E+00  0.00000000000E+00  0.80000000000E+02  0.80000000000E+02 0.  0.
          5    1    3    3  501    0 -0.11034697016E+02  0.13586186650E+02 -0.35658953911E+02  0.40000000000E+02  0.47000000000E+01 0. -1.
         -5    1    3    3    0  501  0.11034697016E+02 -0.13586186650E+02  0.35658953911E+02  0.40000000000E+02  0.47000000000E+01 0.  1.
</event>
<event>
 5    1  0.4781763E-001  0.8000000E+02  0.7546771E-02  0.1203772E+00
         11   -1    0    0    0    0  0.00000000000E+00  0.00000000000E+00  0.40000000000E+02  0.40000000000E+02  0.00000000000E+00 0. -1.
        -11   -1    0    0    0    0 -0.00000000000E+00 -0.00000000000E+00 -0.40000000000E+02  0.40000000000E+02  0.00000000000E+00 0.  1.
         23    2    1    2    0    0  0.00000000000E+00  0.00000000000E+00  0.00000000000E+00  0.80000000000E+02  0.80000000000E+02 0.  0.
          5    1    3    3  501    0  0.67853187665E+01 -0.30578448803E+02  0.24430061770E+02  0.40000000000E+02  0.47000000000E+01 0. -1.
         -5    1    3    3    0  501 -0.67853187665E+01  0.30578448803E+02 -0.24430061770E+02  0.40000000000E+02  0.47000000000E+01 0.  1.
</event>
<event>
 5    1  0.4781763E-001  0.8000000E+02  0.7546771E-02  0.1203772E+00
         11   -1    0    0    0    0  0.00000000000E+00  0.00000000000E+00  0.40000000000E+02  0.40000000000E+02  0.00000000000E+00 0. -1.
        -11   -1    0    0    0    0 -0.00000000000E+00 -0.00000000000E+00 -0.40000000000E+02  0.40000000000E+02  0.00000000000E+00 0.  1.
         23    2    1    2    0    0  0.00000000000E+00  0.00000000000E+00  0.00000000000E+00  0.80000000000E+02  0.80000000000E+02 0.  0.
          5    1    3    3  501    0 -0.13551524512E+02  0.74630818370E+01 -0.36586453680E+02  0.40000000000E+02  0.47000000000E+01 0. -1.
         -5    1    3    3    0  501  0.13551524512E+02 -0.74630818370E+01  0.36586453680E+02  0.40000000000E+02  0.47000000000E+01 0.  1.
</event>
<event>
 5    1  0.4781763E-001  0.8000000E+02  0.7546771E-02  0.1203772E+00
         11   -1    0    0    0    0  0.00000000000E+00  0.00000000000E+00  0.40000000000E+02  0.40000000000E+02  0.00000000000E+00 0. -1.
        -11   -1    0    0    0    0 -0.00000000000E+00 -0.00000000000E+00 -0.40000000000E+02  0.40000000000E+02  0.00000000000E+00 0.  1.
         23    2    1    2    0    0  0.00000000000E+00  0.00000000000E+00  0.00000000000E+00  0.80000000000E+02  0.80000000000E+02 0.  0.
          5    1    3    3  501    0 -0.24117016215E+02 -0.19349841087E+02  0.24937184661E+02  0.40000000000E+02  0.47000000000E+01 0. -1.
         -5    1    3    3    0  501  0.24117016215E+02  0.19349841087E+02 -0.24937184661E+02  0.40000000000E+02  0.47000000000E+01 0.  1.
</event>
<event>
 5    1  0.4781763E-001  0.8000000E+02  0.7546771E-02  0.1203772E+00
         11   -1    0    0    0    0  0.00000000000E+00  0.00000000000E+00  0.40000000000E+02  0.40000000000E+02  0.00000000000E+00 0.  1.
        -11   -1    0    0    0    0 -0.00000000000E+00 -0.00000000000E+00 -0.40000000000E+02  0.40000000000E+02  0.00000000000E+00 0. -1.
         23    2    1    2    0    0  0.00000000000E+00  0.00000000000E+00  0.00000000000E+00  0.80000000000E+02  0.80000000000E+02 0.  0.
          5    1    3    3  501    0  0.13537448582E+02 -0.35135621850E+02 -0.12654468109E+02  0.40000000000E+02  0.47000000000E+01 0. -1.
         -5    1    3    3    0  501 -0.13537448582E+02  0.35135621850E+02  0.12654468109E+02  0.40000000000E+02  0.47000000000E+01 0.  1.
</event>
<event>
 5    1  0.4781763E-001  0.8000000E+02  0.7546771E-02  0.1203772E+00
         11   -1    0    0    0    0  0.00000000000E+00  0.00000000000E+00  0.40000000000E+02  0.40000000000E+02  0.00000000000E+00 0. -1.
        -11   -1    0    0    0    0 -0.00000000000E+00 -0.00000000000E+00 -0.40000000000E+02  0.40000000000E+02  0.00000000000E+00 0.  1.
         23    2    1    2    0    0  0.00000000000E+00  0.00000000000E+00  0.00000000000E+00  0.80000000000E+02  0.80000000000E+02 0.  0.
          5    1    3    3  501    0 -0.32902608549E+02  0.20407950465E+02  0.88794092399E+01  0.40000000000E+02  0.47000000000E+01 0. -1.
         -5    1    3    3    0  501  0.32902608549E+02 -0.20407950465E+02 -0.88794092399E+01  0.40000000000E+02  0.47000000000E+01 0.  1.
</event>
<event>
 5    1  0.4781763E-001  0.8000000E+02  0.7546771E-02  0.1203772E+00
         11   -1    0    0    0    0  0.00000000000E+00  0.00000000000E+00  0.40000000000E+02  0.40000000000E+02  0.00000000000E+00 0.  1.
        -11   -1    0    0    0    0 -0.00000000000E+00 -0.00000000000E+00 -0.40000000000E+02  0.40000000000E+02  0.00000000000E+00 0. -1.
         23    2    1    2    0    0  0.00000000000E+00  0.00000000000E+00  0.00000000000E+00  0.80000000000E+02  0.80000000000E+02 0.  0.
          5    1    3    3  501    0  0.38776886575E+01 -0.20085917498E+02 -0.34050395724E+02  0.40000000000E+02  0.47000000000E+01 0. -1.
         -5    1    3    3    0  501 -0.38776886575E+01  0.20085917498E+02  0.34050395724E+02  0.40000000000E+02  0.47000000000E+01 0.  1.
</event>
<event>
 5    1  0.4781763E-001  0.8000000E+02  0.7546771E-02  0.1203772E+00
         11   -1    0    0    0    0  0.00000000000E+00  0.00000000000E+00  0.40000000000E+02  0.40000000000E+02  0.00000000000E+00 0. -1.
        -11   -1    0    0    0    0 -0.00000000000E+00 -0.00000000000E+00 -0.40000000000E+02  0.40000000000E+02  0.00000000000E+00 0.  1.
         23    2    1    2    0    0  0.00000000000E+00  0.00000000000E+00  0.00000000000E+00  0.80000000000E+02  0.80000000000E+02 0.  0.
          5    1    3    3  501    0 -0.23991724332E+02 -0.18246658510E+02 -0.25872120454E+02  0.40000000000E+02  0.47000000000E+01 0.  1.
         -5    1    3    3    0  501  0.23991724332E+02  0.18246658510E+02  0.25872120454E+02  0.40000000000E+02  0.47000000000E+01 0. -1.
</event>
<event>
 5    1  0.4781763E-001  0.8000000E+02  0.7546771E-02  0.1203772E+00
         11   -1    0    0    0    0  0.00000000000E+00  0.00000000000E+00  0.40000000000E+02  0.40000000000E+02  0.00000000000E+00 0.  1.
        -11   -1    0    0    0    0 -0.00000000000E+00 -0.00000000000E+00 -0.40000000000E+02  0.40000000000E+02  0.00000000000E+00 0. -1.
         23    2    1    2    0    0  0.00000000000E+00  0.00000000000E+00  0.00000000000E+00  0.80000000000E+02  0.80000000000E+02 0.  0.
          5    1    3    3  501    0 -0.24908766631E+02 -0.21842731678E+02 -0.21917080503E+02  0.40000000000E+02  0.47000000000E+01 0. -1.
         -5    1    3    3    0  501  0.24908766631E+02  0.21842731678E+02  0.21917080503E+02  0.40000000000E+02  0.47000000000E+01 0.  1.
</event>
<event>
 5    1  0.4781763E-001  0.8000000E+02  0.7546771E-02  0.1203772E+00
         11   -1    0    0    0    0  0.00000000000E+00  0.00000000000E+00  0.40000000000E+02  0.40000000000E+02  0.00000000000E+00 0.  1.
        -11   -1    0    0    0    0 -0.00000000000E+00 -0.00000000000E+00 -0.40000000000E+02  0.40000000000E+02  0.00000000000E+00 0. -1.
         23    2    1    2    0    0  0.00000000000E+00  0.00000000000E+00  0.00000000000E+00  0.80000000000E+02  0.80000000000E+02 0.  0.
          5    1    3    3  501    0 -0.90875509177E+01  0.24440886875E+02  0.29966138675E+02  0.40000000000E+02  0.47000000000E+01 0. -1.
         -5    1    3    3    0  501  0.90875509177E+01 -0.24440886875E+02 -0.29966138675E+02  0.40000000000E+02  0.47000000000E+01 0.  1.
</event>
<event>
 5    1  0.4781763E-001  0.8000000E+02  0.7546771E-02  0.1203772E+00
         11   -1    0    0    0    0  0.00000000000E+00  0.00000000000E+00  0.40000000000E+02  0.40000000000E+02  0.00000000000E+00 0.  1.
        -11   -1    0    0    0    0 -0.00000000000E+00 -0.00000000000E+00 -0.40000000000E+02  0.40000000000E+02  0.00000000000E+00 0. -1.
         23    2    1    2    0    0  0.00000000000E+00  0.00000000000E+00  0.00000000000E+00  0.80000000000E+02  0.80000000000E+02 0.  0.
          5    1    3    3  501    0  0.38984034591E+02 -0.63578423665E+01  0.42110435106E+01  0.40000000000E+02  0.47000000000E+01 0. -1.
         -5    1    3    3    0  501 -0.38984034591E+02  0.63578423665E+01 -0.42110435106E+01  0.40000000000E+02  0.47000000000E+01 0.  1.
</event>
<event>
 5    1  0.4781763E-001  0.8000000E+02  0.7546771E-02  0.1203772E+00
         11   -1    0    0    0    0  0.00000000000E+00  0.00000000000E+00  0.40000000000E+02  0.40000000000E+02  0.00000000000E+00 0.  1.
        -11   -1    0    0    0    0 -0.00000000000E+00 -0.00000000000E+00 -0.40000000000E+02  0.40000000000E+02  0.00000000000E+00 0. -1.
         23    2    1    2    0    0  0.00000000000E+00  0.00000000000E+00  0.00000000000E+00  0.80000000000E+02  0.80000000000E+02 0.  0.
          5    1    3    3  501    0  0.20561638528E+02 -0.33129897202E+02 -0.75854421359E+01  0.40000000000E+02  0.47000000000E+01 0. -1.
         -5    1    3    3    0  501 -0.20561638528E+02  0.33129897202E+02  0.75854421359E+01  0.40000000000E+02  0.47000000000E+01 0.  1.
</event>
<event>
 5    1  0.4781763E-001  0.8000000E+02  0.7546771E-02  0.1203772E+00
         11   -1    0    0    0    0  0.00000000000E+00  0.00000000000E+00  0.40000000000E+02  0.40000000000E+02  0.00000000000E+00 0. -1.
        -11   -1    0    0    0    0 -0.00000000000E+00 -0.00000000000E+00 -0.40000000000E+02  0.40000000000E+02  0.00000000000E+00 0.  1.
         23    2    1    2    0    0  0.00000000000E+00  0.00000000000E+00  0.00000000000E+00  0.80000000000E+02  0.80000000000E+02 0.  0.
          5    1    3    3  501    0 -0.34192306757E+01  0.21215753340E+02 -0.33408242573E+02  0.40000000000E+02  0.47000000000E+01 0.  1.
         -5    1    3    3    0  501  0.34192306757E+01 -0.21215753340E+02  0.33408242573E+02  0.40000000000E+02  0.47000000000E+01 0. -1.
</event>
<event>
 5    1  0.4781763E-001  0.8000000E+02  0.7546771E-02  0.1203772E+00
         11   -1    0    0    0    0  0.00000000000E+00  0.00000000000E+00  0.40000000000E+02  0.40000000000E+02  0.00000000000E+00 0. -1.
        -11   -1    0    0    0    0 -0.00000000000E+00 -0.00000000000E+00 -0.40000000000E+02  0.40000000000E+02  0.00000000000E+00 0.  1.
         23    2    1    2    0    0  0.00000000000E+00  0.00000000000E+00  0.00000000000E+00  0.80000000000E+02  0.80000000000E+02 0.  0.
          5    1    3    3  501    0 -0.14792303611E+01 -0.37104163659E+02  0.14106839358E+02  0.40000000000E+02  0.47000000000E+01 0. -1.
         -5    1    3    3    0  501  0.14792303611E+01  0.37104163659E+02 -0.14106839358E+02  0.40000000000E+02  0.47000000000E+01 0.  1.
</event>
<event>
 5    1  0.4781763E-001  0.8000000E+02  0.7546771E-02  0.1203772E+00
         11   -1    0    0    0    0  0.00000000000E+00  0.00000000000E+00  0.40000000000E+02  0.40000000000E+02  0.00000000000E+00 0. -1.
        -11   -1    0    0    0    0 -0.00000000000E+00 -0.00000000000E+00 -0.40000000000E+02  0.40000000000E+02  0.00000000000E+00 0.  1.
         23    2    1    2    0    0  0.00000000000E+00  0.00000000000E+00  0.00000000000E+00  0.80000000000E+02  0.80000000000E+02 0.  0.
          5    1    3    3  501    0  0.67560639847E+01  0.39089700347E+02  0.20642011066E+01  0.40000000000E+02  0.47000000000E+01 0. -1.
         -5    1    3    3    0  501 -0.67560639847E+01 -0.39089700347E+02 -0.20642011066E+01  0.40000000000E+02  0.47000000000E+01 0.  1.
</event>
<event>
 5    1  0.4781763E-001  0.8000000E+02  0.7546771E-02  0.1203772E+00
         11   -1    0    0    0    0  0.00000000000E+00  0.00000000000E+00  0.40000000000E+02  0.40000000000E+02  0.00000000000E+00 0.  1.
        -11   -1    0    0    0    0 -0.00000000000E+00 -0.00000000000E+00 -0.40000000000E+02  0.40000000000E+02  0.00000000000E+00 0. -1.
         23    2    1    2    0    0  0.00000000000E+00  0.00000000000E+00  0.00000000000E+00  0.80000000000E+02  0.80000000000E+02 0.  0.
          5    1    3    3  501    0 -0.15109763581E+02 -0.36606385276E+02 -0.30947700270E+01  0.40000000000E+02  0.47000000000E+01 0. -1.
         -5    1    3    3    0  501  0.15109763581E+02  0.36606385276E+02  0.30947700270E+01  0.40000000000E+02  0.47000000000E+01 0.  1.
</event>
<event>
 5    1  0.4781763E-001  0.8000000E+02  0.7546771E-02  0.1203772E+00
         11   -1    0    0    0    0  0.00000000000E+00  0.00000000000E+00  0.40000000000E+02  0.40000000000E+02  0.00000000000E+00 0. -1.
        -11   -1    0    0    0    0 -0.00000000000E+00 -0.00000000000E+00 -0.40000000000E+02  0.40000000000E+02  0.00000000000E+00 0.  1.
         23    2    1    2    0    0  0.00000000000E+00  0.00000000000E+00  0.00000000000E+00  0.80000000000E+02  0.80000000000E+02 0.  0.
          5    1    3    3  501    0  0.82110365399E+01 -0.30868422307E+02  0.23614177589E+02  0.40000000000E+02  0.47000000000E+01 0. -1.
         -5    1    3    3    0  501 -0.82110365399E+01  0.30868422307E+02 -0.23614177589E+02  0.40000000000E+02  0.47000000000E+01 0.  1.
</event>
<event>
 5    1  0.4781763E-001  0.8000000E+02  0.7546771E-02  0.1203772E+00
         11   -1    0    0    0    0  0.00000000000E+00  0.00000000000E+00  0.40000000000E+02  0.40000000000E+02  0.00000000000E+00 0.  1.
        -11   -1    0    0    0    0 -0.00000000000E+00 -0.00000000000E+00 -0.40000000000E+02  0.40000000000E+02  0.00000000000E+00 0. -1.
         23    2    1    2    0    0  0.00000000000E+00  0.00000000000E+00  0.00000000000E+00  0.80000000000E+02  0.80000000000E+02 0.  0.
          5    1    3    3  501    0 -0.12108956490E+02  0.19017344637E+02 -0.32705103205E+02  0.40000000000E+02  0.47000000000E+01 0. -1.
         -5    1    3    3    0  501  0.12108956490E+02 -0.19017344637E+02  0.32705103205E+02  0.40000000000E+02  0.47000000000E+01 0.  1.
</event>
<event>
 5    1  0.4781763E-001  0.8000000E+02  0.7546771E-02  0.1203772E+00
         11   -1    0    0    0    0  0.00000000000E+00  0.00000000000E+00  0.40000000000E+02  0.40000000000E+02  0.00000000000E+00 0.  1.
        -11   -1    0    0    0    0 -0.00000000000E+00 -0.00000000000E+00 -0.40000000000E+02  0.40000000000E+02  0.00000000000E+00 0. -1.
         23    2    1    2    0    0  0.00000000000E+00  0.00000000000E+00  0.00000000000E+00  0.80000000000E+02  0.80000000000E+02 0.  0.
          5    1    3    3  501    0  0.15954495982E+02 -0.30966437034E+02 -0.19090412133E+02  0.40000000000E+02  0.47000000000E+01 0. -1.
         -5    1    3    3    0  501 -0.15954495982E+02  0.30966437034E+02  0.19090412133E+02  0.40000000000E+02  0.47000000000E+01 0.  1.
</event>
<event>
 5    1  0.4781763E-001  0.8000000E+02  0.7546771E-02  0.1203772E+00
         11   -1    0    0    0    0  0.00000000000E+00  0.00000000000E+00  0.40000000000E+02  0.40000000000E+02  0.00000000000E+00 0. -1.
        -11   -1    0    0    0    0 -0.00000000000E+00 -0.00000000000E+00 -0.40000000000E+02  0.40000000000E+02  0.00000000000E+00 0.  1.
         23    2    1    2    0    0  0.00000000000E+00  0.00000000000E+00  0.00000000000E+00  0.80000000000E+02  0.80000000000E+02 0.  0.
          5    1    3    3  501    0  0.97093679728E+01 -0.24944635995E+02 -0.29349673059E+02  0.40000000000E+02  0.47000000000E+01 0.  1.
         -5    1    3    3    0  501 -0.97093679728E+01  0.24944635995E+02  0.29349673059E+02  0.40000000000E+02  0.47000000000E+01 0. -1.
</event>
<event>
 5    1  0.4781763E-001  0.8000000E+02  0.7546771E-02  0.1203772E+00
         11   -1    0    0    0    0  0.00000000000E+00  0.00000000000E+00  0.40000000000E+02  0.40000000000E+02  0.00000000000E+00 0.  1.
        -11   -1    0    0    0    0 -0.00000000000E+00 -0.00000000000E+00 -0.40000000000E+02  0.40000000000E+02  0.00000000000E+00 0. -1.
         23    2    1    2    0    0  0.00000000000E+00  0.00000000000E+00  0.00000000000E+00  0.80000000000E+02  0.80000000000E+02 0.  0.
          5    1    3    3  501    0 -0.10674379885E+02  0.36570799883E+02 -0.11249187081E+02  0.40000000000E+02  0.47000000000E+01 0. -1.
         -5    1    3    3    0  501  0.10674379885E+02 -0.36570799883E+02  0.11249187081E+02  0.40000000000E+02  0.47000000000E+01 0.  1.
</event>
<event>
 5    1  0.4781763E-001  0.8000000E+02  0.7546771E-02  0.1203772E+00
         11   -1    0    0    0    0  0.00000000000E+00  0.00000000000E+00  0.40000000000E+02  0.40000000000E+02  0.00000000000E+00 0.  1.
        -11   -1    0    0    0    0 -0.00000000000E+00 -0.00000000000E+00 -0.40000000000E+02  0.40000000000E+02  0.00000000000E+00 0. -1.
         23    2    1    2    0    0  0.00000000000E+00  0.00000000000E+00  0.00000000000E+00  0.80000000000E+02  0.80000000000E+02 0.  0.
          5    1    3    3  501    0  0.33072527319E+02  0.14108277377E+02 -0.16884147779E+02  0.40000000000E+02  0.47000000000E+01 0. -1.
         -5    1    3    3    0  501 -0.33072527319E+02 -0.14108277377E+02  0.16884147779E+02  0.40000000000E+02  0.47000000000E+01 0.  1.
</event>
<event>
 5    1  0.4781763E-001  0.8000000E+02  0.7546771E-02  0.1203772E+00
         11   -1    0    0    0    0  0.00000000000E+00  0.00000000000E+00  0.40000000000E+02  0.40000000000E+02  0.00000000000E+00 0.  1.
        -11   -1    0    0    0    0 -0.00000000000E+00 -0.00000000000E+00 -0.40000000000E+02  0.40000000000E+02  0.00000000000E+00 0. -1.
         23    2    1    2    0    0  0.00000000000E+00  0.00000000000E+00  0.00000000000E+00  0.80000000000E+02  0.80000000000E+02 0.  0.
          5    1    3    3  501    0  0.16632407165E+02 -0.35737818275E+02 -0.49072779433E+01  0.40000000000E+02  0.47000000000E+01 0. -1.
         -5    1    3    3    0  501 -0.16632407165E+02  0.35737818275E+02  0.49072779433E+01  0.40000000000E+02  0.47000000000E+01 0.  1.
</event>
<event>
 5    1  0.4781763E-001  0.8000000E+02  0.7546771E-02  0.1203772E+00
         11   -1    0    0    0    0  0.00000000000E+00  0.00000000000E+00  0.40000000000E+02  0.40000000000E+02  0.00000000000E+00 0.  1.
        -11   -1    0    0    0    0 -0.00000000000E+00 -0.00000000000E+00 -0.40000000000E+02  0.40000000000E+02  0.00000000000E+00 0. -1.
         23    2    1    2    0    0  0.00000000000E+00  0.00000000000E+00  0.00000000000E+00  0.80000000000E+02  0.80000000000E+02 0.  0.
          5    1    3    3  501    0 -0.20201101246E+02  0.32125253781E+02  0.11738550931E+02  0.40000000000E+02  0.47000000000E+01 0. -1.
         -5    1    3    3    0  501  0.20201101246E+02 -0.32125253781E+02 -0.11738550931E+02  0.40000000000E+02  0.47000000000E+01 0.  1.
</event>
<event>
 5    1  0.4781763E-001  0.8000000E+02  0.7546771E-02  0.1203772E+00
         11   -1    0    0    0    0  0.00000000000E+00  0.00000000000E+00  0.40000000000E+02  0.40000000000E+02  0.00000000000E+00 0. -1.
        -11   -1    0    0    0    0 -0.00000000000E+00 -0.00000000000E+00 -0.40000000000E+02  0.40000000000E+02  0.00000000000E+00 0.  1.
         23    2    1    2    0    0  0.00000000000E+00  0.00000000000E+00  0.00000000000E+00  0.80000000000E+02  0.80000000000E+02 0.  0.
          5    1    3    3  501    0 -0.97888984185E+00  0.32148963626E+02  0.23310853962E+02  0.40000000000E+02  0.47000000000E+01 0. -1.
         -5    1    3    3    0  501  0.97888984185E+00 -0.32148963626E+02 -0.23310853962E+02  0.40000000000E+02  0.47000000000E+01 0.  1.
</event>
<event>
 5    1  0.4781763E-001  0.8000000E+02  0.7546771E-02  0.1203772E+00
         11   -1    0    0    0    0  0.00000000000E+00  0.00000000000E+00  0.40000000000E+02  0.40000000000E+02  0.00000000000E+00 0. -1.
        -11   -1    0    0    0    0 -0.00000000000E+00 -0.00000000000E+00 -0.40000000000E+02  0.40000000000E+02  0.00000000000E+00 0.  1.
         23    2    1    2    0    0  0.00000000000E+00  0.00000000000E+00  0.00000000000E+00  0.80000000000E+02  0.80000000000E+02 0.  0.
          5    1    3    3  501    0 -0.73206307677E+00 -0.38080344664E+02 -0.11281020961E+02  0.40000000000E+02  0.47000000000E+01 0. -1.
         -5    1    3    3    0  501  0.73206307677E+00  0.38080344664E+02  0.11281020961E+02  0.40000000000E+02  0.47000000000E+01 0.  1.
</event>
<event>
 5    1  0.4781763E-001  0.8000000E+02  0.7546771E-02  0.1203772E+00
         11   -1    0    0    0    0  0.00000000000E+00  0.00000000000E+00  0.40000000000E+02  0.40000000000E+02  0.00000000000E+00 0. -1.
        -11   -1    0    0    0    0 -0.00000000000E+00 -0.00000000000E+00 -0.40000000000E+02  0.40000000000E+02  0.00000000000E+00 0.  1.
         23    2    1    2    0    0  0.00000000000E+00  0.00000000000E+00  0.00000000000E+00  0.80000000000E+02  0.80000000000E+02 0.  0.
          5    1    3    3  501    0 -0.95112133722E+01 -0.26226040120E+02  0.28277935565E+02  0.40000000000E+02  0.47000000000E+01 0. -1.
         -5    1    3    3    0  501  0.95112133722E+01  0.26226040120E+02 -0.28277935565E+02  0.40000000000E+02  0.47000000000E+01 0.  1.
</event>
<event>
 5    1  0.4781763E-001  0.8000000E+02  0.7546771E-02  0.1203772E+00
         11   -1    0    0    0    0  0.00000000000E+00  0.00000000000E+00  0.40000000000E+02  0.40000000000E+02  0.00000000000E+00 0. -1.
        -11   -1    0    0    0    0 -0.00000000000E+00 -0.00000000000E+00 -0.40000000000E+02  0.40000000000E+02  0.00000000000E+00 0.  1.
         23    2    1    2    0    0  0.00000000000E+00  0.00000000000E+00  0.00000000000E+00  0.80000000000E+02  0.80000000000E+02 0.  0.
          5    1    3    3  501    0  0.37625446420E+02  0.77239309437E+01  0.10128014240E+02  0.40000000000E+02  0.47000000000E+01 0. -1.
         -5    1    3    3    0  501 -0.37625446420E+02 -0.77239309437E+01 -0.10128014240E+02  0.40000000000E+02  0.47000000000E+01 0.  1.
</event>
<event>
 5    1  0.4781763E-001  0.8000000E+02  0.7546771E-02  0.1203772E+00
         11   -1    0    0    0    0  0.00000000000E+00  0.00000000000E+00  0.40000000000E+02  0.40000000000E+02  0.00000000000E+00 0. -1.
        -11   -1    0    0    0    0 -0.00000000000E+00 -0.00000000000E+00 -0.40000000000E+02  0.40000000000E+02  0.00000000000E+00 0.  1.
         23    2    1    2    0    0  0.00000000000E+00  0.00000000000E+00  0.00000000000E+00  0.80000000000E+02  0.80000000000E+02 0.  0.
          5    1    3    3  501    0  0.71784793369E+01  0.33955762291E+02 -0.19323189221E+02  0.40000000000E+02  0.47000000000E+01 0. -1.
         -5    1    3    3    0  501 -0.71784793369E+01 -0.33955762291E+02  0.19323189221E+02  0.40000000000E+02  0.47000000000E+01 0.  1.
</event>
<event>
 5    1  0.4781763E-001  0.8000000E+02  0.7546771E-02  0.1203772E+00
         11   -1    0    0    0    0  0.00000000000E+00  0.00000000000E+00  0.40000000000E+02  0.40000000000E+02  0.00000000000E+00 0.  1.
        -11   -1    0    0    0    0 -0.00000000000E+00 -0.00000000000E+00 -0.40000000000E+02  0.40000000000E+02  0.00000000000E+00 0. -1.
         23    2    1    2    0    0  0.00000000000E+00  0.00000000000E+00  0.00000000000E+00  0.80000000000E+02  0.80000000000E+02 0.  0.
          5    1    3    3  501    0 -0.21312959949E+02 -0.33493622742E+02 -0.13582981424E+01  0.40000000000E+02  0.47000000000E+01 0. -1.
         -5    1    3    3    0  501  0.21312959949E+02  0.33493622742E+02  0.13582981424E+01  0.40000000000E+02  0.47000000000E+01 0.  1.
</event>
<event>
 5    1  0.4781763E-001  0.8000000E+02  0.7546771E-02  0.1203772E+00
         11   -1    0    0    0    0  0.00000000000E+00  0.00000000000E+00  0.40000000000E+02  0.40000000000E+02  0.00000000000E+00 0. -1.
        -11   -1    0    0    0    0 -0.00000000000E+00 -0.00000000000E+00 -0.40000000000E+02  0.40000000000E+02  0.00000000000E+00 0.  1.
         23    2    1    2    0    0  0.00000000000E+00  0.00000000000E+00  0.00000000000E+00  0.80000000000E+02  0.80000000000E+02 0.  0.
          5    1    3    3  501    0  0.25839758810E+02 -0.22955411191E+02 -0.19577179616E+02  0.40000000000E+02  0.47000000000E+01 0. -1.
         -5    1    3    3    0  501 -0.25839758810E+02  0.22955411191E+02  0.19577179616E+02  0.40000000000E+02  0.47000000000E+01 0.  1.
</event>
<event>
 5    1  0.4781763E-001  0.8000000E+02  0.7546771E-02  0.1203772E+00
         11   -1    0    0    0    0  0.00000000000E+00  0.00000000000E+00  0.40000000000E+02  0.40000000000E+02  0.00000000000E+00 0. -1.
        -11   -1    0    0    0    0 -0.00000000000E+00 -0.00000000000E+00 -0.40000000000E+02  0.40000000000E+02  0.00000000000E+00 0.  1.
         23    2    1    2    0    0  0.00000000000E+00  0.00000000000E+00  0.00000000000E+00  0.80000000000E+02  0.80000000000E+02 0.  0.
          5    1    3    3  501    0  0.13919343948E+02 -0.45978968621E+01  0.36919117114E+02  0.40000000000E+02  0.47000000000E+01 0. -1.
         -5    1    3    3    0  501 -0.13919343948E+02  0.45978968621E+01 -0.36919117114E+02  0.40000000000E+02  0.47000000000E+01 0.  1.
</event>
<event>
 5    1  0.4781763E-001  0.8000000E+02  0.7546771E-02  0.1203772E+00
         11   -1    0    0    0    0  0.00000000000E+00  0.00000000000E+00  0.40000000000E+02  0.40000000000E+02  0.00000000000E+00 0.  1.
        -11   -1    0    0    0    0 -0.00000000000E+00 -0.00000000000E+00 -0.40000000000E+02  0.40000000000E+02  0.00000000000E+00 0. -1.
         23    2    1    2    0    0  0.00000000000E+00  0.00000000000E+00  0.00000000000E+00  0.80000000000E+02  0.80000000000E+02 0.  0.
          5    1    3    3  501    0  0.40513406209E+01 -0.28753650393E+02 -0.27105796949E+02  0.40000000000E+02  0.47000000000E+01 0. -1.
         -5    1    3    3    0  501 -0.40513406209E+01  0.28753650393E+02  0.27105796949E+02  0.40000000000E+02  0.47000000000E+01 0.  1.
</event>
<event>
 5    1  0.4781763E-001  0.8000000E+02  0.7546771E-02  0.1203772E+00
         11   -1    0    0    0    0  0.00000000000E+00  0.00000000000E+00  0.40000000000E+02  0.40000000000E+02  0.00000000000E+00 0.  1.
        -11   -1    0    0    0    0 -0.00000000000E+00 -0.00000000000E+00 -0.40000000000E+02  0.40000000000E+02  0.00000000000E+00 0. -1.
         23    2    1    2    0    0  0.00000000000E+00  0.00000000000E+00  0.00000000000E+00  0.80000000000E+02  0.80000000000E+02 0.  0.
          5    1    3    3  501    0  0.31837122483E+02 -0.21991908255E+01 -0.23653143380E+02  0.40000000000E+02  0.47000000000E+01 0. -1.
         -5    1    3    3    0  501 -0.31837122483E+02  0.21991908255E+01  0.23653143380E+02  0.40000000000E+02  0.47000000000E+01 0.  1.
</event>
<event>
 5    1  0.4781763E-001  0.8000000E+02  0.7546771E-02  0.1203772E+00
         11   -1    0    0    0    0  0.00000000000E+00  0.00000000000E+00  0.40000000000E+02  0.40000000000E+02  0.00000000000E+00 0. -1.
        -11   -1    0    0    0    0 -0.00000000000E+00 -0.00000000000E+00 -0.40000000000E+02  0.40000000000E+02  0.00000000000E+00 0.  1.
         23    2    1    2    0    0  0.00000000000E+00  0.00000000000E+00  0.00000000000E+00  0.80000000000E+02  0.80000000000E+02 0.  0.
          5    1    3    3  501    0 -0.47075477405E+01 -0.22008410674E+02 -0.32731924078E+02  0.40000000000E+02  0.47000000000E+01 0.  1.
         -5    1    3    3    0  501  0.47075477405E+01  0.22008410674E+02  0.32731924078E+02  0.40000000000E+02  0.47000000000E+01 0. -1.
</event>
<event>
 5    1  0.4781763E-001  0.8000000E+02  0.7546771E-02  0.1203772E+00
         11   -1    0    0    0    0  0.00000000000E+00  0.00000000000E+00  0.40000000000E+02  0.40000000000E+02  0.00000000000E+00 0.  1.
        -11   -1    0    0    0    0 -0.00000000000E+00 -0.00000000000E+00 -0.40000000000E+02  0.40000000000E+02  0.00000000000E+00 0. -1.
         23    2    1    2    0    0  0.00000000000E+00  0.00000000000E+00  0.00000000000E+00  0.80000000000E+02  0.80000000000E+02 0.  0.
          5    1    3    3  501    0  0.21101848412E+02  0.30043168670E+02 -0.15166740251E+02  0.40000000000E+02  0.47000000000E+01 0. -1.
         -5    1    3    3    0  501 -0.21101848412E+02 -0.30043168670E+02  0.15166740251E+02  0.40000000000E+02  0.47000000000E+01 0.  1.
</event>
<event>
 5    1  0.4781763E-001  0.8000000E+02  0.7546771E-02  0.1203772E+00
         11   -1    0    0    0    0  0.00000000000E+00  0.00000000000E+00  0.40000000000E+02  0.40000000000E+02  0.00000000000E+00 0.  1.
        -11   -1    0    0    0    0 -0.00000000000E+00 -0.00000000000E+00 -0.40000000000E+02  0.40000000000E+02  0.00000000000E+00 0. -1.
         23    2    1    2    0    0  0.00000000000E+00  0.00000000000E+00  0.00000000000E+00  0.80000000000E+02  0.80000000000E+02 0.  0.
          5    1    3    3  501    0  0.12224551857E+02  0.16869185815E+01 -0.37757444797E+02  0.40000000000E+02  0.47000000000E+01 0. -1.
         -5    1    3    3    0  501 -0.12224551857E+02 -0.16869185815E+01  0.37757444797E+02  0.40000000000E+02  0.47000000000E+01 0.  1.
</event>
<event>
 5    1  0.4781763E-001  0.8000000E+02  0.7546771E-02  0.1203772E+00
         11   -1    0    0    0    0  0.00000000000E+00  0.00000000000E+00  0.40000000000E+02  0.40000000000E+02  0.00000000000E+00 0.  1.
        -11   -1    0    0    0    0 -0.00000000000E+00 -0.00000000000E+00 -0.40000000000E+02  0.40000000000E+02  0.00000000000E+00 0. -1.
         23    2    1    2    0    0  0.00000000000E+00  0.00000000000E+00  0.00000000000E+00  0.80000000000E+02  0.80000000000E+02 0.  0.
          5    1    3    3  501    0 -0.15679418128E+02 -0.13577950241E+02 -0.33877796777E+02  0.40000000000E+02  0.47000000000E+01 0. -1.
         -5    1    3    3    0  501  0.15679418128E+02  0.13577950241E+02  0.33877796777E+02  0.40000000000E+02  0.47000000000E+01 0.  1.
</event>
<event>
 5    1  0.4781763E-001  0.8000000E+02  0.7546771E-02  0.1203772E+00
         11   -1    0    0    0    0  0.00000000000E+00  0.00000000000E+00  0.40000000000E+02  0.40000000000E+02  0.00000000000E+00 0. -1.
        -11   -1    0    0    0    0 -0.00000000000E+00 -0.00000000000E+00 -0.40000000000E+02  0.40000000000E+02  0.00000000000E+00 0.  1.
         23    2    1    2    0    0  0.00000000000E+00  0.00000000000E+00  0.00000000000E+00  0.80000000000E+02  0.80000000000E+02 0.  0.
          5    1    3    3  501    0  0.60915314678E+01  0.25691878544E+02  0.29677106012E+02  0.40000000000E+02  0.47000000000E+01 0. -1.
         -5    1    3    3    0  501 -0.60915314678E+01 -0.25691878544E+02 -0.29677106012E+02  0.40000000000E+02  0.47000000000E+01 0.  1.
</event>
<event>
 5    1  0.4781763E-001  0.8000000E+02  0.7546771E-02  0.1203772E+00
         11   -1    0    0    0    0  0.00000000000E+00  0.00000000000E+00  0.40000000000E+02  0.40000000000E+02  0.00000000000E+00 0.  1.
        -11   -1    0    0    0    0 -0.00000000000E+00 -0.00000000000E+00 -0.40000000000E+02  0.40000000000E+02  0.00000000000E+00 0. -1.
         23    2    1    2    0    0  0.00000000000E+00  0.00000000000E+00  0.00000000000E+00  0.80000000000E+02  0.80000000000E+02 0.  0.
          5    1    3    3  501    0 -0.84455105266E+01  0.10388796681E+02 -0.37398613015E+02  0.40000000000E+02  0.47000000000E+01 0. -1.
         -5    1    3    3    0  501  0.84455105266E+01 -0.10388796681E+02  0.37398613015E+02  0.40000000000E+02  0.47000000000E+01 0.  1.
</event>
<event>
 5    1  0.4781763E-001  0.8000000E+02  0.7546771E-02  0.1203772E+00
         11   -1    0    0    0    0  0.00000000000E+00  0.00000000000E+00  0.40000000000E+02  0.40000000000E+02  0.00000000000E+00 0. -1.
        -11   -1    0    0    0    0 -0.00000000000E+00 -0.00000000000E+00 -0.40000000000E+02  0.40000000000E+02  0.00000000000E+00 0.  1.
         23    2    1    2    0    0  0.00000000000E+00  0.00000000000E+00  0.00000000000E+00  0.80000000000E+02  0.80000000000E+02 0.  0.
          5    1    3    3  501    0 -0.24563035025E+02  0.21507702373E+02  0.22627108720E+02  0.40000000000E+02  0.47000000000E+01 0. -1.
         -5    1    3    3    0  501  0.24563035025E+02 -0.21507702373E+02 -0.22627108720E+02  0.40000000000E+02  0.47000000000E+01 0.  1.
</event>
<event>
 5    1  0.4781763E-001  0.8000000E+02  0.7546771E-02  0.1203772E+00
         11   -1    0    0    0    0  0.00000000000E+00  0.00000000000E+00  0.40000000000E+02  0.40000000000E+02  0.00000000000E+00 0. -1.
        -11   -1    0    0    0    0 -0.00000000000E+00 -0.00000000000E+00 -0.40000000000E+02  0.40000000000E+02  0.00000000000E+00 0.  1.
         23    2    1    2    0    0  0.00000000000E+00  0.00000000000E+00  0.00000000000E+00  0.80000000000E+02  0.80000000000E+02 0.  0.
          5    1    3    3  501    0  0.26946456047E+02  0.23061363397E+02 -0.17887761871E+02  0.40000000000E+02  0.47000000000E+01 0. -1.
         -5    1    3    3    0  501 -0.26946456047E+02 -0.23061363397E+02  0.17887761871E+02  0.40000000000E+02  0.47000000000E+01 0.  1.
</event>
<event>
 5    1  0.4781763E-001  0.8000000E+02  0.7546771E-02  0.1203772E+00
         11   -1    0    0    0    0  0.00000000000E+00  0.00000000000E+00  0.40000000000E+02  0.40000000000E+02  0.00000000000E+00 0. -1.
        -11   -1    0    0    0    0 -0.00000000000E+00 -0.00000000000E+00 -0.40000000000E+02  0.40000000000E+02  0.00000000000E+00 0.  1.
         23    2    1    2    0    0  0.00000000000E+00  0.00000000000E+00  0.00000000000E+00  0.80000000000E+02  0.80000000000E+02 0.  0.
          5    1    3    3  501    0 -0.26378885641E+02 -0.24645250645E+02  0.16573352496E+02  0.40000000000E+02  0.47000000000E+01 0. -1.
         -5    1    3    3    0  501  0.26378885641E+02  0.24645250645E+02 -0.16573352496E+02  0.40000000000E+02  0.47000000000E+01 0.  1.
</event>
<event>
 5    1  0.4781763E-001  0.8000000E+02  0.7546771E-02  0.1203772E+00
         11   -1    0    0    0    0  0.00000000000E+00  0.00000000000E+00  0.40000000000E+02  0.40000000000E+02  0.00000000000E+00 0.  1.
        -11   -1    0    0    0    0 -0.00000000000E+00 -0.00000000000E+00 -0.40000000000E+02  0.40000000000E+02  0.00000000000E+00 0. -1.
         23    2    1    2    0    0  0.00000000000E+00  0.00000000000E+00  0.00000000000E+00  0.80000000000E+02  0.80000000000E+02 0.  0.
          5    1    3    3  501    0  0.55116459073E+01 -0.28314774400E+02 -0.27309436283E+02  0.40000000000E+02  0.47000000000E+01 0. -1.
         -5    1    3    3    0  501 -0.55116459073E+01  0.28314774400E+02  0.27309436283E+02  0.40000000000E+02  0.47000000000E+01 0.  1.
</event>
<event>
 5    1  0.4781763E-001  0.8000000E+02  0.7546771E-02  0.1203772E+00
         11   -1    0    0    0    0  0.00000000000E+00  0.00000000000E+00  0.40000000000E+02  0.40000000000E+02  0.00000000000E+00 0.  1.
        -11   -1    0    0    0    0 -0.00000000000E+00 -0.00000000000E+00 -0.40000000000E+02  0.40000000000E+02  0.00000000000E+00 0. -1.
         23    2    1    2    0    0  0.00000000000E+00  0.00000000000E+00  0.00000000000E+00  0.80000000000E+02  0.80000000000E+02 0.  0.
          5    1    3    3  501    0 -0.16830442569E+02 -0.12221601711E+02 -0.33841965879E+02  0.40000000000E+02  0.47000000000E+01 0. -1.
         -5    1    3    3    0  501  0.16830442569E+02  0.12221601711E+02  0.33841965879E+02  0.40000000000E+02  0.47000000000E+01 0.  1.
</event>
<event>
 5    1  0.4781763E-001  0.8000000E+02  0.7546771E-02  0.1203772E+00
         11   -1    0    0    0    0  0.00000000000E+00  0.00000000000E+00  0.40000000000E+02  0.40000000000E+02  0.00000000000E+00 0.  1.
        -11   -1    0    0    0    0 -0.00000000000E+00 -0.00000000000E+00 -0.40000000000E+02  0.40000000000E+02  0.00000000000E+00 0. -1.
         23    2    1    2    0    0  0.00000000000E+00  0.00000000000E+00  0.00000000000E+00  0.80000000000E+02  0.80000000000E+02 0.  0.
          5    1    3    3  501    0  0.10026389439E+02  0.18084883736E+02 -0.33916345544E+02  0.40000000000E+02  0.47000000000E+01 0. -1.
         -5    1    3    3    0  501 -0.10026389439E+02 -0.18084883736E+02  0.33916345544E+02  0.40000000000E+02  0.47000000000E+01 0.  1.
</event>
<event>
 5    1  0.4781763E-001  0.8000000E+02  0.7546771E-02  0.1203772E+00
         11   -1    0    0    0    0  0.00000000000E+00  0.00000000000E+00  0.40000000000E+02  0.40000000000E+02  0.00000000000E+00 0.  1.
        -11   -1    0    0    0    0 -0.00000000000E+00 -0.00000000000E+00 -0.40000000000E+02  0.40000000000E+02  0.00000000000E+00 0. -1.
         23    2    1    2    0    0  0.00000000000E+00  0.00000000000E+00  0.00000000000E+00  0.80000000000E+02  0.80000000000E+02 0.  0.
          5    1    3    3  501    0 -0.43143558416E+01 -0.39347403732E+02  0.33283859816E+01  0.40000000000E+02  0.47000000000E+01 0. -1.
         -5    1    3    3    0  501  0.43143558416E+01  0.39347403732E+02 -0.33283859816E+01  0.40000000000E+02  0.47000000000E+01 0.  1.
</event>
<event>
 5    1  0.4781763E-001  0.8000000E+02  0.7546771E-02  0.1203772E+00
         11   -1    0    0    0    0  0.00000000000E+00  0.00000000000E+00  0.40000000000E+02  0.40000000000E+02  0.00000000000E+00 0. -1.
        -11   -1    0    0    0    0 -0.00000000000E+00 -0.00000000000E+00 -0.40000000000E+02  0.40000000000E+02  0.00000000000E+00 0.  1.
         23    2    1    2    0    0  0.00000000000E+00  0.00000000000E+00  0.00000000000E+00  0.80000000000E+02  0.80000000000E+02 0.  0.
          5    1    3    3  501    0 -0.13211564138E+01 -0.97074997092E+00  0.39689068901E+02  0.40000000000E+02  0.47000000000E+01 0. -1.
         -5    1    3    3    0  501  0.13211564138E+01  0.97074997092E+00 -0.39689068901E+02  0.40000000000E+02  0.47000000000E+01 0.  1.
</event>
<event>
 5    1  0.4781763E-001  0.8000000E+02  0.7546771E-02  0.1203772E+00
         11   -1    0    0    0    0  0.00000000000E+00  0.00000000000E+00  0.40000000000E+02  0.40000000000E+02  0.00000000000E+00 0.  1.
        -11   -1    0    0    0    0 -0.00000000000E+00 -0.00000000000E+00 -0.40000000000E+02  0.40000000000E+02  0.00000000000E+00 0. -1.
         23    2    1    2    0    0  0.00000000000E+00  0.00000000000E+00  0.00000000000E+00  0.80000000000E+02  0.80000000000E+02 0.  0.
          5    1    3    3  501    0  0.12131078931E+01 -0.38827917132E+02 -0.82964583043E+01  0.40000000000E+02  0.47000000000E+01 0. -1.
         -5    1    3    3    0  501 -0.12131078931E+01  0.38827917132E+02  0.82964583043E+01  0.40000000000E+02  0.47000000000E+01 0.  1.
</event>
<event>
 5    1  0.4781763E-001  0.8000000E+02  0.7546771E-02  0.1203772E+00
         11   -1    0    0    0    0  0.00000000000E+00  0.00000000000E+00  0.40000000000E+02  0.40000000000E+02  0.00000000000E+00 0. -1.
        -11   -1    0    0    0    0 -0.00000000000E+00 -0.00000000000E+00 -0.40000000000E+02  0.40000000000E+02  0.00000000000E+00 0.  1.
         23    2    1    2    0    0  0.00000000000E+00  0.00000000000E+00  0.00000000000E+00  0.80000000000E+02  0.80000000000E+02 0.  0.
          5    1    3    3  501    0 -0.28392645693E+02  0.55443225761E+01 -0.27221832373E+02  0.40000000000E+02  0.47000000000E+01 0.  1.
         -5    1    3    3    0  501  0.28392645693E+02 -0.55443225761E+01  0.27221832373E+02  0.40000000000E+02  0.47000000000E+01 0. -1.
</event>
<event>
 5    1  0.4781763E-001  0.8000000E+02  0.7546771E-02  0.1203772E+00
         11   -1    0    0    0    0  0.00000000000E+00  0.00000000000E+00  0.40000000000E+02  0.40000000000E+02  0.00000000000E+00 0. -1.
        -11   -1    0    0    0    0 -0.00000000000E+00 -0.00000000000E+00 -0.40000000000E+02  0.40000000000E+02  0.00000000000E+00 0.  1.
         23    2    1    2    0    0  0.00000000000E+00  0.00000000000E+00  0.00000000000E+00  0.80000000000E+02  0.80000000000E+02 0.  0.
          5    1    3    3  501    0 -0.12348862826E+02 -0.23047138762E+02 -0.29903929203E+02  0.40000000000E+02  0.47000000000E+01 0.  1.
         -5    1    3    3    0  501  0.12348862826E+02  0.23047138762E+02  0.29903929203E+02  0.40000000000E+02  0.47000000000E+01 0. -1.
</event>
<event>
 5    1  0.4781763E-001  0.8000000E+02  0.7546771E-02  0.1203772E+00
         11   -1    0    0    0    0  0.00000000000E+00  0.00000000000E+00  0.40000000000E+02  0.40000000000E+02  0.00000000000E+00 0. -1.
        -11   -1    0    0    0    0 -0.00000000000E+00 -0.00000000000E+00 -0.40000000000E+02  0.40000000000E+02  0.00000000000E+00 0.  1.
         23    2    1    2    0    0  0.00000000000E+00  0.00000000000E+00  0.00000000000E+00  0.80000000000E+02  0.80000000000E+02 0.  0.
          5    1    3    3  501    0  0.23114879636E+02  0.15428657225E+02  0.28382545264E+02  0.40000000000E+02  0.47000000000E+01 0. -1.
         -5    1    3    3    0  501 -0.23114879636E+02 -0.15428657225E+02 -0.28382545264E+02  0.40000000000E+02  0.47000000000E+01 0.  1.
</event>
<event>
 5    1  0.4781763E-001  0.8000000E+02  0.7546771E-02  0.1203772E+00
         11   -1    0    0    0    0  0.00000000000E+00  0.00000000000E+00  0.40000000000E+02  0.40000000000E+02  0.00000000000E+00 0. -1.
        -11   -1    0    0    0    0 -0.00000000000E+00 -0.00000000000E+00 -0.40000000000E+02  0.40000000000E+02  0.00000000000E+00 0.  1.
         23    2    1    2    0    0  0.00000000000E+00  0.00000000000E+00  0.00000000000E+00  0.80000000000E+02  0.80000000000E+02 0.  0.
          5    1    3    3  501    0 -0.15619818599E+02 -0.35215572598E+02  0.96847670880E+01  0.40000000000E+02  0.47000000000E+01 0. -1.
         -5    1    3    3    0  501  0.15619818599E+02  0.35215572598E+02 -0.96847670880E+01  0.40000000000E+02  0.47000000000E+01 0.  1.
</event>
<event>
 5    1  0.4781763E-001  0.8000000E+02  0.7546771E-02  0.1203772E+00
         11   -1    0    0    0    0  0.00000000000E+00  0.00000000000E+00  0.40000000000E+02  0.40000000000E+02  0.00000000000E+00 0. -1.
        -11   -1    0    0    0    0 -0.00000000000E+00 -0.00000000000E+00 -0.40000000000E+02  0.40000000000E+02  0.00000000000E+00 0.  1.
         23    2    1    2    0    0  0.00000000000E+00  0.00000000000E+00  0.00000000000E+00  0.80000000000E+02  0.80000000000E+02 0.  0.
          5    1    3    3  501    0 -0.22589605959E+02 -0.20881586442E+02  0.25131236545E+02  0.40000000000E+02  0.47000000000E+01 0. -1.
         -5    1    3    3    0  501  0.22589605959E+02  0.20881586442E+02 -0.25131236545E+02  0.40000000000E+02  0.47000000000E+01 0.  1.
</event>
