<event>
 5    1  0.4833967E-001  0.8000000E+02  0.7546771E-02  0.1203772E+00
         11   -1    0    0    0    0  0.00000000000E+00  0.00000000000E+00  0.40000000000E+02  0.40000000000E+02  0.00000000000E+00 0. -1.
        -11   -1    0    0    0    0 -0.00000000000E+00 -0.00000000000E+00 -0.40000000000E+02  0.40000000000E+02  0.00000000000E+00 0.  1.
         23    2    1    2    0    0  0.00000000000E+00  0.00000000000E+00  0.00000000000E+00  0.80000000000E+02  0.80000000000E+02 0.  0.
          5    1    3    3  501    0  0.57536659543E+01  0.21016732577E+02  0.33212983604E+02  0.40000000000E+02  0.47000000000E+01 0. -1.
         -5    1    3    3    0  501 -0.57536659543E+01 -0.21016732577E+02 -0.33212983604E+02  0.40000000000E+02  0.47000000000E+01 0.  1.
</event>
<event>
 5    1  0.4833967E-001  0.8000000E+02  0.7546771E-02  0.1203772E+00
         11   -1    0    0    0    0  0.00000000000E+00  0.00000000000E+00  0.40000000000E+02  0.40000000000E+02  0.00000000000E+00 0. -1.
        -11   -1    0    0    0    0 -0.00000000000E+00 -0.00000000000E+00 -0.40000000000E+02  0.40000000000E+02  0.00000000000E+00 0.  1.
         23    2    1    2    0    0  0.00000000000E+00  0.00000000000E+00  0.00000000000E+00  0.80000000000E+02  0.80000000000E+02 0.  0.
          5    1    3    3  501    0 -0.28385574146E+02 -0.27698227613E+02 -0.22310014568E+01  0.40000000000E+02  0.47000000000E+01 0. -1.
         -5    1    3    3    0  501  0.28385574146E+02  0.27698227613E+02  0.22310014568E+01  0.40000000000E+02  0.47000000000E+01 0.  1.
</event>
<event>
 5    1  0.4833967E-001  0.8000000E+02  0.7546771E-02  0.1203772E+00
         11   -1    0    0    0    0  0.00000000000E+00  0.00000000000E+00  0.40000000000E+02  0.40000000000E+02  0.00000000000E+00 0.  1.
        -11   -1    0    0    0    0 -0.00000000000E+00 -0.00000000000E+00 -0.40000000000E+02  0.40000000000E+02  0.00000000000E+00 0. -1.
         23    2    1    2    0    0  0.00000000000E+00  0.00000000000E+00  0.00000000000E+00  0.80000000000E+02  0.80000000000E+02 0.  0.
          5    1    3    3  501    0 -0.23602276179E+02  0.31904090804E+02 -0.17238181734E+01  0.40000000000E+02  0.47000000000E+01 0. -1.
         -5    1    3    3    0  501  0.23602276179E+02 -0.31904090804E+02  0.17238181734E+01  0.40000000000E+02  0.47000000000E+01 0.  1.
</event>
<event>
 5    1  0.4833967E-001  0.8000000E+02  0.7546771E-02  0.1203772E+00
         11   -1    0    0    0    0  0.00000000000E+00  0.00000000000E+00  0.40000000000E+02  0.40000000000E+02  0.00000000000E+00 0.  1.
        -11   -1    0    0    0    0 -0.00000000000E+00 -0.00000000000E+00 -0.40000000000E+02  0.40000000000E+02  0.00000000000E+00 0. -1.
         23    2    1    2    0    0  0.00000000000E+00  0.00000000000E+00  0.00000000000E+00  0.80000000000E+02  0.80000000000E+02 0.  0.
          5    1    3    3  501    0  0.19594298100E+01 -0.10541962289E+02 -0.38248368147E+02  0.40000000000E+02  0.47000000000E+01 0. -1.
         -5    1    3    3    0  501 -0.19594298100E+01  0.10541962289E+02  0.38248368147E+02  0.40000000000E+02  0.47000000000E+01 0.  1.
</event>
<event>
 5    1  0.4833967E-001  0.8000000E+02  0.7546771E-02  0.1203772E+00
         11   -1    0    0    0    0  0.00000000000E+00  0.00000000000E+00  0.40000000000E+02  0.40000000000E+02  0.00000000000E+00 0. -1.
        -11   -1    0    0    0    0 -0.00000000000E+00 -0.00000000000E+00 -0.40000000000E+02  0.40000000000E+02  0.00000000000E+00 0.  1.
         23    2    1    2    0    0  0.00000000000E+00  0.00000000000E+00  0.00000000000E+00  0.80000000000E+02  0.80000000000E+02 0.  0.
          5    1    3    3  501    0  0.27184343512E+02 -0.19142627772E+02 -0.21736634280E+02  0.40000000000E+02  0.47000000000E+01 0. -1.
         -5    1    3    3    0  501 -0.27184343512E+02  0.19142627772E+02  0.21736634280E+02  0.40000000000E+02  0.47000000000E+01 0.  1.
</event>
<event>
 5    1  0.4833967E-001  0.8000000E+02  0.7546771E-02  0.1203772E+00
         11   -1    0    0    0    0  0.00000000000E+00  0.00000000000E+00  0.40000000000E+02  0.40000000000E+02  0.00000000000E+00 0. -1.
        -11   -1    0    0    0    0 -0.00000000000E+00 -0.00000000000E+00 -0.40000000000E+02  0.40000000000E+02  0.00000000000E+00 0.  1.
         23    2    1    2    0    0  0.00000000000E+00  0.00000000000E+00  0.00000000000E+00  0.80000000000E+02  0.80000000000E+02 0.  0.
          5    1    3    3  501    0  0.29835730032E+02 -0.21227330705E+02 -0.15399339097E+02  0.40000000000E+02  0.47000000000E+01 0.  1.
         -5    1    3    3    0  501 -0.29835730032E+02  0.21227330705E+02  0.15399339097E+02  0.40000000000E+02  0.47000000000E+01 0. -1.
</event>
<event>
 5    1  0.4833967E-001  0.8000000E+02  0.7546771E-02  0.1203772E+00
         11   -1    0    0    0    0  0.00000000000E+00  0.00000000000E+00  0.40000000000E+02  0.40000000000E+02  0.00000000000E+00 0. -1.
        -11   -1    0    0    0    0 -0.00000000000E+00 -0.00000000000E+00 -0.40000000000E+02  0.40000000000E+02  0.00000000000E+00 0.  1.
         23    2    1    2    0    0  0.00000000000E+00  0.00000000000E+00  0.00000000000E+00  0.80000000000E+02  0.80000000000E+02 0.  0.
          5    1    3    3  501    0 -0.60250558147E+01  0.17928116427E+02  0.34931237365E+02  0.40000000000E+02  0.47000000000E+01 0. -1.
         -5    1    3    3    0  501  0.60250558147E+01 -0.17928116427E+02 -0.34931237365E+02  0.40000000000E+02  0.47000000000E+01 0.  1.
</event>
<event>
 5    1  0.4833967E-001  0.8000000E+02  0.7546771E-02  0.1203772E+00
         11   -1    0    0    0    0  0.00000000000E+00  0.00000000000E+00  0.40000000000E+02  0.40000000000E+02  0.00000000000E+00 0. -1.
        -11   -1    0    0    0    0 -0.00000000000E+00 -0.00000000000E+00 -0.40000000000E+02  0.40000000000E+02  0.00000000000E+00 0.  1.
         23    2    1    2    0    0  0.00000000000E+00  0.00000000000E+00  0.00000000000E+00  0.80000000000E+02  0.80000000000E+02 0.  0.
          5    1    3    3  501    0 -0.13789778363E+02  0.40336080828E+01  0.37033525602E+02  0.40000000000E+02  0.47000000000E+01 0. -1.
         -5    1    3    3    0  501  0.13789778363E+02 -0.40336080828E+01 -0.37033525602E+02  0.40000000000E+02  0.47000000000E+01 0.  1.
</event>
<event>
 5    1  0.4833967E-001  0.8000000E+02  0.7546771E-02  0.1203772E+00
         11   -1    0    0    0    0  0.00000000000E+00  0.00000000000E+00  0.40000000000E+02  0.40000000000E+02  0.00000000000E+00 0. -1.
        -11   -1    0    0    0    0 -0.00000000000E+00 -0.00000000000E+00 -0.40000000000E+02  0.40000000000E+02  0.00000000000E+00 0.  1.
         23    2    1    2    0    0  0.00000000000E+00  0.00000000000E+00  0.00000000000E+00  0.80000000000E+02  0.80000000000E+02 0.  0.
          5    1    3    3  501    0 -0.28042368948E+02 -0.22530166633E+02  0.16850137543E+02  0.40000000000E+02  0.47000000000E+01 0. -1.
         -5    1    3    3    0  501  0.28042368948E+02  0.22530166633E+02 -0.16850137543E+02  0.40000000000E+02  0.47000000000E+01 0.  1.
</event>
<event>
 5    1  0.4833967E-001  0.8000000E+02  0.7546771E-02  0.1203772E+00
         11   -1    0    0    0    0  0.00000000000E+00  0.00000000000E+00  0.40000000000E+02  0.40000000000E+02  0.00000000000E+00 0.  1.
        -11   -1    0    0    0    0 -0.00000000000E+00 -0.00000000000E+00 -0.40000000000E+02  0.40000000000E+02  0.00000000000E+00 0. -1.
         23    2    1    2    0    0  0.00000000000E+00  0.00000000000E+00  0.00000000000E+00  0.80000000000E+02  0.80000000000E+02 0.  0.
          5    1    3    3  501    0  0.91844848284E+01 -0.10577654953E+02 -0.37170801096E+02  0.40000000000E+02  0.47000000000E+01 0. -1.
         -5    1    3    3    0  501 -0.91844848284E+01  0.10577654953E+02  0.37170801096E+02  0.40000000000E+02  0.47000000000E+01 0.  1.
</event>
<event>
 5    1  0.4833967E-001  0.8000000E+02  0.7546771E-02  0.1203772E+00
         11   -1    0    0    0    0  0.00000000000E+00  0.00000000000E+00  0.40000000000E+02  0.40000000000E+02  0.00000000000E+00 0. -1.
        -11   -1    0    0    0    0 -0.00000000000E+00 -0.00000000000E+00 -0.40000000000E+02  0.40000000000E+02  0.00000000000E+00 0.  1.
         23    2    1    2    0    0  0.00000000000E+00  0.00000000000E+00  0.00000000000E+00  0.80000000000E+02  0.80000000000E+02 0.  0.
          5    1    3    3  501    0 -0.46931832134E+01  0.11284567778E+02 -0.37796065422E+02  0.40000000000E+02  0.47000000000E+01 0.  1.
         -5    1    3    3    0  501  0.46931832134E+01 -0.11284567778E+02  0.37796065422E+02  0.40000000000E+02  0.47000000000E+01 0. -1.
</event>
<event>
 5    1  0.4833967E-001  0.8000000E+02  0.7546771E-02  0.1203772E+00
         11   -1    0    0    0    0  0.00000000000E+00  0.00000000000E+00  0.40000000000E+02  0.40000000000E+02  0.00000000000E+00 0. -1.
        -11   -1    0    0    0    0 -0.00000000000E+00 -0.00000000000E+00 -0.40000000000E+02  0.40000000000E+02  0.00000000000E+00 0.  1.
         23    2    1    2    0    0  0.00000000000E+00  0.00000000000E+00  0.00000000000E+00  0.80000000000E+02  0.80000000000E+02 0.  0.
          5    1    3    3  501    0 -0.36301763254E+02 -0.16097215090E+02  0.98572360072E+00  0.40000000000E+02  0.47000000000E+01 0. -1.
         -5    1    3    3    0  501  0.36301763254E+02  0.16097215090E+02 -0.98572360072E+00  0.40000000000E+02  0.47000000000E+01 0.  1.
</event>
<event>
 5    1  0.4833967E-001  0.8000000E+02  0.7546771E-02  0.1203772E+00
         11   -1    0    0    0    0  0.00000000000E+00  0.00000000000E+00  0.40000000000E+02  0.40000000000E+02  0.00000000000E+00 0. -1.
        -11   -1    0    0    0    0 -0.00000000000E+00 -0.00000000000E+00 -0.40000000000E+02  0.40000000000E+02  0.00000000000E+00 0.  1.
         23    2    1    2    0    0  0.00000000000E+00  0.00000000000E+00  0.00000000000E+00  0.80000000000E+02  0.80000000000E+02 0.  0.
          5    1    3    3  501    0  0.16213410021E+02  0.18803778621E+02  0.31007309543E+02  0.40000000000E+02  0.47000000000E+01 0. -1.
         -5    1    3    3    0  501 -0.16213410021E+02 -0.18803778621E+02 -0.31007309543E+02  0.40000000000E+02  0.47000000000E+01 0.  1.
</event>
<event>
 5    1  0.4833967E-001  0.8000000E+02  0.7546771E-02  0.1203772E+00
         11   -1    0    0    0    0  0.00000000000E+00  0.00000000000E+00  0.40000000000E+02  0.40000000000E+02  0.00000000000E+00 0.  1.
        -11   -1    0    0    0    0 -0.00000000000E+00 -0.00000000000E+00 -0.40000000000E+02  0.40000000000E+02  0.00000000000E+00 0. -1.
         23    2    1    2    0    0  0.00000000000E+00  0.00000000000E+00  0.00000000000E+00  0.80000000000E+02  0.80000000000E+02 0.  0.
          5    1    3    3  501    0  0.34981254165E+00 -0.17692303316E+02 -0.35563605477E+02  0.40000000000E+02  0.47000000000E+01 0. -1.
         -5    1    3    3    0  501 -0.34981254165E+00  0.17692303316E+02  0.35563605477E+02  0.40000000000E+02  0.47000000000E+01 0.  1.
</event>
<event>
 5    1  0.4833967E-001  0.8000000E+02  0.7546771E-02  0.1203772E+00
         11   -1    0    0    0    0  0.00000000000E+00  0.00000000000E+00  0.40000000000E+02  0.40000000000E+02  0.00000000000E+00 0.  1.
        -11   -1    0    0    0    0 -0.00000000000E+00 -0.00000000000E+00 -0.40000000000E+02  0.40000000000E+02  0.00000000000E+00 0. -1.
         23    2    1    2    0    0  0.00000000000E+00  0.00000000000E+00  0.00000000000E+00  0.80000000000E+02  0.80000000000E+02 0.  0.
          5    1    3    3  501    0  0.32730447619E+02 -0.20365599720E+02  0.95848915836E+01  0.40000000000E+02  0.47000000000E+01 0. -1.
         -5    1    3    3    0  501 -0.32730447619E+02  0.20365599720E+02 -0.95848915836E+01  0.40000000000E+02  0.47000000000E+01 0.  1.
</event>
<event>
 5    1  0.4833967E-001  0.8000000E+02  0.7546771E-02  0.1203772E+00
         11   -1    0    0    0    0  0.00000000000E+00  0.00000000000E+00  0.40000000000E+02  0.40000000000E+02  0.00000000000E+00 0. -1.
        -11   -1    0    0    0    0 -0.00000000000E+00 -0.00000000000E+00 -0.40000000000E+02  0.40000000000E+02  0.00000000000E+00 0.  1.
         23    2    1    2    0    0  0.00000000000E+00  0.00000000000E+00  0.00000000000E+00  0.80000000000E+02  0.80000000000E+02 0.  0.
          5    1    3    3  501    0 -0.27677694962E+02  0.27739141319E+02  0.65111627620E+01  0.40000000000E+02  0.47000000000E+01 0. -1.
         -5    1    3    3    0  501  0.27677694962E+02 -0.27739141319E+02 -0.65111627620E+01  0.40000000000E+02  0.47000000000E+01 0.  1.
</event>
<event>
 5    1  0.4833967E-001  0.8000000E+02  0.7546771E-02  0.1203772E+00
         11   -1    0    0    0    0  0.00000000000E+00  0.00000000000E+00  0.40000000000E+02  0.40000000000E+02  0.00000000000E+00 0. -1.
        -11   -1    0    0    0    0 -0.00000000000E+00 -0.00000000000E+00 -0.40000000000E+02  0.40000000000E+02  0.00000000000E+00 0.  1.
         23    2    1    2    0    0  0.00000000000E+00  0.00000000000E+00  0.00000000000E+00  0.80000000000E+02  0.80000000000E+02 0.  0.
          5    1    3    3  501    0 -0.23946191398E+02  0.72139378479E+01 -0.30861772766E+02  0.40000000000E+02  0.47000000000E+01 0.  1.
         -5    1    3    3    0  501  0.23946191398E+02 -0.72139378479E+01  0.30861772766E+02  0.40000000000E+02  0.47000000000E+01 0. -1.
</event>
<event>
 5    1  0.4833967E-001  0.8000000E+02  0.7546771E-02  0.1203772E+00
         11   -1    0    0    0    0  0.00000000000E+00  0.00000000000E+00  0.40000000000E+02  0.40000000000E+02  0.00000000000E+00 0.  1.
        -11   -1    0    0    0    0 -0.00000000000E+00 -0.00000000000E+00 -0.40000000000E+02  0.40000000000E+02  0.00000000000E+00 0. -1.
         23    2    1    2    0    0  0.00000000000E+00  0.00000000000E+00  0.00000000000E+00  0.80000000000E+02  0.80000000000E+02 0.  0.
          5    1    3    3  501    0 -0.69274121546E+01 -0.23880770336E+02 -0.30977891616E+02  0.40000000000E+02  0.47000000000E+01 0. -1.
         -5    1    3    3    0  501  0.69274121546E+01  0.23880770336E+02  0.30977891616E+02  0.40000000000E+02  0.47000000000E+01 0.  1.
</event>
<event>
 5    1  0.4833967E-001  0.8000000E+02  0.7546771E-02  0.1203772E+00
         11   -1    0    0    0    0  0.00000000000E+00  0.00000000000E+00  0.40000000000E+02  0.40000000000E+02  0.00000000000E+00 0. -1.
        -11   -1    0    0    0    0 -0.00000000000E+00 -0.00000000000E+00 -0.40000000000E+02  0.40000000000E+02  0.00000000000E+00 0.  1.
         23    2    1    2    0    0  0.00000000000E+00  0.00000000000E+00  0.00000000000E+00  0.80000000000E+02  0.80000000000E+02 0.  0.
          5    1    3    3  501    0  0.35970978568E+02  0.12759382599E+02  0.11008944388E+02  0.40000000000E+02  0.47000000000E+01 0. -1.
         -5    1    3    3    0  501 -0.35970978568E+02 -0.12759382599E+02 -0.11008944388E+02  0.40000000000E+02  0.47000000000E+01 0.  1.
</event>
<event>
 5    1  0.4833967E-001  0.8000000E+02  0.7546771E-02  0.1203772E+00
         11   -1    0    0    0    0  0.00000000000E+00  0.00000000000E+00  0.40000000000E+02  0.40000000000E+02  0.00000000000E+00 0. -1.
        -11   -1    0    0    0    0 -0.00000000000E+00 -0.00000000000E+00 -0.40000000000E+02  0.40000000000E+02  0.00000000000E+00 0.  1.
         23    2    1    2    0    0  0.00000000000E+00  0.00000000000E+00  0.00000000000E+00  0.80000000000E+02  0.80000000000E+02 0.  0.
          5    1    3    3  501    0  0.80810657344E+01  0.36038920269E+02  0.14621990371E+02  0.40000000000E+02  0.47000000000E+01 0. -1.
         -5    1    3    3    0  501 -0.80810657344E+01 -0.36038920269E+02 -0.14621990371E+02  0.40000000000E+02  0.47000000000E+01 0.  1.
</event>
<event>
 5    1  0.4833967E-001  0.8000000E+02  0.7546771E-02  0.1203772E+00
         11   -1    0    0    0    0  0.00000000000E+00  0.00000000000E+00  0.40000000000E+02  0.40000000000E+02  0.00000000000E+00 0.  1.
        -11   -1    0    0    0    0 -0.00000000000E+00 -0.00000000000E+00 -0.40000000000E+02  0.40000000000E+02  0.00000000000E+00 0. -1.
         23    2    1    2    0    0  0.00000000000E+00  0.00000000000E+00  0.00000000000E+00  0.80000000000E+02  0.80000000000E+02 0.  0.
          5    1    3    3  501    0 -0.24229507151E+02 -0.27477049012E+02 -0.15357498521E+02  0.40000000000E+02  0.47000000000E+01 0. -1.
         -5    1    3    3    0  501  0.24229507151E+02  0.27477049012E+02  0.15357498521E+02  0.40000000000E+02  0.47000000000E+01 0.  1.
</event>
<event>
 5    1  0.4833967E-001  0.8000000E+02  0.7546771E-02  0.1203772E+00
         11   -1    0    0    0    0  0.00000000000E+00  0.00000000000E+00  0.40000000000E+02  0.40000000000E+02  0.00000000000E+00 0.  1.
        -11   -1    0    0    0    0 -0.00000000000E+00 -0.00000000000E+00 -0.40000000000E+02  0.40000000000E+02  0.00000000000E+00 0. -1.
         23    2    1    2    0    0  0.00000000000E+00  0.00000000000E+00  0.00000000000E+00  0.80000000000E+02  0.80000000000E+02 0.  0.
          5    1    3    3  501    0  0.21492682237E+02 -0.81274093125E+01 -0.32402466390E+02  0.40000000000E+02  0.47000000000E+01 0. -1.
         -5    1    3    3    0  501 -0.21492682237E+02  0.81274093125E+01  0.32402466390E+02  0.40000000000E+02  0.47000000000E+01 0.  1.
</event>
<event>
 5    1  0.4833967E-001  0.8000000E+02  0.7546771E-02  0.1203772E+00
         11   -1    0    0    0    0  0.00000000000E+00  0.00000000000E+00  0.40000000000E+02  0.40000000000E+02  0.00000000000E+00 0.  1.
        -11   -1    0    0    0    0 -0.00000000000E+00 -0.00000000000E+00 -0.40000000000E+02  0.40000000000E+02  0.00000000000E+00 0. -1.
         23    2    1    2    0    0  0.00000000000E+00  0.00000000000E+00  0.00000000000E+00  0.80000000000E+02  0.80000000000E+02 0.  0.
          5    1    3    3  501    0  0.33158777526E+02 -0.11911075087E+02 -0.18344802078E+02  0.40000000000E+02  0.47000000000E+01 0. -1.
         -5    1    3    3    0  501 -0.33158777526E+02  0.11911075087E+02  0.18344802078E+02  0.40000000000E+02  0.47000000000E+01 0.  1.
</event>
<event>
 5    1  0.4833967E-001  0.8000000E+02  0.7546771E-02  0.1203772E+00
         11   -1    0    0    0    0  0.00000000000E+00  0.00000000000E+00  0.40000000000E+02  0.40000000000E+02  0.00000000000E+00 0. -1.
        -11   -1    0    0    0    0 -0.00000000000E+00 -0.00000000000E+00 -0.40000000000E+02  0.40000000000E+02  0.00000000000E+00 0.  1.
         23    2    1    2    0    0  0.00000000000E+00  0.00000000000E+00  0.00000000000E+00  0.80000000000E+02  0.80000000000E+02 0.  0.
          5    1    3    3  501    0  0.18693454943E+02 -0.14648916469E+02  0.31841387981E+02  0.40000000000E+02  0.47000000000E+01 0. -1.
         -5    1    3    3    0  501 -0.18693454943E+02  0.14648916469E+02 -0.31841387981E+02  0.40000000000E+02  0.47000000000E+01 0.  1.
</event>
<event>
 5    1  0.4833967E-001  0.8000000E+02  0.7546771E-02  0.1203772E+00
         11   -1    0    0    0    0  0.00000000000E+00  0.00000000000E+00  0.40000000000E+02  0.40000000000E+02  0.00000000000E+00 0.  1.
        -11   -1    0    0    0    0 -0.00000000000E+00 -0.00000000000E+00 -0.40000000000E+02  0.40000000000E+02  0.00000000000E+00 0. -1.
         23    2    1    2    0    0  0.00000000000E+00  0.00000000000E+00  0.00000000000E+00  0.80000000000E+02  0.80000000000E+02 0.  0.
          5    1    3    3  501    0 -0.14677415258E+02  0.94111062982E+00 -0.36899834581E+02  0.40000000000E+02  0.47000000000E+01 0. -1.
         -5    1    3    3    0  501  0.14677415258E+02 -0.94111062982E+00  0.36899834581E+02  0.40000000000E+02  0.47000000000E+01 0.  1.
</event>
<event>
 5    1  0.4833967E-001  0.8000000E+02  0.7546771E-02  0.1203772E+00
         11   -1    0    0    0    0  0.00000000000E+00  0.00000000000E+00  0.40000000000E+02  0.40000000000E+02  0.00000000000E+00 0. -1.
        -11   -1    0    0    0    0 -0.00000000000E+00 -0.00000000000E+00 -0.40000000000E+02  0.40000000000E+02  0.00000000000E+00 0.  1.
         23    2    1    2    0    0  0.00000000000E+00  0.00000000000E+00  0.00000000000E+00  0.80000000000E+02  0.80000000000E+02 0.  0.
          5    1    3    3  501    0  0.26229707894E+02 -0.97512211343E+01  0.28192660573E+02  0.40000000000E+02  0.47000000000E+01 0. -1.
         -5    1    3    3    0  501 -0.26229707894E+02  0.97512211343E+01 -0.28192660573E+02  0.40000000000E+02  0.47000000000E+01 0.  1.
</event>
<event>
 5    1  0.4833967E-001  0.8000000E+02  0.7546771E-02  0.1203772E+00
         11   -1    0    0    0    0  0.00000000000E+00  0.00000000000E+00  0.40000000000E+02  0.40000000000E+02  0.00000000000E+00 0. -1.
        -11   -1    0    0    0    0 -0.00000000000E+00 -0.00000000000E+00 -0.40000000000E+02  0.40000000000E+02  0.00000000000E+00 0.  1.
         23    2    1    2    0    0  0.00000000000E+00  0.00000000000E+00  0.00000000000E+00  0.80000000000E+02  0.80000000000E+02 0.  0.
          5    1    3    3  501    0 -0.18956284309E+02 -0.33128214838E+02  0.11004120448E+02  0.40000000000E+02  0.47000000000E+01 0. -1.
         -5    1    3    3    0  501  0.18956284309E+02  0.33128214838E+02 -0.11004120448E+02  0.40000000000E+02  0.47000000000E+01 0.  1.
</event>
<event>
 5    1  0.4833967E-001  0.8000000E+02  0.7546771E-02  0.1203772E+00
         11   -1    0    0    0    0  0.00000000000E+00  0.00000000000E+00  0.40000000000E+02  0.40000000000E+02  0.00000000000E+00 0.  1.
        -11   -1    0    0    0    0 -0.00000000000E+00 -0.00000000000E+00 -0.40000000000E+02  0.40000000000E+02  0.00000000000E+00 0. -1.
         23    2    1    2    0    0  0.00000000000E+00  0.00000000000E+00  0.00000000000E+00  0.80000000000E+02  0.80000000000E+02 0.  0.
          5    1    3    3  501    0  0.21851778643E+02  0.32394037674E+02 -0.71439550201E+01  0.40000000000E+02  0.47000000000E+01 0. -1.
         -5    1    3    3    0  501 -0.21851778643E+02 -0.32394037674E+02  0.71439550201E+01  0.40000000000E+02  0.47000000000E+01 0.  1.
</event>
<event>
 5    1  0.4833967E-001  0.8000000E+02  0.7546771E-02  0.1203772E+00
         11   -1    0    0    0    0  0.00000000000E+00  0.00000000000E+00  0.40000000000E+02  0.40000000000E+02  0.00000000000E+00 0.  1.
        -11   -1    0    0    0    0 -0.00000000000E+00 -0.00000000000E+00 -0.40000000000E+02  0.40000000000E+02  0.00000000000E+00 0. -1.
         23    2    1    2    0    0  0.00000000000E+00  0.00000000000E+00  0.00000000000E+00  0.80000000000E+02  0.80000000000E+02 0.  0.
          5    1    3    3  501    0  0.75859880891E+01 -0.85596434886E+01 -0.38040705672E+02  0.40000000000E+02  0.47000000000E+01 0. -1.
         -5    1    3    3    0  501 -0.75859880891E+01  0.85596434886E+01  0.38040705672E+02  0.40000000000E+02  0.47000000000E+01 0.  1.
</event>
<event>
 5    1  0.4833967E-001  0.8000000E+02  0.7546771E-02  0.1203772E+00
         11   -1    0    0    0    0  0.00000000000E+00  0.00000000000E+00  0.40000000000E+02  0.40000000000E+02  0.00000000000E+00 0.  1.
        -11   -1    0    0    0    0 -0.00000000000E+00 -0.00000000000E+00 -0.40000000000E+02  0.40000000000E+02  0.00000000000E+00 0. -1.
         23    2    1    2    0    0  0.00000000000E+00  0.00000000000E+00  0.00000000000E+00  0.80000000000E+02  0.80000000000E+02 0.  0.
          5    1    3    3  501    0  0.27863574465E+02 -0.18625678435E+02 -0.21321710082E+02  0.40000000000E+02  0.47000000000E+01 0. -1.
         -5    1    3    3    0  501 -0.27863574465E+02  0.18625678435E+02  0.21321710082E+02  0.40000000000E+02  0.47000000000E+01 0.  1.
</event>
<event>
 5    1  0.4833967E-001  0.8000000E+02  0.7546771E-02  0.1203772E+00
         11   -1    0    0    0    0  0.00000000000E+00  0.00000000000E+00  0.40000000000E+02  0.40000000000E+02  0.00000000000E+00 0.  1.
        -11   -1    0    0    0    0 -0.00000000000E+00 -0.00000000000E+00 -0.40000000000E+02  0.40000000000E+02  0.00000000000E+00 0. -1.
         23    2    1    2    0    0  0.00000000000E+00  0.00000000000E+00  0.00000000000E+00  0.80000000000E+02  0.80000000000E+02 0.  0.
          5    1    3    3  501    0  0.11123319854E+02  0.13828266537E+02 -0.35538159772E+02  0.40000000000E+02  0.47000000000E+01 0. -1.
         -5    1    3    3    0  501 -0.11123319854E+02 -0.13828266537E+02  0.35538159772E+02  0.40000000000E+02  0.47000000000E+01 0.  1.
</event>
<event>
 5    1  0.4833967E-001  0.8000000E+02  0.7546771E-02  0.1203772E+00
         11   -1    0    0    0    0  0.00000000000E+00  0.00000000000E+00  0.40000000000E+02  0.40000000000E+02  0.00000000000E+00 0.  1.
        -11   -1    0    0    0    0 -0.00000000000E+00 -0.00000000000E+00 -0.40000000000E+02  0.40000000000E+02  0.00000000000E+00 0. -1.
         23    2    1    2    0    0  0.00000000000E+00  0.00000000000E+00  0.00000000000E+00  0.80000000000E+02  0.80000000000E+02 0.  0.
          5    1    3    3  501    0  0.23992156358E+02 -0.16996591102E+02 -0.26709592363E+02  0.40000000000E+02  0.47000000000E+01 0. -1.
         -5    1    3    3    0  501 -0.23992156358E+02  0.16996591102E+02  0.26709592363E+02  0.40000000000E+02  0.47000000000E+01 0.  1.
</event>
<event>
 5    1  0.4833967E-001  0.8000000E+02  0.7546771E-02  0.1203772E+00
         11   -1    0    0    0    0  0.00000000000E+00  0.00000000000E+00  0.40000000000E+02  0.40000000000E+02  0.00000000000E+00 0.  1.
        -11   -1    0    0    0    0 -0.00000000000E+00 -0.00000000000E+00 -0.40000000000E+02  0.40000000000E+02  0.00000000000E+00 0. -1.
         23    2    1    2    0    0  0.00000000000E+00  0.00000000000E+00  0.00000000000E+00  0.80000000000E+02  0.80000000000E+02 0.  0.
          5    1    3    3  501    0 -0.26429697217E+01 -0.13515852236E+02 -0.37259179398E+02  0.40000000000E+02  0.47000000000E+01 0. -1.
         -5    1    3    3    0  501  0.26429697217E+01  0.13515852236E+02  0.37259179398E+02  0.40000000000E+02  0.47000000000E+01 0.  1.
</event>
<event>
 5    1  0.4833967E-001  0.8000000E+02  0.7546771E-02  0.1203772E+00
         11   -1    0    0    0    0  0.00000000000E+00  0.00000000000E+00  0.40000000000E+02  0.40000000000E+02  0.00000000000E+00 0.  1.
        -11   -1    0    0    0    0 -0.00000000000E+00 -0.00000000000E+00 -0.40000000000E+02  0.40000000000E+02  0.00000000000E+00 0. -1.
         23    2    1    2    0    0  0.00000000000E+00  0.00000000000E+00  0.00000000000E+00  0.80000000000E+02  0.80000000000E+02 0.  0.
          5    1    3    3  501    0  0.27353644557E+02  0.17466568013E+02 -0.22904303773E+02  0.40000000000E+02  0.47000000000E+01 0. -1.
         -5    1    3    3    0  501 -0.27353644557E+02 -0.17466568013E+02  0.22904303773E+02  0.40000000000E+02  0.47000000000E+01 0.  1.
</event>
<event>
 5    1  0.4833967E-001  0.8000000E+02  0.7546771E-02  0.1203772E+00
         11   -1    0    0    0    0  0.00000000000E+00  0.00000000000E+00  0.40000000000E+02  0.40000000000E+02  0.00000000000E+00 0. -1.
        -11   -1    0    0    0    0 -0.00000000000E+00 -0.00000000000E+00 -0.40000000000E+02  0.40000000000E+02  0.00000000000E+00 0.  1.
         23    2    1    2    0    0  0.00000000000E+00  0.00000000000E+00  0.00000000000E+00  0.80000000000E+02  0.80000000000E+02 0.  0.
          5    1    3    3  501    0  0.12970111518E+02 -0.34487228345E+02 -0.14843088906E+02  0.40000000000E+02  0.47000000000E+01 0. -1.
         -5    1    3    3    0  501 -0.12970111518E+02  0.34487228345E+02  0.14843088906E+02  0.40000000000E+02  0.47000000000E+01 0.  1.
</event>
<event>
 5    1  0.4833967E-001  0.8000000E+02  0.7546771E-02  0.1203772E+00
         11   -1    0    0    0    0  0.00000000000E+00  0.00000000000E+00  0.40000000000E+02  0.40000000000E+02  0.00000000000E+00 0. -1.
        -11   -1    0    0    0    0 -0.00000000000E+00 -0.00000000000E+00 -0.40000000000E+02  0.40000000000E+02  0.00000000000E+00 0.  1.
         23    2    1    2    0    0  0.00000000000E+00  0.00000000000E+00  0.00000000000E+00  0.80000000000E+02  0.80000000000E+02 0.  0.
          5    1    3    3  501    0  0.16706995802E+02  0.96580852345E+00  0.36025733930E+02  0.40000000000E+02  0.47000000000E+01 0. -1.
         -5    1    3    3    0  501 -0.16706995802E+02 -0.96580852345E+00 -0.36025733930E+02  0.40000000000E+02  0.47000000000E+01 0.  1.
</event>
<event>
 5    1  0.4833967E-001  0.8000000E+02  0.7546771E-02  0.1203772E+00
         11   -1    0    0    0    0  0.00000000000E+00  0.00000000000E+00  0.40000000000E+02  0.40000000000E+02  0.00000000000E+00 0.  1.
        -11   -1    0    0    0    0 -0.00000000000E+00 -0.00000000000E+00 -0.40000000000E+02  0.40000000000E+02  0.00000000000E+00 0. -1.
         23    2    1    2    0    0  0.00000000000E+00  0.00000000000E+00  0.00000000000E+00  0.80000000000E+02  0.80000000000E+02 0.  0.
          5    1    3    3  501    0  0.16309657879E+02  0.54327068385E+01 -0.35810483888E+02  0.40000000000E+02  0.47000000000E+01 0. -1.
         -5    1    3    3    0  501 -0.16309657879E+02 -0.54327068385E+01  0.35810483888E+02  0.40000000000E+02  0.47000000000E+01 0.  1.
</event>
<event>
 5    1  0.4833967E-001  0.8000000E+02  0.7546771E-02  0.1203772E+00
         11   -1    0    0    0    0  0.00000000000E+00  0.00000000000E+00  0.40000000000E+02  0.40000000000E+02  0.00000000000E+00 0.  1.
        -11   -1    0    0    0    0 -0.00000000000E+00 -0.00000000000E+00 -0.40000000000E+02  0.40000000000E+02  0.00000000000E+00 0. -1.
         23    2    1    2    0    0  0.00000000000E+00  0.00000000000E+00  0.00000000000E+00  0.80000000000E+02  0.80000000000E+02 0.  0.
          5    1    3    3  501    0  0.82806485881E+01  0.70062889444E+01 -0.38213253907E+02  0.40000000000E+02  0.47000000000E+01 0. -1.
         -5    1    3    3    0  501 -0.82806485881E+01 -0.70062889444E+01  0.38213253907E+02  0.40000000000E+02  0.47000000000E+01 0.  1.
</event>
<event>
 5    1  0.4833967E-001  0.8000000E+02  0.7546771E-02  0.1203772E+00
         11   -1    0    0    0    0  0.00000000000E+00  0.00000000000E+00  0.40000000000E+02  0.40000000000E+02  0.00000000000E+00 0.  1.
        -11   -1    0    0    0    0 -0.00000000000E+00 -0.00000000000E+00 -0.40000000000E+02  0.40000000000E+02  0.00000000000E+00 0. -1.
         23    2    1    2    0    0  0.00000000000E+00  0.00000000000E+00  0.00000000000E+00  0.80000000000E+02  0.80000000000E+02 0.  0.
          5    1    3    3  501    0 -0.25990773820E+02 -0.29412856515E+02 -0.61052066198E+01  0.40000000000E+02  0.47000000000E+01 0. -1.
         -5    1    3    3    0  501  0.25990773820E+02  0.29412856515E+02  0.61052066198E+01  0.40000000000E+02  0.47000000000E+01 0.  1.
</event>
<event>
 5    1  0.4833967E-001  0.8000000E+02  0.7546771E-02  0.1203772E+00
         11   -1    0    0    0    0  0.00000000000E+00  0.00000000000E+00  0.40000000000E+02  0.40000000000E+02  0.00000000000E+00 0. -1.
        -11   -1    0    0    0    0 -0.00000000000E+00 -0.00000000000E+00 -0.40000000000E+02  0.40000000000E+02  0.00000000000E+00 0.  1.
         23    2    1    2    0    0  0.00000000000E+00  0.00000000000E+00  0.00000000000E+00  0.80000000000E+02  0.80000000000E+02 0.  0.
          5    1    3    3  501    0  0.21031739876E+01  0.21922760215E+02  0.33058724170E+02  0.40000000000E+02  0.47000000000E+01 0. -1.
         -5    1    3    3    0  501 -0.21031739876E+01 -0.21922760215E+02 -0.33058724170E+02  0.40000000000E+02  0.47000000000E+01 0.  1.
</event>
<event>
 5    1  0.4833967E-001  0.8000000E+02  0.7546771E-02  0.1203772E+00
         11   -1    0    0    0    0  0.00000000000E+00  0.00000000000E+00  0.40000000000E+02  0.40000000000E+02  0.00000000000E+00 0. -1.
        -11   -1    0    0    0    0 -0.00000000000E+00 -0.00000000000E+00 -0.40000000000E+02  0.40000000000E+02  0.00000000000E+00 0.  1.
         23    2    1    2    0    0  0.00000000000E+00  0.00000000000E+00  0.00000000000E+00  0.80000000000E+02  0.80000000000E+02 0.  0.
          5    1    3    3  501    0 -0.35677809736E+02 -0.15366009984E+02  0.82999776891E+01  0.40000000000E+02  0.47000000000E+01 0. -1.
         -5    1    3    3    0  501  0.35677809736E+02  0.15366009984E+02 -0.82999776891E+01  0.40000000000E+02  0.47000000000E+01 0.  1.
</event>
<event>
 5    1  0.4833967E-001  0.8000000E+02  0.7546771E-02  0.1203772E+00
         11   -1    0    0    0    0  0.00000000000E+00  0.00000000000E+00  0.40000000000E+02  0.40000000000E+02  0.00000000000E+00 0.  1.
        -11   -1    0    0    0    0 -0.00000000000E+00 -0.00000000000E+00 -0.40000000000E+02  0.40000000000E+02  0.00000000000E+00 0. -1.
         23    2    1    2    0    0  0.00000000000E+00  0.00000000000E+00  0.00000000000E+00  0.80000000000E+02  0.80000000000E+02 0.  0.
          5    1    3    3  501    0 -0.29689795042E+01 -0.16457713395E+02 -0.36031081451E+02  0.40000000000E+02  0.47000000000E+01 0. -1.
         -5    1    3    3    0  501  0.29689795042E+01  0.16457713395E+02  0.36031081451E+02  0.40000000000E+02  0.47000000000E+01 0.  1.
</event>
<event>
 5    1  0.4833967E-001  0.8000000E+02  0.7546771E-02  0.1203772E+00
         11   -1    0    0    0    0  0.00000000000E+00  0.00000000000E+00  0.40000000000E+02  0.40000000000E+02  0.00000000000E+00 0. -1.
        -11   -1    0    0    0    0 -0.00000000000E+00 -0.00000000000E+00 -0.40000000000E+02  0.40000000000E+02  0.00000000000E+00 0.  1.
         23    2    1    2    0    0  0.00000000000E+00  0.00000000000E+00  0.00000000000E+00  0.80000000000E+02  0.80000000000E+02 0.  0.
          5    1    3    3  501    0  0.10868167556E+02  0.10518161528E+02  0.36730929910E+02  0.40000000000E+02  0.47000000000E+01 0. -1.
         -5    1    3    3    0  501 -0.10868167556E+02 -0.10518161528E+02 -0.36730929910E+02  0.40000000000E+02  0.47000000000E+01 0.  1.
</event>
<event>
 5    1  0.4833967E-001  0.8000000E+02  0.7546771E-02  0.1203772E+00
         11   -1    0    0    0    0  0.00000000000E+00  0.00000000000E+00  0.40000000000E+02  0.40000000000E+02  0.00000000000E+00 0.  1.
        -11   -1    0    0    0    0 -0.00000000000E+00 -0.00000000000E+00 -0.40000000000E+02  0.40000000000E+02  0.00000000000E+00 0. -1.
         23    2    1    2    0    0  0.00000000000E+00  0.00000000000E+00  0.00000000000E+00  0.80000000000E+02  0.80000000000E+02 0.  0.
          5    1    3    3  501    0 -0.34322141133E+02  0.21953573674E+01 -0.19876645444E+02  0.40000000000E+02  0.47000000000E+01 0. -1.
         -5    1    3    3    0  501  0.34322141133E+02 -0.21953573674E+01  0.19876645444E+02  0.40000000000E+02  0.47000000000E+01 0.  1.
</event>
<event>
 5    1  0.4833967E-001  0.8000000E+02  0.7546771E-02  0.1203772E+00
         11   -1    0    0    0    0  0.00000000000E+00  0.00000000000E+00  0.40000000000E+02  0.40000000000E+02  0.00000000000E+00 0.  1.
        -11   -1    0    0    0    0 -0.00000000000E+00 -0.00000000000E+00 -0.40000000000E+02  0.40000000000E+02  0.00000000000E+00 0. -1.
         23    2    1    2    0    0  0.00000000000E+00  0.00000000000E+00  0.00000000000E+00  0.80000000000E+02  0.80000000000E+02 0.  0.
          5    1    3    3  501    0 -0.25129080345E+02  0.10605192813E+02 -0.28878525004E+02  0.40000000000E+02  0.47000000000E+01 0. -1.
         -5    1    3    3    0  501  0.25129080345E+02 -0.10605192813E+02  0.28878525004E+02  0.40000000000E+02  0.47000000000E+01 0.  1.
</event>
<event>
 5    1  0.4833967E-001  0.8000000E+02  0.7546771E-02  0.1203772E+00
         11   -1    0    0    0    0  0.00000000000E+00  0.00000000000E+00  0.40000000000E+02  0.40000000000E+02  0.00000000000E+00 0. -1.
        -11   -1    0    0    0    0 -0.00000000000E+00 -0.00000000000E+00 -0.40000000000E+02  0.40000000000E+02  0.00000000000E+00 0.  1.
         23    2    1    2    0    0  0.00000000000E+00  0.00000000000E+00  0.00000000000E+00  0.80000000000E+02  0.80000000000E+02 0.  0.
          5    1    3    3  501    0  0.69240214408E+01 -0.28117393516E+02 -0.27191544807E+02  0.40000000000E+02  0.47000000000E+01 0. -1.
         -5    1    3    3    0  501 -0.69240214408E+01  0.28117393516E+02  0.27191544807E+02  0.40000000000E+02  0.47000000000E+01 0.  1.
</event>
<event>
 5    1  0.4833967E-001  0.8000000E+02  0.7546771E-02  0.1203772E+00
         11   -1    0    0    0    0  0.00000000000E+00  0.00000000000E+00  0.40000000000E+02  0.40000000000E+02  0.00000000000E+00 0.  1.
        -11   -1    0    0    0    0 -0.00000000000E+00 -0.00000000000E+00 -0.40000000000E+02  0.40000000000E+02  0.00000000000E+00 0. -1.
         23    2    1    2    0    0  0.00000000000E+00  0.00000000000E+00  0.00000000000E+00  0.80000000000E+02  0.80000000000E+02 0.  0.
          5    1    3    3  501    0 -0.28890207454E+02 -0.24145679070E+02 -0.12659071668E+02  0.40000000000E+02  0.47000000000E+01 0. -1.
         -5    1    3    3    0  501  0.28890207454E+02  0.24145679070E+02  0.12659071668E+02  0.40000000000E+02  0.47000000000E+01 0.  1.
</event>
<event>
 5    1  0.4833967E-001  0.8000000E+02  0.7546771E-02  0.1203772E+00
         11   -1    0    0    0    0  0.00000000000E+00  0.00000000000E+00  0.40000000000E+02  0.40000000000E+02  0.00000000000E+00 0.  1.
        -11   -1    0    0    0    0 -0.00000000000E+00 -0.00000000000E+00 -0.40000000000E+02  0.40000000000E+02  0.00000000000E+00 0. -1.
         23    2    1    2    0    0  0.00000000000E+00  0.00000000000E+00  0.00000000000E+00  0.80000000000E+02  0.80000000000E+02 0.  0.
          5    1    3    3  501    0  0.21526170151E+02  0.32211919551E+02 -0.87707603727E+01  0.40000000000E+02  0.47000000000E+01 0. -1.
         -5    1    3    3    0  501 -0.21526170151E+02 -0.32211919551E+02  0.87707603727E+01  0.40000000000E+02  0.47000000000E+01 0.  1.
</event>
<event>
 5    1  0.4833967E-001  0.8000000E+02  0.7546771E-02  0.1203772E+00
         11   -1    0    0    0    0  0.00000000000E+00  0.00000000000E+00  0.40000000000E+02  0.40000000000E+02  0.00000000000E+00 0.  1.
        -11   -1    0    0    0    0 -0.00000000000E+00 -0.00000000000E+00 -0.40000000000E+02  0.40000000000E+02  0.00000000000E+00 0. -1.
         23    2    1    2    0    0  0.00000000000E+00  0.00000000000E+00  0.00000000000E+00  0.80000000000E+02  0.80000000000E+02 0.  0.
          5    1    3    3  501    0 -0.12406532281E+02 -0.33943694957E+02 -0.16486768313E+02  0.40000000000E+02  0.47000000000E+01 0. -1.
         -5    1    3    3    0  501  0.12406532281E+02  0.33943694957E+02  0.16486768313E+02  0.40000000000E+02  0.47000000000E+01 0.  1.
</event>
<event>
 5    1  0.4833967E-001  0.8000000E+02  0.7546771E-02  0.1203772E+00
         11   -1    0    0    0    0  0.00000000000E+00  0.00000000000E+00  0.40000000000E+02  0.40000000000E+02  0.00000000000E+00 0. -1.
        -11   -1    0    0    0    0 -0.00000000000E+00 -0.00000000000E+00 -0.40000000000E+02  0.40000000000E+02  0.00000000000E+00 0.  1.
         23    2    1    2    0    0  0.00000000000E+00  0.00000000000E+00  0.00000000000E+00  0.80000000000E+02  0.80000000000E+02 0.  0.
          5    1    3    3  501    0  0.56012021876E+01 -0.81547344373E+01  0.38471246930E+02  0.40000000000E+02  0.47000000000E+01 0. -1.
         -5    1    3    3    0  501 -0.56012021876E+01  0.81547344373E+01 -0.38471246930E+02  0.40000000000E+02  0.47000000000E+01 0.  1.
</event>
<event>
 5    1  0.4833967E-001  0.8000000E+02  0.7546771E-02  0.1203772E+00
         11   -1    0    0    0    0  0.00000000000E+00  0.00000000000E+00  0.40000000000E+02  0.40000000000E+02  0.00000000000E+00 0.  1.
        -11   -1    0    0    0    0 -0.00000000000E+00 -0.00000000000E+00 -0.40000000000E+02  0.40000000000E+02  0.00000000000E+00 0. -1.
         23    2    1    2    0    0  0.00000000000E+00  0.00000000000E+00  0.00000000000E+00  0.80000000000E+02  0.80000000000E+02 0.  0.
          5    1    3    3  501    0 -0.44862671215E+01 -0.15211802217E+02 -0.36419561785E+02  0.40000000000E+02  0.47000000000E+01 0. -1.
         -5    1    3    3    0  501  0.44862671215E+01  0.15211802217E+02  0.36419561785E+02  0.40000000000E+02  0.47000000000E+01 0.  1.
</event>
<event>
 5    1  0.4833967E-001  0.8000000E+02  0.7546771E-02  0.1203772E+00
         11   -1    0    0    0    0  0.00000000000E+00  0.00000000000E+00  0.40000000000E+02  0.40000000000E+02  0.00000000000E+00 0. -1.
        -11   -1    0    0    0    0 -0.00000000000E+00 -0.00000000000E+00 -0.40000000000E+02  0.40000000000E+02  0.00000000000E+00 0.  1.
         23    2    1    2    0    0  0.00000000000E+00  0.00000000000E+00  0.00000000000E+00  0.80000000000E+02  0.80000000000E+02 0.  0.
          5    1    3    3  501    0  0.34676817631E+01  0.31302083391E+02  0.24208774413E+02  0.40000000000E+02  0.47000000000E+01 0. -1.
         -5    1    3    3    0  501 -0.34676817631E+01 -0.31302083391E+02 -0.24208774413E+02  0.40000000000E+02  0.47000000000E+01 0.  1.
</event>
<event>
 5    1  0.4833967E-001  0.8000000E+02  0.7546771E-02  0.1203772E+00
         11   -1    0    0    0    0  0.00000000000E+00  0.00000000000E+00  0.40000000000E+02  0.40000000000E+02  0.00000000000E+00 0. -1.
        -11   -1    0    0    0    0 -0.00000000000E+00 -0.00000000000E+00 -0.40000000000E+02  0.40000000000E+02  0.00000000000E+00 0.  1.
         23    2    1    2    0    0  0.00000000000E+00  0.00000000000E+00  0.00000000000E+00  0.80000000000E+02  0.80000000000E+02 0.  0.
          5    1    3    3  501    0  0.22788609312E+02 -0.28849252364E+02  0.15043600754E+02  0.40000000000E+02  0.47000000000E+01 0. -1.
         -5    1    3    3    0  501 -0.22788609312E+02  0.28849252364E+02 -0.15043600754E+02  0.40000000000E+02  0.47000000000E+01 0.  1.
</event>
<event>
 5    1  0.4833967E-001  0.8000000E+02  0.7546771E-02  0.1203772E+00
         11   -1    0    0    0    0  0.00000000000E+00  0.00000000000E+00  0.40000000000E+02  0.40000000000E+02  0.00000000000E+00 0.  1.
        -11   -1    0    0    0    0 -0.00000000000E+00 -0.00000000000E+00 -0.40000000000E+02  0.40000000000E+02  0.00000000000E+00 0. -1.
         23    2    1    2    0    0  0.00000000000E+00  0.00000000000E+00  0.00000000000E+00  0.80000000000E+02  0.80000000000E+02 0.  0.
          5    1    3    3  501    0  0.25730004125E+02 -0.15616174083E+02 -0.25923194146E+02  0.40000000000E+02  0.47000000000E+01 0. -1.
         -5    1    3    3    0  501 -0.25730004125E+02  0.15616174083E+02  0.25923194146E+02  0.40000000000E+02  0.47000000000E+01 0.  1.
</event>
<event>
 5    1  0.4833967E-001  0.8000000E+02  0.7546771E-02  0.1203772E+00
         11   -1    0    0    0    0  0.00000000000E+00  0.00000000000E+00  0.40000000000E+02  0.40000000000E+02  0.00000000000E+00 0.  1.
        -11   -1    0    0    0    0 -0.00000000000E+00 -0.00000000000E+00 -0.40000000000E+02  0.40000000000E+02  0.00000000000E+00 0. -1.
         23    2    1    2    0    0  0.00000000000E+00  0.00000000000E+00  0.00000000000E+00  0.80000000000E+02  0.80000000000E+02 0.  0.
          5    1    3    3  501    0  0.36070090617E+02  0.91792485723E+01 -0.13878038714E+02  0.40000000000E+02  0.47000000000E+01 0. -1.
         -5    1    3    3    0  501 -0.36070090617E+02 -0.91792485723E+01  0.13878038714E+02  0.40000000000E+02  0.47000000000E+01 0.  1.
</event>
<event>
 5    1  0.4833967E-001  0.8000000E+02  0.7546771E-02  0.1203772E+00
         11   -1    0    0    0    0  0.00000000000E+00  0.00000000000E+00  0.40000000000E+02  0.40000000000E+02  0.00000000000E+00 0.  1.
        -11   -1    0    0    0    0 -0.00000000000E+00 -0.00000000000E+00 -0.40000000000E+02  0.40000000000E+02  0.00000000000E+00 0. -1.
         23    2    1    2    0    0  0.00000000000E+00  0.00000000000E+00  0.00000000000E+00  0.80000000000E+02  0.80000000000E+02 0.  0.
          5    1    3    3  501    0  0.40746670639E+01  0.37431704028E+02 -0.12656011295E+02  0.40000000000E+02  0.47000000000E+01 0. -1.
         -5    1    3    3    0  501 -0.40746670639E+01 -0.37431704028E+02  0.12656011295E+02  0.40000000000E+02  0.47000000000E+01 0.  1.
</event>
<event>
 5    1  0.4833967E-001  0.8000000E+02  0.7546771E-02  0.1203772E+00
         11   -1    0    0    0    0  0.00000000000E+00  0.00000000000E+00  0.40000000000E+02  0.40000000000E+02  0.00000000000E+00 0. -1.
        -11   -1    0    0    0    0 -0.00000000000E+00 -0.00000000000E+00 -0.40000000000E+02  0.40000000000E+02  0.00000000000E+00 0.  1.
         23    2    1    2    0    0  0.00000000000E+00  0.00000000000E+00  0.00000000000E+00  0.80000000000E+02  0.80000000000E+02 0.  0.
          5    1    3    3  501    0  0.34654293016E+02 -0.10109202415E+02 -0.16576911718E+02  0.40000000000E+02  0.47000000000E+01 0. -1.
         -5    1    3    3    0  501 -0.34654293016E+02  0.10109202415E+02  0.16576911718E+02  0.40000000000E+02  0.47000000000E+01 0.  1.
</event>
<event>
 5    1  0.4833967E-001  0.8000000E+02  0.7546771E-02  0.1203772E+00
         11   -1    0    0    0    0  0.00000000000E+00  0.00000000000E+00  0.40000000000E+02  0.40000000000E+02  0.00000000000E+00 0. -1.
        -11   -1    0    0    0    0 -0.00000000000E+00 -0.00000000000E+00 -0.40000000000E+02  0.40000000000E+02  0.00000000000E+00 0.  1.
         23    2    1    2    0    0  0.00000000000E+00  0.00000000000E+00  0.00000000000E+00  0.80000000000E+02  0.80000000000E+02 0.  0.
          5    1    3    3  501    0  0.11180776117E+02  0.19138992638E+02  0.32963604266E+02  0.40000000000E+02  0.47000000000E+01 0. -1.
         -5    1    3    3    0  501 -0.11180776117E+02 -0.19138992638E+02 -0.32963604266E+02  0.40000000000E+02  0.47000000000E+01 0.  1.
</event>
<event>
 5    1  0.4833967E-001  0.8000000E+02  0.7546771E-02  0.1203772E+00
         11   -1    0    0    0    0  0.00000000000E+00  0.00000000000E+00  0.40000000000E+02  0.40000000000E+02  0.00000000000E+00 0. -1.
        -11   -1    0    0    0    0 -0.00000000000E+00 -0.00000000000E+00 -0.40000000000E+02  0.40000000000E+02  0.00000000000E+00 0.  1.
         23    2    1    2    0    0  0.00000000000E+00  0.00000000000E+00  0.00000000000E+00  0.80000000000E+02  0.80000000000E+02 0.  0.
          5    1    3    3  501    0  0.16195986494E+02  0.24208807771E+02  0.27009880558E+02  0.40000000000E+02  0.47000000000E+01 0. -1.
         -5    1    3    3    0  501 -0.16195986494E+02 -0.24208807771E+02 -0.27009880558E+02  0.40000000000E+02  0.47000000000E+01 0.  1.
</event>
<event>
 5    1  0.4833967E-001  0.8000000E+02  0.7546771E-02  0.1203772E+00
         11   -1    0    0    0    0  0.00000000000E+00  0.00000000000E+00  0.40000000000E+02  0.40000000000E+02  0.00000000000E+00 0. -1.
        -11   -1    0    0    0    0 -0.00000000000E+00 -0.00000000000E+00 -0.40000000000E+02  0.40000000000E+02  0.00000000000E+00 0.  1.
         23    2    1    2    0    0  0.00000000000E+00  0.00000000000E+00  0.00000000000E+00  0.80000000000E+02  0.80000000000E+02 0.  0.
          5    1    3    3  501    0 -0.16968667643E+02  0.29267351992E+02 -0.20818175372E+02  0.40000000000E+02  0.47000000000E+01 0.  1.
         -5    1    3    3    0  501  0.16968667643E+02 -0.29267351992E+02  0.20818175372E+02  0.40000000000E+02  0.47000000000E+01 0. -1.
</event>
<event>
 5    1  0.4833967E-001  0.8000000E+02  0.7546771E-02  0.1203772E+00
         11   -1    0    0    0    0  0.00000000000E+00  0.00000000000E+00  0.40000000000E+02  0.40000000000E+02  0.00000000000E+00 0.  1.
        -11   -1    0    0    0    0 -0.00000000000E+00 -0.00000000000E+00 -0.40000000000E+02  0.40000000000E+02  0.00000000000E+00 0. -1.
         23    2    1    2    0    0  0.00000000000E+00  0.00000000000E+00  0.00000000000E+00  0.80000000000E+02  0.80000000000E+02 0.  0.
          5    1    3    3  501    0 -0.18352579028E+02 -0.27931318886E+02 -0.21469379784E+02  0.40000000000E+02  0.47000000000E+01 0. -1.
         -5    1    3    3    0  501  0.18352579028E+02  0.27931318886E+02  0.21469379784E+02  0.40000000000E+02  0.47000000000E+01 0.  1.
</event>
<event>
 5    1  0.4833967E-001  0.8000000E+02  0.7546771E-02  0.1203772E+00
         11   -1    0    0    0    0  0.00000000000E+00  0.00000000000E+00  0.40000000000E+02  0.40000000000E+02  0.00000000000E+00 0. -1.
        -11   -1    0    0    0    0 -0.00000000000E+00 -0.00000000000E+00 -0.40000000000E+02  0.40000000000E+02  0.00000000000E+00 0.  1.
         23    2    1    2    0    0  0.00000000000E+00  0.00000000000E+00  0.00000000000E+00  0.80000000000E+02  0.80000000000E+02 0.  0.
          5    1    3    3  501    0 -0.12557352600E+01 -0.16875085253E+02  0.35938344796E+02  0.40000000000E+02  0.47000000000E+01 0. -1.
         -5    1    3    3    0  501  0.12557352600E+01  0.16875085253E+02 -0.35938344796E+02  0.40000000000E+02  0.47000000000E+01 0.  1.
</event>
<event>
 5    1  0.4833967E-001  0.8000000E+02  0.7546771E-02  0.1203772E+00
         11   -1    0    0    0    0  0.00000000000E+00  0.00000000000E+00  0.40000000000E+02  0.40000000000E+02  0.00000000000E+00 0.  1.
        -11   -1    0    0    0    0 -0.00000000000E+00 -0.00000000000E+00 -0.40000000000E+02  0.40000000000E+02  0.00000000000E+00 0. -1.
         23    2    1    2    0    0  0.00000000000E+00  0.00000000000E+00  0.00000000000E+00  0.80000000000E+02  0.80000000000E+02 0.  0.
          5    1    3    3  501    0 -0.19918720761E+02  0.20160151684E+02 -0.27833843560E+02  0.40000000000E+02  0.47000000000E+01 0. -1.
         -5    1    3    3    0  501  0.19918720761E+02 -0.20160151684E+02  0.27833843560E+02  0.40000000000E+02  0.47000000000E+01 0.  1.
</event>
<event>
 5    1  0.4833967E-001  0.8000000E+02  0.7546771E-02  0.1203772E+00
         11   -1    0    0    0    0  0.00000000000E+00  0.00000000000E+00  0.40000000000E+02  0.40000000000E+02  0.00000000000E+00 0. -1.
        -11   -1    0    0    0    0 -0.00000000000E+00 -0.00000000000E+00 -0.40000000000E+02  0.40000000000E+02  0.00000000000E+00 0.  1.
         23    2    1    2    0    0  0.00000000000E+00  0.00000000000E+00  0.00000000000E+00  0.80000000000E+02  0.80000000000E+02 0.  0.
          5    1    3    3  501    0  0.26159829908E+02  0.12802543523E+02  0.27012370842E+02  0.40000000000E+02  0.47000000000E+01 0. -1.
         -5    1    3    3    0  501 -0.26159829908E+02 -0.12802543523E+02 -0.27012370842E+02  0.40000000000E+02  0.47000000000E+01 0.  1.
</event>
<event>
 5    1  0.4833967E-001  0.8000000E+02  0.7546771E-02  0.1203772E+00
         11   -1    0    0    0    0  0.00000000000E+00  0.00000000000E+00  0.40000000000E+02  0.40000000000E+02  0.00000000000E+00 0. -1.
        -11   -1    0    0    0    0 -0.00000000000E+00 -0.00000000000E+00 -0.40000000000E+02  0.40000000000E+02  0.00000000000E+00 0.  1.
         23    2    1    2    0    0  0.00000000000E+00  0.00000000000E+00  0.00000000000E+00  0.80000000000E+02  0.80000000000E+02 0.  0.
          5    1    3    3  501    0 -0.36475467261E+02 -0.89230357389E+01 -0.12954911087E+02  0.40000000000E+02  0.47000000000E+01 0. -1.
         -5    1    3    3    0  501  0.36475467261E+02  0.89230357389E+01  0.12954911087E+02  0.40000000000E+02  0.47000000000E+01 0.  1.
</event>
<event>
 5    1  0.4833967E-001  0.8000000E+02  0.7546771E-02  0.1203772E+00
         11   -1    0    0    0    0  0.00000000000E+00  0.00000000000E+00  0.40000000000E+02  0.40000000000E+02  0.00000000000E+00 0.  1.
        -11   -1    0    0    0    0 -0.00000000000E+00 -0.00000000000E+00 -0.40000000000E+02  0.40000000000E+02  0.00000000000E+00 0. -1.
         23    2    1    2    0    0  0.00000000000E+00  0.00000000000E+00  0.00000000000E+00  0.80000000000E+02  0.80000000000E+02 0.  0.
          5    1    3    3  501    0 -0.31285454140E+02  0.92175375126E+01 -0.22675258796E+02  0.40000000000E+02  0.47000000000E+01 0. -1.
         -5    1    3    3    0  501  0.31285454140E+02 -0.92175375126E+01  0.22675258796E+02  0.40000000000E+02  0.47000000000E+01 0.  1.
</event>
<event>
 5    1  0.4833967E-001  0.8000000E+02  0.7546771E-02  0.1203772E+00
         11   -1    0    0    0    0  0.00000000000E+00  0.00000000000E+00  0.40000000000E+02  0.40000000000E+02  0.00000000000E+00 0.  1.
        -11   -1    0    0    0    0 -0.00000000000E+00 -0.00000000000E+00 -0.40000000000E+02  0.40000000000E+02  0.00000000000E+00 0. -1.
         23    2    1    2    0    0  0.00000000000E+00  0.00000000000E+00  0.00000000000E+00  0.80000000000E+02  0.80000000000E+02 0.  0.
          5    1    3    3  501    0  0.13373091293E+02 -0.21070567280E+02 -0.30904718471E+02  0.40000000000E+02  0.47000000000E+01 0. -1.
         -5    1    3    3    0  501 -0.13373091293E+02  0.21070567280E+02  0.30904718471E+02  0.40000000000E+02  0.47000000000E+01 0.  1.
</event>
<event>
 5    1  0.4833967E-001  0.8000000E+02  0.7546771E-02  0.1203772E+00
         11   -1    0    0    0    0  0.00000000000E+00  0.00000000000E+00  0.40000000000E+02  0.40000000000E+02  0.00000000000E+00 0.  1.
        -11   -1    0    0    0    0 -0.00000000000E+00 -0.00000000000E+00 -0.40000000000E+02  0.40000000000E+02  0.00000000000E+00 0. -1.
         23    2    1    2    0    0  0.00000000000E+00  0.00000000000E+00  0.00000000000E+00  0.80000000000E+02  0.80000000000E+02 0.  0.
          5    1    3    3  501    0  0.24385908824E+02 -0.30675212123E+02 -0.65014469201E+01  0.40000000000E+02  0.47000000000E+01 0. -1.
         -5    1    3    3    0  501 -0.24385908824E+02  0.30675212123E+02  0.65014469201E+01  0.40000000000E+02  0.47000000000E+01 0.  1.
</event>
<event>
 5    1  0.4833967E-001  0.8000000E+02  0.7546771E-02  0.1203772E+00
         11   -1    0    0    0    0  0.00000000000E+00  0.00000000000E+00  0.40000000000E+02  0.40000000000E+02  0.00000000000E+00 0.  1.
        -11   -1    0    0    0    0 -0.00000000000E+00 -0.00000000000E+00 -0.40000000000E+02  0.40000000000E+02  0.00000000000E+00 0. -1.
         23    2    1    2    0    0  0.00000000000E+00  0.00000000000E+00  0.00000000000E+00  0.80000000000E+02  0.80000000000E+02 0.  0.
          5    1    3    3  501    0  0.22598520934E+02 -0.18710508824E+02 -0.26779352329E+02  0.40000000000E+02  0.47000000000E+01 0. -1.
         -5    1    3    3    0  501 -0.22598520934E+02  0.18710508824E+02  0.26779352329E+02  0.40000000000E+02  0.47000000000E+01 0.  1.
</event>
<event>
 5    1  0.4833967E-001  0.8000000E+02  0.7546771E-02  0.1203772E+00
         11   -1    0    0    0    0  0.00000000000E+00  0.00000000000E+00  0.40000000000E+02  0.40000000000E+02  0.00000000000E+00 0.  1.
        -11   -1    0    0    0    0 -0.00000000000E+00 -0.00000000000E+00 -0.40000000000E+02  0.40000000000E+02  0.00000000000E+00 0. -1.
         23    2    1    2    0    0  0.00000000000E+00  0.00000000000E+00  0.00000000000E+00  0.80000000000E+02  0.80000000000E+02 0.  0.
          5    1    3    3  501    0 -0.33150337928E+02  0.21103041176E+02 -0.57988575085E+01  0.40000000000E+02  0.47000000000E+01 0. -1.
         -5    1    3    3    0  501  0.33150337928E+02 -0.21103041176E+02  0.57988575085E+01  0.40000000000E+02  0.47000000000E+01 0.  1.
</event>
<event>
 5    1  0.4833967E-001  0.8000000E+02  0.7546771E-02  0.1203772E+00
         11   -1    0    0    0    0  0.00000000000E+00  0.00000000000E+00  0.40000000000E+02  0.40000000000E+02  0.00000000000E+00 0.  1.
        -11   -1    0    0    0    0 -0.00000000000E+00 -0.00000000000E+00 -0.40000000000E+02  0.40000000000E+02  0.00000000000E+00 0. -1.
         23    2    1    2    0    0  0.00000000000E+00  0.00000000000E+00  0.00000000000E+00  0.80000000000E+02  0.80000000000E+02 0.  0.
          5    1    3    3  501    0 -0.27018956387E+02  0.24187429959E+02  0.16212779766E+02  0.40000000000E+02  0.47000000000E+01 0. -1.
         -5    1    3    3    0  501  0.27018956387E+02 -0.24187429959E+02 -0.16212779766E+02  0.40000000000E+02  0.47000000000E+01 0.  1.
</event>
<event>
 5    1  0.4833967E-001  0.8000000E+02  0.7546771E-02  0.1203772E+00
         11   -1    0    0    0    0  0.00000000000E+00  0.00000000000E+00  0.40000000000E+02  0.40000000000E+02  0.00000000000E+00 0.  1.
        -11   -1    0    0    0    0 -0.00000000000E+00 -0.00000000000E+00 -0.40000000000E+02  0.40000000000E+02  0.00000000000E+00 0. -1.
         23    2    1    2    0    0  0.00000000000E+00  0.00000000000E+00  0.00000000000E+00  0.80000000000E+02  0.80000000000E+02 0.  0.
          5    1    3    3  501    0  0.37709213582E+02  0.11038297612E+02 -0.58379103162E+01  0.40000000000E+02  0.47000000000E+01 0. -1.
         -5    1    3    3    0  501 -0.37709213582E+02 -0.11038297612E+02  0.58379103162E+01  0.40000000000E+02  0.47000000000E+01 0.  1.
</event>
<event>
 5    1  0.4833967E-001  0.8000000E+02  0.7546771E-02  0.1203772E+00
         11   -1    0    0    0    0  0.00000000000E+00  0.00000000000E+00  0.40000000000E+02  0.40000000000E+02  0.00000000000E+00 0. -1.
        -11   -1    0    0    0    0 -0.00000000000E+00 -0.00000000000E+00 -0.40000000000E+02  0.40000000000E+02  0.00000000000E+00 0.  1.
         23    2    1    2    0    0  0.00000000000E+00  0.00000000000E+00  0.00000000000E+00  0.80000000000E+02  0.80000000000E+02 0.  0.
          5    1    3    3  501    0  0.66961317593E+01 -0.16087828672E+01  0.39121396155E+02  0.40000000000E+02  0.47000000000E+01 0. -1.
         -5    1    3    3    0  501 -0.66961317593E+01  0.16087828672E+01 -0.39121396155E+02  0.40000000000E+02  0.47000000000E+01 0.  1.
</event>
<event>
 5    1  0.4833967E-001  0.8000000E+02  0.7546771E-02  0.1203772E+00
         11   -1    0    0    0    0  0.00000000000E+00  0.00000000000E+00  0.40000000000E+02  0.40000000000E+02  0.00000000000E+00 0. -1.
        -11   -1    0    0    0    0 -0.00000000000E+00 -0.00000000000E+00 -0.40000000000E+02  0.40000000000E+02  0.00000000000E+00 0.  1.
         23    2    1    2    0    0  0.00000000000E+00  0.00000000000E+00  0.00000000000E+00  0.80000000000E+02  0.80000000000E+02 0.  0.
          5    1    3    3  501    0 -0.12929362571E+02  0.27025150817E+02  0.26084148574E+02  0.40000000000E+02  0.47000000000E+01 0. -1.
         -5    1    3    3    0  501  0.12929362571E+02 -0.27025150817E+02 -0.26084148574E+02  0.40000000000E+02  0.47000000000E+01 0.  1.
</event>
<event>
 5    1  0.4833967E-001  0.8000000E+02  0.7546771E-02  0.1203772E+00
         11   -1    0    0    0    0  0.00000000000E+00  0.00000000000E+00  0.40000000000E+02  0.40000000000E+02  0.00000000000E+00 0.  1.
        -11   -1    0    0    0    0 -0.00000000000E+00 -0.00000000000E+00 -0.40000000000E+02  0.40000000000E+02  0.00000000000E+00 0. -1.
         23    2    1    2    0    0  0.00000000000E+00  0.00000000000E+00  0.00000000000E+00  0.80000000000E+02  0.80000000000E+02 0.  0.
          5    1    3    3  501    0  0.21100328676E+02  0.30045248294E+02 -0.15164734905E+02  0.40000000000E+02  0.47000000000E+01 0. -1.
         -5    1    3    3    0  501 -0.21100328676E+02 -0.30045248294E+02  0.15164734905E+02  0.40000000000E+02  0.47000000000E+01 0.  1.
</event>
<event>
 5    1  0.4833967E-001  0.8000000E+02  0.7546771E-02  0.1203772E+00
         11   -1    0    0    0    0  0.00000000000E+00  0.00000000000E+00  0.40000000000E+02  0.40000000000E+02  0.00000000000E+00 0. -1.
        -11   -1    0    0    0    0 -0.00000000000E+00 -0.00000000000E+00 -0.40000000000E+02  0.40000000000E+02  0.00000000000E+00 0.  1.
         23    2    1    2    0    0  0.00000000000E+00  0.00000000000E+00  0.00000000000E+00  0.80000000000E+02  0.80000000000E+02 0.  0.
          5    1    3    3  501    0 -0.50730601639E+01  0.37680458471E+02  0.11504656015E+02  0.40000000000E+02  0.47000000000E+01 0. -1.
         -5    1    3    3    0  501  0.50730601639E+01 -0.37680458471E+02 -0.11504656015E+02  0.40000000000E+02  0.47000000000E+01 0.  1.
</event>
<event>
 5    1  0.4833967E-001  0.8000000E+02  0.7546771E-02  0.1203772E+00
         11   -1    0    0    0    0  0.00000000000E+00  0.00000000000E+00  0.40000000000E+02  0.40000000000E+02  0.00000000000E+00 0. -1.
        -11   -1    0    0    0    0 -0.00000000000E+00 -0.00000000000E+00 -0.40000000000E+02  0.40000000000E+02  0.00000000000E+00 0.  1.
         23    2    1    2    0    0  0.00000000000E+00  0.00000000000E+00  0.00000000000E+00  0.80000000000E+02  0.80000000000E+02 0.  0.
          5    1    3    3  501    0 -0.30535572227E+02 -0.85698835161E+01  0.23917481583E+02  0.40000000000E+02  0.47000000000E+01 0. -1.
         -5    1    3    3    0  501  0.30535572227E+02  0.85698835161E+01 -0.23917481583E+02  0.40000000000E+02  0.47000000000E+01 0.  1.
</event>
<event>
 5    1  0.4833967E-001  0.8000000E+02  0.7546771E-02  0.1203772E+00
         11   -1    0    0    0    0  0.00000000000E+00  0.00000000000E+00  0.40000000000E+02  0.40000000000E+02  0.00000000000E+00 0. -1.
        -11   -1    0    0    0    0 -0.00000000000E+00 -0.00000000000E+00 -0.40000000000E+02  0.40000000000E+02  0.00000000000E+00 0.  1.
         23    2    1    2    0    0  0.00000000000E+00  0.00000000000E+00  0.00000000000E+00  0.80000000000E+02  0.80000000000E+02 0.  0.
          5    1    3    3  501    0 -0.28842139646E+02  0.23813636077E+02  0.13377283634E+02  0.40000000000E+02  0.47000000000E+01 0. -1.
         -5    1    3    3    0  501  0.28842139646E+02 -0.23813636077E+02 -0.13377283634E+02  0.40000000000E+02  0.47000000000E+01 0.  1.
</event>
<event>
 5    1  0.4833967E-001  0.8000000E+02  0.7546771E-02  0.1203772E+00
         11   -1    0    0    0    0  0.00000000000E+00  0.00000000000E+00  0.40000000000E+02  0.40000000000E+02  0.00000000000E+00 0. -1.
        -11   -1    0    0    0    0 -0.00000000000E+00 -0.00000000000E+00 -0.40000000000E+02  0.40000000000E+02  0.00000000000E+00 0.  1.
         23    2    1    2    0    0  0.00000000000E+00  0.00000000000E+00  0.00000000000E+00  0.80000000000E+02  0.80000000000E+02 0.  0.
          5    1    3    3  501    0 -0.20357090442E+02  0.27301400058E+02 -0.20448286569E+02  0.40000000000E+02  0.47000000000E+01 0.  1.
         -5    1    3    3    0  501  0.20357090442E+02 -0.27301400058E+02  0.20448286569E+02  0.40000000000E+02  0.47000000000E+01 0. -1.
</event>
<event>
 5    1  0.4833967E-001  0.8000000E+02  0.7546771E-02  0.1203772E+00
         11   -1    0    0    0    0  0.00000000000E+00  0.00000000000E+00  0.40000000000E+02  0.40000000000E+02  0.00000000000E+00 0. -1.
        -11   -1    0    0    0    0 -0.00000000000E+00 -0.00000000000E+00 -0.40000000000E+02  0.40000000000E+02  0.00000000000E+00 0.  1.
         23    2    1    2    0    0  0.00000000000E+00  0.00000000000E+00  0.00000000000E+00  0.80000000000E+02  0.80000000000E+02 0.  0.
          5    1    3    3  501    0 -0.31827985572E+02  0.48964705514E+01  0.23257555988E+02  0.40000000000E+02  0.47000000000E+01 0. -1.
         -5    1    3    3    0  501  0.31827985572E+02 -0.48964705514E+01 -0.23257555988E+02  0.40000000000E+02  0.47000000000E+01 0.  1.
</event>
<event>
 5    1  0.4833967E-001  0.8000000E+02  0.7546771E-02  0.1203772E+00
         11   -1    0    0    0    0  0.00000000000E+00  0.00000000000E+00  0.40000000000E+02  0.40000000000E+02  0.00000000000E+00 0.  1.
        -11   -1    0    0    0    0 -0.00000000000E+00 -0.00000000000E+00 -0.40000000000E+02  0.40000000000E+02  0.00000000000E+00 0. -1.
         23    2    1    2    0    0  0.00000000000E+00  0.00000000000E+00  0.00000000000E+00  0.80000000000E+02  0.80000000000E+02 0.  0.
          5    1    3    3  501    0  0.21287129793E+01  0.35499454443E+02  0.17696533992E+02  0.40000000000E+02  0.47000000000E+01 0. -1.
         -5    1    3    3    0  501 -0.21287129793E+01 -0.35499454443E+02 -0.17696533992E+02  0.40000000000E+02  0.47000000000E+01 0.  1.
</event>
<event>
 5    1  0.4833967E-001  0.8000000E+02  0.7546771E-02  0.1203772E+00
         11   -1    0    0    0    0  0.00000000000E+00  0.00000000000E+00  0.40000000000E+02  0.40000000000E+02  0.00000000000E+00 0. -1.
        -11   -1    0    0    0    0 -0.00000000000E+00 -0.00000000000E+00 -0.40000000000E+02  0.40000000000E+02  0.00000000000E+00 0.  1.
         23    2    1    2    0    0  0.00000000000E+00  0.00000000000E+00  0.00000000000E+00  0.80000000000E+02  0.80000000000E+02 0.  0.
          5    1    3    3  501    0  0.17804796762E+02  0.10814858340E+02  0.33822153263E+02  0.40000000000E+02  0.47000000000E+01 0. -1.
         -5    1    3    3    0  501 -0.17804796762E+02 -0.10814858340E+02 -0.33822153263E+02  0.40000000000E+02  0.47000000000E+01 0.  1.
</event>
<event>
 5    1  0.4833967E-001  0.8000000E+02  0.7546771E-02  0.1203772E+00
         11   -1    0    0    0    0  0.00000000000E+00  0.00000000000E+00  0.40000000000E+02  0.40000000000E+02  0.00000000000E+00 0. -1.
        -11   -1    0    0    0    0 -0.00000000000E+00 -0.00000000000E+00 -0.40000000000E+02  0.40000000000E+02  0.00000000000E+00 0.  1.
         23    2    1    2    0    0  0.00000000000E+00  0.00000000000E+00  0.00000000000E+00  0.80000000000E+02  0.80000000000E+02 0.  0.
          5    1    3    3  501    0  0.12560860541E+02  0.70073334309E+01  0.37027450097E+02  0.40000000000E+02  0.47000000000E+01 0. -1.
         -5    1    3    3    0  501 -0.12560860541E+02 -0.70073334309E+01 -0.37027450097E+02  0.40000000000E+02  0.47000000000E+01 0.  1.
</event>
<event>
 5    1  0.4833967E-001  0.8000000E+02  0.7546771E-02  0.1203772E+00
         11   -1    0    0    0    0  0.00000000000E+00  0.00000000000E+00  0.40000000000E+02  0.40000000000E+02  0.00000000000E+00 0.  1.
        -11   -1    0    0    0    0 -0.00000000000E+00 -0.00000000000E+00 -0.40000000000E+02  0.40000000000E+02  0.00000000000E+00 0. -1.
         23    2    1    2    0    0  0.00000000000E+00  0.00000000000E+00  0.00000000000E+00  0.80000000000E+02  0.80000000000E+02 0.  0.
          5    1    3    3  501    0  0.14985764034E+02 -0.23918307088E+02 -0.27950875878E+02  0.40000000000E+02  0.47000000000E+01 0. -1.
         -5    1    3    3    0  501 -0.14985764034E+02  0.23918307088E+02  0.27950875878E+02  0.40000000000E+02  0.47000000000E+01 0.  1.
</event>
<event>
 5    1  0.4833967E-001  0.8000000E+02  0.7546771E-02  0.1203772E+00
         11   -1    0    0    0    0  0.00000000000E+00  0.00000000000E+00  0.40000000000E+02  0.40000000000E+02  0.00000000000E+00 0.  1.
        -11   -1    0    0    0    0 -0.00000000000E+00 -0.00000000000E+00 -0.40000000000E+02  0.40000000000E+02  0.00000000000E+00 0. -1.
         23    2    1    2    0    0  0.00000000000E+00  0.00000000000E+00  0.00000000000E+00  0.80000000000E+02  0.80000000000E+02 0.  0.
          5    1    3    3  501    0  0.20802919038E+02 -0.30722168097E+02 -0.14187915524E+02  0.40000000000E+02  0.47000000000E+01 0. -1.
         -5    1    3    3    0  501 -0.20802919038E+02  0.30722168097E+02  0.14187915524E+02  0.40000000000E+02  0.47000000000E+01 0.  1.
</event>
<event>
 5    1  0.4833967E-001  0.8000000E+02  0.7546771E-02  0.1203772E+00
         11   -1    0    0    0    0  0.00000000000E+00  0.00000000000E+00  0.40000000000E+02  0.40000000000E+02  0.00000000000E+00 0. -1.
        -11   -1    0    0    0    0 -0.00000000000E+00 -0.00000000000E+00 -0.40000000000E+02  0.40000000000E+02  0.00000000000E+00 0.  1.
         23    2    1    2    0    0  0.00000000000E+00  0.00000000000E+00  0.00000000000E+00  0.80000000000E+02  0.80000000000E+02 0.  0.
          5    1    3    3  501    0 -0.30254267422E+02 -0.11170353118E+02  0.23190785109E+02  0.40000000000E+02  0.47000000000E+01 0. -1.
         -5    1    3    3    0  501  0.30254267422E+02  0.11170353118E+02 -0.23190785109E+02  0.40000000000E+02  0.47000000000E+01 0.  1.
</event>
<event>
 5    1  0.4833967E-001  0.8000000E+02  0.7546771E-02  0.1203772E+00
         11   -1    0    0    0    0  0.00000000000E+00  0.00000000000E+00  0.40000000000E+02  0.40000000000E+02  0.00000000000E+00 0. -1.
        -11   -1    0    0    0    0 -0.00000000000E+00 -0.00000000000E+00 -0.40000000000E+02  0.40000000000E+02  0.00000000000E+00 0.  1.
         23    2    1    2    0    0  0.00000000000E+00  0.00000000000E+00  0.00000000000E+00  0.80000000000E+02  0.80000000000E+02 0.  0.
          5    1    3    3  501    0  0.25822980769E+02 -0.11308084441E+02 -0.27985905211E+02  0.40000000000E+02  0.47000000000E+01 0.  1.
         -5    1    3    3    0  501 -0.25822980769E+02  0.11308084441E+02  0.27985905211E+02  0.40000000000E+02  0.47000000000E+01 0. -1.
</event>
<event>
 5    1  0.4833967E-001  0.8000000E+02  0.7546771E-02  0.1203772E+00
         11   -1    0    0    0    0  0.00000000000E+00  0.00000000000E+00  0.40000000000E+02  0.40000000000E+02  0.00000000000E+00 0.  1.
        -11   -1    0    0    0    0 -0.00000000000E+00 -0.00000000000E+00 -0.40000000000E+02  0.40000000000E+02  0.00000000000E+00 0. -1.
         23    2    1    2    0    0  0.00000000000E+00  0.00000000000E+00  0.00000000000E+00  0.80000000000E+02  0.80000000000E+02 0.  0.
          5    1    3    3  501    0 -0.33398172489E+02 -0.21376842143E+02  0.23457822554E+01  0.40000000000E+02  0.47000000000E+01 0. -1.
         -5    1    3    3    0  501  0.33398172489E+02  0.21376842143E+02 -0.23457822554E+01  0.40000000000E+02  0.47000000000E+01 0.  1.
</event>
<event>
 5    1  0.4833967E-001  0.8000000E+02  0.7546771E-02  0.1203772E+00
         11   -1    0    0    0    0  0.00000000000E+00  0.00000000000E+00  0.40000000000E+02  0.40000000000E+02  0.00000000000E+00 0.  1.
        -11   -1    0    0    0    0 -0.00000000000E+00 -0.00000000000E+00 -0.40000000000E+02  0.40000000000E+02  0.00000000000E+00 0. -1.
         23    2    1    2    0    0  0.00000000000E+00  0.00000000000E+00  0.00000000000E+00  0.80000000000E+02  0.80000000000E+02 0.  0.
          5    1    3    3  501    0 -0.13927678622E+02 -0.33254314921E+02 -0.16675740083E+02  0.40000000000E+02  0.47000000000E+01 0. -1.
         -5    1    3    3    0  501  0.13927678622E+02  0.33254314921E+02  0.16675740083E+02  0.40000000000E+02  0.47000000000E+01 0.  1.
</event>
<event>
 5    1  0.4833967E-001  0.8000000E+02  0.7546771E-02  0.1203772E+00
         11   -1    0    0    0    0  0.00000000000E+00  0.00000000000E+00  0.40000000000E+02  0.40000000000E+02  0.00000000000E+00 0.  1.
        -11   -1    0    0    0    0 -0.00000000000E+00 -0.00000000000E+00 -0.40000000000E+02  0.40000000000E+02  0.00000000000E+00 0. -1.
         23    2    1    2    0    0  0.00000000000E+00  0.00000000000E+00  0.00000000000E+00  0.80000000000E+02  0.80000000000E+02 0.  0.
          5    1    3    3  501    0  0.40561063754E+01  0.24454885409E+01 -0.39439543441E+02  0.40000000000E+02  0.47000000000E+01 0. -1.
         -5    1    3    3    0  501 -0.40561063754E+01 -0.24454885409E+01  0.39439543441E+02  0.40000000000E+02  0.47000000000E+01 0.  1.
</event>
<event>
 5    1  0.4833967E-001  0.8000000E+02  0.7546771E-02  0.1203772E+00
         11   -1    0    0    0    0  0.00000000000E+00  0.00000000000E+00  0.40000000000E+02  0.40000000000E+02  0.00000000000E+00 0.  1.
        -11   -1    0    0    0    0 -0.00000000000E+00 -0.00000000000E+00 -0.40000000000E+02  0.40000000000E+02  0.00000000000E+00 0. -1.
         23    2    1    2    0    0  0.00000000000E+00  0.00000000000E+00  0.00000000000E+00  0.80000000000E+02  0.80000000000E+02 0.  0.
          5    1    3    3  501    0 -0.12476102761E+02  0.33430976750E+02 -0.17453557043E+02  0.40000000000E+02  0.47000000000E+01 0. -1.
         -5    1    3    3    0  501  0.12476102761E+02 -0.33430976750E+02  0.17453557043E+02  0.40000000000E+02  0.47000000000E+01 0.  1.
</event>
<event>
 5    1  0.4833967E-001  0.8000000E+02  0.7546771E-02  0.1203772E+00
         11   -1    0    0    0    0  0.00000000000E+00  0.00000000000E+00  0.40000000000E+02  0.40000000000E+02  0.00000000000E+00 0.  1.
        -11   -1    0    0    0    0 -0.00000000000E+00 -0.00000000000E+00 -0.40000000000E+02  0.40000000000E+02  0.00000000000E+00 0. -1.
         23    2    1    2    0    0  0.00000000000E+00  0.00000000000E+00  0.00000000000E+00  0.80000000000E+02  0.80000000000E+02 0.  0.
          5    1    3    3  501    0 -0.32872968539E+02 -0.74892354932E+01 -0.21004506450E+02  0.40000000000E+02  0.47000000000E+01 0. -1.
         -5    1    3    3    0  501  0.32872968539E+02  0.74892354932E+01  0.21004506450E+02  0.40000000000E+02  0.47000000000E+01 0.  1.
</event>
<event>
 5    1  0.4833967E-001  0.8000000E+02  0.7546771E-02  0.1203772E+00
         11   -1    0    0    0    0  0.00000000000E+00  0.00000000000E+00  0.40000000000E+02  0.40000000000E+02  0.00000000000E+00 0.  1.
        -11   -1    0    0    0    0 -0.00000000000E+00 -0.00000000000E+00 -0.40000000000E+02  0.40000000000E+02  0.00000000000E+00 0. -1.
         23    2    1    2    0    0  0.00000000000E+00  0.00000000000E+00  0.00000000000E+00  0.80000000000E+02  0.80000000000E+02 0.  0.
          5    1    3    3  501    0  0.12172515867E+02  0.83263298773E+01 -0.36883764562E+02  0.40000000000E+02  0.47000000000E+01 0. -1.
         -5    1    3    3    0  501 -0.12172515867E+02 -0.83263298773E+01  0.36883764562E+02  0.40000000000E+02  0.47000000000E+01 0.  1.
</event>
<event>
 5    1  0.4833967E-001  0.8000000E+02  0.7546771E-02  0.1203772E+00
         11   -1    0    0    0    0  0.00000000000E+00  0.00000000000E+00  0.40000000000E+02  0.40000000000E+02  0.00000000000E+00 0. -1.
        -11   -1    0    0    0    0 -0.00000000000E+00 -0.00000000000E+00 -0.40000000000E+02  0.40000000000E+02  0.00000000000E+00 0.  1.
         23    2    1    2    0    0  0.00000000000E+00  0.00000000000E+00  0.00000000000E+00  0.80000000000E+02  0.80000000000E+02 0.  0.
          5    1    3    3  501    0  0.11124285017E+01 -0.17644554919E+02  0.35571648606E+02  0.40000000000E+02  0.47000000000E+01 0. -1.
         -5    1    3    3    0  501 -0.11124285017E+01  0.17644554919E+02 -0.35571648606E+02  0.40000000000E+02  0.47000000000E+01 0.  1.
</event>
<event>
 5    1  0.4833967E-001  0.8000000E+02  0.7546771E-02  0.1203772E+00
         11   -1    0    0    0    0  0.00000000000E+00  0.00000000000E+00  0.40000000000E+02  0.40000000000E+02  0.00000000000E+00 0. -1.
        -11   -1    0    0    0    0 -0.00000000000E+00 -0.00000000000E+00 -0.40000000000E+02  0.40000000000E+02  0.00000000000E+00 0.  1.
         23    2    1    2    0    0  0.00000000000E+00  0.00000000000E+00  0.00000000000E+00  0.80000000000E+02  0.80000000000E+02 0.  0.
          5    1    3    3  501    0  0.33162563795E+02 -0.31496238322E+01  0.21638720670E+02  0.40000000000E+02  0.47000000000E+01 0. -1.
         -5    1    3    3    0  501 -0.33162563795E+02  0.31496238322E+01 -0.21638720670E+02  0.40000000000E+02  0.47000000000E+01 0.  1.
</event>
<event>
 5    1  0.4833967E-001  0.8000000E+02  0.7546771E-02  0.1203772E+00
         11   -1    0    0    0    0  0.00000000000E+00  0.00000000000E+00  0.40000000000E+02  0.40000000000E+02  0.00000000000E+00 0. -1.
        -11   -1    0    0    0    0 -0.00000000000E+00 -0.00000000000E+00 -0.40000000000E+02  0.40000000000E+02  0.00000000000E+00 0.  1.
         23    2    1    2    0    0  0.00000000000E+00  0.00000000000E+00  0.00000000000E+00  0.80000000000E+02  0.80000000000E+02 0.  0.
          5    1    3    3  501    0 -0.14744727015E+02  0.35292734054E+02 -0.10720352059E+02  0.40000000000E+02  0.47000000000E+01 0. -1.
         -5    1    3    3    0  501  0.14744727015E+02 -0.35292734054E+02  0.10720352059E+02  0.40000000000E+02  0.47000000000E+01 0.  1.
</event>
<event>
 5    1  0.4833967E-001  0.8000000E+02  0.7546771E-02  0.1203772E+00
         11   -1    0    0    0    0  0.00000000000E+00  0.00000000000E+00  0.40000000000E+02  0.40000000000E+02  0.00000000000E+00 0. -1.
        -11   -1    0    0    0    0 -0.00000000000E+00 -0.00000000000E+00 -0.40000000000E+02  0.40000000000E+02  0.00000000000E+00 0.  1.
         23    2    1    2    0    0  0.00000000000E+00  0.00000000000E+00  0.00000000000E+00  0.80000000000E+02  0.80000000000E+02 0.  0.
          5    1    3    3  501    0  0.16099936269E+02  0.61101225779E+01  0.35796207260E+02  0.40000000000E+02  0.47000000000E+01 0. -1.
         -5    1    3    3    0  501 -0.16099936269E+02 -0.61101225779E+01 -0.35796207260E+02  0.40000000000E+02  0.47000000000E+01 0.  1.
</event>
<event>
 5    1  0.4833967E-001  0.8000000E+02  0.7546771E-02  0.1203772E+00
         11   -1    0    0    0    0  0.00000000000E+00  0.00000000000E+00  0.40000000000E+02  0.40000000000E+02  0.00000000000E+00 0.  1.
        -11   -1    0    0    0    0 -0.00000000000E+00 -0.00000000000E+00 -0.40000000000E+02  0.40000000000E+02  0.00000000000E+00 0. -1.
         23    2    1    2    0    0  0.00000000000E+00  0.00000000000E+00  0.00000000000E+00  0.80000000000E+02  0.80000000000E+02 0.  0.
          5    1    3    3  501    0 -0.24037768723E+02 -0.31016191747E+02  0.61718331401E+01  0.40000000000E+02  0.47000000000E+01 0. -1.
         -5    1    3    3    0  501  0.24037768723E+02  0.31016191747E+02 -0.61718331401E+01  0.40000000000E+02  0.47000000000E+01 0.  1.
</event>
<event>
 5    1  0.4833967E-001  0.8000000E+02  0.7546771E-02  0.1203772E+00
         11   -1    0    0    0    0  0.00000000000E+00  0.00000000000E+00  0.40000000000E+02  0.40000000000E+02  0.00000000000E+00 0. -1.
        -11   -1    0    0    0    0 -0.00000000000E+00 -0.00000000000E+00 -0.40000000000E+02  0.40000000000E+02  0.00000000000E+00 0.  1.
         23    2    1    2    0    0  0.00000000000E+00  0.00000000000E+00  0.00000000000E+00  0.80000000000E+02  0.80000000000E+02 0.  0.
          5    1    3    3  501    0  0.36176275610E+02  0.23072302713E+01  0.16243884126E+02  0.40000000000E+02  0.47000000000E+01 0. -1.
         -5    1    3    3    0  501 -0.36176275610E+02 -0.23072302713E+01 -0.16243884126E+02  0.40000000000E+02  0.47000000000E+01 0.  1.
</event>
<event>
 5    1  0.4833967E-001  0.8000000E+02  0.7546771E-02  0.1203772E+00
         11   -1    0    0    0    0  0.00000000000E+00  0.00000000000E+00  0.40000000000E+02  0.40000000000E+02  0.00000000000E+00 0.  1.
        -11   -1    0    0    0    0 -0.00000000000E+00 -0.00000000000E+00 -0.40000000000E+02  0.40000000000E+02  0.00000000000E+00 0. -1.
         23    2    1    2    0    0  0.00000000000E+00  0.00000000000E+00  0.00000000000E+00  0.80000000000E+02  0.80000000000E+02 0.  0.
          5    1    3    3  501    0  0.17496980417E+02 -0.24128779113E+02 -0.26259620995E+02  0.40000000000E+02  0.47000000000E+01 0. -1.
         -5    1    3    3    0  501 -0.17496980417E+02  0.24128779113E+02  0.26259620995E+02  0.40000000000E+02  0.47000000000E+01 0.  1.
</event>
<event>
 5    1  0.4833967E-001  0.8000000E+02  0.7546771E-02  0.1203772E+00
         11   -1    0    0    0    0  0.00000000000E+00  0.00000000000E+00  0.40000000000E+02  0.40000000000E+02  0.00000000000E+00 0.  1.
        -11   -1    0    0    0    0 -0.00000000000E+00 -0.00000000000E+00 -0.40000000000E+02  0.40000000000E+02  0.00000000000E+00 0. -1.
         23    2    1    2    0    0  0.00000000000E+00  0.00000000000E+00  0.00000000000E+00  0.80000000000E+02  0.80000000000E+02 0.  0.
          5    1    3    3  501    0 -0.31032658146E+02  0.21540836065E+02 -0.12283179965E+02  0.40000000000E+02  0.47000000000E+01 0. -1.
         -5    1    3    3    0  501  0.31032658146E+02 -0.21540836065E+02  0.12283179965E+02  0.40000000000E+02  0.47000000000E+01 0.  1.
</event>
<event>
 5    1  0.4833967E-001  0.8000000E+02  0.7546771E-02  0.1203772E+00
         11   -1    0    0    0    0  0.00000000000E+00  0.00000000000E+00  0.40000000000E+02  0.40000000000E+02  0.00000000000E+00 0.  1.
        -11   -1    0    0    0    0 -0.00000000000E+00 -0.00000000000E+00 -0.40000000000E+02  0.40000000000E+02  0.00000000000E+00 0. -1.
         23    2    1    2    0    0  0.00000000000E+00  0.00000000000E+00  0.00000000000E+00  0.80000000000E+02  0.80000000000E+02 0.  0.
          5    1    3    3  501    0 -0.91338607839E+01  0.34995969697E+02 -0.16424514976E+02  0.40000000000E+02  0.47000000000E+01 0. -1.
         -5    1    3    3    0  501  0.91338607839E+01 -0.34995969697E+02  0.16424514976E+02  0.40000000000E+02  0.47000000000E+01 0.  1.
</event>
<event>
 5    1  0.4833967E-001  0.8000000E+02  0.7546771E-02  0.1203772E+00
         11   -1    0    0    0    0  0.00000000000E+00  0.00000000000E+00  0.40000000000E+02  0.40000000000E+02  0.00000000000E+00 0.  1.
        -11   -1    0    0    0    0 -0.00000000000E+00 -0.00000000000E+00 -0.40000000000E+02  0.40000000000E+02  0.00000000000E+00 0. -1.
         23    2    1    2    0    0  0.00000000000E+00  0.00000000000E+00  0.00000000000E+00  0.80000000000E+02  0.80000000000E+02 0.  0.
          5    1    3    3  501    0 -0.27344701950E+02  0.13546799168E+02 -0.25429540058E+02  0.40000000000E+02  0.47000000000E+01 0. -1.
         -5    1    3    3    0  501  0.27344701950E+02 -0.13546799168E+02  0.25429540058E+02  0.40000000000E+02  0.47000000000E+01 0.  1.
</event>
<event>
 5    1  0.4833967E-001  0.8000000E+02  0.7546771E-02  0.1203772E+00
         11   -1    0    0    0    0  0.00000000000E+00  0.00000000000E+00  0.40000000000E+02  0.40000000000E+02  0.00000000000E+00 0.  1.
        -11   -1    0    0    0    0 -0.00000000000E+00 -0.00000000000E+00 -0.40000000000E+02  0.40000000000E+02  0.00000000000E+00 0. -1.
         23    2    1    2    0    0  0.00000000000E+00  0.00000000000E+00  0.00000000000E+00  0.80000000000E+02  0.80000000000E+02 0.  0.
          5    1    3    3  501    0  0.92677451087E+01 -0.13783554006E+01 -0.38602060010E+02  0.40000000000E+02  0.47000000000E+01 0. -1.
         -5    1    3    3    0  501 -0.92677451087E+01  0.13783554006E+01  0.38602060010E+02  0.40000000000E+02  0.47000000000E+01 0.  1.
</event>
<event>
 5    1  0.4833967E-001  0.8000000E+02  0.7546771E-02  0.1203772E+00
         11   -1    0    0    0    0  0.00000000000E+00  0.00000000000E+00  0.40000000000E+02  0.40000000000E+02  0.00000000000E+00 0.  1.
        -11   -1    0    0    0    0 -0.00000000000E+00 -0.00000000000E+00 -0.40000000000E+02  0.40000000000E+02  0.00000000000E+00 0. -1.
         23    2    1    2    0    0  0.00000000000E+00  0.00000000000E+00  0.00000000000E+00  0.80000000000E+02  0.80000000000E+02 0.  0.
          5    1    3    3  501    0 -0.18168048825E+02  0.31498427977E+02 -0.15990029296E+02  0.40000000000E+02  0.47000000000E+01 0. -1.
         -5    1    3    3    0  501  0.18168048825E+02 -0.31498427977E+02  0.15990029296E+02  0.40000000000E+02  0.47000000000E+01 0.  1.
</event>
<event>
 5    1  0.4833967E-001  0.8000000E+02  0.7546771E-02  0.1203772E+00
         11   -1    0    0    0    0  0.00000000000E+00  0.00000000000E+00  0.40000000000E+02  0.40000000000E+02  0.00000000000E+00 0. -1.
        -11   -1    0    0    0    0 -0.00000000000E+00 -0.00000000000E+00 -0.40000000000E+02  0.40000000000E+02  0.00000000000E+00 0.  1.
         23    2    1    2    0    0  0.00000000000E+00  0.00000000000E+00  0.00000000000E+00  0.80000000000E+02  0.80000000000E+02 0.  0.
          5    1    3    3  501    0 -0.37035140960E+02  0.34884516526E+01 -0.13933378598E+02  0.40000000000E+02  0.47000000000E+01 0. -1.
         -5    1    3    3    0  501  0.37035140960E+02 -0.34884516526E+01  0.13933378598E+02  0.40000000000E+02  0.47000000000E+01 0.  1.
</event>
<event>
 5    1  0.4833967E-001  0.8000000E+02  0.7546771E-02  0.1203772E+00
         11   -1    0    0    0    0  0.00000000000E+00  0.00000000000E+00  0.40000000000E+02  0.40000000000E+02  0.00000000000E+00 0. -1.
        -11   -1    0    0    0    0 -0.00000000000E+00 -0.00000000000E+00 -0.40000000000E+02  0.40000000000E+02  0.00000000000E+00 0.  1.
         23    2    1    2    0    0  0.00000000000E+00  0.00000000000E+00  0.00000000000E+00  0.80000000000E+02  0.80000000000E+02 0.  0.
          5    1    3    3  501    0 -0.21956392946E+01  0.12057806455E+02  0.37784897401E+02  0.40000000000E+02  0.47000000000E+01 0. -1.
         -5    1    3    3    0  501  0.21956392946E+01 -0.12057806455E+02 -0.37784897401E+02  0.40000000000E+02  0.47000000000E+01 0.  1.
</event>
<event>
 5    1  0.4833967E-001  0.8000000E+02  0.7546771E-02  0.1203772E+00
         11   -1    0    0    0    0  0.00000000000E+00  0.00000000000E+00  0.40000000000E+02  0.40000000000E+02  0.00000000000E+00 0.  1.
        -11   -1    0    0    0    0 -0.00000000000E+00 -0.00000000000E+00 -0.40000000000E+02  0.40000000000E+02  0.00000000000E+00 0. -1.
         23    2    1    2    0    0  0.00000000000E+00  0.00000000000E+00  0.00000000000E+00  0.80000000000E+02  0.80000000000E+02 0.  0.
          5    1    3    3  501    0 -0.26863908772E+02  0.55064432790E+01 -0.28738815005E+02  0.40000000000E+02  0.47000000000E+01 0. -1.
         -5    1    3    3    0  501  0.26863908772E+02 -0.55064432790E+01  0.28738815005E+02  0.40000000000E+02  0.47000000000E+01 0.  1.
</event>
<event>
 5    1  0.4833967E-001  0.8000000E+02  0.7546771E-02  0.1203772E+00
         11   -1    0    0    0    0  0.00000000000E+00  0.00000000000E+00  0.40000000000E+02  0.40000000000E+02  0.00000000000E+00 0. -1.
        -11   -1    0    0    0    0 -0.00000000000E+00 -0.00000000000E+00 -0.40000000000E+02  0.40000000000E+02  0.00000000000E+00 0.  1.
         23    2    1    2    0    0  0.00000000000E+00  0.00000000000E+00  0.00000000000E+00  0.80000000000E+02  0.80000000000E+02 0.  0.
          5    1    3    3  501    0  0.24793808200E+00 -0.35653951079E+02  0.17511262066E+02  0.40000000000E+02  0.47000000000E+01 0. -1.
         -5    1    3    3    0  501 -0.24793808200E+00  0.35653951079E+02 -0.17511262066E+02  0.40000000000E+02  0.47000000000E+01 0.  1.
</event>
<event>
 5    1  0.4833967E-001  0.8000000E+02  0.7546771E-02  0.1203772E+00
         11   -1    0    0    0    0  0.00000000000E+00  0.00000000000E+00  0.40000000000E+02  0.40000000000E+02  0.00000000000E+00 0. -1.
        -11   -1    0    0    0    0 -0.00000000000E+00 -0.00000000000E+00 -0.40000000000E+02  0.40000000000E+02  0.00000000000E+00 0.  1.
         23    2    1    2    0    0  0.00000000000E+00  0.00000000000E+00  0.00000000000E+00  0.80000000000E+02  0.80000000000E+02 0.  0.
          5    1    3    3  501    0  0.27815309670E+02 -0.65533357640E+01 -0.27591164135E+02  0.40000000000E+02  0.47000000000E+01 0.  1.
         -5    1    3    3    0  501 -0.27815309670E+02  0.65533357640E+01  0.27591164135E+02  0.40000000000E+02  0.47000000000E+01 0. -1.
</event>
<event>
 5    1  0.4833967E-001  0.8000000E+02  0.7546771E-02  0.1203772E+00
         11   -1    0    0    0    0  0.00000000000E+00  0.00000000000E+00  0.40000000000E+02  0.40000000000E+02  0.00000000000E+00 0.  1.
        -11   -1    0    0    0    0 -0.00000000000E+00 -0.00000000000E+00 -0.40000000000E+02  0.40000000000E+02  0.00000000000E+00 0. -1.
         23    2    1    2    0    0  0.00000000000E+00  0.00000000000E+00  0.00000000000E+00  0.80000000000E+02  0.80000000000E+02 0.  0.
          5    1    3    3  501    0 -0.77230425614E+00  0.15068386205E+01 -0.39686811204E+02  0.40000000000E+02  0.47000000000E+01 0. -1.
         -5    1    3    3    0  501  0.77230425614E+00 -0.15068386205E+01  0.39686811204E+02  0.40000000000E+02  0.47000000000E+01 0.  1.
</event>
<event>
 5    1  0.4833967E-001  0.8000000E+02  0.7546771E-02  0.1203772E+00
         11   -1    0    0    0    0  0.00000000000E+00  0.00000000000E+00  0.40000000000E+02  0.40000000000E+02  0.00000000000E+00 0.  1.
        -11   -1    0    0    0    0 -0.00000000000E+00 -0.00000000000E+00 -0.40000000000E+02  0.40000000000E+02  0.00000000000E+00 0. -1.
         23    2    1    2    0    0  0.00000000000E+00  0.00000000000E+00  0.00000000000E+00  0.80000000000E+02  0.80000000000E+02 0.  0.
          5    1    3    3  501    0  0.13349078897E+02 -0.29535352503E+02 -0.22964647725E+02  0.40000000000E+02  0.47000000000E+01 0. -1.
         -5    1    3    3    0  501 -0.13349078897E+02  0.29535352503E+02  0.22964647725E+02  0.40000000000E+02  0.47000000000E+01 0.  1.
</event>
<event>
 5    1  0.4833967E-001  0.8000000E+02  0.7546771E-02  0.1203772E+00
         11   -1    0    0    0    0  0.00000000000E+00  0.00000000000E+00  0.40000000000E+02  0.40000000000E+02  0.00000000000E+00 0. -1.
        -11   -1    0    0    0    0 -0.00000000000E+00 -0.00000000000E+00 -0.40000000000E+02  0.40000000000E+02  0.00000000000E+00 0.  1.
         23    2    1    2    0    0  0.00000000000E+00  0.00000000000E+00  0.00000000000E+00  0.80000000000E+02  0.80000000000E+02 0.  0.
          5    1    3    3  501    0  0.33773021598E+02 -0.19956631676E+02 -0.62470684572E+01  0.40000000000E+02  0.47000000000E+01 0. -1.
         -5    1    3    3    0  501 -0.33773021598E+02  0.19956631676E+02  0.62470684572E+01  0.40000000000E+02  0.47000000000E+01 0.  1.
</event>
<event>
 5    1  0.4833967E-001  0.8000000E+02  0.7546771E-02  0.1203772E+00
         11   -1    0    0    0    0  0.00000000000E+00  0.00000000000E+00  0.40000000000E+02  0.40000000000E+02  0.00000000000E+00 0. -1.
        -11   -1    0    0    0    0 -0.00000000000E+00 -0.00000000000E+00 -0.40000000000E+02  0.40000000000E+02  0.00000000000E+00 0.  1.
         23    2    1    2    0    0  0.00000000000E+00  0.00000000000E+00  0.00000000000E+00  0.80000000000E+02  0.80000000000E+02 0.  0.
          5    1    3    3  501    0 -0.52248068910E+01 -0.14755087798E+02  0.36508886275E+02  0.40000000000E+02  0.47000000000E+01 0. -1.
         -5    1    3    3    0  501  0.52248068910E+01  0.14755087798E+02 -0.36508886275E+02  0.40000000000E+02  0.47000000000E+01 0.  1.
</event>
<event>
 5    1  0.4833967E-001  0.8000000E+02  0.7546771E-02  0.1203772E+00
         11   -1    0    0    0    0  0.00000000000E+00  0.00000000000E+00  0.40000000000E+02  0.40000000000E+02  0.00000000000E+00 0.  1.
        -11   -1    0    0    0    0 -0.00000000000E+00 -0.00000000000E+00 -0.40000000000E+02  0.40000000000E+02  0.00000000000E+00 0. -1.
         23    2    1    2    0    0  0.00000000000E+00  0.00000000000E+00  0.00000000000E+00  0.80000000000E+02  0.80000000000E+02 0.  0.
          5    1    3    3  501    0  0.35351573974E+02 -0.17877012405E+01 -0.18027211149E+02  0.40000000000E+02  0.47000000000E+01 0. -1.
         -5    1    3    3    0  501 -0.35351573974E+02  0.17877012405E+01  0.18027211149E+02  0.40000000000E+02  0.47000000000E+01 0.  1.
</event>
<event>
 5    1  0.4833967E-001  0.8000000E+02  0.7546771E-02  0.1203772E+00
         11   -1    0    0    0    0  0.00000000000E+00  0.00000000000E+00  0.40000000000E+02  0.40000000000E+02  0.00000000000E+00 0.  1.
        -11   -1    0    0    0    0 -0.00000000000E+00 -0.00000000000E+00 -0.40000000000E+02  0.40000000000E+02  0.00000000000E+00 0. -1.
         23    2    1    2    0    0  0.00000000000E+00  0.00000000000E+00  0.00000000000E+00  0.80000000000E+02  0.80000000000E+02 0.  0.
          5    1    3    3  501    0  0.18170698679E+02 -0.35365351892E+01 -0.35145819501E+02  0.40000000000E+02  0.47000000000E+01 0. -1.
         -5    1    3    3    0  501 -0.18170698679E+02  0.35365351892E+01  0.35145819501E+02  0.40000000000E+02  0.47000000000E+01 0.  1.
</event>
<event>
 5    1  0.4833967E-001  0.8000000E+02  0.7546771E-02  0.1203772E+00
         11   -1    0    0    0    0  0.00000000000E+00  0.00000000000E+00  0.40000000000E+02  0.40000000000E+02  0.00000000000E+00 0. -1.
        -11   -1    0    0    0    0 -0.00000000000E+00 -0.00000000000E+00 -0.40000000000E+02  0.40000000000E+02  0.00000000000E+00 0.  1.
         23    2    1    2    0    0  0.00000000000E+00  0.00000000000E+00  0.00000000000E+00  0.80000000000E+02  0.80000000000E+02 0.  0.
          5    1    3    3  501    0 -0.49371262896E+01  0.38471362180E+02  0.85725769781E+01  0.40000000000E+02  0.47000000000E+01 0. -1.
         -5    1    3    3    0  501  0.49371262896E+01 -0.38471362180E+02 -0.85725769781E+01  0.40000000000E+02  0.47000000000E+01 0.  1.
</event>
<event>
 5    1  0.4833967E-001  0.8000000E+02  0.7546771E-02  0.1203772E+00
         11   -1    0    0    0    0  0.00000000000E+00  0.00000000000E+00  0.40000000000E+02  0.40000000000E+02  0.00000000000E+00 0.  1.
        -11   -1    0    0    0    0 -0.00000000000E+00 -0.00000000000E+00 -0.40000000000E+02  0.40000000000E+02  0.00000000000E+00 0. -1.
         23    2    1    2    0    0  0.00000000000E+00  0.00000000000E+00  0.00000000000E+00  0.80000000000E+02  0.80000000000E+02 0.  0.
          5    1    3    3  501    0 -0.16528024308E+02 -0.14278486152E+02 -0.33179198991E+02  0.40000000000E+02  0.47000000000E+01 0. -1.
         -5    1    3    3    0  501  0.16528024308E+02  0.14278486152E+02  0.33179198991E+02  0.40000000000E+02  0.47000000000E+01 0.  1.
</event>
<event>
 5    1  0.4833967E-001  0.8000000E+02  0.7546771E-02  0.1203772E+00
         11   -1    0    0    0    0  0.00000000000E+00  0.00000000000E+00  0.40000000000E+02  0.40000000000E+02  0.00000000000E+00 0. -1.
        -11   -1    0    0    0    0 -0.00000000000E+00 -0.00000000000E+00 -0.40000000000E+02  0.40000000000E+02  0.00000000000E+00 0.  1.
         23    2    1    2    0    0  0.00000000000E+00  0.00000000000E+00  0.00000000000E+00  0.80000000000E+02  0.80000000000E+02 0.  0.
          5    1    3    3  501    0 -0.77102868978E+01  0.23000323255E+02  0.31455470210E+02  0.40000000000E+02  0.47000000000E+01 0. -1.
         -5    1    3    3    0  501  0.77102868978E+01 -0.23000323255E+02 -0.31455470210E+02  0.40000000000E+02  0.47000000000E+01 0.  1.
</event>
<event>
 5    1  0.4833967E-001  0.8000000E+02  0.7546771E-02  0.1203772E+00
         11   -1    0    0    0    0  0.00000000000E+00  0.00000000000E+00  0.40000000000E+02  0.40000000000E+02  0.00000000000E+00 0.  1.
        -11   -1    0    0    0    0 -0.00000000000E+00 -0.00000000000E+00 -0.40000000000E+02  0.40000000000E+02  0.00000000000E+00 0. -1.
         23    2    1    2    0    0  0.00000000000E+00  0.00000000000E+00  0.00000000000E+00  0.80000000000E+02  0.80000000000E+02 0.  0.
          5    1    3    3  501    0  0.21538545748E+02  0.35744576999E+01 -0.33184699776E+02  0.40000000000E+02  0.47000000000E+01 0. -1.
         -5    1    3    3    0  501 -0.21538545748E+02 -0.35744576999E+01  0.33184699776E+02  0.40000000000E+02  0.47000000000E+01 0.  1.
</event>
<event>
 5    1  0.4833967E-001  0.8000000E+02  0.7546771E-02  0.1203772E+00
         11   -1    0    0    0    0  0.00000000000E+00  0.00000000000E+00  0.40000000000E+02  0.40000000000E+02  0.00000000000E+00 0. -1.
        -11   -1    0    0    0    0 -0.00000000000E+00 -0.00000000000E+00 -0.40000000000E+02  0.40000000000E+02  0.00000000000E+00 0.  1.
         23    2    1    2    0    0  0.00000000000E+00  0.00000000000E+00  0.00000000000E+00  0.80000000000E+02  0.80000000000E+02 0.  0.
          5    1    3    3  501    0 -0.22009606911E+02 -0.39141829102E+01  0.32835443895E+02  0.40000000000E+02  0.47000000000E+01 0. -1.
         -5    1    3    3    0  501  0.22009606911E+02  0.39141829102E+01 -0.32835443895E+02  0.40000000000E+02  0.47000000000E+01 0.  1.
</event>
<event>
 5    1  0.4833967E-001  0.8000000E+02  0.7546771E-02  0.1203772E+00
         11   -1    0    0    0    0  0.00000000000E+00  0.00000000000E+00  0.40000000000E+02  0.40000000000E+02  0.00000000000E+00 0. -1.
        -11   -1    0    0    0    0 -0.00000000000E+00 -0.00000000000E+00 -0.40000000000E+02  0.40000000000E+02  0.00000000000E+00 0.  1.
         23    2    1    2    0    0  0.00000000000E+00  0.00000000000E+00  0.00000000000E+00  0.80000000000E+02  0.80000000000E+02 0.  0.
          5    1    3    3  501    0 -0.15768899454E+02 -0.36456992816E+02  0.37347667606E+00  0.40000000000E+02  0.47000000000E+01 0. -1.
         -5    1    3    3    0  501  0.15768899454E+02  0.36456992816E+02 -0.37347667606E+00  0.40000000000E+02  0.47000000000E+01 0.  1.
</event>
<event>
 5    1  0.4833967E-001  0.8000000E+02  0.7546771E-02  0.1203772E+00
         11   -1    0    0    0    0  0.00000000000E+00  0.00000000000E+00  0.40000000000E+02  0.40000000000E+02  0.00000000000E+00 0. -1.
        -11   -1    0    0    0    0 -0.00000000000E+00 -0.00000000000E+00 -0.40000000000E+02  0.40000000000E+02  0.00000000000E+00 0.  1.
         23    2    1    2    0    0  0.00000000000E+00  0.00000000000E+00  0.00000000000E+00  0.80000000000E+02  0.80000000000E+02 0.  0.
          5    1    3    3  501    0  0.20422277048E+02  0.89179092431E+01  0.32883301156E+02  0.40000000000E+02  0.47000000000E+01 0. -1.
         -5    1    3    3    0  501 -0.20422277048E+02 -0.89179092431E+01 -0.32883301156E+02  0.40000000000E+02  0.47000000000E+01 0.  1.
</event>
<event>
 5    1  0.4833967E-001  0.8000000E+02  0.7546771E-02  0.1203772E+00
         11   -1    0    0    0    0  0.00000000000E+00  0.00000000000E+00  0.40000000000E+02  0.40000000000E+02  0.00000000000E+00 0.  1.
        -11   -1    0    0    0    0 -0.00000000000E+00 -0.00000000000E+00 -0.40000000000E+02  0.40000000000E+02  0.00000000000E+00 0. -1.
         23    2    1    2    0    0  0.00000000000E+00  0.00000000000E+00  0.00000000000E+00  0.80000000000E+02  0.80000000000E+02 0.  0.
          5    1    3    3  501    0  0.10445785730E+02  0.38013288624E+01 -0.38135881521E+02  0.40000000000E+02  0.47000000000E+01 0. -1.
         -5    1    3    3    0  501 -0.10445785730E+02 -0.38013288624E+01  0.38135881521E+02  0.40000000000E+02  0.47000000000E+01 0.  1.
</event>
<event>
 5    1  0.4833967E-001  0.8000000E+02  0.7546771E-02  0.1203772E+00
         11   -1    0    0    0    0  0.00000000000E+00  0.00000000000E+00  0.40000000000E+02  0.40000000000E+02  0.00000000000E+00 0. -1.
        -11   -1    0    0    0    0 -0.00000000000E+00 -0.00000000000E+00 -0.40000000000E+02  0.40000000000E+02  0.00000000000E+00 0.  1.
         23    2    1    2    0    0  0.00000000000E+00  0.00000000000E+00  0.00000000000E+00  0.80000000000E+02  0.80000000000E+02 0.  0.
          5    1    3    3  501    0 -0.24160580586E+02 -0.24279792934E+02 -0.20116361521E+02  0.40000000000E+02  0.47000000000E+01 0. -1.
         -5    1    3    3    0  501  0.24160580586E+02  0.24279792934E+02  0.20116361521E+02  0.40000000000E+02  0.47000000000E+01 0.  1.
</event>
<event>
 5    1  0.4833967E-001  0.8000000E+02  0.7546771E-02  0.1203772E+00
         11   -1    0    0    0    0  0.00000000000E+00  0.00000000000E+00  0.40000000000E+02  0.40000000000E+02  0.00000000000E+00 0.  1.
        -11   -1    0    0    0    0 -0.00000000000E+00 -0.00000000000E+00 -0.40000000000E+02  0.40000000000E+02  0.00000000000E+00 0. -1.
         23    2    1    2    0    0  0.00000000000E+00  0.00000000000E+00  0.00000000000E+00  0.80000000000E+02  0.80000000000E+02 0.  0.
          5    1    3    3  501    0  0.17814614004E+02  0.28156638635E+02 -0.21627603396E+02  0.40000000000E+02  0.47000000000E+01 0. -1.
         -5    1    3    3    0  501 -0.17814614004E+02 -0.28156638635E+02  0.21627603396E+02  0.40000000000E+02  0.47000000000E+01 0.  1.
</event>
<event>
 5    1  0.4833967E-001  0.8000000E+02  0.7546771E-02  0.1203772E+00
         11   -1    0    0    0    0  0.00000000000E+00  0.00000000000E+00  0.40000000000E+02  0.40000000000E+02  0.00000000000E+00 0. -1.
        -11   -1    0    0    0    0 -0.00000000000E+00 -0.00000000000E+00 -0.40000000000E+02  0.40000000000E+02  0.00000000000E+00 0.  1.
         23    2    1    2    0    0  0.00000000000E+00  0.00000000000E+00  0.00000000000E+00  0.80000000000E+02  0.80000000000E+02 0.  0.
          5    1    3    3  501    0 -0.34758177904E+02 -0.63227138952E+00 -0.19219243005E+02  0.40000000000E+02  0.47000000000E+01 0.  1.
         -5    1    3    3    0  501  0.34758177904E+02  0.63227138952E+00  0.19219243005E+02  0.40000000000E+02  0.47000000000E+01 0. -1.
</event>
<event>
 5    1  0.4833967E-001  0.8000000E+02  0.7546771E-02  0.1203772E+00
         11   -1    0    0    0    0  0.00000000000E+00  0.00000000000E+00  0.40000000000E+02  0.40000000000E+02  0.00000000000E+00 0. -1.
        -11   -1    0    0    0    0 -0.00000000000E+00 -0.00000000000E+00 -0.40000000000E+02  0.40000000000E+02  0.00000000000E+00 0.  1.
         23    2    1    2    0    0  0.00000000000E+00  0.00000000000E+00  0.00000000000E+00  0.80000000000E+02  0.80000000000E+02 0.  0.
          5    1    3    3  501    0 -0.33607556175E+02 -0.19859156915E+02 -0.73522822680E+01  0.40000000000E+02  0.47000000000E+01 0. -1.
         -5    1    3    3    0  501  0.33607556175E+02  0.19859156915E+02  0.73522822680E+01  0.40000000000E+02  0.47000000000E+01 0.  1.
</event>
<event>
 5    1  0.4833967E-001  0.8000000E+02  0.7546771E-02  0.1203772E+00
         11   -1    0    0    0    0  0.00000000000E+00  0.00000000000E+00  0.40000000000E+02  0.40000000000E+02  0.00000000000E+00 0.  1.
        -11   -1    0    0    0    0 -0.00000000000E+00 -0.00000000000E+00 -0.40000000000E+02  0.40000000000E+02  0.00000000000E+00 0. -1.
         23    2    1    2    0    0  0.00000000000E+00  0.00000000000E+00  0.00000000000E+00  0.80000000000E+02  0.80000000000E+02 0.  0.
          5    1    3    3  501    0  0.18804889634E+02  0.32288529381E+02 -0.13480986473E+02  0.40000000000E+02  0.47000000000E+01 0. -1.
         -5    1    3    3    0  501 -0.18804889634E+02 -0.32288529381E+02  0.13480986473E+02  0.40000000000E+02  0.47000000000E+01 0.  1.
</event>
<event>
 5    1  0.4833967E-001  0.8000000E+02  0.7546771E-02  0.1203772E+00
         11   -1    0    0    0    0  0.00000000000E+00  0.00000000000E+00  0.40000000000E+02  0.40000000000E+02  0.00000000000E+00 0.  1.
        -11   -1    0    0    0    0 -0.00000000000E+00 -0.00000000000E+00 -0.40000000000E+02  0.40000000000E+02  0.00000000000E+00 0. -1.
         23    2    1    2    0    0  0.00000000000E+00  0.00000000000E+00  0.00000000000E+00  0.80000000000E+02  0.80000000000E+02 0.  0.
          5    1    3    3  501    0 -0.24152604721E+02  0.21885603231E+02 -0.22706432050E+02  0.40000000000E+02  0.47000000000E+01 0. -1.
         -5    1    3    3    0  501  0.24152604721E+02 -0.21885603231E+02  0.22706432050E+02  0.40000000000E+02  0.47000000000E+01 0.  1.
</event>
<event>
 5    1  0.4833967E-001  0.8000000E+02  0.7546771E-02  0.1203772E+00
         11   -1    0    0    0    0  0.00000000000E+00  0.00000000000E+00  0.40000000000E+02  0.40000000000E+02  0.00000000000E+00 0. -1.
        -11   -1    0    0    0    0 -0.00000000000E+00 -0.00000000000E+00 -0.40000000000E+02  0.40000000000E+02  0.00000000000E+00 0.  1.
         23    2    1    2    0    0  0.00000000000E+00  0.00000000000E+00  0.00000000000E+00  0.80000000000E+02  0.80000000000E+02 0.  0.
          5    1    3    3  501    0 -0.28886512765E+02  0.24836557304E+02  0.11252768618E+02  0.40000000000E+02  0.47000000000E+01 0. -1.
         -5    1    3    3    0  501  0.28886512765E+02 -0.24836557304E+02 -0.11252768618E+02  0.40000000000E+02  0.47000000000E+01 0.  1.
</event>
<event>
 5    1  0.4833967E-001  0.8000000E+02  0.7546771E-02  0.1203772E+00
         11   -1    0    0    0    0  0.00000000000E+00  0.00000000000E+00  0.40000000000E+02  0.40000000000E+02  0.00000000000E+00 0. -1.
        -11   -1    0    0    0    0 -0.00000000000E+00 -0.00000000000E+00 -0.40000000000E+02  0.40000000000E+02  0.00000000000E+00 0.  1.
         23    2    1    2    0    0  0.00000000000E+00  0.00000000000E+00  0.00000000000E+00  0.80000000000E+02  0.80000000000E+02 0.  0.
          5    1    3    3  501    0 -0.53993380536E+01  0.35732392477E+02 -0.16491005925E+02  0.40000000000E+02  0.47000000000E+01 0. -1.
         -5    1    3    3    0  501  0.53993380536E+01 -0.35732392477E+02  0.16491005925E+02  0.40000000000E+02  0.47000000000E+01 0.  1.
</event>
<event>
 5    1  0.4833967E-001  0.8000000E+02  0.7546771E-02  0.1203772E+00
         11   -1    0    0    0    0  0.00000000000E+00  0.00000000000E+00  0.40000000000E+02  0.40000000000E+02  0.00000000000E+00 0. -1.
        -11   -1    0    0    0    0 -0.00000000000E+00 -0.00000000000E+00 -0.40000000000E+02  0.40000000000E+02  0.00000000000E+00 0.  1.
         23    2    1    2    0    0  0.00000000000E+00  0.00000000000E+00  0.00000000000E+00  0.80000000000E+02  0.80000000000E+02 0.  0.
          5    1    3    3  501    0  0.56931510659E+01  0.34154302153E+02  0.19467451693E+02  0.40000000000E+02  0.47000000000E+01 0. -1.
         -5    1    3    3    0  501 -0.56931510659E+01 -0.34154302153E+02 -0.19467451693E+02  0.40000000000E+02  0.47000000000E+01 0.  1.
</event>
<event>
 5    1  0.4833967E-001  0.8000000E+02  0.7546771E-02  0.1203772E+00
         11   -1    0    0    0    0  0.00000000000E+00  0.00000000000E+00  0.40000000000E+02  0.40000000000E+02  0.00000000000E+00 0.  1.
        -11   -1    0    0    0    0 -0.00000000000E+00 -0.00000000000E+00 -0.40000000000E+02  0.40000000000E+02  0.00000000000E+00 0. -1.
         23    2    1    2    0    0  0.00000000000E+00  0.00000000000E+00  0.00000000000E+00  0.80000000000E+02  0.80000000000E+02 0.  0.
          5    1    3    3  501    0  0.24360075247E+02  0.29760320281E+02 -0.99408284729E+01  0.40000000000E+02  0.47000000000E+01 0. -1.
         -5    1    3    3    0  501 -0.24360075247E+02 -0.29760320281E+02  0.99408284729E+01  0.40000000000E+02  0.47000000000E+01 0.  1.
</event>
<event>
 5    1  0.4833967E-001  0.8000000E+02  0.7546771E-02  0.1203772E+00
         11   -1    0    0    0    0  0.00000000000E+00  0.00000000000E+00  0.40000000000E+02  0.40000000000E+02  0.00000000000E+00 0.  1.
        -11   -1    0    0    0    0 -0.00000000000E+00 -0.00000000000E+00 -0.40000000000E+02  0.40000000000E+02  0.00000000000E+00 0. -1.
         23    2    1    2    0    0  0.00000000000E+00  0.00000000000E+00  0.00000000000E+00  0.80000000000E+02  0.80000000000E+02 0.  0.
          5    1    3    3  501    0  0.12887303992E+02  0.31509035249E+01 -0.37441944431E+02  0.40000000000E+02  0.47000000000E+01 0. -1.
         -5    1    3    3    0  501 -0.12887303992E+02 -0.31509035249E+01  0.37441944431E+02  0.40000000000E+02  0.47000000000E+01 0.  1.
</event>
<event>
 5    1  0.4833967E-001  0.8000000E+02  0.7546771E-02  0.1203772E+00
         11   -1    0    0    0    0  0.00000000000E+00  0.00000000000E+00  0.40000000000E+02  0.40000000000E+02  0.00000000000E+00 0.  1.
        -11   -1    0    0    0    0 -0.00000000000E+00 -0.00000000000E+00 -0.40000000000E+02  0.40000000000E+02  0.00000000000E+00 0. -1.
         23    2    1    2    0    0  0.00000000000E+00  0.00000000000E+00  0.00000000000E+00  0.80000000000E+02  0.80000000000E+02 0.  0.
          5    1    3    3  501    0 -0.19463746245E+02 -0.22213497545E+02 -0.26563755550E+02  0.40000000000E+02  0.47000000000E+01 0. -1.
         -5    1    3    3    0  501  0.19463746245E+02  0.22213497545E+02  0.26563755550E+02  0.40000000000E+02  0.47000000000E+01 0.  1.
</event>
<event>
 5    1  0.4833967E-001  0.8000000E+02  0.7546771E-02  0.1203772E+00
         11   -1    0    0    0    0  0.00000000000E+00  0.00000000000E+00  0.40000000000E+02  0.40000000000E+02  0.00000000000E+00 0.  1.
        -11   -1    0    0    0    0 -0.00000000000E+00 -0.00000000000E+00 -0.40000000000E+02  0.40000000000E+02  0.00000000000E+00 0. -1.
         23    2    1    2    0    0  0.00000000000E+00  0.00000000000E+00  0.00000000000E+00  0.80000000000E+02  0.80000000000E+02 0.  0.
          5    1    3    3  501    0  0.26685224993E+02 -0.64822274356E+01 -0.28701733302E+02  0.40000000000E+02  0.47000000000E+01 0. -1.
         -5    1    3    3    0  501 -0.26685224993E+02  0.64822274356E+01  0.28701733302E+02  0.40000000000E+02  0.47000000000E+01 0.  1.
</event>
<event>
 5    1  0.4833967E-001  0.8000000E+02  0.7546771E-02  0.1203772E+00
         11   -1    0    0    0    0  0.00000000000E+00  0.00000000000E+00  0.40000000000E+02  0.40000000000E+02  0.00000000000E+00 0.  1.
        -11   -1    0    0    0    0 -0.00000000000E+00 -0.00000000000E+00 -0.40000000000E+02  0.40000000000E+02  0.00000000000E+00 0. -1.
         23    2    1    2    0    0  0.00000000000E+00  0.00000000000E+00  0.00000000000E+00  0.80000000000E+02  0.80000000000E+02 0.  0.
          5    1    3    3  501    0 -0.14160237640E+02  0.31475095821E+02 -0.19665096314E+02  0.40000000000E+02  0.47000000000E+01 0. -1.
         -5    1    3    3    0  501  0.14160237640E+02 -0.31475095821E+02  0.19665096314E+02  0.40000000000E+02  0.47000000000E+01 0.  1.
</event>
<event>
 5    1  0.4833967E-001  0.8000000E+02  0.7546771E-02  0.1203772E+00
         11   -1    0    0    0    0  0.00000000000E+00  0.00000000000E+00  0.40000000000E+02  0.40000000000E+02  0.00000000000E+00 0. -1.
        -11   -1    0    0    0    0 -0.00000000000E+00 -0.00000000000E+00 -0.40000000000E+02  0.40000000000E+02  0.00000000000E+00 0.  1.
         23    2    1    2    0    0  0.00000000000E+00  0.00000000000E+00  0.00000000000E+00  0.80000000000E+02  0.80000000000E+02 0.  0.
          5    1    3    3  501    0  0.82271737179E+01  0.13666260920E+02  0.36379347508E+02  0.40000000000E+02  0.47000000000E+01 0. -1.
         -5    1    3    3    0  501 -0.82271737179E+01 -0.13666260920E+02 -0.36379347508E+02  0.40000000000E+02  0.47000000000E+01 0.  1.
</event>
<event>
 5    1  0.4833967E-001  0.8000000E+02  0.7546771E-02  0.1203772E+00
         11   -1    0    0    0    0  0.00000000000E+00  0.00000000000E+00  0.40000000000E+02  0.40000000000E+02  0.00000000000E+00 0. -1.
        -11   -1    0    0    0    0 -0.00000000000E+00 -0.00000000000E+00 -0.40000000000E+02  0.40000000000E+02  0.00000000000E+00 0.  1.
         23    2    1    2    0    0  0.00000000000E+00  0.00000000000E+00  0.00000000000E+00  0.80000000000E+02  0.80000000000E+02 0.  0.
          5    1    3    3  501    0  0.19165767221E+02 -0.13237775718E+02  0.32176772070E+02  0.40000000000E+02  0.47000000000E+01 0. -1.
         -5    1    3    3    0  501 -0.19165767221E+02  0.13237775718E+02 -0.32176772070E+02  0.40000000000E+02  0.47000000000E+01 0.  1.
</event>
<event>
 5    1  0.4833967E-001  0.8000000E+02  0.7546771E-02  0.1203772E+00
         11   -1    0    0    0    0  0.00000000000E+00  0.00000000000E+00  0.40000000000E+02  0.40000000000E+02  0.00000000000E+00 0. -1.
        -11   -1    0    0    0    0 -0.00000000000E+00 -0.00000000000E+00 -0.40000000000E+02  0.40000000000E+02  0.00000000000E+00 0.  1.
         23    2    1    2    0    0  0.00000000000E+00  0.00000000000E+00  0.00000000000E+00  0.80000000000E+02  0.80000000000E+02 0.  0.
          5    1    3    3  501    0  0.34404404316E+02 -0.80667585939E+01  0.18143163159E+02  0.40000000000E+02  0.47000000000E+01 0. -1.
         -5    1    3    3    0  501 -0.34404404316E+02  0.80667585939E+01 -0.18143163159E+02  0.40000000000E+02  0.47000000000E+01 0.  1.
</event>
<event>
 5    1  0.4833967E-001  0.8000000E+02  0.7546771E-02  0.1203772E+00
         11   -1    0    0    0    0  0.00000000000E+00  0.00000000000E+00  0.40000000000E+02  0.40000000000E+02  0.00000000000E+00 0.  1.
        -11   -1    0    0    0    0 -0.00000000000E+00 -0.00000000000E+00 -0.40000000000E+02  0.40000000000E+02  0.00000000000E+00 0. -1.
         23    2    1    2    0    0  0.00000000000E+00  0.00000000000E+00  0.00000000000E+00  0.80000000000E+02  0.80000000000E+02 0.  0.
          5    1    3    3  501    0  0.35230059817E+02 -0.88947088223E+01 -0.16051075984E+02  0.40000000000E+02  0.47000000000E+01 0. -1.
         -5    1    3    3    0  501 -0.35230059817E+02  0.88947088223E+01  0.16051075984E+02  0.40000000000E+02  0.47000000000E+01 0.  1.
</event>
<event>
 5    1  0.4833967E-001  0.8000000E+02  0.7546771E-02  0.1203772E+00
         11   -1    0    0    0    0  0.00000000000E+00  0.00000000000E+00  0.40000000000E+02  0.40000000000E+02  0.00000000000E+00 0. -1.
        -11   -1    0    0    0    0 -0.00000000000E+00 -0.00000000000E+00 -0.40000000000E+02  0.40000000000E+02  0.00000000000E+00 0.  1.
         23    2    1    2    0    0  0.00000000000E+00  0.00000000000E+00  0.00000000000E+00  0.80000000000E+02  0.80000000000E+02 0.  0.
          5    1    3    3  501    0 -0.14188401915E+02  0.20552976959E+02  0.30889713324E+02  0.40000000000E+02  0.47000000000E+01 0. -1.
         -5    1    3    3    0  501  0.14188401915E+02 -0.20552976959E+02 -0.30889713324E+02  0.40000000000E+02  0.47000000000E+01 0.  1.
</event>
<event>
 5    1  0.4833967E-001  0.8000000E+02  0.7546771E-02  0.1203772E+00
         11   -1    0    0    0    0  0.00000000000E+00  0.00000000000E+00  0.40000000000E+02  0.40000000000E+02  0.00000000000E+00 0. -1.
        -11   -1    0    0    0    0 -0.00000000000E+00 -0.00000000000E+00 -0.40000000000E+02  0.40000000000E+02  0.00000000000E+00 0.  1.
         23    2    1    2    0    0  0.00000000000E+00  0.00000000000E+00  0.00000000000E+00  0.80000000000E+02  0.80000000000E+02 0.  0.
          5    1    3    3  501    0 -0.23868807166E+02  0.20183332807E+02  0.24511693561E+02  0.40000000000E+02  0.47000000000E+01 0. -1.
         -5    1    3    3    0  501  0.23868807166E+02 -0.20183332807E+02 -0.24511693561E+02  0.40000000000E+02  0.47000000000E+01 0.  1.
</event>
<event>
 5    1  0.4833967E-001  0.8000000E+02  0.7546771E-02  0.1203772E+00
         11   -1    0    0    0    0  0.00000000000E+00  0.00000000000E+00  0.40000000000E+02  0.40000000000E+02  0.00000000000E+00 0.  1.
        -11   -1    0    0    0    0 -0.00000000000E+00 -0.00000000000E+00 -0.40000000000E+02  0.40000000000E+02  0.00000000000E+00 0. -1.
         23    2    1    2    0    0  0.00000000000E+00  0.00000000000E+00  0.00000000000E+00  0.80000000000E+02  0.80000000000E+02 0.  0.
          5    1    3    3  501    0 -0.50726610041E+01 -0.31069702229E+02 -0.24225022471E+02  0.40000000000E+02  0.47000000000E+01 0. -1.
         -5    1    3    3    0  501  0.50726610041E+01  0.31069702229E+02  0.24225022471E+02  0.40000000000E+02  0.47000000000E+01 0.  1.
</event>
<event>
 5    1  0.4833967E-001  0.8000000E+02  0.7546771E-02  0.1203772E+00
         11   -1    0    0    0    0  0.00000000000E+00  0.00000000000E+00  0.40000000000E+02  0.40000000000E+02  0.00000000000E+00 0.  1.
        -11   -1    0    0    0    0 -0.00000000000E+00 -0.00000000000E+00 -0.40000000000E+02  0.40000000000E+02  0.00000000000E+00 0. -1.
         23    2    1    2    0    0  0.00000000000E+00  0.00000000000E+00  0.00000000000E+00  0.80000000000E+02  0.80000000000E+02 0.  0.
          5    1    3    3  501    0 -0.99668182770E+01  0.37847864800E+02 -0.67905569355E+01  0.40000000000E+02  0.47000000000E+01 0. -1.
         -5    1    3    3    0  501  0.99668182770E+01 -0.37847864800E+02  0.67905569355E+01  0.40000000000E+02  0.47000000000E+01 0.  1.
</event>
<event>
 5    1  0.4833967E-001  0.8000000E+02  0.7546771E-02  0.1203772E+00
         11   -1    0    0    0    0  0.00000000000E+00  0.00000000000E+00  0.40000000000E+02  0.40000000000E+02  0.00000000000E+00 0. -1.
        -11   -1    0    0    0    0 -0.00000000000E+00 -0.00000000000E+00 -0.40000000000E+02  0.40000000000E+02  0.00000000000E+00 0.  1.
         23    2    1    2    0    0  0.00000000000E+00  0.00000000000E+00  0.00000000000E+00  0.80000000000E+02  0.80000000000E+02 0.  0.
          5    1    3    3  501    0  0.27742652061E+02 -0.18318105611E+02 -0.21741717122E+02  0.40000000000E+02  0.47000000000E+01 0.  1.
         -5    1    3    3    0  501 -0.27742652061E+02  0.18318105611E+02  0.21741717122E+02  0.40000000000E+02  0.47000000000E+01 0. -1.
</event>
<event>
 5    1  0.4833967E-001  0.8000000E+02  0.7546771E-02  0.1203772E+00
         11   -1    0    0    0    0  0.00000000000E+00  0.00000000000E+00  0.40000000000E+02  0.40000000000E+02  0.00000000000E+00 0.  1.
        -11   -1    0    0    0    0 -0.00000000000E+00 -0.00000000000E+00 -0.40000000000E+02  0.40000000000E+02  0.00000000000E+00 0. -1.
         23    2    1    2    0    0  0.00000000000E+00  0.00000000000E+00  0.00000000000E+00  0.80000000000E+02  0.80000000000E+02 0.  0.
          5    1    3    3  501    0  0.20278022875E+02 -0.23002325501E+02 -0.25250837804E+02  0.40000000000E+02  0.47000000000E+01 0. -1.
         -5    1    3    3    0  501 -0.20278022875E+02  0.23002325501E+02  0.25250837804E+02  0.40000000000E+02  0.47000000000E+01 0.  1.
</event>
<event>
 5    1  0.4833967E-001  0.8000000E+02  0.7546771E-02  0.1203772E+00
         11   -1    0    0    0    0  0.00000000000E+00  0.00000000000E+00  0.40000000000E+02  0.40000000000E+02  0.00000000000E+00 0.  1.
        -11   -1    0    0    0    0 -0.00000000000E+00 -0.00000000000E+00 -0.40000000000E+02  0.40000000000E+02  0.00000000000E+00 0. -1.
         23    2    1    2    0    0  0.00000000000E+00  0.00000000000E+00  0.00000000000E+00  0.80000000000E+02  0.80000000000E+02 0.  0.
          5    1    3    3  501    0  0.21324795089E+02  0.26153140491E+02 -0.20956534945E+02  0.40000000000E+02  0.47000000000E+01 0. -1.
         -5    1    3    3    0  501 -0.21324795089E+02 -0.26153140491E+02  0.20956534945E+02  0.40000000000E+02  0.47000000000E+01 0.  1.
</event>
<event>
 5    1  0.4833967E-001  0.8000000E+02  0.7546771E-02  0.1203772E+00
         11   -1    0    0    0    0  0.00000000000E+00  0.00000000000E+00  0.40000000000E+02  0.40000000000E+02  0.00000000000E+00 0. -1.
        -11   -1    0    0    0    0 -0.00000000000E+00 -0.00000000000E+00 -0.40000000000E+02  0.40000000000E+02  0.00000000000E+00 0.  1.
         23    2    1    2    0    0  0.00000000000E+00  0.00000000000E+00  0.00000000000E+00  0.80000000000E+02  0.80000000000E+02 0.  0.
          5    1    3    3  501    0 -0.38614793295E+02 -0.67331624741E+01  0.64398961081E+01  0.40000000000E+02  0.47000000000E+01 0. -1.
         -5    1    3    3    0  501  0.38614793295E+02  0.67331624741E+01 -0.64398961081E+01  0.40000000000E+02  0.47000000000E+01 0.  1.
</event>
<event>
 5    1  0.4833967E-001  0.8000000E+02  0.7546771E-02  0.1203772E+00
         11   -1    0    0    0    0  0.00000000000E+00  0.00000000000E+00  0.40000000000E+02  0.40000000000E+02  0.00000000000E+00 0. -1.
        -11   -1    0    0    0    0 -0.00000000000E+00 -0.00000000000E+00 -0.40000000000E+02  0.40000000000E+02  0.00000000000E+00 0.  1.
         23    2    1    2    0    0  0.00000000000E+00  0.00000000000E+00  0.00000000000E+00  0.80000000000E+02  0.80000000000E+02 0.  0.
          5    1    3    3  501    0  0.38626390131E+02  0.64232224615E+01 -0.66823797126E+01  0.40000000000E+02  0.47000000000E+01 0. -1.
         -5    1    3    3    0  501 -0.38626390131E+02 -0.64232224615E+01  0.66823797126E+01  0.40000000000E+02  0.47000000000E+01 0.  1.
</event>
<event>
 5    1  0.4833967E-001  0.8000000E+02  0.7546771E-02  0.1203772E+00
         11   -1    0    0    0    0  0.00000000000E+00  0.00000000000E+00  0.40000000000E+02  0.40000000000E+02  0.00000000000E+00 0. -1.
        -11   -1    0    0    0    0 -0.00000000000E+00 -0.00000000000E+00 -0.40000000000E+02  0.40000000000E+02  0.00000000000E+00 0.  1.
         23    2    1    2    0    0  0.00000000000E+00  0.00000000000E+00  0.00000000000E+00  0.80000000000E+02  0.80000000000E+02 0.  0.
          5    1    3    3  501    0 -0.22669165349E+02 -0.15938587358E+02  0.28460154170E+02  0.40000000000E+02  0.47000000000E+01 0. -1.
         -5    1    3    3    0  501  0.22669165349E+02  0.15938587358E+02 -0.28460154170E+02  0.40000000000E+02  0.47000000000E+01 0.  1.
</event>
<event>
 5    1  0.4833967E-001  0.8000000E+02  0.7546771E-02  0.1203772E+00
         11   -1    0    0    0    0  0.00000000000E+00  0.00000000000E+00  0.40000000000E+02  0.40000000000E+02  0.00000000000E+00 0. -1.
        -11   -1    0    0    0    0 -0.00000000000E+00 -0.00000000000E+00 -0.40000000000E+02  0.40000000000E+02  0.00000000000E+00 0.  1.
         23    2    1    2    0    0  0.00000000000E+00  0.00000000000E+00  0.00000000000E+00  0.80000000000E+02  0.80000000000E+02 0.  0.
          5    1    3    3  501    0 -0.43651564937E+01  0.64918832808E-01  0.39482289629E+02  0.40000000000E+02  0.47000000000E+01 0. -1.
         -5    1    3    3    0  501  0.43651564937E+01 -0.64918832808E-01 -0.39482289629E+02  0.40000000000E+02  0.47000000000E+01 0.  1.
</event>
<event>
 5    1  0.4833967E-001  0.8000000E+02  0.7546771E-02  0.1203772E+00
         11   -1    0    0    0    0  0.00000000000E+00  0.00000000000E+00  0.40000000000E+02  0.40000000000E+02  0.00000000000E+00 0.  1.
        -11   -1    0    0    0    0 -0.00000000000E+00 -0.00000000000E+00 -0.40000000000E+02  0.40000000000E+02  0.00000000000E+00 0. -1.
         23    2    1    2    0    0  0.00000000000E+00  0.00000000000E+00  0.00000000000E+00  0.80000000000E+02  0.80000000000E+02 0.  0.
          5    1    3    3  501    0 -0.19744010187E+02 -0.25782054055E+02 -0.22877275852E+02  0.40000000000E+02  0.47000000000E+01 0. -1.
         -5    1    3    3    0  501  0.19744010187E+02  0.25782054055E+02  0.22877275852E+02  0.40000000000E+02  0.47000000000E+01 0.  1.
</event>
<event>
 5    1  0.4833967E-001  0.8000000E+02  0.7546771E-02  0.1203772E+00
         11   -1    0    0    0    0  0.00000000000E+00  0.00000000000E+00  0.40000000000E+02  0.40000000000E+02  0.00000000000E+00 0. -1.
        -11   -1    0    0    0    0 -0.00000000000E+00 -0.00000000000E+00 -0.40000000000E+02  0.40000000000E+02  0.00000000000E+00 0.  1.
         23    2    1    2    0    0  0.00000000000E+00  0.00000000000E+00  0.00000000000E+00  0.80000000000E+02  0.80000000000E+02 0.  0.
          5    1    3    3  501    0 -0.18842397630E+02 -0.20310808099E+01  0.34910582383E+02  0.40000000000E+02  0.47000000000E+01 0. -1.
         -5    1    3    3    0  501  0.18842397630E+02  0.20310808099E+01 -0.34910582383E+02  0.40000000000E+02  0.47000000000E+01 0.  1.
</event>
<event>
 5    1  0.4833967E-001  0.8000000E+02  0.7546771E-02  0.1203772E+00
         11   -1    0    0    0    0  0.00000000000E+00  0.00000000000E+00  0.40000000000E+02  0.40000000000E+02  0.00000000000E+00 0. -1.
        -11   -1    0    0    0    0 -0.00000000000E+00 -0.00000000000E+00 -0.40000000000E+02  0.40000000000E+02  0.00000000000E+00 0.  1.
         23    2    1    2    0    0  0.00000000000E+00  0.00000000000E+00  0.00000000000E+00  0.80000000000E+02  0.80000000000E+02 0.  0.
          5    1    3    3  501    0 -0.14996480592E+01  0.38919989091E+02  0.78035571923E+01  0.40000000000E+02  0.47000000000E+01 0. -1.
         -5    1    3    3    0  501  0.14996480592E+01 -0.38919989091E+02 -0.78035571923E+01  0.40000000000E+02  0.47000000000E+01 0.  1.
</event>
<event>
 5    1  0.4833967E-001  0.8000000E+02  0.7546771E-02  0.1203772E+00
         11   -1    0    0    0    0  0.00000000000E+00  0.00000000000E+00  0.40000000000E+02  0.40000000000E+02  0.00000000000E+00 0. -1.
        -11   -1    0    0    0    0 -0.00000000000E+00 -0.00000000000E+00 -0.40000000000E+02  0.40000000000E+02  0.00000000000E+00 0.  1.
         23    2    1    2    0    0  0.00000000000E+00  0.00000000000E+00  0.00000000000E+00  0.80000000000E+02  0.80000000000E+02 0.  0.
          5    1    3    3  501    0  0.32241655470E+02  0.21928088574E+02  0.75858146594E+01  0.40000000000E+02  0.47000000000E+01 0. -1.
         -5    1    3    3    0  501 -0.32241655470E+02 -0.21928088574E+02 -0.75858146594E+01  0.40000000000E+02  0.47000000000E+01 0.  1.
</event>
<event>
 5    1  0.4833967E-001  0.8000000E+02  0.7546771E-02  0.1203772E+00
         11   -1    0    0    0    0  0.00000000000E+00  0.00000000000E+00  0.40000000000E+02  0.40000000000E+02  0.00000000000E+00 0.  1.
        -11   -1    0    0    0    0 -0.00000000000E+00 -0.00000000000E+00 -0.40000000000E+02  0.40000000000E+02  0.00000000000E+00 0. -1.
         23    2    1    2    0    0  0.00000000000E+00  0.00000000000E+00  0.00000000000E+00  0.80000000000E+02  0.80000000000E+02 0.  0.
          5    1    3    3  501    0  0.85949203438E+01 -0.22406141673E+02 -0.31654417695E+02  0.40000000000E+02  0.47000000000E+01 0. -1.
         -5    1    3    3    0  501 -0.85949203438E+01  0.22406141673E+02  0.31654417695E+02  0.40000000000E+02  0.47000000000E+01 0.  1.
</event>
<event>
 5    1  0.4833967E-001  0.8000000E+02  0.7546771E-02  0.1203772E+00
         11   -1    0    0    0    0  0.00000000000E+00  0.00000000000E+00  0.40000000000E+02  0.40000000000E+02  0.00000000000E+00 0. -1.
        -11   -1    0    0    0    0 -0.00000000000E+00 -0.00000000000E+00 -0.40000000000E+02  0.40000000000E+02  0.00000000000E+00 0.  1.
         23    2    1    2    0    0  0.00000000000E+00  0.00000000000E+00  0.00000000000E+00  0.80000000000E+02  0.80000000000E+02 0.  0.
          5    1    3    3  501    0  0.22262838956E+01  0.30484295637E+02  0.25370482446E+02  0.40000000000E+02  0.47000000000E+01 0. -1.
         -5    1    3    3    0  501 -0.22262838956E+01 -0.30484295637E+02 -0.25370482446E+02  0.40000000000E+02  0.47000000000E+01 0.  1.
</event>
<event>
 5    1  0.4833967E-001  0.8000000E+02  0.7546771E-02  0.1203772E+00
         11   -1    0    0    0    0  0.00000000000E+00  0.00000000000E+00  0.40000000000E+02  0.40000000000E+02  0.00000000000E+00 0.  1.
        -11   -1    0    0    0    0 -0.00000000000E+00 -0.00000000000E+00 -0.40000000000E+02  0.40000000000E+02  0.00000000000E+00 0. -1.
         23    2    1    2    0    0  0.00000000000E+00  0.00000000000E+00  0.00000000000E+00  0.80000000000E+02  0.80000000000E+02 0.  0.
          5    1    3    3  501    0  0.21463091110E+02  0.93379455651E+01  0.32094368550E+02  0.40000000000E+02  0.47000000000E+01 0. -1.
         -5    1    3    3    0  501 -0.21463091110E+02 -0.93379455651E+01 -0.32094368550E+02  0.40000000000E+02  0.47000000000E+01 0.  1.
</event>
<event>
 5    1  0.4833967E-001  0.8000000E+02  0.7546771E-02  0.1203772E+00
         11   -1    0    0    0    0  0.00000000000E+00  0.00000000000E+00  0.40000000000E+02  0.40000000000E+02  0.00000000000E+00 0.  1.
        -11   -1    0    0    0    0 -0.00000000000E+00 -0.00000000000E+00 -0.40000000000E+02  0.40000000000E+02  0.00000000000E+00 0. -1.
         23    2    1    2    0    0  0.00000000000E+00  0.00000000000E+00  0.00000000000E+00  0.80000000000E+02  0.80000000000E+02 0.  0.
          5    1    3    3  501    0 -0.13378844690E+02  0.21940876373E+02 -0.30290501131E+02  0.40000000000E+02  0.47000000000E+01 0. -1.
         -5    1    3    3    0  501  0.13378844690E+02 -0.21940876373E+02  0.30290501131E+02  0.40000000000E+02  0.47000000000E+01 0.  1.
</event>
<event>
 5    1  0.4833967E-001  0.8000000E+02  0.7546771E-02  0.1203772E+00
         11   -1    0    0    0    0  0.00000000000E+00  0.00000000000E+00  0.40000000000E+02  0.40000000000E+02  0.00000000000E+00 0. -1.
        -11   -1    0    0    0    0 -0.00000000000E+00 -0.00000000000E+00 -0.40000000000E+02  0.40000000000E+02  0.00000000000E+00 0.  1.
         23    2    1    2    0    0  0.00000000000E+00  0.00000000000E+00  0.00000000000E+00  0.80000000000E+02  0.80000000000E+02 0.  0.
          5    1    3    3  501    0 -0.10944751229E+02 -0.40512033529E+01  0.37969858729E+02  0.40000000000E+02  0.47000000000E+01 0. -1.
         -5    1    3    3    0  501  0.10944751229E+02  0.40512033529E+01 -0.37969858729E+02  0.40000000000E+02  0.47000000000E+01 0.  1.
</event>
<event>
 5    1  0.4833967E-001  0.8000000E+02  0.7546771E-02  0.1203772E+00
         11   -1    0    0    0    0  0.00000000000E+00  0.00000000000E+00  0.40000000000E+02  0.40000000000E+02  0.00000000000E+00 0.  1.
        -11   -1    0    0    0    0 -0.00000000000E+00 -0.00000000000E+00 -0.40000000000E+02  0.40000000000E+02  0.00000000000E+00 0. -1.
         23    2    1    2    0    0  0.00000000000E+00  0.00000000000E+00  0.00000000000E+00  0.80000000000E+02  0.80000000000E+02 0.  0.
          5    1    3    3  501    0  0.31535930666E+01  0.37011540424E+02 -0.14075181215E+02  0.40000000000E+02  0.47000000000E+01 0. -1.
         -5    1    3    3    0  501 -0.31535930666E+01 -0.37011540424E+02  0.14075181215E+02  0.40000000000E+02  0.47000000000E+01 0.  1.
</event>
<event>
 5    1  0.4833967E-001  0.8000000E+02  0.7546771E-02  0.1203772E+00
         11   -1    0    0    0    0  0.00000000000E+00  0.00000000000E+00  0.40000000000E+02  0.40000000000E+02  0.00000000000E+00 0.  1.
        -11   -1    0    0    0    0 -0.00000000000E+00 -0.00000000000E+00 -0.40000000000E+02  0.40000000000E+02  0.00000000000E+00 0. -1.
         23    2    1    2    0    0  0.00000000000E+00  0.00000000000E+00  0.00000000000E+00  0.80000000000E+02  0.80000000000E+02 0.  0.
          5    1    3    3  501    0 -0.34553435904E+02 -0.19571899049E+02 -0.95437669385E+00  0.40000000000E+02  0.47000000000E+01 0. -1.
         -5    1    3    3    0  501  0.34553435904E+02  0.19571899049E+02  0.95437669385E+00  0.40000000000E+02  0.47000000000E+01 0.  1.
</event>
<event>
 5    1  0.4833967E-001  0.8000000E+02  0.7546771E-02  0.1203772E+00
         11   -1    0    0    0    0  0.00000000000E+00  0.00000000000E+00  0.40000000000E+02  0.40000000000E+02  0.00000000000E+00 0.  1.
        -11   -1    0    0    0    0 -0.00000000000E+00 -0.00000000000E+00 -0.40000000000E+02  0.40000000000E+02  0.00000000000E+00 0. -1.
         23    2    1    2    0    0  0.00000000000E+00  0.00000000000E+00  0.00000000000E+00  0.80000000000E+02  0.80000000000E+02 0.  0.
          5    1    3    3  501    0 -0.19568596494E+02 -0.29778527984E+02 -0.17556175618E+02  0.40000000000E+02  0.47000000000E+01 0. -1.
         -5    1    3    3    0  501  0.19568596494E+02  0.29778527984E+02  0.17556175618E+02  0.40000000000E+02  0.47000000000E+01 0.  1.
</event>
<event>
 5    1  0.4833967E-001  0.8000000E+02  0.7546771E-02  0.1203772E+00
         11   -1    0    0    0    0  0.00000000000E+00  0.00000000000E+00  0.40000000000E+02  0.40000000000E+02  0.00000000000E+00 0.  1.
        -11   -1    0    0    0    0 -0.00000000000E+00 -0.00000000000E+00 -0.40000000000E+02  0.40000000000E+02  0.00000000000E+00 0. -1.
         23    2    1    2    0    0  0.00000000000E+00  0.00000000000E+00  0.00000000000E+00  0.80000000000E+02  0.80000000000E+02 0.  0.
          5    1    3    3  501    0  0.12282910636E+02 -0.17199705697E+02 -0.33633468900E+02  0.40000000000E+02  0.47000000000E+01 0. -1.
         -5    1    3    3    0  501 -0.12282910636E+02  0.17199705697E+02  0.33633468900E+02  0.40000000000E+02  0.47000000000E+01 0.  1.
</event>
<event>
 5    1  0.4833967E-001  0.8000000E+02  0.7546771E-02  0.1203772E+00
         11   -1    0    0    0    0  0.00000000000E+00  0.00000000000E+00  0.40000000000E+02  0.40000000000E+02  0.00000000000E+00 0. -1.
        -11   -1    0    0    0    0 -0.00000000000E+00 -0.00000000000E+00 -0.40000000000E+02  0.40000000000E+02  0.00000000000E+00 0.  1.
         23    2    1    2    0    0  0.00000000000E+00  0.00000000000E+00  0.00000000000E+00  0.80000000000E+02  0.80000000000E+02 0.  0.
          5    1    3    3  501    0 -0.33614652952E+02 -0.23927532348E+01 -0.21029499255E+02  0.40000000000E+02  0.47000000000E+01 0.  1.
         -5    1    3    3    0  501  0.33614652952E+02  0.23927532348E+01  0.21029499255E+02  0.40000000000E+02  0.47000000000E+01 0. -1.
</event>
<event>
 5    1  0.4833967E-001  0.8000000E+02  0.7546771E-02  0.1203772E+00
         11   -1    0    0    0    0  0.00000000000E+00  0.00000000000E+00  0.40000000000E+02  0.40000000000E+02  0.00000000000E+00 0.  1.
        -11   -1    0    0    0    0 -0.00000000000E+00 -0.00000000000E+00 -0.40000000000E+02  0.40000000000E+02  0.00000000000E+00 0. -1.
         23    2    1    2    0    0  0.00000000000E+00  0.00000000000E+00  0.00000000000E+00  0.80000000000E+02  0.80000000000E+02 0.  0.
          5    1    3    3  501    0  0.88214513038E+01  0.24153002772E+02 -0.30277457852E+02  0.40000000000E+02  0.47000000000E+01 0. -1.
         -5    1    3    3    0  501 -0.88214513038E+01 -0.24153002772E+02  0.30277457852E+02  0.40000000000E+02  0.47000000000E+01 0.  1.
</event>
<event>
 5    1  0.4833967E-001  0.8000000E+02  0.7546771E-02  0.1203772E+00
         11   -1    0    0    0    0  0.00000000000E+00  0.00000000000E+00  0.40000000000E+02  0.40000000000E+02  0.00000000000E+00 0.  1.
        -11   -1    0    0    0    0 -0.00000000000E+00 -0.00000000000E+00 -0.40000000000E+02  0.40000000000E+02  0.00000000000E+00 0. -1.
         23    2    1    2    0    0  0.00000000000E+00  0.00000000000E+00  0.00000000000E+00  0.80000000000E+02  0.80000000000E+02 0.  0.
          5    1    3    3  501    0  0.32772225569E+02  0.20778546054E+02 -0.84937185666E+01  0.40000000000E+02  0.47000000000E+01 0. -1.
         -5    1    3    3    0  501 -0.32772225569E+02 -0.20778546054E+02  0.84937185666E+01  0.40000000000E+02  0.47000000000E+01 0.  1.
</event>
<event>
 5    1  0.4833967E-001  0.8000000E+02  0.7546771E-02  0.1203772E+00
         11   -1    0    0    0    0  0.00000000000E+00  0.00000000000E+00  0.40000000000E+02  0.40000000000E+02  0.00000000000E+00 0. -1.
        -11   -1    0    0    0    0 -0.00000000000E+00 -0.00000000000E+00 -0.40000000000E+02  0.40000000000E+02  0.00000000000E+00 0.  1.
         23    2    1    2    0    0  0.00000000000E+00  0.00000000000E+00  0.00000000000E+00  0.80000000000E+02  0.80000000000E+02 0.  0.
          5    1    3    3  501    0  0.26595051697E+02 -0.20718114046E+02  0.21008878495E+02  0.40000000000E+02  0.47000000000E+01 0. -1.
         -5    1    3    3    0  501 -0.26595051697E+02  0.20718114046E+02 -0.21008878495E+02  0.40000000000E+02  0.47000000000E+01 0.  1.
</event>
<event>
 5    1  0.4833967E-001  0.8000000E+02  0.7546771E-02  0.1203772E+00
         11   -1    0    0    0    0  0.00000000000E+00  0.00000000000E+00  0.40000000000E+02  0.40000000000E+02  0.00000000000E+00 0.  1.
        -11   -1    0    0    0    0 -0.00000000000E+00 -0.00000000000E+00 -0.40000000000E+02  0.40000000000E+02  0.00000000000E+00 0. -1.
         23    2    1    2    0    0  0.00000000000E+00  0.00000000000E+00  0.00000000000E+00  0.80000000000E+02  0.80000000000E+02 0.  0.
          5    1    3    3  501    0  0.25333495673E+02  0.22110711545E+01 -0.30516145912E+02  0.40000000000E+02  0.47000000000E+01 0. -1.
         -5    1    3    3    0  501 -0.25333495673E+02 -0.22110711545E+01  0.30516145912E+02  0.40000000000E+02  0.47000000000E+01 0.  1.
</event>
<event>
 5    1  0.4833967E-001  0.8000000E+02  0.7546771E-02  0.1203772E+00
         11   -1    0    0    0    0  0.00000000000E+00  0.00000000000E+00  0.40000000000E+02  0.40000000000E+02  0.00000000000E+00 0.  1.
        -11   -1    0    0    0    0 -0.00000000000E+00 -0.00000000000E+00 -0.40000000000E+02  0.40000000000E+02  0.00000000000E+00 0. -1.
         23    2    1    2    0    0  0.00000000000E+00  0.00000000000E+00  0.00000000000E+00  0.80000000000E+02  0.80000000000E+02 0.  0.
          5    1    3    3  501    0 -0.32457046657E+02  0.13531981305E+02 -0.18475270072E+02  0.40000000000E+02  0.47000000000E+01 0. -1.
         -5    1    3    3    0  501  0.32457046657E+02 -0.13531981305E+02  0.18475270072E+02  0.40000000000E+02  0.47000000000E+01 0.  1.
</event>
<event>
 5    1  0.4833967E-001  0.8000000E+02  0.7546771E-02  0.1203772E+00
         11   -1    0    0    0    0  0.00000000000E+00  0.00000000000E+00  0.40000000000E+02  0.40000000000E+02  0.00000000000E+00 0. -1.
        -11   -1    0    0    0    0 -0.00000000000E+00 -0.00000000000E+00 -0.40000000000E+02  0.40000000000E+02  0.00000000000E+00 0.  1.
         23    2    1    2    0    0  0.00000000000E+00  0.00000000000E+00  0.00000000000E+00  0.80000000000E+02  0.80000000000E+02 0.  0.
          5    1    3    3  501    0 -0.26608190615E+02  0.40392279141E+01 -0.29216413710E+02  0.40000000000E+02  0.47000000000E+01 0. -1.
         -5    1    3    3    0  501  0.26608190615E+02 -0.40392279141E+01  0.29216413710E+02  0.40000000000E+02  0.47000000000E+01 0.  1.
</event>
<event>
 5    1  0.4833967E-001  0.8000000E+02  0.7546771E-02  0.1203772E+00
         11   -1    0    0    0    0  0.00000000000E+00  0.00000000000E+00  0.40000000000E+02  0.40000000000E+02  0.00000000000E+00 0. -1.
        -11   -1    0    0    0    0 -0.00000000000E+00 -0.00000000000E+00 -0.40000000000E+02  0.40000000000E+02  0.00000000000E+00 0.  1.
         23    2    1    2    0    0  0.00000000000E+00  0.00000000000E+00  0.00000000000E+00  0.80000000000E+02  0.80000000000E+02 0.  0.
          5    1    3    3  501    0  0.24631330562E+01 -0.39568261743E+02  0.24891038907E+01  0.40000000000E+02  0.47000000000E+01 0. -1.
         -5    1    3    3    0  501 -0.24631330562E+01  0.39568261743E+02 -0.24891038907E+01  0.40000000000E+02  0.47000000000E+01 0.  1.
</event>
<event>
 5    1  0.4833967E-001  0.8000000E+02  0.7546771E-02  0.1203772E+00
         11   -1    0    0    0    0  0.00000000000E+00  0.00000000000E+00  0.40000000000E+02  0.40000000000E+02  0.00000000000E+00 0.  1.
        -11   -1    0    0    0    0 -0.00000000000E+00 -0.00000000000E+00 -0.40000000000E+02  0.40000000000E+02  0.00000000000E+00 0. -1.
         23    2    1    2    0    0  0.00000000000E+00  0.00000000000E+00  0.00000000000E+00  0.80000000000E+02  0.80000000000E+02 0.  0.
          5    1    3    3  501    0 -0.69058099750E+01  0.20654143005E+02 -0.33220869425E+02  0.40000000000E+02  0.47000000000E+01 0. -1.
         -5    1    3    3    0  501  0.69058099750E+01 -0.20654143005E+02  0.33220869425E+02  0.40000000000E+02  0.47000000000E+01 0.  1.
</event>
<event>
 5    1  0.4833967E-001  0.8000000E+02  0.7546771E-02  0.1203772E+00
         11   -1    0    0    0    0  0.00000000000E+00  0.00000000000E+00  0.40000000000E+02  0.40000000000E+02  0.00000000000E+00 0.  1.
        -11   -1    0    0    0    0 -0.00000000000E+00 -0.00000000000E+00 -0.40000000000E+02  0.40000000000E+02  0.00000000000E+00 0. -1.
         23    2    1    2    0    0  0.00000000000E+00  0.00000000000E+00  0.00000000000E+00  0.80000000000E+02  0.80000000000E+02 0.  0.
          5    1    3    3  501    0  0.37701652736E+02  0.11149062776E+02  0.56739563050E+01  0.40000000000E+02  0.47000000000E+01 0. -1.
         -5    1    3    3    0  501 -0.37701652736E+02 -0.11149062776E+02 -0.56739563050E+01  0.40000000000E+02  0.47000000000E+01 0.  1.
</event>
<event>
 5    1  0.4833967E-001  0.8000000E+02  0.7546771E-02  0.1203772E+00
         11   -1    0    0    0    0  0.00000000000E+00  0.00000000000E+00  0.40000000000E+02  0.40000000000E+02  0.00000000000E+00 0. -1.
        -11   -1    0    0    0    0 -0.00000000000E+00 -0.00000000000E+00 -0.40000000000E+02  0.40000000000E+02  0.00000000000E+00 0.  1.
         23    2    1    2    0    0  0.00000000000E+00  0.00000000000E+00  0.00000000000E+00  0.80000000000E+02  0.80000000000E+02 0.  0.
          5    1    3    3  501    0 -0.87128408246E+01 -0.38106984755E+02  0.70607448349E+01  0.40000000000E+02  0.47000000000E+01 0.  1.
         -5    1    3    3    0  501  0.87128408246E+01  0.38106984755E+02 -0.70607448349E+01  0.40000000000E+02  0.47000000000E+01 0. -1.
</event>
<event>
 5    1  0.4833967E-001  0.8000000E+02  0.7546771E-02  0.1203772E+00
         11   -1    0    0    0    0  0.00000000000E+00  0.00000000000E+00  0.40000000000E+02  0.40000000000E+02  0.00000000000E+00 0.  1.
        -11   -1    0    0    0    0 -0.00000000000E+00 -0.00000000000E+00 -0.40000000000E+02  0.40000000000E+02  0.00000000000E+00 0. -1.
         23    2    1    2    0    0  0.00000000000E+00  0.00000000000E+00  0.00000000000E+00  0.80000000000E+02  0.80000000000E+02 0.  0.
          5    1    3    3  501    0  0.22039646657E+02  0.27289900857E+02 -0.18639347801E+02  0.40000000000E+02  0.47000000000E+01 0. -1.
         -5    1    3    3    0  501 -0.22039646657E+02 -0.27289900857E+02  0.18639347801E+02  0.40000000000E+02  0.47000000000E+01 0.  1.
</event>
<event>
 5    1  0.4833967E-001  0.8000000E+02  0.7546771E-02  0.1203772E+00
         11   -1    0    0    0    0  0.00000000000E+00  0.00000000000E+00  0.40000000000E+02  0.40000000000E+02  0.00000000000E+00 0. -1.
        -11   -1    0    0    0    0 -0.00000000000E+00 -0.00000000000E+00 -0.40000000000E+02  0.40000000000E+02  0.00000000000E+00 0.  1.
         23    2    1    2    0    0  0.00000000000E+00  0.00000000000E+00  0.00000000000E+00  0.80000000000E+02  0.80000000000E+02 0.  0.
          5    1    3    3  501    0  0.11704168418E+02 -0.14394577607E+01 -0.37932181627E+02  0.40000000000E+02  0.47000000000E+01 0.  1.
         -5    1    3    3    0  501 -0.11704168418E+02  0.14394577607E+01  0.37932181627E+02  0.40000000000E+02  0.47000000000E+01 0. -1.
</event>
<event>
 5    1  0.4833967E-001  0.8000000E+02  0.7546771E-02  0.1203772E+00
         11   -1    0    0    0    0  0.00000000000E+00  0.00000000000E+00  0.40000000000E+02  0.40000000000E+02  0.00000000000E+00 0. -1.
        -11   -1    0    0    0    0 -0.00000000000E+00 -0.00000000000E+00 -0.40000000000E+02  0.40000000000E+02  0.00000000000E+00 0.  1.
         23    2    1    2    0    0  0.00000000000E+00  0.00000000000E+00  0.00000000000E+00  0.80000000000E+02  0.80000000000E+02 0.  0.
          5    1    3    3  501    0 -0.16084902373E+02  0.25839391891E+02  0.25524728056E+02  0.40000000000E+02  0.47000000000E+01 0. -1.
         -5    1    3    3    0  501  0.16084902373E+02 -0.25839391891E+02 -0.25524728056E+02  0.40000000000E+02  0.47000000000E+01 0.  1.
</event>
<event>
 5    1  0.4833967E-001  0.8000000E+02  0.7546771E-02  0.1203772E+00
         11   -1    0    0    0    0  0.00000000000E+00  0.00000000000E+00  0.40000000000E+02  0.40000000000E+02  0.00000000000E+00 0.  1.
        -11   -1    0    0    0    0 -0.00000000000E+00 -0.00000000000E+00 -0.40000000000E+02  0.40000000000E+02  0.00000000000E+00 0. -1.
         23    2    1    2    0    0  0.00000000000E+00  0.00000000000E+00  0.00000000000E+00  0.80000000000E+02  0.80000000000E+02 0.  0.
          5    1    3    3  501    0 -0.44948154601E+01  0.37416749084E+02 -0.12557608132E+02  0.40000000000E+02  0.47000000000E+01 0. -1.
         -5    1    3    3    0  501  0.44948154601E+01 -0.37416749084E+02  0.12557608132E+02  0.40000000000E+02  0.47000000000E+01 0.  1.
</event>
<event>
 5    1  0.4833967E-001  0.8000000E+02  0.7546771E-02  0.1203772E+00
         11   -1    0    0    0    0  0.00000000000E+00  0.00000000000E+00  0.40000000000E+02  0.40000000000E+02  0.00000000000E+00 0. -1.
        -11   -1    0    0    0    0 -0.00000000000E+00 -0.00000000000E+00 -0.40000000000E+02  0.40000000000E+02  0.00000000000E+00 0.  1.
         23    2    1    2    0    0  0.00000000000E+00  0.00000000000E+00  0.00000000000E+00  0.80000000000E+02  0.80000000000E+02 0.  0.
          5    1    3    3  501    0 -0.60652786702E+01 -0.18529043728E+02  0.34609203013E+02  0.40000000000E+02  0.47000000000E+01 0. -1.
         -5    1    3    3    0  501  0.60652786702E+01  0.18529043728E+02 -0.34609203013E+02  0.40000000000E+02  0.47000000000E+01 0.  1.
</event>
<event>
 5    1  0.4833967E-001  0.8000000E+02  0.7546771E-02  0.1203772E+00
         11   -1    0    0    0    0  0.00000000000E+00  0.00000000000E+00  0.40000000000E+02  0.40000000000E+02  0.00000000000E+00 0. -1.
        -11   -1    0    0    0    0 -0.00000000000E+00 -0.00000000000E+00 -0.40000000000E+02  0.40000000000E+02  0.00000000000E+00 0.  1.
         23    2    1    2    0    0  0.00000000000E+00  0.00000000000E+00  0.00000000000E+00  0.80000000000E+02  0.80000000000E+02 0.  0.
          5    1    3    3  501    0  0.11902172357E+02  0.18468740851E+02 -0.33093109624E+02  0.40000000000E+02  0.47000000000E+01 0.  1.
         -5    1    3    3    0  501 -0.11902172357E+02 -0.18468740851E+02  0.33093109624E+02  0.40000000000E+02  0.47000000000E+01 0. -1.
</event>
<event>
 5    1  0.4833967E-001  0.8000000E+02  0.7546771E-02  0.1203772E+00
         11   -1    0    0    0    0  0.00000000000E+00  0.00000000000E+00  0.40000000000E+02  0.40000000000E+02  0.00000000000E+00 0. -1.
        -11   -1    0    0    0    0 -0.00000000000E+00 -0.00000000000E+00 -0.40000000000E+02  0.40000000000E+02  0.00000000000E+00 0.  1.
         23    2    1    2    0    0  0.00000000000E+00  0.00000000000E+00  0.00000000000E+00  0.80000000000E+02  0.80000000000E+02 0.  0.
          5    1    3    3  501    0  0.27449504921E+02 -0.28603283759E+02 -0.25073567262E+01  0.40000000000E+02  0.47000000000E+01 0. -1.
         -5    1    3    3    0  501 -0.27449504921E+02  0.28603283759E+02  0.25073567262E+01  0.40000000000E+02  0.47000000000E+01 0.  1.
</event>
<event>
 5    1  0.4833967E-001  0.8000000E+02  0.7546771E-02  0.1203772E+00
         11   -1    0    0    0    0  0.00000000000E+00  0.00000000000E+00  0.40000000000E+02  0.40000000000E+02  0.00000000000E+00 0.  1.
        -11   -1    0    0    0    0 -0.00000000000E+00 -0.00000000000E+00 -0.40000000000E+02  0.40000000000E+02  0.00000000000E+00 0. -1.
         23    2    1    2    0    0  0.00000000000E+00  0.00000000000E+00  0.00000000000E+00  0.80000000000E+02  0.80000000000E+02 0.  0.
          5    1    3    3  501    0  0.21072058702E+02 -0.14235499070E+02 -0.30516043457E+02  0.40000000000E+02  0.47000000000E+01 0. -1.
         -5    1    3    3    0  501 -0.21072058702E+02  0.14235499070E+02  0.30516043457E+02  0.40000000000E+02  0.47000000000E+01 0.  1.
</event>
<event>
 5    1  0.4833967E-001  0.8000000E+02  0.7546771E-02  0.1203772E+00
         11   -1    0    0    0    0  0.00000000000E+00  0.00000000000E+00  0.40000000000E+02  0.40000000000E+02  0.00000000000E+00 0.  1.
        -11   -1    0    0    0    0 -0.00000000000E+00 -0.00000000000E+00 -0.40000000000E+02  0.40000000000E+02  0.00000000000E+00 0. -1.
         23    2    1    2    0    0  0.00000000000E+00  0.00000000000E+00  0.00000000000E+00  0.80000000000E+02  0.80000000000E+02 0.  0.
          5    1    3    3  501    0  0.11280607785E+01 -0.10296122154E+02 -0.38348759399E+02  0.40000000000E+02  0.47000000000E+01 0. -1.
         -5    1    3    3    0  501 -0.11280607785E+01  0.10296122154E+02  0.38348759399E+02  0.40000000000E+02  0.47000000000E+01 0.  1.
</event>
<event>
 5    1  0.4833967E-001  0.8000000E+02  0.7546771E-02  0.1203772E+00
         11   -1    0    0    0    0  0.00000000000E+00  0.00000000000E+00  0.40000000000E+02  0.40000000000E+02  0.00000000000E+00 0. -1.
        -11   -1    0    0    0    0 -0.00000000000E+00 -0.00000000000E+00 -0.40000000000E+02  0.40000000000E+02  0.00000000000E+00 0.  1.
         23    2    1    2    0    0  0.00000000000E+00  0.00000000000E+00  0.00000000000E+00  0.80000000000E+02  0.80000000000E+02 0.  0.
          5    1    3    3  501    0  0.28525746911E+02 -0.58262917045E+01  0.27023065854E+02  0.40000000000E+02  0.47000000000E+01 0. -1.
         -5    1    3    3    0  501 -0.28525746911E+02  0.58262917045E+01 -0.27023065854E+02  0.40000000000E+02  0.47000000000E+01 0.  1.
</event>
<event>
 5    1  0.4833967E-001  0.8000000E+02  0.7546771E-02  0.1203772E+00
         11   -1    0    0    0    0  0.00000000000E+00  0.00000000000E+00  0.40000000000E+02  0.40000000000E+02  0.00000000000E+00 0.  1.
        -11   -1    0    0    0    0 -0.00000000000E+00 -0.00000000000E+00 -0.40000000000E+02  0.40000000000E+02  0.00000000000E+00 0. -1.
         23    2    1    2    0    0  0.00000000000E+00  0.00000000000E+00  0.00000000000E+00  0.80000000000E+02  0.80000000000E+02 0.  0.
          5    1    3    3  501    0  0.18713655546E+02 -0.33948654177E+02 -0.86716766356E+01  0.40000000000E+02  0.47000000000E+01 0. -1.
         -5    1    3    3    0  501 -0.18713655546E+02  0.33948654177E+02  0.86716766356E+01  0.40000000000E+02  0.47000000000E+01 0.  1.
</event>
<event>
 5    1  0.4833967E-001  0.8000000E+02  0.7546771E-02  0.1203772E+00
         11   -1    0    0    0    0  0.00000000000E+00  0.00000000000E+00  0.40000000000E+02  0.40000000000E+02  0.00000000000E+00 0. -1.
        -11   -1    0    0    0    0 -0.00000000000E+00 -0.00000000000E+00 -0.40000000000E+02  0.40000000000E+02  0.00000000000E+00 0.  1.
         23    2    1    2    0    0  0.00000000000E+00  0.00000000000E+00  0.00000000000E+00  0.80000000000E+02  0.80000000000E+02 0.  0.
          5    1    3    3  501    0 -0.24452506558E+02 -0.28606704815E+02  0.12713825649E+02  0.40000000000E+02  0.47000000000E+01 0. -1.
         -5    1    3    3    0  501  0.24452506558E+02  0.28606704815E+02 -0.12713825649E+02  0.40000000000E+02  0.47000000000E+01 0.  1.
</event>
<event>
 5    1  0.4833967E-001  0.8000000E+02  0.7546771E-02  0.1203772E+00
         11   -1    0    0    0    0  0.00000000000E+00  0.00000000000E+00  0.40000000000E+02  0.40000000000E+02  0.00000000000E+00 0.  1.
        -11   -1    0    0    0    0 -0.00000000000E+00 -0.00000000000E+00 -0.40000000000E+02  0.40000000000E+02  0.00000000000E+00 0. -1.
         23    2    1    2    0    0  0.00000000000E+00  0.00000000000E+00  0.00000000000E+00  0.80000000000E+02  0.80000000000E+02 0.  0.
          5    1    3    3  501    0 -0.29694243989E+02  0.20827805023E+02 -0.16197666864E+02  0.40000000000E+02  0.47000000000E+01 0. -1.
         -5    1    3    3    0  501  0.29694243989E+02 -0.20827805023E+02  0.16197666864E+02  0.40000000000E+02  0.47000000000E+01 0.  1.
</event>
<event>
 5    1  0.4833967E-001  0.8000000E+02  0.7546771E-02  0.1203772E+00
         11   -1    0    0    0    0  0.00000000000E+00  0.00000000000E+00  0.40000000000E+02  0.40000000000E+02  0.00000000000E+00 0.  1.
        -11   -1    0    0    0    0 -0.00000000000E+00 -0.00000000000E+00 -0.40000000000E+02  0.40000000000E+02  0.00000000000E+00 0. -1.
         23    2    1    2    0    0  0.00000000000E+00  0.00000000000E+00  0.00000000000E+00  0.80000000000E+02  0.80000000000E+02 0.  0.
          5    1    3    3  501    0  0.18210424511E+02  0.32526112917E+02  0.13723790207E+02  0.40000000000E+02  0.47000000000E+01 0. -1.
         -5    1    3    3    0  501 -0.18210424511E+02 -0.32526112917E+02 -0.13723790207E+02  0.40000000000E+02  0.47000000000E+01 0. -1.
</event>
<event>
 5    1  0.4833967E-001  0.8000000E+02  0.7546771E-02  0.1203772E+00
         11   -1    0    0    0    0  0.00000000000E+00  0.00000000000E+00  0.40000000000E+02  0.40000000000E+02  0.00000000000E+00 0. -1.
        -11   -1    0    0    0    0 -0.00000000000E+00 -0.00000000000E+00 -0.40000000000E+02  0.40000000000E+02  0.00000000000E+00 0.  1.
         23    2    1    2    0    0  0.00000000000E+00  0.00000000000E+00  0.00000000000E+00  0.80000000000E+02  0.80000000000E+02 0.  0.
          5    1    3    3  501    0  0.20843064960E+02  0.19463346217E+02  0.27652392249E+02  0.40000000000E+02  0.47000000000E+01 0. -1.
         -5    1    3    3    0  501 -0.20843064960E+02 -0.19463346217E+02 -0.27652392249E+02  0.40000000000E+02  0.47000000000E+01 0.  1.
</event>
<event>
 5    1  0.4833967E-001  0.8000000E+02  0.7546771E-02  0.1203772E+00
         11   -1    0    0    0    0  0.00000000000E+00  0.00000000000E+00  0.40000000000E+02  0.40000000000E+02  0.00000000000E+00 0.  1.
        -11   -1    0    0    0    0 -0.00000000000E+00 -0.00000000000E+00 -0.40000000000E+02  0.40000000000E+02  0.00000000000E+00 0. -1.
         23    2    1    2    0    0  0.00000000000E+00  0.00000000000E+00  0.00000000000E+00  0.80000000000E+02  0.80000000000E+02 0.  0.
          5    1    3    3  501    0 -0.61000834177E+01  0.38697335184E+02  0.65738293238E+01  0.40000000000E+02  0.47000000000E+01 0. -1.
         -5    1    3    3    0  501  0.61000834177E+01 -0.38697335184E+02 -0.65738293238E+01  0.40000000000E+02  0.47000000000E+01 0.  1.
</event>
<event>
 5    1  0.4833967E-001  0.8000000E+02  0.7546771E-02  0.1203772E+00
         11   -1    0    0    0    0  0.00000000000E+00  0.00000000000E+00  0.40000000000E+02  0.40000000000E+02  0.00000000000E+00 0. -1.
        -11   -1    0    0    0    0 -0.00000000000E+00 -0.00000000000E+00 -0.40000000000E+02  0.40000000000E+02  0.00000000000E+00 0.  1.
         23    2    1    2    0    0  0.00000000000E+00  0.00000000000E+00  0.00000000000E+00  0.80000000000E+02  0.80000000000E+02 0.  0.
          5    1    3    3  501    0  0.30132510886E+02 -0.12682888751E+02  0.22562936879E+02  0.40000000000E+02  0.47000000000E+01 0. -1.
         -5    1    3    3    0  501 -0.30132510886E+02  0.12682888751E+02 -0.22562936879E+02  0.40000000000E+02  0.47000000000E+01 0.  1.
</event>
<event>
 5    1  0.4833967E-001  0.8000000E+02  0.7546771E-02  0.1203772E+00
         11   -1    0    0    0    0  0.00000000000E+00  0.00000000000E+00  0.40000000000E+02  0.40000000000E+02  0.00000000000E+00 0. -1.
        -11   -1    0    0    0    0 -0.00000000000E+00 -0.00000000000E+00 -0.40000000000E+02  0.40000000000E+02  0.00000000000E+00 0.  1.
         23    2    1    2    0    0  0.00000000000E+00  0.00000000000E+00  0.00000000000E+00  0.80000000000E+02  0.80000000000E+02 0.  0.
          5    1    3    3  501    0  0.38742241724E+02  0.21381902455E+01  0.85074584160E+01  0.40000000000E+02  0.47000000000E+01 0. -1.
         -5    1    3    3    0  501 -0.38742241724E+02 -0.21381902455E+01 -0.85074584160E+01  0.40000000000E+02  0.47000000000E+01 0.  1.
</event>
<event>
 5    1  0.4833967E-001  0.8000000E+02  0.7546771E-02  0.1203772E+00
         11   -1    0    0    0    0  0.00000000000E+00  0.00000000000E+00  0.40000000000E+02  0.40000000000E+02  0.00000000000E+00 0.  1.
        -11   -1    0    0    0    0 -0.00000000000E+00 -0.00000000000E+00 -0.40000000000E+02  0.40000000000E+02  0.00000000000E+00 0. -1.
         23    2    1    2    0    0  0.00000000000E+00  0.00000000000E+00  0.00000000000E+00  0.80000000000E+02  0.80000000000E+02 0.  0.
          5    1    3    3  501    0 -0.17406300344E+01  0.13958740818E+02 -0.37148805659E+02  0.40000000000E+02  0.47000000000E+01 0. -1.
         -5    1    3    3    0  501  0.17406300344E+01 -0.13958740818E+02  0.37148805659E+02  0.40000000000E+02  0.47000000000E+01 0.  1.
</event>
<event>
 5    1  0.4833967E-001  0.8000000E+02  0.7546771E-02  0.1203772E+00
         11   -1    0    0    0    0  0.00000000000E+00  0.00000000000E+00  0.40000000000E+02  0.40000000000E+02  0.00000000000E+00 0. -1.
        -11   -1    0    0    0    0 -0.00000000000E+00 -0.00000000000E+00 -0.40000000000E+02  0.40000000000E+02  0.00000000000E+00 0.  1.
         23    2    1    2    0    0  0.00000000000E+00  0.00000000000E+00  0.00000000000E+00  0.80000000000E+02  0.80000000000E+02 0.  0.
          5    1    3    3  501    0  0.28393719565E+02 -0.97686647773E+01  0.26005381707E+02  0.40000000000E+02  0.47000000000E+01 0. -1.
         -5    1    3    3    0  501 -0.28393719565E+02  0.97686647773E+01 -0.26005381707E+02  0.40000000000E+02  0.47000000000E+01 0.  1.
</event>
<event>
 5    1  0.4833967E-001  0.8000000E+02  0.7546771E-02  0.1203772E+00
         11   -1    0    0    0    0  0.00000000000E+00  0.00000000000E+00  0.40000000000E+02  0.40000000000E+02  0.00000000000E+00 0. -1.
        -11   -1    0    0    0    0 -0.00000000000E+00 -0.00000000000E+00 -0.40000000000E+02  0.40000000000E+02  0.00000000000E+00 0.  1.
         23    2    1    2    0    0  0.00000000000E+00  0.00000000000E+00  0.00000000000E+00  0.80000000000E+02  0.80000000000E+02 0.  0.
          5    1    3    3  501    0 -0.29771386404E+02 -0.73717098071E+01  0.25243463434E+02  0.40000000000E+02  0.47000000000E+01 0. -1.
         -5    1    3    3    0  501  0.29771386404E+02  0.73717098071E+01 -0.25243463434E+02  0.40000000000E+02  0.47000000000E+01 0.  1.
</event>
<event>
 5    1  0.4833967E-001  0.8000000E+02  0.7546771E-02  0.1203772E+00
         11   -1    0    0    0    0  0.00000000000E+00  0.00000000000E+00  0.40000000000E+02  0.40000000000E+02  0.00000000000E+00 0.  1.
        -11   -1    0    0    0    0 -0.00000000000E+00 -0.00000000000E+00 -0.40000000000E+02  0.40000000000E+02  0.00000000000E+00 0. -1.
         23    2    1    2    0    0  0.00000000000E+00  0.00000000000E+00  0.00000000000E+00  0.80000000000E+02  0.80000000000E+02 0.  0.
          5    1    3    3  501    0 -0.39033487294E+02 -0.67991347390E+01 -0.28405345434E+01  0.40000000000E+02  0.47000000000E+01 0. -1.
         -5    1    3    3    0  501  0.39033487294E+02  0.67991347390E+01  0.28405345434E+01  0.40000000000E+02  0.47000000000E+01 0.  1.
</event>
<event>
 5    1  0.4833967E-001  0.8000000E+02  0.7546771E-02  0.1203772E+00
         11   -1    0    0    0    0  0.00000000000E+00  0.00000000000E+00  0.40000000000E+02  0.40000000000E+02  0.00000000000E+00 0. -1.
        -11   -1    0    0    0    0 -0.00000000000E+00 -0.00000000000E+00 -0.40000000000E+02  0.40000000000E+02  0.00000000000E+00 0.  1.
         23    2    1    2    0    0  0.00000000000E+00  0.00000000000E+00  0.00000000000E+00  0.80000000000E+02  0.80000000000E+02 0.  0.
          5    1    3    3  501    0 -0.64087108346E+01 -0.57023453121E+01  0.38785586026E+02  0.40000000000E+02  0.47000000000E+01 0. -1.
         -5    1    3    3    0  501  0.64087108346E+01  0.57023453121E+01 -0.38785586026E+02  0.40000000000E+02  0.47000000000E+01 0.  1.
</event>
<event>
 5    1  0.4833967E-001  0.8000000E+02  0.7546771E-02  0.1203772E+00
         11   -1    0    0    0    0  0.00000000000E+00  0.00000000000E+00  0.40000000000E+02  0.40000000000E+02  0.00000000000E+00 0.  1.
        -11   -1    0    0    0    0 -0.00000000000E+00 -0.00000000000E+00 -0.40000000000E+02  0.40000000000E+02  0.00000000000E+00 0. -1.
         23    2    1    2    0    0  0.00000000000E+00  0.00000000000E+00  0.00000000000E+00  0.80000000000E+02  0.80000000000E+02 0.  0.
          5    1    3    3  501    0 -0.27243345552E+02  0.28758704935E+02 -0.29405804936E+01  0.40000000000E+02  0.47000000000E+01 0. -1.
         -5    1    3    3    0  501  0.27243345552E+02 -0.28758704935E+02  0.29405804936E+01  0.40000000000E+02  0.47000000000E+01 0.  1.
</event>
<event>
 5    1  0.4833967E-001  0.8000000E+02  0.7546771E-02  0.1203772E+00
         11   -1    0    0    0    0  0.00000000000E+00  0.00000000000E+00  0.40000000000E+02  0.40000000000E+02  0.00000000000E+00 0. -1.
        -11   -1    0    0    0    0 -0.00000000000E+00 -0.00000000000E+00 -0.40000000000E+02  0.40000000000E+02  0.00000000000E+00 0.  1.
         23    2    1    2    0    0  0.00000000000E+00  0.00000000000E+00  0.00000000000E+00  0.80000000000E+02  0.80000000000E+02 0.  0.
          5    1    3    3  501    0 -0.16063102185E+01 -0.34820268791E+02  0.19049373975E+02  0.40000000000E+02  0.47000000000E+01 0. -1.
         -5    1    3    3    0  501  0.16063102185E+01  0.34820268791E+02 -0.19049373975E+02  0.40000000000E+02  0.47000000000E+01 0.  1.
</event>
<event>
 5    1  0.4833967E-001  0.8000000E+02  0.7546771E-02  0.1203772E+00
         11   -1    0    0    0    0  0.00000000000E+00  0.00000000000E+00  0.40000000000E+02  0.40000000000E+02  0.00000000000E+00 0. -1.
        -11   -1    0    0    0    0 -0.00000000000E+00 -0.00000000000E+00 -0.40000000000E+02  0.40000000000E+02  0.00000000000E+00 0.  1.
         23    2    1    2    0    0  0.00000000000E+00  0.00000000000E+00  0.00000000000E+00  0.80000000000E+02  0.80000000000E+02 0.  0.
          5    1    3    3  501    0 -0.52806384206E+01  0.37834576771E+02  0.10888969576E+02  0.40000000000E+02  0.47000000000E+01 0. -1.
         -5    1    3    3    0  501  0.52806384206E+01 -0.37834576771E+02 -0.10888969576E+02  0.40000000000E+02  0.47000000000E+01 0.  1.
</event>
<event>
 5    1  0.4833967E-001  0.8000000E+02  0.7546771E-02  0.1203772E+00
         11   -1    0    0    0    0  0.00000000000E+00  0.00000000000E+00  0.40000000000E+02  0.40000000000E+02  0.00000000000E+00 0.  1.
        -11   -1    0    0    0    0 -0.00000000000E+00 -0.00000000000E+00 -0.40000000000E+02  0.40000000000E+02  0.00000000000E+00 0. -1.
         23    2    1    2    0    0  0.00000000000E+00  0.00000000000E+00  0.00000000000E+00  0.80000000000E+02  0.80000000000E+02 0.  0.
          5    1    3    3  501    0 -0.75288576123E+01  0.75317217902E+01 -0.38268779311E+02  0.40000000000E+02  0.47000000000E+01 0. -1.
         -5    1    3    3    0  501  0.75288576123E+01 -0.75317217902E+01  0.38268779311E+02  0.40000000000E+02  0.47000000000E+01 0.  1.
</event>
<event>
 5    1  0.4833967E-001  0.8000000E+02  0.7546771E-02  0.1203772E+00
         11   -1    0    0    0    0  0.00000000000E+00  0.00000000000E+00  0.40000000000E+02  0.40000000000E+02  0.00000000000E+00 0. -1.
        -11   -1    0    0    0    0 -0.00000000000E+00 -0.00000000000E+00 -0.40000000000E+02  0.40000000000E+02  0.00000000000E+00 0.  1.
         23    2    1    2    0    0  0.00000000000E+00  0.00000000000E+00  0.00000000000E+00  0.80000000000E+02  0.80000000000E+02 0.  0.
          5    1    3    3  501    0  0.28505516787E+02  0.27574049997E+02 -0.22399284578E+01  0.40000000000E+02  0.47000000000E+01 0. -1.
         -5    1    3    3    0  501 -0.28505516787E+02 -0.27574049997E+02  0.22399284578E+01  0.40000000000E+02  0.47000000000E+01 0.  1.
</event>
<event>
 5    1  0.4833967E-001  0.8000000E+02  0.7546771E-02  0.1203772E+00
         11   -1    0    0    0    0  0.00000000000E+00  0.00000000000E+00  0.40000000000E+02  0.40000000000E+02  0.00000000000E+00 0. -1.
        -11   -1    0    0    0    0 -0.00000000000E+00 -0.00000000000E+00 -0.40000000000E+02  0.40000000000E+02  0.00000000000E+00 0.  1.
         23    2    1    2    0    0  0.00000000000E+00  0.00000000000E+00  0.00000000000E+00  0.80000000000E+02  0.80000000000E+02 0.  0.
          5    1    3    3  501    0  0.32016143587E+02 -0.88698224007E+01 -0.21776198025E+02  0.40000000000E+02  0.47000000000E+01 0.  1.
         -5    1    3    3    0  501 -0.32016143587E+02  0.88698224007E+01  0.21776198025E+02  0.40000000000E+02  0.47000000000E+01 0. -1.
</event>
<event>
 5    1  0.4833967E-001  0.8000000E+02  0.7546771E-02  0.1203772E+00
         11   -1    0    0    0    0  0.00000000000E+00  0.00000000000E+00  0.40000000000E+02  0.40000000000E+02  0.00000000000E+00 0. -1.
        -11   -1    0    0    0    0 -0.00000000000E+00 -0.00000000000E+00 -0.40000000000E+02  0.40000000000E+02  0.00000000000E+00 0.  1.
         23    2    1    2    0    0  0.00000000000E+00  0.00000000000E+00  0.00000000000E+00  0.80000000000E+02  0.80000000000E+02 0.  0.
          5    1    3    3  501    0  0.10712034355E+02 -0.31369041067E+02 -0.21889394294E+02  0.40000000000E+02  0.47000000000E+01 0.  1.
         -5    1    3    3    0  501 -0.10712034355E+02  0.31369041067E+02  0.21889394294E+02  0.40000000000E+02  0.47000000000E+01 0. -1.
</event>
<event>
 5    1  0.4833967E-001  0.8000000E+02  0.7546771E-02  0.1203772E+00
         11   -1    0    0    0    0  0.00000000000E+00  0.00000000000E+00  0.40000000000E+02  0.40000000000E+02  0.00000000000E+00 0. -1.
        -11   -1    0    0    0    0 -0.00000000000E+00 -0.00000000000E+00 -0.40000000000E+02  0.40000000000E+02  0.00000000000E+00 0.  1.
         23    2    1    2    0    0  0.00000000000E+00  0.00000000000E+00  0.00000000000E+00  0.80000000000E+02  0.80000000000E+02 0.  0.
          5    1    3    3  501    0 -0.12818067402E+02 -0.62074641383E+01  0.37081997479E+02  0.40000000000E+02  0.47000000000E+01 0. -1.
         -5    1    3    3    0  501  0.12818067402E+02  0.62074641383E+01 -0.37081997479E+02  0.40000000000E+02  0.47000000000E+01 0.  1.
</event>
<event>
 5    1  0.4833967E-001  0.8000000E+02  0.7546771E-02  0.1203772E+00
         11   -1    0    0    0    0  0.00000000000E+00  0.00000000000E+00  0.40000000000E+02  0.40000000000E+02  0.00000000000E+00 0.  1.
        -11   -1    0    0    0    0 -0.00000000000E+00 -0.00000000000E+00 -0.40000000000E+02  0.40000000000E+02  0.00000000000E+00 0. -1.
         23    2    1    2    0    0  0.00000000000E+00  0.00000000000E+00  0.00000000000E+00  0.80000000000E+02  0.80000000000E+02 0.  0.
          5    1    3    3  501    0 -0.18435734167E+01 -0.26053986715E+02 -0.29928264456E+02  0.40000000000E+02  0.47000000000E+01 0. -1.
         -5    1    3    3    0  501  0.18435734167E+01  0.26053986715E+02  0.29928264456E+02  0.40000000000E+02  0.47000000000E+01 0.  1.
</event>
<event>
 5    1  0.4833967E-001  0.8000000E+02  0.7546771E-02  0.1203772E+00
         11   -1    0    0    0    0  0.00000000000E+00  0.00000000000E+00  0.40000000000E+02  0.40000000000E+02  0.00000000000E+00 0.  1.
        -11   -1    0    0    0    0 -0.00000000000E+00 -0.00000000000E+00 -0.40000000000E+02  0.40000000000E+02  0.00000000000E+00 0. -1.
         23    2    1    2    0    0  0.00000000000E+00  0.00000000000E+00  0.00000000000E+00  0.80000000000E+02  0.80000000000E+02 0.  0.
          5    1    3    3  501    0 -0.12275211529E+02  0.32420013034E+02 -0.19395152404E+02  0.40000000000E+02  0.47000000000E+01 0. -1.
         -5    1    3    3    0  501  0.12275211529E+02 -0.32420013034E+02  0.19395152404E+02  0.40000000000E+02  0.47000000000E+01 0.  1.
</event>
<event>
 5    1  0.4833967E-001  0.8000000E+02  0.7546771E-02  0.1203772E+00
         11   -1    0    0    0    0  0.00000000000E+00  0.00000000000E+00  0.40000000000E+02  0.40000000000E+02  0.00000000000E+00 0.  1.
        -11   -1    0    0    0    0 -0.00000000000E+00 -0.00000000000E+00 -0.40000000000E+02  0.40000000000E+02  0.00000000000E+00 0. -1.
         23    2    1    2    0    0  0.00000000000E+00  0.00000000000E+00  0.00000000000E+00  0.80000000000E+02  0.80000000000E+02 0.  0.
          5    1    3    3  501    0  0.20229654288E+02  0.16916457601E+00 -0.34185413128E+02  0.40000000000E+02  0.47000000000E+01 0. -1.
         -5    1    3    3    0  501 -0.20229654288E+02 -0.16916457601E+00  0.34185413128E+02  0.40000000000E+02  0.47000000000E+01 0.  1.
</event>
<event>
 5    1  0.4833967E-001  0.8000000E+02  0.7546771E-02  0.1203772E+00
         11   -1    0    0    0    0  0.00000000000E+00  0.00000000000E+00  0.40000000000E+02  0.40000000000E+02  0.00000000000E+00 0. -1.
        -11   -1    0    0    0    0 -0.00000000000E+00 -0.00000000000E+00 -0.40000000000E+02  0.40000000000E+02  0.00000000000E+00 0.  1.
         23    2    1    2    0    0  0.00000000000E+00  0.00000000000E+00  0.00000000000E+00  0.80000000000E+02  0.80000000000E+02 0.  0.
          5    1    3    3  501    0 -0.39924330094E+01 -0.36787129541E+02  0.14445676820E+02  0.40000000000E+02  0.47000000000E+01 0. -1.
         -5    1    3    3    0  501  0.39924330094E+01  0.36787129541E+02 -0.14445676820E+02  0.40000000000E+02  0.47000000000E+01 0.  1.
</event>
<event>
 5    1  0.4833967E-001  0.8000000E+02  0.7546771E-02  0.1203772E+00
         11   -1    0    0    0    0  0.00000000000E+00  0.00000000000E+00  0.40000000000E+02  0.40000000000E+02  0.00000000000E+00 0.  1.
        -11   -1    0    0    0    0 -0.00000000000E+00 -0.00000000000E+00 -0.40000000000E+02  0.40000000000E+02  0.00000000000E+00 0. -1.
         23    2    1    2    0    0  0.00000000000E+00  0.00000000000E+00  0.00000000000E+00  0.80000000000E+02  0.80000000000E+02 0.  0.
          5    1    3    3  501    0 -0.10777636712E+02 -0.78192172260E+01 -0.37424756364E+02  0.40000000000E+02  0.47000000000E+01 0. -1.
         -5    1    3    3    0  501  0.10777636712E+02  0.78192172260E+01  0.37424756364E+02  0.40000000000E+02  0.47000000000E+01 0.  1.
</event>
<event>
 5    1  0.4833967E-001  0.8000000E+02  0.7546771E-02  0.1203772E+00
         11   -1    0    0    0    0  0.00000000000E+00  0.00000000000E+00  0.40000000000E+02  0.40000000000E+02  0.00000000000E+00 0. -1.
        -11   -1    0    0    0    0 -0.00000000000E+00 -0.00000000000E+00 -0.40000000000E+02  0.40000000000E+02  0.00000000000E+00 0.  1.
         23    2    1    2    0    0  0.00000000000E+00  0.00000000000E+00  0.00000000000E+00  0.80000000000E+02  0.80000000000E+02 0.  0.
          5    1    3    3  501    0  0.13608522331E+02 -0.71310154579E+01  0.36631499267E+02  0.40000000000E+02  0.47000000000E+01 0. -1.
         -5    1    3    3    0  501 -0.13608522331E+02  0.71310154579E+01 -0.36631499267E+02  0.40000000000E+02  0.47000000000E+01 0.  1.
</event>
<event>
 5    1  0.4833967E-001  0.8000000E+02  0.7546771E-02  0.1203772E+00
         11   -1    0    0    0    0  0.00000000000E+00  0.00000000000E+00  0.40000000000E+02  0.40000000000E+02  0.00000000000E+00 0.  1.
        -11   -1    0    0    0    0 -0.00000000000E+00 -0.00000000000E+00 -0.40000000000E+02  0.40000000000E+02  0.00000000000E+00 0. -1.
         23    2    1    2    0    0  0.00000000000E+00  0.00000000000E+00  0.00000000000E+00  0.80000000000E+02  0.80000000000E+02 0.  0.
          5    1    3    3  501    0 -0.19383357620E+02  0.28714480088E+02 -0.19433838546E+02  0.40000000000E+02  0.47000000000E+01 0. -1.
         -5    1    3    3    0  501  0.19383357620E+02 -0.28714480088E+02  0.19433838546E+02  0.40000000000E+02  0.47000000000E+01 0.  1.
</event>
<event>
 5    1  0.4833967E-001  0.8000000E+02  0.7546771E-02  0.1203772E+00
         11   -1    0    0    0    0  0.00000000000E+00  0.00000000000E+00  0.40000000000E+02  0.40000000000E+02  0.00000000000E+00 0. -1.
        -11   -1    0    0    0    0 -0.00000000000E+00 -0.00000000000E+00 -0.40000000000E+02  0.40000000000E+02  0.00000000000E+00 0.  1.
         23    2    1    2    0    0  0.00000000000E+00  0.00000000000E+00  0.00000000000E+00  0.80000000000E+02  0.80000000000E+02 0.  0.
          5    1    3    3  501    0 -0.89313148249E+00  0.12214588727E+02  0.37787777632E+02  0.40000000000E+02  0.47000000000E+01 0. -1.
         -5    1    3    3    0  501  0.89313148249E+00 -0.12214588727E+02 -0.37787777632E+02  0.40000000000E+02  0.47000000000E+01 0.  1.
</event>
<event>
 5    1  0.4833967E-001  0.8000000E+02  0.7546771E-02  0.1203772E+00
         11   -1    0    0    0    0  0.00000000000E+00  0.00000000000E+00  0.40000000000E+02  0.40000000000E+02  0.00000000000E+00 0.  1.
        -11   -1    0    0    0    0 -0.00000000000E+00 -0.00000000000E+00 -0.40000000000E+02  0.40000000000E+02  0.00000000000E+00 0. -1.
         23    2    1    2    0    0  0.00000000000E+00  0.00000000000E+00  0.00000000000E+00  0.80000000000E+02  0.80000000000E+02 0.  0.
          5    1    3    3  501    0  0.81623709702E+01  0.10378007182E+02 -0.37464418680E+02  0.40000000000E+02  0.47000000000E+01 0. -1.
         -5    1    3    3    0  501 -0.81623709702E+01 -0.10378007182E+02  0.37464418680E+02  0.40000000000E+02  0.47000000000E+01 0.  1.
</event>
<event>
 5    1  0.4833967E-001  0.8000000E+02  0.7546771E-02  0.1203772E+00
         11   -1    0    0    0    0  0.00000000000E+00  0.00000000000E+00  0.40000000000E+02  0.40000000000E+02  0.00000000000E+00 0.  1.
        -11   -1    0    0    0    0 -0.00000000000E+00 -0.00000000000E+00 -0.40000000000E+02  0.40000000000E+02  0.00000000000E+00 0. -1.
         23    2    1    2    0    0  0.00000000000E+00  0.00000000000E+00  0.00000000000E+00  0.80000000000E+02  0.80000000000E+02 0.  0.
          5    1    3    3  501    0  0.15013481625E+02  0.52868623107E+01 -0.36394428920E+02  0.40000000000E+02  0.47000000000E+01 0. -1.
         -5    1    3    3    0  501 -0.15013481625E+02 -0.52868623107E+01  0.36394428920E+02  0.40000000000E+02  0.47000000000E+01 0.  1.
</event>
<event>
 5    1  0.4833967E-001  0.8000000E+02  0.7546771E-02  0.1203772E+00
         11   -1    0    0    0    0  0.00000000000E+00  0.00000000000E+00  0.40000000000E+02  0.40000000000E+02  0.00000000000E+00 0. -1.
        -11   -1    0    0    0    0 -0.00000000000E+00 -0.00000000000E+00 -0.40000000000E+02  0.40000000000E+02  0.00000000000E+00 0.  1.
         23    2    1    2    0    0  0.00000000000E+00  0.00000000000E+00  0.00000000000E+00  0.80000000000E+02  0.80000000000E+02 0.  0.
          5    1    3    3  501    0 -0.34962712463E+02  0.10149073718E+02  0.15890721817E+02  0.40000000000E+02  0.47000000000E+01 0. -1.
         -5    1    3    3    0  501  0.34962712463E+02 -0.10149073718E+02 -0.15890721817E+02  0.40000000000E+02  0.47000000000E+01 0.  1.
</event>
<event>
 5    1  0.4833967E-001  0.8000000E+02  0.7546771E-02  0.1203772E+00
         11   -1    0    0    0    0  0.00000000000E+00  0.00000000000E+00  0.40000000000E+02  0.40000000000E+02  0.00000000000E+00 0.  1.
        -11   -1    0    0    0    0 -0.00000000000E+00 -0.00000000000E+00 -0.40000000000E+02  0.40000000000E+02  0.00000000000E+00 0. -1.
         23    2    1    2    0    0  0.00000000000E+00  0.00000000000E+00  0.00000000000E+00  0.80000000000E+02  0.80000000000E+02 0.  0.
          5    1    3    3  501    0  0.29807135426E+02 -0.13778356276E+02 -0.22351768969E+02  0.40000000000E+02  0.47000000000E+01 0. -1.
         -5    1    3    3    0  501 -0.29807135426E+02  0.13778356276E+02  0.22351768969E+02  0.40000000000E+02  0.47000000000E+01 0.  1.
</event>
<event>
 5    1  0.4833967E-001  0.8000000E+02  0.7546771E-02  0.1203772E+00
         11   -1    0    0    0    0  0.00000000000E+00  0.00000000000E+00  0.40000000000E+02  0.40000000000E+02  0.00000000000E+00 0. -1.
        -11   -1    0    0    0    0 -0.00000000000E+00 -0.00000000000E+00 -0.40000000000E+02  0.40000000000E+02  0.00000000000E+00 0.  1.
         23    2    1    2    0    0  0.00000000000E+00  0.00000000000E+00  0.00000000000E+00  0.80000000000E+02  0.80000000000E+02 0.  0.
          5    1    3    3  501    0 -0.20261203095E+02  0.34152459048E+02  0.10015937871E+01  0.40000000000E+02  0.47000000000E+01 0. -1.
         -5    1    3    3    0  501  0.20261203095E+02 -0.34152459048E+02 -0.10015937871E+01  0.40000000000E+02  0.47000000000E+01 0.  1.
</event>
<event>
 5    1  0.4833967E-001  0.8000000E+02  0.7546771E-02  0.1203772E+00
         11   -1    0    0    0    0  0.00000000000E+00  0.00000000000E+00  0.40000000000E+02  0.40000000000E+02  0.00000000000E+00 0. -1.
        -11   -1    0    0    0    0 -0.00000000000E+00 -0.00000000000E+00 -0.40000000000E+02  0.40000000000E+02  0.00000000000E+00 0.  1.
         23    2    1    2    0    0  0.00000000000E+00  0.00000000000E+00  0.00000000000E+00  0.80000000000E+02  0.80000000000E+02 0.  0.
          5    1    3    3  501    0  0.12809576115E+02  0.44423512744E+01  0.37337518328E+02  0.40000000000E+02  0.47000000000E+01 0. -1.
         -5    1    3    3    0  501 -0.12809576115E+02 -0.44423512744E+01 -0.37337518328E+02  0.40000000000E+02  0.47000000000E+01 0.  1.
</event>
<event>
 5    1  0.4833967E-001  0.8000000E+02  0.7546771E-02  0.1203772E+00
         11   -1    0    0    0    0  0.00000000000E+00  0.00000000000E+00  0.40000000000E+02  0.40000000000E+02  0.00000000000E+00 0. -1.
        -11   -1    0    0    0    0 -0.00000000000E+00 -0.00000000000E+00 -0.40000000000E+02  0.40000000000E+02  0.00000000000E+00 0.  1.
         23    2    1    2    0    0  0.00000000000E+00  0.00000000000E+00  0.00000000000E+00  0.80000000000E+02  0.80000000000E+02 0.  0.
          5    1    3    3  501    0 -0.20781821055E+02  0.32806946942E+02  0.83504578303E+01  0.40000000000E+02  0.47000000000E+01 0. -1.
         -5    1    3    3    0  501  0.20781821055E+02 -0.32806946942E+02 -0.83504578303E+01  0.40000000000E+02  0.47000000000E+01 0.  1.
</event>
<event>
 5    1  0.4833967E-001  0.8000000E+02  0.7546771E-02  0.1203772E+00
         11   -1    0    0    0    0  0.00000000000E+00  0.00000000000E+00  0.40000000000E+02  0.40000000000E+02  0.00000000000E+00 0. -1.
        -11   -1    0    0    0    0 -0.00000000000E+00 -0.00000000000E+00 -0.40000000000E+02  0.40000000000E+02  0.00000000000E+00 0.  1.
         23    2    1    2    0    0  0.00000000000E+00  0.00000000000E+00  0.00000000000E+00  0.80000000000E+02  0.80000000000E+02 0.  0.
          5    1    3    3  501    0  0.49370865198E+01 -0.32167124921E+02 -0.22777428543E+02  0.40000000000E+02  0.47000000000E+01 0.  1.
         -5    1    3    3    0  501 -0.49370865198E+01  0.32167124921E+02  0.22777428543E+02  0.40000000000E+02  0.47000000000E+01 0. -1.
</event>
<event>
 5    1  0.4833967E-001  0.8000000E+02  0.7546771E-02  0.1203772E+00
         11   -1    0    0    0    0  0.00000000000E+00  0.00000000000E+00  0.40000000000E+02  0.40000000000E+02  0.00000000000E+00 0. -1.
        -11   -1    0    0    0    0 -0.00000000000E+00 -0.00000000000E+00 -0.40000000000E+02  0.40000000000E+02  0.00000000000E+00 0.  1.
         23    2    1    2    0    0  0.00000000000E+00  0.00000000000E+00  0.00000000000E+00  0.80000000000E+02  0.80000000000E+02 0.  0.
          5    1    3    3  501    0  0.97968894229E+01  0.23793268486E+02  0.30262374864E+02  0.40000000000E+02  0.47000000000E+01 0. -1.
         -5    1    3    3    0  501 -0.97968894229E+01 -0.23793268486E+02 -0.30262374864E+02  0.40000000000E+02  0.47000000000E+01 0.  1.
</event>
<event>
 5    1  0.4833967E-001  0.8000000E+02  0.7546771E-02  0.1203772E+00
         11   -1    0    0    0    0  0.00000000000E+00  0.00000000000E+00  0.40000000000E+02  0.40000000000E+02  0.00000000000E+00 0. -1.
        -11   -1    0    0    0    0 -0.00000000000E+00 -0.00000000000E+00 -0.40000000000E+02  0.40000000000E+02  0.00000000000E+00 0.  1.
         23    2    1    2    0    0  0.00000000000E+00  0.00000000000E+00  0.00000000000E+00  0.80000000000E+02  0.80000000000E+02 0.  0.
          5    1    3    3  501    0 -0.81452302379E+01 -0.67713504926E+01  0.38284644923E+02  0.40000000000E+02  0.47000000000E+01 0. -1.
         -5    1    3    3    0  501  0.81452302379E+01  0.67713504926E+01 -0.38284644923E+02  0.40000000000E+02  0.47000000000E+01 0.  1.
</event>
<event>
 5    1  0.4833967E-001  0.8000000E+02  0.7546771E-02  0.1203772E+00
         11   -1    0    0    0    0  0.00000000000E+00  0.00000000000E+00  0.40000000000E+02  0.40000000000E+02  0.00000000000E+00 0.  1.
        -11   -1    0    0    0    0 -0.00000000000E+00 -0.00000000000E+00 -0.40000000000E+02  0.40000000000E+02  0.00000000000E+00 0. -1.
         23    2    1    2    0    0  0.00000000000E+00  0.00000000000E+00  0.00000000000E+00  0.80000000000E+02  0.80000000000E+02 0.  0.
          5    1    3    3  501    0  0.17271860811E+02 -0.97524949640E+01 -0.34416299425E+02  0.40000000000E+02  0.47000000000E+01 0. -1.
         -5    1    3    3    0  501 -0.17271860811E+02  0.97524949640E+01  0.34416299425E+02  0.40000000000E+02  0.47000000000E+01 0.  1.
</event>
<event>
 5    1  0.4833967E-001  0.8000000E+02  0.7546771E-02  0.1203772E+00
         11   -1    0    0    0    0  0.00000000000E+00  0.00000000000E+00  0.40000000000E+02  0.40000000000E+02  0.00000000000E+00 0. -1.
        -11   -1    0    0    0    0 -0.00000000000E+00 -0.00000000000E+00 -0.40000000000E+02  0.40000000000E+02  0.00000000000E+00 0.  1.
         23    2    1    2    0    0  0.00000000000E+00  0.00000000000E+00  0.00000000000E+00  0.80000000000E+02  0.80000000000E+02 0.  0.
          5    1    3    3  501    0  0.18939234598E+02 -0.74235490226E+01  0.34119002224E+02  0.40000000000E+02  0.47000000000E+01 0. -1.
         -5    1    3    3    0  501 -0.18939234598E+02  0.74235490226E+01 -0.34119002224E+02  0.40000000000E+02  0.47000000000E+01 0.  1.
</event>
<event>
 5    1  0.4833967E-001  0.8000000E+02  0.7546771E-02  0.1203772E+00
         11   -1    0    0    0    0  0.00000000000E+00  0.00000000000E+00  0.40000000000E+02  0.40000000000E+02  0.00000000000E+00 0. -1.
        -11   -1    0    0    0    0 -0.00000000000E+00 -0.00000000000E+00 -0.40000000000E+02  0.40000000000E+02  0.00000000000E+00 0.  1.
         23    2    1    2    0    0  0.00000000000E+00  0.00000000000E+00  0.00000000000E+00  0.80000000000E+02  0.80000000000E+02 0.  0.
          5    1    3    3  501    0 -0.84664238580E+01  0.67009315558E+01  0.38227309392E+02  0.40000000000E+02  0.47000000000E+01 0. -1.
         -5    1    3    3    0  501  0.84664238580E+01 -0.67009315558E+01 -0.38227309392E+02  0.40000000000E+02  0.47000000000E+01 0.  1.
</event>
<event>
 5    1  0.4833967E-001  0.8000000E+02  0.7546771E-02  0.1203772E+00
         11   -1    0    0    0    0  0.00000000000E+00  0.00000000000E+00  0.40000000000E+02  0.40000000000E+02  0.00000000000E+00 0. -1.
        -11   -1    0    0    0    0 -0.00000000000E+00 -0.00000000000E+00 -0.40000000000E+02  0.40000000000E+02  0.00000000000E+00 0.  1.
         23    2    1    2    0    0  0.00000000000E+00  0.00000000000E+00  0.00000000000E+00  0.80000000000E+02  0.80000000000E+02 0.  0.
          5    1    3    3  501    0 -0.24385508083E+02  0.31060535468E+02  0.43011779730E+01  0.40000000000E+02  0.47000000000E+01 0. -1.
         -5    1    3    3    0  501  0.24385508083E+02 -0.31060535468E+02 -0.43011779730E+01  0.40000000000E+02  0.47000000000E+01 0.  1.
</event>
<event>
 5    1  0.4833967E-001  0.8000000E+02  0.7546771E-02  0.1203772E+00
         11   -1    0    0    0    0  0.00000000000E+00  0.00000000000E+00  0.40000000000E+02  0.40000000000E+02  0.00000000000E+00 0.  1.
        -11   -1    0    0    0    0 -0.00000000000E+00 -0.00000000000E+00 -0.40000000000E+02  0.40000000000E+02  0.00000000000E+00 0. -1.
         23    2    1    2    0    0  0.00000000000E+00  0.00000000000E+00  0.00000000000E+00  0.80000000000E+02  0.80000000000E+02 0.  0.
          5    1    3    3  501    0 -0.10504607419E+02 -0.28301430079E+02 -0.25818448413E+02  0.40000000000E+02  0.47000000000E+01 0. -1.
         -5    1    3    3    0  501  0.10504607419E+02  0.28301430079E+02  0.25818448413E+02  0.40000000000E+02  0.47000000000E+01 0.  1.
</event>
<event>
 5    1  0.4833967E-001  0.8000000E+02  0.7546771E-02  0.1203772E+00
         11   -1    0    0    0    0  0.00000000000E+00  0.00000000000E+00  0.40000000000E+02  0.40000000000E+02  0.00000000000E+00 0.  1.
        -11   -1    0    0    0    0 -0.00000000000E+00 -0.00000000000E+00 -0.40000000000E+02  0.40000000000E+02  0.00000000000E+00 0. -1.
         23    2    1    2    0    0  0.00000000000E+00  0.00000000000E+00  0.00000000000E+00  0.80000000000E+02  0.80000000000E+02 0.  0.
          5    1    3    3  501    0  0.32445913493E+02  0.72665365764E+01 -0.21734077938E+02  0.40000000000E+02  0.47000000000E+01 0. -1.
         -5    1    3    3    0  501 -0.32445913493E+02 -0.72665365764E+01  0.21734077938E+02  0.40000000000E+02  0.47000000000E+01 0.  1.
</event>
<event>
 5    1  0.4833967E-001  0.8000000E+02  0.7546771E-02  0.1203772E+00
         11   -1    0    0    0    0  0.00000000000E+00  0.00000000000E+00  0.40000000000E+02  0.40000000000E+02  0.00000000000E+00 0. -1.
        -11   -1    0    0    0    0 -0.00000000000E+00 -0.00000000000E+00 -0.40000000000E+02  0.40000000000E+02  0.00000000000E+00 0.  1.
         23    2    1    2    0    0  0.00000000000E+00  0.00000000000E+00  0.00000000000E+00  0.80000000000E+02  0.80000000000E+02 0.  0.
          5    1    3    3  501    0  0.12358422867E+02  0.15305021905E+02 -0.34509936087E+02  0.40000000000E+02  0.47000000000E+01 0.  1.
         -5    1    3    3    0  501 -0.12358422867E+02 -0.15305021905E+02  0.34509936087E+02  0.40000000000E+02  0.47000000000E+01 0. -1.
</event>
<event>
 5    1  0.4833967E-001  0.8000000E+02  0.7546771E-02  0.1203772E+00
         11   -1    0    0    0    0  0.00000000000E+00  0.00000000000E+00  0.40000000000E+02  0.40000000000E+02  0.00000000000E+00 0.  1.
        -11   -1    0    0    0    0 -0.00000000000E+00 -0.00000000000E+00 -0.40000000000E+02  0.40000000000E+02  0.00000000000E+00 0. -1.
         23    2    1    2    0    0  0.00000000000E+00  0.00000000000E+00  0.00000000000E+00  0.80000000000E+02  0.80000000000E+02 0.  0.
          5    1    3    3  501    0  0.12947374816E+01  0.39632287387E+02  0.23484998041E+01  0.40000000000E+02  0.47000000000E+01 0. -1.
         -5    1    3    3    0  501 -0.12947374816E+01 -0.39632287387E+02 -0.23484998041E+01  0.40000000000E+02  0.47000000000E+01 0.  1.
</event>
<event>
 5    1  0.4833967E-001  0.8000000E+02  0.7546771E-02  0.1203772E+00
         11   -1    0    0    0    0  0.00000000000E+00  0.00000000000E+00  0.40000000000E+02  0.40000000000E+02  0.00000000000E+00 0.  1.
        -11   -1    0    0    0    0 -0.00000000000E+00 -0.00000000000E+00 -0.40000000000E+02  0.40000000000E+02  0.00000000000E+00 0. -1.
         23    2    1    2    0    0  0.00000000000E+00  0.00000000000E+00  0.00000000000E+00  0.80000000000E+02  0.80000000000E+02 0.  0.
          5    1    3    3  501    0 -0.27271525225E+01 -0.83904960833E-01 -0.39629100407E+02  0.40000000000E+02  0.47000000000E+01 0. -1.
         -5    1    3    3    0  501  0.27271525225E+01  0.83904960833E-01  0.39629100407E+02  0.40000000000E+02  0.47000000000E+01 0.  1.
</event>
<event>
 5    1  0.4833967E-001  0.8000000E+02  0.7546771E-02  0.1203772E+00
         11   -1    0    0    0    0  0.00000000000E+00  0.00000000000E+00  0.40000000000E+02  0.40000000000E+02  0.00000000000E+00 0. -1.
        -11   -1    0    0    0    0 -0.00000000000E+00 -0.00000000000E+00 -0.40000000000E+02  0.40000000000E+02  0.00000000000E+00 0.  1.
         23    2    1    2    0    0  0.00000000000E+00  0.00000000000E+00  0.00000000000E+00  0.80000000000E+02  0.80000000000E+02 0.  0.
          5    1    3    3  501    0 -0.28372493235E+01  0.38127026770E+02  0.10779139389E+02  0.40000000000E+02  0.47000000000E+01 0. -1.
         -5    1    3    3    0  501  0.28372493235E+01 -0.38127026770E+02 -0.10779139389E+02  0.40000000000E+02  0.47000000000E+01 0.  1.
</event>
<event>
 5    1  0.4833967E-001  0.8000000E+02  0.7546771E-02  0.1203772E+00
         11   -1    0    0    0    0  0.00000000000E+00  0.00000000000E+00  0.40000000000E+02  0.40000000000E+02  0.00000000000E+00 0. -1.
        -11   -1    0    0    0    0 -0.00000000000E+00 -0.00000000000E+00 -0.40000000000E+02  0.40000000000E+02  0.00000000000E+00 0.  1.
         23    2    1    2    0    0  0.00000000000E+00  0.00000000000E+00  0.00000000000E+00  0.80000000000E+02  0.80000000000E+02 0.  0.
          5    1    3    3  501    0  0.37564154955E+01 -0.25046774360E+02  0.30601608402E+02  0.40000000000E+02  0.47000000000E+01 0. -1.
         -5    1    3    3    0  501 -0.37564154955E+01  0.25046774360E+02 -0.30601608402E+02  0.40000000000E+02  0.47000000000E+01 0.  1.
</event>
<event>
 5    1  0.4833967E-001  0.8000000E+02  0.7546771E-02  0.1203772E+00
         11   -1    0    0    0    0  0.00000000000E+00  0.00000000000E+00  0.40000000000E+02  0.40000000000E+02  0.00000000000E+00 0. -1.
        -11   -1    0    0    0    0 -0.00000000000E+00 -0.00000000000E+00 -0.40000000000E+02  0.40000000000E+02  0.00000000000E+00 0.  1.
         23    2    1    2    0    0  0.00000000000E+00  0.00000000000E+00  0.00000000000E+00  0.80000000000E+02  0.80000000000E+02 0.  0.
          5    1    3    3  501    0 -0.22837010015E+02  0.25220666511E+01  0.32404014464E+02  0.40000000000E+02  0.47000000000E+01 0. -1.
         -5    1    3    3    0  501  0.22837010015E+02 -0.25220666511E+01 -0.32404014464E+02  0.40000000000E+02  0.47000000000E+01 0.  1.
</event>
<event>
 5    1  0.4833967E-001  0.8000000E+02  0.7546771E-02  0.1203772E+00
         11   -1    0    0    0    0  0.00000000000E+00  0.00000000000E+00  0.40000000000E+02  0.40000000000E+02  0.00000000000E+00 0.  1.
        -11   -1    0    0    0    0 -0.00000000000E+00 -0.00000000000E+00 -0.40000000000E+02  0.40000000000E+02  0.00000000000E+00 0. -1.
         23    2    1    2    0    0  0.00000000000E+00  0.00000000000E+00  0.00000000000E+00  0.80000000000E+02  0.80000000000E+02 0.  0.
          5    1    3    3  501    0 -0.16280520424E+02 -0.90044311397E+01 -0.35096650475E+02  0.40000000000E+02  0.47000000000E+01 0. -1.
         -5    1    3    3    0  501  0.16280520424E+02  0.90044311397E+01  0.35096650475E+02  0.40000000000E+02  0.47000000000E+01 0.  1.
</event>
<event>
 5    1  0.4833967E-001  0.8000000E+02  0.7546771E-02  0.1203772E+00
         11   -1    0    0    0    0  0.00000000000E+00  0.00000000000E+00  0.40000000000E+02  0.40000000000E+02  0.00000000000E+00 0.  1.
        -11   -1    0    0    0    0 -0.00000000000E+00 -0.00000000000E+00 -0.40000000000E+02  0.40000000000E+02  0.00000000000E+00 0. -1.
         23    2    1    2    0    0  0.00000000000E+00  0.00000000000E+00  0.00000000000E+00  0.80000000000E+02  0.80000000000E+02 0.  0.
          5    1    3    3  501    0 -0.17743917073E+02  0.14347185333E+02 -0.32514945486E+02  0.40000000000E+02  0.47000000000E+01 0. -1.
         -5    1    3    3    0  501  0.17743917073E+02 -0.14347185333E+02  0.32514945486E+02  0.40000000000E+02  0.47000000000E+01 0.  1.
</event>
<event>
 5    1  0.4833967E-001  0.8000000E+02  0.7546771E-02  0.1203772E+00
         11   -1    0    0    0    0  0.00000000000E+00  0.00000000000E+00  0.40000000000E+02  0.40000000000E+02  0.00000000000E+00 0. -1.
        -11   -1    0    0    0    0 -0.00000000000E+00 -0.00000000000E+00 -0.40000000000E+02  0.40000000000E+02  0.00000000000E+00 0.  1.
         23    2    1    2    0    0  0.00000000000E+00  0.00000000000E+00  0.00000000000E+00  0.80000000000E+02  0.80000000000E+02 0.  0.
          5    1    3    3  501    0 -0.23149564662E+02 -0.96590501653E+01  0.30801142931E+02  0.40000000000E+02  0.47000000000E+01 0. -1.
         -5    1    3    3    0  501  0.23149564662E+02  0.96590501653E+01 -0.30801142931E+02  0.40000000000E+02  0.47000000000E+01 0.  1.
</event>
<event>
 5    1  0.4833967E-001  0.8000000E+02  0.7546771E-02  0.1203772E+00
         11   -1    0    0    0    0  0.00000000000E+00  0.00000000000E+00  0.40000000000E+02  0.40000000000E+02  0.00000000000E+00 0. -1.
        -11   -1    0    0    0    0 -0.00000000000E+00 -0.00000000000E+00 -0.40000000000E+02  0.40000000000E+02  0.00000000000E+00 0.  1.
         23    2    1    2    0    0  0.00000000000E+00  0.00000000000E+00  0.00000000000E+00  0.80000000000E+02  0.80000000000E+02 0.  0.
          5    1    3    3  501    0 -0.60475640829E+01 -0.38831028829E+02 -0.57868962944E+01  0.40000000000E+02  0.47000000000E+01 0.  1.
         -5    1    3    3    0  501  0.60475640829E+01  0.38831028829E+02  0.57868962944E+01  0.40000000000E+02  0.47000000000E+01 0. -1.
</event>
<event>
 5    1  0.4833967E-001  0.8000000E+02  0.7546771E-02  0.1203772E+00
         11   -1    0    0    0    0  0.00000000000E+00  0.00000000000E+00  0.40000000000E+02  0.40000000000E+02  0.00000000000E+00 0. -1.
        -11   -1    0    0    0    0 -0.00000000000E+00 -0.00000000000E+00 -0.40000000000E+02  0.40000000000E+02  0.00000000000E+00 0.  1.
         23    2    1    2    0    0  0.00000000000E+00  0.00000000000E+00  0.00000000000E+00  0.80000000000E+02  0.80000000000E+02 0.  0.
          5    1    3    3  501    0 -0.32088332906E+02 -0.22113077163E+02  0.76980977984E+01  0.40000000000E+02  0.47000000000E+01 0. -1.
         -5    1    3    3    0  501  0.32088332906E+02  0.22113077163E+02 -0.76980977984E+01  0.40000000000E+02  0.47000000000E+01 0.  1.
</event>
<event>
 5    1  0.4833967E-001  0.8000000E+02  0.7546771E-02  0.1203772E+00
         11   -1    0    0    0    0  0.00000000000E+00  0.00000000000E+00  0.40000000000E+02  0.40000000000E+02  0.00000000000E+00 0.  1.
        -11   -1    0    0    0    0 -0.00000000000E+00 -0.00000000000E+00 -0.40000000000E+02  0.40000000000E+02  0.00000000000E+00 0. -1.
         23    2    1    2    0    0  0.00000000000E+00  0.00000000000E+00  0.00000000000E+00  0.80000000000E+02  0.80000000000E+02 0.  0.
          5    1    3    3  501    0 -0.16515990987E+02  0.36061824759E+02  0.21625995498E+01  0.40000000000E+02  0.47000000000E+01 0. -1.
         -5    1    3    3    0  501  0.16515990987E+02 -0.36061824759E+02 -0.21625995498E+01  0.40000000000E+02  0.47000000000E+01 0.  1.
</event>
<event>
 5    1  0.4833967E-001  0.8000000E+02  0.7546771E-02  0.1203772E+00
         11   -1    0    0    0    0  0.00000000000E+00  0.00000000000E+00  0.40000000000E+02  0.40000000000E+02  0.00000000000E+00 0. -1.
        -11   -1    0    0    0    0 -0.00000000000E+00 -0.00000000000E+00 -0.40000000000E+02  0.40000000000E+02  0.00000000000E+00 0.  1.
         23    2    1    2    0    0  0.00000000000E+00  0.00000000000E+00  0.00000000000E+00  0.80000000000E+02  0.80000000000E+02 0.  0.
          5    1    3    3  501    0  0.19189461429E+02 -0.26338713783E+02  0.22714460731E+02  0.40000000000E+02  0.47000000000E+01 0. -1.
         -5    1    3    3    0  501 -0.19189461429E+02  0.26338713783E+02 -0.22714460731E+02  0.40000000000E+02  0.47000000000E+01 0.  1.
</event>
<event>
 5    1  0.4833967E-001  0.8000000E+02  0.7546771E-02  0.1203772E+00
         11   -1    0    0    0    0  0.00000000000E+00  0.00000000000E+00  0.40000000000E+02  0.40000000000E+02  0.00000000000E+00 0.  1.
        -11   -1    0    0    0    0 -0.00000000000E+00 -0.00000000000E+00 -0.40000000000E+02  0.40000000000E+02  0.00000000000E+00 0. -1.
         23    2    1    2    0    0  0.00000000000E+00  0.00000000000E+00  0.00000000000E+00  0.80000000000E+02  0.80000000000E+02 0.  0.
          5    1    3    3  501    0  0.39394066878E+02  0.47560144552E+01  0.18433180216E+01  0.40000000000E+02  0.47000000000E+01 0. -1.
         -5    1    3    3    0  501 -0.39394066878E+02 -0.47560144552E+01 -0.18433180216E+01  0.40000000000E+02  0.47000000000E+01 0.  1.
</event>
<event>
 5    1  0.4833967E-001  0.8000000E+02  0.7546771E-02  0.1203772E+00
         11   -1    0    0    0    0  0.00000000000E+00  0.00000000000E+00  0.40000000000E+02  0.40000000000E+02  0.00000000000E+00 0.  1.
        -11   -1    0    0    0    0 -0.00000000000E+00 -0.00000000000E+00 -0.40000000000E+02  0.40000000000E+02  0.00000000000E+00 0. -1.
         23    2    1    2    0    0  0.00000000000E+00  0.00000000000E+00  0.00000000000E+00  0.80000000000E+02  0.80000000000E+02 0.  0.
          5    1    3    3  501    0 -0.14570140119E+02  0.29230458337E+02 -0.22609761661E+02  0.40000000000E+02  0.47000000000E+01 0. -1.
         -5    1    3    3    0  501  0.14570140119E+02 -0.29230458337E+02  0.22609761661E+02  0.40000000000E+02  0.47000000000E+01 0.  1.
</event>
<event>
 5    1  0.4833967E-001  0.8000000E+02  0.7546771E-02  0.1203772E+00
         11   -1    0    0    0    0  0.00000000000E+00  0.00000000000E+00  0.40000000000E+02  0.40000000000E+02  0.00000000000E+00 0. -1.
        -11   -1    0    0    0    0 -0.00000000000E+00 -0.00000000000E+00 -0.40000000000E+02  0.40000000000E+02  0.00000000000E+00 0.  1.
         23    2    1    2    0    0  0.00000000000E+00  0.00000000000E+00  0.00000000000E+00  0.80000000000E+02  0.80000000000E+02 0.  0.
          5    1    3    3  501    0  0.34299084043E+02  0.17602532576E+02  0.95725482898E+01  0.40000000000E+02  0.47000000000E+01 0. -1.
         -5    1    3    3    0  501 -0.34299084043E+02 -0.17602532576E+02 -0.95725482898E+01  0.40000000000E+02  0.47000000000E+01 0.  1.
</event>
<event>
 5    1  0.4833967E-001  0.8000000E+02  0.7546771E-02  0.1203772E+00
         11   -1    0    0    0    0  0.00000000000E+00  0.00000000000E+00  0.40000000000E+02  0.40000000000E+02  0.00000000000E+00 0.  1.
        -11   -1    0    0    0    0 -0.00000000000E+00 -0.00000000000E+00 -0.40000000000E+02  0.40000000000E+02  0.00000000000E+00 0. -1.
         23    2    1    2    0    0  0.00000000000E+00  0.00000000000E+00  0.00000000000E+00  0.80000000000E+02  0.80000000000E+02 0.  0.
          5    1    3    3  501    0  0.88786840490E+01  0.43760543323E+01 -0.38469846868E+02  0.40000000000E+02  0.47000000000E+01 0. -1.
         -5    1    3    3    0  501 -0.88786840490E+01 -0.43760543323E+01  0.38469846868E+02  0.40000000000E+02  0.47000000000E+01 0.  1.
</event>
<event>
 5    1  0.4833967E-001  0.8000000E+02  0.7546771E-02  0.1203772E+00
         11   -1    0    0    0    0  0.00000000000E+00  0.00000000000E+00  0.40000000000E+02  0.40000000000E+02  0.00000000000E+00 0.  1.
        -11   -1    0    0    0    0 -0.00000000000E+00 -0.00000000000E+00 -0.40000000000E+02  0.40000000000E+02  0.00000000000E+00 0. -1.
         23    2    1    2    0    0  0.00000000000E+00  0.00000000000E+00  0.00000000000E+00  0.80000000000E+02  0.80000000000E+02 0.  0.
          5    1    3    3  501    0  0.10397572769E+02 -0.36736225608E+02  0.10965865610E+02  0.40000000000E+02  0.47000000000E+01 0. -1.
         -5    1    3    3    0  501 -0.10397572769E+02  0.36736225608E+02 -0.10965865610E+02  0.40000000000E+02  0.47000000000E+01 0.  1.
</event>
<event>
 5    1  0.4833967E-001  0.8000000E+02  0.7546771E-02  0.1203772E+00
         11   -1    0    0    0    0  0.00000000000E+00  0.00000000000E+00  0.40000000000E+02  0.40000000000E+02  0.00000000000E+00 0. -1.
        -11   -1    0    0    0    0 -0.00000000000E+00 -0.00000000000E+00 -0.40000000000E+02  0.40000000000E+02  0.00000000000E+00 0.  1.
         23    2    1    2    0    0  0.00000000000E+00  0.00000000000E+00  0.00000000000E+00  0.80000000000E+02  0.80000000000E+02 0.  0.
          5    1    3    3  501    0 -0.87967272065E+00  0.39474354687E+02 -0.43487352170E+01  0.40000000000E+02  0.47000000000E+01 0. -1.
         -5    1    3    3    0  501  0.87967272065E+00 -0.39474354687E+02  0.43487352170E+01  0.40000000000E+02  0.47000000000E+01 0.  1.
</event>
<event>
 5    1  0.4833967E-001  0.8000000E+02  0.7546771E-02  0.1203772E+00
         11   -1    0    0    0    0  0.00000000000E+00  0.00000000000E+00  0.40000000000E+02  0.40000000000E+02  0.00000000000E+00 0.  1.
        -11   -1    0    0    0    0 -0.00000000000E+00 -0.00000000000E+00 -0.40000000000E+02  0.40000000000E+02  0.00000000000E+00 0. -1.
         23    2    1    2    0    0  0.00000000000E+00  0.00000000000E+00  0.00000000000E+00  0.80000000000E+02  0.80000000000E+02 0.  0.
          5    1    3    3  501    0  0.12654801997E+02  0.24483629926E+02 -0.28606255471E+02  0.40000000000E+02  0.47000000000E+01 0. -1.
         -5    1    3    3    0  501 -0.12654801997E+02 -0.24483629926E+02  0.28606255471E+02  0.40000000000E+02  0.47000000000E+01 0.  1.
</event>
<event>
 5    1  0.4833967E-001  0.8000000E+02  0.7546771E-02  0.1203772E+00
         11   -1    0    0    0    0  0.00000000000E+00  0.00000000000E+00  0.40000000000E+02  0.40000000000E+02  0.00000000000E+00 0.  1.
        -11   -1    0    0    0    0 -0.00000000000E+00 -0.00000000000E+00 -0.40000000000E+02  0.40000000000E+02  0.00000000000E+00 0. -1.
         23    2    1    2    0    0  0.00000000000E+00  0.00000000000E+00  0.00000000000E+00  0.80000000000E+02  0.80000000000E+02 0.  0.
          5    1    3    3  501    0  0.61418228010E+01 -0.10115911666E+02 -0.37919076252E+02  0.40000000000E+02  0.47000000000E+01 0. -1.
         -5    1    3    3    0  501 -0.61418228010E+01  0.10115911666E+02  0.37919076252E+02  0.40000000000E+02  0.47000000000E+01 0.  1.
</event>
<event>
 5    1  0.4833967E-001  0.8000000E+02  0.7546771E-02  0.1203772E+00
         11   -1    0    0    0    0  0.00000000000E+00  0.00000000000E+00  0.40000000000E+02  0.40000000000E+02  0.00000000000E+00 0. -1.
        -11   -1    0    0    0    0 -0.00000000000E+00 -0.00000000000E+00 -0.40000000000E+02  0.40000000000E+02  0.00000000000E+00 0.  1.
         23    2    1    2    0    0  0.00000000000E+00  0.00000000000E+00  0.00000000000E+00  0.80000000000E+02  0.80000000000E+02 0.  0.
          5    1    3    3  501    0  0.57021060975E+01  0.32978036585E+01  0.39172955940E+02  0.40000000000E+02  0.47000000000E+01 0. -1.
         -5    1    3    3    0  501 -0.57021060975E+01 -0.32978036585E+01 -0.39172955940E+02  0.40000000000E+02  0.47000000000E+01 0.  1.
</event>
<event>
 5    1  0.4833967E-001  0.8000000E+02  0.7546771E-02  0.1203772E+00
         11   -1    0    0    0    0  0.00000000000E+00  0.00000000000E+00  0.40000000000E+02  0.40000000000E+02  0.00000000000E+00 0. -1.
        -11   -1    0    0    0    0 -0.00000000000E+00 -0.00000000000E+00 -0.40000000000E+02  0.40000000000E+02  0.00000000000E+00 0.  1.
         23    2    1    2    0    0  0.00000000000E+00  0.00000000000E+00  0.00000000000E+00  0.80000000000E+02  0.80000000000E+02 0.  0.
          5    1    3    3  501    0 -0.95913963969E+01 -0.30635745055E+02  0.23395859465E+02  0.40000000000E+02  0.47000000000E+01 0. -1.
         -5    1    3    3    0  501  0.95913963969E+01  0.30635745055E+02 -0.23395859465E+02  0.40000000000E+02  0.47000000000E+01 0.  1.
</event>
<event>
 5    1  0.4833967E-001  0.8000000E+02  0.7546771E-02  0.1203772E+00
         11   -1    0    0    0    0  0.00000000000E+00  0.00000000000E+00  0.40000000000E+02  0.40000000000E+02  0.00000000000E+00 0. -1.
        -11   -1    0    0    0    0 -0.00000000000E+00 -0.00000000000E+00 -0.40000000000E+02  0.40000000000E+02  0.00000000000E+00 0.  1.
         23    2    1    2    0    0  0.00000000000E+00  0.00000000000E+00  0.00000000000E+00  0.80000000000E+02  0.80000000000E+02 0.  0.
          5    1    3    3  501    0  0.31786538476E+02  0.12731759869E+02  0.20135249251E+02  0.40000000000E+02  0.47000000000E+01 0. -1.
         -5    1    3    3    0  501 -0.31786538476E+02 -0.12731759869E+02 -0.20135249251E+02  0.40000000000E+02  0.47000000000E+01 0.  1.
</event>
<event>
 5    1  0.4833967E-001  0.8000000E+02  0.7546771E-02  0.1203772E+00
         11   -1    0    0    0    0  0.00000000000E+00  0.00000000000E+00  0.40000000000E+02  0.40000000000E+02  0.00000000000E+00 0. -1.
        -11   -1    0    0    0    0 -0.00000000000E+00 -0.00000000000E+00 -0.40000000000E+02  0.40000000000E+02  0.00000000000E+00 0.  1.
         23    2    1    2    0    0  0.00000000000E+00  0.00000000000E+00  0.00000000000E+00  0.80000000000E+02  0.80000000000E+02 0.  0.
          5    1    3    3  501    0 -0.36878106423E+02  0.18423668278E+01 -0.14646533758E+02  0.40000000000E+02  0.47000000000E+01 0.  1.
         -5    1    3    3    0  501  0.36878106423E+02 -0.18423668278E+01  0.14646533758E+02  0.40000000000E+02  0.47000000000E+01 0. -1.
</event>
<event>
 5    1  0.4833967E-001  0.8000000E+02  0.7546771E-02  0.1203772E+00
         11   -1    0    0    0    0  0.00000000000E+00  0.00000000000E+00  0.40000000000E+02  0.40000000000E+02  0.00000000000E+00 0. -1.
        -11   -1    0    0    0    0 -0.00000000000E+00 -0.00000000000E+00 -0.40000000000E+02  0.40000000000E+02  0.00000000000E+00 0.  1.
         23    2    1    2    0    0  0.00000000000E+00  0.00000000000E+00  0.00000000000E+00  0.80000000000E+02  0.80000000000E+02 0.  0.
          5    1    3    3  501    0  0.18529166350E+02 -0.78640943741E+01  0.34245233450E+02  0.40000000000E+02  0.47000000000E+01 0. -1.
         -5    1    3    3    0  501 -0.18529166350E+02  0.78640943741E+01 -0.34245233450E+02  0.40000000000E+02  0.47000000000E+01 0.  1.
</event>
<event>
 5    1  0.4833967E-001  0.8000000E+02  0.7546771E-02  0.1203772E+00
         11   -1    0    0    0    0  0.00000000000E+00  0.00000000000E+00  0.40000000000E+02  0.40000000000E+02  0.00000000000E+00 0. -1.
        -11   -1    0    0    0    0 -0.00000000000E+00 -0.00000000000E+00 -0.40000000000E+02  0.40000000000E+02  0.00000000000E+00 0.  1.
         23    2    1    2    0    0  0.00000000000E+00  0.00000000000E+00  0.00000000000E+00  0.80000000000E+02  0.80000000000E+02 0.  0.
          5    1    3    3  501    0 -0.17213081345E+02 -0.95570398537E+01  0.34500475646E+02  0.40000000000E+02  0.47000000000E+01 0. -1.
         -5    1    3    3    0  501  0.17213081345E+02  0.95570398537E+01 -0.34500475646E+02  0.40000000000E+02  0.47000000000E+01 0.  1.
</event>
<event>
 5    1  0.4833967E-001  0.8000000E+02  0.7546771E-02  0.1203772E+00
         11   -1    0    0    0    0  0.00000000000E+00  0.00000000000E+00  0.40000000000E+02  0.40000000000E+02  0.00000000000E+00 0.  1.
        -11   -1    0    0    0    0 -0.00000000000E+00 -0.00000000000E+00 -0.40000000000E+02  0.40000000000E+02  0.00000000000E+00 0. -1.
         23    2    1    2    0    0  0.00000000000E+00  0.00000000000E+00  0.00000000000E+00  0.80000000000E+02  0.80000000000E+02 0.  0.
          5    1    3    3  501    0  0.97458280940E+01  0.21822253031E+02 -0.31728821400E+02  0.40000000000E+02  0.47000000000E+01 0. -1.
         -5    1    3    3    0  501 -0.97458280940E+01 -0.21822253031E+02  0.31728821400E+02  0.40000000000E+02  0.47000000000E+01 0.  1.
</event>
<event>
 5    1  0.4833967E-001  0.8000000E+02  0.7546771E-02  0.1203772E+00
         11   -1    0    0    0    0  0.00000000000E+00  0.00000000000E+00  0.40000000000E+02  0.40000000000E+02  0.00000000000E+00 0. -1.
        -11   -1    0    0    0    0 -0.00000000000E+00 -0.00000000000E+00 -0.40000000000E+02  0.40000000000E+02  0.00000000000E+00 0.  1.
         23    2    1    2    0    0  0.00000000000E+00  0.00000000000E+00  0.00000000000E+00  0.80000000000E+02  0.80000000000E+02 0.  0.
          5    1    3    3  501    0  0.25448909558E+02 -0.30168829269E+02 -0.44838312695E+01  0.40000000000E+02  0.47000000000E+01 0. -1.
         -5    1    3    3    0  501 -0.25448909558E+02  0.30168829269E+02  0.44838312695E+01  0.40000000000E+02  0.47000000000E+01 0.  1.
</event>
<event>
 5    1  0.4833967E-001  0.8000000E+02  0.7546771E-02  0.1203772E+00
         11   -1    0    0    0    0  0.00000000000E+00  0.00000000000E+00  0.40000000000E+02  0.40000000000E+02  0.00000000000E+00 0. -1.
        -11   -1    0    0    0    0 -0.00000000000E+00 -0.00000000000E+00 -0.40000000000E+02  0.40000000000E+02  0.00000000000E+00 0.  1.
         23    2    1    2    0    0  0.00000000000E+00  0.00000000000E+00  0.00000000000E+00  0.80000000000E+02  0.80000000000E+02 0.  0.
          5    1    3    3  501    0  0.18030991383E+02  0.22239734240E+01  0.35324882051E+02  0.40000000000E+02  0.47000000000E+01 0. -1.
         -5    1    3    3    0  501 -0.18030991383E+02 -0.22239734240E+01 -0.35324882051E+02  0.40000000000E+02  0.47000000000E+01 0.  1.
</event>
<event>
 5    1  0.4833967E-001  0.8000000E+02  0.7546771E-02  0.1203772E+00
         11   -1    0    0    0    0  0.00000000000E+00  0.00000000000E+00  0.40000000000E+02  0.40000000000E+02  0.00000000000E+00 0.  1.
        -11   -1    0    0    0    0 -0.00000000000E+00 -0.00000000000E+00 -0.40000000000E+02  0.40000000000E+02  0.00000000000E+00 0. -1.
         23    2    1    2    0    0  0.00000000000E+00  0.00000000000E+00  0.00000000000E+00  0.80000000000E+02  0.80000000000E+02 0.  0.
          5    1    3    3  501    0  0.29762671602E+02  0.19716566514E+02 -0.17416956796E+02  0.40000000000E+02  0.47000000000E+01 0. -1.
         -5    1    3    3    0  501 -0.29762671602E+02 -0.19716566514E+02  0.17416956796E+02  0.40000000000E+02  0.47000000000E+01 0.  1.
</event>
<event>
 5    1  0.4833967E-001  0.8000000E+02  0.7546771E-02  0.1203772E+00
         11   -1    0    0    0    0  0.00000000000E+00  0.00000000000E+00  0.40000000000E+02  0.40000000000E+02  0.00000000000E+00 0. -1.
        -11   -1    0    0    0    0 -0.00000000000E+00 -0.00000000000E+00 -0.40000000000E+02  0.40000000000E+02  0.00000000000E+00 0.  1.
         23    2    1    2    0    0  0.00000000000E+00  0.00000000000E+00  0.00000000000E+00  0.80000000000E+02  0.80000000000E+02 0.  0.
          5    1    3    3  501    0  0.37637718736E+01  0.39470668843E+02  0.24104610208E+01  0.40000000000E+02  0.47000000000E+01 0. -1.
         -5    1    3    3    0  501 -0.37637718736E+01 -0.39470668843E+02 -0.24104610208E+01  0.40000000000E+02  0.47000000000E+01 0.  1.
</event>
<event>
 5    1  0.4833967E-001  0.8000000E+02  0.7546771E-02  0.1203772E+00
         11   -1    0    0    0    0  0.00000000000E+00  0.00000000000E+00  0.40000000000E+02  0.40000000000E+02  0.00000000000E+00 0.  1.
        -11   -1    0    0    0    0 -0.00000000000E+00 -0.00000000000E+00 -0.40000000000E+02  0.40000000000E+02  0.00000000000E+00 0. -1.
         23    2    1    2    0    0  0.00000000000E+00  0.00000000000E+00  0.00000000000E+00  0.80000000000E+02  0.80000000000E+02 0.  0.
          5    1    3    3  501    0 -0.50994731657E+00  0.27654161210E+01 -0.39623256143E+02  0.40000000000E+02  0.47000000000E+01 0. -1.
         -5    1    3    3    0  501  0.50994731657E+00 -0.27654161210E+01  0.39623256143E+02  0.40000000000E+02  0.47000000000E+01 0.  1.
</event>
<event>
 5    1  0.4833967E-001  0.8000000E+02  0.7546771E-02  0.1203772E+00
         11   -1    0    0    0    0  0.00000000000E+00  0.00000000000E+00  0.40000000000E+02  0.40000000000E+02  0.00000000000E+00 0.  1.
        -11   -1    0    0    0    0 -0.00000000000E+00 -0.00000000000E+00 -0.40000000000E+02  0.40000000000E+02  0.00000000000E+00 0. -1.
         23    2    1    2    0    0  0.00000000000E+00  0.00000000000E+00  0.00000000000E+00  0.80000000000E+02  0.80000000000E+02 0.  0.
          5    1    3    3  501    0 -0.87056078873E+01  0.36663718332E+02 -0.12565593872E+02  0.40000000000E+02  0.47000000000E+01 0. -1.
         -5    1    3    3    0  501  0.87056078873E+01 -0.36663718332E+02  0.12565593872E+02  0.40000000000E+02  0.47000000000E+01 0.  1.
</event>
<event>
 5    1  0.4833967E-001  0.8000000E+02  0.7546771E-02  0.1203772E+00
         11   -1    0    0    0    0  0.00000000000E+00  0.00000000000E+00  0.40000000000E+02  0.40000000000E+02  0.00000000000E+00 0.  1.
        -11   -1    0    0    0    0 -0.00000000000E+00 -0.00000000000E+00 -0.40000000000E+02  0.40000000000E+02  0.00000000000E+00 0. -1.
         23    2    1    2    0    0  0.00000000000E+00  0.00000000000E+00  0.00000000000E+00  0.80000000000E+02  0.80000000000E+02 0.  0.
          5    1    3    3  501    0  0.26940940169E+02 -0.16698654114E+02 -0.23942654273E+02  0.40000000000E+02  0.47000000000E+01 0. -1.
         -5    1    3    3    0  501 -0.26940940169E+02  0.16698654114E+02  0.23942654273E+02  0.40000000000E+02  0.47000000000E+01 0.  1.
</event>
<event>
 5    1  0.4833967E-001  0.8000000E+02  0.7546771E-02  0.1203772E+00
         11   -1    0    0    0    0  0.00000000000E+00  0.00000000000E+00  0.40000000000E+02  0.40000000000E+02  0.00000000000E+00 0. -1.
        -11   -1    0    0    0    0 -0.00000000000E+00 -0.00000000000E+00 -0.40000000000E+02  0.40000000000E+02  0.00000000000E+00 0.  1.
         23    2    1    2    0    0  0.00000000000E+00  0.00000000000E+00  0.00000000000E+00  0.80000000000E+02  0.80000000000E+02 0.  0.
          5    1    3    3  501    0 -0.13905642769E+02 -0.34126767852E+02  0.14829255381E+02  0.40000000000E+02  0.47000000000E+01 0. -1.
         -5    1    3    3    0  501  0.13905642769E+02  0.34126767852E+02 -0.14829255381E+02  0.40000000000E+02  0.47000000000E+01 0.  1.
</event>
<event>
 5    1  0.4833967E-001  0.8000000E+02  0.7546771E-02  0.1203772E+00
         11   -1    0    0    0    0  0.00000000000E+00  0.00000000000E+00  0.40000000000E+02  0.40000000000E+02  0.00000000000E+00 0.  1.
        -11   -1    0    0    0    0 -0.00000000000E+00 -0.00000000000E+00 -0.40000000000E+02  0.40000000000E+02  0.00000000000E+00 0. -1.
         23    2    1    2    0    0  0.00000000000E+00  0.00000000000E+00  0.00000000000E+00  0.80000000000E+02  0.80000000000E+02 0.  0.
          5    1    3    3  501    0 -0.32801564498E+02 -0.12746992535E+02  0.18425025042E+02  0.40000000000E+02  0.47000000000E+01 0. -1.
         -5    1    3    3    0  501  0.32801564498E+02  0.12746992535E+02 -0.18425025042E+02  0.40000000000E+02  0.47000000000E+01 0.  1.
</event>
<event>
 5    1  0.4833967E-001  0.8000000E+02  0.7546771E-02  0.1203772E+00
         11   -1    0    0    0    0  0.00000000000E+00  0.00000000000E+00  0.40000000000E+02  0.40000000000E+02  0.00000000000E+00 0. -1.
        -11   -1    0    0    0    0 -0.00000000000E+00 -0.00000000000E+00 -0.40000000000E+02  0.40000000000E+02  0.00000000000E+00 0.  1.
         23    2    1    2    0    0  0.00000000000E+00  0.00000000000E+00  0.00000000000E+00  0.80000000000E+02  0.80000000000E+02 0.  0.
          5    1    3    3  501    0  0.31751962338E+02 -0.19684798110E+02  0.13499318911E+02  0.40000000000E+02  0.47000000000E+01 0. -1.
         -5    1    3    3    0  501 -0.31751962338E+02  0.19684798110E+02 -0.13499318911E+02  0.40000000000E+02  0.47000000000E+01 0.  1.
</event>
<event>
 5    1  0.4833967E-001  0.8000000E+02  0.7546771E-02  0.1203772E+00
         11   -1    0    0    0    0  0.00000000000E+00  0.00000000000E+00  0.40000000000E+02  0.40000000000E+02  0.00000000000E+00 0. -1.
        -11   -1    0    0    0    0 -0.00000000000E+00 -0.00000000000E+00 -0.40000000000E+02  0.40000000000E+02  0.00000000000E+00 0.  1.
         23    2    1    2    0    0  0.00000000000E+00  0.00000000000E+00  0.00000000000E+00  0.80000000000E+02  0.80000000000E+02 0.  0.
          5    1    3    3  501    0  0.25155620982E+02 -0.15024462103E+02  0.26821078866E+02  0.40000000000E+02  0.47000000000E+01 0. -1.
         -5    1    3    3    0  501 -0.25155620982E+02  0.15024462103E+02 -0.26821078866E+02  0.40000000000E+02  0.47000000000E+01 0.  1.
</event>
<event>
 5    1  0.4833967E-001  0.8000000E+02  0.7546771E-02  0.1203772E+00
         11   -1    0    0    0    0  0.00000000000E+00  0.00000000000E+00  0.40000000000E+02  0.40000000000E+02  0.00000000000E+00 0.  1.
        -11   -1    0    0    0    0 -0.00000000000E+00 -0.00000000000E+00 -0.40000000000E+02  0.40000000000E+02  0.00000000000E+00 0. -1.
         23    2    1    2    0    0  0.00000000000E+00  0.00000000000E+00  0.00000000000E+00  0.80000000000E+02  0.80000000000E+02 0.  0.
          5    1    3    3  501    0  0.31955663007E+02 -0.11875370191E+02 -0.20389241884E+02  0.40000000000E+02  0.47000000000E+01 0. -1.
         -5    1    3    3    0  501 -0.31955663007E+02  0.11875370191E+02  0.20389241884E+02  0.40000000000E+02  0.47000000000E+01 0.  1.
</event>
<event>
 5    1  0.4833967E-001  0.8000000E+02  0.7546771E-02  0.1203772E+00
         11   -1    0    0    0    0  0.00000000000E+00  0.00000000000E+00  0.40000000000E+02  0.40000000000E+02  0.00000000000E+00 0.  1.
        -11   -1    0    0    0    0 -0.00000000000E+00 -0.00000000000E+00 -0.40000000000E+02  0.40000000000E+02  0.00000000000E+00 0. -1.
         23    2    1    2    0    0  0.00000000000E+00  0.00000000000E+00  0.00000000000E+00  0.80000000000E+02  0.80000000000E+02 0.  0.
          5    1    3    3  501    0  0.12999347658E+02  0.54242268399E+01 -0.37141684448E+02  0.40000000000E+02  0.47000000000E+01 0. -1.
         -5    1    3    3    0  501 -0.12999347658E+02 -0.54242268399E+01  0.37141684448E+02  0.40000000000E+02  0.47000000000E+01 0.  1.
</event>
<event>
 5    1  0.4833967E-001  0.8000000E+02  0.7546771E-02  0.1203772E+00
         11   -1    0    0    0    0  0.00000000000E+00  0.00000000000E+00  0.40000000000E+02  0.40000000000E+02  0.00000000000E+00 0.  1.
        -11   -1    0    0    0    0 -0.00000000000E+00 -0.00000000000E+00 -0.40000000000E+02  0.40000000000E+02  0.00000000000E+00 0. -1.
         23    2    1    2    0    0  0.00000000000E+00  0.00000000000E+00  0.00000000000E+00  0.80000000000E+02  0.80000000000E+02 0.  0.
          5    1    3    3  501    0  0.10620339095E+02  0.37835227398E+02 -0.57977551902E+01  0.40000000000E+02  0.47000000000E+01 0. -1.
         -5    1    3    3    0  501 -0.10620339095E+02 -0.37835227398E+02  0.57977551902E+01  0.40000000000E+02  0.47000000000E+01 0.  1.
</event>
<event>
 5    1  0.4833967E-001  0.8000000E+02  0.7546771E-02  0.1203772E+00
         11   -1    0    0    0    0  0.00000000000E+00  0.00000000000E+00  0.40000000000E+02  0.40000000000E+02  0.00000000000E+00 0.  1.
        -11   -1    0    0    0    0 -0.00000000000E+00 -0.00000000000E+00 -0.40000000000E+02  0.40000000000E+02  0.00000000000E+00 0. -1.
         23    2    1    2    0    0  0.00000000000E+00  0.00000000000E+00  0.00000000000E+00  0.80000000000E+02  0.80000000000E+02 0.  0.
          5    1    3    3  501    0 -0.12625445134E+02  0.36602363108E+02 -0.88755366073E+01  0.40000000000E+02  0.47000000000E+01 0. -1.
         -5    1    3    3    0  501  0.12625445134E+02 -0.36602363108E+02  0.88755366073E+01  0.40000000000E+02  0.47000000000E+01 0.  1.
</event>
<event>
 5    1  0.4833967E-001  0.8000000E+02  0.7546771E-02  0.1203772E+00
         11   -1    0    0    0    0  0.00000000000E+00  0.00000000000E+00  0.40000000000E+02  0.40000000000E+02  0.00000000000E+00 0.  1.
        -11   -1    0    0    0    0 -0.00000000000E+00 -0.00000000000E+00 -0.40000000000E+02  0.40000000000E+02  0.00000000000E+00 0. -1.
         23    2    1    2    0    0  0.00000000000E+00  0.00000000000E+00  0.00000000000E+00  0.80000000000E+02  0.80000000000E+02 0.  0.
          5    1    3    3  501    0  0.58237911625E+01 -0.24594615521E+02 -0.30644711515E+02  0.40000000000E+02  0.47000000000E+01 0. -1.
         -5    1    3    3    0  501 -0.58237911625E+01  0.24594615521E+02  0.30644711515E+02  0.40000000000E+02  0.47000000000E+01 0.  1.
</event>
<event>
 5    1  0.4833967E-001  0.8000000E+02  0.7546771E-02  0.1203772E+00
         11   -1    0    0    0    0  0.00000000000E+00  0.00000000000E+00  0.40000000000E+02  0.40000000000E+02  0.00000000000E+00 0. -1.
        -11   -1    0    0    0    0 -0.00000000000E+00 -0.00000000000E+00 -0.40000000000E+02  0.40000000000E+02  0.00000000000E+00 0.  1.
         23    2    1    2    0    0  0.00000000000E+00  0.00000000000E+00  0.00000000000E+00  0.80000000000E+02  0.80000000000E+02 0.  0.
          5    1    3    3  501    0  0.12885554633E+02 -0.28438786008E+02 -0.24558255887E+02  0.40000000000E+02  0.47000000000E+01 0. -1.
         -5    1    3    3    0  501 -0.12885554633E+02  0.28438786008E+02  0.24558255887E+02  0.40000000000E+02  0.47000000000E+01 0.  1.
</event>
<event>
 5    1  0.4833967E-001  0.8000000E+02  0.7546771E-02  0.1203772E+00
         11   -1    0    0    0    0  0.00000000000E+00  0.00000000000E+00  0.40000000000E+02  0.40000000000E+02  0.00000000000E+00 0.  1.
        -11   -1    0    0    0    0 -0.00000000000E+00 -0.00000000000E+00 -0.40000000000E+02  0.40000000000E+02  0.00000000000E+00 0. -1.
         23    2    1    2    0    0  0.00000000000E+00  0.00000000000E+00  0.00000000000E+00  0.80000000000E+02  0.80000000000E+02 0.  0.
          5    1    3    3  501    0 -0.15014568422E+02  0.13228476045E+01 -0.36752181014E+02  0.40000000000E+02  0.47000000000E+01 0. -1.
         -5    1    3    3    0  501  0.15014568422E+02 -0.13228476045E+01  0.36752181014E+02  0.40000000000E+02  0.47000000000E+01 0.  1.
</event>
<event>
 5    1  0.4833967E-001  0.8000000E+02  0.7546771E-02  0.1203772E+00
         11   -1    0    0    0    0  0.00000000000E+00  0.00000000000E+00  0.40000000000E+02  0.40000000000E+02  0.00000000000E+00 0.  1.
        -11   -1    0    0    0    0 -0.00000000000E+00 -0.00000000000E+00 -0.40000000000E+02  0.40000000000E+02  0.00000000000E+00 0. -1.
         23    2    1    2    0    0  0.00000000000E+00  0.00000000000E+00  0.00000000000E+00  0.80000000000E+02  0.80000000000E+02 0.  0.
          5    1    3    3  501    0  0.17068737711E+02 -0.25437429712E+02 -0.25288443262E+02  0.40000000000E+02  0.47000000000E+01 0. -1.
         -5    1    3    3    0  501 -0.17068737711E+02  0.25437429712E+02  0.25288443262E+02  0.40000000000E+02  0.47000000000E+01 0.  1.
</event>
<event>
 5    1  0.4833967E-001  0.8000000E+02  0.7546771E-02  0.1203772E+00
         11   -1    0    0    0    0  0.00000000000E+00  0.00000000000E+00  0.40000000000E+02  0.40000000000E+02  0.00000000000E+00 0.  1.
        -11   -1    0    0    0    0 -0.00000000000E+00 -0.00000000000E+00 -0.40000000000E+02  0.40000000000E+02  0.00000000000E+00 0. -1.
         23    2    1    2    0    0  0.00000000000E+00  0.00000000000E+00  0.00000000000E+00  0.80000000000E+02  0.80000000000E+02 0.  0.
          5    1    3    3  501    0 -0.17990028230E+02  0.11269910544E+02 -0.33574663075E+02  0.40000000000E+02  0.47000000000E+01 0. -1.
         -5    1    3    3    0  501  0.17990028230E+02 -0.11269910544E+02  0.33574663075E+02  0.40000000000E+02  0.47000000000E+01 0.  1.
</event>
<event>
 5    1  0.4833967E-001  0.8000000E+02  0.7546771E-02  0.1203772E+00
         11   -1    0    0    0    0  0.00000000000E+00  0.00000000000E+00  0.40000000000E+02  0.40000000000E+02  0.00000000000E+00 0.  1.
        -11   -1    0    0    0    0 -0.00000000000E+00 -0.00000000000E+00 -0.40000000000E+02  0.40000000000E+02  0.00000000000E+00 0. -1.
         23    2    1    2    0    0  0.00000000000E+00  0.00000000000E+00  0.00000000000E+00  0.80000000000E+02  0.80000000000E+02 0.  0.
          5    1    3    3  501    0 -0.97200995246E+01 -0.15188403861E+02 -0.35394096307E+02  0.40000000000E+02  0.47000000000E+01 0. -1.
         -5    1    3    3    0  501  0.97200995246E+01  0.15188403861E+02  0.35394096307E+02  0.40000000000E+02  0.47000000000E+01 0.  1.
</event>
<event>
 5    1  0.4833967E-001  0.8000000E+02  0.7546771E-02  0.1203772E+00
         11   -1    0    0    0    0  0.00000000000E+00  0.00000000000E+00  0.40000000000E+02  0.40000000000E+02  0.00000000000E+00 0. -1.
        -11   -1    0    0    0    0 -0.00000000000E+00 -0.00000000000E+00 -0.40000000000E+02  0.40000000000E+02  0.00000000000E+00 0.  1.
         23    2    1    2    0    0  0.00000000000E+00  0.00000000000E+00  0.00000000000E+00  0.80000000000E+02  0.80000000000E+02 0.  0.
          5    1    3    3  501    0  0.20327670878E+02  0.15550990431E+02  0.30378651933E+02  0.40000000000E+02  0.47000000000E+01 0. -1.
         -5    1    3    3    0  501 -0.20327670878E+02 -0.15550990431E+02 -0.30378651933E+02  0.40000000000E+02  0.47000000000E+01 0.  1.
</event>
<event>
 5    1  0.4833967E-001  0.8000000E+02  0.7546771E-02  0.1203772E+00
         11   -1    0    0    0    0  0.00000000000E+00  0.00000000000E+00  0.40000000000E+02  0.40000000000E+02  0.00000000000E+00 0. -1.
        -11   -1    0    0    0    0 -0.00000000000E+00 -0.00000000000E+00 -0.40000000000E+02  0.40000000000E+02  0.00000000000E+00 0.  1.
         23    2    1    2    0    0  0.00000000000E+00  0.00000000000E+00  0.00000000000E+00  0.80000000000E+02  0.80000000000E+02 0.  0.
          5    1    3    3  501    0  0.13080073930E+01  0.36883537311E+02  0.14690261812E+02  0.40000000000E+02  0.47000000000E+01 0. -1.
         -5    1    3    3    0  501 -0.13080073930E+01 -0.36883537311E+02 -0.14690261812E+02  0.40000000000E+02  0.47000000000E+01 0.  1.
</event>
<event>
 5    1  0.4833967E-001  0.8000000E+02  0.7546771E-02  0.1203772E+00
         11   -1    0    0    0    0  0.00000000000E+00  0.00000000000E+00  0.40000000000E+02  0.40000000000E+02  0.00000000000E+00 0. -1.
        -11   -1    0    0    0    0 -0.00000000000E+00 -0.00000000000E+00 -0.40000000000E+02  0.40000000000E+02  0.00000000000E+00 0.  1.
         23    2    1    2    0    0  0.00000000000E+00  0.00000000000E+00  0.00000000000E+00  0.80000000000E+02  0.80000000000E+02 0.  0.
          5    1    3    3  501    0 -0.25868801110E+02 -0.29585791266E+02  0.57789345291E+01  0.40000000000E+02  0.47000000000E+01 0. -1.
         -5    1    3    3    0  501  0.25868801110E+02  0.29585791266E+02 -0.57789345291E+01  0.40000000000E+02  0.47000000000E+01 0.  1.
</event>
<event>
 5    1  0.4833967E-001  0.8000000E+02  0.7546771E-02  0.1203772E+00
         11   -1    0    0    0    0  0.00000000000E+00  0.00000000000E+00  0.40000000000E+02  0.40000000000E+02  0.00000000000E+00 0.  1.
        -11   -1    0    0    0    0 -0.00000000000E+00 -0.00000000000E+00 -0.40000000000E+02  0.40000000000E+02  0.00000000000E+00 0. -1.
         23    2    1    2    0    0  0.00000000000E+00  0.00000000000E+00  0.00000000000E+00  0.80000000000E+02  0.80000000000E+02 0.  0.
          5    1    3    3  501    0 -0.23899997738E+02  0.14353085362E+02 -0.28296449401E+02  0.40000000000E+02  0.47000000000E+01 0. -1.
         -5    1    3    3    0  501  0.23899997738E+02 -0.14353085362E+02  0.28296449401E+02  0.40000000000E+02  0.47000000000E+01 0.  1.
</event>
<event>
 5    1  0.4833967E-001  0.8000000E+02  0.7546771E-02  0.1203772E+00
         11   -1    0    0    0    0  0.00000000000E+00  0.00000000000E+00  0.40000000000E+02  0.40000000000E+02  0.00000000000E+00 0. -1.
        -11   -1    0    0    0    0 -0.00000000000E+00 -0.00000000000E+00 -0.40000000000E+02  0.40000000000E+02  0.00000000000E+00 0.  1.
         23    2    1    2    0    0  0.00000000000E+00  0.00000000000E+00  0.00000000000E+00  0.80000000000E+02  0.80000000000E+02 0.  0.
          5    1    3    3  501    0 -0.31561400500E+02  0.11416323364E+02 -0.21247483600E+02  0.40000000000E+02  0.47000000000E+01 0.  1.
         -5    1    3    3    0  501  0.31561400500E+02 -0.11416323364E+02  0.21247483600E+02  0.40000000000E+02  0.47000000000E+01 0. -1.
</event>
<event>
 5    1  0.4833967E-001  0.8000000E+02  0.7546771E-02  0.1203772E+00
         11   -1    0    0    0    0  0.00000000000E+00  0.00000000000E+00  0.40000000000E+02  0.40000000000E+02  0.00000000000E+00 0.  1.
        -11   -1    0    0    0    0 -0.00000000000E+00 -0.00000000000E+00 -0.40000000000E+02  0.40000000000E+02  0.00000000000E+00 0. -1.
         23    2    1    2    0    0  0.00000000000E+00  0.00000000000E+00  0.00000000000E+00  0.80000000000E+02  0.80000000000E+02 0.  0.
          5    1    3    3  501    0  0.30310593782E+02 -0.28393329525E+01 -0.25516976564E+02  0.40000000000E+02  0.47000000000E+01 0. -1.
         -5    1    3    3    0  501 -0.30310593782E+02  0.28393329525E+01  0.25516976564E+02  0.40000000000E+02  0.47000000000E+01 0.  1.
</event>
<event>
 5    1  0.4833967E-001  0.8000000E+02  0.7546771E-02  0.1203772E+00
         11   -1    0    0    0    0  0.00000000000E+00  0.00000000000E+00  0.40000000000E+02  0.40000000000E+02  0.00000000000E+00 0.  1.
        -11   -1    0    0    0    0 -0.00000000000E+00 -0.00000000000E+00 -0.40000000000E+02  0.40000000000E+02  0.00000000000E+00 0. -1.
         23    2    1    2    0    0  0.00000000000E+00  0.00000000000E+00  0.00000000000E+00  0.80000000000E+02  0.80000000000E+02 0.  0.
          5    1    3    3  501    0  0.26616782952E+02 -0.29375069202E+02 -0.25616741929E+01  0.40000000000E+02  0.47000000000E+01 0. -1.
         -5    1    3    3    0  501 -0.26616782952E+02  0.29375069202E+02  0.25616741929E+01  0.40000000000E+02  0.47000000000E+01 0.  1.
</event>
<event>
 5    1  0.4833967E-001  0.8000000E+02  0.7546771E-02  0.1203772E+00
         11   -1    0    0    0    0  0.00000000000E+00  0.00000000000E+00  0.40000000000E+02  0.40000000000E+02  0.00000000000E+00 0. -1.
        -11   -1    0    0    0    0 -0.00000000000E+00 -0.00000000000E+00 -0.40000000000E+02  0.40000000000E+02  0.00000000000E+00 0.  1.
         23    2    1    2    0    0  0.00000000000E+00  0.00000000000E+00  0.00000000000E+00  0.80000000000E+02  0.80000000000E+02 0.  0.
          5    1    3    3  501    0 -0.19037181624E+02  0.24807470693E+02  0.24496634741E+02  0.40000000000E+02  0.47000000000E+01 0. -1.
         -5    1    3    3    0  501  0.19037181624E+02 -0.24807470693E+02 -0.24496634741E+02  0.40000000000E+02  0.47000000000E+01 0.  1.
</event>
<event>
 5    1  0.4833967E-001  0.8000000E+02  0.7546771E-02  0.1203772E+00
         11   -1    0    0    0    0  0.00000000000E+00  0.00000000000E+00  0.40000000000E+02  0.40000000000E+02  0.00000000000E+00 0.  1.
        -11   -1    0    0    0    0 -0.00000000000E+00 -0.00000000000E+00 -0.40000000000E+02  0.40000000000E+02  0.00000000000E+00 0. -1.
         23    2    1    2    0    0  0.00000000000E+00  0.00000000000E+00  0.00000000000E+00  0.80000000000E+02  0.80000000000E+02 0.  0.
          5    1    3    3  501    0 -0.35752580988E+02  0.16024315478E+02  0.65486079531E+01  0.40000000000E+02  0.47000000000E+01 0. -1.
         -5    1    3    3    0  501  0.35752580988E+02 -0.16024315478E+02 -0.65486079531E+01  0.40000000000E+02  0.47000000000E+01 0.  1.
</event>
<event>
 5    1  0.4833967E-001  0.8000000E+02  0.7546771E-02  0.1203772E+00
         11   -1    0    0    0    0  0.00000000000E+00  0.00000000000E+00  0.40000000000E+02  0.40000000000E+02  0.00000000000E+00 0.  1.
        -11   -1    0    0    0    0 -0.00000000000E+00 -0.00000000000E+00 -0.40000000000E+02  0.40000000000E+02  0.00000000000E+00 0. -1.
         23    2    1    2    0    0  0.00000000000E+00  0.00000000000E+00  0.00000000000E+00  0.80000000000E+02  0.80000000000E+02 0.  0.
          5    1    3    3  501    0  0.28753127649E+02 -0.25433896677E+02  0.10211980721E+02  0.40000000000E+02  0.47000000000E+01 0. -1.
         -5    1    3    3    0  501 -0.28753127649E+02  0.25433896677E+02 -0.10211980721E+02  0.40000000000E+02  0.47000000000E+01 0.  1.
</event>
<event>
 5    1  0.4833967E-001  0.8000000E+02  0.7546771E-02  0.1203772E+00
         11   -1    0    0    0    0  0.00000000000E+00  0.00000000000E+00  0.40000000000E+02  0.40000000000E+02  0.00000000000E+00 0.  1.
        -11   -1    0    0    0    0 -0.00000000000E+00 -0.00000000000E+00 -0.40000000000E+02  0.40000000000E+02  0.00000000000E+00 0. -1.
         23    2    1    2    0    0  0.00000000000E+00  0.00000000000E+00  0.00000000000E+00  0.80000000000E+02  0.80000000000E+02 0.  0.
          5    1    3    3  501    0  0.31697346628E+02  0.20635064899E+02 -0.12140111751E+02  0.40000000000E+02  0.47000000000E+01 0. -1.
         -5    1    3    3    0  501 -0.31697346628E+02 -0.20635064899E+02  0.12140111751E+02  0.40000000000E+02  0.47000000000E+01 0.  1.
</event>
<event>
 5    1  0.4833967E-001  0.8000000E+02  0.7546771E-02  0.1203772E+00
         11   -1    0    0    0    0  0.00000000000E+00  0.00000000000E+00  0.40000000000E+02  0.40000000000E+02  0.00000000000E+00 0. -1.
        -11   -1    0    0    0    0 -0.00000000000E+00 -0.00000000000E+00 -0.40000000000E+02  0.40000000000E+02  0.00000000000E+00 0.  1.
         23    2    1    2    0    0  0.00000000000E+00  0.00000000000E+00  0.00000000000E+00  0.80000000000E+02  0.80000000000E+02 0.  0.
          5    1    3    3  501    0 -0.27280014397E+02 -0.76745171215E+01  0.27835455833E+02  0.40000000000E+02  0.47000000000E+01 0. -1.
         -5    1    3    3    0  501  0.27280014397E+02  0.76745171215E+01 -0.27835455833E+02  0.40000000000E+02  0.47000000000E+01 0.  1.
</event>
<event>
 5    1  0.4833967E-001  0.8000000E+02  0.7546771E-02  0.1203772E+00
         11   -1    0    0    0    0  0.00000000000E+00  0.00000000000E+00  0.40000000000E+02  0.40000000000E+02  0.00000000000E+00 0. -1.
        -11   -1    0    0    0    0 -0.00000000000E+00 -0.00000000000E+00 -0.40000000000E+02  0.40000000000E+02  0.00000000000E+00 0.  1.
         23    2    1    2    0    0  0.00000000000E+00  0.00000000000E+00  0.00000000000E+00  0.80000000000E+02  0.80000000000E+02 0.  0.
          5    1    3    3  501    0 -0.17981324422E+01 -0.34553124293E+02 -0.19513029526E+02  0.40000000000E+02  0.47000000000E+01 0.  1.
         -5    1    3    3    0  501  0.17981324422E+01  0.34553124293E+02  0.19513029526E+02  0.40000000000E+02  0.47000000000E+01 0. -1.
</event>
<event>
 5    1  0.4833967E-001  0.8000000E+02  0.7546771E-02  0.1203772E+00
         11   -1    0    0    0    0  0.00000000000E+00  0.00000000000E+00  0.40000000000E+02  0.40000000000E+02  0.00000000000E+00 0.  1.
        -11   -1    0    0    0    0 -0.00000000000E+00 -0.00000000000E+00 -0.40000000000E+02  0.40000000000E+02  0.00000000000E+00 0. -1.
         23    2    1    2    0    0  0.00000000000E+00  0.00000000000E+00  0.00000000000E+00  0.80000000000E+02  0.80000000000E+02 0.  0.
          5    1    3    3  501    0 -0.26443768867E+02 -0.22759487221E+02 -0.18990598452E+02  0.40000000000E+02  0.47000000000E+01 0. -1.
         -5    1    3    3    0  501  0.26443768867E+02  0.22759487221E+02  0.18990598452E+02  0.40000000000E+02  0.47000000000E+01 0.  1.
</event>
<event>
 5    1  0.4833967E-001  0.8000000E+02  0.7546771E-02  0.1203772E+00
         11   -1    0    0    0    0  0.00000000000E+00  0.00000000000E+00  0.40000000000E+02  0.40000000000E+02  0.00000000000E+00 0.  1.
        -11   -1    0    0    0    0 -0.00000000000E+00 -0.00000000000E+00 -0.40000000000E+02  0.40000000000E+02  0.00000000000E+00 0. -1.
         23    2    1    2    0    0  0.00000000000E+00  0.00000000000E+00  0.00000000000E+00  0.80000000000E+02  0.80000000000E+02 0.  0.
          5    1    3    3  501    0 -0.11756522251E+01 -0.27865966264E+02 -0.28284549953E+02  0.40000000000E+02  0.47000000000E+01 0. -1.
         -5    1    3    3    0  501  0.11756522251E+01  0.27865966264E+02  0.28284549953E+02  0.40000000000E+02  0.47000000000E+01 0.  1.
</event>
<event>
 5    1  0.4833967E-001  0.8000000E+02  0.7546771E-02  0.1203772E+00
         11   -1    0    0    0    0  0.00000000000E+00  0.00000000000E+00  0.40000000000E+02  0.40000000000E+02  0.00000000000E+00 0. -1.
        -11   -1    0    0    0    0 -0.00000000000E+00 -0.00000000000E+00 -0.40000000000E+02  0.40000000000E+02  0.00000000000E+00 0.  1.
         23    2    1    2    0    0  0.00000000000E+00  0.00000000000E+00  0.00000000000E+00  0.80000000000E+02  0.80000000000E+02 0.  0.
          5    1    3    3  501    0  0.63546061903E+01  0.36991134648E+02 -0.13007111041E+02  0.40000000000E+02  0.47000000000E+01 0. -1.
         -5    1    3    3    0  501 -0.63546061903E+01 -0.36991134648E+02  0.13007111041E+02  0.40000000000E+02  0.47000000000E+01 0.  1.
</event>
<event>
 5    1  0.4833967E-001  0.8000000E+02  0.7546771E-02  0.1203772E+00
         11   -1    0    0    0    0  0.00000000000E+00  0.00000000000E+00  0.40000000000E+02  0.40000000000E+02  0.00000000000E+00 0.  1.
        -11   -1    0    0    0    0 -0.00000000000E+00 -0.00000000000E+00 -0.40000000000E+02  0.40000000000E+02  0.00000000000E+00 0. -1.
         23    2    1    2    0    0  0.00000000000E+00  0.00000000000E+00  0.00000000000E+00  0.80000000000E+02  0.80000000000E+02 0.  0.
          5    1    3    3  501    0 -0.25954901880E+02 -0.28364658818E+02 -0.99849485987E+01  0.40000000000E+02  0.47000000000E+01 0. -1.
         -5    1    3    3    0  501  0.25954901880E+02  0.28364658818E+02  0.99849485987E+01  0.40000000000E+02  0.47000000000E+01 0.  1.
</event>
<event>
 5    1  0.4833967E-001  0.8000000E+02  0.7546771E-02  0.1203772E+00
         11   -1    0    0    0    0  0.00000000000E+00  0.00000000000E+00  0.40000000000E+02  0.40000000000E+02  0.00000000000E+00 0. -1.
        -11   -1    0    0    0    0 -0.00000000000E+00 -0.00000000000E+00 -0.40000000000E+02  0.40000000000E+02  0.00000000000E+00 0.  1.
         23    2    1    2    0    0  0.00000000000E+00  0.00000000000E+00  0.00000000000E+00  0.80000000000E+02  0.80000000000E+02 0.  0.
          5    1    3    3  501    0  0.21242361162E+02 -0.30586085360E+02  0.13826188000E+02  0.40000000000E+02  0.47000000000E+01 0. -1.
         -5    1    3    3    0  501 -0.21242361162E+02  0.30586085360E+02 -0.13826188000E+02  0.40000000000E+02  0.47000000000E+01 0.  1.
</event>
<event>
 5    1  0.4833967E-001  0.8000000E+02  0.7546771E-02  0.1203772E+00
         11   -1    0    0    0    0  0.00000000000E+00  0.00000000000E+00  0.40000000000E+02  0.40000000000E+02  0.00000000000E+00 0.  1.
        -11   -1    0    0    0    0 -0.00000000000E+00 -0.00000000000E+00 -0.40000000000E+02  0.40000000000E+02  0.00000000000E+00 0. -1.
         23    2    1    2    0    0  0.00000000000E+00  0.00000000000E+00  0.00000000000E+00  0.80000000000E+02  0.80000000000E+02 0.  0.
          5    1    3    3  501    0  0.18023977038E+02 -0.24626176754E+02 -0.25428284847E+02  0.40000000000E+02  0.47000000000E+01 0. -1.
         -5    1    3    3    0  501 -0.18023977038E+02  0.24626176754E+02  0.25428284847E+02  0.40000000000E+02  0.47000000000E+01 0.  1.
</event>
<event>
 5    1  0.4833967E-001  0.8000000E+02  0.7546771E-02  0.1203772E+00
         11   -1    0    0    0    0  0.00000000000E+00  0.00000000000E+00  0.40000000000E+02  0.40000000000E+02  0.00000000000E+00 0.  1.
        -11   -1    0    0    0    0 -0.00000000000E+00 -0.00000000000E+00 -0.40000000000E+02  0.40000000000E+02  0.00000000000E+00 0. -1.
         23    2    1    2    0    0  0.00000000000E+00  0.00000000000E+00  0.00000000000E+00  0.80000000000E+02  0.80000000000E+02 0.  0.
          5    1    3    3  501    0  0.17729759152E+02 -0.34947129047E+02 -0.65010623602E+01  0.40000000000E+02  0.47000000000E+01 0. -1.
         -5    1    3    3    0  501 -0.17729759152E+02  0.34947129047E+02  0.65010623602E+01  0.40000000000E+02  0.47000000000E+01 0.  1.
</event>
<event>
 5    1  0.4833967E-001  0.8000000E+02  0.7546771E-02  0.1203772E+00
         11   -1    0    0    0    0  0.00000000000E+00  0.00000000000E+00  0.40000000000E+02  0.40000000000E+02  0.00000000000E+00 0. -1.
        -11   -1    0    0    0    0 -0.00000000000E+00 -0.00000000000E+00 -0.40000000000E+02  0.40000000000E+02  0.00000000000E+00 0.  1.
         23    2    1    2    0    0  0.00000000000E+00  0.00000000000E+00  0.00000000000E+00  0.80000000000E+02  0.80000000000E+02 0.  0.
          5    1    3    3  501    0  0.17802631209E+02 -0.20820821565E+02 -0.28765773262E+02  0.40000000000E+02  0.47000000000E+01 0.  1.
         -5    1    3    3    0  501 -0.17802631209E+02  0.20820821565E+02  0.28765773262E+02  0.40000000000E+02  0.47000000000E+01 0. -1.
</event>
<event>
 5    1  0.4833967E-001  0.8000000E+02  0.7546771E-02  0.1203772E+00
         11   -1    0    0    0    0  0.00000000000E+00  0.00000000000E+00  0.40000000000E+02  0.40000000000E+02  0.00000000000E+00 0.  1.
        -11   -1    0    0    0    0 -0.00000000000E+00 -0.00000000000E+00 -0.40000000000E+02  0.40000000000E+02  0.00000000000E+00 0. -1.
         23    2    1    2    0    0  0.00000000000E+00  0.00000000000E+00  0.00000000000E+00  0.80000000000E+02  0.80000000000E+02 0.  0.
          5    1    3    3  501    0 -0.10306861592E+02 -0.35433041721E+02 -0.14702998284E+02  0.40000000000E+02  0.47000000000E+01 0. -1.
         -5    1    3    3    0  501  0.10306861592E+02  0.35433041721E+02  0.14702998284E+02  0.40000000000E+02  0.47000000000E+01 0.  1.
</event>
<event>
 5    1  0.4833967E-001  0.8000000E+02  0.7546771E-02  0.1203772E+00
         11   -1    0    0    0    0  0.00000000000E+00  0.00000000000E+00  0.40000000000E+02  0.40000000000E+02  0.00000000000E+00 0.  1.
        -11   -1    0    0    0    0 -0.00000000000E+00 -0.00000000000E+00 -0.40000000000E+02  0.40000000000E+02  0.00000000000E+00 0. -1.
         23    2    1    2    0    0  0.00000000000E+00  0.00000000000E+00  0.00000000000E+00  0.80000000000E+02  0.80000000000E+02 0.  0.
          5    1    3    3  501    0 -0.31015415148E+02  0.72160113748E+01 -0.23746225027E+02  0.40000000000E+02  0.47000000000E+01 0. -1.
         -5    1    3    3    0  501  0.31015415148E+02 -0.72160113748E+01  0.23746225027E+02  0.40000000000E+02  0.47000000000E+01 0.  1.
</event>
<event>
 5    1  0.4833967E-001  0.8000000E+02  0.7546771E-02  0.1203772E+00
         11   -1    0    0    0    0  0.00000000000E+00  0.00000000000E+00  0.40000000000E+02  0.40000000000E+02  0.00000000000E+00 0.  1.
        -11   -1    0    0    0    0 -0.00000000000E+00 -0.00000000000E+00 -0.40000000000E+02  0.40000000000E+02  0.00000000000E+00 0. -1.
         23    2    1    2    0    0  0.00000000000E+00  0.00000000000E+00  0.00000000000E+00  0.80000000000E+02  0.80000000000E+02 0.  0.
          5    1    3    3  501    0 -0.25194229601E+02 -0.14650717251E+02 -0.26991059239E+02  0.40000000000E+02  0.47000000000E+01 0. -1.
         -5    1    3    3    0  501  0.25194229601E+02  0.14650717251E+02  0.26991059239E+02  0.40000000000E+02  0.47000000000E+01 0.  1.
</event>
<event>
 5    1  0.4833967E-001  0.8000000E+02  0.7546771E-02  0.1203772E+00
         11   -1    0    0    0    0  0.00000000000E+00  0.00000000000E+00  0.40000000000E+02  0.40000000000E+02  0.00000000000E+00 0.  1.
        -11   -1    0    0    0    0 -0.00000000000E+00 -0.00000000000E+00 -0.40000000000E+02  0.40000000000E+02  0.00000000000E+00 0. -1.
         23    2    1    2    0    0  0.00000000000E+00  0.00000000000E+00  0.00000000000E+00  0.80000000000E+02  0.80000000000E+02 0.  0.
          5    1    3    3  501    0  0.29529091700E+02  0.16115528104E+02 -0.21124215899E+02  0.40000000000E+02  0.47000000000E+01 0. -1.
         -5    1    3    3    0  501 -0.29529091700E+02 -0.16115528104E+02  0.21124215899E+02  0.40000000000E+02  0.47000000000E+01 0.  1.
</event>
<event>
 5    1  0.4833967E-001  0.8000000E+02  0.7546771E-02  0.1203772E+00
         11   -1    0    0    0    0  0.00000000000E+00  0.00000000000E+00  0.40000000000E+02  0.40000000000E+02  0.00000000000E+00 0. -1.
        -11   -1    0    0    0    0 -0.00000000000E+00 -0.00000000000E+00 -0.40000000000E+02  0.40000000000E+02  0.00000000000E+00 0.  1.
         23    2    1    2    0    0  0.00000000000E+00  0.00000000000E+00  0.00000000000E+00  0.80000000000E+02  0.80000000000E+02 0.  0.
          5    1    3    3  501    0  0.23154711222E+02  0.15795259220E+02  0.28147453427E+02  0.40000000000E+02  0.47000000000E+01 0. -1.
         -5    1    3    3    0  501 -0.23154711222E+02 -0.15795259220E+02 -0.28147453427E+02  0.40000000000E+02  0.47000000000E+01 0.  1.
</event>
<event>
 5    1  0.4833967E-001  0.8000000E+02  0.7546771E-02  0.1203772E+00
         11   -1    0    0    0    0  0.00000000000E+00  0.00000000000E+00  0.40000000000E+02  0.40000000000E+02  0.00000000000E+00 0. -1.
        -11   -1    0    0    0    0 -0.00000000000E+00 -0.00000000000E+00 -0.40000000000E+02  0.40000000000E+02  0.00000000000E+00 0.  1.
         23    2    1    2    0    0  0.00000000000E+00  0.00000000000E+00  0.00000000000E+00  0.80000000000E+02  0.80000000000E+02 0.  0.
          5    1    3    3  501    0  0.15098318920E+02  0.34121650278E+02  0.13625848528E+02  0.40000000000E+02  0.47000000000E+01 0. -1.
         -5    1    3    3    0  501 -0.15098318920E+02 -0.34121650278E+02 -0.13625848528E+02  0.40000000000E+02  0.47000000000E+01 0.  1.
</event>
<event>
 5    1  0.4833967E-001  0.8000000E+02  0.7546771E-02  0.1203772E+00
         11   -1    0    0    0    0  0.00000000000E+00  0.00000000000E+00  0.40000000000E+02  0.40000000000E+02  0.00000000000E+00 0. -1.
        -11   -1    0    0    0    0 -0.00000000000E+00 -0.00000000000E+00 -0.40000000000E+02  0.40000000000E+02  0.00000000000E+00 0.  1.
         23    2    1    2    0    0  0.00000000000E+00  0.00000000000E+00  0.00000000000E+00  0.80000000000E+02  0.80000000000E+02 0.  0.
          5    1    3    3  501    0 -0.31139657531E+02  0.65284800270E+01  0.23782570875E+02  0.40000000000E+02  0.47000000000E+01 0. -1.
         -5    1    3    3    0  501  0.31139657531E+02 -0.65284800270E+01 -0.23782570875E+02  0.40000000000E+02  0.47000000000E+01 0.  1.
</event>
<event>
 5    1  0.4833967E-001  0.8000000E+02  0.7546771E-02  0.1203772E+00
         11   -1    0    0    0    0  0.00000000000E+00  0.00000000000E+00  0.40000000000E+02  0.40000000000E+02  0.00000000000E+00 0. -1.
        -11   -1    0    0    0    0 -0.00000000000E+00 -0.00000000000E+00 -0.40000000000E+02  0.40000000000E+02  0.00000000000E+00 0.  1.
         23    2    1    2    0    0  0.00000000000E+00  0.00000000000E+00  0.00000000000E+00  0.80000000000E+02  0.80000000000E+02 0.  0.
          5    1    3    3  501    0 -0.27845555710E+02 -0.27648826201E+02  0.61706917699E+01  0.40000000000E+02  0.47000000000E+01 0. -1.
         -5    1    3    3    0  501  0.27845555710E+02  0.27648826201E+02 -0.61706917699E+01  0.40000000000E+02  0.47000000000E+01 0.  1.
</event>
<event>
 5    1  0.4833967E-001  0.8000000E+02  0.7546771E-02  0.1203772E+00
         11   -1    0    0    0    0  0.00000000000E+00  0.00000000000E+00  0.40000000000E+02  0.40000000000E+02  0.00000000000E+00 0.  1.
        -11   -1    0    0    0    0 -0.00000000000E+00 -0.00000000000E+00 -0.40000000000E+02  0.40000000000E+02  0.00000000000E+00 0. -1.
         23    2    1    2    0    0  0.00000000000E+00  0.00000000000E+00  0.00000000000E+00  0.80000000000E+02  0.80000000000E+02 0.  0.
          5    1    3    3  501    0  0.13497069755E+01  0.30792085644E+02 -0.25058646267E+02  0.40000000000E+02  0.47000000000E+01 0. -1.
         -5    1    3    3    0  501 -0.13497069755E+01 -0.30792085644E+02  0.25058646267E+02  0.40000000000E+02  0.47000000000E+01 0.  1.
</event>
<event>
 5    1  0.4833967E-001  0.8000000E+02  0.7546771E-02  0.1203772E+00
         11   -1    0    0    0    0  0.00000000000E+00  0.00000000000E+00  0.40000000000E+02  0.40000000000E+02  0.00000000000E+00 0. -1.
        -11   -1    0    0    0    0 -0.00000000000E+00 -0.00000000000E+00 -0.40000000000E+02  0.40000000000E+02  0.00000000000E+00 0.  1.
         23    2    1    2    0    0  0.00000000000E+00  0.00000000000E+00  0.00000000000E+00  0.80000000000E+02  0.80000000000E+02 0.  0.
          5    1    3    3  501    0 -0.25990363372E+01 -0.32642725150E+02  0.22485717798E+02  0.40000000000E+02  0.47000000000E+01 0. -1.
         -5    1    3    3    0  501  0.25990363372E+01  0.32642725150E+02 -0.22485717798E+02  0.40000000000E+02  0.47000000000E+01 0.  1.
</event>
<event>
 5    1  0.4833967E-001  0.8000000E+02  0.7546771E-02  0.1203772E+00
         11   -1    0    0    0    0  0.00000000000E+00  0.00000000000E+00  0.40000000000E+02  0.40000000000E+02  0.00000000000E+00 0. -1.
        -11   -1    0    0    0    0 -0.00000000000E+00 -0.00000000000E+00 -0.40000000000E+02  0.40000000000E+02  0.00000000000E+00 0.  1.
         23    2    1    2    0    0  0.00000000000E+00  0.00000000000E+00  0.00000000000E+00  0.80000000000E+02  0.80000000000E+02 0.  0.
          5    1    3    3  501    0  0.22838102007E+02  0.14662624937E+02  0.29005836080E+02  0.40000000000E+02  0.47000000000E+01 0. -1.
         -5    1    3    3    0  501 -0.22838102007E+02 -0.14662624937E+02 -0.29005836080E+02  0.40000000000E+02  0.47000000000E+01 0.  1.
</event>
<event>
 5    1  0.4833967E-001  0.8000000E+02  0.7546771E-02  0.1203772E+00
         11   -1    0    0    0    0  0.00000000000E+00  0.00000000000E+00  0.40000000000E+02  0.40000000000E+02  0.00000000000E+00 0. -1.
        -11   -1    0    0    0    0 -0.00000000000E+00 -0.00000000000E+00 -0.40000000000E+02  0.40000000000E+02  0.00000000000E+00 0.  1.
         23    2    1    2    0    0  0.00000000000E+00  0.00000000000E+00  0.00000000000E+00  0.80000000000E+02  0.80000000000E+02 0.  0.
          5    1    3    3  501    0  0.34606859329E+02 -0.15395216169E+02  0.11969235836E+02  0.40000000000E+02  0.47000000000E+01 0. -1.
         -5    1    3    3    0  501 -0.34606859329E+02  0.15395216169E+02 -0.11969235836E+02  0.40000000000E+02  0.47000000000E+01 0.  1.
</event>
<event>
 5    1  0.4833967E-001  0.8000000E+02  0.7546771E-02  0.1203772E+00
         11   -1    0    0    0    0  0.00000000000E+00  0.00000000000E+00  0.40000000000E+02  0.40000000000E+02  0.00000000000E+00 0.  1.
        -11   -1    0    0    0    0 -0.00000000000E+00 -0.00000000000E+00 -0.40000000000E+02  0.40000000000E+02  0.00000000000E+00 0. -1.
         23    2    1    2    0    0  0.00000000000E+00  0.00000000000E+00  0.00000000000E+00  0.80000000000E+02  0.80000000000E+02 0.  0.
          5    1    3    3  501    0  0.22857884225E+02  0.29078703771E+02 -0.14486411418E+02  0.40000000000E+02  0.47000000000E+01 0. -1.
         -5    1    3    3    0  501 -0.22857884225E+02 -0.29078703771E+02  0.14486411418E+02  0.40000000000E+02  0.47000000000E+01 0.  1.
</event>
<event>
 5    1  0.4833967E-001  0.8000000E+02  0.7546771E-02  0.1203772E+00
         11   -1    0    0    0    0  0.00000000000E+00  0.00000000000E+00  0.40000000000E+02  0.40000000000E+02  0.00000000000E+00 0. -1.
        -11   -1    0    0    0    0 -0.00000000000E+00 -0.00000000000E+00 -0.40000000000E+02  0.40000000000E+02  0.00000000000E+00 0.  1.
         23    2    1    2    0    0  0.00000000000E+00  0.00000000000E+00  0.00000000000E+00  0.80000000000E+02  0.80000000000E+02 0.  0.
          5    1    3    3  501    0  0.25126468580E+02 -0.28984101663E+02  0.10319516824E+02  0.40000000000E+02  0.47000000000E+01 0. -1.
         -5    1    3    3    0  501 -0.25126468580E+02  0.28984101663E+02 -0.10319516824E+02  0.40000000000E+02  0.47000000000E+01 0.  1.
</event>
<event>
 5    1  0.4833967E-001  0.8000000E+02  0.7546771E-02  0.1203772E+00
         11   -1    0    0    0    0  0.00000000000E+00  0.00000000000E+00  0.40000000000E+02  0.40000000000E+02  0.00000000000E+00 0. -1.
        -11   -1    0    0    0    0 -0.00000000000E+00 -0.00000000000E+00 -0.40000000000E+02  0.40000000000E+02  0.00000000000E+00 0.  1.
         23    2    1    2    0    0  0.00000000000E+00  0.00000000000E+00  0.00000000000E+00  0.80000000000E+02  0.80000000000E+02 0.  0.
          5    1    3    3  501    0  0.97906245628E+01  0.38101503090E+00  0.38495564656E+02  0.40000000000E+02  0.47000000000E+01 0. -1.
         -5    1    3    3    0  501 -0.97906245628E+01 -0.38101503090E+00 -0.38495564656E+02  0.40000000000E+02  0.47000000000E+01 0.  1.
</event>
<event>
 5    1  0.4833967E-001  0.8000000E+02  0.7546771E-02  0.1203772E+00
         11   -1    0    0    0    0  0.00000000000E+00  0.00000000000E+00  0.40000000000E+02  0.40000000000E+02  0.00000000000E+00 0. -1.
        -11   -1    0    0    0    0 -0.00000000000E+00 -0.00000000000E+00 -0.40000000000E+02  0.40000000000E+02  0.00000000000E+00 0.  1.
         23    2    1    2    0    0  0.00000000000E+00  0.00000000000E+00  0.00000000000E+00  0.80000000000E+02  0.80000000000E+02 0.  0.
          5    1    3    3  501    0  0.15508126031E+02 -0.14708847876E+01  0.36540997865E+02  0.40000000000E+02  0.47000000000E+01 0. -1.
         -5    1    3    3    0  501 -0.15508126031E+02  0.14708847876E+01 -0.36540997865E+02  0.40000000000E+02  0.47000000000E+01 0.  1.
</event>
<event>
 5    1  0.4833967E-001  0.8000000E+02  0.7546771E-02  0.1203772E+00
         11   -1    0    0    0    0  0.00000000000E+00  0.00000000000E+00  0.40000000000E+02  0.40000000000E+02  0.00000000000E+00 0. -1.
        -11   -1    0    0    0    0 -0.00000000000E+00 -0.00000000000E+00 -0.40000000000E+02  0.40000000000E+02  0.00000000000E+00 0.  1.
         23    2    1    2    0    0  0.00000000000E+00  0.00000000000E+00  0.00000000000E+00  0.80000000000E+02  0.80000000000E+02 0.  0.
          5    1    3    3  501    0 -0.29330913138E+02 -0.45502292345E+01  0.26398919455E+02  0.40000000000E+02  0.47000000000E+01 0. -1.
         -5    1    3    3    0  501  0.29330913138E+02  0.45502292345E+01 -0.26398919455E+02  0.40000000000E+02  0.47000000000E+01 0.  1.
</event>
<event>
 5    1  0.4833967E-001  0.8000000E+02  0.7546771E-02  0.1203772E+00
         11   -1    0    0    0    0  0.00000000000E+00  0.00000000000E+00  0.40000000000E+02  0.40000000000E+02  0.00000000000E+00 0. -1.
        -11   -1    0    0    0    0 -0.00000000000E+00 -0.00000000000E+00 -0.40000000000E+02  0.40000000000E+02  0.00000000000E+00 0.  1.
         23    2    1    2    0    0  0.00000000000E+00  0.00000000000E+00  0.00000000000E+00  0.80000000000E+02  0.80000000000E+02 0.  0.
          5    1    3    3  501    0  0.35163700918E+02 -0.86067608516E+01 -0.16350773847E+02  0.40000000000E+02  0.47000000000E+01 0.  1.
         -5    1    3    3    0  501 -0.35163700918E+02  0.86067608516E+01  0.16350773847E+02  0.40000000000E+02  0.47000000000E+01 0. -1.
</event>
<event>
 5    1  0.4833967E-001  0.8000000E+02  0.7546771E-02  0.1203772E+00
         11   -1    0    0    0    0  0.00000000000E+00  0.00000000000E+00  0.40000000000E+02  0.40000000000E+02  0.00000000000E+00 0. -1.
        -11   -1    0    0    0    0 -0.00000000000E+00 -0.00000000000E+00 -0.40000000000E+02  0.40000000000E+02  0.00000000000E+00 0.  1.
         23    2    1    2    0    0  0.00000000000E+00  0.00000000000E+00  0.00000000000E+00  0.80000000000E+02  0.80000000000E+02 0.  0.
          5    1    3    3  501    0  0.16334667906E+02 -0.55503615980E+01 -0.35781030037E+02  0.40000000000E+02  0.47000000000E+01 0.  1.
         -5    1    3    3    0  501 -0.16334667906E+02  0.55503615980E+01  0.35781030037E+02  0.40000000000E+02  0.47000000000E+01 0. -1.
</event>
<event>
 5    1  0.4833967E-001  0.8000000E+02  0.7546771E-02  0.1203772E+00
         11   -1    0    0    0    0  0.00000000000E+00  0.00000000000E+00  0.40000000000E+02  0.40000000000E+02  0.00000000000E+00 0. -1.
        -11   -1    0    0    0    0 -0.00000000000E+00 -0.00000000000E+00 -0.40000000000E+02  0.40000000000E+02  0.00000000000E+00 0.  1.
         23    2    1    2    0    0  0.00000000000E+00  0.00000000000E+00  0.00000000000E+00  0.80000000000E+02  0.80000000000E+02 0.  0.
          5    1    3    3  501    0 -0.17588271303E+02  0.19264671095E+02  0.29957222170E+02  0.40000000000E+02  0.47000000000E+01 0. -1.
         -5    1    3    3    0  501  0.17588271303E+02 -0.19264671095E+02 -0.29957222170E+02  0.40000000000E+02  0.47000000000E+01 0.  1.
</event>
<event>
 5    1  0.4833967E-001  0.8000000E+02  0.7546771E-02  0.1203772E+00
         11   -1    0    0    0    0  0.00000000000E+00  0.00000000000E+00  0.40000000000E+02  0.40000000000E+02  0.00000000000E+00 0. -1.
        -11   -1    0    0    0    0 -0.00000000000E+00 -0.00000000000E+00 -0.40000000000E+02  0.40000000000E+02  0.00000000000E+00 0.  1.
         23    2    1    2    0    0  0.00000000000E+00  0.00000000000E+00  0.00000000000E+00  0.80000000000E+02  0.80000000000E+02 0.  0.
          5    1    3    3  501    0 -0.10198114286E+02 -0.56644413243E+01  0.37971338790E+02  0.40000000000E+02  0.47000000000E+01 0. -1.
         -5    1    3    3    0  501  0.10198114286E+02  0.56644413243E+01 -0.37971338790E+02  0.40000000000E+02  0.47000000000E+01 0.  1.
</event>
<event>
 5    1  0.4833967E-001  0.8000000E+02  0.7546771E-02  0.1203772E+00
         11   -1    0    0    0    0  0.00000000000E+00  0.00000000000E+00  0.40000000000E+02  0.40000000000E+02  0.00000000000E+00 0.  1.
        -11   -1    0    0    0    0 -0.00000000000E+00 -0.00000000000E+00 -0.40000000000E+02  0.40000000000E+02  0.00000000000E+00 0. -1.
         23    2    1    2    0    0  0.00000000000E+00  0.00000000000E+00  0.00000000000E+00  0.80000000000E+02  0.80000000000E+02 0.  0.
          5    1    3    3  501    0  0.49192271942E+01  0.17908458103E+02 -0.35114075984E+02  0.40000000000E+02  0.47000000000E+01 0. -1.
         -5    1    3    3    0  501 -0.49192271942E+01 -0.17908458103E+02  0.35114075984E+02  0.40000000000E+02  0.47000000000E+01 0.  1.
</event>
<event>
 5    1  0.4833967E-001  0.8000000E+02  0.7546771E-02  0.1203772E+00
         11   -1    0    0    0    0  0.00000000000E+00  0.00000000000E+00  0.40000000000E+02  0.40000000000E+02  0.00000000000E+00 0.  1.
        -11   -1    0    0    0    0 -0.00000000000E+00 -0.00000000000E+00 -0.40000000000E+02  0.40000000000E+02  0.00000000000E+00 0. -1.
         23    2    1    2    0    0  0.00000000000E+00  0.00000000000E+00  0.00000000000E+00  0.80000000000E+02  0.80000000000E+02 0.  0.
          5    1    3    3  501    0 -0.18401045406E+02 -0.96787323584E+01 -0.33847210637E+02  0.40000000000E+02  0.47000000000E+01 0. -1.
         -5    1    3    3    0  501  0.18401045406E+02  0.96787323584E+01  0.33847210637E+02  0.40000000000E+02  0.47000000000E+01 0.  1.
</event>
<event>
 5    1  0.4833967E-001  0.8000000E+02  0.7546771E-02  0.1203772E+00
         11   -1    0    0    0    0  0.00000000000E+00  0.00000000000E+00  0.40000000000E+02  0.40000000000E+02  0.00000000000E+00 0.  1.
        -11   -1    0    0    0    0 -0.00000000000E+00 -0.00000000000E+00 -0.40000000000E+02  0.40000000000E+02  0.00000000000E+00 0. -1.
         23    2    1    2    0    0  0.00000000000E+00  0.00000000000E+00  0.00000000000E+00  0.80000000000E+02  0.80000000000E+02 0.  0.
          5    1    3    3  501    0  0.34023085457E+01 -0.34353401381E+02 -0.19651414964E+02  0.40000000000E+02  0.47000000000E+01 0. -1.
         -5    1    3    3    0  501 -0.34023085457E+01  0.34353401381E+02  0.19651414964E+02  0.40000000000E+02  0.47000000000E+01 0.  1.
</event>
<event>
 5    1  0.4833967E-001  0.8000000E+02  0.7546771E-02  0.1203772E+00
         11   -1    0    0    0    0  0.00000000000E+00  0.00000000000E+00  0.40000000000E+02  0.40000000000E+02  0.00000000000E+00 0.  1.
        -11   -1    0    0    0    0 -0.00000000000E+00 -0.00000000000E+00 -0.40000000000E+02  0.40000000000E+02  0.00000000000E+00 0. -1.
         23    2    1    2    0    0  0.00000000000E+00  0.00000000000E+00  0.00000000000E+00  0.80000000000E+02  0.80000000000E+02 0.  0.
          5    1    3    3  501    0  0.16074655748E+01  0.15780547906E+02 -0.36418406915E+02  0.40000000000E+02  0.47000000000E+01 0. -1.
         -5    1    3    3    0  501 -0.16074655748E+01 -0.15780547906E+02  0.36418406915E+02  0.40000000000E+02  0.47000000000E+01 0.  1.
</event>
<event>
 5    1  0.4833967E-001  0.8000000E+02  0.7546771E-02  0.1203772E+00
         11   -1    0    0    0    0  0.00000000000E+00  0.00000000000E+00  0.40000000000E+02  0.40000000000E+02  0.00000000000E+00 0. -1.
        -11   -1    0    0    0    0 -0.00000000000E+00 -0.00000000000E+00 -0.40000000000E+02  0.40000000000E+02  0.00000000000E+00 0.  1.
         23    2    1    2    0    0  0.00000000000E+00  0.00000000000E+00  0.00000000000E+00  0.80000000000E+02  0.80000000000E+02 0.  0.
          5    1    3    3  501    0  0.27408523150E+02  0.23828857358E+02  0.16089388296E+02  0.40000000000E+02  0.47000000000E+01 0. -1.
         -5    1    3    3    0  501 -0.27408523150E+02 -0.23828857358E+02 -0.16089388296E+02  0.40000000000E+02  0.47000000000E+01 0.  1.
</event>
<event>
 5    1  0.4833967E-001  0.8000000E+02  0.7546771E-02  0.1203772E+00
         11   -1    0    0    0    0  0.00000000000E+00  0.00000000000E+00  0.40000000000E+02  0.40000000000E+02  0.00000000000E+00 0.  1.
        -11   -1    0    0    0    0 -0.00000000000E+00 -0.00000000000E+00 -0.40000000000E+02  0.40000000000E+02  0.00000000000E+00 0. -1.
         23    2    1    2    0    0  0.00000000000E+00  0.00000000000E+00  0.00000000000E+00  0.80000000000E+02  0.80000000000E+02 0.  0.
          5    1    3    3  501    0  0.14657791181E+02 -0.35763372995E+02  0.91673502017E+01  0.40000000000E+02  0.47000000000E+01 0. -1.
         -5    1    3    3    0  501 -0.14657791181E+02  0.35763372995E+02 -0.91673502017E+01  0.40000000000E+02  0.47000000000E+01 0.  1.
</event>
<event>
 5    1  0.4833967E-001  0.8000000E+02  0.7546771E-02  0.1203772E+00
         11   -1    0    0    0    0  0.00000000000E+00  0.00000000000E+00  0.40000000000E+02  0.40000000000E+02  0.00000000000E+00 0.  1.
        -11   -1    0    0    0    0 -0.00000000000E+00 -0.00000000000E+00 -0.40000000000E+02  0.40000000000E+02  0.00000000000E+00 0. -1.
         23    2    1    2    0    0  0.00000000000E+00  0.00000000000E+00  0.00000000000E+00  0.80000000000E+02  0.80000000000E+02 0.  0.
          5    1    3    3  501    0  0.70249327598E+01 -0.11672787503E+01 -0.39079377938E+02  0.40000000000E+02  0.47000000000E+01 0. -1.
         -5    1    3    3    0  501 -0.70249327598E+01  0.11672787503E+01  0.39079377938E+02  0.40000000000E+02  0.47000000000E+01 0.  1.
</event>
<event>
 5    1  0.4833967E-001  0.8000000E+02  0.7546771E-02  0.1203772E+00
         11   -1    0    0    0    0  0.00000000000E+00  0.00000000000E+00  0.40000000000E+02  0.40000000000E+02  0.00000000000E+00 0.  1.
        -11   -1    0    0    0    0 -0.00000000000E+00 -0.00000000000E+00 -0.40000000000E+02  0.40000000000E+02  0.00000000000E+00 0. -1.
         23    2    1    2    0    0  0.00000000000E+00  0.00000000000E+00  0.00000000000E+00  0.80000000000E+02  0.80000000000E+02 0.  0.
          5    1    3    3  501    0 -0.59294879440E+01  0.31296975388E+02 -0.23732899197E+02  0.40000000000E+02  0.47000000000E+01 0. -1.
         -5    1    3    3    0  501  0.59294879440E+01 -0.31296975388E+02  0.23732899197E+02  0.40000000000E+02  0.47000000000E+01 0.  1.
</event>
<event>
 5    1  0.4833967E-001  0.8000000E+02  0.7546771E-02  0.1203772E+00
         11   -1    0    0    0    0  0.00000000000E+00  0.00000000000E+00  0.40000000000E+02  0.40000000000E+02  0.00000000000E+00 0.  1.
        -11   -1    0    0    0    0 -0.00000000000E+00 -0.00000000000E+00 -0.40000000000E+02  0.40000000000E+02  0.00000000000E+00 0. -1.
         23    2    1    2    0    0  0.00000000000E+00  0.00000000000E+00  0.00000000000E+00  0.80000000000E+02  0.80000000000E+02 0.  0.
          5    1    3    3  501    0 -0.67450691876E+00 -0.20390085095E+01 -0.39664814190E+02  0.40000000000E+02  0.47000000000E+01 0. -1.
         -5    1    3    3    0  501  0.67450691876E+00  0.20390085095E+01  0.39664814190E+02  0.40000000000E+02  0.47000000000E+01 0.  1.
</event>
<event>
 5    1  0.4833967E-001  0.8000000E+02  0.7546771E-02  0.1203772E+00
         11   -1    0    0    0    0  0.00000000000E+00  0.00000000000E+00  0.40000000000E+02  0.40000000000E+02  0.00000000000E+00 0. -1.
        -11   -1    0    0    0    0 -0.00000000000E+00 -0.00000000000E+00 -0.40000000000E+02  0.40000000000E+02  0.00000000000E+00 0.  1.
         23    2    1    2    0    0  0.00000000000E+00  0.00000000000E+00  0.00000000000E+00  0.80000000000E+02  0.80000000000E+02 0.  0.
          5    1    3    3  501    0 -0.30275826031E+02  0.12166856689E+01  0.25686650893E+02  0.40000000000E+02  0.47000000000E+01 0. -1.
         -5    1    3    3    0  501  0.30275826031E+02 -0.12166856689E+01 -0.25686650893E+02  0.40000000000E+02  0.47000000000E+01 0.  1.
</event>
<event>
 5    1  0.4833967E-001  0.8000000E+02  0.7546771E-02  0.1203772E+00
         11   -1    0    0    0    0  0.00000000000E+00  0.00000000000E+00  0.40000000000E+02  0.40000000000E+02  0.00000000000E+00 0. -1.
        -11   -1    0    0    0    0 -0.00000000000E+00 -0.00000000000E+00 -0.40000000000E+02  0.40000000000E+02  0.00000000000E+00 0.  1.
         23    2    1    2    0    0  0.00000000000E+00  0.00000000000E+00  0.00000000000E+00  0.80000000000E+02  0.80000000000E+02 0.  0.
          5    1    3    3  501    0 -0.21412246507E+02 -0.19800058817E+02  0.26970045798E+02  0.40000000000E+02  0.47000000000E+01 0. -1.
         -5    1    3    3    0  501  0.21412246507E+02  0.19800058817E+02 -0.26970045798E+02  0.40000000000E+02  0.47000000000E+01 0.  1.
</event>
<event>
 5    1  0.4833967E-001  0.8000000E+02  0.7546771E-02  0.1203772E+00
         11   -1    0    0    0    0  0.00000000000E+00  0.00000000000E+00  0.40000000000E+02  0.40000000000E+02  0.00000000000E+00 0.  1.
        -11   -1    0    0    0    0 -0.00000000000E+00 -0.00000000000E+00 -0.40000000000E+02  0.40000000000E+02  0.00000000000E+00 0. -1.
         23    2    1    2    0    0  0.00000000000E+00  0.00000000000E+00  0.00000000000E+00  0.80000000000E+02  0.80000000000E+02 0.  0.
          5    1    3    3  501    0 -0.23011683369E+02 -0.27610049886E+02  0.16913236644E+02  0.40000000000E+02  0.47000000000E+01 0. -1.
         -5    1    3    3    0  501  0.23011683369E+02  0.27610049886E+02 -0.16913236644E+02  0.40000000000E+02  0.47000000000E+01 0.  1.
</event>
<event>
 5    1  0.4833967E-001  0.8000000E+02  0.7546771E-02  0.1203772E+00
         11   -1    0    0    0    0  0.00000000000E+00  0.00000000000E+00  0.40000000000E+02  0.40000000000E+02  0.00000000000E+00 0.  1.
        -11   -1    0    0    0    0 -0.00000000000E+00 -0.00000000000E+00 -0.40000000000E+02  0.40000000000E+02  0.00000000000E+00 0. -1.
         23    2    1    2    0    0  0.00000000000E+00  0.00000000000E+00  0.00000000000E+00  0.80000000000E+02  0.80000000000E+02 0.  0.
          5    1    3    3  501    0 -0.33161713472E+02  0.56310029014E+01 -0.21130607325E+02  0.40000000000E+02  0.47000000000E+01 0. -1.
         -5    1    3    3    0  501  0.33161713472E+02 -0.56310029014E+01  0.21130607325E+02  0.40000000000E+02  0.47000000000E+01 0.  1.
</event>
<event>
 5    1  0.4833967E-001  0.8000000E+02  0.7546771E-02  0.1203772E+00
         11   -1    0    0    0    0  0.00000000000E+00  0.00000000000E+00  0.40000000000E+02  0.40000000000E+02  0.00000000000E+00 0. -1.
        -11   -1    0    0    0    0 -0.00000000000E+00 -0.00000000000E+00 -0.40000000000E+02  0.40000000000E+02  0.00000000000E+00 0.  1.
         23    2    1    2    0    0  0.00000000000E+00  0.00000000000E+00  0.00000000000E+00  0.80000000000E+02  0.80000000000E+02 0.  0.
          5    1    3    3  501    0  0.55712434799E+01 -0.23102743800E+02  0.31829773405E+02  0.40000000000E+02  0.47000000000E+01 0. -1.
         -5    1    3    3    0  501 -0.55712434799E+01  0.23102743800E+02 -0.31829773405E+02  0.40000000000E+02  0.47000000000E+01 0.  1.
</event>
<event>
 5    1  0.4833967E-001  0.8000000E+02  0.7546771E-02  0.1203772E+00
         11   -1    0    0    0    0  0.00000000000E+00  0.00000000000E+00  0.40000000000E+02  0.40000000000E+02  0.00000000000E+00 0.  1.
        -11   -1    0    0    0    0 -0.00000000000E+00 -0.00000000000E+00 -0.40000000000E+02  0.40000000000E+02  0.00000000000E+00 0. -1.
         23    2    1    2    0    0  0.00000000000E+00  0.00000000000E+00  0.00000000000E+00  0.80000000000E+02  0.80000000000E+02 0.  0.
          5    1    3    3  501    0  0.10327616048E+02  0.45448230894E+01 -0.38086676540E+02  0.40000000000E+02  0.47000000000E+01 0. -1.
         -5    1    3    3    0  501 -0.10327616048E+02 -0.45448230894E+01  0.38086676540E+02  0.40000000000E+02  0.47000000000E+01 0.  1.
</event>
<event>
 5    1  0.4833967E-001  0.8000000E+02  0.7546771E-02  0.1203772E+00
         11   -1    0    0    0    0  0.00000000000E+00  0.00000000000E+00  0.40000000000E+02  0.40000000000E+02  0.00000000000E+00 0.  1.
        -11   -1    0    0    0    0 -0.00000000000E+00 -0.00000000000E+00 -0.40000000000E+02  0.40000000000E+02  0.00000000000E+00 0. -1.
         23    2    1    2    0    0  0.00000000000E+00  0.00000000000E+00  0.00000000000E+00  0.80000000000E+02  0.80000000000E+02 0.  0.
          5    1    3    3  501    0 -0.11215150766E+02  0.71447320983E+01 -0.37431045892E+02  0.40000000000E+02  0.47000000000E+01 0. -1.
         -5    1    3    3    0  501  0.11215150766E+02 -0.71447320983E+01  0.37431045892E+02  0.40000000000E+02  0.47000000000E+01 0.  1.
</event>
<event>
 5    1  0.4833967E-001  0.8000000E+02  0.7546771E-02  0.1203772E+00
         11   -1    0    0    0    0  0.00000000000E+00  0.00000000000E+00  0.40000000000E+02  0.40000000000E+02  0.00000000000E+00 0. -1.
        -11   -1    0    0    0    0 -0.00000000000E+00 -0.00000000000E+00 -0.40000000000E+02  0.40000000000E+02  0.00000000000E+00 0.  1.
         23    2    1    2    0    0  0.00000000000E+00  0.00000000000E+00  0.00000000000E+00  0.80000000000E+02  0.80000000000E+02 0.  0.
          5    1    3    3  501    0 -0.23988427323E+01 -0.39017276701E+02  0.70574550909E+01  0.40000000000E+02  0.47000000000E+01 0. -1.
         -5    1    3    3    0  501  0.23988427323E+01  0.39017276701E+02 -0.70574550909E+01  0.40000000000E+02  0.47000000000E+01 0.  1.
</event>
<event>
 5    1  0.4833967E-001  0.8000000E+02  0.7546771E-02  0.1203772E+00
         11   -1    0    0    0    0  0.00000000000E+00  0.00000000000E+00  0.40000000000E+02  0.40000000000E+02  0.00000000000E+00 0.  1.
        -11   -1    0    0    0    0 -0.00000000000E+00 -0.00000000000E+00 -0.40000000000E+02  0.40000000000E+02  0.00000000000E+00 0. -1.
         23    2    1    2    0    0  0.00000000000E+00  0.00000000000E+00  0.00000000000E+00  0.80000000000E+02  0.80000000000E+02 0.  0.
          5    1    3    3  501    0 -0.27697202062E+02  0.21273163196E+02 -0.18926899524E+02  0.40000000000E+02  0.47000000000E+01 0. -1.
         -5    1    3    3    0  501  0.27697202062E+02 -0.21273163196E+02  0.18926899524E+02  0.40000000000E+02  0.47000000000E+01 0.  1.
</event>
<event>
 5    1  0.4833967E-001  0.8000000E+02  0.7546771E-02  0.1203772E+00
         11   -1    0    0    0    0  0.00000000000E+00  0.00000000000E+00  0.40000000000E+02  0.40000000000E+02  0.00000000000E+00 0.  1.
        -11   -1    0    0    0    0 -0.00000000000E+00 -0.00000000000E+00 -0.40000000000E+02  0.40000000000E+02  0.00000000000E+00 0. -1.
         23    2    1    2    0    0  0.00000000000E+00  0.00000000000E+00  0.00000000000E+00  0.80000000000E+02  0.80000000000E+02 0.  0.
          5    1    3    3  501    0 -0.35390885730E+02  0.47553471648E+00  0.18032445036E+02  0.40000000000E+02  0.47000000000E+01 0. -1.
         -5    1    3    3    0  501  0.35390885730E+02 -0.47553471648E+00 -0.18032445036E+02  0.40000000000E+02  0.47000000000E+01 0.  1.
</event>
<event>
 5    1  0.4833967E-001  0.8000000E+02  0.7546771E-02  0.1203772E+00
         11   -1    0    0    0    0  0.00000000000E+00  0.00000000000E+00  0.40000000000E+02  0.40000000000E+02  0.00000000000E+00 0. -1.
        -11   -1    0    0    0    0 -0.00000000000E+00 -0.00000000000E+00 -0.40000000000E+02  0.40000000000E+02  0.00000000000E+00 0.  1.
         23    2    1    2    0    0  0.00000000000E+00  0.00000000000E+00  0.00000000000E+00  0.80000000000E+02  0.80000000000E+02 0.  0.
          5    1    3    3  501    0  0.97273410365E+01 -0.22470933604E+02  0.31278522652E+02  0.40000000000E+02  0.47000000000E+01 0. -1.
         -5    1    3    3    0  501 -0.97273410365E+01  0.22470933604E+02 -0.31278522652E+02  0.40000000000E+02  0.47000000000E+01 0.  1.
</event>
<event>
 5    1  0.4833967E-001  0.8000000E+02  0.7546771E-02  0.1203772E+00
         11   -1    0    0    0    0  0.00000000000E+00  0.00000000000E+00  0.40000000000E+02  0.40000000000E+02  0.00000000000E+00 0.  1.
        -11   -1    0    0    0    0 -0.00000000000E+00 -0.00000000000E+00 -0.40000000000E+02  0.40000000000E+02  0.00000000000E+00 0. -1.
         23    2    1    2    0    0  0.00000000000E+00  0.00000000000E+00  0.00000000000E+00  0.80000000000E+02  0.80000000000E+02 0.  0.
          5    1    3    3  501    0  0.23009008456E+02 -0.30214629094E+02 -0.11643526898E+02  0.40000000000E+02  0.47000000000E+01 0. -1.
         -5    1    3    3    0  501 -0.23009008456E+02  0.30214629094E+02  0.11643526898E+02  0.40000000000E+02  0.47000000000E+01 0.  1.
</event>
<event>
 5    1  0.4833967E-001  0.8000000E+02  0.7546771E-02  0.1203772E+00
         11   -1    0    0    0    0  0.00000000000E+00  0.00000000000E+00  0.40000000000E+02  0.40000000000E+02  0.00000000000E+00 0.  1.
        -11   -1    0    0    0    0 -0.00000000000E+00 -0.00000000000E+00 -0.40000000000E+02  0.40000000000E+02  0.00000000000E+00 0. -1.
         23    2    1    2    0    0  0.00000000000E+00  0.00000000000E+00  0.00000000000E+00  0.80000000000E+02  0.80000000000E+02 0.  0.
          5    1    3    3  501    0 -0.15159334326E+02 -0.28541185235E+01 -0.36605444817E+02  0.40000000000E+02  0.47000000000E+01 0. -1.
         -5    1    3    3    0  501  0.15159334326E+02  0.28541185235E+01  0.36605444817E+02  0.40000000000E+02  0.47000000000E+01 0.  1.
</event>
<event>
 5    1  0.4833967E-001  0.8000000E+02  0.7546771E-02  0.1203772E+00
         11   -1    0    0    0    0  0.00000000000E+00  0.00000000000E+00  0.40000000000E+02  0.40000000000E+02  0.00000000000E+00 0.  1.
        -11   -1    0    0    0    0 -0.00000000000E+00 -0.00000000000E+00 -0.40000000000E+02  0.40000000000E+02  0.00000000000E+00 0. -1.
         23    2    1    2    0    0  0.00000000000E+00  0.00000000000E+00  0.00000000000E+00  0.80000000000E+02  0.80000000000E+02 0.  0.
          5    1    3    3  501    0 -0.19688595720E+02 -0.21064080695E+01 -0.34435915025E+02  0.40000000000E+02  0.47000000000E+01 0. -1.
         -5    1    3    3    0  501  0.19688595720E+02  0.21064080695E+01  0.34435915025E+02  0.40000000000E+02  0.47000000000E+01 0.  1.
</event>
<event>
 5    1  0.4833967E-001  0.8000000E+02  0.7546771E-02  0.1203772E+00
         11   -1    0    0    0    0  0.00000000000E+00  0.00000000000E+00  0.40000000000E+02  0.40000000000E+02  0.00000000000E+00 0. -1.
        -11   -1    0    0    0    0 -0.00000000000E+00 -0.00000000000E+00 -0.40000000000E+02  0.40000000000E+02  0.00000000000E+00 0.  1.
         23    2    1    2    0    0  0.00000000000E+00  0.00000000000E+00  0.00000000000E+00  0.80000000000E+02  0.80000000000E+02 0.  0.
          5    1    3    3  501    0  0.12101141099E+02 -0.25017214337E+02  0.28383293870E+02  0.40000000000E+02  0.47000000000E+01 0. -1.
         -5    1    3    3    0  501 -0.12101141099E+02  0.25017214337E+02 -0.28383293870E+02  0.40000000000E+02  0.47000000000E+01 0.  1.
</event>
<event>
 5    1  0.4833967E-001  0.8000000E+02  0.7546771E-02  0.1203772E+00
         11   -1    0    0    0    0  0.00000000000E+00  0.00000000000E+00  0.40000000000E+02  0.40000000000E+02  0.00000000000E+00 0. -1.
        -11   -1    0    0    0    0 -0.00000000000E+00 -0.00000000000E+00 -0.40000000000E+02  0.40000000000E+02  0.00000000000E+00 0.  1.
         23    2    1    2    0    0  0.00000000000E+00  0.00000000000E+00  0.00000000000E+00  0.80000000000E+02  0.80000000000E+02 0.  0.
          5    1    3    3  501    0  0.16050664697E+02  0.36003764937E+02 -0.49005176391E+01  0.40000000000E+02  0.47000000000E+01 0.  1.
         -5    1    3    3    0  501 -0.16050664697E+02 -0.36003764937E+02  0.49005176391E+01  0.40000000000E+02  0.47000000000E+01 0. -1.
</event>
<event>
 5    1  0.4833967E-001  0.8000000E+02  0.7546771E-02  0.1203772E+00
         11   -1    0    0    0    0  0.00000000000E+00  0.00000000000E+00  0.40000000000E+02  0.40000000000E+02  0.00000000000E+00 0. -1.
        -11   -1    0    0    0    0 -0.00000000000E+00 -0.00000000000E+00 -0.40000000000E+02  0.40000000000E+02  0.00000000000E+00 0.  1.
         23    2    1    2    0    0  0.00000000000E+00  0.00000000000E+00  0.00000000000E+00  0.80000000000E+02  0.80000000000E+02 0.  0.
          5    1    3    3  501    0  0.15675486447E+02  0.36214903849E+02  0.45464121943E+01  0.40000000000E+02  0.47000000000E+01 0. -1.
         -5    1    3    3    0  501 -0.15675486447E+02 -0.36214903849E+02 -0.45464121943E+01  0.40000000000E+02  0.47000000000E+01 0.  1.
</event>
<event>
 5    1  0.4833967E-001  0.8000000E+02  0.7546771E-02  0.1203772E+00
         11   -1    0    0    0    0  0.00000000000E+00  0.00000000000E+00  0.40000000000E+02  0.40000000000E+02  0.00000000000E+00 0.  1.
        -11   -1    0    0    0    0 -0.00000000000E+00 -0.00000000000E+00 -0.40000000000E+02  0.40000000000E+02  0.00000000000E+00 0. -1.
         23    2    1    2    0    0  0.00000000000E+00  0.00000000000E+00  0.00000000000E+00  0.80000000000E+02  0.80000000000E+02 0.  0.
          5    1    3    3  501    0  0.12990223884E+01 -0.29087962249E+02 -0.27020603121E+02  0.40000000000E+02  0.47000000000E+01 0. -1.
         -5    1    3    3    0  501 -0.12990223884E+01  0.29087962249E+02  0.27020603121E+02  0.40000000000E+02  0.47000000000E+01 0.  1.
</event>
<event>
 5    1  0.4833967E-001  0.8000000E+02  0.7546771E-02  0.1203772E+00
         11   -1    0    0    0    0  0.00000000000E+00  0.00000000000E+00  0.40000000000E+02  0.40000000000E+02  0.00000000000E+00 0. -1.
        -11   -1    0    0    0    0 -0.00000000000E+00 -0.00000000000E+00 -0.40000000000E+02  0.40000000000E+02  0.00000000000E+00 0.  1.
         23    2    1    2    0    0  0.00000000000E+00  0.00000000000E+00  0.00000000000E+00  0.80000000000E+02  0.80000000000E+02 0.  0.
          5    1    3    3  501    0 -0.24603735980E+02 -0.26843094586E+02  0.15874962957E+02  0.40000000000E+02  0.47000000000E+01 0. -1.
         -5    1    3    3    0  501  0.24603735980E+02  0.26843094586E+02 -0.15874962957E+02  0.40000000000E+02  0.47000000000E+01 0.  1.
</event>
<event>
 5    1  0.4833967E-001  0.8000000E+02  0.7546771E-02  0.1203772E+00
         11   -1    0    0    0    0  0.00000000000E+00  0.00000000000E+00  0.40000000000E+02  0.40000000000E+02  0.00000000000E+00 0.  1.
        -11   -1    0    0    0    0 -0.00000000000E+00 -0.00000000000E+00 -0.40000000000E+02  0.40000000000E+02  0.00000000000E+00 0. -1.
         23    2    1    2    0    0  0.00000000000E+00  0.00000000000E+00  0.00000000000E+00  0.80000000000E+02  0.80000000000E+02 0.  0.
          5    1    3    3  501    0 -0.23565105633E+02  0.22493007969E+02 -0.22730164738E+02  0.40000000000E+02  0.47000000000E+01 0. -1.
         -5    1    3    3    0  501  0.23565105633E+02 -0.22493007969E+02  0.22730164738E+02  0.40000000000E+02  0.47000000000E+01 0.  1.
</event>
<event>
 5    1  0.4833967E-001  0.8000000E+02  0.7546771E-02  0.1203772E+00
         11   -1    0    0    0    0  0.00000000000E+00  0.00000000000E+00  0.40000000000E+02  0.40000000000E+02  0.00000000000E+00 0.  1.
        -11   -1    0    0    0    0 -0.00000000000E+00 -0.00000000000E+00 -0.40000000000E+02  0.40000000000E+02  0.00000000000E+00 0. -1.
         23    2    1    2    0    0  0.00000000000E+00  0.00000000000E+00  0.00000000000E+00  0.80000000000E+02  0.80000000000E+02 0.  0.
          5    1    3    3  501    0 -0.19583328307E+02  0.31022986236E+02 -0.15230810136E+02  0.40000000000E+02  0.47000000000E+01 0. -1.
         -5    1    3    3    0  501  0.19583328307E+02 -0.31022986236E+02  0.15230810136E+02  0.40000000000E+02  0.47000000000E+01 0.  1.
</event>
<event>
 5    1  0.4833967E-001  0.8000000E+02  0.7546771E-02  0.1203772E+00
         11   -1    0    0    0    0  0.00000000000E+00  0.00000000000E+00  0.40000000000E+02  0.40000000000E+02  0.00000000000E+00 0. -1.
        -11   -1    0    0    0    0 -0.00000000000E+00 -0.00000000000E+00 -0.40000000000E+02  0.40000000000E+02  0.00000000000E+00 0.  1.
         23    2    1    2    0    0  0.00000000000E+00  0.00000000000E+00  0.00000000000E+00  0.80000000000E+02  0.80000000000E+02 0.  0.
          5    1    3    3  501    0 -0.21698442502E+02  0.10399917117E+02  0.31605843082E+02  0.40000000000E+02  0.47000000000E+01 0. -1.
         -5    1    3    3    0  501  0.21698442502E+02 -0.10399917117E+02 -0.31605843082E+02  0.40000000000E+02  0.47000000000E+01 0.  1.
</event>
<event>
 5    1  0.4833967E-001  0.8000000E+02  0.7546771E-02  0.1203772E+00
         11   -1    0    0    0    0  0.00000000000E+00  0.00000000000E+00  0.40000000000E+02  0.40000000000E+02  0.00000000000E+00 0. -1.
        -11   -1    0    0    0    0 -0.00000000000E+00 -0.00000000000E+00 -0.40000000000E+02  0.40000000000E+02  0.00000000000E+00 0.  1.
         23    2    1    2    0    0  0.00000000000E+00  0.00000000000E+00  0.00000000000E+00  0.80000000000E+02  0.80000000000E+02 0.  0.
          5    1    3    3  501    0  0.31606247427E+01  0.20600127241E+02  0.33816493149E+02  0.40000000000E+02  0.47000000000E+01 0. -1.
         -5    1    3    3    0  501 -0.31606247427E+01 -0.20600127241E+02 -0.33816493149E+02  0.40000000000E+02  0.47000000000E+01 0.  1.
</event>
<event>
 5    1  0.4833967E-001  0.8000000E+02  0.7546771E-02  0.1203772E+00
         11   -1    0    0    0    0  0.00000000000E+00  0.00000000000E+00  0.40000000000E+02  0.40000000000E+02  0.00000000000E+00 0. -1.
        -11   -1    0    0    0    0 -0.00000000000E+00 -0.00000000000E+00 -0.40000000000E+02  0.40000000000E+02  0.00000000000E+00 0.  1.
         23    2    1    2    0    0  0.00000000000E+00  0.00000000000E+00  0.00000000000E+00  0.80000000000E+02  0.80000000000E+02 0.  0.
          5    1    3    3  501    0  0.14146422364E+02 -0.12697790298E+01  0.37096851558E+02  0.40000000000E+02  0.47000000000E+01 0. -1.
         -5    1    3    3    0  501 -0.14146422364E+02  0.12697790298E+01 -0.37096851558E+02  0.40000000000E+02  0.47000000000E+01 0.  1.
</event>
<event>
 5    1  0.4833967E-001  0.8000000E+02  0.7546771E-02  0.1203772E+00
         11   -1    0    0    0    0  0.00000000000E+00  0.00000000000E+00  0.40000000000E+02  0.40000000000E+02  0.00000000000E+00 0.  1.
        -11   -1    0    0    0    0 -0.00000000000E+00 -0.00000000000E+00 -0.40000000000E+02  0.40000000000E+02  0.00000000000E+00 0. -1.
         23    2    1    2    0    0  0.00000000000E+00  0.00000000000E+00  0.00000000000E+00  0.80000000000E+02  0.80000000000E+02 0.  0.
          5    1    3    3  501    0  0.21598019694E+02  0.14796860227E+01 -0.33305346036E+02  0.40000000000E+02  0.47000000000E+01 0. -1.
         -5    1    3    3    0  501 -0.21598019694E+02 -0.14796860227E+01  0.33305346036E+02  0.40000000000E+02  0.47000000000E+01 0.  1.
</event>
<event>
 5    1  0.4833967E-001  0.8000000E+02  0.7546771E-02  0.1203772E+00
         11   -1    0    0    0    0  0.00000000000E+00  0.00000000000E+00  0.40000000000E+02  0.40000000000E+02  0.00000000000E+00 0. -1.
        -11   -1    0    0    0    0 -0.00000000000E+00 -0.00000000000E+00 -0.40000000000E+02  0.40000000000E+02  0.00000000000E+00 0.  1.
         23    2    1    2    0    0  0.00000000000E+00  0.00000000000E+00  0.00000000000E+00  0.80000000000E+02  0.80000000000E+02 0.  0.
          5    1    3    3  501    0  0.14780703963E+02  0.18145188194E+02  0.32096618759E+02  0.40000000000E+02  0.47000000000E+01 0. -1.
         -5    1    3    3    0  501 -0.14780703963E+02 -0.18145188194E+02 -0.32096618759E+02  0.40000000000E+02  0.47000000000E+01 0.  1.
</event>
<event>
 5    1  0.4833967E-001  0.8000000E+02  0.7546771E-02  0.1203772E+00
         11   -1    0    0    0    0  0.00000000000E+00  0.00000000000E+00  0.40000000000E+02  0.40000000000E+02  0.00000000000E+00 0.  1.
        -11   -1    0    0    0    0 -0.00000000000E+00 -0.00000000000E+00 -0.40000000000E+02  0.40000000000E+02  0.00000000000E+00 0. -1.
         23    2    1    2    0    0  0.00000000000E+00  0.00000000000E+00  0.00000000000E+00  0.80000000000E+02  0.80000000000E+02 0.  0.
          5    1    3    3  501    0  0.30497226279E+02 -0.19794068746E+02 -0.16000750974E+02  0.40000000000E+02  0.47000000000E+01 0. -1.
         -5    1    3    3    0  501 -0.30497226279E+02  0.19794068746E+02  0.16000750974E+02  0.40000000000E+02  0.47000000000E+01 0.  1.
</event>
<event>
 5    1  0.4833967E-001  0.8000000E+02  0.7546771E-02  0.1203772E+00
         11   -1    0    0    0    0  0.00000000000E+00  0.00000000000E+00  0.40000000000E+02  0.40000000000E+02  0.00000000000E+00 0.  1.
        -11   -1    0    0    0    0 -0.00000000000E+00 -0.00000000000E+00 -0.40000000000E+02  0.40000000000E+02  0.00000000000E+00 0. -1.
         23    2    1    2    0    0  0.00000000000E+00  0.00000000000E+00  0.00000000000E+00  0.80000000000E+02  0.80000000000E+02 0.  0.
          5    1    3    3  501    0  0.12091603547E+02 -0.59279687556E+01 -0.37370607569E+02  0.40000000000E+02  0.47000000000E+01 0. -1.
         -5    1    3    3    0  501 -0.12091603547E+02  0.59279687556E+01  0.37370607569E+02  0.40000000000E+02  0.47000000000E+01 0.  1.
</event>
<event>
 5    1  0.4833967E-001  0.8000000E+02  0.7546771E-02  0.1203772E+00
         11   -1    0    0    0    0  0.00000000000E+00  0.00000000000E+00  0.40000000000E+02  0.40000000000E+02  0.00000000000E+00 0. -1.
        -11   -1    0    0    0    0 -0.00000000000E+00 -0.00000000000E+00 -0.40000000000E+02  0.40000000000E+02  0.00000000000E+00 0.  1.
         23    2    1    2    0    0  0.00000000000E+00  0.00000000000E+00  0.00000000000E+00  0.80000000000E+02  0.80000000000E+02 0.  0.
          5    1    3    3  501    0  0.11900846159E+02  0.47830779833E+01  0.37595239402E+02  0.40000000000E+02  0.47000000000E+01 0. -1.
         -5    1    3    3    0  501 -0.11900846159E+02 -0.47830779833E+01 -0.37595239402E+02  0.40000000000E+02  0.47000000000E+01 0.  1.
</event>
<event>
 5    1  0.4833967E-001  0.8000000E+02  0.7546771E-02  0.1203772E+00
         11   -1    0    0    0    0  0.00000000000E+00  0.00000000000E+00  0.40000000000E+02  0.40000000000E+02  0.00000000000E+00 0.  1.
        -11   -1    0    0    0    0 -0.00000000000E+00 -0.00000000000E+00 -0.40000000000E+02  0.40000000000E+02  0.00000000000E+00 0. -1.
         23    2    1    2    0    0  0.00000000000E+00  0.00000000000E+00  0.00000000000E+00  0.80000000000E+02  0.80000000000E+02 0.  0.
          5    1    3    3  501    0 -0.18666530909E+02  0.61972735930E+01 -0.34511801226E+02  0.40000000000E+02  0.47000000000E+01 0. -1.
         -5    1    3    3    0  501  0.18666530909E+02 -0.61972735930E+01  0.34511801226E+02  0.40000000000E+02  0.47000000000E+01 0.  1.
</event>
<event>
 5    1  0.4833967E-001  0.8000000E+02  0.7546771E-02  0.1203772E+00
         11   -1    0    0    0    0  0.00000000000E+00  0.00000000000E+00  0.40000000000E+02  0.40000000000E+02  0.00000000000E+00 0.  1.
        -11   -1    0    0    0    0 -0.00000000000E+00 -0.00000000000E+00 -0.40000000000E+02  0.40000000000E+02  0.00000000000E+00 0. -1.
         23    2    1    2    0    0  0.00000000000E+00  0.00000000000E+00  0.00000000000E+00  0.80000000000E+02  0.80000000000E+02 0.  0.
          5    1    3    3  501    0  0.35200584413E+02  0.14695480174E+02 -0.11084751665E+02  0.40000000000E+02  0.47000000000E+01 0. -1.
         -5    1    3    3    0  501 -0.35200584413E+02 -0.14695480174E+02  0.11084751665E+02  0.40000000000E+02  0.47000000000E+01 0.  1.
</event>
<event>
 5    1  0.4833967E-001  0.8000000E+02  0.7546771E-02  0.1203772E+00
         11   -1    0    0    0    0  0.00000000000E+00  0.00000000000E+00  0.40000000000E+02  0.40000000000E+02  0.00000000000E+00 0. -1.
        -11   -1    0    0    0    0 -0.00000000000E+00 -0.00000000000E+00 -0.40000000000E+02  0.40000000000E+02  0.00000000000E+00 0.  1.
         23    2    1    2    0    0  0.00000000000E+00  0.00000000000E+00  0.00000000000E+00  0.80000000000E+02  0.80000000000E+02 0.  0.
          5    1    3    3  501    0 -0.11665567426E+02 -0.33585825338E+02  0.17714877166E+02  0.40000000000E+02  0.47000000000E+01 0. -1.
         -5    1    3    3    0  501  0.11665567426E+02  0.33585825338E+02 -0.17714877166E+02  0.40000000000E+02  0.47000000000E+01 0.  1.
</event>
<event>
 5    1  0.4833967E-001  0.8000000E+02  0.7546771E-02  0.1203772E+00
         11   -1    0    0    0    0  0.00000000000E+00  0.00000000000E+00  0.40000000000E+02  0.40000000000E+02  0.00000000000E+00 0.  1.
        -11   -1    0    0    0    0 -0.00000000000E+00 -0.00000000000E+00 -0.40000000000E+02  0.40000000000E+02  0.00000000000E+00 0. -1.
         23    2    1    2    0    0  0.00000000000E+00  0.00000000000E+00  0.00000000000E+00  0.80000000000E+02  0.80000000000E+02 0.  0.
          5    1    3    3  501    0 -0.17203914478E+02  0.48517716160E+01 -0.35473872622E+02  0.40000000000E+02  0.47000000000E+01 0. -1.
         -5    1    3    3    0  501  0.17203914478E+02 -0.48517716160E+01  0.35473872622E+02  0.40000000000E+02  0.47000000000E+01 0.  1.
</event>
<event>
 5    1  0.4833967E-001  0.8000000E+02  0.7546771E-02  0.1203772E+00
         11   -1    0    0    0    0  0.00000000000E+00  0.00000000000E+00  0.40000000000E+02  0.40000000000E+02  0.00000000000E+00 0.  1.
        -11   -1    0    0    0    0 -0.00000000000E+00 -0.00000000000E+00 -0.40000000000E+02  0.40000000000E+02  0.00000000000E+00 0. -1.
         23    2    1    2    0    0  0.00000000000E+00  0.00000000000E+00  0.00000000000E+00  0.80000000000E+02  0.80000000000E+02 0.  0.
          5    1    3    3  501    0  0.73160451711E+01 -0.38775800047E+02 -0.45632021366E+01  0.40000000000E+02  0.47000000000E+01 0. -1.
         -5    1    3    3    0  501 -0.73160451711E+01  0.38775800047E+02  0.45632021366E+01  0.40000000000E+02  0.47000000000E+01 0.  1.
</event>
<event>
 5    1  0.4833967E-001  0.8000000E+02  0.7546771E-02  0.1203772E+00
         11   -1    0    0    0    0  0.00000000000E+00  0.00000000000E+00  0.40000000000E+02  0.40000000000E+02  0.00000000000E+00 0.  1.
        -11   -1    0    0    0    0 -0.00000000000E+00 -0.00000000000E+00 -0.40000000000E+02  0.40000000000E+02  0.00000000000E+00 0. -1.
         23    2    1    2    0    0  0.00000000000E+00  0.00000000000E+00  0.00000000000E+00  0.80000000000E+02  0.80000000000E+02 0.  0.
          5    1    3    3  501    0 -0.30636208103E+02 -0.24908713266E+02  0.43461197059E+01  0.40000000000E+02  0.47000000000E+01 0. -1.
         -5    1    3    3    0  501  0.30636208103E+02  0.24908713266E+02 -0.43461197059E+01  0.40000000000E+02  0.47000000000E+01 0.  1.
</event>
<event>
 5    1  0.4833967E-001  0.8000000E+02  0.7546771E-02  0.1203772E+00
         11   -1    0    0    0    0  0.00000000000E+00  0.00000000000E+00  0.40000000000E+02  0.40000000000E+02  0.00000000000E+00 0.  1.
        -11   -1    0    0    0    0 -0.00000000000E+00 -0.00000000000E+00 -0.40000000000E+02  0.40000000000E+02  0.00000000000E+00 0. -1.
         23    2    1    2    0    0  0.00000000000E+00  0.00000000000E+00  0.00000000000E+00  0.80000000000E+02  0.80000000000E+02 0.  0.
          5    1    3    3  501    0  0.23544903162E+02 -0.35560772254E+01 -0.31794682729E+02  0.40000000000E+02  0.47000000000E+01 0. -1.
         -5    1    3    3    0  501 -0.23544903162E+02  0.35560772254E+01  0.31794682729E+02  0.40000000000E+02  0.47000000000E+01 0.  1.
</event>
<event>
 5    1  0.4833967E-001  0.8000000E+02  0.7546771E-02  0.1203772E+00
         11   -1    0    0    0    0  0.00000000000E+00  0.00000000000E+00  0.40000000000E+02  0.40000000000E+02  0.00000000000E+00 0.  1.
        -11   -1    0    0    0    0 -0.00000000000E+00 -0.00000000000E+00 -0.40000000000E+02  0.40000000000E+02  0.00000000000E+00 0. -1.
         23    2    1    2    0    0  0.00000000000E+00  0.00000000000E+00  0.00000000000E+00  0.80000000000E+02  0.80000000000E+02 0.  0.
          5    1    3    3  501    0  0.36932147182E+02  0.11181819523E+01 -0.14583421193E+02  0.40000000000E+02  0.47000000000E+01 0. -1.
         -5    1    3    3    0  501 -0.36932147182E+02 -0.11181819523E+01  0.14583421193E+02  0.40000000000E+02  0.47000000000E+01 0.  1.
</event>
<event>
 5    1  0.4833967E-001  0.8000000E+02  0.7546771E-02  0.1203772E+00
         11   -1    0    0    0    0  0.00000000000E+00  0.00000000000E+00  0.40000000000E+02  0.40000000000E+02  0.00000000000E+00 0. -1.
        -11   -1    0    0    0    0 -0.00000000000E+00 -0.00000000000E+00 -0.40000000000E+02  0.40000000000E+02  0.00000000000E+00 0.  1.
         23    2    1    2    0    0  0.00000000000E+00  0.00000000000E+00  0.00000000000E+00  0.80000000000E+02  0.80000000000E+02 0.  0.
          5    1    3    3  501    0  0.16346554132E+02 -0.13165513925E+02  0.33724907874E+02  0.40000000000E+02  0.47000000000E+01 0. -1.
         -5    1    3    3    0  501 -0.16346554132E+02  0.13165513925E+02 -0.33724907874E+02  0.40000000000E+02  0.47000000000E+01 0.  1.
</event>
<event>
 5    1  0.4833967E-001  0.8000000E+02  0.7546771E-02  0.1203772E+00
         11   -1    0    0    0    0  0.00000000000E+00  0.00000000000E+00  0.40000000000E+02  0.40000000000E+02  0.00000000000E+00 0.  1.
        -11   -1    0    0    0    0 -0.00000000000E+00 -0.00000000000E+00 -0.40000000000E+02  0.40000000000E+02  0.00000000000E+00 0. -1.
         23    2    1    2    0    0  0.00000000000E+00  0.00000000000E+00  0.00000000000E+00  0.80000000000E+02  0.80000000000E+02 0.  0.
          5    1    3    3  501    0 -0.10299968267E+02  0.19387866575E+00 -0.38363824950E+02  0.40000000000E+02  0.47000000000E+01 0. -1.
         -5    1    3    3    0  501  0.10299968267E+02 -0.19387866575E+00  0.38363824950E+02  0.40000000000E+02  0.47000000000E+01 0.  1.
</event>
<event>
 5    1  0.4833967E-001  0.8000000E+02  0.7546771E-02  0.1203772E+00
         11   -1    0    0    0    0  0.00000000000E+00  0.00000000000E+00  0.40000000000E+02  0.40000000000E+02  0.00000000000E+00 0.  1.
        -11   -1    0    0    0    0 -0.00000000000E+00 -0.00000000000E+00 -0.40000000000E+02  0.40000000000E+02  0.00000000000E+00 0. -1.
         23    2    1    2    0    0  0.00000000000E+00  0.00000000000E+00  0.00000000000E+00  0.80000000000E+02  0.80000000000E+02 0.  0.
          5    1    3    3  501    0 -0.24503832152E+02 -0.82246551068E+01 -0.30163342955E+02  0.40000000000E+02  0.47000000000E+01 0. -1.
         -5    1    3    3    0  501  0.24503832152E+02  0.82246551068E+01  0.30163342955E+02  0.40000000000E+02  0.47000000000E+01 0.  1.
</event>
<event>
 5    1  0.4833967E-001  0.8000000E+02  0.7546771E-02  0.1203772E+00
         11   -1    0    0    0    0  0.00000000000E+00  0.00000000000E+00  0.40000000000E+02  0.40000000000E+02  0.00000000000E+00 0. -1.
        -11   -1    0    0    0    0 -0.00000000000E+00 -0.00000000000E+00 -0.40000000000E+02  0.40000000000E+02  0.00000000000E+00 0.  1.
         23    2    1    2    0    0  0.00000000000E+00  0.00000000000E+00  0.00000000000E+00  0.80000000000E+02  0.80000000000E+02 0.  0.
          5    1    3    3  501    0 -0.34941782940E+01 -0.31546952785E+01  0.39442979296E+02  0.40000000000E+02  0.47000000000E+01 0. -1.
         -5    1    3    3    0  501  0.34941782940E+01  0.31546952785E+01 -0.39442979296E+02  0.40000000000E+02  0.47000000000E+01 0.  1.
</event>
<event>
 5    1  0.4833967E-001  0.8000000E+02  0.7546771E-02  0.1203772E+00
         11   -1    0    0    0    0  0.00000000000E+00  0.00000000000E+00  0.40000000000E+02  0.40000000000E+02  0.00000000000E+00 0.  1.
        -11   -1    0    0    0    0 -0.00000000000E+00 -0.00000000000E+00 -0.40000000000E+02  0.40000000000E+02  0.00000000000E+00 0. -1.
         23    2    1    2    0    0  0.00000000000E+00  0.00000000000E+00  0.00000000000E+00  0.80000000000E+02  0.80000000000E+02 0.  0.
          5    1    3    3  501    0  0.35653601554E+02  0.17446555698E+02 -0.15324459309E+01  0.40000000000E+02  0.47000000000E+01 0. -1.
         -5    1    3    3    0  501 -0.35653601554E+02 -0.17446555698E+02  0.15324459309E+01  0.40000000000E+02  0.47000000000E+01 0.  1.
</event>
<event>
 5    1  0.4833967E-001  0.8000000E+02  0.7546771E-02  0.1203772E+00
         11   -1    0    0    0    0  0.00000000000E+00  0.00000000000E+00  0.40000000000E+02  0.40000000000E+02  0.00000000000E+00 0.  1.
        -11   -1    0    0    0    0 -0.00000000000E+00 -0.00000000000E+00 -0.40000000000E+02  0.40000000000E+02  0.00000000000E+00 0. -1.
         23    2    1    2    0    0  0.00000000000E+00  0.00000000000E+00  0.00000000000E+00  0.80000000000E+02  0.80000000000E+02 0.  0.
          5    1    3    3  501    0  0.18572960917E+02  0.57738221043E+01 -0.34635503476E+02  0.40000000000E+02  0.47000000000E+01 0. -1.
         -5    1    3    3    0  501 -0.18572960917E+02 -0.57738221043E+01  0.34635503476E+02  0.40000000000E+02  0.47000000000E+01 0.  1.
</event>
<event>
 5    1  0.4833967E-001  0.8000000E+02  0.7546771E-02  0.1203772E+00
         11   -1    0    0    0    0  0.00000000000E+00  0.00000000000E+00  0.40000000000E+02  0.40000000000E+02  0.00000000000E+00 0.  1.
        -11   -1    0    0    0    0 -0.00000000000E+00 -0.00000000000E+00 -0.40000000000E+02  0.40000000000E+02  0.00000000000E+00 0. -1.
         23    2    1    2    0    0  0.00000000000E+00  0.00000000000E+00  0.00000000000E+00  0.80000000000E+02  0.80000000000E+02 0.  0.
          5    1    3    3  501    0  0.18450113565E+02  0.26156758392E+02 -0.23522910106E+02  0.40000000000E+02  0.47000000000E+01 0. -1.
         -5    1    3    3    0  501 -0.18450113565E+02 -0.26156758392E+02  0.23522910106E+02  0.40000000000E+02  0.47000000000E+01 0.  1.
</event>
<event>
 5    1  0.4833967E-001  0.8000000E+02  0.7546771E-02  0.1203772E+00
         11   -1    0    0    0    0  0.00000000000E+00  0.00000000000E+00  0.40000000000E+02  0.40000000000E+02  0.00000000000E+00 0.  1.
        -11   -1    0    0    0    0 -0.00000000000E+00 -0.00000000000E+00 -0.40000000000E+02  0.40000000000E+02  0.00000000000E+00 0. -1.
         23    2    1    2    0    0  0.00000000000E+00  0.00000000000E+00  0.00000000000E+00  0.80000000000E+02  0.80000000000E+02 0.  0.
          5    1    3    3  501    0 -0.16743077640E+02  0.31916804591E+01 -0.35880252605E+02  0.40000000000E+02  0.47000000000E+01 0. -1.
         -5    1    3    3    0  501  0.16743077640E+02 -0.31916804591E+01  0.35880252605E+02  0.40000000000E+02  0.47000000000E+01 0.  1.
</event>
<event>
 5    1  0.4833967E-001  0.8000000E+02  0.7546771E-02  0.1203772E+00
         11   -1    0    0    0    0  0.00000000000E+00  0.00000000000E+00  0.40000000000E+02  0.40000000000E+02  0.00000000000E+00 0.  1.
        -11   -1    0    0    0    0 -0.00000000000E+00 -0.00000000000E+00 -0.40000000000E+02  0.40000000000E+02  0.00000000000E+00 0. -1.
         23    2    1    2    0    0  0.00000000000E+00  0.00000000000E+00  0.00000000000E+00  0.80000000000E+02  0.80000000000E+02 0.  0.
          5    1    3    3  501    0  0.33638775211E+02  0.47621417088E+00 -0.21121458813E+02  0.40000000000E+02  0.47000000000E+01 0. -1.
         -5    1    3    3    0  501 -0.33638775211E+02 -0.47621417088E+00  0.21121458813E+02  0.40000000000E+02  0.47000000000E+01 0.  1.
</event>
<event>
 5    1  0.4833967E-001  0.8000000E+02  0.7546771E-02  0.1203772E+00
         11   -1    0    0    0    0  0.00000000000E+00  0.00000000000E+00  0.40000000000E+02  0.40000000000E+02  0.00000000000E+00 0. -1.
        -11   -1    0    0    0    0 -0.00000000000E+00 -0.00000000000E+00 -0.40000000000E+02  0.40000000000E+02  0.00000000000E+00 0.  1.
         23    2    1    2    0    0  0.00000000000E+00  0.00000000000E+00  0.00000000000E+00  0.80000000000E+02  0.80000000000E+02 0.  0.
          5    1    3    3  501    0 -0.32360885748E+02 -0.17486082891E+01 -0.22970098881E+02  0.40000000000E+02  0.47000000000E+01 0. -1.
         -5    1    3    3    0  501  0.32360885748E+02  0.17486082891E+01  0.22970098881E+02  0.40000000000E+02  0.47000000000E+01 0.  1.
</event>
<event>
 5    1  0.4833967E-001  0.8000000E+02  0.7546771E-02  0.1203772E+00
         11   -1    0    0    0    0  0.00000000000E+00  0.00000000000E+00  0.40000000000E+02  0.40000000000E+02  0.00000000000E+00 0.  1.
        -11   -1    0    0    0    0 -0.00000000000E+00 -0.00000000000E+00 -0.40000000000E+02  0.40000000000E+02  0.00000000000E+00 0. -1.
         23    2    1    2    0    0  0.00000000000E+00  0.00000000000E+00  0.00000000000E+00  0.80000000000E+02  0.80000000000E+02 0.  0.
          5    1    3    3  501    0  0.31882277470E+02  0.15488207030E+02  0.17931698926E+02  0.40000000000E+02  0.47000000000E+01 0. -1.
         -5    1    3    3    0  501 -0.31882277470E+02 -0.15488207030E+02 -0.17931698926E+02  0.40000000000E+02  0.47000000000E+01 0.  1.
</event>
<event>
 5    1  0.4833967E-001  0.8000000E+02  0.7546771E-02  0.1203772E+00
         11   -1    0    0    0    0  0.00000000000E+00  0.00000000000E+00  0.40000000000E+02  0.40000000000E+02  0.00000000000E+00 0.  1.
        -11   -1    0    0    0    0 -0.00000000000E+00 -0.00000000000E+00 -0.40000000000E+02  0.40000000000E+02  0.00000000000E+00 0. -1.
         23    2    1    2    0    0  0.00000000000E+00  0.00000000000E+00  0.00000000000E+00  0.80000000000E+02  0.80000000000E+02 0.  0.
          5    1    3    3  501    0 -0.18461700140E+02 -0.32700724715E+02 -0.12951379505E+02  0.40000000000E+02  0.47000000000E+01 0. -1.
         -5    1    3    3    0  501  0.18461700140E+02  0.32700724715E+02  0.12951379505E+02  0.40000000000E+02  0.47000000000E+01 0.  1.
</event>
<event>
 5    1  0.4833967E-001  0.8000000E+02  0.7546771E-02  0.1203772E+00
         11   -1    0    0    0    0  0.00000000000E+00  0.00000000000E+00  0.40000000000E+02  0.40000000000E+02  0.00000000000E+00 0.  1.
        -11   -1    0    0    0    0 -0.00000000000E+00 -0.00000000000E+00 -0.40000000000E+02  0.40000000000E+02  0.00000000000E+00 0. -1.
         23    2    1    2    0    0  0.00000000000E+00  0.00000000000E+00  0.00000000000E+00  0.80000000000E+02  0.80000000000E+02 0.  0.
          5    1    3    3  501    0 -0.28453577742E+02 -0.20499664056E+02 -0.18656572228E+02  0.40000000000E+02  0.47000000000E+01 0. -1.
         -5    1    3    3    0  501  0.28453577742E+02  0.20499664056E+02  0.18656572228E+02  0.40000000000E+02  0.47000000000E+01 0.  1.
</event>
<event>
 5    1  0.4833967E-001  0.8000000E+02  0.7546771E-02  0.1203772E+00
         11   -1    0    0    0    0  0.00000000000E+00  0.00000000000E+00  0.40000000000E+02  0.40000000000E+02  0.00000000000E+00 0. -1.
        -11   -1    0    0    0    0 -0.00000000000E+00 -0.00000000000E+00 -0.40000000000E+02  0.40000000000E+02  0.00000000000E+00 0.  1.
         23    2    1    2    0    0  0.00000000000E+00  0.00000000000E+00  0.00000000000E+00  0.80000000000E+02  0.80000000000E+02 0.  0.
          5    1    3    3  501    0 -0.29458392582E+02 -0.24581518055E+02  0.10288929810E+02  0.40000000000E+02  0.47000000000E+01 0. -1.
         -5    1    3    3    0  501  0.29458392582E+02  0.24581518055E+02 -0.10288929810E+02  0.40000000000E+02  0.47000000000E+01 0.  1.
</event>
<event>
 5    1  0.4833967E-001  0.8000000E+02  0.7546771E-02  0.1203772E+00
         11   -1    0    0    0    0  0.00000000000E+00  0.00000000000E+00  0.40000000000E+02  0.40000000000E+02  0.00000000000E+00 0. -1.
        -11   -1    0    0    0    0 -0.00000000000E+00 -0.00000000000E+00 -0.40000000000E+02  0.40000000000E+02  0.00000000000E+00 0.  1.
         23    2    1    2    0    0  0.00000000000E+00  0.00000000000E+00  0.00000000000E+00  0.80000000000E+02  0.80000000000E+02 0.  0.
          5    1    3    3  501    0  0.33946605773E+02 -0.19230258453E+02  0.74655955106E+01  0.40000000000E+02  0.47000000000E+01 0. -1.
         -5    1    3    3    0  501 -0.33946605773E+02  0.19230258453E+02 -0.74655955106E+01  0.40000000000E+02  0.47000000000E+01 0.  1.
</event>
<event>
 5    1  0.4833967E-001  0.8000000E+02  0.7546771E-02  0.1203772E+00
         11   -1    0    0    0    0  0.00000000000E+00  0.00000000000E+00  0.40000000000E+02  0.40000000000E+02  0.00000000000E+00 0. -1.
        -11   -1    0    0    0    0 -0.00000000000E+00 -0.00000000000E+00 -0.40000000000E+02  0.40000000000E+02  0.00000000000E+00 0.  1.
         23    2    1    2    0    0  0.00000000000E+00  0.00000000000E+00  0.00000000000E+00  0.80000000000E+02  0.80000000000E+02 0.  0.
          5    1    3    3  501    0 -0.22147500399E+02  0.79986352493E+01  0.31990937157E+02  0.40000000000E+02  0.47000000000E+01 0. -1.
         -5    1    3    3    0  501  0.22147500399E+02 -0.79986352493E+01 -0.31990937157E+02  0.40000000000E+02  0.47000000000E+01 0.  1.
</event>
<event>
 5    1  0.4833967E-001  0.8000000E+02  0.7546771E-02  0.1203772E+00
         11   -1    0    0    0    0  0.00000000000E+00  0.00000000000E+00  0.40000000000E+02  0.40000000000E+02  0.00000000000E+00 0.  1.
        -11   -1    0    0    0    0 -0.00000000000E+00 -0.00000000000E+00 -0.40000000000E+02  0.40000000000E+02  0.00000000000E+00 0. -1.
         23    2    1    2    0    0  0.00000000000E+00  0.00000000000E+00  0.00000000000E+00  0.80000000000E+02  0.80000000000E+02 0.  0.
          5    1    3    3  501    0  0.14274006290E+02 -0.30701113208E+02 -0.20775090666E+02  0.40000000000E+02  0.47000000000E+01 0. -1.
         -5    1    3    3    0  501 -0.14274006290E+02  0.30701113208E+02  0.20775090666E+02  0.40000000000E+02  0.47000000000E+01 0.  1.
</event>
<event>
 5    1  0.4833967E-001  0.8000000E+02  0.7546771E-02  0.1203772E+00
         11   -1    0    0    0    0  0.00000000000E+00  0.00000000000E+00  0.40000000000E+02  0.40000000000E+02  0.00000000000E+00 0. -1.
        -11   -1    0    0    0    0 -0.00000000000E+00 -0.00000000000E+00 -0.40000000000E+02  0.40000000000E+02  0.00000000000E+00 0.  1.
         23    2    1    2    0    0  0.00000000000E+00  0.00000000000E+00  0.00000000000E+00  0.80000000000E+02  0.80000000000E+02 0.  0.
          5    1    3    3  501    0 -0.19915445621E+02  0.27410214445E+02  0.20735601506E+02  0.40000000000E+02  0.47000000000E+01 0. -1.
         -5    1    3    3    0  501  0.19915445621E+02 -0.27410214445E+02 -0.20735601506E+02  0.40000000000E+02  0.47000000000E+01 0.  1.
</event>
<event>
 5    1  0.4833967E-001  0.8000000E+02  0.7546771E-02  0.1203772E+00
         11   -1    0    0    0    0  0.00000000000E+00  0.00000000000E+00  0.40000000000E+02  0.40000000000E+02  0.00000000000E+00 0.  1.
        -11   -1    0    0    0    0 -0.00000000000E+00 -0.00000000000E+00 -0.40000000000E+02  0.40000000000E+02  0.00000000000E+00 0. -1.
         23    2    1    2    0    0  0.00000000000E+00  0.00000000000E+00  0.00000000000E+00  0.80000000000E+02  0.80000000000E+02 0.  0.
          5    1    3    3  501    0  0.24969391653E+02 -0.17118998115E+02 -0.25717297370E+02  0.40000000000E+02  0.47000000000E+01 0. -1.
         -5    1    3    3    0  501 -0.24969391653E+02  0.17118998115E+02  0.25717297370E+02  0.40000000000E+02  0.47000000000E+01 0.  1.
</event>
<event>
 5    1  0.4833967E-001  0.8000000E+02  0.7546771E-02  0.1203772E+00
         11   -1    0    0    0    0  0.00000000000E+00  0.00000000000E+00  0.40000000000E+02  0.40000000000E+02  0.00000000000E+00 0.  1.
        -11   -1    0    0    0    0 -0.00000000000E+00 -0.00000000000E+00 -0.40000000000E+02  0.40000000000E+02  0.00000000000E+00 0. -1.
         23    2    1    2    0    0  0.00000000000E+00  0.00000000000E+00  0.00000000000E+00  0.80000000000E+02  0.80000000000E+02 0.  0.
          5    1    3    3  501    0  0.61804422599E+01 -0.12931094745E+02 -0.37047252559E+02  0.40000000000E+02  0.47000000000E+01 0. -1.
         -5    1    3    3    0  501 -0.61804422599E+01  0.12931094745E+02  0.37047252559E+02  0.40000000000E+02  0.47000000000E+01 0.  1.
</event>
<event>
 5    1  0.4833967E-001  0.8000000E+02  0.7546771E-02  0.1203772E+00
         11   -1    0    0    0    0  0.00000000000E+00  0.00000000000E+00  0.40000000000E+02  0.40000000000E+02  0.00000000000E+00 0.  1.
        -11   -1    0    0    0    0 -0.00000000000E+00 -0.00000000000E+00 -0.40000000000E+02  0.40000000000E+02  0.00000000000E+00 0. -1.
         23    2    1    2    0    0  0.00000000000E+00  0.00000000000E+00  0.00000000000E+00  0.80000000000E+02  0.80000000000E+02 0.  0.
          5    1    3    3  501    0 -0.35482274983E+02 -0.11350122195E+02 -0.13787417749E+02  0.40000000000E+02  0.47000000000E+01 0. -1.
         -5    1    3    3    0  501  0.35482274983E+02  0.11350122195E+02  0.13787417749E+02  0.40000000000E+02  0.47000000000E+01 0.  1.
</event>
<event>
 5    1  0.4833967E-001  0.8000000E+02  0.7546771E-02  0.1203772E+00
         11   -1    0    0    0    0  0.00000000000E+00  0.00000000000E+00  0.40000000000E+02  0.40000000000E+02  0.00000000000E+00 0. -1.
        -11   -1    0    0    0    0 -0.00000000000E+00 -0.00000000000E+00 -0.40000000000E+02  0.40000000000E+02  0.00000000000E+00 0.  1.
         23    2    1    2    0    0  0.00000000000E+00  0.00000000000E+00  0.00000000000E+00  0.80000000000E+02  0.80000000000E+02 0.  0.
          5    1    3    3  501    0  0.21655860360E+02  0.22176465581E+02  0.24842264116E+02  0.40000000000E+02  0.47000000000E+01 0. -1.
         -5    1    3    3    0  501 -0.21655860360E+02 -0.22176465581E+02 -0.24842264116E+02  0.40000000000E+02  0.47000000000E+01 0.  1.
</event>
<event>
 5    1  0.4833967E-001  0.8000000E+02  0.7546771E-02  0.1203772E+00
         11   -1    0    0    0    0  0.00000000000E+00  0.00000000000E+00  0.40000000000E+02  0.40000000000E+02  0.00000000000E+00 0. -1.
        -11   -1    0    0    0    0 -0.00000000000E+00 -0.00000000000E+00 -0.40000000000E+02  0.40000000000E+02  0.00000000000E+00 0.  1.
         23    2    1    2    0    0  0.00000000000E+00  0.00000000000E+00  0.00000000000E+00  0.80000000000E+02  0.80000000000E+02 0.  0.
          5    1    3    3  501    0  0.82008591875E+01  0.61764716411E+01  0.38373260308E+02  0.40000000000E+02  0.47000000000E+01 0. -1.
         -5    1    3    3    0  501 -0.82008591875E+01 -0.61764716411E+01 -0.38373260308E+02  0.40000000000E+02  0.47000000000E+01 0.  1.
</event>
<event>
 5    1  0.4833967E-001  0.8000000E+02  0.7546771E-02  0.1203772E+00
         11   -1    0    0    0    0  0.00000000000E+00  0.00000000000E+00  0.40000000000E+02  0.40000000000E+02  0.00000000000E+00 0. -1.
        -11   -1    0    0    0    0 -0.00000000000E+00 -0.00000000000E+00 -0.40000000000E+02  0.40000000000E+02  0.00000000000E+00 0.  1.
         23    2    1    2    0    0  0.00000000000E+00  0.00000000000E+00  0.00000000000E+00  0.80000000000E+02  0.80000000000E+02 0.  0.
          5    1    3    3  501    0  0.16248747036E+02 -0.12175488973E+02  0.34141553685E+02  0.40000000000E+02  0.47000000000E+01 0. -1.
         -5    1    3    3    0  501 -0.16248747036E+02  0.12175488973E+02 -0.34141553685E+02  0.40000000000E+02  0.47000000000E+01 0.  1.
</event>
<event>
 5    1  0.4833967E-001  0.8000000E+02  0.7546771E-02  0.1203772E+00
         11   -1    0    0    0    0  0.00000000000E+00  0.00000000000E+00  0.40000000000E+02  0.40000000000E+02  0.00000000000E+00 0. -1.
        -11   -1    0    0    0    0 -0.00000000000E+00 -0.00000000000E+00 -0.40000000000E+02  0.40000000000E+02  0.00000000000E+00 0.  1.
         23    2    1    2    0    0  0.00000000000E+00  0.00000000000E+00  0.00000000000E+00  0.80000000000E+02  0.80000000000E+02 0.  0.
          5    1    3    3  501    0  0.37742070147E+02  0.11661382789E+02 -0.41783121540E+01  0.40000000000E+02  0.47000000000E+01 0. -1.
         -5    1    3    3    0  501 -0.37742070147E+02 -0.11661382789E+02  0.41783121540E+01  0.40000000000E+02  0.47000000000E+01 0.  1.
</event>
<event>
 5    1  0.4833967E-001  0.8000000E+02  0.7546771E-02  0.1203772E+00
         11   -1    0    0    0    0  0.00000000000E+00  0.00000000000E+00  0.40000000000E+02  0.40000000000E+02  0.00000000000E+00 0. -1.
        -11   -1    0    0    0    0 -0.00000000000E+00 -0.00000000000E+00 -0.40000000000E+02  0.40000000000E+02  0.00000000000E+00 0.  1.
         23    2    1    2    0    0  0.00000000000E+00  0.00000000000E+00  0.00000000000E+00  0.80000000000E+02  0.80000000000E+02 0.  0.
          5    1    3    3  501    0 -0.35034648962E+02 -0.63613137244E-02  0.18721200058E+02  0.40000000000E+02  0.47000000000E+01 0. -1.
         -5    1    3    3    0  501  0.35034648962E+02  0.63613137244E-02 -0.18721200058E+02  0.40000000000E+02  0.47000000000E+01 0.  1.
</event>
<event>
 5    1  0.4833967E-001  0.8000000E+02  0.7546771E-02  0.1203772E+00
         11   -1    0    0    0    0  0.00000000000E+00  0.00000000000E+00  0.40000000000E+02  0.40000000000E+02  0.00000000000E+00 0.  1.
        -11   -1    0    0    0    0 -0.00000000000E+00 -0.00000000000E+00 -0.40000000000E+02  0.40000000000E+02  0.00000000000E+00 0. -1.
         23    2    1    2    0    0  0.00000000000E+00  0.00000000000E+00  0.00000000000E+00  0.80000000000E+02  0.80000000000E+02 0.  0.
          5    1    3    3  501    0 -0.38343830188E+02 -0.14900775328E+01 -0.10268415432E+02  0.40000000000E+02  0.47000000000E+01 0. -1.
         -5    1    3    3    0  501  0.38343830188E+02  0.14900775328E+01  0.10268415432E+02  0.40000000000E+02  0.47000000000E+01 0.  1.
</event>
<event>
 5    1  0.4833967E-001  0.8000000E+02  0.7546771E-02  0.1203772E+00
         11   -1    0    0    0    0  0.00000000000E+00  0.00000000000E+00  0.40000000000E+02  0.40000000000E+02  0.00000000000E+00 0.  1.
        -11   -1    0    0    0    0 -0.00000000000E+00 -0.00000000000E+00 -0.40000000000E+02  0.40000000000E+02  0.00000000000E+00 0. -1.
         23    2    1    2    0    0  0.00000000000E+00  0.00000000000E+00  0.00000000000E+00  0.80000000000E+02  0.80000000000E+02 0.  0.
          5    1    3    3  501    0 -0.60256351505E+01 -0.21838696709E+02 -0.32629328021E+02  0.40000000000E+02  0.47000000000E+01 0. -1.
         -5    1    3    3    0  501  0.60256351505E+01  0.21838696709E+02  0.32629328021E+02  0.40000000000E+02  0.47000000000E+01 0.  1.
</event>
<event>
 5    1  0.4833967E-001  0.8000000E+02  0.7546771E-02  0.1203772E+00
         11   -1    0    0    0    0  0.00000000000E+00  0.00000000000E+00  0.40000000000E+02  0.40000000000E+02  0.00000000000E+00 0.  1.
        -11   -1    0    0    0    0 -0.00000000000E+00 -0.00000000000E+00 -0.40000000000E+02  0.40000000000E+02  0.00000000000E+00 0. -1.
         23    2    1    2    0    0  0.00000000000E+00  0.00000000000E+00  0.00000000000E+00  0.80000000000E+02  0.80000000000E+02 0.  0.
          5    1    3    3  501    0  0.27017750673E+02  0.16339634417E+02 -0.24103267324E+02  0.40000000000E+02  0.47000000000E+01 0. -1.
         -5    1    3    3    0  501 -0.27017750673E+02 -0.16339634417E+02  0.24103267324E+02  0.40000000000E+02  0.47000000000E+01 0.  1.
</event>
<event>
 5    1  0.4833967E-001  0.8000000E+02  0.7546771E-02  0.1203772E+00
         11   -1    0    0    0    0  0.00000000000E+00  0.00000000000E+00  0.40000000000E+02  0.40000000000E+02  0.00000000000E+00 0. -1.
        -11   -1    0    0    0    0 -0.00000000000E+00 -0.00000000000E+00 -0.40000000000E+02  0.40000000000E+02  0.00000000000E+00 0.  1.
         23    2    1    2    0    0  0.00000000000E+00  0.00000000000E+00  0.00000000000E+00  0.80000000000E+02  0.80000000000E+02 0.  0.
          5    1    3    3  501    0  0.81549415465E+01  0.41061945419E+01  0.38659359730E+02  0.40000000000E+02  0.47000000000E+01 0. -1.
         -5    1    3    3    0  501 -0.81549415465E+01 -0.41061945419E+01 -0.38659359730E+02  0.40000000000E+02  0.47000000000E+01 0.  1.
</event>
<event>
 5    1  0.4833967E-001  0.8000000E+02  0.7546771E-02  0.1203772E+00
         11   -1    0    0    0    0  0.00000000000E+00  0.00000000000E+00  0.40000000000E+02  0.40000000000E+02  0.00000000000E+00 0.  1.
        -11   -1    0    0    0    0 -0.00000000000E+00 -0.00000000000E+00 -0.40000000000E+02  0.40000000000E+02  0.00000000000E+00 0. -1.
         23    2    1    2    0    0  0.00000000000E+00  0.00000000000E+00  0.00000000000E+00  0.80000000000E+02  0.80000000000E+02 0.  0.
          5    1    3    3  501    0 -0.18377765574E+01 -0.39675905675E+02  0.59589110283E+00  0.40000000000E+02  0.47000000000E+01 0. -1.
         -5    1    3    3    0  501  0.18377765574E+01  0.39675905675E+02 -0.59589110283E+00  0.40000000000E+02  0.47000000000E+01 0.  1.
</event>
<event>
 5    1  0.4833967E-001  0.8000000E+02  0.7546771E-02  0.1203772E+00
         11   -1    0    0    0    0  0.00000000000E+00  0.00000000000E+00  0.40000000000E+02  0.40000000000E+02  0.00000000000E+00 0. -1.
        -11   -1    0    0    0    0 -0.00000000000E+00 -0.00000000000E+00 -0.40000000000E+02  0.40000000000E+02  0.00000000000E+00 0.  1.
         23    2    1    2    0    0  0.00000000000E+00  0.00000000000E+00  0.00000000000E+00  0.80000000000E+02  0.80000000000E+02 0.  0.
          5    1    3    3  501    0  0.22212037369E+02 -0.31322915738E+02 -0.10169087747E+02  0.40000000000E+02  0.47000000000E+01 0.  1.
         -5    1    3    3    0  501 -0.22212037369E+02  0.31322915738E+02  0.10169087747E+02  0.40000000000E+02  0.47000000000E+01 0. -1.
</event>
<event>
 5    1  0.4833967E-001  0.8000000E+02  0.7546771E-02  0.1203772E+00
         11   -1    0    0    0    0  0.00000000000E+00  0.00000000000E+00  0.40000000000E+02  0.40000000000E+02  0.00000000000E+00 0.  1.
        -11   -1    0    0    0    0 -0.00000000000E+00 -0.00000000000E+00 -0.40000000000E+02  0.40000000000E+02  0.00000000000E+00 0. -1.
         23    2    1    2    0    0  0.00000000000E+00  0.00000000000E+00  0.00000000000E+00  0.80000000000E+02  0.80000000000E+02 0.  0.
          5    1    3    3  501    0  0.32259426990E+02 -0.18485825459E+02 -0.13982618758E+02  0.40000000000E+02  0.47000000000E+01 0. -1.
         -5    1    3    3    0  501 -0.32259426990E+02  0.18485825459E+02  0.13982618758E+02  0.40000000000E+02  0.47000000000E+01 0.  1.
</event>
<event>
 5    1  0.4833967E-001  0.8000000E+02  0.7546771E-02  0.1203772E+00
         11   -1    0    0    0    0  0.00000000000E+00  0.00000000000E+00  0.40000000000E+02  0.40000000000E+02  0.00000000000E+00 0. -1.
        -11   -1    0    0    0    0 -0.00000000000E+00 -0.00000000000E+00 -0.40000000000E+02  0.40000000000E+02  0.00000000000E+00 0.  1.
         23    2    1    2    0    0  0.00000000000E+00  0.00000000000E+00  0.00000000000E+00  0.80000000000E+02  0.80000000000E+02 0.  0.
          5    1    3    3  501    0  0.35576983702E+02 -0.70047237058E+01 -0.16221038082E+02  0.40000000000E+02  0.47000000000E+01 0.  1.
         -5    1    3    3    0  501 -0.35576983702E+02  0.70047237058E+01  0.16221038082E+02  0.40000000000E+02  0.47000000000E+01 0. -1.
</event>
<event>
 5    1  0.4833967E-001  0.8000000E+02  0.7546771E-02  0.1203772E+00
         11   -1    0    0    0    0  0.00000000000E+00  0.00000000000E+00  0.40000000000E+02  0.40000000000E+02  0.00000000000E+00 0.  1.
        -11   -1    0    0    0    0 -0.00000000000E+00 -0.00000000000E+00 -0.40000000000E+02  0.40000000000E+02  0.00000000000E+00 0. -1.
         23    2    1    2    0    0  0.00000000000E+00  0.00000000000E+00  0.00000000000E+00  0.80000000000E+02  0.80000000000E+02 0.  0.
          5    1    3    3  501    0  0.10130938328E+02  0.20300790135E+02 -0.32606011846E+02  0.40000000000E+02  0.47000000000E+01 0. -1.
         -5    1    3    3    0  501 -0.10130938328E+02 -0.20300790135E+02  0.32606011846E+02  0.40000000000E+02  0.47000000000E+01 0.  1.
</event>
<event>
 5    1  0.4833967E-001  0.8000000E+02  0.7546771E-02  0.1203772E+00
         11   -1    0    0    0    0  0.00000000000E+00  0.00000000000E+00  0.40000000000E+02  0.40000000000E+02  0.00000000000E+00 0. -1.
        -11   -1    0    0    0    0 -0.00000000000E+00 -0.00000000000E+00 -0.40000000000E+02  0.40000000000E+02  0.00000000000E+00 0.  1.
         23    2    1    2    0    0  0.00000000000E+00  0.00000000000E+00  0.00000000000E+00  0.80000000000E+02  0.80000000000E+02 0.  0.
          5    1    3    3  501    0  0.17034466808E+02  0.35707015110E+02 -0.35701558107E+01  0.40000000000E+02  0.47000000000E+01 0.  1.
         -5    1    3    3    0  501 -0.17034466808E+02 -0.35707015110E+02  0.35701558107E+01  0.40000000000E+02  0.47000000000E+01 0. -1.
</event>
<event>
 5    1  0.4833967E-001  0.8000000E+02  0.7546771E-02  0.1203772E+00
         11   -1    0    0    0    0  0.00000000000E+00  0.00000000000E+00  0.40000000000E+02  0.40000000000E+02  0.00000000000E+00 0.  1.
        -11   -1    0    0    0    0 -0.00000000000E+00 -0.00000000000E+00 -0.40000000000E+02  0.40000000000E+02  0.00000000000E+00 0. -1.
         23    2    1    2    0    0  0.00000000000E+00  0.00000000000E+00  0.00000000000E+00  0.80000000000E+02  0.80000000000E+02 0.  0.
          5    1    3    3  501    0 -0.36118607450E+02  0.12603863626E+02 -0.10700412028E+02  0.40000000000E+02  0.47000000000E+01 0. -1.
         -5    1    3    3    0  501  0.36118607450E+02 -0.12603863626E+02  0.10700412028E+02  0.40000000000E+02  0.47000000000E+01 0.  1.
</event>
<event>
 5    1  0.4833967E-001  0.8000000E+02  0.7546771E-02  0.1203772E+00
         11   -1    0    0    0    0  0.00000000000E+00  0.00000000000E+00  0.40000000000E+02  0.40000000000E+02  0.00000000000E+00 0.  1.
        -11   -1    0    0    0    0 -0.00000000000E+00 -0.00000000000E+00 -0.40000000000E+02  0.40000000000E+02  0.00000000000E+00 0. -1.
         23    2    1    2    0    0  0.00000000000E+00  0.00000000000E+00  0.00000000000E+00  0.80000000000E+02  0.80000000000E+02 0.  0.
          5    1    3    3  501    0  0.21184435147E+02  0.31105141475E+02 -0.12712194198E+02  0.40000000000E+02  0.47000000000E+01 0. -1.
         -5    1    3    3    0  501 -0.21184435147E+02 -0.31105141475E+02  0.12712194198E+02  0.40000000000E+02  0.47000000000E+01 0.  1.
</event>
<event>
 5    1  0.4833967E-001  0.8000000E+02  0.7546771E-02  0.1203772E+00
         11   -1    0    0    0    0  0.00000000000E+00  0.00000000000E+00  0.40000000000E+02  0.40000000000E+02  0.00000000000E+00 0.  1.
        -11   -1    0    0    0    0 -0.00000000000E+00 -0.00000000000E+00 -0.40000000000E+02  0.40000000000E+02  0.00000000000E+00 0. -1.
         23    2    1    2    0    0  0.00000000000E+00  0.00000000000E+00  0.00000000000E+00  0.80000000000E+02  0.80000000000E+02 0.  0.
          5    1    3    3  501    0  0.28137070547E+02  0.16762439208E+02 -0.22477452989E+02  0.40000000000E+02  0.47000000000E+01 0. -1.
         -5    1    3    3    0  501 -0.28137070547E+02 -0.16762439208E+02  0.22477452989E+02  0.40000000000E+02  0.47000000000E+01 0.  1.
</event>
<event>
 5    1  0.4833967E-001  0.8000000E+02  0.7546771E-02  0.1203772E+00
         11   -1    0    0    0    0  0.00000000000E+00  0.00000000000E+00  0.40000000000E+02  0.40000000000E+02  0.00000000000E+00 0. -1.
        -11   -1    0    0    0    0 -0.00000000000E+00 -0.00000000000E+00 -0.40000000000E+02  0.40000000000E+02  0.00000000000E+00 0.  1.
         23    2    1    2    0    0  0.00000000000E+00  0.00000000000E+00  0.00000000000E+00  0.80000000000E+02  0.80000000000E+02 0.  0.
          5    1    3    3  501    0 -0.25384919351E+01  0.17223461355E+02  0.35704599671E+02  0.40000000000E+02  0.47000000000E+01 0. -1.
         -5    1    3    3    0  501  0.25384919351E+01 -0.17223461355E+02 -0.35704599671E+02  0.40000000000E+02  0.47000000000E+01 0.  1.
</event>
<event>
 5    1  0.4833967E-001  0.8000000E+02  0.7546771E-02  0.1203772E+00
         11   -1    0    0    0    0  0.00000000000E+00  0.00000000000E+00  0.40000000000E+02  0.40000000000E+02  0.00000000000E+00 0. -1.
        -11   -1    0    0    0    0 -0.00000000000E+00 -0.00000000000E+00 -0.40000000000E+02  0.40000000000E+02  0.00000000000E+00 0.  1.
         23    2    1    2    0    0  0.00000000000E+00  0.00000000000E+00  0.00000000000E+00  0.80000000000E+02  0.80000000000E+02 0.  0.
          5    1    3    3  501    0 -0.32014586792E+02  0.19262894834E+02  0.13487665298E+02  0.40000000000E+02  0.47000000000E+01 0. -1.
         -5    1    3    3    0  501  0.32014586792E+02 -0.19262894834E+02 -0.13487665298E+02  0.40000000000E+02  0.47000000000E+01 0.  1.
</event>
<event>
 5    1  0.4833967E-001  0.8000000E+02  0.7546771E-02  0.1203772E+00
         11   -1    0    0    0    0  0.00000000000E+00  0.00000000000E+00  0.40000000000E+02  0.40000000000E+02  0.00000000000E+00 0. -1.
        -11   -1    0    0    0    0 -0.00000000000E+00 -0.00000000000E+00 -0.40000000000E+02  0.40000000000E+02  0.00000000000E+00 0.  1.
         23    2    1    2    0    0  0.00000000000E+00  0.00000000000E+00  0.00000000000E+00  0.80000000000E+02  0.80000000000E+02 0.  0.
          5    1    3    3  501    0  0.20869251530E+02  0.30758617251E+02  0.14010417745E+02  0.40000000000E+02  0.47000000000E+01 0. -1.
         -5    1    3    3    0  501 -0.20869251530E+02 -0.30758617251E+02 -0.14010417745E+02  0.40000000000E+02  0.47000000000E+01 0.  1.
</event>
<event>
 5    1  0.4833967E-001  0.8000000E+02  0.7546771E-02  0.1203772E+00
         11   -1    0    0    0    0  0.00000000000E+00  0.00000000000E+00  0.40000000000E+02  0.40000000000E+02  0.00000000000E+00 0. -1.
        -11   -1    0    0    0    0 -0.00000000000E+00 -0.00000000000E+00 -0.40000000000E+02  0.40000000000E+02  0.00000000000E+00 0.  1.
         23    2    1    2    0    0  0.00000000000E+00  0.00000000000E+00  0.00000000000E+00  0.80000000000E+02  0.80000000000E+02 0.  0.
          5    1    3    3  501    0 -0.37501907120E+01  0.33992492726E+02 -0.20207832835E+02  0.40000000000E+02  0.47000000000E+01 0.  1.
         -5    1    3    3    0  501  0.37501907120E+01 -0.33992492726E+02  0.20207832835E+02  0.40000000000E+02  0.47000000000E+01 0. -1.
</event>
<event>
 5    1  0.4833967E-001  0.8000000E+02  0.7546771E-02  0.1203772E+00
         11   -1    0    0    0    0  0.00000000000E+00  0.00000000000E+00  0.40000000000E+02  0.40000000000E+02  0.00000000000E+00 0. -1.
        -11   -1    0    0    0    0 -0.00000000000E+00 -0.00000000000E+00 -0.40000000000E+02  0.40000000000E+02  0.00000000000E+00 0.  1.
         23    2    1    2    0    0  0.00000000000E+00  0.00000000000E+00  0.00000000000E+00  0.80000000000E+02  0.80000000000E+02 0.  0.
          5    1    3    3  501    0  0.46097223386E+01  0.26389746882E+02  0.29329877590E+02  0.40000000000E+02  0.47000000000E+01 0. -1.
         -5    1    3    3    0  501 -0.46097223386E+01 -0.26389746882E+02 -0.29329877590E+02  0.40000000000E+02  0.47000000000E+01 0.  1.
</event>
<event>
 5    1  0.4833967E-001  0.8000000E+02  0.7546771E-02  0.1203772E+00
         11   -1    0    0    0    0  0.00000000000E+00  0.00000000000E+00  0.40000000000E+02  0.40000000000E+02  0.00000000000E+00 0.  1.
        -11   -1    0    0    0    0 -0.00000000000E+00 -0.00000000000E+00 -0.40000000000E+02  0.40000000000E+02  0.00000000000E+00 0. -1.
         23    2    1    2    0    0  0.00000000000E+00  0.00000000000E+00  0.00000000000E+00  0.80000000000E+02  0.80000000000E+02 0.  0.
          5    1    3    3  501    0  0.68181810121E+01 -0.39036619938E+02  0.27504020614E+01  0.40000000000E+02  0.47000000000E+01 0. -1.
         -5    1    3    3    0  501 -0.68181810121E+01  0.39036619938E+02 -0.27504020614E+01  0.40000000000E+02  0.47000000000E+01 0.  1.
</event>
<event>
 5    1  0.4833967E-001  0.8000000E+02  0.7546771E-02  0.1203772E+00
         11   -1    0    0    0    0  0.00000000000E+00  0.00000000000E+00  0.40000000000E+02  0.40000000000E+02  0.00000000000E+00 0.  1.
        -11   -1    0    0    0    0 -0.00000000000E+00 -0.00000000000E+00 -0.40000000000E+02  0.40000000000E+02  0.00000000000E+00 0. -1.
         23    2    1    2    0    0  0.00000000000E+00  0.00000000000E+00  0.00000000000E+00  0.80000000000E+02  0.80000000000E+02 0.  0.
          5    1    3    3  501    0  0.25083322793E+02  0.27250676985E+02 -0.14357490084E+02  0.40000000000E+02  0.47000000000E+01 0. -1.
         -5    1    3    3    0  501 -0.25083322793E+02 -0.27250676985E+02  0.14357490084E+02  0.40000000000E+02  0.47000000000E+01 0.  1.
</event>
<event>
 5    1  0.4833967E-001  0.8000000E+02  0.7546771E-02  0.1203772E+00
         11   -1    0    0    0    0  0.00000000000E+00  0.00000000000E+00  0.40000000000E+02  0.40000000000E+02  0.00000000000E+00 0.  1.
        -11   -1    0    0    0    0 -0.00000000000E+00 -0.00000000000E+00 -0.40000000000E+02  0.40000000000E+02  0.00000000000E+00 0. -1.
         23    2    1    2    0    0  0.00000000000E+00  0.00000000000E+00  0.00000000000E+00  0.80000000000E+02  0.80000000000E+02 0.  0.
          5    1    3    3  501    0  0.19620522230E+02 -0.34316995088E+02 -0.39101094003E+01  0.40000000000E+02  0.47000000000E+01 0. -1.
         -5    1    3    3    0  501 -0.19620522230E+02  0.34316995088E+02  0.39101094003E+01  0.40000000000E+02  0.47000000000E+01 0.  1.
</event>
<event>
 5    1  0.4833967E-001  0.8000000E+02  0.7546771E-02  0.1203772E+00
         11   -1    0    0    0    0  0.00000000000E+00  0.00000000000E+00  0.40000000000E+02  0.40000000000E+02  0.00000000000E+00 0. -1.
        -11   -1    0    0    0    0 -0.00000000000E+00 -0.00000000000E+00 -0.40000000000E+02  0.40000000000E+02  0.00000000000E+00 0.  1.
         23    2    1    2    0    0  0.00000000000E+00  0.00000000000E+00  0.00000000000E+00  0.80000000000E+02  0.80000000000E+02 0.  0.
          5    1    3    3  501    0 -0.14723465551E+02  0.29183128427E+02  0.22571543531E+02  0.40000000000E+02  0.47000000000E+01 0. -1.
         -5    1    3    3    0  501  0.14723465551E+02 -0.29183128427E+02 -0.22571543531E+02  0.40000000000E+02  0.47000000000E+01 0.  1.
</event>
<event>
 5    1  0.4833967E-001  0.8000000E+02  0.7546771E-02  0.1203772E+00
         11   -1    0    0    0    0  0.00000000000E+00  0.00000000000E+00  0.40000000000E+02  0.40000000000E+02  0.00000000000E+00 0.  1.
        -11   -1    0    0    0    0 -0.00000000000E+00 -0.00000000000E+00 -0.40000000000E+02  0.40000000000E+02  0.00000000000E+00 0. -1.
         23    2    1    2    0    0  0.00000000000E+00  0.00000000000E+00  0.00000000000E+00  0.80000000000E+02  0.80000000000E+02 0.  0.
          5    1    3    3  501    0  0.23895024558E+02  0.21120273198E+02 -0.23682733403E+02  0.40000000000E+02  0.47000000000E+01 0. -1.
         -5    1    3    3    0  501 -0.23895024558E+02 -0.21120273198E+02  0.23682733403E+02  0.40000000000E+02  0.47000000000E+01 0.  1.
</event>
<event>
 5    1  0.4833967E-001  0.8000000E+02  0.7546771E-02  0.1203772E+00
         11   -1    0    0    0    0  0.00000000000E+00  0.00000000000E+00  0.40000000000E+02  0.40000000000E+02  0.00000000000E+00 0. -1.
        -11   -1    0    0    0    0 -0.00000000000E+00 -0.00000000000E+00 -0.40000000000E+02  0.40000000000E+02  0.00000000000E+00 0.  1.
         23    2    1    2    0    0  0.00000000000E+00  0.00000000000E+00  0.00000000000E+00  0.80000000000E+02  0.80000000000E+02 0.  0.
          5    1    3    3  501    0 -0.68108851051E+01  0.20862769965E+01  0.39079013452E+02  0.40000000000E+02  0.47000000000E+01 0. -1.
         -5    1    3    3    0  501  0.68108851051E+01 -0.20862769965E+01 -0.39079013452E+02  0.40000000000E+02  0.47000000000E+01 0.  1.
</event>
<event>
 5    1  0.4833967E-001  0.8000000E+02  0.7546771E-02  0.1203772E+00
         11   -1    0    0    0    0  0.00000000000E+00  0.00000000000E+00  0.40000000000E+02  0.40000000000E+02  0.00000000000E+00 0.  1.
        -11   -1    0    0    0    0 -0.00000000000E+00 -0.00000000000E+00 -0.40000000000E+02  0.40000000000E+02  0.00000000000E+00 0. -1.
         23    2    1    2    0    0  0.00000000000E+00  0.00000000000E+00  0.00000000000E+00  0.80000000000E+02  0.80000000000E+02 0.  0.
          5    1    3    3  501    0 -0.38258970507E+02 -0.75224782810E+01 -0.75877200944E+01  0.40000000000E+02  0.47000000000E+01 0. -1.
         -5    1    3    3    0  501  0.38258970507E+02  0.75224782810E+01  0.75877200944E+01  0.40000000000E+02  0.47000000000E+01 0.  1.
</event>
<event>
 5    1  0.4833967E-001  0.8000000E+02  0.7546771E-02  0.1203772E+00
         11   -1    0    0    0    0  0.00000000000E+00  0.00000000000E+00  0.40000000000E+02  0.40000000000E+02  0.00000000000E+00 0. -1.
        -11   -1    0    0    0    0 -0.00000000000E+00 -0.00000000000E+00 -0.40000000000E+02  0.40000000000E+02  0.00000000000E+00 0.  1.
         23    2    1    2    0    0  0.00000000000E+00  0.00000000000E+00  0.00000000000E+00  0.80000000000E+02  0.80000000000E+02 0.  0.
          5    1    3    3  501    0 -0.28533154036E+02 -0.27035181715E+02  0.57330681483E+01  0.40000000000E+02  0.47000000000E+01 0. -1.
         -5    1    3    3    0  501  0.28533154036E+02  0.27035181715E+02 -0.57330681483E+01  0.40000000000E+02  0.47000000000E+01 0.  1.
</event>
<event>
 5    1  0.4833967E-001  0.8000000E+02  0.7546771E-02  0.1203772E+00
         11   -1    0    0    0    0  0.00000000000E+00  0.00000000000E+00  0.40000000000E+02  0.40000000000E+02  0.00000000000E+00 0.  1.
        -11   -1    0    0    0    0 -0.00000000000E+00 -0.00000000000E+00 -0.40000000000E+02  0.40000000000E+02  0.00000000000E+00 0. -1.
         23    2    1    2    0    0  0.00000000000E+00  0.00000000000E+00  0.00000000000E+00  0.80000000000E+02  0.80000000000E+02 0.  0.
          5    1    3    3  501    0  0.16015762880E+02 -0.12408395578E+02 -0.34167778074E+02  0.40000000000E+02  0.47000000000E+01 0. -1.
         -5    1    3    3    0  501 -0.16015762880E+02  0.12408395578E+02  0.34167778074E+02  0.40000000000E+02  0.47000000000E+01 0.  1.
</event>
<event>
 5    1  0.4833967E-001  0.8000000E+02  0.7546771E-02  0.1203772E+00
         11   -1    0    0    0    0  0.00000000000E+00  0.00000000000E+00  0.40000000000E+02  0.40000000000E+02  0.00000000000E+00 0. -1.
        -11   -1    0    0    0    0 -0.00000000000E+00 -0.00000000000E+00 -0.40000000000E+02  0.40000000000E+02  0.00000000000E+00 0.  1.
         23    2    1    2    0    0  0.00000000000E+00  0.00000000000E+00  0.00000000000E+00  0.80000000000E+02  0.80000000000E+02 0.  0.
          5    1    3    3  501    0  0.28600658517E+02  0.27398809528E+02 -0.30360449307E+01  0.40000000000E+02  0.47000000000E+01 0.  1.
         -5    1    3    3    0  501 -0.28600658517E+02 -0.27398809528E+02  0.30360449307E+01  0.40000000000E+02  0.47000000000E+01 0. -1.
</event>
<event>
 5    1  0.4833967E-001  0.8000000E+02  0.7546771E-02  0.1203772E+00
         11   -1    0    0    0    0  0.00000000000E+00  0.00000000000E+00  0.40000000000E+02  0.40000000000E+02  0.00000000000E+00 0. -1.
        -11   -1    0    0    0    0 -0.00000000000E+00 -0.00000000000E+00 -0.40000000000E+02  0.40000000000E+02  0.00000000000E+00 0.  1.
         23    2    1    2    0    0  0.00000000000E+00  0.00000000000E+00  0.00000000000E+00  0.80000000000E+02  0.80000000000E+02 0.  0.
          5    1    3    3  501    0  0.26368923404E+02  0.20149373562E+02 -0.21831001433E+02  0.40000000000E+02  0.47000000000E+01 0. -1.
         -5    1    3    3    0  501 -0.26368923404E+02 -0.20149373562E+02  0.21831001433E+02  0.40000000000E+02  0.47000000000E+01 0.  1.
</event>
<event>
 5    1  0.4833967E-001  0.8000000E+02  0.7546771E-02  0.1203772E+00
         11   -1    0    0    0    0  0.00000000000E+00  0.00000000000E+00  0.40000000000E+02  0.40000000000E+02  0.00000000000E+00 0. -1.
        -11   -1    0    0    0    0 -0.00000000000E+00 -0.00000000000E+00 -0.40000000000E+02  0.40000000000E+02  0.00000000000E+00 0.  1.
         23    2    1    2    0    0  0.00000000000E+00  0.00000000000E+00  0.00000000000E+00  0.80000000000E+02  0.80000000000E+02 0.  0.
          5    1    3    3  501    0 -0.37885694419E+02  0.43490990139E+01  0.11120678762E+02  0.40000000000E+02  0.47000000000E+01 0. -1.
         -5    1    3    3    0  501  0.37885694419E+02 -0.43490990139E+01 -0.11120678762E+02  0.40000000000E+02  0.47000000000E+01 0.  1.
</event>
<event>
 5    1  0.4833967E-001  0.8000000E+02  0.7546771E-02  0.1203772E+00
         11   -1    0    0    0    0  0.00000000000E+00  0.00000000000E+00  0.40000000000E+02  0.40000000000E+02  0.00000000000E+00 0. -1.
        -11   -1    0    0    0    0 -0.00000000000E+00 -0.00000000000E+00 -0.40000000000E+02  0.40000000000E+02  0.00000000000E+00 0.  1.
         23    2    1    2    0    0  0.00000000000E+00  0.00000000000E+00  0.00000000000E+00  0.80000000000E+02  0.80000000000E+02 0.  0.
          5    1    3    3  501    0  0.17646097851E+02 -0.27832791915E+02  0.22177937796E+02  0.40000000000E+02  0.47000000000E+01 0. -1.
         -5    1    3    3    0  501 -0.17646097851E+02  0.27832791915E+02 -0.22177937796E+02  0.40000000000E+02  0.47000000000E+01 0.  1.
</event>
<event>
 5    1  0.4833967E-001  0.8000000E+02  0.7546771E-02  0.1203772E+00
         11   -1    0    0    0    0  0.00000000000E+00  0.00000000000E+00  0.40000000000E+02  0.40000000000E+02  0.00000000000E+00 0.  1.
        -11   -1    0    0    0    0 -0.00000000000E+00 -0.00000000000E+00 -0.40000000000E+02  0.40000000000E+02  0.00000000000E+00 0. -1.
         23    2    1    2    0    0  0.00000000000E+00  0.00000000000E+00  0.00000000000E+00  0.80000000000E+02  0.80000000000E+02 0.  0.
          5    1    3    3  501    0  0.88061856507E+01 -0.98087715627E+01 -0.37471977459E+02  0.40000000000E+02  0.47000000000E+01 0. -1.
         -5    1    3    3    0  501 -0.88061856507E+01  0.98087715627E+01  0.37471977459E+02  0.40000000000E+02  0.47000000000E+01 0.  1.
</event>
<event>
 5    1  0.4833967E-001  0.8000000E+02  0.7546771E-02  0.1203772E+00
         11   -1    0    0    0    0  0.00000000000E+00  0.00000000000E+00  0.40000000000E+02  0.40000000000E+02  0.00000000000E+00 0. -1.
        -11   -1    0    0    0    0 -0.00000000000E+00 -0.00000000000E+00 -0.40000000000E+02  0.40000000000E+02  0.00000000000E+00 0.  1.
         23    2    1    2    0    0  0.00000000000E+00  0.00000000000E+00  0.00000000000E+00  0.80000000000E+02  0.80000000000E+02 0.  0.
          5    1    3    3  501    0 -0.10087463785E+01 -0.24687800872E+02 -0.31103133586E+02  0.40000000000E+02  0.47000000000E+01 0.  1.
         -5    1    3    3    0  501  0.10087463785E+01  0.24687800872E+02  0.31103133586E+02  0.40000000000E+02  0.47000000000E+01 0. -1.
</event>
<event>
 5    1  0.4833967E-001  0.8000000E+02  0.7546771E-02  0.1203772E+00
         11   -1    0    0    0    0  0.00000000000E+00  0.00000000000E+00  0.40000000000E+02  0.40000000000E+02  0.00000000000E+00 0. -1.
        -11   -1    0    0    0    0 -0.00000000000E+00 -0.00000000000E+00 -0.40000000000E+02  0.40000000000E+02  0.00000000000E+00 0.  1.
         23    2    1    2    0    0  0.00000000000E+00  0.00000000000E+00  0.00000000000E+00  0.80000000000E+02  0.80000000000E+02 0.  0.
          5    1    3    3  501    0 -0.28570572820E+02  0.15701627011E+02  0.22695622440E+02  0.40000000000E+02  0.47000000000E+01 0. -1.
         -5    1    3    3    0  501  0.28570572820E+02 -0.15701627011E+02 -0.22695622440E+02  0.40000000000E+02  0.47000000000E+01 0.  1.
</event>
<event>
 5    1  0.4833967E-001  0.8000000E+02  0.7546771E-02  0.1203772E+00
         11   -1    0    0    0    0  0.00000000000E+00  0.00000000000E+00  0.40000000000E+02  0.40000000000E+02  0.00000000000E+00 0. -1.
        -11   -1    0    0    0    0 -0.00000000000E+00 -0.00000000000E+00 -0.40000000000E+02  0.40000000000E+02  0.00000000000E+00 0.  1.
         23    2    1    2    0    0  0.00000000000E+00  0.00000000000E+00  0.00000000000E+00  0.80000000000E+02  0.80000000000E+02 0.  0.
          5    1    3    3  501    0 -0.28406260772E+02 -0.26927760364E+02 -0.67742210422E+01  0.40000000000E+02  0.47000000000E+01 0. -1.
         -5    1    3    3    0  501  0.28406260772E+02  0.26927760364E+02  0.67742210422E+01  0.40000000000E+02  0.47000000000E+01 0.  1.
</event>
<event>
 5    1  0.4833967E-001  0.8000000E+02  0.7546771E-02  0.1203772E+00
         11   -1    0    0    0    0  0.00000000000E+00  0.00000000000E+00  0.40000000000E+02  0.40000000000E+02  0.00000000000E+00 0.  1.
        -11   -1    0    0    0    0 -0.00000000000E+00 -0.00000000000E+00 -0.40000000000E+02  0.40000000000E+02  0.00000000000E+00 0. -1.
         23    2    1    2    0    0  0.00000000000E+00  0.00000000000E+00  0.00000000000E+00  0.80000000000E+02  0.80000000000E+02 0.  0.
          5    1    3    3  501    0  0.63047410062E+01  0.80995138297E+01 -0.38373924956E+02  0.40000000000E+02  0.47000000000E+01 0. -1.
         -5    1    3    3    0  501 -0.63047410062E+01 -0.80995138297E+01  0.38373924956E+02  0.40000000000E+02  0.47000000000E+01 0.  1.
</event>
<event>
 5    1  0.4833967E-001  0.8000000E+02  0.7546771E-02  0.1203772E+00
         11   -1    0    0    0    0  0.00000000000E+00  0.00000000000E+00  0.40000000000E+02  0.40000000000E+02  0.00000000000E+00 0.  1.
        -11   -1    0    0    0    0 -0.00000000000E+00 -0.00000000000E+00 -0.40000000000E+02  0.40000000000E+02  0.00000000000E+00 0. -1.
         23    2    1    2    0    0  0.00000000000E+00  0.00000000000E+00  0.00000000000E+00  0.80000000000E+02  0.80000000000E+02 0.  0.
          5    1    3    3  501    0  0.26785505866E+02 -0.24773333906E+02 -0.15707596973E+02  0.40000000000E+02  0.47000000000E+01 0. -1.
         -5    1    3    3    0  501 -0.26785505866E+02  0.24773333906E+02  0.15707596973E+02  0.40000000000E+02  0.47000000000E+01 0.  1.
</event>
<event>
 5    1  0.4833967E-001  0.8000000E+02  0.7546771E-02  0.1203772E+00
         11   -1    0    0    0    0  0.00000000000E+00  0.00000000000E+00  0.40000000000E+02  0.40000000000E+02  0.00000000000E+00 0. -1.
        -11   -1    0    0    0    0 -0.00000000000E+00 -0.00000000000E+00 -0.40000000000E+02  0.40000000000E+02  0.00000000000E+00 0.  1.
         23    2    1    2    0    0  0.00000000000E+00  0.00000000000E+00  0.00000000000E+00  0.80000000000E+02  0.80000000000E+02 0.  0.
          5    1    3    3  501    0  0.11517684360E+02 -0.23446561740E+02  0.29925101329E+02  0.40000000000E+02  0.47000000000E+01 0. -1.
         -5    1    3    3    0  501 -0.11517684360E+02  0.23446561740E+02 -0.29925101329E+02  0.40000000000E+02  0.47000000000E+01 0.  1.
</event>
<event>
 5    1  0.4833967E-001  0.8000000E+02  0.7546771E-02  0.1203772E+00
         11   -1    0    0    0    0  0.00000000000E+00  0.00000000000E+00  0.40000000000E+02  0.40000000000E+02  0.00000000000E+00 0. -1.
        -11   -1    0    0    0    0 -0.00000000000E+00 -0.00000000000E+00 -0.40000000000E+02  0.40000000000E+02  0.00000000000E+00 0.  1.
         23    2    1    2    0    0  0.00000000000E+00  0.00000000000E+00  0.00000000000E+00  0.80000000000E+02  0.80000000000E+02 0.  0.
          5    1    3    3  501    0 -0.16724885520E+02 -0.33532397009E+02  0.13182054286E+02  0.40000000000E+02  0.47000000000E+01 0. -1.
         -5    1    3    3    0  501  0.16724885520E+02  0.33532397009E+02 -0.13182054286E+02  0.40000000000E+02  0.47000000000E+01 0.  1.
</event>
<event>
 5    1  0.4833967E-001  0.8000000E+02  0.7546771E-02  0.1203772E+00
         11   -1    0    0    0    0  0.00000000000E+00  0.00000000000E+00  0.40000000000E+02  0.40000000000E+02  0.00000000000E+00 0. -1.
        -11   -1    0    0    0    0 -0.00000000000E+00 -0.00000000000E+00 -0.40000000000E+02  0.40000000000E+02  0.00000000000E+00 0.  1.
         23    2    1    2    0    0  0.00000000000E+00  0.00000000000E+00  0.00000000000E+00  0.80000000000E+02  0.80000000000E+02 0.  0.
          5    1    3    3  501    0  0.37024470170E+02 -0.13670061386E+02 -0.44975582634E+01  0.40000000000E+02  0.47000000000E+01 0. -1.
         -5    1    3    3    0  501 -0.37024470170E+02  0.13670061386E+02  0.44975582634E+01  0.40000000000E+02  0.47000000000E+01 0.  1.
</event>
<event>
 5    1  0.4833967E-001  0.8000000E+02  0.7546771E-02  0.1203772E+00
         11   -1    0    0    0    0  0.00000000000E+00  0.00000000000E+00  0.40000000000E+02  0.40000000000E+02  0.00000000000E+00 0. -1.
        -11   -1    0    0    0    0 -0.00000000000E+00 -0.00000000000E+00 -0.40000000000E+02  0.40000000000E+02  0.00000000000E+00 0.  1.
         23    2    1    2    0    0  0.00000000000E+00  0.00000000000E+00  0.00000000000E+00  0.80000000000E+02  0.80000000000E+02 0.  0.
          5    1    3    3  501    0 -0.37525684559E+02  0.64310333020E+00 -0.13012279451E+02  0.40000000000E+02  0.47000000000E+01 0. -1.
         -5    1    3    3    0  501  0.37525684559E+02 -0.64310333020E+00  0.13012279451E+02  0.40000000000E+02  0.47000000000E+01 0.  1.
</event>
<event>
 5    1  0.4833967E-001  0.8000000E+02  0.7546771E-02  0.1203772E+00
         11   -1    0    0    0    0  0.00000000000E+00  0.00000000000E+00  0.40000000000E+02  0.40000000000E+02  0.00000000000E+00 0.  1.
        -11   -1    0    0    0    0 -0.00000000000E+00 -0.00000000000E+00 -0.40000000000E+02  0.40000000000E+02  0.00000000000E+00 0. -1.
         23    2    1    2    0    0  0.00000000000E+00  0.00000000000E+00  0.00000000000E+00  0.80000000000E+02  0.80000000000E+02 0.  0.
          5    1    3    3  501    0  0.47987761631E+01 -0.32063989900E+02 -0.22951738475E+02  0.40000000000E+02  0.47000000000E+01 0. -1.
         -5    1    3    3    0  501 -0.47987761631E+01  0.32063989900E+02  0.22951738475E+02  0.40000000000E+02  0.47000000000E+01 0.  1.
</event>
<event>
 5    1  0.4833967E-001  0.8000000E+02  0.7546771E-02  0.1203772E+00
         11   -1    0    0    0    0  0.00000000000E+00  0.00000000000E+00  0.40000000000E+02  0.40000000000E+02  0.00000000000E+00 0.  1.
        -11   -1    0    0    0    0 -0.00000000000E+00 -0.00000000000E+00 -0.40000000000E+02  0.40000000000E+02  0.00000000000E+00 0. -1.
         23    2    1    2    0    0  0.00000000000E+00  0.00000000000E+00  0.00000000000E+00  0.80000000000E+02  0.80000000000E+02 0.  0.
          5    1    3    3  501    0 -0.19445789962E+02  0.34620479113E+02 -0.10925560780E+01  0.40000000000E+02  0.47000000000E+01 0. -1.
         -5    1    3    3    0  501  0.19445789962E+02 -0.34620479113E+02  0.10925560780E+01  0.40000000000E+02  0.47000000000E+01 0.  1.
</event>
<event>
 5    1  0.4833967E-001  0.8000000E+02  0.7546771E-02  0.1203772E+00
         11   -1    0    0    0    0  0.00000000000E+00  0.00000000000E+00  0.40000000000E+02  0.40000000000E+02  0.00000000000E+00 0. -1.
        -11   -1    0    0    0    0 -0.00000000000E+00 -0.00000000000E+00 -0.40000000000E+02  0.40000000000E+02  0.00000000000E+00 0.  1.
         23    2    1    2    0    0  0.00000000000E+00  0.00000000000E+00  0.00000000000E+00  0.80000000000E+02  0.80000000000E+02 0.  0.
          5    1    3    3  501    0 -0.75448151960E+01  0.14957418996E+02  0.36017514915E+02  0.40000000000E+02  0.47000000000E+01 0. -1.
         -5    1    3    3    0  501  0.75448151960E+01 -0.14957418996E+02 -0.36017514915E+02  0.40000000000E+02  0.47000000000E+01 0.  1.
</event>
<event>
 5    1  0.4833967E-001  0.8000000E+02  0.7546771E-02  0.1203772E+00
         11   -1    0    0    0    0  0.00000000000E+00  0.00000000000E+00  0.40000000000E+02  0.40000000000E+02  0.00000000000E+00 0. -1.
        -11   -1    0    0    0    0 -0.00000000000E+00 -0.00000000000E+00 -0.40000000000E+02  0.40000000000E+02  0.00000000000E+00 0.  1.
         23    2    1    2    0    0  0.00000000000E+00  0.00000000000E+00  0.00000000000E+00  0.80000000000E+02  0.80000000000E+02 0.  0.
          5    1    3    3  501    0 -0.32726957992E+02  0.22484973810E+02 -0.11323309247E+01  0.40000000000E+02  0.47000000000E+01 0. -1.
         -5    1    3    3    0  501  0.32726957992E+02 -0.22484973810E+02  0.11323309247E+01  0.40000000000E+02  0.47000000000E+01 0.  1.
</event>
<event>
 5    1  0.4833967E-001  0.8000000E+02  0.7546771E-02  0.1203772E+00
         11   -1    0    0    0    0  0.00000000000E+00  0.00000000000E+00  0.40000000000E+02  0.40000000000E+02  0.00000000000E+00 0. -1.
        -11   -1    0    0    0    0 -0.00000000000E+00 -0.00000000000E+00 -0.40000000000E+02  0.40000000000E+02  0.00000000000E+00 0.  1.
         23    2    1    2    0    0  0.00000000000E+00  0.00000000000E+00  0.00000000000E+00  0.80000000000E+02  0.80000000000E+02 0.  0.
          5    1    3    3  501    0 -0.33876520468E+02  0.35039048691E+01  0.20445390963E+02  0.40000000000E+02  0.47000000000E+01 0. -1.
         -5    1    3    3    0  501  0.33876520468E+02 -0.35039048691E+01 -0.20445390963E+02  0.40000000000E+02  0.47000000000E+01 0.  1.
</event>
<event>
 5    1  0.4833967E-001  0.8000000E+02  0.7546771E-02  0.1203772E+00
         11   -1    0    0    0    0  0.00000000000E+00  0.00000000000E+00  0.40000000000E+02  0.40000000000E+02  0.00000000000E+00 0.  1.
        -11   -1    0    0    0    0 -0.00000000000E+00 -0.00000000000E+00 -0.40000000000E+02  0.40000000000E+02  0.00000000000E+00 0. -1.
         23    2    1    2    0    0  0.00000000000E+00  0.00000000000E+00  0.00000000000E+00  0.80000000000E+02  0.80000000000E+02 0.  0.
          5    1    3    3  501    0  0.18957783943E+02 -0.20167321764E+02 -0.28491956073E+02  0.40000000000E+02  0.47000000000E+01 0. -1.
         -5    1    3    3    0  501 -0.18957783943E+02  0.20167321764E+02  0.28491956073E+02  0.40000000000E+02  0.47000000000E+01 0.  1.
</event>
<event>
 5    1  0.4833967E-001  0.8000000E+02  0.7546771E-02  0.1203772E+00
         11   -1    0    0    0    0  0.00000000000E+00  0.00000000000E+00  0.40000000000E+02  0.40000000000E+02  0.00000000000E+00 0.  1.
        -11   -1    0    0    0    0 -0.00000000000E+00 -0.00000000000E+00 -0.40000000000E+02  0.40000000000E+02  0.00000000000E+00 0. -1.
         23    2    1    2    0    0  0.00000000000E+00  0.00000000000E+00  0.00000000000E+00  0.80000000000E+02  0.80000000000E+02 0.  0.
          5    1    3    3  501    0 -0.33795081899E+02  0.20239714379E+02 -0.51143329271E+01  0.40000000000E+02  0.47000000000E+01 0. -1.
         -5    1    3    3    0  501  0.33795081899E+02 -0.20239714379E+02  0.51143329271E+01  0.40000000000E+02  0.47000000000E+01 0.  1.
</event>
<event>
 5    1  0.4833967E-001  0.8000000E+02  0.7546771E-02  0.1203772E+00
         11   -1    0    0    0    0  0.00000000000E+00  0.00000000000E+00  0.40000000000E+02  0.40000000000E+02  0.00000000000E+00 0.  1.
        -11   -1    0    0    0    0 -0.00000000000E+00 -0.00000000000E+00 -0.40000000000E+02  0.40000000000E+02  0.00000000000E+00 0. -1.
         23    2    1    2    0    0  0.00000000000E+00  0.00000000000E+00  0.00000000000E+00  0.80000000000E+02  0.80000000000E+02 0.  0.
          5    1    3    3  501    0  0.16186671828E+02  0.25065523693E+02 -0.26222531859E+02  0.40000000000E+02  0.47000000000E+01 0. -1.
         -5    1    3    3    0  501 -0.16186671828E+02 -0.25065523693E+02  0.26222531859E+02  0.40000000000E+02  0.47000000000E+01 0.  1.
</event>
<event>
 5    1  0.4833967E-001  0.8000000E+02  0.7546771E-02  0.1203772E+00
         11   -1    0    0    0    0  0.00000000000E+00  0.00000000000E+00  0.40000000000E+02  0.40000000000E+02  0.00000000000E+00 0. -1.
        -11   -1    0    0    0    0 -0.00000000000E+00 -0.00000000000E+00 -0.40000000000E+02  0.40000000000E+02  0.00000000000E+00 0.  1.
         23    2    1    2    0    0  0.00000000000E+00  0.00000000000E+00  0.00000000000E+00  0.80000000000E+02  0.80000000000E+02 0.  0.
          5    1    3    3  501    0 -0.16866985672E+02 -0.55842739197E+01 -0.35527885937E+02  0.40000000000E+02  0.47000000000E+01 0.  1.
         -5    1    3    3    0  501  0.16866985672E+02  0.55842739197E+01  0.35527885937E+02  0.40000000000E+02  0.47000000000E+01 0. -1.
</event>
<event>
 5    1  0.4833967E-001  0.8000000E+02  0.7546771E-02  0.1203772E+00
         11   -1    0    0    0    0  0.00000000000E+00  0.00000000000E+00  0.40000000000E+02  0.40000000000E+02  0.00000000000E+00 0. -1.
        -11   -1    0    0    0    0 -0.00000000000E+00 -0.00000000000E+00 -0.40000000000E+02  0.40000000000E+02  0.00000000000E+00 0.  1.
         23    2    1    2    0    0  0.00000000000E+00  0.00000000000E+00  0.00000000000E+00  0.80000000000E+02  0.80000000000E+02 0.  0.
          5    1    3    3  501    0 -0.22680647831E+02 -0.28663646886E+02  0.15552927736E+02  0.40000000000E+02  0.47000000000E+01 0. -1.
         -5    1    3    3    0  501  0.22680647831E+02  0.28663646886E+02 -0.15552927736E+02  0.40000000000E+02  0.47000000000E+01 0.  1.
</event>
<event>
 5    1  0.4833967E-001  0.8000000E+02  0.7546771E-02  0.1203772E+00
         11   -1    0    0    0    0  0.00000000000E+00  0.00000000000E+00  0.40000000000E+02  0.40000000000E+02  0.00000000000E+00 0.  1.
        -11   -1    0    0    0    0 -0.00000000000E+00 -0.00000000000E+00 -0.40000000000E+02  0.40000000000E+02  0.00000000000E+00 0. -1.
         23    2    1    2    0    0  0.00000000000E+00  0.00000000000E+00  0.00000000000E+00  0.80000000000E+02  0.80000000000E+02 0.  0.
          5    1    3    3  501    0 -0.19165325487E+02  0.30765063479E+02 -0.16251497411E+02  0.40000000000E+02  0.47000000000E+01 0. -1.
         -5    1    3    3    0  501  0.19165325487E+02 -0.30765063479E+02  0.16251497411E+02  0.40000000000E+02  0.47000000000E+01 0.  1.
</event>
<event>
 5    1  0.4833967E-001  0.8000000E+02  0.7546771E-02  0.1203772E+00
         11   -1    0    0    0    0  0.00000000000E+00  0.00000000000E+00  0.40000000000E+02  0.40000000000E+02  0.00000000000E+00 0.  1.
        -11   -1    0    0    0    0 -0.00000000000E+00 -0.00000000000E+00 -0.40000000000E+02  0.40000000000E+02  0.00000000000E+00 0. -1.
         23    2    1    2    0    0  0.00000000000E+00  0.00000000000E+00  0.00000000000E+00  0.80000000000E+02  0.80000000000E+02 0.  0.
          5    1    3    3  501    0 -0.14169200226E+02 -0.56357409539E+01 -0.36679451861E+02  0.40000000000E+02  0.47000000000E+01 0. -1.
         -5    1    3    3    0  501  0.14169200226E+02  0.56357409539E+01  0.36679451861E+02  0.40000000000E+02  0.47000000000E+01 0.  1.
</event>
<event>
 5    1  0.4833967E-001  0.8000000E+02  0.7546771E-02  0.1203772E+00
         11   -1    0    0    0    0  0.00000000000E+00  0.00000000000E+00  0.40000000000E+02  0.40000000000E+02  0.00000000000E+00 0.  1.
        -11   -1    0    0    0    0 -0.00000000000E+00 -0.00000000000E+00 -0.40000000000E+02  0.40000000000E+02  0.00000000000E+00 0. -1.
         23    2    1    2    0    0  0.00000000000E+00  0.00000000000E+00  0.00000000000E+00  0.80000000000E+02  0.80000000000E+02 0.  0.
          5    1    3    3  501    0 -0.36155174899E+02  0.32836884297E+01 -0.16122367019E+02  0.40000000000E+02  0.47000000000E+01 0. -1.
         -5    1    3    3    0  501  0.36155174899E+02 -0.32836884297E+01  0.16122367019E+02  0.40000000000E+02  0.47000000000E+01 0.  1.
</event>
<event>
 5    1  0.4833967E-001  0.8000000E+02  0.7546771E-02  0.1203772E+00
         11   -1    0    0    0    0  0.00000000000E+00  0.00000000000E+00  0.40000000000E+02  0.40000000000E+02  0.00000000000E+00 0.  1.
        -11   -1    0    0    0    0 -0.00000000000E+00 -0.00000000000E+00 -0.40000000000E+02  0.40000000000E+02  0.00000000000E+00 0. -1.
         23    2    1    2    0    0  0.00000000000E+00  0.00000000000E+00  0.00000000000E+00  0.80000000000E+02  0.80000000000E+02 0.  0.
          5    1    3    3  501    0  0.77854490153E+01  0.27994787451E+02 -0.27084841872E+02  0.40000000000E+02  0.47000000000E+01 0. -1.
         -5    1    3    3    0  501 -0.77854490153E+01 -0.27994787451E+02  0.27084841872E+02  0.40000000000E+02  0.47000000000E+01 0.  1.
</event>
<event>
 5    1  0.4833967E-001  0.8000000E+02  0.7546771E-02  0.1203772E+00
         11   -1    0    0    0    0  0.00000000000E+00  0.00000000000E+00  0.40000000000E+02  0.40000000000E+02  0.00000000000E+00 0. -1.
        -11   -1    0    0    0    0 -0.00000000000E+00 -0.00000000000E+00 -0.40000000000E+02  0.40000000000E+02  0.00000000000E+00 0.  1.
         23    2    1    2    0    0  0.00000000000E+00  0.00000000000E+00  0.00000000000E+00  0.80000000000E+02  0.80000000000E+02 0.  0.
          5    1    3    3  501    0  0.16855444667E+02  0.35934546344E+02 -0.15850438859E+01  0.40000000000E+02  0.47000000000E+01 0. -1.
         -5    1    3    3    0  501 -0.16855444667E+02 -0.35934546344E+02  0.15850438859E+01  0.40000000000E+02  0.47000000000E+01 0.  1.
</event>
<event>
 5    1  0.4833967E-001  0.8000000E+02  0.7546771E-02  0.1203772E+00
         11   -1    0    0    0    0  0.00000000000E+00  0.00000000000E+00  0.40000000000E+02  0.40000000000E+02  0.00000000000E+00 0.  1.
        -11   -1    0    0    0    0 -0.00000000000E+00 -0.00000000000E+00 -0.40000000000E+02  0.40000000000E+02  0.00000000000E+00 0. -1.
         23    2    1    2    0    0  0.00000000000E+00  0.00000000000E+00  0.00000000000E+00  0.80000000000E+02  0.80000000000E+02 0.  0.
          5    1    3    3  501    0 -0.12366933208E+02 -0.21405116649E+02 -0.31093245959E+02  0.40000000000E+02  0.47000000000E+01 0. -1.
         -5    1    3    3    0  501  0.12366933208E+02  0.21405116649E+02  0.31093245959E+02  0.40000000000E+02  0.47000000000E+01 0.  1.
</event>
<event>
 5    1  0.4833967E-001  0.8000000E+02  0.7546771E-02  0.1203772E+00
         11   -1    0    0    0    0  0.00000000000E+00  0.00000000000E+00  0.40000000000E+02  0.40000000000E+02  0.00000000000E+00 0. -1.
        -11   -1    0    0    0    0 -0.00000000000E+00 -0.00000000000E+00 -0.40000000000E+02  0.40000000000E+02  0.00000000000E+00 0.  1.
         23    2    1    2    0    0  0.00000000000E+00  0.00000000000E+00  0.00000000000E+00  0.80000000000E+02  0.80000000000E+02 0.  0.
          5    1    3    3  501    0 -0.95536113036E+00  0.17607095879E+02  0.35594767309E+02  0.40000000000E+02  0.47000000000E+01 0. -1.
         -5    1    3    3    0  501  0.95536113036E+00 -0.17607095879E+02 -0.35594767309E+02  0.40000000000E+02  0.47000000000E+01 0.  1.
</event>
<event>
 5    1  0.4833967E-001  0.8000000E+02  0.7546771E-02  0.1203772E+00
         11   -1    0    0    0    0  0.00000000000E+00  0.00000000000E+00  0.40000000000E+02  0.40000000000E+02  0.00000000000E+00 0.  1.
        -11   -1    0    0    0    0 -0.00000000000E+00 -0.00000000000E+00 -0.40000000000E+02  0.40000000000E+02  0.00000000000E+00 0. -1.
         23    2    1    2    0    0  0.00000000000E+00  0.00000000000E+00  0.00000000000E+00  0.80000000000E+02  0.80000000000E+02 0.  0.
          5    1    3    3  501    0 -0.23958545301E+02  0.16455446345E+02 -0.27076122186E+02  0.40000000000E+02  0.47000000000E+01 0. -1.
         -5    1    3    3    0  501  0.23958545301E+02 -0.16455446345E+02  0.27076122186E+02  0.40000000000E+02  0.47000000000E+01 0.  1.
</event>
<event>
 5    1  0.4833967E-001  0.8000000E+02  0.7546771E-02  0.1203772E+00
         11   -1    0    0    0    0  0.00000000000E+00  0.00000000000E+00  0.40000000000E+02  0.40000000000E+02  0.00000000000E+00 0.  1.
        -11   -1    0    0    0    0 -0.00000000000E+00 -0.00000000000E+00 -0.40000000000E+02  0.40000000000E+02  0.00000000000E+00 0. -1.
         23    2    1    2    0    0  0.00000000000E+00  0.00000000000E+00  0.00000000000E+00  0.80000000000E+02  0.80000000000E+02 0.  0.
          5    1    3    3  501    0  0.25311842843E+02  0.24376336710E+02 -0.18520659290E+02  0.40000000000E+02  0.47000000000E+01 0. -1.
         -5    1    3    3    0  501 -0.25311842843E+02 -0.24376336710E+02  0.18520659290E+02  0.40000000000E+02  0.47000000000E+01 0.  1.
</event>
<event>
 5    1  0.4833967E-001  0.8000000E+02  0.7546771E-02  0.1203772E+00
         11   -1    0    0    0    0  0.00000000000E+00  0.00000000000E+00  0.40000000000E+02  0.40000000000E+02  0.00000000000E+00 0.  1.
        -11   -1    0    0    0    0 -0.00000000000E+00 -0.00000000000E+00 -0.40000000000E+02  0.40000000000E+02  0.00000000000E+00 0. -1.
         23    2    1    2    0    0  0.00000000000E+00  0.00000000000E+00  0.00000000000E+00  0.80000000000E+02  0.80000000000E+02 0.  0.
          5    1    3    3  501    0 -0.17908742164E+02  0.21148923639E+02 -0.28458917460E+02  0.40000000000E+02  0.47000000000E+01 0. -1.
         -5    1    3    3    0  501  0.17908742164E+02 -0.21148923639E+02  0.28458917460E+02  0.40000000000E+02  0.47000000000E+01 0.  1.
</event>
<event>
 5    1  0.4833967E-001  0.8000000E+02  0.7546771E-02  0.1203772E+00
         11   -1    0    0    0    0  0.00000000000E+00  0.00000000000E+00  0.40000000000E+02  0.40000000000E+02  0.00000000000E+00 0.  1.
        -11   -1    0    0    0    0 -0.00000000000E+00 -0.00000000000E+00 -0.40000000000E+02  0.40000000000E+02  0.00000000000E+00 0. -1.
         23    2    1    2    0    0  0.00000000000E+00  0.00000000000E+00  0.00000000000E+00  0.80000000000E+02  0.80000000000E+02 0.  0.
          5    1    3    3  501    0 -0.81449349631E+01  0.38608774842E+02 -0.45752092503E+01  0.40000000000E+02  0.47000000000E+01 0. -1.
         -5    1    3    3    0  501  0.81449349631E+01 -0.38608774842E+02  0.45752092503E+01  0.40000000000E+02  0.47000000000E+01 0.  1.
</event>
<event>
 5    1  0.4833967E-001  0.8000000E+02  0.7546771E-02  0.1203772E+00
         11   -1    0    0    0    0  0.00000000000E+00  0.00000000000E+00  0.40000000000E+02  0.40000000000E+02  0.00000000000E+00 0.  1.
        -11   -1    0    0    0    0 -0.00000000000E+00 -0.00000000000E+00 -0.40000000000E+02  0.40000000000E+02  0.00000000000E+00 0. -1.
         23    2    1    2    0    0  0.00000000000E+00  0.00000000000E+00  0.00000000000E+00  0.80000000000E+02  0.80000000000E+02 0.  0.
          5    1    3    3  501    0  0.36480829688E+02 -0.26317741362E+01 -0.15496219868E+02  0.40000000000E+02  0.47000000000E+01 0. -1.
         -5    1    3    3    0  501 -0.36480829688E+02  0.26317741362E+01  0.15496219868E+02  0.40000000000E+02  0.47000000000E+01 0.  1.
</event>
<event>
 5    1  0.4833967E-001  0.8000000E+02  0.7546771E-02  0.1203772E+00
         11   -1    0    0    0    0  0.00000000000E+00  0.00000000000E+00  0.40000000000E+02  0.40000000000E+02  0.00000000000E+00 0. -1.
        -11   -1    0    0    0    0 -0.00000000000E+00 -0.00000000000E+00 -0.40000000000E+02  0.40000000000E+02  0.00000000000E+00 0.  1.
         23    2    1    2    0    0  0.00000000000E+00  0.00000000000E+00  0.00000000000E+00  0.80000000000E+02  0.80000000000E+02 0.  0.
          5    1    3    3  501    0  0.28136243821E+02  0.27206513845E+02 -0.67872960783E+01  0.40000000000E+02  0.47000000000E+01 0. -1.
         -5    1    3    3    0  501 -0.28136243821E+02 -0.27206513845E+02  0.67872960783E+01  0.40000000000E+02  0.47000000000E+01 0.  1.
</event>
<event>
 5    1  0.4833967E-001  0.8000000E+02  0.7546771E-02  0.1203772E+00
         11   -1    0    0    0    0  0.00000000000E+00  0.00000000000E+00  0.40000000000E+02  0.40000000000E+02  0.00000000000E+00 0. -1.
        -11   -1    0    0    0    0 -0.00000000000E+00 -0.00000000000E+00 -0.40000000000E+02  0.40000000000E+02  0.00000000000E+00 0.  1.
         23    2    1    2    0    0  0.00000000000E+00  0.00000000000E+00  0.00000000000E+00  0.80000000000E+02  0.80000000000E+02 0.  0.
          5    1    3    3  501    0 -0.34551418375E+02  0.19552883301E+02  0.13394935151E+01  0.40000000000E+02  0.47000000000E+01 0. -1.
         -5    1    3    3    0  501  0.34551418375E+02 -0.19552883301E+02 -0.13394935151E+01  0.40000000000E+02  0.47000000000E+01 0.  1.
</event>
<event>
 5    1  0.4833967E-001  0.8000000E+02  0.7546771E-02  0.1203772E+00
         11   -1    0    0    0    0  0.00000000000E+00  0.00000000000E+00  0.40000000000E+02  0.40000000000E+02  0.00000000000E+00 0. -1.
        -11   -1    0    0    0    0 -0.00000000000E+00 -0.00000000000E+00 -0.40000000000E+02  0.40000000000E+02  0.00000000000E+00 0.  1.
         23    2    1    2    0    0  0.00000000000E+00  0.00000000000E+00  0.00000000000E+00  0.80000000000E+02  0.80000000000E+02 0.  0.
          5    1    3    3  501    0 -0.34883261138E+02 -0.98017741915E+01 -0.16278615270E+02  0.40000000000E+02  0.47000000000E+01 0.  1.
         -5    1    3    3    0  501  0.34883261138E+02  0.98017741915E+01  0.16278615270E+02  0.40000000000E+02  0.47000000000E+01 0. -1.
</event>
<event>
 5    1  0.4833967E-001  0.8000000E+02  0.7546771E-02  0.1203772E+00
         11   -1    0    0    0    0  0.00000000000E+00  0.00000000000E+00  0.40000000000E+02  0.40000000000E+02  0.00000000000E+00 0. -1.
        -11   -1    0    0    0    0 -0.00000000000E+00 -0.00000000000E+00 -0.40000000000E+02  0.40000000000E+02  0.00000000000E+00 0.  1.
         23    2    1    2    0    0  0.00000000000E+00  0.00000000000E+00  0.00000000000E+00  0.80000000000E+02  0.80000000000E+02 0.  0.
          5    1    3    3  501    0 -0.21288896563E+02  0.33085594288E+02  0.54805413741E+01  0.40000000000E+02  0.47000000000E+01 0. -1.
         -5    1    3    3    0  501  0.21288896563E+02 -0.33085594288E+02 -0.54805413741E+01  0.40000000000E+02  0.47000000000E+01 0.  1.
</event>
<event>
 5    1  0.4833967E-001  0.8000000E+02  0.7546771E-02  0.1203772E+00
         11   -1    0    0    0    0  0.00000000000E+00  0.00000000000E+00  0.40000000000E+02  0.40000000000E+02  0.00000000000E+00 0. -1.
        -11   -1    0    0    0    0 -0.00000000000E+00 -0.00000000000E+00 -0.40000000000E+02  0.40000000000E+02  0.00000000000E+00 0.  1.
         23    2    1    2    0    0  0.00000000000E+00  0.00000000000E+00  0.00000000000E+00  0.80000000000E+02  0.80000000000E+02 0.  0.
          5    1    3    3  501    0  0.33305755724E+02  0.21569670831E+02  0.18400912785E+01  0.40000000000E+02  0.47000000000E+01 0. -1.
         -5    1    3    3    0  501 -0.33305755724E+02 -0.21569670831E+02 -0.18400912785E+01  0.40000000000E+02  0.47000000000E+01 0.  1.
</event>
<event>
 5    1  0.4833967E-001  0.8000000E+02  0.7546771E-02  0.1203772E+00
         11   -1    0    0    0    0  0.00000000000E+00  0.00000000000E+00  0.40000000000E+02  0.40000000000E+02  0.00000000000E+00 0.  1.
        -11   -1    0    0    0    0 -0.00000000000E+00 -0.00000000000E+00 -0.40000000000E+02  0.40000000000E+02  0.00000000000E+00 0. -1.
         23    2    1    2    0    0  0.00000000000E+00  0.00000000000E+00  0.00000000000E+00  0.80000000000E+02  0.80000000000E+02 0.  0.
          5    1    3    3  501    0 -0.19834593492E+02  0.33306909053E+02 -0.86688355807E+01  0.40000000000E+02  0.47000000000E+01 0. -1.
         -5    1    3    3    0  501  0.19834593492E+02 -0.33306909053E+02  0.86688355807E+01  0.40000000000E+02  0.47000000000E+01 0.  1.
</event>
<event>
 5    1  0.4833967E-001  0.8000000E+02  0.7546771E-02  0.1203772E+00
         11   -1    0    0    0    0  0.00000000000E+00  0.00000000000E+00  0.40000000000E+02  0.40000000000E+02  0.00000000000E+00 0.  1.
        -11   -1    0    0    0    0 -0.00000000000E+00 -0.00000000000E+00 -0.40000000000E+02  0.40000000000E+02  0.00000000000E+00 0. -1.
         23    2    1    2    0    0  0.00000000000E+00  0.00000000000E+00  0.00000000000E+00  0.80000000000E+02  0.80000000000E+02 0.  0.
          5    1    3    3  501    0  0.11703553866E+02 -0.33813088168E+02 -0.17251431693E+02  0.40000000000E+02  0.47000000000E+01 0. -1.
         -5    1    3    3    0  501 -0.11703553866E+02  0.33813088168E+02  0.17251431693E+02  0.40000000000E+02  0.47000000000E+01 0.  1.
</event>
<event>
 5    1  0.4833967E-001  0.8000000E+02  0.7546771E-02  0.1203772E+00
         11   -1    0    0    0    0  0.00000000000E+00  0.00000000000E+00  0.40000000000E+02  0.40000000000E+02  0.00000000000E+00 0.  1.
        -11   -1    0    0    0    0 -0.00000000000E+00 -0.00000000000E+00 -0.40000000000E+02  0.40000000000E+02  0.00000000000E+00 0. -1.
         23    2    1    2    0    0  0.00000000000E+00  0.00000000000E+00  0.00000000000E+00  0.80000000000E+02  0.80000000000E+02 0.  0.
          5    1    3    3  501    0 -0.25037297912E+02  0.73617619682E+01 -0.29947423495E+02  0.40000000000E+02  0.47000000000E+01 0. -1.
         -5    1    3    3    0  501  0.25037297912E+02 -0.73617619682E+01  0.29947423495E+02  0.40000000000E+02  0.47000000000E+01 0.  1.
</event>
<event>
 5    1  0.4833967E-001  0.8000000E+02  0.7546771E-02  0.1203772E+00
         11   -1    0    0    0    0  0.00000000000E+00  0.00000000000E+00  0.40000000000E+02  0.40000000000E+02  0.00000000000E+00 0.  1.
        -11   -1    0    0    0    0 -0.00000000000E+00 -0.00000000000E+00 -0.40000000000E+02  0.40000000000E+02  0.00000000000E+00 0. -1.
         23    2    1    2    0    0  0.00000000000E+00  0.00000000000E+00  0.00000000000E+00  0.80000000000E+02  0.80000000000E+02 0.  0.
          5    1    3    3  501    0  0.36595830936E+02 -0.61354047171E+01 -0.14177868919E+02  0.40000000000E+02  0.47000000000E+01 0. -1.
         -5    1    3    3    0  501 -0.36595830936E+02  0.61354047171E+01  0.14177868919E+02  0.40000000000E+02  0.47000000000E+01 0.  1.
</event>
<event>
 5    1  0.4833967E-001  0.8000000E+02  0.7546771E-02  0.1203772E+00
         11   -1    0    0    0    0  0.00000000000E+00  0.00000000000E+00  0.40000000000E+02  0.40000000000E+02  0.00000000000E+00 0. -1.
        -11   -1    0    0    0    0 -0.00000000000E+00 -0.00000000000E+00 -0.40000000000E+02  0.40000000000E+02  0.00000000000E+00 0.  1.
         23    2    1    2    0    0  0.00000000000E+00  0.00000000000E+00  0.00000000000E+00  0.80000000000E+02  0.80000000000E+02 0.  0.
          5    1    3    3  501    0  0.55609534602E+01 -0.22270674803E+02  0.32419173963E+02  0.40000000000E+02  0.47000000000E+01 0. -1.
         -5    1    3    3    0  501 -0.55609534602E+01  0.22270674803E+02 -0.32419173963E+02  0.40000000000E+02  0.47000000000E+01 0.  1.
</event>
<event>
 5    1  0.4833967E-001  0.8000000E+02  0.7546771E-02  0.1203772E+00
         11   -1    0    0    0    0  0.00000000000E+00  0.00000000000E+00  0.40000000000E+02  0.40000000000E+02  0.00000000000E+00 0.  1.
        -11   -1    0    0    0    0 -0.00000000000E+00 -0.00000000000E+00 -0.40000000000E+02  0.40000000000E+02  0.00000000000E+00 0. -1.
         23    2    1    2    0    0  0.00000000000E+00  0.00000000000E+00  0.00000000000E+00  0.80000000000E+02  0.80000000000E+02 0.  0.
          5    1    3    3  501    0 -0.33839862543E+02 -0.30146437010E+01 -0.20583625202E+02  0.40000000000E+02  0.47000000000E+01 0. -1.
         -5    1    3    3    0  501  0.33839862543E+02  0.30146437010E+01  0.20583625202E+02  0.40000000000E+02  0.47000000000E+01 0.  1.
</event>
<event>
 5    1  0.4833967E-001  0.8000000E+02  0.7546771E-02  0.1203772E+00
         11   -1    0    0    0    0  0.00000000000E+00  0.00000000000E+00  0.40000000000E+02  0.40000000000E+02  0.00000000000E+00 0.  1.
        -11   -1    0    0    0    0 -0.00000000000E+00 -0.00000000000E+00 -0.40000000000E+02  0.40000000000E+02  0.00000000000E+00 0. -1.
         23    2    1    2    0    0  0.00000000000E+00  0.00000000000E+00  0.00000000000E+00  0.80000000000E+02  0.80000000000E+02 0.  0.
          5    1    3    3  501    0  0.33935576797E+02  0.10892582249E+02 -0.17539620275E+02  0.40000000000E+02  0.47000000000E+01 0. -1.
         -5    1    3    3    0  501 -0.33935576797E+02 -0.10892582249E+02  0.17539620275E+02  0.40000000000E+02  0.47000000000E+01 0.  1.
</event>
<event>
 5    1  0.4833967E-001  0.8000000E+02  0.7546771E-02  0.1203772E+00
         11   -1    0    0    0    0  0.00000000000E+00  0.00000000000E+00  0.40000000000E+02  0.40000000000E+02  0.00000000000E+00 0. -1.
        -11   -1    0    0    0    0 -0.00000000000E+00 -0.00000000000E+00 -0.40000000000E+02  0.40000000000E+02  0.00000000000E+00 0.  1.
         23    2    1    2    0    0  0.00000000000E+00  0.00000000000E+00  0.00000000000E+00  0.80000000000E+02  0.80000000000E+02 0.  0.
          5    1    3    3  501    0 -0.25464122690E+02  0.30141487415E+02 -0.45803047958E+01  0.40000000000E+02  0.47000000000E+01 0. -1.
         -5    1    3    3    0  501  0.25464122690E+02 -0.30141487415E+02  0.45803047958E+01  0.40000000000E+02  0.47000000000E+01 0.  1.
</event>
<event>
 5    1  0.4833967E-001  0.8000000E+02  0.7546771E-02  0.1203772E+00
         11   -1    0    0    0    0  0.00000000000E+00  0.00000000000E+00  0.40000000000E+02  0.40000000000E+02  0.00000000000E+00 0. -1.
        -11   -1    0    0    0    0 -0.00000000000E+00 -0.00000000000E+00 -0.40000000000E+02  0.40000000000E+02  0.00000000000E+00 0.  1.
         23    2    1    2    0    0  0.00000000000E+00  0.00000000000E+00  0.00000000000E+00  0.80000000000E+02  0.80000000000E+02 0.  0.
          5    1    3    3  501    0 -0.97398090592E+01  0.37980962973E+02  0.63633773374E+01  0.40000000000E+02  0.47000000000E+01 0. -1.
         -5    1    3    3    0  501  0.97398090592E+01 -0.37980962973E+02 -0.63633773374E+01  0.40000000000E+02  0.47000000000E+01 0.  1.
</event>
<event>
 5    1  0.4833967E-001  0.8000000E+02  0.7546771E-02  0.1203772E+00
         11   -1    0    0    0    0  0.00000000000E+00  0.00000000000E+00  0.40000000000E+02  0.40000000000E+02  0.00000000000E+00 0.  1.
        -11   -1    0    0    0    0 -0.00000000000E+00 -0.00000000000E+00 -0.40000000000E+02  0.40000000000E+02  0.00000000000E+00 0. -1.
         23    2    1    2    0    0  0.00000000000E+00  0.00000000000E+00  0.00000000000E+00  0.80000000000E+02  0.80000000000E+02 0.  0.
          5    1    3    3  501    0 -0.14020974998E+01 -0.19109383929E+01 -0.39652142906E+02  0.40000000000E+02  0.47000000000E+01 0. -1.
         -5    1    3    3    0  501  0.14020974998E+01  0.19109383929E+01  0.39652142906E+02  0.40000000000E+02  0.47000000000E+01 0.  1.
</event>
<event>
 5    1  0.4833967E-001  0.8000000E+02  0.7546771E-02  0.1203772E+00
         11   -1    0    0    0    0  0.00000000000E+00  0.00000000000E+00  0.40000000000E+02  0.40000000000E+02  0.00000000000E+00 0. -1.
        -11   -1    0    0    0    0 -0.00000000000E+00 -0.00000000000E+00 -0.40000000000E+02  0.40000000000E+02  0.00000000000E+00 0.  1.
         23    2    1    2    0    0  0.00000000000E+00  0.00000000000E+00  0.00000000000E+00  0.80000000000E+02  0.80000000000E+02 0.  0.
          5    1    3    3  501    0 -0.36022503940E+02 -0.77733894675E+01  0.14827799097E+02  0.40000000000E+02  0.47000000000E+01 0. -1.
         -5    1    3    3    0  501  0.36022503940E+02  0.77733894675E+01 -0.14827799097E+02  0.40000000000E+02  0.47000000000E+01 0.  1.
</event>
<event>
 5    1  0.4833967E-001  0.8000000E+02  0.7546771E-02  0.1203772E+00
         11   -1    0    0    0    0  0.00000000000E+00  0.00000000000E+00  0.40000000000E+02  0.40000000000E+02  0.00000000000E+00 0.  1.
        -11   -1    0    0    0    0 -0.00000000000E+00 -0.00000000000E+00 -0.40000000000E+02  0.40000000000E+02  0.00000000000E+00 0. -1.
         23    2    1    2    0    0  0.00000000000E+00  0.00000000000E+00  0.00000000000E+00  0.80000000000E+02  0.80000000000E+02 0.  0.
          5    1    3    3  501    0 -0.16630561522E+02  0.10902805323E+02 -0.34386963511E+02  0.40000000000E+02  0.47000000000E+01 0. -1.
         -5    1    3    3    0  501  0.16630561522E+02 -0.10902805323E+02  0.34386963511E+02  0.40000000000E+02  0.47000000000E+01 0.  1.
</event>
<event>
 5    1  0.4833967E-001  0.8000000E+02  0.7546771E-02  0.1203772E+00
         11   -1    0    0    0    0  0.00000000000E+00  0.00000000000E+00  0.40000000000E+02  0.40000000000E+02  0.00000000000E+00 0.  1.
        -11   -1    0    0    0    0 -0.00000000000E+00 -0.00000000000E+00 -0.40000000000E+02  0.40000000000E+02  0.00000000000E+00 0. -1.
         23    2    1    2    0    0  0.00000000000E+00  0.00000000000E+00  0.00000000000E+00  0.80000000000E+02  0.80000000000E+02 0.  0.
          5    1    3    3  501    0  0.80488323285E+01 -0.38739092257E+02  0.35226452036E+01  0.40000000000E+02  0.47000000000E+01 0. -1.
         -5    1    3    3    0  501 -0.80488323285E+01  0.38739092257E+02 -0.35226452036E+01  0.40000000000E+02  0.47000000000E+01 0.  1.
</event>
<event>
 5    1  0.4833967E-001  0.8000000E+02  0.7546771E-02  0.1203772E+00
         11   -1    0    0    0    0  0.00000000000E+00  0.00000000000E+00  0.40000000000E+02  0.40000000000E+02  0.00000000000E+00 0. -1.
        -11   -1    0    0    0    0 -0.00000000000E+00 -0.00000000000E+00 -0.40000000000E+02  0.40000000000E+02  0.00000000000E+00 0.  1.
         23    2    1    2    0    0  0.00000000000E+00  0.00000000000E+00  0.00000000000E+00  0.80000000000E+02  0.80000000000E+02 0.  0.
          5    1    3    3  501    0 -0.36308056568E+02 -0.11142558713E+02  0.11639519472E+02  0.40000000000E+02  0.47000000000E+01 0. -1.
         -5    1    3    3    0  501  0.36308056568E+02  0.11142558713E+02 -0.11639519472E+02  0.40000000000E+02  0.47000000000E+01 0.  1.
</event>
<event>
 5    1  0.4833967E-001  0.8000000E+02  0.7546771E-02  0.1203772E+00
         11   -1    0    0    0    0  0.00000000000E+00  0.00000000000E+00  0.40000000000E+02  0.40000000000E+02  0.00000000000E+00 0. -1.
        -11   -1    0    0    0    0 -0.00000000000E+00 -0.00000000000E+00 -0.40000000000E+02  0.40000000000E+02  0.00000000000E+00 0.  1.
         23    2    1    2    0    0  0.00000000000E+00  0.00000000000E+00  0.00000000000E+00  0.80000000000E+02  0.80000000000E+02 0.  0.
          5    1    3    3  501    0  0.17992252389E+02  0.75293158004E+01  0.34604887770E+02  0.40000000000E+02  0.47000000000E+01 0. -1.
         -5    1    3    3    0  501 -0.17992252389E+02 -0.75293158004E+01 -0.34604887770E+02  0.40000000000E+02  0.47000000000E+01 0.  1.
</event>
<event>
 5    1  0.4833967E-001  0.8000000E+02  0.7546771E-02  0.1203772E+00
         11   -1    0    0    0    0  0.00000000000E+00  0.00000000000E+00  0.40000000000E+02  0.40000000000E+02  0.00000000000E+00 0. -1.
        -11   -1    0    0    0    0 -0.00000000000E+00 -0.00000000000E+00 -0.40000000000E+02  0.40000000000E+02  0.00000000000E+00 0.  1.
         23    2    1    2    0    0  0.00000000000E+00  0.00000000000E+00  0.00000000000E+00  0.80000000000E+02  0.80000000000E+02 0.  0.
          5    1    3    3  501    0 -0.29098002536E+02 -0.23576675368E+02  0.13242228930E+02  0.40000000000E+02  0.47000000000E+01 0. -1.
         -5    1    3    3    0  501  0.29098002536E+02  0.23576675368E+02 -0.13242228930E+02  0.40000000000E+02  0.47000000000E+01 0.  1.
</event>
<event>
 5    1  0.4833967E-001  0.8000000E+02  0.7546771E-02  0.1203772E+00
         11   -1    0    0    0    0  0.00000000000E+00  0.00000000000E+00  0.40000000000E+02  0.40000000000E+02  0.00000000000E+00 0. -1.
        -11   -1    0    0    0    0 -0.00000000000E+00 -0.00000000000E+00 -0.40000000000E+02  0.40000000000E+02  0.00000000000E+00 0.  1.
         23    2    1    2    0    0  0.00000000000E+00  0.00000000000E+00  0.00000000000E+00  0.80000000000E+02  0.80000000000E+02 0.  0.
          5    1    3    3  501    0 -0.38418304554E+02  0.95033993798E+01  0.34101723433E+01  0.40000000000E+02  0.47000000000E+01 0.  1.
         -5    1    3    3    0  501  0.38418304554E+02 -0.95033993798E+01 -0.34101723433E+01  0.40000000000E+02  0.47000000000E+01 0. -1.
</event>
<event>
 5    1  0.4833967E-001  0.8000000E+02  0.7546771E-02  0.1203772E+00
         11   -1    0    0    0    0  0.00000000000E+00  0.00000000000E+00  0.40000000000E+02  0.40000000000E+02  0.00000000000E+00 0.  1.
        -11   -1    0    0    0    0 -0.00000000000E+00 -0.00000000000E+00 -0.40000000000E+02  0.40000000000E+02  0.00000000000E+00 0. -1.
         23    2    1    2    0    0  0.00000000000E+00  0.00000000000E+00  0.00000000000E+00  0.80000000000E+02  0.80000000000E+02 0.  0.
          5    1    3    3  501    0 -0.11790304159E+02 -0.63376333233E+01 -0.37399640796E+02  0.40000000000E+02  0.47000000000E+01 0. -1.
         -5    1    3    3    0  501  0.11790304159E+02  0.63376333233E+01  0.37399640796E+02  0.40000000000E+02  0.47000000000E+01 0.  1.
</event>
<event>
 5    1  0.4833967E-001  0.8000000E+02  0.7546771E-02  0.1203772E+00
         11   -1    0    0    0    0  0.00000000000E+00  0.00000000000E+00  0.40000000000E+02  0.40000000000E+02  0.00000000000E+00 0. -1.
        -11   -1    0    0    0    0 -0.00000000000E+00 -0.00000000000E+00 -0.40000000000E+02  0.40000000000E+02  0.00000000000E+00 0.  1.
         23    2    1    2    0    0  0.00000000000E+00  0.00000000000E+00  0.00000000000E+00  0.80000000000E+02  0.80000000000E+02 0.  0.
          5    1    3    3  501    0 -0.45055730795E+01  0.17144832891E+02  0.35548059249E+02  0.40000000000E+02  0.47000000000E+01 0. -1.
         -5    1    3    3    0  501  0.45055730795E+01 -0.17144832891E+02 -0.35548059249E+02  0.40000000000E+02  0.47000000000E+01 0.  1.
</event>
<event>
 5    1  0.4833967E-001  0.8000000E+02  0.7546771E-02  0.1203772E+00
         11   -1    0    0    0    0  0.00000000000E+00  0.00000000000E+00  0.40000000000E+02  0.40000000000E+02  0.00000000000E+00 0. -1.
        -11   -1    0    0    0    0 -0.00000000000E+00 -0.00000000000E+00 -0.40000000000E+02  0.40000000000E+02  0.00000000000E+00 0.  1.
         23    2    1    2    0    0  0.00000000000E+00  0.00000000000E+00  0.00000000000E+00  0.80000000000E+02  0.80000000000E+02 0.  0.
          5    1    3    3  501    0  0.13199611338E+02 -0.31912162984E+02  0.19628910163E+02  0.40000000000E+02  0.47000000000E+01 0. -1.
         -5    1    3    3    0  501 -0.13199611338E+02  0.31912162984E+02 -0.19628910163E+02  0.40000000000E+02  0.47000000000E+01 0.  1.
</event>
<event>
 5    1  0.4833967E-001  0.8000000E+02  0.7546771E-02  0.1203772E+00
         11   -1    0    0    0    0  0.00000000000E+00  0.00000000000E+00  0.40000000000E+02  0.40000000000E+02  0.00000000000E+00 0. -1.
        -11   -1    0    0    0    0 -0.00000000000E+00 -0.00000000000E+00 -0.40000000000E+02  0.40000000000E+02  0.00000000000E+00 0.  1.
         23    2    1    2    0    0  0.00000000000E+00  0.00000000000E+00  0.00000000000E+00  0.80000000000E+02  0.80000000000E+02 0.  0.
          5    1    3    3  501    0 -0.32408580265E+02  0.27217722317E+01  0.22807583851E+02  0.40000000000E+02  0.47000000000E+01 0. -1.
         -5    1    3    3    0  501  0.32408580265E+02 -0.27217722317E+01 -0.22807583851E+02  0.40000000000E+02  0.47000000000E+01 0.  1.
</event>
<event>
 5    1  0.4833967E-001  0.8000000E+02  0.7546771E-02  0.1203772E+00
         11   -1    0    0    0    0  0.00000000000E+00  0.00000000000E+00  0.40000000000E+02  0.40000000000E+02  0.00000000000E+00 0. -1.
        -11   -1    0    0    0    0 -0.00000000000E+00 -0.00000000000E+00 -0.40000000000E+02  0.40000000000E+02  0.00000000000E+00 0.  1.
         23    2    1    2    0    0  0.00000000000E+00  0.00000000000E+00  0.00000000000E+00  0.80000000000E+02  0.80000000000E+02 0.  0.
          5    1    3    3  501    0 -0.37534199792E+01 -0.20223127249E+02  0.33983039339E+02  0.40000000000E+02  0.47000000000E+01 0. -1.
         -5    1    3    3    0  501  0.37534199792E+01  0.20223127249E+02 -0.33983039339E+02  0.40000000000E+02  0.47000000000E+01 0.  1.
</event>
<event>
 5    1  0.4833967E-001  0.8000000E+02  0.7546771E-02  0.1203772E+00
         11   -1    0    0    0    0  0.00000000000E+00  0.00000000000E+00  0.40000000000E+02  0.40000000000E+02  0.00000000000E+00 0. -1.
        -11   -1    0    0    0    0 -0.00000000000E+00 -0.00000000000E+00 -0.40000000000E+02  0.40000000000E+02  0.00000000000E+00 0.  1.
         23    2    1    2    0    0  0.00000000000E+00  0.00000000000E+00  0.00000000000E+00  0.80000000000E+02  0.80000000000E+02 0.  0.
          5    1    3    3  501    0  0.39558774151E+02 -0.13778117712E+01 -0.33339199737E+01  0.40000000000E+02  0.47000000000E+01 0. -1.
         -5    1    3    3    0  501 -0.39558774151E+02  0.13778117712E+01  0.33339199737E+01  0.40000000000E+02  0.47000000000E+01 0.  1.
</event>
<event>
 5    1  0.4833967E-001  0.8000000E+02  0.7546771E-02  0.1203772E+00
         11   -1    0    0    0    0  0.00000000000E+00  0.00000000000E+00  0.40000000000E+02  0.40000000000E+02  0.00000000000E+00 0. -1.
        -11   -1    0    0    0    0 -0.00000000000E+00 -0.00000000000E+00 -0.40000000000E+02  0.40000000000E+02  0.00000000000E+00 0.  1.
         23    2    1    2    0    0  0.00000000000E+00  0.00000000000E+00  0.00000000000E+00  0.80000000000E+02  0.80000000000E+02 0.  0.
          5    1    3    3  501    0 -0.46488155520E+01  0.39385370554E+02  0.22563466770E+01  0.40000000000E+02  0.47000000000E+01 0. -1.
         -5    1    3    3    0  501  0.46488155520E+01 -0.39385370554E+02 -0.22563466770E+01  0.40000000000E+02  0.47000000000E+01 0.  1.
</event>
<event>
 5    1  0.4833967E-001  0.8000000E+02  0.7546771E-02  0.1203772E+00
         11   -1    0    0    0    0  0.00000000000E+00  0.00000000000E+00  0.40000000000E+02  0.40000000000E+02  0.00000000000E+00 0.  1.
        -11   -1    0    0    0    0 -0.00000000000E+00 -0.00000000000E+00 -0.40000000000E+02  0.40000000000E+02  0.00000000000E+00 0. -1.
         23    2    1    2    0    0  0.00000000000E+00  0.00000000000E+00  0.00000000000E+00  0.80000000000E+02  0.80000000000E+02 0.  0.
          5    1    3    3  501    0  0.15509462365E+02  0.36121663465E+01 -0.36391191674E+02  0.40000000000E+02  0.47000000000E+01 0. -1.
         -5    1    3    3    0  501 -0.15509462365E+02 -0.36121663465E+01  0.36391191674E+02  0.40000000000E+02  0.47000000000E+01 0.  1.
</event>
<event>
 5    1  0.4833967E-001  0.8000000E+02  0.7546771E-02  0.1203772E+00
         11   -1    0    0    0    0  0.00000000000E+00  0.00000000000E+00  0.40000000000E+02  0.40000000000E+02  0.00000000000E+00 0.  1.
        -11   -1    0    0    0    0 -0.00000000000E+00 -0.00000000000E+00 -0.40000000000E+02  0.40000000000E+02  0.00000000000E+00 0. -1.
         23    2    1    2    0    0  0.00000000000E+00  0.00000000000E+00  0.00000000000E+00  0.80000000000E+02  0.80000000000E+02 0.  0.
          5    1    3    3  501    0 -0.67879243170E+01  0.10552972200E+02 -0.37689107992E+02  0.40000000000E+02  0.47000000000E+01 0. -1.
         -5    1    3    3    0  501  0.67879243170E+01 -0.10552972200E+02  0.37689107992E+02  0.40000000000E+02  0.47000000000E+01 0.  1.
</event>
<event>
 5    1  0.4833967E-001  0.8000000E+02  0.7546771E-02  0.1203772E+00
         11   -1    0    0    0    0  0.00000000000E+00  0.00000000000E+00  0.40000000000E+02  0.40000000000E+02  0.00000000000E+00 0.  1.
        -11   -1    0    0    0    0 -0.00000000000E+00 -0.00000000000E+00 -0.40000000000E+02  0.40000000000E+02  0.00000000000E+00 0. -1.
         23    2    1    2    0    0  0.00000000000E+00  0.00000000000E+00  0.00000000000E+00  0.80000000000E+02  0.80000000000E+02 0.  0.
          5    1    3    3  501    0 -0.27679129811E+02  0.16877596542E+02 -0.22954792700E+02  0.40000000000E+02  0.47000000000E+01 0. -1.
         -5    1    3    3    0  501  0.27679129811E+02 -0.16877596542E+02  0.22954792700E+02  0.40000000000E+02  0.47000000000E+01 0.  1.
</event>
<event>
 5    1  0.4833967E-001  0.8000000E+02  0.7546771E-02  0.1203772E+00
         11   -1    0    0    0    0  0.00000000000E+00  0.00000000000E+00  0.40000000000E+02  0.40000000000E+02  0.00000000000E+00 0. -1.
        -11   -1    0    0    0    0 -0.00000000000E+00 -0.00000000000E+00 -0.40000000000E+02  0.40000000000E+02  0.00000000000E+00 0.  1.
         23    2    1    2    0    0  0.00000000000E+00  0.00000000000E+00  0.00000000000E+00  0.80000000000E+02  0.80000000000E+02 0.  0.
          5    1    3    3  501    0  0.21395578857E+02  0.75365909242E+01  0.32608879199E+02  0.40000000000E+02  0.47000000000E+01 0. -1.
         -5    1    3    3    0  501 -0.21395578857E+02 -0.75365909242E+01 -0.32608879199E+02  0.40000000000E+02  0.47000000000E+01 0.  1.
</event>
<event>
 5    1  0.4833967E-001  0.8000000E+02  0.7546771E-02  0.1203772E+00
         11   -1    0    0    0    0  0.00000000000E+00  0.00000000000E+00  0.40000000000E+02  0.40000000000E+02  0.00000000000E+00 0.  1.
        -11   -1    0    0    0    0 -0.00000000000E+00 -0.00000000000E+00 -0.40000000000E+02  0.40000000000E+02  0.00000000000E+00 0. -1.
         23    2    1    2    0    0  0.00000000000E+00  0.00000000000E+00  0.00000000000E+00  0.80000000000E+02  0.80000000000E+02 0.  0.
          5    1    3    3  501    0 -0.36204728169E+02 -0.16252763296E+02 -0.17249183895E+01  0.40000000000E+02  0.47000000000E+01 0. -1.
         -5    1    3    3    0  501  0.36204728169E+02  0.16252763296E+02  0.17249183895E+01  0.40000000000E+02  0.47000000000E+01 0.  1.
</event>
<event>
 5    1  0.4833967E-001  0.8000000E+02  0.7546771E-02  0.1203772E+00
         11   -1    0    0    0    0  0.00000000000E+00  0.00000000000E+00  0.40000000000E+02  0.40000000000E+02  0.00000000000E+00 0.  1.
        -11   -1    0    0    0    0 -0.00000000000E+00 -0.00000000000E+00 -0.40000000000E+02  0.40000000000E+02  0.00000000000E+00 0. -1.
         23    2    1    2    0    0  0.00000000000E+00  0.00000000000E+00  0.00000000000E+00  0.80000000000E+02  0.80000000000E+02 0.  0.
          5    1    3    3  501    0  0.18193903059E+02  0.29768274245E+02 -0.18993202467E+02  0.40000000000E+02  0.47000000000E+01 0. -1.
         -5    1    3    3    0  501 -0.18193903059E+02 -0.29768274245E+02  0.18993202467E+02  0.40000000000E+02  0.47000000000E+01 0.  1.
</event>
<event>
 5    1  0.4833967E-001  0.8000000E+02  0.7546771E-02  0.1203772E+00
         11   -1    0    0    0    0  0.00000000000E+00  0.00000000000E+00  0.40000000000E+02  0.40000000000E+02  0.00000000000E+00 0. -1.
        -11   -1    0    0    0    0 -0.00000000000E+00 -0.00000000000E+00 -0.40000000000E+02  0.40000000000E+02  0.00000000000E+00 0.  1.
         23    2    1    2    0    0  0.00000000000E+00  0.00000000000E+00  0.00000000000E+00  0.80000000000E+02  0.80000000000E+02 0.  0.
          5    1    3    3  501    0 -0.20033901634E+02 -0.17860784505E+02  0.29283872049E+02  0.40000000000E+02  0.47000000000E+01 0. -1.
         -5    1    3    3    0  501  0.20033901634E+02  0.17860784505E+02 -0.29283872049E+02  0.40000000000E+02  0.47000000000E+01 0.  1.
</event>
<event>
 5    1  0.4833967E-001  0.8000000E+02  0.7546771E-02  0.1203772E+00
         11   -1    0    0    0    0  0.00000000000E+00  0.00000000000E+00  0.40000000000E+02  0.40000000000E+02  0.00000000000E+00 0. -1.
        -11   -1    0    0    0    0 -0.00000000000E+00 -0.00000000000E+00 -0.40000000000E+02  0.40000000000E+02  0.00000000000E+00 0.  1.
         23    2    1    2    0    0  0.00000000000E+00  0.00000000000E+00  0.00000000000E+00  0.80000000000E+02  0.80000000000E+02 0.  0.
          5    1    3    3  501    0 -0.12377167887E+02  0.18230120791E+02  0.33051148407E+02  0.40000000000E+02  0.47000000000E+01 0. -1.
         -5    1    3    3    0  501  0.12377167887E+02 -0.18230120791E+02 -0.33051148407E+02  0.40000000000E+02  0.47000000000E+01 0.  1.
</event>
<event>
 5    1  0.4833967E-001  0.8000000E+02  0.7546771E-02  0.1203772E+00
         11   -1    0    0    0    0  0.00000000000E+00  0.00000000000E+00  0.40000000000E+02  0.40000000000E+02  0.00000000000E+00 0.  1.
        -11   -1    0    0    0    0 -0.00000000000E+00 -0.00000000000E+00 -0.40000000000E+02  0.40000000000E+02  0.00000000000E+00 0. -1.
         23    2    1    2    0    0  0.00000000000E+00  0.00000000000E+00  0.00000000000E+00  0.80000000000E+02  0.80000000000E+02 0.  0.
          5    1    3    3  501    0  0.23917239198E+02  0.19235558182E+02 -0.25216442465E+02  0.40000000000E+02  0.47000000000E+01 0. -1.
         -5    1    3    3    0  501 -0.23917239198E+02 -0.19235558182E+02  0.25216442465E+02  0.40000000000E+02  0.47000000000E+01 0.  1.
</event>
<event>
 5    1  0.4833967E-001  0.8000000E+02  0.7546771E-02  0.1203772E+00
         11   -1    0    0    0    0  0.00000000000E+00  0.00000000000E+00  0.40000000000E+02  0.40000000000E+02  0.00000000000E+00 0.  1.
        -11   -1    0    0    0    0 -0.00000000000E+00 -0.00000000000E+00 -0.40000000000E+02  0.40000000000E+02  0.00000000000E+00 0. -1.
         23    2    1    2    0    0  0.00000000000E+00  0.00000000000E+00  0.00000000000E+00  0.80000000000E+02  0.80000000000E+02 0.  0.
          5    1    3    3  501    0  0.11734426706E+02 -0.34693489373E+02 -0.15380995579E+02  0.40000000000E+02  0.47000000000E+01 0. -1.
         -5    1    3    3    0  501 -0.11734426706E+02  0.34693489373E+02  0.15380995579E+02  0.40000000000E+02  0.47000000000E+01 0.  1.
</event>
<event>
 5    1  0.4833967E-001  0.8000000E+02  0.7546771E-02  0.1203772E+00
         11   -1    0    0    0    0  0.00000000000E+00  0.00000000000E+00  0.40000000000E+02  0.40000000000E+02  0.00000000000E+00 0.  1.
        -11   -1    0    0    0    0 -0.00000000000E+00 -0.00000000000E+00 -0.40000000000E+02  0.40000000000E+02  0.00000000000E+00 0. -1.
         23    2    1    2    0    0  0.00000000000E+00  0.00000000000E+00  0.00000000000E+00  0.80000000000E+02  0.80000000000E+02 0.  0.
          5    1    3    3  501    0 -0.56340684054E+01 -0.10715760717E+02 -0.37833050967E+02  0.40000000000E+02  0.47000000000E+01 0. -1.
         -5    1    3    3    0  501  0.56340684054E+01  0.10715760717E+02  0.37833050967E+02  0.40000000000E+02  0.47000000000E+01 0.  1.
</event>
<event>
 5    1  0.4833967E-001  0.8000000E+02  0.7546771E-02  0.1203772E+00
         11   -1    0    0    0    0  0.00000000000E+00  0.00000000000E+00  0.40000000000E+02  0.40000000000E+02  0.00000000000E+00 0. -1.
        -11   -1    0    0    0    0 -0.00000000000E+00 -0.00000000000E+00 -0.40000000000E+02  0.40000000000E+02  0.00000000000E+00 0.  1.
         23    2    1    2    0    0  0.00000000000E+00  0.00000000000E+00  0.00000000000E+00  0.80000000000E+02  0.80000000000E+02 0.  0.
          5    1    3    3  501    0 -0.12114558182E+02 -0.26472659516E+02  0.27024910327E+02  0.40000000000E+02  0.47000000000E+01 0. -1.
         -5    1    3    3    0  501  0.12114558182E+02  0.26472659516E+02 -0.27024910327E+02  0.40000000000E+02  0.47000000000E+01 0.  1.
</event>
<event>
 5    1  0.4833967E-001  0.8000000E+02  0.7546771E-02  0.1203772E+00
         11   -1    0    0    0    0  0.00000000000E+00  0.00000000000E+00  0.40000000000E+02  0.40000000000E+02  0.00000000000E+00 0. -1.
        -11   -1    0    0    0    0 -0.00000000000E+00 -0.00000000000E+00 -0.40000000000E+02  0.40000000000E+02  0.00000000000E+00 0.  1.
         23    2    1    2    0    0  0.00000000000E+00  0.00000000000E+00  0.00000000000E+00  0.80000000000E+02  0.80000000000E+02 0.  0.
          5    1    3    3  501    0 -0.20309730815E+02 -0.21027704243E+00 -0.34137671535E+02  0.40000000000E+02  0.47000000000E+01 0.  1.
         -5    1    3    3    0  501  0.20309730815E+02  0.21027704243E+00  0.34137671535E+02  0.40000000000E+02  0.47000000000E+01 0. -1.
</event>
<event>
 5    1  0.4833967E-001  0.8000000E+02  0.7546771E-02  0.1203772E+00
         11   -1    0    0    0    0  0.00000000000E+00  0.00000000000E+00  0.40000000000E+02  0.40000000000E+02  0.00000000000E+00 0. -1.
        -11   -1    0    0    0    0 -0.00000000000E+00 -0.00000000000E+00 -0.40000000000E+02  0.40000000000E+02  0.00000000000E+00 0.  1.
         23    2    1    2    0    0  0.00000000000E+00  0.00000000000E+00  0.00000000000E+00  0.80000000000E+02  0.80000000000E+02 0.  0.
          5    1    3    3  501    0  0.10846604568E+01 -0.34858592906E+02  0.19016098767E+02  0.40000000000E+02  0.47000000000E+01 0. -1.
         -5    1    3    3    0  501 -0.10846604568E+01  0.34858592906E+02 -0.19016098767E+02  0.40000000000E+02  0.47000000000E+01 0.  1.
</event>
<event>
 5    1  0.4833967E-001  0.8000000E+02  0.7546771E-02  0.1203772E+00
         11   -1    0    0    0    0  0.00000000000E+00  0.00000000000E+00  0.40000000000E+02  0.40000000000E+02  0.00000000000E+00 0.  1.
        -11   -1    0    0    0    0 -0.00000000000E+00 -0.00000000000E+00 -0.40000000000E+02  0.40000000000E+02  0.00000000000E+00 0. -1.
         23    2    1    2    0    0  0.00000000000E+00  0.00000000000E+00  0.00000000000E+00  0.80000000000E+02  0.80000000000E+02 0.  0.
          5    1    3    3  501    0  0.37573940119E+02  0.10680269122E+02 -0.72139361954E+01  0.40000000000E+02  0.47000000000E+01 0. -1.
         -5    1    3    3    0  501 -0.37573940119E+02 -0.10680269122E+02  0.72139361954E+01  0.40000000000E+02  0.47000000000E+01 0.  1.
</event>
<event>
 5    1  0.4833967E-001  0.8000000E+02  0.7546771E-02  0.1203772E+00
         11   -1    0    0    0    0  0.00000000000E+00  0.00000000000E+00  0.40000000000E+02  0.40000000000E+02  0.00000000000E+00 0.  1.
        -11   -1    0    0    0    0 -0.00000000000E+00 -0.00000000000E+00 -0.40000000000E+02  0.40000000000E+02  0.00000000000E+00 0. -1.
         23    2    1    2    0    0  0.00000000000E+00  0.00000000000E+00  0.00000000000E+00  0.80000000000E+02  0.80000000000E+02 0.  0.
          5    1    3    3  501    0 -0.28157092210E+02  0.11397828440E+02 -0.25596438524E+02  0.40000000000E+02  0.47000000000E+01 0. -1.
         -5    1    3    3    0  501  0.28157092210E+02 -0.11397828440E+02  0.25596438524E+02  0.40000000000E+02  0.47000000000E+01 0.  1.
</event>
<event>
 5    1  0.4833967E-001  0.8000000E+02  0.7546771E-02  0.1203772E+00
         11   -1    0    0    0    0  0.00000000000E+00  0.00000000000E+00  0.40000000000E+02  0.40000000000E+02  0.00000000000E+00 0.  1.
        -11   -1    0    0    0    0 -0.00000000000E+00 -0.00000000000E+00 -0.40000000000E+02  0.40000000000E+02  0.00000000000E+00 0. -1.
         23    2    1    2    0    0  0.00000000000E+00  0.00000000000E+00  0.00000000000E+00  0.80000000000E+02  0.80000000000E+02 0.  0.
          5    1    3    3  501    0 -0.32490254432E+02  0.35817782162E+01 -0.22571314356E+02  0.40000000000E+02  0.47000000000E+01 0. -1.
         -5    1    3    3    0  501  0.32490254432E+02 -0.35817782162E+01  0.22571314356E+02  0.40000000000E+02  0.47000000000E+01 0.  1.
</event>
<event>
 5    1  0.4833967E-001  0.8000000E+02  0.7546771E-02  0.1203772E+00
         11   -1    0    0    0    0  0.00000000000E+00  0.00000000000E+00  0.40000000000E+02  0.40000000000E+02  0.00000000000E+00 0. -1.
        -11   -1    0    0    0    0 -0.00000000000E+00 -0.00000000000E+00 -0.40000000000E+02  0.40000000000E+02  0.00000000000E+00 0.  1.
         23    2    1    2    0    0  0.00000000000E+00  0.00000000000E+00  0.00000000000E+00  0.80000000000E+02  0.80000000000E+02 0.  0.
          5    1    3    3  501    0 -0.38969382021E+02  0.69740498381E+01  0.32649492692E+01  0.40000000000E+02  0.47000000000E+01 0.  1.
         -5    1    3    3    0  501  0.38969382021E+02 -0.69740498381E+01 -0.32649492692E+01  0.40000000000E+02  0.47000000000E+01 0. -1.
</event>
<event>
 5    1  0.4833967E-001  0.8000000E+02  0.7546771E-02  0.1203772E+00
         11   -1    0    0    0    0  0.00000000000E+00  0.00000000000E+00  0.40000000000E+02  0.40000000000E+02  0.00000000000E+00 0.  1.
        -11   -1    0    0    0    0 -0.00000000000E+00 -0.00000000000E+00 -0.40000000000E+02  0.40000000000E+02  0.00000000000E+00 0. -1.
         23    2    1    2    0    0  0.00000000000E+00  0.00000000000E+00  0.00000000000E+00  0.80000000000E+02  0.80000000000E+02 0.  0.
          5    1    3    3  501    0  0.28103477278E+02 -0.18298908233E+01 -0.28013497898E+02  0.40000000000E+02  0.47000000000E+01 0. -1.
         -5    1    3    3    0  501 -0.28103477278E+02  0.18298908233E+01  0.28013497898E+02  0.40000000000E+02  0.47000000000E+01 0.  1.
</event>
<event>
 5    1  0.4833967E-001  0.8000000E+02  0.7546771E-02  0.1203772E+00
         11   -1    0    0    0    0  0.00000000000E+00  0.00000000000E+00  0.40000000000E+02  0.40000000000E+02  0.00000000000E+00 0.  1.
        -11   -1    0    0    0    0 -0.00000000000E+00 -0.00000000000E+00 -0.40000000000E+02  0.40000000000E+02  0.00000000000E+00 0. -1.
         23    2    1    2    0    0  0.00000000000E+00  0.00000000000E+00  0.00000000000E+00  0.80000000000E+02  0.80000000000E+02 0.  0.
          5    1    3    3  501    0 -0.34162928171E+02  0.86749224707E+01 -0.18318025518E+02  0.40000000000E+02  0.47000000000E+01 0. -1.
         -5    1    3    3    0  501  0.34162928171E+02 -0.86749224707E+01  0.18318025518E+02  0.40000000000E+02  0.47000000000E+01 0.  1.
</event>
<event>
 5    1  0.4833967E-001  0.8000000E+02  0.7546771E-02  0.1203772E+00
         11   -1    0    0    0    0  0.00000000000E+00  0.00000000000E+00  0.40000000000E+02  0.40000000000E+02  0.00000000000E+00 0. -1.
        -11   -1    0    0    0    0 -0.00000000000E+00 -0.00000000000E+00 -0.40000000000E+02  0.40000000000E+02  0.00000000000E+00 0.  1.
         23    2    1    2    0    0  0.00000000000E+00  0.00000000000E+00  0.00000000000E+00  0.80000000000E+02  0.80000000000E+02 0.  0.
          5    1    3    3  501    0 -0.50735576356E+01 -0.15322409730E+02  0.36295905733E+02  0.40000000000E+02  0.47000000000E+01 0. -1.
         -5    1    3    3    0  501  0.50735576356E+01  0.15322409730E+02 -0.36295905733E+02  0.40000000000E+02  0.47000000000E+01 0.  1.
</event>
<event>
 5    1  0.4833967E-001  0.8000000E+02  0.7546771E-02  0.1203772E+00
         11   -1    0    0    0    0  0.00000000000E+00  0.00000000000E+00  0.40000000000E+02  0.40000000000E+02  0.00000000000E+00 0. -1.
        -11   -1    0    0    0    0 -0.00000000000E+00 -0.00000000000E+00 -0.40000000000E+02  0.40000000000E+02  0.00000000000E+00 0.  1.
         23    2    1    2    0    0  0.00000000000E+00  0.00000000000E+00  0.00000000000E+00  0.80000000000E+02  0.80000000000E+02 0.  0.
          5    1    3    3  501    0  0.23096442014E+02 -0.16031673141E+02  0.28061536355E+02  0.40000000000E+02  0.47000000000E+01 0. -1.
         -5    1    3    3    0  501 -0.23096442014E+02  0.16031673141E+02 -0.28061536355E+02  0.40000000000E+02  0.47000000000E+01 0.  1.
</event>
<event>
 5    1  0.4833967E-001  0.8000000E+02  0.7546771E-02  0.1203772E+00
         11   -1    0    0    0    0  0.00000000000E+00  0.00000000000E+00  0.40000000000E+02  0.40000000000E+02  0.00000000000E+00 0. -1.
        -11   -1    0    0    0    0 -0.00000000000E+00 -0.00000000000E+00 -0.40000000000E+02  0.40000000000E+02  0.00000000000E+00 0.  1.
         23    2    1    2    0    0  0.00000000000E+00  0.00000000000E+00  0.00000000000E+00  0.80000000000E+02  0.80000000000E+02 0.  0.
          5    1    3    3  501    0 -0.10195738945E+02 -0.22416606664E+02  0.31168135219E+02  0.40000000000E+02  0.47000000000E+01 0. -1.
         -5    1    3    3    0  501  0.10195738945E+02  0.22416606664E+02 -0.31168135219E+02  0.40000000000E+02  0.47000000000E+01 0.  1.
</event>
<event>
 5    1  0.4833967E-001  0.8000000E+02  0.7546771E-02  0.1203772E+00
         11   -1    0    0    0    0  0.00000000000E+00  0.00000000000E+00  0.40000000000E+02  0.40000000000E+02  0.00000000000E+00 0. -1.
        -11   -1    0    0    0    0 -0.00000000000E+00 -0.00000000000E+00 -0.40000000000E+02  0.40000000000E+02  0.00000000000E+00 0.  1.
         23    2    1    2    0    0  0.00000000000E+00  0.00000000000E+00  0.00000000000E+00  0.80000000000E+02  0.80000000000E+02 0.  0.
          5    1    3    3  501    0 -0.31982431790E+02  0.20385381386E+02  0.11809753704E+02  0.40000000000E+02  0.47000000000E+01 0. -1.
         -5    1    3    3    0  501  0.31982431790E+02 -0.20385381386E+02 -0.11809753704E+02  0.40000000000E+02  0.47000000000E+01 0.  1.
</event>
<event>
 5    1  0.4833967E-001  0.8000000E+02  0.7546771E-02  0.1203772E+00
         11   -1    0    0    0    0  0.00000000000E+00  0.00000000000E+00  0.40000000000E+02  0.40000000000E+02  0.00000000000E+00 0.  1.
        -11   -1    0    0    0    0 -0.00000000000E+00 -0.00000000000E+00 -0.40000000000E+02  0.40000000000E+02  0.00000000000E+00 0. -1.
         23    2    1    2    0    0  0.00000000000E+00  0.00000000000E+00  0.00000000000E+00  0.80000000000E+02  0.80000000000E+02 0.  0.
          5    1    3    3  501    0  0.15386257769E+02 -0.24102729202E+02 -0.27572296185E+02  0.40000000000E+02  0.47000000000E+01 0. -1.
         -5    1    3    3    0  501 -0.15386257769E+02  0.24102729202E+02  0.27572296185E+02  0.40000000000E+02  0.47000000000E+01 0.  1.
</event>
<event>
 5    1  0.4833967E-001  0.8000000E+02  0.7546771E-02  0.1203772E+00
         11   -1    0    0    0    0  0.00000000000E+00  0.00000000000E+00  0.40000000000E+02  0.40000000000E+02  0.00000000000E+00 0.  1.
        -11   -1    0    0    0    0 -0.00000000000E+00 -0.00000000000E+00 -0.40000000000E+02  0.40000000000E+02  0.00000000000E+00 0. -1.
         23    2    1    2    0    0  0.00000000000E+00  0.00000000000E+00  0.00000000000E+00  0.80000000000E+02  0.80000000000E+02 0.  0.
          5    1    3    3  501    0 -0.19238192362E+01 -0.35347660327E+02 -0.18020872037E+02  0.40000000000E+02  0.47000000000E+01 0. -1.
         -5    1    3    3    0  501  0.19238192362E+01  0.35347660327E+02  0.18020872037E+02  0.40000000000E+02  0.47000000000E+01 0.  1.
</event>
<event>
 5    1  0.4833967E-001  0.8000000E+02  0.7546771E-02  0.1203772E+00
         11   -1    0    0    0    0  0.00000000000E+00  0.00000000000E+00  0.40000000000E+02  0.40000000000E+02  0.00000000000E+00 0.  1.
        -11   -1    0    0    0    0 -0.00000000000E+00 -0.00000000000E+00 -0.40000000000E+02  0.40000000000E+02  0.00000000000E+00 0. -1.
         23    2    1    2    0    0  0.00000000000E+00  0.00000000000E+00  0.00000000000E+00  0.80000000000E+02  0.80000000000E+02 0.  0.
          5    1    3    3  501    0 -0.30897804294E+02 -0.12498520717E+02 -0.21610707294E+02  0.40000000000E+02  0.47000000000E+01 0. -1.
         -5    1    3    3    0  501  0.30897804294E+02  0.12498520717E+02  0.21610707294E+02  0.40000000000E+02  0.47000000000E+01 0.  1.
</event>
<event>
 5    1  0.4833967E-001  0.8000000E+02  0.7546771E-02  0.1203772E+00
         11   -1    0    0    0    0  0.00000000000E+00  0.00000000000E+00  0.40000000000E+02  0.40000000000E+02  0.00000000000E+00 0.  1.
        -11   -1    0    0    0    0 -0.00000000000E+00 -0.00000000000E+00 -0.40000000000E+02  0.40000000000E+02  0.00000000000E+00 0. -1.
         23    2    1    2    0    0  0.00000000000E+00  0.00000000000E+00  0.00000000000E+00  0.80000000000E+02  0.80000000000E+02 0.  0.
          5    1    3    3  501    0  0.35501766897E+02 -0.16656106772E+02  0.63331393775E+01  0.40000000000E+02  0.47000000000E+01 0. -1.
         -5    1    3    3    0  501 -0.35501766897E+02  0.16656106772E+02 -0.63331393775E+01  0.40000000000E+02  0.47000000000E+01 0.  1.
</event>
<event>
 5    1  0.4833967E-001  0.8000000E+02  0.7546771E-02  0.1203772E+00
         11   -1    0    0    0    0  0.00000000000E+00  0.00000000000E+00  0.40000000000E+02  0.40000000000E+02  0.00000000000E+00 0. -1.
        -11   -1    0    0    0    0 -0.00000000000E+00 -0.00000000000E+00 -0.40000000000E+02  0.40000000000E+02  0.00000000000E+00 0.  1.
         23    2    1    2    0    0  0.00000000000E+00  0.00000000000E+00  0.00000000000E+00  0.80000000000E+02  0.80000000000E+02 0.  0.
          5    1    3    3  501    0 -0.17660076891E+02  0.35362932537E+02  0.39363290782E+01  0.40000000000E+02  0.47000000000E+01 0. -1.
         -5    1    3    3    0  501  0.17660076891E+02 -0.35362932537E+02 -0.39363290782E+01  0.40000000000E+02  0.47000000000E+01 0.  1.
</event>
<event>
 5    1  0.4833967E-001  0.8000000E+02  0.7546771E-02  0.1203772E+00
         11   -1    0    0    0    0  0.00000000000E+00  0.00000000000E+00  0.40000000000E+02  0.40000000000E+02  0.00000000000E+00 0.  1.
        -11   -1    0    0    0    0 -0.00000000000E+00 -0.00000000000E+00 -0.40000000000E+02  0.40000000000E+02  0.00000000000E+00 0. -1.
         23    2    1    2    0    0  0.00000000000E+00  0.00000000000E+00  0.00000000000E+00  0.80000000000E+02  0.80000000000E+02 0.  0.
          5    1    3    3  501    0  0.29752656366E+01  0.23872856320E+02 -0.31609247468E+02  0.40000000000E+02  0.47000000000E+01 0. -1.
         -5    1    3    3    0  501 -0.29752656366E+01 -0.23872856320E+02  0.31609247468E+02  0.40000000000E+02  0.47000000000E+01 0.  1.
</event>
<event>
 5    1  0.4833967E-001  0.8000000E+02  0.7546771E-02  0.1203772E+00
         11   -1    0    0    0    0  0.00000000000E+00  0.00000000000E+00  0.40000000000E+02  0.40000000000E+02  0.00000000000E+00 0.  1.
        -11   -1    0    0    0    0 -0.00000000000E+00 -0.00000000000E+00 -0.40000000000E+02  0.40000000000E+02  0.00000000000E+00 0. -1.
         23    2    1    2    0    0  0.00000000000E+00  0.00000000000E+00  0.00000000000E+00  0.80000000000E+02  0.80000000000E+02 0.  0.
          5    1    3    3  501    0 -0.15265339383E+02 -0.21161724249E+02 -0.29950973947E+02  0.40000000000E+02  0.47000000000E+01 0. -1.
         -5    1    3    3    0  501  0.15265339383E+02  0.21161724249E+02  0.29950973947E+02  0.40000000000E+02  0.47000000000E+01 0.  1.
</event>
<event>
 5    1  0.4833967E-001  0.8000000E+02  0.7546771E-02  0.1203772E+00
         11   -1    0    0    0    0  0.00000000000E+00  0.00000000000E+00  0.40000000000E+02  0.40000000000E+02  0.00000000000E+00 0.  1.
        -11   -1    0    0    0    0 -0.00000000000E+00 -0.00000000000E+00 -0.40000000000E+02  0.40000000000E+02  0.00000000000E+00 0. -1.
         23    2    1    2    0    0  0.00000000000E+00  0.00000000000E+00  0.00000000000E+00  0.80000000000E+02  0.80000000000E+02 0.  0.
          5    1    3    3  501    0 -0.11552307241E+02  0.14545459660E+02 -0.35112445097E+02  0.40000000000E+02  0.47000000000E+01 0. -1.
         -5    1    3    3    0  501  0.11552307241E+02 -0.14545459660E+02  0.35112445097E+02  0.40000000000E+02  0.47000000000E+01 0.  1.
</event>
<event>
 5    1  0.4833967E-001  0.8000000E+02  0.7546771E-02  0.1203772E+00
         11   -1    0    0    0    0  0.00000000000E+00  0.00000000000E+00  0.40000000000E+02  0.40000000000E+02  0.00000000000E+00 0.  1.
        -11   -1    0    0    0    0 -0.00000000000E+00 -0.00000000000E+00 -0.40000000000E+02  0.40000000000E+02  0.00000000000E+00 0. -1.
         23    2    1    2    0    0  0.00000000000E+00  0.00000000000E+00  0.00000000000E+00  0.80000000000E+02  0.80000000000E+02 0.  0.
          5    1    3    3  501    0 -0.27668238505E+02  0.28658977965E+01 -0.28357806824E+02  0.40000000000E+02  0.47000000000E+01 0. -1.
         -5    1    3    3    0  501  0.27668238505E+02 -0.28658977965E+01  0.28357806824E+02  0.40000000000E+02  0.47000000000E+01 0.  1.
</event>
<event>
 5    1  0.4833967E-001  0.8000000E+02  0.7546771E-02  0.1203772E+00
         11   -1    0    0    0    0  0.00000000000E+00  0.00000000000E+00  0.40000000000E+02  0.40000000000E+02  0.00000000000E+00 0. -1.
        -11   -1    0    0    0    0 -0.00000000000E+00 -0.00000000000E+00 -0.40000000000E+02  0.40000000000E+02  0.00000000000E+00 0.  1.
         23    2    1    2    0    0  0.00000000000E+00  0.00000000000E+00  0.00000000000E+00  0.80000000000E+02  0.80000000000E+02 0.  0.
          5    1    3    3  501    0 -0.69203426784E+01 -0.64246414642E+01  0.38584230448E+02  0.40000000000E+02  0.47000000000E+01 0. -1.
         -5    1    3    3    0  501  0.69203426784E+01  0.64246414642E+01 -0.38584230448E+02  0.40000000000E+02  0.47000000000E+01 0.  1.
</event>
<event>
 5    1  0.4833967E-001  0.8000000E+02  0.7546771E-02  0.1203772E+00
         11   -1    0    0    0    0  0.00000000000E+00  0.00000000000E+00  0.40000000000E+02  0.40000000000E+02  0.00000000000E+00 0.  1.
        -11   -1    0    0    0    0 -0.00000000000E+00 -0.00000000000E+00 -0.40000000000E+02  0.40000000000E+02  0.00000000000E+00 0. -1.
         23    2    1    2    0    0  0.00000000000E+00  0.00000000000E+00  0.00000000000E+00  0.80000000000E+02  0.80000000000E+02 0.  0.
          5    1    3    3  501    0 -0.28208354213E+02  0.18407371487E+02  0.21056291875E+02  0.40000000000E+02  0.47000000000E+01 0.  1.
         -5    1    3    3    0  501  0.28208354213E+02 -0.18407371487E+02 -0.21056291875E+02  0.40000000000E+02  0.47000000000E+01 0.  1.
</event>
<event>
 5    1  0.4833967E-001  0.8000000E+02  0.7546771E-02  0.1203772E+00
         11   -1    0    0    0    0  0.00000000000E+00  0.00000000000E+00  0.40000000000E+02  0.40000000000E+02  0.00000000000E+00 0.  1.
        -11   -1    0    0    0    0 -0.00000000000E+00 -0.00000000000E+00 -0.40000000000E+02  0.40000000000E+02  0.00000000000E+00 0. -1.
         23    2    1    2    0    0  0.00000000000E+00  0.00000000000E+00  0.00000000000E+00  0.80000000000E+02  0.80000000000E+02 0.  0.
          5    1    3    3  501    0 -0.22337959877E+02 -0.30998679363E+02  0.10863122309E+02  0.40000000000E+02  0.47000000000E+01 0. -1.
         -5    1    3    3    0  501  0.22337959877E+02  0.30998679363E+02 -0.10863122309E+02  0.40000000000E+02  0.47000000000E+01 0.  1.
</event>
<event>
 5    1  0.4833967E-001  0.8000000E+02  0.7546771E-02  0.1203772E+00
         11   -1    0    0    0    0  0.00000000000E+00  0.00000000000E+00  0.40000000000E+02  0.40000000000E+02  0.00000000000E+00 0.  1.
        -11   -1    0    0    0    0 -0.00000000000E+00 -0.00000000000E+00 -0.40000000000E+02  0.40000000000E+02  0.00000000000E+00 0. -1.
         23    2    1    2    0    0  0.00000000000E+00  0.00000000000E+00  0.00000000000E+00  0.80000000000E+02  0.80000000000E+02 0.  0.
          5    1    3    3  501    0  0.86123306510E+00 -0.39036829439E+02 -0.73002893775E+01  0.40000000000E+02  0.47000000000E+01 0. -1.
         -5    1    3    3    0  501 -0.86123306510E+00  0.39036829439E+02  0.73002893775E+01  0.40000000000E+02  0.47000000000E+01 0.  1.
</event>
<event>
 5    1  0.4833967E-001  0.8000000E+02  0.7546771E-02  0.1203772E+00
         11   -1    0    0    0    0  0.00000000000E+00  0.00000000000E+00  0.40000000000E+02  0.40000000000E+02  0.00000000000E+00 0. -1.
        -11   -1    0    0    0    0 -0.00000000000E+00 -0.00000000000E+00 -0.40000000000E+02  0.40000000000E+02  0.00000000000E+00 0.  1.
         23    2    1    2    0    0  0.00000000000E+00  0.00000000000E+00  0.00000000000E+00  0.80000000000E+02  0.80000000000E+02 0.  0.
          5    1    3    3  501    0 -0.37558065833E+02 -0.82201658648E+01  0.99865191140E+01  0.40000000000E+02  0.47000000000E+01 0. -1.
         -5    1    3    3    0  501  0.37558065833E+02  0.82201658648E+01 -0.99865191140E+01  0.40000000000E+02  0.47000000000E+01 0.  1.
</event>
<event>
 5    1  0.4833967E-001  0.8000000E+02  0.7546771E-02  0.1203772E+00
         11   -1    0    0    0    0  0.00000000000E+00  0.00000000000E+00  0.40000000000E+02  0.40000000000E+02  0.00000000000E+00 0. -1.
        -11   -1    0    0    0    0 -0.00000000000E+00 -0.00000000000E+00 -0.40000000000E+02  0.40000000000E+02  0.00000000000E+00 0.  1.
         23    2    1    2    0    0  0.00000000000E+00  0.00000000000E+00  0.00000000000E+00  0.80000000000E+02  0.80000000000E+02 0.  0.
          5    1    3    3  501    0 -0.17991508613E+02  0.34396956020E+02  0.84300079708E+01  0.40000000000E+02  0.47000000000E+01 0. -1.
         -5    1    3    3    0  501  0.17991508613E+02 -0.34396956020E+02 -0.84300079708E+01  0.40000000000E+02  0.47000000000E+01 0.  1.
</event>
<event>
 5    1  0.4833967E-001  0.8000000E+02  0.7546771E-02  0.1203772E+00
         11   -1    0    0    0    0  0.00000000000E+00  0.00000000000E+00  0.40000000000E+02  0.40000000000E+02  0.00000000000E+00 0. -1.
        -11   -1    0    0    0    0 -0.00000000000E+00 -0.00000000000E+00 -0.40000000000E+02  0.40000000000E+02  0.00000000000E+00 0.  1.
         23    2    1    2    0    0  0.00000000000E+00  0.00000000000E+00  0.00000000000E+00  0.80000000000E+02  0.80000000000E+02 0.  0.
          5    1    3    3  501    0 -0.11499370116E+02  0.13395956370E+02  0.35584025066E+02  0.40000000000E+02  0.47000000000E+01 0. -1.
         -5    1    3    3    0  501  0.11499370116E+02 -0.13395956370E+02 -0.35584025066E+02  0.40000000000E+02  0.47000000000E+01 0.  1.
</event>
<event>
 5    1  0.4833967E-001  0.8000000E+02  0.7546771E-02  0.1203772E+00
         11   -1    0    0    0    0  0.00000000000E+00  0.00000000000E+00  0.40000000000E+02  0.40000000000E+02  0.00000000000E+00 0. -1.
        -11   -1    0    0    0    0 -0.00000000000E+00 -0.00000000000E+00 -0.40000000000E+02  0.40000000000E+02  0.00000000000E+00 0.  1.
         23    2    1    2    0    0  0.00000000000E+00  0.00000000000E+00  0.00000000000E+00  0.80000000000E+02  0.80000000000E+02 0.  0.
          5    1    3    3  501    0  0.30826115951E+02 -0.91646090726E+01 -0.23316743253E+02  0.40000000000E+02  0.47000000000E+01 0.  1.
         -5    1    3    3    0  501 -0.30826115951E+02  0.91646090726E+01  0.23316743253E+02  0.40000000000E+02  0.47000000000E+01 0. -1.
</event>
<event>
 5    1  0.4833967E-001  0.8000000E+02  0.7546771E-02  0.1203772E+00
         11   -1    0    0    0    0  0.00000000000E+00  0.00000000000E+00  0.40000000000E+02  0.40000000000E+02  0.00000000000E+00 0.  1.
        -11   -1    0    0    0    0 -0.00000000000E+00 -0.00000000000E+00 -0.40000000000E+02  0.40000000000E+02  0.00000000000E+00 0. -1.
         23    2    1    2    0    0  0.00000000000E+00  0.00000000000E+00  0.00000000000E+00  0.80000000000E+02  0.80000000000E+02 0.  0.
          5    1    3    3  501    0  0.18816250844E+02  0.58243989360E+01 -0.34495435658E+02  0.40000000000E+02  0.47000000000E+01 0. -1.
         -5    1    3    3    0  501 -0.18816250844E+02 -0.58243989360E+01  0.34495435658E+02  0.40000000000E+02  0.47000000000E+01 0.  1.
</event>
<event>
 5    1  0.4833967E-001  0.8000000E+02  0.7546771E-02  0.1203772E+00
         11   -1    0    0    0    0  0.00000000000E+00  0.00000000000E+00  0.40000000000E+02  0.40000000000E+02  0.00000000000E+00 0. -1.
        -11   -1    0    0    0    0 -0.00000000000E+00 -0.00000000000E+00 -0.40000000000E+02  0.40000000000E+02  0.00000000000E+00 0.  1.
         23    2    1    2    0    0  0.00000000000E+00  0.00000000000E+00  0.00000000000E+00  0.80000000000E+02  0.80000000000E+02 0.  0.
          5    1    3    3  501    0  0.14246464624E+02  0.31610744789E+02  0.19383215925E+02  0.40000000000E+02  0.47000000000E+01 0. -1.
         -5    1    3    3    0  501 -0.14246464624E+02 -0.31610744789E+02 -0.19383215925E+02  0.40000000000E+02  0.47000000000E+01 0.  1.
</event>
<event>
 5    1  0.4833967E-001  0.8000000E+02  0.7546771E-02  0.1203772E+00
         11   -1    0    0    0    0  0.00000000000E+00  0.00000000000E+00  0.40000000000E+02  0.40000000000E+02  0.00000000000E+00 0. -1.
        -11   -1    0    0    0    0 -0.00000000000E+00 -0.00000000000E+00 -0.40000000000E+02  0.40000000000E+02  0.00000000000E+00 0.  1.
         23    2    1    2    0    0  0.00000000000E+00  0.00000000000E+00  0.00000000000E+00  0.80000000000E+02  0.80000000000E+02 0.  0.
          5    1    3    3  501    0 -0.16722582659E+01 -0.10806626786E+02  0.38188091989E+02  0.40000000000E+02  0.47000000000E+01 0. -1.
         -5    1    3    3    0  501  0.16722582659E+01  0.10806626786E+02 -0.38188091989E+02  0.40000000000E+02  0.47000000000E+01 0.  1.
</event>
<event>
 5    1  0.4833967E-001  0.8000000E+02  0.7546771E-02  0.1203772E+00
         11   -1    0    0    0    0  0.00000000000E+00  0.00000000000E+00  0.40000000000E+02  0.40000000000E+02  0.00000000000E+00 0.  1.
        -11   -1    0    0    0    0 -0.00000000000E+00 -0.00000000000E+00 -0.40000000000E+02  0.40000000000E+02  0.00000000000E+00 0. -1.
         23    2    1    2    0    0  0.00000000000E+00  0.00000000000E+00  0.00000000000E+00  0.80000000000E+02  0.80000000000E+02 0.  0.
          5    1    3    3  501    0  0.67792839323E+01 -0.29595645921E+02 -0.25613454509E+02  0.40000000000E+02  0.47000000000E+01 0. -1.
         -5    1    3    3    0  501 -0.67792839323E+01  0.29595645921E+02  0.25613454509E+02  0.40000000000E+02  0.47000000000E+01 0.  1.
</event>
<event>
 5    1  0.4833967E-001  0.8000000E+02  0.7546771E-02  0.1203772E+00
         11   -1    0    0    0    0  0.00000000000E+00  0.00000000000E+00  0.40000000000E+02  0.40000000000E+02  0.00000000000E+00 0. -1.
        -11   -1    0    0    0    0 -0.00000000000E+00 -0.00000000000E+00 -0.40000000000E+02  0.40000000000E+02  0.00000000000E+00 0.  1.
         23    2    1    2    0    0  0.00000000000E+00  0.00000000000E+00  0.00000000000E+00  0.80000000000E+02  0.80000000000E+02 0.  0.
          5    1    3    3  501    0 -0.30604679684E+02 -0.25248436833E+02  0.19442270795E+01  0.40000000000E+02  0.47000000000E+01 0. -1.
         -5    1    3    3    0  501  0.30604679684E+02  0.25248436833E+02 -0.19442270795E+01  0.40000000000E+02  0.47000000000E+01 0.  1.
</event>
<event>
 5    1  0.4833967E-001  0.8000000E+02  0.7546771E-02  0.1203772E+00
         11   -1    0    0    0    0  0.00000000000E+00  0.00000000000E+00  0.40000000000E+02  0.40000000000E+02  0.00000000000E+00 0. -1.
        -11   -1    0    0    0    0 -0.00000000000E+00 -0.00000000000E+00 -0.40000000000E+02  0.40000000000E+02  0.00000000000E+00 0.  1.
         23    2    1    2    0    0  0.00000000000E+00  0.00000000000E+00  0.00000000000E+00  0.80000000000E+02  0.80000000000E+02 0.  0.
          5    1    3    3  501    0 -0.78771469877E+01  0.16092162455E+02  0.35452825880E+02  0.40000000000E+02  0.47000000000E+01 0. -1.
         -5    1    3    3    0  501  0.78771469877E+01 -0.16092162455E+02 -0.35452825880E+02  0.40000000000E+02  0.47000000000E+01 0.  1.
</event>
<event>
 5    1  0.4833967E-001  0.8000000E+02  0.7546771E-02  0.1203772E+00
         11   -1    0    0    0    0  0.00000000000E+00  0.00000000000E+00  0.40000000000E+02  0.40000000000E+02  0.00000000000E+00 0.  1.
        -11   -1    0    0    0    0 -0.00000000000E+00 -0.00000000000E+00 -0.40000000000E+02  0.40000000000E+02  0.00000000000E+00 0. -1.
         23    2    1    2    0    0  0.00000000000E+00  0.00000000000E+00  0.00000000000E+00  0.80000000000E+02  0.80000000000E+02 0.  0.
          5    1    3    3  501    0  0.46162974289E+01  0.15280354475E+02 -0.36374586804E+02  0.40000000000E+02  0.47000000000E+01 0. -1.
         -5    1    3    3    0  501 -0.46162974289E+01 -0.15280354475E+02  0.36374586804E+02  0.40000000000E+02  0.47000000000E+01 0.  1.
</event>
<event>
 5    1  0.4833967E-001  0.8000000E+02  0.7546771E-02  0.1203772E+00
         11   -1    0    0    0    0  0.00000000000E+00  0.00000000000E+00  0.40000000000E+02  0.40000000000E+02  0.00000000000E+00 0. -1.
        -11   -1    0    0    0    0 -0.00000000000E+00 -0.00000000000E+00 -0.40000000000E+02  0.40000000000E+02  0.00000000000E+00 0.  1.
         23    2    1    2    0    0  0.00000000000E+00  0.00000000000E+00  0.00000000000E+00  0.80000000000E+02  0.80000000000E+02 0.  0.
          5    1    3    3  501    0  0.18315262017E+02 -0.16652445786E+02  0.31066979682E+02  0.40000000000E+02  0.47000000000E+01 0. -1.
         -5    1    3    3    0  501 -0.18315262017E+02  0.16652445786E+02 -0.31066979682E+02  0.40000000000E+02  0.47000000000E+01 0.  1.
</event>
<event>
 5    1  0.4833967E-001  0.8000000E+02  0.7546771E-02  0.1203772E+00
         11   -1    0    0    0    0  0.00000000000E+00  0.00000000000E+00  0.40000000000E+02  0.40000000000E+02  0.00000000000E+00 0. -1.
        -11   -1    0    0    0    0 -0.00000000000E+00 -0.00000000000E+00 -0.40000000000E+02  0.40000000000E+02  0.00000000000E+00 0.  1.
         23    2    1    2    0    0  0.00000000000E+00  0.00000000000E+00  0.00000000000E+00  0.80000000000E+02  0.80000000000E+02 0.  0.
          5    1    3    3  501    0 -0.29876902406E+02 -0.15548770631E+02  0.21059829878E+02  0.40000000000E+02  0.47000000000E+01 0. -1.
         -5    1    3    3    0  501  0.29876902406E+02  0.15548770631E+02 -0.21059829878E+02  0.40000000000E+02  0.47000000000E+01 0.  1.
</event>
<event>
 5    1  0.4833967E-001  0.8000000E+02  0.7546771E-02  0.1203772E+00
         11   -1    0    0    0    0  0.00000000000E+00  0.00000000000E+00  0.40000000000E+02  0.40000000000E+02  0.00000000000E+00 0.  1.
        -11   -1    0    0    0    0 -0.00000000000E+00 -0.00000000000E+00 -0.40000000000E+02  0.40000000000E+02  0.00000000000E+00 0. -1.
         23    2    1    2    0    0  0.00000000000E+00  0.00000000000E+00  0.00000000000E+00  0.80000000000E+02  0.80000000000E+02 0.  0.
          5    1    3    3  501    0 -0.28579460295E+02 -0.12681535627E+02 -0.24501083718E+02  0.40000000000E+02  0.47000000000E+01 0. -1.
         -5    1    3    3    0  501  0.28579460295E+02  0.12681535627E+02  0.24501083718E+02  0.40000000000E+02  0.47000000000E+01 0.  1.
</event>
<event>
 5    1  0.4833967E-001  0.8000000E+02  0.7546771E-02  0.1203772E+00
         11   -1    0    0    0    0  0.00000000000E+00  0.00000000000E+00  0.40000000000E+02  0.40000000000E+02  0.00000000000E+00 0. -1.
        -11   -1    0    0    0    0 -0.00000000000E+00 -0.00000000000E+00 -0.40000000000E+02  0.40000000000E+02  0.00000000000E+00 0.  1.
         23    2    1    2    0    0  0.00000000000E+00  0.00000000000E+00  0.00000000000E+00  0.80000000000E+02  0.80000000000E+02 0.  0.
          5    1    3    3  501    0 -0.96003523067E+00 -0.18290497034E+02  0.35248348197E+02  0.40000000000E+02  0.47000000000E+01 0. -1.
         -5    1    3    3    0  501  0.96003523067E+00  0.18290497034E+02 -0.35248348197E+02  0.40000000000E+02  0.47000000000E+01 0.  1.
</event>
<event>
 5    1  0.4833967E-001  0.8000000E+02  0.7546771E-02  0.1203772E+00
         11   -1    0    0    0    0  0.00000000000E+00  0.00000000000E+00  0.40000000000E+02  0.40000000000E+02  0.00000000000E+00 0. -1.
        -11   -1    0    0    0    0 -0.00000000000E+00 -0.00000000000E+00 -0.40000000000E+02  0.40000000000E+02  0.00000000000E+00 0.  1.
         23    2    1    2    0    0  0.00000000000E+00  0.00000000000E+00  0.00000000000E+00  0.80000000000E+02  0.80000000000E+02 0.  0.
          5    1    3    3  501    0  0.35819574333E+02  0.16873277338E+02 -0.31875706256E+01  0.40000000000E+02  0.47000000000E+01 0. -1.
         -5    1    3    3    0  501 -0.35819574333E+02 -0.16873277338E+02  0.31875706256E+01  0.40000000000E+02  0.47000000000E+01 0.  1.
</event>
<event>
 5    1  0.4833967E-001  0.8000000E+02  0.7546771E-02  0.1203772E+00
         11   -1    0    0    0    0  0.00000000000E+00  0.00000000000E+00  0.40000000000E+02  0.40000000000E+02  0.00000000000E+00 0. -1.
        -11   -1    0    0    0    0 -0.00000000000E+00 -0.00000000000E+00 -0.40000000000E+02  0.40000000000E+02  0.00000000000E+00 0.  1.
         23    2    1    2    0    0  0.00000000000E+00  0.00000000000E+00  0.00000000000E+00  0.80000000000E+02  0.80000000000E+02 0.  0.
          5    1    3    3  501    0 -0.10417170295E+01  0.24162548193E+02  0.31511840480E+02  0.40000000000E+02  0.47000000000E+01 0. -1.
         -5    1    3    3    0  501  0.10417170295E+01 -0.24162548193E+02 -0.31511840480E+02  0.40000000000E+02  0.47000000000E+01 0.  1.
</event>
<event>
 5    1  0.4833967E-001  0.8000000E+02  0.7546771E-02  0.1203772E+00
         11   -1    0    0    0    0  0.00000000000E+00  0.00000000000E+00  0.40000000000E+02  0.40000000000E+02  0.00000000000E+00 0. -1.
        -11   -1    0    0    0    0 -0.00000000000E+00 -0.00000000000E+00 -0.40000000000E+02  0.40000000000E+02  0.00000000000E+00 0.  1.
         23    2    1    2    0    0  0.00000000000E+00  0.00000000000E+00  0.00000000000E+00  0.80000000000E+02  0.80000000000E+02 0.  0.
          5    1    3    3  501    0  0.15029148845E+02  0.22697448388E+02  0.28928541644E+02  0.40000000000E+02  0.47000000000E+01 0. -1.
         -5    1    3    3    0  501 -0.15029148845E+02 -0.22697448388E+02 -0.28928541644E+02  0.40000000000E+02  0.47000000000E+01 0.  1.
</event>
<event>
 5    1  0.4833967E-001  0.8000000E+02  0.7546771E-02  0.1203772E+00
         11   -1    0    0    0    0  0.00000000000E+00  0.00000000000E+00  0.40000000000E+02  0.40000000000E+02  0.00000000000E+00 0. -1.
        -11   -1    0    0    0    0 -0.00000000000E+00 -0.00000000000E+00 -0.40000000000E+02  0.40000000000E+02  0.00000000000E+00 0.  1.
         23    2    1    2    0    0  0.00000000000E+00  0.00000000000E+00  0.00000000000E+00  0.80000000000E+02  0.80000000000E+02 0.  0.
          5    1    3    3  501    0 -0.28376820090E+02  0.26163501178E+02  0.93881461237E+01  0.40000000000E+02  0.47000000000E+01 0. -1.
         -5    1    3    3    0  501  0.28376820090E+02 -0.26163501178E+02 -0.93881461237E+01  0.40000000000E+02  0.47000000000E+01 0.  1.
</event>
<event>
 5    1  0.4833967E-001  0.8000000E+02  0.7546771E-02  0.1203772E+00
         11   -1    0    0    0    0  0.00000000000E+00  0.00000000000E+00  0.40000000000E+02  0.40000000000E+02  0.00000000000E+00 0. -1.
        -11   -1    0    0    0    0 -0.00000000000E+00 -0.00000000000E+00 -0.40000000000E+02  0.40000000000E+02  0.00000000000E+00 0.  1.
         23    2    1    2    0    0  0.00000000000E+00  0.00000000000E+00  0.00000000000E+00  0.80000000000E+02  0.80000000000E+02 0.  0.
          5    1    3    3  501    0 -0.62555564006E+01  0.32163138179E+02  0.22456859901E+02  0.40000000000E+02  0.47000000000E+01 0. -1.
         -5    1    3    3    0  501  0.62555564006E+01 -0.32163138179E+02 -0.22456859901E+02  0.40000000000E+02  0.47000000000E+01 0.  1.
</event>
<event>
 5    1  0.4833967E-001  0.8000000E+02  0.7546771E-02  0.1203772E+00
         11   -1    0    0    0    0  0.00000000000E+00  0.00000000000E+00  0.40000000000E+02  0.40000000000E+02  0.00000000000E+00 0.  1.
        -11   -1    0    0    0    0 -0.00000000000E+00 -0.00000000000E+00 -0.40000000000E+02  0.40000000000E+02  0.00000000000E+00 0. -1.
         23    2    1    2    0    0  0.00000000000E+00  0.00000000000E+00  0.00000000000E+00  0.80000000000E+02  0.80000000000E+02 0.  0.
          5    1    3    3  501    0  0.19035984813E+02  0.14954918864E+02 -0.31494311930E+02  0.40000000000E+02  0.47000000000E+01 0. -1.
         -5    1    3    3    0  501 -0.19035984813E+02 -0.14954918864E+02  0.31494311930E+02  0.40000000000E+02  0.47000000000E+01 0.  1.
</event>
<event>
 5    1  0.4833967E-001  0.8000000E+02  0.7546771E-02  0.1203772E+00
         11   -1    0    0    0    0  0.00000000000E+00  0.00000000000E+00  0.40000000000E+02  0.40000000000E+02  0.00000000000E+00 0.  1.
        -11   -1    0    0    0    0 -0.00000000000E+00 -0.00000000000E+00 -0.40000000000E+02  0.40000000000E+02  0.00000000000E+00 0. -1.
         23    2    1    2    0    0  0.00000000000E+00  0.00000000000E+00  0.00000000000E+00  0.80000000000E+02  0.80000000000E+02 0.  0.
          5    1    3    3  501    0  0.94052844167E+01  0.48456592137E+01 -0.38287990439E+02  0.40000000000E+02  0.47000000000E+01 0. -1.
         -5    1    3    3    0  501 -0.94052844167E+01 -0.48456592137E+01  0.38287990439E+02  0.40000000000E+02  0.47000000000E+01 0.  1.
</event>
<event>
 5    1  0.4833967E-001  0.8000000E+02  0.7546771E-02  0.1203772E+00
         11   -1    0    0    0    0  0.00000000000E+00  0.00000000000E+00  0.40000000000E+02  0.40000000000E+02  0.00000000000E+00 0. -1.
        -11   -1    0    0    0    0 -0.00000000000E+00 -0.00000000000E+00 -0.40000000000E+02  0.40000000000E+02  0.00000000000E+00 0.  1.
         23    2    1    2    0    0  0.00000000000E+00  0.00000000000E+00  0.00000000000E+00  0.80000000000E+02  0.80000000000E+02 0.  0.
          5    1    3    3  501    0  0.21736102936E+02  0.97495589591E+01  0.31786757137E+02  0.40000000000E+02  0.47000000000E+01 0. -1.
         -5    1    3    3    0  501 -0.21736102936E+02 -0.97495589591E+01 -0.31786757137E+02  0.40000000000E+02  0.47000000000E+01 0.  1.
</event>
<event>
 5    1  0.4833967E-001  0.8000000E+02  0.7546771E-02  0.1203772E+00
         11   -1    0    0    0    0  0.00000000000E+00  0.00000000000E+00  0.40000000000E+02  0.40000000000E+02  0.00000000000E+00 0.  1.
        -11   -1    0    0    0    0 -0.00000000000E+00 -0.00000000000E+00 -0.40000000000E+02  0.40000000000E+02  0.00000000000E+00 0. -1.
         23    2    1    2    0    0  0.00000000000E+00  0.00000000000E+00  0.00000000000E+00  0.80000000000E+02  0.80000000000E+02 0.  0.
          5    1    3    3  501    0 -0.37081961349E+02  0.13781048305E+02 -0.35945584066E+01  0.40000000000E+02  0.47000000000E+01 0. -1.
         -5    1    3    3    0  501  0.37081961349E+02 -0.13781048305E+02  0.35945584066E+01  0.40000000000E+02  0.47000000000E+01 0.  1.
</event>
<event>
 5    1  0.4833967E-001  0.8000000E+02  0.7546771E-02  0.1203772E+00
         11   -1    0    0    0    0  0.00000000000E+00  0.00000000000E+00  0.40000000000E+02  0.40000000000E+02  0.00000000000E+00 0. -1.
        -11   -1    0    0    0    0 -0.00000000000E+00 -0.00000000000E+00 -0.40000000000E+02  0.40000000000E+02  0.00000000000E+00 0.  1.
         23    2    1    2    0    0  0.00000000000E+00  0.00000000000E+00  0.00000000000E+00  0.80000000000E+02  0.80000000000E+02 0.  0.
          5    1    3    3  501    0 -0.13002679736E+01  0.21308565908E+02  0.33498721202E+02  0.40000000000E+02  0.47000000000E+01 0. -1.
         -5    1    3    3    0  501  0.13002679736E+01 -0.21308565908E+02 -0.33498721202E+02  0.40000000000E+02  0.47000000000E+01 0.  1.
</event>
<event>
 5    1  0.4833967E-001  0.8000000E+02  0.7546771E-02  0.1203772E+00
         11   -1    0    0    0    0  0.00000000000E+00  0.00000000000E+00  0.40000000000E+02  0.40000000000E+02  0.00000000000E+00 0. -1.
        -11   -1    0    0    0    0 -0.00000000000E+00 -0.00000000000E+00 -0.40000000000E+02  0.40000000000E+02  0.00000000000E+00 0.  1.
         23    2    1    2    0    0  0.00000000000E+00  0.00000000000E+00  0.00000000000E+00  0.80000000000E+02  0.80000000000E+02 0.  0.
          5    1    3    3  501    0 -0.17691193174E+02  0.13543940069E+02  0.32886066525E+02  0.40000000000E+02  0.47000000000E+01 0. -1.
         -5    1    3    3    0  501  0.17691193174E+02 -0.13543940069E+02 -0.32886066525E+02  0.40000000000E+02  0.47000000000E+01 0.  1.
</event>
<event>
 5    1  0.4833967E-001  0.8000000E+02  0.7546771E-02  0.1203772E+00
         11   -1    0    0    0    0  0.00000000000E+00  0.00000000000E+00  0.40000000000E+02  0.40000000000E+02  0.00000000000E+00 0.  1.
        -11   -1    0    0    0    0 -0.00000000000E+00 -0.00000000000E+00 -0.40000000000E+02  0.40000000000E+02  0.00000000000E+00 0. -1.
         23    2    1    2    0    0  0.00000000000E+00  0.00000000000E+00  0.00000000000E+00  0.80000000000E+02  0.80000000000E+02 0.  0.
          5    1    3    3  501    0 -0.27694655639E+02 -0.16052023028E+02 -0.23521237335E+02  0.40000000000E+02  0.47000000000E+01 0. -1.
         -5    1    3    3    0  501  0.27694655639E+02  0.16052023028E+02  0.23521237335E+02  0.40000000000E+02  0.47000000000E+01 0.  1.
</event>
<event>
 5    1  0.4833967E-001  0.8000000E+02  0.7546771E-02  0.1203772E+00
         11   -1    0    0    0    0  0.00000000000E+00  0.00000000000E+00  0.40000000000E+02  0.40000000000E+02  0.00000000000E+00 0.  1.
        -11   -1    0    0    0    0 -0.00000000000E+00 -0.00000000000E+00 -0.40000000000E+02  0.40000000000E+02  0.00000000000E+00 0. -1.
         23    2    1    2    0    0  0.00000000000E+00  0.00000000000E+00  0.00000000000E+00  0.80000000000E+02  0.80000000000E+02 0.  0.
          5    1    3    3  501    0  0.14159103100E+02 -0.34033966836E+02 -0.14802665328E+02  0.40000000000E+02  0.47000000000E+01 0. -1.
         -5    1    3    3    0  501 -0.14159103100E+02  0.34033966836E+02  0.14802665328E+02  0.40000000000E+02  0.47000000000E+01 0.  1.
</event>
<event>
 5    1  0.4833967E-001  0.8000000E+02  0.7546771E-02  0.1203772E+00
         11   -1    0    0    0    0  0.00000000000E+00  0.00000000000E+00  0.40000000000E+02  0.40000000000E+02  0.00000000000E+00 0.  1.
        -11   -1    0    0    0    0 -0.00000000000E+00 -0.00000000000E+00 -0.40000000000E+02  0.40000000000E+02  0.00000000000E+00 0. -1.
         23    2    1    2    0    0  0.00000000000E+00  0.00000000000E+00  0.00000000000E+00  0.80000000000E+02  0.80000000000E+02 0.  0.
          5    1    3    3  501    0 -0.12181476407E+02 -0.25836572929E+02 -0.27604223079E+02  0.40000000000E+02  0.47000000000E+01 0. -1.
         -5    1    3    3    0  501  0.12181476407E+02  0.25836572929E+02  0.27604223079E+02  0.40000000000E+02  0.47000000000E+01 0.  1.
</event>
<event>
 5    1  0.4833967E-001  0.8000000E+02  0.7546771E-02  0.1203772E+00
         11   -1    0    0    0    0  0.00000000000E+00  0.00000000000E+00  0.40000000000E+02  0.40000000000E+02  0.00000000000E+00 0.  1.
        -11   -1    0    0    0    0 -0.00000000000E+00 -0.00000000000E+00 -0.40000000000E+02  0.40000000000E+02  0.00000000000E+00 0. -1.
         23    2    1    2    0    0  0.00000000000E+00  0.00000000000E+00  0.00000000000E+00  0.80000000000E+02  0.80000000000E+02 0.  0.
          5    1    3    3  501    0 -0.21292142458E+02  0.15358920439E+02 -0.29810371224E+02  0.40000000000E+02  0.47000000000E+01 0. -1.
         -5    1    3    3    0  501  0.21292142458E+02 -0.15358920439E+02  0.29810371224E+02  0.40000000000E+02  0.47000000000E+01 0.  1.
</event>
<event>
 5    1  0.4833967E-001  0.8000000E+02  0.7546771E-02  0.1203772E+00
         11   -1    0    0    0    0  0.00000000000E+00  0.00000000000E+00  0.40000000000E+02  0.40000000000E+02  0.00000000000E+00 0. -1.
        -11   -1    0    0    0    0 -0.00000000000E+00 -0.00000000000E+00 -0.40000000000E+02  0.40000000000E+02  0.00000000000E+00 0.  1.
         23    2    1    2    0    0  0.00000000000E+00  0.00000000000E+00  0.00000000000E+00  0.80000000000E+02  0.80000000000E+02 0.  0.
          5    1    3    3  501    0  0.31186865175E+02 -0.35259628328E+01  0.24348655542E+02  0.40000000000E+02  0.47000000000E+01 0. -1.
         -5    1    3    3    0  501 -0.31186865175E+02  0.35259628328E+01 -0.24348655542E+02  0.40000000000E+02  0.47000000000E+01 0.  1.
</event>
<event>
 5    1  0.4833967E-001  0.8000000E+02  0.7546771E-02  0.1203772E+00
         11   -1    0    0    0    0  0.00000000000E+00  0.00000000000E+00  0.40000000000E+02  0.40000000000E+02  0.00000000000E+00 0. -1.
        -11   -1    0    0    0    0 -0.00000000000E+00 -0.00000000000E+00 -0.40000000000E+02  0.40000000000E+02  0.00000000000E+00 0.  1.
         23    2    1    2    0    0  0.00000000000E+00  0.00000000000E+00  0.00000000000E+00  0.80000000000E+02  0.80000000000E+02 0.  0.
          5    1    3    3  501    0 -0.11412134519E+02 -0.38048298931E+02  0.11582094667E-01  0.40000000000E+02  0.47000000000E+01 0.  1.
         -5    1    3    3    0  501  0.11412134519E+02  0.38048298931E+02 -0.11582094667E-01  0.40000000000E+02  0.47000000000E+01 0. -1.
</event>
<event>
 5    1  0.4833967E-001  0.8000000E+02  0.7546771E-02  0.1203772E+00
         11   -1    0    0    0    0  0.00000000000E+00  0.00000000000E+00  0.40000000000E+02  0.40000000000E+02  0.00000000000E+00 0.  1.
        -11   -1    0    0    0    0 -0.00000000000E+00 -0.00000000000E+00 -0.40000000000E+02  0.40000000000E+02  0.00000000000E+00 0. -1.
         23    2    1    2    0    0  0.00000000000E+00  0.00000000000E+00  0.00000000000E+00  0.80000000000E+02  0.80000000000E+02 0.  0.
          5    1    3    3  501    0  0.59436552643E+01  0.10506677480E+02 -0.37844321773E+02  0.40000000000E+02  0.47000000000E+01 0. -1.
         -5    1    3    3    0  501 -0.59436552643E+01 -0.10506677480E+02  0.37844321773E+02  0.40000000000E+02  0.47000000000E+01 0.  1.
</event>
<event>
 5    1  0.4833967E-001  0.8000000E+02  0.7546771E-02  0.1203772E+00
         11   -1    0    0    0    0  0.00000000000E+00  0.00000000000E+00  0.40000000000E+02  0.40000000000E+02  0.00000000000E+00 0.  1.
        -11   -1    0    0    0    0 -0.00000000000E+00 -0.00000000000E+00 -0.40000000000E+02  0.40000000000E+02  0.00000000000E+00 0. -1.
         23    2    1    2    0    0  0.00000000000E+00  0.00000000000E+00  0.00000000000E+00  0.80000000000E+02  0.80000000000E+02 0.  0.
          5    1    3    3  501    0  0.17517601917E+02  0.16317673609E+01 -0.35614336416E+02  0.40000000000E+02  0.47000000000E+01 0. -1.
         -5    1    3    3    0  501 -0.17517601917E+02 -0.16317673609E+01  0.35614336416E+02  0.40000000000E+02  0.47000000000E+01 0.  1.
</event>
<event>
 5    1  0.4833967E-001  0.8000000E+02  0.7546771E-02  0.1203772E+00
         11   -1    0    0    0    0  0.00000000000E+00  0.00000000000E+00  0.40000000000E+02  0.40000000000E+02  0.00000000000E+00 0.  1.
        -11   -1    0    0    0    0 -0.00000000000E+00 -0.00000000000E+00 -0.40000000000E+02  0.40000000000E+02  0.00000000000E+00 0. -1.
         23    2    1    2    0    0  0.00000000000E+00  0.00000000000E+00  0.00000000000E+00  0.80000000000E+02  0.80000000000E+02 0.  0.
          5    1    3    3  501    0  0.18122596473E+02 -0.33705765867E+02 -0.10649077162E+02  0.40000000000E+02  0.47000000000E+01 0. -1.
         -5    1    3    3    0  501 -0.18122596473E+02  0.33705765867E+02  0.10649077162E+02  0.40000000000E+02  0.47000000000E+01 0.  1.
</event>
<event>
 5    1  0.4833967E-001  0.8000000E+02  0.7546771E-02  0.1203772E+00
         11   -1    0    0    0    0  0.00000000000E+00  0.00000000000E+00  0.40000000000E+02  0.40000000000E+02  0.00000000000E+00 0.  1.
        -11   -1    0    0    0    0 -0.00000000000E+00 -0.00000000000E+00 -0.40000000000E+02  0.40000000000E+02  0.00000000000E+00 0. -1.
         23    2    1    2    0    0  0.00000000000E+00  0.00000000000E+00  0.00000000000E+00  0.80000000000E+02  0.80000000000E+02 0.  0.
          5    1    3    3  501    0 -0.34928840861E+01  0.13985515407E+02 -0.37015066116E+02  0.40000000000E+02  0.47000000000E+01 0. -1.
         -5    1    3    3    0  501  0.34928840861E+01 -0.13985515407E+02  0.37015066116E+02  0.40000000000E+02  0.47000000000E+01 0.  1.
</event>
<event>
 5    1  0.4833967E-001  0.8000000E+02  0.7546771E-02  0.1203772E+00
         11   -1    0    0    0    0  0.00000000000E+00  0.00000000000E+00  0.40000000000E+02  0.40000000000E+02  0.00000000000E+00 0. -1.
        -11   -1    0    0    0    0 -0.00000000000E+00 -0.00000000000E+00 -0.40000000000E+02  0.40000000000E+02  0.00000000000E+00 0.  1.
         23    2    1    2    0    0  0.00000000000E+00  0.00000000000E+00  0.00000000000E+00  0.80000000000E+02  0.80000000000E+02 0.  0.
          5    1    3    3  501    0 -0.22917880970E+02 -0.32330132908E+01  0.32283561714E+02  0.40000000000E+02  0.47000000000E+01 0. -1.
         -5    1    3    3    0  501  0.22917880970E+02  0.32330132908E+01 -0.32283561714E+02  0.40000000000E+02  0.47000000000E+01 0.  1.
</event>
<event>
 5    1  0.4833967E-001  0.8000000E+02  0.7546771E-02  0.1203772E+00
         11   -1    0    0    0    0  0.00000000000E+00  0.00000000000E+00  0.40000000000E+02  0.40000000000E+02  0.00000000000E+00 0.  1.
        -11   -1    0    0    0    0 -0.00000000000E+00 -0.00000000000E+00 -0.40000000000E+02  0.40000000000E+02  0.00000000000E+00 0. -1.
         23    2    1    2    0    0  0.00000000000E+00  0.00000000000E+00  0.00000000000E+00  0.80000000000E+02  0.80000000000E+02 0.  0.
          5    1    3    3  501    0  0.11053591783E+00  0.39217514251E+02  0.63154063813E+01  0.40000000000E+02  0.47000000000E+01 0. -1.
         -5    1    3    3    0  501 -0.11053591783E+00 -0.39217514251E+02 -0.63154063813E+01  0.40000000000E+02  0.47000000000E+01 0.  1.
</event>
<event>
 5    1  0.4833967E-001  0.8000000E+02  0.7546771E-02  0.1203772E+00
         11   -1    0    0    0    0  0.00000000000E+00  0.00000000000E+00  0.40000000000E+02  0.40000000000E+02  0.00000000000E+00 0. -1.
        -11   -1    0    0    0    0 -0.00000000000E+00 -0.00000000000E+00 -0.40000000000E+02  0.40000000000E+02  0.00000000000E+00 0.  1.
         23    2    1    2    0    0  0.00000000000E+00  0.00000000000E+00  0.00000000000E+00  0.80000000000E+02  0.80000000000E+02 0.  0.
          5    1    3    3  501    0 -0.23945588928E+01  0.77636500364E+01 -0.38883181786E+02  0.40000000000E+02  0.47000000000E+01 0.  1.
         -5    1    3    3    0  501  0.23945588928E+01 -0.77636500364E+01  0.38883181786E+02  0.40000000000E+02  0.47000000000E+01 0. -1.
</event>
<event>
 5    1  0.4833967E-001  0.8000000E+02  0.7546771E-02  0.1203772E+00
         11   -1    0    0    0    0  0.00000000000E+00  0.00000000000E+00  0.40000000000E+02  0.40000000000E+02  0.00000000000E+00 0. -1.
        -11   -1    0    0    0    0 -0.00000000000E+00 -0.00000000000E+00 -0.40000000000E+02  0.40000000000E+02  0.00000000000E+00 0.  1.
         23    2    1    2    0    0  0.00000000000E+00  0.00000000000E+00  0.00000000000E+00  0.80000000000E+02  0.80000000000E+02 0.  0.
          5    1    3    3  501    0  0.22505750025E+02  0.27909331479E+02  0.17101766932E+02  0.40000000000E+02  0.47000000000E+01 0. -1.
         -5    1    3    3    0  501 -0.22505750025E+02 -0.27909331479E+02 -0.17101766932E+02  0.40000000000E+02  0.47000000000E+01 0.  1.
</event>
<event>
 5    1  0.4833967E-001  0.8000000E+02  0.7546771E-02  0.1203772E+00
         11   -1    0    0    0    0  0.00000000000E+00  0.00000000000E+00  0.40000000000E+02  0.40000000000E+02  0.00000000000E+00 0. -1.
        -11   -1    0    0    0    0 -0.00000000000E+00 -0.00000000000E+00 -0.40000000000E+02  0.40000000000E+02  0.00000000000E+00 0.  1.
         23    2    1    2    0    0  0.00000000000E+00  0.00000000000E+00  0.00000000000E+00  0.80000000000E+02  0.80000000000E+02 0.  0.
          5    1    3    3  501    0 -0.20786091643E+02  0.18105214088E+01  0.33801929034E+02  0.40000000000E+02  0.47000000000E+01 0. -1.
         -5    1    3    3    0  501  0.20786091643E+02 -0.18105214088E+01 -0.33801929034E+02  0.40000000000E+02  0.47000000000E+01 0.  1.
</event>
<event>
 5    1  0.4833967E-001  0.8000000E+02  0.7546771E-02  0.1203772E+00
         11   -1    0    0    0    0  0.00000000000E+00  0.00000000000E+00  0.40000000000E+02  0.40000000000E+02  0.00000000000E+00 0. -1.
        -11   -1    0    0    0    0 -0.00000000000E+00 -0.00000000000E+00 -0.40000000000E+02  0.40000000000E+02  0.00000000000E+00 0.  1.
         23    2    1    2    0    0  0.00000000000E+00  0.00000000000E+00  0.00000000000E+00  0.80000000000E+02  0.80000000000E+02 0.  0.
          5    1    3    3  501    0 -0.21027061270E+02 -0.26983612541E+02  0.20190526209E+02  0.40000000000E+02  0.47000000000E+01 0. -1.
         -5    1    3    3    0  501  0.21027061270E+02  0.26983612541E+02 -0.20190526209E+02  0.40000000000E+02  0.47000000000E+01 0.  1.
</event>
<event>
 5    1  0.4833967E-001  0.8000000E+02  0.7546771E-02  0.1203772E+00
         11   -1    0    0    0    0  0.00000000000E+00  0.00000000000E+00  0.40000000000E+02  0.40000000000E+02  0.00000000000E+00 0.  1.
        -11   -1    0    0    0    0 -0.00000000000E+00 -0.00000000000E+00 -0.40000000000E+02  0.40000000000E+02  0.00000000000E+00 0. -1.
         23    2    1    2    0    0  0.00000000000E+00  0.00000000000E+00  0.00000000000E+00  0.80000000000E+02  0.80000000000E+02 0.  0.
          5    1    3    3  501    0 -0.11243019353E+02  0.29187789643E+02 -0.24486270676E+02  0.40000000000E+02  0.47000000000E+01 0. -1.
         -5    1    3    3    0  501  0.11243019353E+02 -0.29187789643E+02  0.24486270676E+02  0.40000000000E+02  0.47000000000E+01 0.  1.
</event>
<event>
 5    1  0.4833967E-001  0.8000000E+02  0.7546771E-02  0.1203772E+00
         11   -1    0    0    0    0  0.00000000000E+00  0.00000000000E+00  0.40000000000E+02  0.40000000000E+02  0.00000000000E+00 0.  1.
        -11   -1    0    0    0    0 -0.00000000000E+00 -0.00000000000E+00 -0.40000000000E+02  0.40000000000E+02  0.00000000000E+00 0. -1.
         23    2    1    2    0    0  0.00000000000E+00  0.00000000000E+00  0.00000000000E+00  0.80000000000E+02  0.80000000000E+02 0.  0.
          5    1    3    3  501    0  0.52911255135E+01 -0.16514857060E+02 -0.35737564090E+02  0.40000000000E+02  0.47000000000E+01 0. -1.
         -5    1    3    3    0  501 -0.52911255135E+01  0.16514857060E+02  0.35737564090E+02  0.40000000000E+02  0.47000000000E+01 0.  1.
</event>
<event>
 5    1  0.4833967E-001  0.8000000E+02  0.7546771E-02  0.1203772E+00
         11   -1    0    0    0    0  0.00000000000E+00  0.00000000000E+00  0.40000000000E+02  0.40000000000E+02  0.00000000000E+00 0. -1.
        -11   -1    0    0    0    0 -0.00000000000E+00 -0.00000000000E+00 -0.40000000000E+02  0.40000000000E+02  0.00000000000E+00 0.  1.
         23    2    1    2    0    0  0.00000000000E+00  0.00000000000E+00  0.00000000000E+00  0.80000000000E+02  0.80000000000E+02 0.  0.
          5    1    3    3  501    0 -0.96297345082E+01  0.10416306763E+02  0.37103622016E+02  0.40000000000E+02  0.47000000000E+01 0. -1.
         -5    1    3    3    0  501  0.96297345082E+01 -0.10416306763E+02 -0.37103622016E+02  0.40000000000E+02  0.47000000000E+01 0.  1.
</event>
<event>
 5    1  0.4833967E-001  0.8000000E+02  0.7546771E-02  0.1203772E+00
         11   -1    0    0    0    0  0.00000000000E+00  0.00000000000E+00  0.40000000000E+02  0.40000000000E+02  0.00000000000E+00 0. -1.
        -11   -1    0    0    0    0 -0.00000000000E+00 -0.00000000000E+00 -0.40000000000E+02  0.40000000000E+02  0.00000000000E+00 0.  1.
         23    2    1    2    0    0  0.00000000000E+00  0.00000000000E+00  0.00000000000E+00  0.80000000000E+02  0.80000000000E+02 0.  0.
          5    1    3    3  501    0 -0.36997802917E+02  0.45174120951E+01  0.13735558499E+02  0.40000000000E+02  0.47000000000E+01 0. -1.
         -5    1    3    3    0  501  0.36997802917E+02 -0.45174120951E+01 -0.13735558499E+02  0.40000000000E+02  0.47000000000E+01 0.  1.
</event>
<event>
 5    1  0.4833967E-001  0.8000000E+02  0.7546771E-02  0.1203772E+00
         11   -1    0    0    0    0  0.00000000000E+00  0.00000000000E+00  0.40000000000E+02  0.40000000000E+02  0.00000000000E+00 0.  1.
        -11   -1    0    0    0    0 -0.00000000000E+00 -0.00000000000E+00 -0.40000000000E+02  0.40000000000E+02  0.00000000000E+00 0. -1.
         23    2    1    2    0    0  0.00000000000E+00  0.00000000000E+00  0.00000000000E+00  0.80000000000E+02  0.80000000000E+02 0.  0.
          5    1    3    3  501    0 -0.37237324109E+02 -0.13319107715E+02 -0.37273399250E+01  0.40000000000E+02  0.47000000000E+01 0. -1.
         -5    1    3    3    0  501  0.37237324109E+02  0.13319107715E+02  0.37273399250E+01  0.40000000000E+02  0.47000000000E+01 0.  1.
</event>
<event>
 5    1  0.4833967E-001  0.8000000E+02  0.7546771E-02  0.1203772E+00
         11   -1    0    0    0    0  0.00000000000E+00  0.00000000000E+00  0.40000000000E+02  0.40000000000E+02  0.00000000000E+00 0.  1.
        -11   -1    0    0    0    0 -0.00000000000E+00 -0.00000000000E+00 -0.40000000000E+02  0.40000000000E+02  0.00000000000E+00 0. -1.
         23    2    1    2    0    0  0.00000000000E+00  0.00000000000E+00  0.00000000000E+00  0.80000000000E+02  0.80000000000E+02 0.  0.
          5    1    3    3  501    0 -0.30740447218E+02  0.24596444373E+02  0.52867597876E+01  0.40000000000E+02  0.47000000000E+01 0. -1.
         -5    1    3    3    0  501  0.30740447218E+02 -0.24596444373E+02 -0.52867597876E+01  0.40000000000E+02  0.47000000000E+01 0.  1.
</event>
<event>
 5    1  0.4833967E-001  0.8000000E+02  0.7546771E-02  0.1203772E+00
         11   -1    0    0    0    0  0.00000000000E+00  0.00000000000E+00  0.40000000000E+02  0.40000000000E+02  0.00000000000E+00 0.  1.
        -11   -1    0    0    0    0 -0.00000000000E+00 -0.00000000000E+00 -0.40000000000E+02  0.40000000000E+02  0.00000000000E+00 0. -1.
         23    2    1    2    0    0  0.00000000000E+00  0.00000000000E+00  0.00000000000E+00  0.80000000000E+02  0.80000000000E+02 0.  0.
          5    1    3    3  501    0 -0.21683555560E+02  0.12769818361E+02 -0.30735405599E+02  0.40000000000E+02  0.47000000000E+01 0. -1.
         -5    1    3    3    0  501  0.21683555560E+02 -0.12769818361E+02  0.30735405599E+02  0.40000000000E+02  0.47000000000E+01 0.  1.
</event>
<event>
 5    1  0.4833967E-001  0.8000000E+02  0.7546771E-02  0.1203772E+00
         11   -1    0    0    0    0  0.00000000000E+00  0.00000000000E+00  0.40000000000E+02  0.40000000000E+02  0.00000000000E+00 0. -1.
        -11   -1    0    0    0    0 -0.00000000000E+00 -0.00000000000E+00 -0.40000000000E+02  0.40000000000E+02  0.00000000000E+00 0.  1.
         23    2    1    2    0    0  0.00000000000E+00  0.00000000000E+00  0.00000000000E+00  0.80000000000E+02  0.80000000000E+02 0.  0.
          5    1    3    3  501    0  0.34162843068E+02 -0.84896945763E+01  0.18404761326E+02  0.40000000000E+02  0.47000000000E+01 0. -1.
         -5    1    3    3    0  501 -0.34162843068E+02  0.84896945763E+01 -0.18404761326E+02  0.40000000000E+02  0.47000000000E+01 0.  1.
</event>
<event>
 5    1  0.4833967E-001  0.8000000E+02  0.7546771E-02  0.1203772E+00
         11   -1    0    0    0    0  0.00000000000E+00  0.00000000000E+00  0.40000000000E+02  0.40000000000E+02  0.00000000000E+00 0.  1.
        -11   -1    0    0    0    0 -0.00000000000E+00 -0.00000000000E+00 -0.40000000000E+02  0.40000000000E+02  0.00000000000E+00 0. -1.
         23    2    1    2    0    0  0.00000000000E+00  0.00000000000E+00  0.00000000000E+00  0.80000000000E+02  0.80000000000E+02 0.  0.
          5    1    3    3  501    0  0.36980420478E+02  0.12598134815E+02 -0.71864803924E+01  0.40000000000E+02  0.47000000000E+01 0. -1.
         -5    1    3    3    0  501 -0.36980420478E+02 -0.12598134815E+02  0.71864803924E+01  0.40000000000E+02  0.47000000000E+01 0.  1.
</event>
<event>
 5    1  0.4833967E-001  0.8000000E+02  0.7546771E-02  0.1203772E+00
         11   -1    0    0    0    0  0.00000000000E+00  0.00000000000E+00  0.40000000000E+02  0.40000000000E+02  0.00000000000E+00 0. -1.
        -11   -1    0    0    0    0 -0.00000000000E+00 -0.00000000000E+00 -0.40000000000E+02  0.40000000000E+02  0.00000000000E+00 0.  1.
         23    2    1    2    0    0  0.00000000000E+00  0.00000000000E+00  0.00000000000E+00  0.80000000000E+02  0.80000000000E+02 0.  0.
          5    1    3    3  501    0  0.11964144247E+01  0.39101160090E+02  0.68976715010E+01  0.40000000000E+02  0.47000000000E+01 0. -1.
         -5    1    3    3    0  501 -0.11964144247E+01 -0.39101160090E+02 -0.68976715010E+01  0.40000000000E+02  0.47000000000E+01 0.  1.
</event>
<event>
 5    1  0.4833967E-001  0.8000000E+02  0.7546771E-02  0.1203772E+00
         11   -1    0    0    0    0  0.00000000000E+00  0.00000000000E+00  0.40000000000E+02  0.40000000000E+02  0.00000000000E+00 0. -1.
        -11   -1    0    0    0    0 -0.00000000000E+00 -0.00000000000E+00 -0.40000000000E+02  0.40000000000E+02  0.00000000000E+00 0.  1.
         23    2    1    2    0    0  0.00000000000E+00  0.00000000000E+00  0.00000000000E+00  0.80000000000E+02  0.80000000000E+02 0.  0.
          5    1    3    3  501    0  0.17750240349E+02 -0.30686858030E+02  0.17920817834E+02  0.40000000000E+02  0.47000000000E+01 0. -1.
         -5    1    3    3    0  501 -0.17750240349E+02  0.30686858030E+02 -0.17920817834E+02  0.40000000000E+02  0.47000000000E+01 0.  1.
</event>
<event>
 5    1  0.4833967E-001  0.8000000E+02  0.7546771E-02  0.1203772E+00
         11   -1    0    0    0    0  0.00000000000E+00  0.00000000000E+00  0.40000000000E+02  0.40000000000E+02  0.00000000000E+00 0.  1.
        -11   -1    0    0    0    0 -0.00000000000E+00 -0.00000000000E+00 -0.40000000000E+02  0.40000000000E+02  0.00000000000E+00 0. -1.
         23    2    1    2    0    0  0.00000000000E+00  0.00000000000E+00  0.00000000000E+00  0.80000000000E+02  0.80000000000E+02 0.  0.
          5    1    3    3  501    0 -0.13659063921E+02  0.22384159533E+02 -0.29837717319E+02  0.40000000000E+02  0.47000000000E+01 0. -1.
         -5    1    3    3    0  501  0.13659063921E+02 -0.22384159533E+02  0.29837717319E+02  0.40000000000E+02  0.47000000000E+01 0.  1.
</event>
<event>
 5    1  0.4833967E-001  0.8000000E+02  0.7546771E-02  0.1203772E+00
         11   -1    0    0    0    0  0.00000000000E+00  0.00000000000E+00  0.40000000000E+02  0.40000000000E+02  0.00000000000E+00 0. -1.
        -11   -1    0    0    0    0 -0.00000000000E+00 -0.00000000000E+00 -0.40000000000E+02  0.40000000000E+02  0.00000000000E+00 0.  1.
         23    2    1    2    0    0  0.00000000000E+00  0.00000000000E+00  0.00000000000E+00  0.80000000000E+02  0.80000000000E+02 0.  0.
          5    1    3    3  501    0  0.27213392302E+02 -0.18645239408E+01  0.28876717782E+02  0.40000000000E+02  0.47000000000E+01 0. -1.
         -5    1    3    3    0  501 -0.27213392302E+02  0.18645239408E+01 -0.28876717782E+02  0.40000000000E+02  0.47000000000E+01 0.  1.
</event>
<event>
 5    1  0.4833967E-001  0.8000000E+02  0.7546771E-02  0.1203772E+00
         11   -1    0    0    0    0  0.00000000000E+00  0.00000000000E+00  0.40000000000E+02  0.40000000000E+02  0.00000000000E+00 0. -1.
        -11   -1    0    0    0    0 -0.00000000000E+00 -0.00000000000E+00 -0.40000000000E+02  0.40000000000E+02  0.00000000000E+00 0.  1.
         23    2    1    2    0    0  0.00000000000E+00  0.00000000000E+00  0.00000000000E+00  0.80000000000E+02  0.80000000000E+02 0.  0.
          5    1    3    3  501    0  0.59436106792E+01  0.30576599104E+02  0.24650660830E+02  0.40000000000E+02  0.47000000000E+01 0. -1.
         -5    1    3    3    0  501 -0.59436106792E+01 -0.30576599104E+02 -0.24650660830E+02  0.40000000000E+02  0.47000000000E+01 0.  1.
</event>
<event>
 5    1  0.4833967E-001  0.8000000E+02  0.7546771E-02  0.1203772E+00
         11   -1    0    0    0    0  0.00000000000E+00  0.00000000000E+00  0.40000000000E+02  0.40000000000E+02  0.00000000000E+00 0. -1.
        -11   -1    0    0    0    0 -0.00000000000E+00 -0.00000000000E+00 -0.40000000000E+02  0.40000000000E+02  0.00000000000E+00 0.  1.
         23    2    1    2    0    0  0.00000000000E+00  0.00000000000E+00  0.00000000000E+00  0.80000000000E+02  0.80000000000E+02 0.  0.
          5    1    3    3  501    0 -0.79592433637E+01 -0.27315558668E+02  0.27720402229E+02  0.40000000000E+02  0.47000000000E+01 0. -1.
         -5    1    3    3    0  501  0.79592433637E+01  0.27315558668E+02 -0.27720402229E+02  0.40000000000E+02  0.47000000000E+01 0.  1.
</event>
<event>
 5    1  0.4833967E-001  0.8000000E+02  0.7546771E-02  0.1203772E+00
         11   -1    0    0    0    0  0.00000000000E+00  0.00000000000E+00  0.40000000000E+02  0.40000000000E+02  0.00000000000E+00 0.  1.
        -11   -1    0    0    0    0 -0.00000000000E+00 -0.00000000000E+00 -0.40000000000E+02  0.40000000000E+02  0.00000000000E+00 0. -1.
         23    2    1    2    0    0  0.00000000000E+00  0.00000000000E+00  0.00000000000E+00  0.80000000000E+02  0.80000000000E+02 0.  0.
          5    1    3    3  501    0 -0.94564790222E+01 -0.83035983393E+01 -0.37676720387E+02  0.40000000000E+02  0.47000000000E+01 0. -1.
         -5    1    3    3    0  501  0.94564790222E+01  0.83035983393E+01  0.37676720387E+02  0.40000000000E+02  0.47000000000E+01 0.  1.
</event>
<event>
 5    1  0.4833967E-001  0.8000000E+02  0.7546771E-02  0.1203772E+00
         11   -1    0    0    0    0  0.00000000000E+00  0.00000000000E+00  0.40000000000E+02  0.40000000000E+02  0.00000000000E+00 0.  1.
        -11   -1    0    0    0    0 -0.00000000000E+00 -0.00000000000E+00 -0.40000000000E+02  0.40000000000E+02  0.00000000000E+00 0. -1.
         23    2    1    2    0    0  0.00000000000E+00  0.00000000000E+00  0.00000000000E+00  0.80000000000E+02  0.80000000000E+02 0.  0.
          5    1    3    3  501    0 -0.34245069220E+02 -0.12457015700E+02  0.15811641091E+02  0.40000000000E+02  0.47000000000E+01 0. -1.
         -5    1    3    3    0  501  0.34245069220E+02  0.12457015700E+02 -0.15811641091E+02  0.40000000000E+02  0.47000000000E+01 0.  1.
</event>
<event>
 5    1  0.4833967E-001  0.8000000E+02  0.7546771E-02  0.1203772E+00
         11   -1    0    0    0    0  0.00000000000E+00  0.00000000000E+00  0.40000000000E+02  0.40000000000E+02  0.00000000000E+00 0.  1.
        -11   -1    0    0    0    0 -0.00000000000E+00 -0.00000000000E+00 -0.40000000000E+02  0.40000000000E+02  0.00000000000E+00 0. -1.
         23    2    1    2    0    0  0.00000000000E+00  0.00000000000E+00  0.00000000000E+00  0.80000000000E+02  0.80000000000E+02 0.  0.
          5    1    3    3  501    0 -0.26439249077E+02 -0.15021961552E+02 -0.25558105943E+02  0.40000000000E+02  0.47000000000E+01 0. -1.
         -5    1    3    3    0  501  0.26439249077E+02  0.15021961552E+02  0.25558105943E+02  0.40000000000E+02  0.47000000000E+01 0.  1.
</event>
<event>
 5    1  0.4833967E-001  0.8000000E+02  0.7546771E-02  0.1203772E+00
         11   -1    0    0    0    0  0.00000000000E+00  0.00000000000E+00  0.40000000000E+02  0.40000000000E+02  0.00000000000E+00 0.  1.
        -11   -1    0    0    0    0 -0.00000000000E+00 -0.00000000000E+00 -0.40000000000E+02  0.40000000000E+02  0.00000000000E+00 0. -1.
         23    2    1    2    0    0  0.00000000000E+00  0.00000000000E+00  0.00000000000E+00  0.80000000000E+02  0.80000000000E+02 0.  0.
          5    1    3    3  501    0 -0.17491938711E+02  0.28882340788E+02 -0.20922534998E+02  0.40000000000E+02  0.47000000000E+01 0. -1.
         -5    1    3    3    0  501  0.17491938711E+02 -0.28882340788E+02  0.20922534998E+02  0.40000000000E+02  0.47000000000E+01 0.  1.
</event>
<event>
 5    1  0.4833967E-001  0.8000000E+02  0.7546771E-02  0.1203772E+00
         11   -1    0    0    0    0  0.00000000000E+00  0.00000000000E+00  0.40000000000E+02  0.40000000000E+02  0.00000000000E+00 0. -1.
        -11   -1    0    0    0    0 -0.00000000000E+00 -0.00000000000E+00 -0.40000000000E+02  0.40000000000E+02  0.00000000000E+00 0.  1.
         23    2    1    2    0    0  0.00000000000E+00  0.00000000000E+00  0.00000000000E+00  0.80000000000E+02  0.80000000000E+02 0.  0.
          5    1    3    3  501    0 -0.51678966258E+01 -0.37029392917E+02  0.13417410506E+02  0.40000000000E+02  0.47000000000E+01 0. -1.
         -5    1    3    3    0  501  0.51678966258E+01  0.37029392917E+02 -0.13417410506E+02  0.40000000000E+02  0.47000000000E+01 0.  1.
</event>
<event>
 5    1  0.4833967E-001  0.8000000E+02  0.7546771E-02  0.1203772E+00
         11   -1    0    0    0    0  0.00000000000E+00  0.00000000000E+00  0.40000000000E+02  0.40000000000E+02  0.00000000000E+00 0. -1.
        -11   -1    0    0    0    0 -0.00000000000E+00 -0.00000000000E+00 -0.40000000000E+02  0.40000000000E+02  0.00000000000E+00 0.  1.
         23    2    1    2    0    0  0.00000000000E+00  0.00000000000E+00  0.00000000000E+00  0.80000000000E+02  0.80000000000E+02 0.  0.
          5    1    3    3  501    0 -0.31964480029E+02  0.19588937252E+02  0.13132233389E+02  0.40000000000E+02  0.47000000000E+01 0. -1.
         -5    1    3    3    0  501  0.31964480029E+02 -0.19588937252E+02 -0.13132233389E+02  0.40000000000E+02  0.47000000000E+01 0.  1.
</event>
<event>
 5    1  0.4833967E-001  0.8000000E+02  0.7546771E-02  0.1203772E+00
         11   -1    0    0    0    0  0.00000000000E+00  0.00000000000E+00  0.40000000000E+02  0.40000000000E+02  0.00000000000E+00 0. -1.
        -11   -1    0    0    0    0 -0.00000000000E+00 -0.00000000000E+00 -0.40000000000E+02  0.40000000000E+02  0.00000000000E+00 0.  1.
         23    2    1    2    0    0  0.00000000000E+00  0.00000000000E+00  0.00000000000E+00  0.80000000000E+02  0.80000000000E+02 0.  0.
          5    1    3    3  501    0 -0.18040393243E+02 -0.30974736002E+02  0.17117825248E+02  0.40000000000E+02  0.47000000000E+01 0. -1.
         -5    1    3    3    0  501  0.18040393243E+02  0.30974736002E+02 -0.17117825248E+02  0.40000000000E+02  0.47000000000E+01 0.  1.
</event>
<event>
 5    1  0.4833967E-001  0.8000000E+02  0.7546771E-02  0.1203772E+00
         11   -1    0    0    0    0  0.00000000000E+00  0.00000000000E+00  0.40000000000E+02  0.40000000000E+02  0.00000000000E+00 0. -1.
        -11   -1    0    0    0    0 -0.00000000000E+00 -0.00000000000E+00 -0.40000000000E+02  0.40000000000E+02  0.00000000000E+00 0.  1.
         23    2    1    2    0    0  0.00000000000E+00  0.00000000000E+00  0.00000000000E+00  0.80000000000E+02  0.80000000000E+02 0.  0.
          5    1    3    3  501    0 -0.21437154329E+00  0.33728631285E+02 -0.20981979804E+02  0.40000000000E+02  0.47000000000E+01 0. -1.
         -5    1    3    3    0  501  0.21437154329E+00 -0.33728631285E+02  0.20981979804E+02  0.40000000000E+02  0.47000000000E+01 0.  1.
</event>
<event>
 5    1  0.4833967E-001  0.8000000E+02  0.7546771E-02  0.1203772E+00
         11   -1    0    0    0    0  0.00000000000E+00  0.00000000000E+00  0.40000000000E+02  0.40000000000E+02  0.00000000000E+00 0.  1.
        -11   -1    0    0    0    0 -0.00000000000E+00 -0.00000000000E+00 -0.40000000000E+02  0.40000000000E+02  0.00000000000E+00 0. -1.
         23    2    1    2    0    0  0.00000000000E+00  0.00000000000E+00  0.00000000000E+00  0.80000000000E+02  0.80000000000E+02 0.  0.
          5    1    3    3  501    0  0.27508490246E+02  0.28216770621E+02 -0.50006819641E+01  0.40000000000E+02  0.47000000000E+01 0. -1.
         -5    1    3    3    0  501 -0.27508490246E+02 -0.28216770621E+02  0.50006819641E+01  0.40000000000E+02  0.47000000000E+01 0.  1.
</event>
<event>
 5    1  0.4833967E-001  0.8000000E+02  0.7546771E-02  0.1203772E+00
         11   -1    0    0    0    0  0.00000000000E+00  0.00000000000E+00  0.40000000000E+02  0.40000000000E+02  0.00000000000E+00 0.  1.
        -11   -1    0    0    0    0 -0.00000000000E+00 -0.00000000000E+00 -0.40000000000E+02  0.40000000000E+02  0.00000000000E+00 0. -1.
         23    2    1    2    0    0  0.00000000000E+00  0.00000000000E+00  0.00000000000E+00  0.80000000000E+02  0.80000000000E+02 0.  0.
          5    1    3    3  501    0 -0.87617970843E+00 -0.93971813952E+01 -0.38585428479E+02  0.40000000000E+02  0.47000000000E+01 0. -1.
         -5    1    3    3    0  501  0.87617970843E+00  0.93971813952E+01  0.38585428479E+02  0.40000000000E+02  0.47000000000E+01 0.  1.
</event>
<event>
 5    1  0.4833967E-001  0.8000000E+02  0.7546771E-02  0.1203772E+00
         11   -1    0    0    0    0  0.00000000000E+00  0.00000000000E+00  0.40000000000E+02  0.40000000000E+02  0.00000000000E+00 0.  1.
        -11   -1    0    0    0    0 -0.00000000000E+00 -0.00000000000E+00 -0.40000000000E+02  0.40000000000E+02  0.00000000000E+00 0. -1.
         23    2    1    2    0    0  0.00000000000E+00  0.00000000000E+00  0.00000000000E+00  0.80000000000E+02  0.80000000000E+02 0.  0.
          5    1    3    3  501    0  0.73837232235E+01 -0.33569609847E+02 -0.19911602801E+02  0.40000000000E+02  0.47000000000E+01 0. -1.
         -5    1    3    3    0  501 -0.73837232235E+01  0.33569609847E+02  0.19911602801E+02  0.40000000000E+02  0.47000000000E+01 0.  1.
</event>
<event>
 5    1  0.4833967E-001  0.8000000E+02  0.7546771E-02  0.1203772E+00
         11   -1    0    0    0    0  0.00000000000E+00  0.00000000000E+00  0.40000000000E+02  0.40000000000E+02  0.00000000000E+00 0.  1.
        -11   -1    0    0    0    0 -0.00000000000E+00 -0.00000000000E+00 -0.40000000000E+02  0.40000000000E+02  0.00000000000E+00 0. -1.
         23    2    1    2    0    0  0.00000000000E+00  0.00000000000E+00  0.00000000000E+00  0.80000000000E+02  0.80000000000E+02 0.  0.
          5    1    3    3  501    0 -0.21542199407E+02 -0.93929418682E+01 -0.32025244539E+02  0.40000000000E+02  0.47000000000E+01 0. -1.
         -5    1    3    3    0  501  0.21542199407E+02  0.93929418682E+01  0.32025244539E+02  0.40000000000E+02  0.47000000000E+01 0.  1.
</event>
<event>
 5    1  0.4833967E-001  0.8000000E+02  0.7546771E-02  0.1203772E+00
         11   -1    0    0    0    0  0.00000000000E+00  0.00000000000E+00  0.40000000000E+02  0.40000000000E+02  0.00000000000E+00 0. -1.
        -11   -1    0    0    0    0 -0.00000000000E+00 -0.00000000000E+00 -0.40000000000E+02  0.40000000000E+02  0.00000000000E+00 0.  1.
         23    2    1    2    0    0  0.00000000000E+00  0.00000000000E+00  0.00000000000E+00  0.80000000000E+02  0.80000000000E+02 0.  0.
          5    1    3    3  501    0  0.31527002869E+02 -0.24054056698E+02  0.23152637964E+01  0.40000000000E+02  0.47000000000E+01 0. -1.
         -5    1    3    3    0  501 -0.31527002869E+02  0.24054056698E+02 -0.23152637964E+01  0.40000000000E+02  0.47000000000E+01 0.  1.
</event>
<event>
 5    1  0.4833967E-001  0.8000000E+02  0.7546771E-02  0.1203772E+00
         11   -1    0    0    0    0  0.00000000000E+00  0.00000000000E+00  0.40000000000E+02  0.40000000000E+02  0.00000000000E+00 0.  1.
        -11   -1    0    0    0    0 -0.00000000000E+00 -0.00000000000E+00 -0.40000000000E+02  0.40000000000E+02  0.00000000000E+00 0. -1.
         23    2    1    2    0    0  0.00000000000E+00  0.00000000000E+00  0.00000000000E+00  0.80000000000E+02  0.80000000000E+02 0.  0.
          5    1    3    3  501    0 -0.33819879319E+02  0.54048904486E+01 -0.20122448214E+02  0.40000000000E+02  0.47000000000E+01 0. -1.
         -5    1    3    3    0  501  0.33819879319E+02 -0.54048904486E+01  0.20122448214E+02  0.40000000000E+02  0.47000000000E+01 0.  1.
</event>
<event>
 5    1  0.4833967E-001  0.8000000E+02  0.7546771E-02  0.1203772E+00
         11   -1    0    0    0    0  0.00000000000E+00  0.00000000000E+00  0.40000000000E+02  0.40000000000E+02  0.00000000000E+00 0.  1.
        -11   -1    0    0    0    0 -0.00000000000E+00 -0.00000000000E+00 -0.40000000000E+02  0.40000000000E+02  0.00000000000E+00 0. -1.
         23    2    1    2    0    0  0.00000000000E+00  0.00000000000E+00  0.00000000000E+00  0.80000000000E+02  0.80000000000E+02 0.  0.
          5    1    3    3  501    0 -0.29465560030E+02 -0.26624153066E+02  0.91937242154E+00  0.40000000000E+02  0.47000000000E+01 0. -1.
         -5    1    3    3    0  501  0.29465560030E+02  0.26624153066E+02 -0.91937242154E+00  0.40000000000E+02  0.47000000000E+01 0.  1.
</event>
<event>
 5    1  0.4833967E-001  0.8000000E+02  0.7546771E-02  0.1203772E+00
         11   -1    0    0    0    0  0.00000000000E+00  0.00000000000E+00  0.40000000000E+02  0.40000000000E+02  0.00000000000E+00 0.  1.
        -11   -1    0    0    0    0 -0.00000000000E+00 -0.00000000000E+00 -0.40000000000E+02  0.40000000000E+02  0.00000000000E+00 0. -1.
         23    2    1    2    0    0  0.00000000000E+00  0.00000000000E+00  0.00000000000E+00  0.80000000000E+02  0.80000000000E+02 0.  0.
          5    1    3    3  501    0  0.32003280365E+02  0.23514107257E+02 -0.88702074907E+00  0.40000000000E+02  0.47000000000E+01 0. -1.
         -5    1    3    3    0  501 -0.32003280365E+02 -0.23514107257E+02  0.88702074907E+00  0.40000000000E+02  0.47000000000E+01 0.  1.
</event>
<event>
 5    1  0.4833967E-001  0.8000000E+02  0.7546771E-02  0.1203772E+00
         11   -1    0    0    0    0  0.00000000000E+00  0.00000000000E+00  0.40000000000E+02  0.40000000000E+02  0.00000000000E+00 0. -1.
        -11   -1    0    0    0    0 -0.00000000000E+00 -0.00000000000E+00 -0.40000000000E+02  0.40000000000E+02  0.00000000000E+00 0.  1.
         23    2    1    2    0    0  0.00000000000E+00  0.00000000000E+00  0.00000000000E+00  0.80000000000E+02  0.80000000000E+02 0.  0.
          5    1    3    3  501    0 -0.77531739804E+00 -0.28137629272E+02  0.28028248284E+02  0.40000000000E+02  0.47000000000E+01 0. -1.
         -5    1    3    3    0  501  0.77531739804E+00  0.28137629272E+02 -0.28028248284E+02  0.40000000000E+02  0.47000000000E+01 0.  1.
</event>
<event>
 5    1  0.4833967E-001  0.8000000E+02  0.7546771E-02  0.1203772E+00
         11   -1    0    0    0    0  0.00000000000E+00  0.00000000000E+00  0.40000000000E+02  0.40000000000E+02  0.00000000000E+00 0.  1.
        -11   -1    0    0    0    0 -0.00000000000E+00 -0.00000000000E+00 -0.40000000000E+02  0.40000000000E+02  0.00000000000E+00 0. -1.
         23    2    1    2    0    0  0.00000000000E+00  0.00000000000E+00  0.00000000000E+00  0.80000000000E+02  0.80000000000E+02 0.  0.
          5    1    3    3  501    0 -0.18508001050E+01 -0.12326623331E+02 -0.37716559973E+02  0.40000000000E+02  0.47000000000E+01 0. -1.
         -5    1    3    3    0  501  0.18508001050E+01  0.12326623331E+02  0.37716559973E+02  0.40000000000E+02  0.47000000000E+01 0.  1.
</event>
<event>
 5    1  0.4833967E-001  0.8000000E+02  0.7546771E-02  0.1203772E+00
         11   -1    0    0    0    0  0.00000000000E+00  0.00000000000E+00  0.40000000000E+02  0.40000000000E+02  0.00000000000E+00 0.  1.
        -11   -1    0    0    0    0 -0.00000000000E+00 -0.00000000000E+00 -0.40000000000E+02  0.40000000000E+02  0.00000000000E+00 0. -1.
         23    2    1    2    0    0  0.00000000000E+00  0.00000000000E+00  0.00000000000E+00  0.80000000000E+02  0.80000000000E+02 0.  0.
          5    1    3    3  501    0 -0.26946000032E+02  0.87288721211E+01 -0.27850132383E+02  0.40000000000E+02  0.47000000000E+01 0. -1.
         -5    1    3    3    0  501  0.26946000032E+02 -0.87288721211E+01  0.27850132383E+02  0.40000000000E+02  0.47000000000E+01 0.  1.
</event>
<event>
 5    1  0.4833967E-001  0.8000000E+02  0.7546771E-02  0.1203772E+00
         11   -1    0    0    0    0  0.00000000000E+00  0.00000000000E+00  0.40000000000E+02  0.40000000000E+02  0.00000000000E+00 0.  1.
        -11   -1    0    0    0    0 -0.00000000000E+00 -0.00000000000E+00 -0.40000000000E+02  0.40000000000E+02  0.00000000000E+00 0. -1.
         23    2    1    2    0    0  0.00000000000E+00  0.00000000000E+00  0.00000000000E+00  0.80000000000E+02  0.80000000000E+02 0.  0.
          5    1    3    3  501    0 -0.27674558027E+02 -0.54941533816E+01 -0.27961457698E+02  0.40000000000E+02  0.47000000000E+01 0. -1.
         -5    1    3    3    0  501  0.27674558027E+02  0.54941533816E+01  0.27961457698E+02  0.40000000000E+02  0.47000000000E+01 0.  1.
</event>
<event>
 5    1  0.4833967E-001  0.8000000E+02  0.7546771E-02  0.1203772E+00
         11   -1    0    0    0    0  0.00000000000E+00  0.00000000000E+00  0.40000000000E+02  0.40000000000E+02  0.00000000000E+00 0. -1.
        -11   -1    0    0    0    0 -0.00000000000E+00 -0.00000000000E+00 -0.40000000000E+02  0.40000000000E+02  0.00000000000E+00 0.  1.
         23    2    1    2    0    0  0.00000000000E+00  0.00000000000E+00  0.00000000000E+00  0.80000000000E+02  0.80000000000E+02 0.  0.
          5    1    3    3  501    0  0.12155643147E+02 -0.37044960493E+02  0.76040279967E+01  0.40000000000E+02  0.47000000000E+01 0. -1.
         -5    1    3    3    0  501 -0.12155643147E+02  0.37044960493E+02 -0.76040279967E+01  0.40000000000E+02  0.47000000000E+01 0.  1.
</event>
<event>
 5    1  0.4833967E-001  0.8000000E+02  0.7546771E-02  0.1203772E+00
         11   -1    0    0    0    0  0.00000000000E+00  0.00000000000E+00  0.40000000000E+02  0.40000000000E+02  0.00000000000E+00 0. -1.
        -11   -1    0    0    0    0 -0.00000000000E+00 -0.00000000000E+00 -0.40000000000E+02  0.40000000000E+02  0.00000000000E+00 0.  1.
         23    2    1    2    0    0  0.00000000000E+00  0.00000000000E+00  0.00000000000E+00  0.80000000000E+02  0.80000000000E+02 0.  0.
          5    1    3    3  501    0  0.21715836235E+01  0.98014959810E+00  0.39651400118E+02  0.40000000000E+02  0.47000000000E+01 0. -1.
         -5    1    3    3    0  501 -0.21715836235E+01 -0.98014959810E+00 -0.39651400118E+02  0.40000000000E+02  0.47000000000E+01 0.  1.
</event>
<event>
 5    1  0.4833967E-001  0.8000000E+02  0.7546771E-02  0.1203772E+00
         11   -1    0    0    0    0  0.00000000000E+00  0.00000000000E+00  0.40000000000E+02  0.40000000000E+02  0.00000000000E+00 0. -1.
        -11   -1    0    0    0    0 -0.00000000000E+00 -0.00000000000E+00 -0.40000000000E+02  0.40000000000E+02  0.00000000000E+00 0.  1.
         23    2    1    2    0    0  0.00000000000E+00  0.00000000000E+00  0.00000000000E+00  0.80000000000E+02  0.80000000000E+02 0.  0.
          5    1    3    3  501    0 -0.34415305457E+02  0.19655624245E+02 -0.26745440476E+01  0.40000000000E+02  0.47000000000E+01 0. -1.
         -5    1    3    3    0  501  0.34415305457E+02 -0.19655624245E+02  0.26745440476E+01  0.40000000000E+02  0.47000000000E+01 0.  1.
</event>
<event>
 5    1  0.4833967E-001  0.8000000E+02  0.7546771E-02  0.1203772E+00
         11   -1    0    0    0    0  0.00000000000E+00  0.00000000000E+00  0.40000000000E+02  0.40000000000E+02  0.00000000000E+00 0. -1.
        -11   -1    0    0    0    0 -0.00000000000E+00 -0.00000000000E+00 -0.40000000000E+02  0.40000000000E+02  0.00000000000E+00 0.  1.
         23    2    1    2    0    0  0.00000000000E+00  0.00000000000E+00  0.00000000000E+00  0.80000000000E+02  0.80000000000E+02 0.  0.
          5    1    3    3  501    0 -0.16930599558E+01 -0.11700234262E+02 -0.37922922701E+02  0.40000000000E+02  0.47000000000E+01 0.  1.
         -5    1    3    3    0  501  0.16930599558E+01  0.11700234262E+02  0.37922922701E+02  0.40000000000E+02  0.47000000000E+01 0. -1.
</event>
<event>
 5    1  0.4833967E-001  0.8000000E+02  0.7546771E-02  0.1203772E+00
         11   -1    0    0    0    0  0.00000000000E+00  0.00000000000E+00  0.40000000000E+02  0.40000000000E+02  0.00000000000E+00 0. -1.
        -11   -1    0    0    0    0 -0.00000000000E+00 -0.00000000000E+00 -0.40000000000E+02  0.40000000000E+02  0.00000000000E+00 0.  1.
         23    2    1    2    0    0  0.00000000000E+00  0.00000000000E+00  0.00000000000E+00  0.80000000000E+02  0.80000000000E+02 0.  0.
          5    1    3    3  501    0 -0.15334878121E+02  0.32904609483E+02  0.16125699606E+02  0.40000000000E+02  0.47000000000E+01 0. -1.
         -5    1    3    3    0  501  0.15334878121E+02 -0.32904609483E+02 -0.16125699606E+02  0.40000000000E+02  0.47000000000E+01 0.  1.
</event>
<event>
 5    1  0.4833967E-001  0.8000000E+02  0.7546771E-02  0.1203772E+00
         11   -1    0    0    0    0  0.00000000000E+00  0.00000000000E+00  0.40000000000E+02  0.40000000000E+02  0.00000000000E+00 0. -1.
        -11   -1    0    0    0    0 -0.00000000000E+00 -0.00000000000E+00 -0.40000000000E+02  0.40000000000E+02  0.00000000000E+00 0.  1.
         23    2    1    2    0    0  0.00000000000E+00  0.00000000000E+00  0.00000000000E+00  0.80000000000E+02  0.80000000000E+02 0.  0.
          5    1    3    3  501    0 -0.35924852489E+01 -0.45731930294E+01  0.39294910043E+02  0.40000000000E+02  0.47000000000E+01 0. -1.
         -5    1    3    3    0  501  0.35924852489E+01  0.45731930294E+01 -0.39294910043E+02  0.40000000000E+02  0.47000000000E+01 0.  1.
</event>
<event>
 5    1  0.4833967E-001  0.8000000E+02  0.7546771E-02  0.1203772E+00
         11   -1    0    0    0    0  0.00000000000E+00  0.00000000000E+00  0.40000000000E+02  0.40000000000E+02  0.00000000000E+00 0.  1.
        -11   -1    0    0    0    0 -0.00000000000E+00 -0.00000000000E+00 -0.40000000000E+02  0.40000000000E+02  0.00000000000E+00 0. -1.
         23    2    1    2    0    0  0.00000000000E+00  0.00000000000E+00  0.00000000000E+00  0.80000000000E+02  0.80000000000E+02 0.  0.
          5    1    3    3  501    0  0.32269369298E+02  0.23063382313E+02  0.21629150290E+01  0.40000000000E+02  0.47000000000E+01 0. -1.
         -5    1    3    3    0  501 -0.32269369298E+02 -0.23063382313E+02 -0.21629150290E+01  0.40000000000E+02  0.47000000000E+01 0.  1.
</event>
<event>
 5    1  0.4833967E-001  0.8000000E+02  0.7546771E-02  0.1203772E+00
         11   -1    0    0    0    0  0.00000000000E+00  0.00000000000E+00  0.40000000000E+02  0.40000000000E+02  0.00000000000E+00 0.  1.
        -11   -1    0    0    0    0 -0.00000000000E+00 -0.00000000000E+00 -0.40000000000E+02  0.40000000000E+02  0.00000000000E+00 0. -1.
         23    2    1    2    0    0  0.00000000000E+00  0.00000000000E+00  0.00000000000E+00  0.80000000000E+02  0.80000000000E+02 0.  0.
          5    1    3    3  501    0  0.10070632885E+02  0.24861724680E+02  0.29298242255E+02  0.40000000000E+02  0.47000000000E+01 0. -1.
         -5    1    3    3    0  501 -0.10070632885E+02 -0.24861724680E+02 -0.29298242255E+02  0.40000000000E+02  0.47000000000E+01 0.  1.
</event>
<event>
 5    1  0.4833967E-001  0.8000000E+02  0.7546771E-02  0.1203772E+00
         11   -1    0    0    0    0  0.00000000000E+00  0.00000000000E+00  0.40000000000E+02  0.40000000000E+02  0.00000000000E+00 0. -1.
        -11   -1    0    0    0    0 -0.00000000000E+00 -0.00000000000E+00 -0.40000000000E+02  0.40000000000E+02  0.00000000000E+00 0.  1.
         23    2    1    2    0    0  0.00000000000E+00  0.00000000000E+00  0.00000000000E+00  0.80000000000E+02  0.80000000000E+02 0.  0.
          5    1    3    3  501    0 -0.18483204759E+02  0.14110991101E+02  0.32204985204E+02  0.40000000000E+02  0.47000000000E+01 0. -1.
         -5    1    3    3    0  501  0.18483204759E+02 -0.14110991101E+02 -0.32204985204E+02  0.40000000000E+02  0.47000000000E+01 0.  1.
</event>
<event>
 5    1  0.4833967E-001  0.8000000E+02  0.7546771E-02  0.1203772E+00
         11   -1    0    0    0    0  0.00000000000E+00  0.00000000000E+00  0.40000000000E+02  0.40000000000E+02  0.00000000000E+00 0. -1.
        -11   -1    0    0    0    0 -0.00000000000E+00 -0.00000000000E+00 -0.40000000000E+02  0.40000000000E+02  0.00000000000E+00 0.  1.
         23    2    1    2    0    0  0.00000000000E+00  0.00000000000E+00  0.00000000000E+00  0.80000000000E+02  0.80000000000E+02 0.  0.
          5    1    3    3  501    0 -0.27665666560E+02 -0.20670199882E+02  0.19628136199E+02  0.40000000000E+02  0.47000000000E+01 0. -1.
         -5    1    3    3    0  501  0.27665666560E+02  0.20670199882E+02 -0.19628136199E+02  0.40000000000E+02  0.47000000000E+01 0.  1.
</event>
<event>
 5    1  0.4833967E-001  0.8000000E+02  0.7546771E-02  0.1203772E+00
         11   -1    0    0    0    0  0.00000000000E+00  0.00000000000E+00  0.40000000000E+02  0.40000000000E+02  0.00000000000E+00 0. -1.
        -11   -1    0    0    0    0 -0.00000000000E+00 -0.00000000000E+00 -0.40000000000E+02  0.40000000000E+02  0.00000000000E+00 0.  1.
         23    2    1    2    0    0  0.00000000000E+00  0.00000000000E+00  0.00000000000E+00  0.80000000000E+02  0.80000000000E+02 0.  0.
          5    1    3    3  501    0  0.28785241745E+02  0.23759409690E+00  0.27372676280E+02  0.40000000000E+02  0.47000000000E+01 0. -1.
         -5    1    3    3    0  501 -0.28785241745E+02 -0.23759409690E+00 -0.27372676280E+02  0.40000000000E+02  0.47000000000E+01 0.  1.
</event>
<event>
 5    1  0.4833967E-001  0.8000000E+02  0.7546771E-02  0.1203772E+00
         11   -1    0    0    0    0  0.00000000000E+00  0.00000000000E+00  0.40000000000E+02  0.40000000000E+02  0.00000000000E+00 0. -1.
        -11   -1    0    0    0    0 -0.00000000000E+00 -0.00000000000E+00 -0.40000000000E+02  0.40000000000E+02  0.00000000000E+00 0.  1.
         23    2    1    2    0    0  0.00000000000E+00  0.00000000000E+00  0.00000000000E+00  0.80000000000E+02  0.80000000000E+02 0.  0.
          5    1    3    3  501    0  0.27199898551E+01  0.85264923418E+01  0.38701557895E+02  0.40000000000E+02  0.47000000000E+01 0. -1.
         -5    1    3    3    0  501 -0.27199898551E+01 -0.85264923418E+01 -0.38701557895E+02  0.40000000000E+02  0.47000000000E+01 0.  1.
</event>
<event>
 5    1  0.4833967E-001  0.8000000E+02  0.7546771E-02  0.1203772E+00
         11   -1    0    0    0    0  0.00000000000E+00  0.00000000000E+00  0.40000000000E+02  0.40000000000E+02  0.00000000000E+00 0. -1.
        -11   -1    0    0    0    0 -0.00000000000E+00 -0.00000000000E+00 -0.40000000000E+02  0.40000000000E+02  0.00000000000E+00 0.  1.
         23    2    1    2    0    0  0.00000000000E+00  0.00000000000E+00  0.00000000000E+00  0.80000000000E+02  0.80000000000E+02 0.  0.
          5    1    3    3  501    0 -0.25928374560E+02  0.98261166818E+00  0.30077630674E+02  0.40000000000E+02  0.47000000000E+01 0. -1.
         -5    1    3    3    0  501  0.25928374560E+02 -0.98261166818E+00 -0.30077630674E+02  0.40000000000E+02  0.47000000000E+01 0.  1.
</event>
<event>
 5    1  0.4833967E-001  0.8000000E+02  0.7546771E-02  0.1203772E+00
         11   -1    0    0    0    0  0.00000000000E+00  0.00000000000E+00  0.40000000000E+02  0.40000000000E+02  0.00000000000E+00 0. -1.
        -11   -1    0    0    0    0 -0.00000000000E+00 -0.00000000000E+00 -0.40000000000E+02  0.40000000000E+02  0.00000000000E+00 0.  1.
         23    2    1    2    0    0  0.00000000000E+00  0.00000000000E+00  0.00000000000E+00  0.80000000000E+02  0.80000000000E+02 0.  0.
          5    1    3    3  501    0 -0.14660382328E+02 -0.95538984859E+01  0.35660990083E+02  0.40000000000E+02  0.47000000000E+01 0. -1.
         -5    1    3    3    0  501  0.14660382328E+02  0.95538984859E+01 -0.35660990083E+02  0.40000000000E+02  0.47000000000E+01 0.  1.
</event>
<event>
 5    1  0.4833967E-001  0.8000000E+02  0.7546771E-02  0.1203772E+00
         11   -1    0    0    0    0  0.00000000000E+00  0.00000000000E+00  0.40000000000E+02  0.40000000000E+02  0.00000000000E+00 0. -1.
        -11   -1    0    0    0    0 -0.00000000000E+00 -0.00000000000E+00 -0.40000000000E+02  0.40000000000E+02  0.00000000000E+00 0.  1.
         23    2    1    2    0    0  0.00000000000E+00  0.00000000000E+00  0.00000000000E+00  0.80000000000E+02  0.80000000000E+02 0.  0.
          5    1    3    3  501    0 -0.90355856489E+01 -0.22257543163E+02 -0.31636528955E+02  0.40000000000E+02  0.47000000000E+01 0.  1.
         -5    1    3    3    0  501  0.90355856489E+01  0.22257543163E+02  0.31636528955E+02  0.40000000000E+02  0.47000000000E+01 0. -1.
</event>
<event>
 5    1  0.4833967E-001  0.8000000E+02  0.7546771E-02  0.1203772E+00
         11   -1    0    0    0    0  0.00000000000E+00  0.00000000000E+00  0.40000000000E+02  0.40000000000E+02  0.00000000000E+00 0. -1.
        -11   -1    0    0    0    0 -0.00000000000E+00 -0.00000000000E+00 -0.40000000000E+02  0.40000000000E+02  0.00000000000E+00 0.  1.
         23    2    1    2    0    0  0.00000000000E+00  0.00000000000E+00  0.00000000000E+00  0.80000000000E+02  0.80000000000E+02 0.  0.
          5    1    3    3  501    0  0.30286165107E+01  0.25720680922E+02 -0.30119496260E+02  0.40000000000E+02  0.47000000000E+01 0.  1.
         -5    1    3    3    0  501 -0.30286165107E+01 -0.25720680922E+02  0.30119496260E+02  0.40000000000E+02  0.47000000000E+01 0. -1.
</event>
<event>
 5    1  0.4833967E-001  0.8000000E+02  0.7546771E-02  0.1203772E+00
         11   -1    0    0    0    0  0.00000000000E+00  0.00000000000E+00  0.40000000000E+02  0.40000000000E+02  0.00000000000E+00 0. -1.
        -11   -1    0    0    0    0 -0.00000000000E+00 -0.00000000000E+00 -0.40000000000E+02  0.40000000000E+02  0.00000000000E+00 0.  1.
         23    2    1    2    0    0  0.00000000000E+00  0.00000000000E+00  0.00000000000E+00  0.80000000000E+02  0.80000000000E+02 0.  0.
          5    1    3    3  501    0  0.12184248870E+02  0.36766081991E+02 -0.88152875456E+01  0.40000000000E+02  0.47000000000E+01 0. -1.
         -5    1    3    3    0  501 -0.12184248870E+02 -0.36766081991E+02  0.88152875456E+01  0.40000000000E+02  0.47000000000E+01 0.  1.
</event>
<event>
 5    1  0.4833967E-001  0.8000000E+02  0.7546771E-02  0.1203772E+00
         11   -1    0    0    0    0  0.00000000000E+00  0.00000000000E+00  0.40000000000E+02  0.40000000000E+02  0.00000000000E+00 0.  1.
        -11   -1    0    0    0    0 -0.00000000000E+00 -0.00000000000E+00 -0.40000000000E+02  0.40000000000E+02  0.00000000000E+00 0. -1.
         23    2    1    2    0    0  0.00000000000E+00  0.00000000000E+00  0.00000000000E+00  0.80000000000E+02  0.80000000000E+02 0.  0.
          5    1    3    3  501    0  0.32943620884E+02 -0.10219868004E+02 -0.19702338466E+02  0.40000000000E+02  0.47000000000E+01 0. -1.
         -5    1    3    3    0  501 -0.32943620884E+02  0.10219868004E+02  0.19702338466E+02  0.40000000000E+02  0.47000000000E+01 0.  1.
</event>
<event>
 5    1  0.4833967E-001  0.8000000E+02  0.7546771E-02  0.1203772E+00
         11   -1    0    0    0    0  0.00000000000E+00  0.00000000000E+00  0.40000000000E+02  0.40000000000E+02  0.00000000000E+00 0.  1.
        -11   -1    0    0    0    0 -0.00000000000E+00 -0.00000000000E+00 -0.40000000000E+02  0.40000000000E+02  0.00000000000E+00 0. -1.
         23    2    1    2    0    0  0.00000000000E+00  0.00000000000E+00  0.00000000000E+00  0.80000000000E+02  0.80000000000E+02 0.  0.
          5    1    3    3  501    0  0.17263230552E+02 -0.25392784479E+02 -0.25201138214E+02  0.40000000000E+02  0.47000000000E+01 0. -1.
         -5    1    3    3    0  501 -0.17263230552E+02  0.25392784479E+02  0.25201138214E+02  0.40000000000E+02  0.47000000000E+01 0.  1.
</event>
<event>
 5    1  0.4833967E-001  0.8000000E+02  0.7546771E-02  0.1203772E+00
         11   -1    0    0    0    0  0.00000000000E+00  0.00000000000E+00  0.40000000000E+02  0.40000000000E+02  0.00000000000E+00 0.  1.
        -11   -1    0    0    0    0 -0.00000000000E+00 -0.00000000000E+00 -0.40000000000E+02  0.40000000000E+02  0.00000000000E+00 0. -1.
         23    2    1    2    0    0  0.00000000000E+00  0.00000000000E+00  0.00000000000E+00  0.80000000000E+02  0.80000000000E+02 0.  0.
          5    1    3    3  501    0  0.11101300450E+02 -0.37337233063E+02 -0.77847386271E+01  0.40000000000E+02  0.47000000000E+01 0. -1.
         -5    1    3    3    0  501 -0.11101300450E+02  0.37337233063E+02  0.77847386271E+01  0.40000000000E+02  0.47000000000E+01 0.  1.
</event>
<event>
 5    1  0.4833967E-001  0.8000000E+02  0.7546771E-02  0.1203772E+00
         11   -1    0    0    0    0  0.00000000000E+00  0.00000000000E+00  0.40000000000E+02  0.40000000000E+02  0.00000000000E+00 0. -1.
        -11   -1    0    0    0    0 -0.00000000000E+00 -0.00000000000E+00 -0.40000000000E+02  0.40000000000E+02  0.00000000000E+00 0.  1.
         23    2    1    2    0    0  0.00000000000E+00  0.00000000000E+00  0.00000000000E+00  0.80000000000E+02  0.80000000000E+02 0.  0.
          5    1    3    3  501    0  0.11922429106E+02  0.22710873045E+02  0.30331203895E+02  0.40000000000E+02  0.47000000000E+01 0. -1.
         -5    1    3    3    0  501 -0.11922429106E+02 -0.22710873045E+02 -0.30331203895E+02  0.40000000000E+02  0.47000000000E+01 0.  1.
</event>
<event>
 5    1  0.4833967E-001  0.8000000E+02  0.7546771E-02  0.1203772E+00
         11   -1    0    0    0    0  0.00000000000E+00  0.00000000000E+00  0.40000000000E+02  0.40000000000E+02  0.00000000000E+00 0.  1.
        -11   -1    0    0    0    0 -0.00000000000E+00 -0.00000000000E+00 -0.40000000000E+02  0.40000000000E+02  0.00000000000E+00 0. -1.
         23    2    1    2    0    0  0.00000000000E+00  0.00000000000E+00  0.00000000000E+00  0.80000000000E+02  0.80000000000E+02 0.  0.
          5    1    3    3  501    0 -0.93722038052E+01  0.11220546239E+02 -0.36934687462E+02  0.40000000000E+02  0.47000000000E+01 0. -1.
         -5    1    3    3    0  501  0.93722038052E+01 -0.11220546239E+02  0.36934687462E+02  0.40000000000E+02  0.47000000000E+01 0.  1.
</event>
<event>
 5    1  0.4833967E-001  0.8000000E+02  0.7546771E-02  0.1203772E+00
         11   -1    0    0    0    0  0.00000000000E+00  0.00000000000E+00  0.40000000000E+02  0.40000000000E+02  0.00000000000E+00 0. -1.
        -11   -1    0    0    0    0 -0.00000000000E+00 -0.00000000000E+00 -0.40000000000E+02  0.40000000000E+02  0.00000000000E+00 0.  1.
         23    2    1    2    0    0  0.00000000000E+00  0.00000000000E+00  0.00000000000E+00  0.80000000000E+02  0.80000000000E+02 0.  0.
          5    1    3    3  501    0  0.15491043365E+02  0.98406086366E+01  0.35229249171E+02  0.40000000000E+02  0.47000000000E+01 0. -1.
         -5    1    3    3    0  501 -0.15491043365E+02 -0.98406086366E+01 -0.35229249171E+02  0.40000000000E+02  0.47000000000E+01 0.  1.
</event>
<event>
 5    1  0.4833967E-001  0.8000000E+02  0.7546771E-02  0.1203772E+00
         11   -1    0    0    0    0  0.00000000000E+00  0.00000000000E+00  0.40000000000E+02  0.40000000000E+02  0.00000000000E+00 0. -1.
        -11   -1    0    0    0    0 -0.00000000000E+00 -0.00000000000E+00 -0.40000000000E+02  0.40000000000E+02  0.00000000000E+00 0.  1.
         23    2    1    2    0    0  0.00000000000E+00  0.00000000000E+00  0.00000000000E+00  0.80000000000E+02  0.80000000000E+02 0.  0.
          5    1    3    3  501    0 -0.12970106087E+02 -0.16642390074E+02  0.33655864284E+02  0.40000000000E+02  0.47000000000E+01 0. -1.
         -5    1    3    3    0  501  0.12970106087E+02  0.16642390074E+02 -0.33655864284E+02  0.40000000000E+02  0.47000000000E+01 0.  1.
</event>
<event>
 5    1  0.4833967E-001  0.8000000E+02  0.7546771E-02  0.1203772E+00
         11   -1    0    0    0    0  0.00000000000E+00  0.00000000000E+00  0.40000000000E+02  0.40000000000E+02  0.00000000000E+00 0.  1.
        -11   -1    0    0    0    0 -0.00000000000E+00 -0.00000000000E+00 -0.40000000000E+02  0.40000000000E+02  0.00000000000E+00 0. -1.
         23    2    1    2    0    0  0.00000000000E+00  0.00000000000E+00  0.00000000000E+00  0.80000000000E+02  0.80000000000E+02 0.  0.
          5    1    3    3  501    0  0.28179870968E+02 -0.20771509659E+02 -0.18770968509E+02  0.40000000000E+02  0.47000000000E+01 0. -1.
         -5    1    3    3    0  501 -0.28179870968E+02  0.20771509659E+02  0.18770968509E+02  0.40000000000E+02  0.47000000000E+01 0.  1.
</event>
<event>
 5    1  0.4833967E-001  0.8000000E+02  0.7546771E-02  0.1203772E+00
         11   -1    0    0    0    0  0.00000000000E+00  0.00000000000E+00  0.40000000000E+02  0.40000000000E+02  0.00000000000E+00 0.  1.
        -11   -1    0    0    0    0 -0.00000000000E+00 -0.00000000000E+00 -0.40000000000E+02  0.40000000000E+02  0.00000000000E+00 0. -1.
         23    2    1    2    0    0  0.00000000000E+00  0.00000000000E+00  0.00000000000E+00  0.80000000000E+02  0.80000000000E+02 0.  0.
          5    1    3    3  501    0  0.45225425889E+01  0.50963166965E+01 -0.39134181538E+02  0.40000000000E+02  0.47000000000E+01 0. -1.
         -5    1    3    3    0  501 -0.45225425889E+01 -0.50963166965E+01  0.39134181538E+02  0.40000000000E+02  0.47000000000E+01 0.  1.
</event>
<event>
 5    1  0.4833967E-001  0.8000000E+02  0.7546771E-02  0.1203772E+00
         11   -1    0    0    0    0  0.00000000000E+00  0.00000000000E+00  0.40000000000E+02  0.40000000000E+02  0.00000000000E+00 0. -1.
        -11   -1    0    0    0    0 -0.00000000000E+00 -0.00000000000E+00 -0.40000000000E+02  0.40000000000E+02  0.00000000000E+00 0.  1.
         23    2    1    2    0    0  0.00000000000E+00  0.00000000000E+00  0.00000000000E+00  0.80000000000E+02  0.80000000000E+02 0.  0.
          5    1    3    3  501    0  0.16705781479E+02  0.75123980822E+01  0.35247563607E+02  0.40000000000E+02  0.47000000000E+01 0. -1.
         -5    1    3    3    0  501 -0.16705781479E+02 -0.75123980822E+01 -0.35247563607E+02  0.40000000000E+02  0.47000000000E+01 0.  1.
</event>
<event>
 5    1  0.4833967E-001  0.8000000E+02  0.7546771E-02  0.1203772E+00
         11   -1    0    0    0    0  0.00000000000E+00  0.00000000000E+00  0.40000000000E+02  0.40000000000E+02  0.00000000000E+00 0. -1.
        -11   -1    0    0    0    0 -0.00000000000E+00 -0.00000000000E+00 -0.40000000000E+02  0.40000000000E+02  0.00000000000E+00 0.  1.
         23    2    1    2    0    0  0.00000000000E+00  0.00000000000E+00  0.00000000000E+00  0.80000000000E+02  0.80000000000E+02 0.  0.
          5    1    3    3  501    0 -0.16567551130E+01 -0.57322664475E+01  0.39272207525E+02  0.40000000000E+02  0.47000000000E+01 0. -1.
         -5    1    3    3    0  501  0.16567551130E+01  0.57322664475E+01 -0.39272207525E+02  0.40000000000E+02  0.47000000000E+01 0.  1.
</event>
<event>
 5    1  0.4833967E-001  0.8000000E+02  0.7546771E-02  0.1203772E+00
         11   -1    0    0    0    0  0.00000000000E+00  0.00000000000E+00  0.40000000000E+02  0.40000000000E+02  0.00000000000E+00 0.  1.
        -11   -1    0    0    0    0 -0.00000000000E+00 -0.00000000000E+00 -0.40000000000E+02  0.40000000000E+02  0.00000000000E+00 0. -1.
         23    2    1    2    0    0  0.00000000000E+00  0.00000000000E+00  0.00000000000E+00  0.80000000000E+02  0.80000000000E+02 0.  0.
          5    1    3    3  501    0 -0.13372765680E+02  0.37319635613E+02  0.25147436862E+01  0.40000000000E+02  0.47000000000E+01 0. -1.
         -5    1    3    3    0  501  0.13372765680E+02 -0.37319635613E+02 -0.25147436862E+01  0.40000000000E+02  0.47000000000E+01 0.  1.
</event>
<event>
 5    1  0.4833967E-001  0.8000000E+02  0.7546771E-02  0.1203772E+00
         11   -1    0    0    0    0  0.00000000000E+00  0.00000000000E+00  0.40000000000E+02  0.40000000000E+02  0.00000000000E+00 0. -1.
        -11   -1    0    0    0    0 -0.00000000000E+00 -0.00000000000E+00 -0.40000000000E+02  0.40000000000E+02  0.00000000000E+00 0.  1.
         23    2    1    2    0    0  0.00000000000E+00  0.00000000000E+00  0.00000000000E+00  0.80000000000E+02  0.80000000000E+02 0.  0.
          5    1    3    3  501    0 -0.13010663048E+02 -0.19375339318E+01  0.37481710331E+02  0.40000000000E+02  0.47000000000E+01 0. -1.
         -5    1    3    3    0  501  0.13010663048E+02  0.19375339318E+01 -0.37481710331E+02  0.40000000000E+02  0.47000000000E+01 0.  1.
</event>
<event>
 5    1  0.4833967E-001  0.8000000E+02  0.7546771E-02  0.1203772E+00
         11   -1    0    0    0    0  0.00000000000E+00  0.00000000000E+00  0.40000000000E+02  0.40000000000E+02  0.00000000000E+00 0. -1.
        -11   -1    0    0    0    0 -0.00000000000E+00 -0.00000000000E+00 -0.40000000000E+02  0.40000000000E+02  0.00000000000E+00 0.  1.
         23    2    1    2    0    0  0.00000000000E+00  0.00000000000E+00  0.00000000000E+00  0.80000000000E+02  0.80000000000E+02 0.  0.
          5    1    3    3  501    0  0.36609109002E+02  0.15164671606E+02  0.27777460602E+01  0.40000000000E+02  0.47000000000E+01 0. -1.
         -5    1    3    3    0  501 -0.36609109002E+02 -0.15164671606E+02 -0.27777460602E+01  0.40000000000E+02  0.47000000000E+01 0.  1.
</event>
<event>
 5    1  0.4833967E-001  0.8000000E+02  0.7546771E-02  0.1203772E+00
         11   -1    0    0    0    0  0.00000000000E+00  0.00000000000E+00  0.40000000000E+02  0.40000000000E+02  0.00000000000E+00 0. -1.
        -11   -1    0    0    0    0 -0.00000000000E+00 -0.00000000000E+00 -0.40000000000E+02  0.40000000000E+02  0.00000000000E+00 0.  1.
         23    2    1    2    0    0  0.00000000000E+00  0.00000000000E+00  0.00000000000E+00  0.80000000000E+02  0.80000000000E+02 0.  0.
          5    1    3    3  501    0 -0.13888306039E+02  0.27769689881E+02  0.24776385517E+02  0.40000000000E+02  0.47000000000E+01 0. -1.
         -5    1    3    3    0  501  0.13888306039E+02 -0.27769689881E+02 -0.24776385517E+02  0.40000000000E+02  0.47000000000E+01 0.  1.
</event>
<event>
 5    1  0.4833967E-001  0.8000000E+02  0.7546771E-02  0.1203772E+00
         11   -1    0    0    0    0  0.00000000000E+00  0.00000000000E+00  0.40000000000E+02  0.40000000000E+02  0.00000000000E+00 0.  1.
        -11   -1    0    0    0    0 -0.00000000000E+00 -0.00000000000E+00 -0.40000000000E+02  0.40000000000E+02  0.00000000000E+00 0. -1.
         23    2    1    2    0    0  0.00000000000E+00  0.00000000000E+00  0.00000000000E+00  0.80000000000E+02  0.80000000000E+02 0.  0.
          5    1    3    3  501    0  0.63639035187E+01 -0.25154114985E+02 -0.30077919331E+02  0.40000000000E+02  0.47000000000E+01 0. -1.
         -5    1    3    3    0  501 -0.63639035187E+01  0.25154114985E+02  0.30077919331E+02  0.40000000000E+02  0.47000000000E+01 0.  1.
</event>
<event>
 5    1  0.4833967E-001  0.8000000E+02  0.7546771E-02  0.1203772E+00
         11   -1    0    0    0    0  0.00000000000E+00  0.00000000000E+00  0.40000000000E+02  0.40000000000E+02  0.00000000000E+00 0. -1.
        -11   -1    0    0    0    0 -0.00000000000E+00 -0.00000000000E+00 -0.40000000000E+02  0.40000000000E+02  0.00000000000E+00 0.  1.
         23    2    1    2    0    0  0.00000000000E+00  0.00000000000E+00  0.00000000000E+00  0.80000000000E+02  0.80000000000E+02 0.  0.
          5    1    3    3  501    0  0.10459337752E+02  0.36951653747E+02  0.10153203395E+02  0.40000000000E+02  0.47000000000E+01 0. -1.
         -5    1    3    3    0  501 -0.10459337752E+02 -0.36951653747E+02 -0.10153203395E+02  0.40000000000E+02  0.47000000000E+01 0.  1.
</event>
<event>
 5    1  0.4833967E-001  0.8000000E+02  0.7546771E-02  0.1203772E+00
         11   -1    0    0    0    0  0.00000000000E+00  0.00000000000E+00  0.40000000000E+02  0.40000000000E+02  0.00000000000E+00 0.  1.
        -11   -1    0    0    0    0 -0.00000000000E+00 -0.00000000000E+00 -0.40000000000E+02  0.40000000000E+02  0.00000000000E+00 0. -1.
         23    2    1    2    0    0  0.00000000000E+00  0.00000000000E+00  0.00000000000E+00  0.80000000000E+02  0.80000000000E+02 0.  0.
          5    1    3    3  501    0 -0.27186451608E+02 -0.21820452523E+02 -0.19044020076E+02  0.40000000000E+02  0.47000000000E+01 0. -1.
         -5    1    3    3    0  501  0.27186451608E+02  0.21820452523E+02  0.19044020076E+02  0.40000000000E+02  0.47000000000E+01 0.  1.
</event>
<event>
 5    1  0.4833967E-001  0.8000000E+02  0.7546771E-02  0.1203772E+00
         11   -1    0    0    0    0  0.00000000000E+00  0.00000000000E+00  0.40000000000E+02  0.40000000000E+02  0.00000000000E+00 0.  1.
        -11   -1    0    0    0    0 -0.00000000000E+00 -0.00000000000E+00 -0.40000000000E+02  0.40000000000E+02  0.00000000000E+00 0. -1.
         23    2    1    2    0    0  0.00000000000E+00  0.00000000000E+00  0.00000000000E+00  0.80000000000E+02  0.80000000000E+02 0.  0.
          5    1    3    3  501    0 -0.39307780703E+02 -0.27932891410E+01 -0.50005911630E+01  0.40000000000E+02  0.47000000000E+01 0. -1.
         -5    1    3    3    0  501  0.39307780703E+02  0.27932891410E+01  0.50005911630E+01  0.40000000000E+02  0.47000000000E+01 0.  1.
</event>
<event>
 5    1  0.4833967E-001  0.8000000E+02  0.7546771E-02  0.1203772E+00
         11   -1    0    0    0    0  0.00000000000E+00  0.00000000000E+00  0.40000000000E+02  0.40000000000E+02  0.00000000000E+00 0.  1.
        -11   -1    0    0    0    0 -0.00000000000E+00 -0.00000000000E+00 -0.40000000000E+02  0.40000000000E+02  0.00000000000E+00 0. -1.
         23    2    1    2    0    0  0.00000000000E+00  0.00000000000E+00  0.00000000000E+00  0.80000000000E+02  0.80000000000E+02 0.  0.
          5    1    3    3  501    0 -0.26102699155E+02 -0.11323882856E+02 -0.27718744089E+02  0.40000000000E+02  0.47000000000E+01 0. -1.
         -5    1    3    3    0  501  0.26102699155E+02  0.11323882856E+02  0.27718744089E+02  0.40000000000E+02  0.47000000000E+01 0.  1.
</event>
<event>
 5    1  0.4833967E-001  0.8000000E+02  0.7546771E-02  0.1203772E+00
         11   -1    0    0    0    0  0.00000000000E+00  0.00000000000E+00  0.40000000000E+02  0.40000000000E+02  0.00000000000E+00 0. -1.
        -11   -1    0    0    0    0 -0.00000000000E+00 -0.00000000000E+00 -0.40000000000E+02  0.40000000000E+02  0.00000000000E+00 0.  1.
         23    2    1    2    0    0  0.00000000000E+00  0.00000000000E+00  0.00000000000E+00  0.80000000000E+02  0.80000000000E+02 0.  0.
          5    1    3    3  501    0  0.28235864778E+01  0.18672434728E+02 -0.34946781551E+02  0.40000000000E+02  0.47000000000E+01 0.  1.
         -5    1    3    3    0  501 -0.28235864778E+01 -0.18672434728E+02  0.34946781551E+02  0.40000000000E+02  0.47000000000E+01 0. -1.
</event>
<event>
 5    1  0.4833967E-001  0.8000000E+02  0.7546771E-02  0.1203772E+00
         11   -1    0    0    0    0  0.00000000000E+00  0.00000000000E+00  0.40000000000E+02  0.40000000000E+02  0.00000000000E+00 0.  1.
        -11   -1    0    0    0    0 -0.00000000000E+00 -0.00000000000E+00 -0.40000000000E+02  0.40000000000E+02  0.00000000000E+00 0. -1.
         23    2    1    2    0    0  0.00000000000E+00  0.00000000000E+00  0.00000000000E+00  0.80000000000E+02  0.80000000000E+02 0.  0.
          5    1    3    3  501    0 -0.37309765080E+02 -0.11863669248E+02 -0.67189866531E+01  0.40000000000E+02  0.47000000000E+01 0. -1.
         -5    1    3    3    0  501  0.37309765080E+02  0.11863669248E+02  0.67189866531E+01  0.40000000000E+02  0.47000000000E+01 0.  1.
</event>
<event>
 5    1  0.4833967E-001  0.8000000E+02  0.7546771E-02  0.1203772E+00
         11   -1    0    0    0    0  0.00000000000E+00  0.00000000000E+00  0.40000000000E+02  0.40000000000E+02  0.00000000000E+00 0.  1.
        -11   -1    0    0    0    0 -0.00000000000E+00 -0.00000000000E+00 -0.40000000000E+02  0.40000000000E+02  0.00000000000E+00 0. -1.
         23    2    1    2    0    0  0.00000000000E+00  0.00000000000E+00  0.00000000000E+00  0.80000000000E+02  0.80000000000E+02 0.  0.
          5    1    3    3  501    0  0.35406012059E+02 -0.50023281254E+01 -0.17300318593E+02  0.40000000000E+02  0.47000000000E+01 0. -1.
         -5    1    3    3    0  501 -0.35406012059E+02  0.50023281254E+01  0.17300318593E+02  0.40000000000E+02  0.47000000000E+01 0.  1.
</event>
<event>
 5    1  0.4833967E-001  0.8000000E+02  0.7546771E-02  0.1203772E+00
         11   -1    0    0    0    0  0.00000000000E+00  0.00000000000E+00  0.40000000000E+02  0.40000000000E+02  0.00000000000E+00 0. -1.
        -11   -1    0    0    0    0 -0.00000000000E+00 -0.00000000000E+00 -0.40000000000E+02  0.40000000000E+02  0.00000000000E+00 0.  1.
         23    2    1    2    0    0  0.00000000000E+00  0.00000000000E+00  0.00000000000E+00  0.80000000000E+02  0.80000000000E+02 0.  0.
          5    1    3    3  501    0 -0.36571654438E+02  0.98704541421E+01  0.11958186596E+02  0.40000000000E+02  0.47000000000E+01 0. -1.
         -5    1    3    3    0  501  0.36571654438E+02 -0.98704541421E+01 -0.11958186596E+02  0.40000000000E+02  0.47000000000E+01 0.  1.
</event>
<event>
 5    1  0.4833967E-001  0.8000000E+02  0.7546771E-02  0.1203772E+00
         11   -1    0    0    0    0  0.00000000000E+00  0.00000000000E+00  0.40000000000E+02  0.40000000000E+02  0.00000000000E+00 0. -1.
        -11   -1    0    0    0    0 -0.00000000000E+00 -0.00000000000E+00 -0.40000000000E+02  0.40000000000E+02  0.00000000000E+00 0.  1.
         23    2    1    2    0    0  0.00000000000E+00  0.00000000000E+00  0.00000000000E+00  0.80000000000E+02  0.80000000000E+02 0.  0.
          5    1    3    3  501    0  0.24942640226E+02 -0.24443803893E+02 -0.18928157592E+02  0.40000000000E+02  0.47000000000E+01 0. -1.
         -5    1    3    3    0  501 -0.24942640226E+02  0.24443803893E+02  0.18928157592E+02  0.40000000000E+02  0.47000000000E+01 0.  1.
</event>
<event>
 5    1  0.4833967E-001  0.8000000E+02  0.7546771E-02  0.1203772E+00
         11   -1    0    0    0    0  0.00000000000E+00  0.00000000000E+00  0.40000000000E+02  0.40000000000E+02  0.00000000000E+00 0. -1.
        -11   -1    0    0    0    0 -0.00000000000E+00 -0.00000000000E+00 -0.40000000000E+02  0.40000000000E+02  0.00000000000E+00 0.  1.
         23    2    1    2    0    0  0.00000000000E+00  0.00000000000E+00  0.00000000000E+00  0.80000000000E+02  0.80000000000E+02 0.  0.
          5    1    3    3  501    0  0.15000663904E+00 -0.21205570302E+02  0.33588856577E+02  0.40000000000E+02  0.47000000000E+01 0. -1.
         -5    1    3    3    0  501 -0.15000663904E+00  0.21205570302E+02 -0.33588856577E+02  0.40000000000E+02  0.47000000000E+01 0.  1.
</event>
<event>
 5    1  0.4833967E-001  0.8000000E+02  0.7546771E-02  0.1203772E+00
         11   -1    0    0    0    0  0.00000000000E+00  0.00000000000E+00  0.40000000000E+02  0.40000000000E+02  0.00000000000E+00 0.  1.
        -11   -1    0    0    0    0 -0.00000000000E+00 -0.00000000000E+00 -0.40000000000E+02  0.40000000000E+02  0.00000000000E+00 0. -1.
         23    2    1    2    0    0  0.00000000000E+00  0.00000000000E+00  0.00000000000E+00  0.80000000000E+02  0.80000000000E+02 0.  0.
          5    1    3    3  501    0  0.22024420978E+02 -0.22305256871E+02 -0.24398983514E+02  0.40000000000E+02  0.47000000000E+01 0. -1.
         -5    1    3    3    0  501 -0.22024420978E+02  0.22305256871E+02  0.24398983514E+02  0.40000000000E+02  0.47000000000E+01 0.  1.
</event>
<event>
 5    1  0.4833967E-001  0.8000000E+02  0.7546771E-02  0.1203772E+00
         11   -1    0    0    0    0  0.00000000000E+00  0.00000000000E+00  0.40000000000E+02  0.40000000000E+02  0.00000000000E+00 0.  1.
        -11   -1    0    0    0    0 -0.00000000000E+00 -0.00000000000E+00 -0.40000000000E+02  0.40000000000E+02  0.00000000000E+00 0. -1.
         23    2    1    2    0    0  0.00000000000E+00  0.00000000000E+00  0.00000000000E+00  0.80000000000E+02  0.80000000000E+02 0.  0.
          5    1    3    3  501    0  0.16313728752E+02  0.26196514828E+02 -0.25010295182E+02  0.40000000000E+02  0.47000000000E+01 0. -1.
         -5    1    3    3    0  501 -0.16313728752E+02 -0.26196514828E+02  0.25010295182E+02  0.40000000000E+02  0.47000000000E+01 0.  1.
</event>
<event>
 5    1  0.4833967E-001  0.8000000E+02  0.7546771E-02  0.1203772E+00
         11   -1    0    0    0    0  0.00000000000E+00  0.00000000000E+00  0.40000000000E+02  0.40000000000E+02  0.00000000000E+00 0.  1.
        -11   -1    0    0    0    0 -0.00000000000E+00 -0.00000000000E+00 -0.40000000000E+02  0.40000000000E+02  0.00000000000E+00 0. -1.
         23    2    1    2    0    0  0.00000000000E+00  0.00000000000E+00  0.00000000000E+00  0.80000000000E+02  0.80000000000E+02 0.  0.
          5    1    3    3  501    0 -0.11639133233E+02 -0.67649723385E+01 -0.37372124998E+02  0.40000000000E+02  0.47000000000E+01 0. -1.
         -5    1    3    3    0  501  0.11639133233E+02  0.67649723385E+01  0.37372124998E+02  0.40000000000E+02  0.47000000000E+01 0.  1.
</event>
<event>
 5    1  0.4833967E-001  0.8000000E+02  0.7546771E-02  0.1203772E+00
         11   -1    0    0    0    0  0.00000000000E+00  0.00000000000E+00  0.40000000000E+02  0.40000000000E+02  0.00000000000E+00 0.  1.
        -11   -1    0    0    0    0 -0.00000000000E+00 -0.00000000000E+00 -0.40000000000E+02  0.40000000000E+02  0.00000000000E+00 0. -1.
         23    2    1    2    0    0  0.00000000000E+00  0.00000000000E+00  0.00000000000E+00  0.80000000000E+02  0.80000000000E+02 0.  0.
          5    1    3    3  501    0  0.77369760332E+01  0.37211161333E+02  0.11548968530E+02  0.40000000000E+02  0.47000000000E+01 0. -1.
         -5    1    3    3    0  501 -0.77369760332E+01 -0.37211161333E+02 -0.11548968530E+02  0.40000000000E+02  0.47000000000E+01 0.  1.
</event>
<event>
 5    1  0.4833967E-001  0.8000000E+02  0.7546771E-02  0.1203772E+00
         11   -1    0    0    0    0  0.00000000000E+00  0.00000000000E+00  0.40000000000E+02  0.40000000000E+02  0.00000000000E+00 0.  1.
        -11   -1    0    0    0    0 -0.00000000000E+00 -0.00000000000E+00 -0.40000000000E+02  0.40000000000E+02  0.00000000000E+00 0. -1.
         23    2    1    2    0    0  0.00000000000E+00  0.00000000000E+00  0.00000000000E+00  0.80000000000E+02  0.80000000000E+02 0.  0.
          5    1    3    3  501    0 -0.87619166865E+01  0.12605749469E+02 -0.36636510428E+02  0.40000000000E+02  0.47000000000E+01 0. -1.
         -5    1    3    3    0  501  0.87619166865E+01 -0.12605749469E+02  0.36636510428E+02  0.40000000000E+02  0.47000000000E+01 0.  1.
</event>
<event>
 5    1  0.4833967E-001  0.8000000E+02  0.7546771E-02  0.1203772E+00
         11   -1    0    0    0    0  0.00000000000E+00  0.00000000000E+00  0.40000000000E+02  0.40000000000E+02  0.00000000000E+00 0. -1.
        -11   -1    0    0    0    0 -0.00000000000E+00 -0.00000000000E+00 -0.40000000000E+02  0.40000000000E+02  0.00000000000E+00 0.  1.
         23    2    1    2    0    0  0.00000000000E+00  0.00000000000E+00  0.00000000000E+00  0.80000000000E+02  0.80000000000E+02 0.  0.
          5    1    3    3  501    0 -0.38403290282E+02 -0.87210508781E+01 -0.52000545317E+01  0.40000000000E+02  0.47000000000E+01 0. -1.
         -5    1    3    3    0  501  0.38403290282E+02  0.87210508781E+01  0.52000545317E+01  0.40000000000E+02  0.47000000000E+01 0.  1.
</event>
<event>
 5    1  0.4833967E-001  0.8000000E+02  0.7546771E-02  0.1203772E+00
         11   -1    0    0    0    0  0.00000000000E+00  0.00000000000E+00  0.40000000000E+02  0.40000000000E+02  0.00000000000E+00 0. -1.
        -11   -1    0    0    0    0 -0.00000000000E+00 -0.00000000000E+00 -0.40000000000E+02  0.40000000000E+02  0.00000000000E+00 0.  1.
         23    2    1    2    0    0  0.00000000000E+00  0.00000000000E+00  0.00000000000E+00  0.80000000000E+02  0.80000000000E+02 0.  0.
          5    1    3    3  501    0 -0.38035613809E+02 -0.10491235540E+02  0.45973969793E+01  0.40000000000E+02  0.47000000000E+01 0. -1.
         -5    1    3    3    0  501  0.38035613809E+02  0.10491235540E+02 -0.45973969793E+01  0.40000000000E+02  0.47000000000E+01 0.  1.
</event>
<event>
 5    1  0.4833967E-001  0.8000000E+02  0.7546771E-02  0.1203772E+00
         11   -1    0    0    0    0  0.00000000000E+00  0.00000000000E+00  0.40000000000E+02  0.40000000000E+02  0.00000000000E+00 0. -1.
        -11   -1    0    0    0    0 -0.00000000000E+00 -0.00000000000E+00 -0.40000000000E+02  0.40000000000E+02  0.00000000000E+00 0.  1.
         23    2    1    2    0    0  0.00000000000E+00  0.00000000000E+00  0.00000000000E+00  0.80000000000E+02  0.80000000000E+02 0.  0.
          5    1    3    3  501    0  0.17605793428E+02  0.30714985051E+02  0.18014875273E+02  0.40000000000E+02  0.47000000000E+01 0. -1.
         -5    1    3    3    0  501 -0.17605793428E+02 -0.30714985051E+02 -0.18014875273E+02  0.40000000000E+02  0.47000000000E+01 0.  1.
</event>
<event>
 5    1  0.4833967E-001  0.8000000E+02  0.7546771E-02  0.1203772E+00
         11   -1    0    0    0    0  0.00000000000E+00  0.00000000000E+00  0.40000000000E+02  0.40000000000E+02  0.00000000000E+00 0. -1.
        -11   -1    0    0    0    0 -0.00000000000E+00 -0.00000000000E+00 -0.40000000000E+02  0.40000000000E+02  0.00000000000E+00 0.  1.
         23    2    1    2    0    0  0.00000000000E+00  0.00000000000E+00  0.00000000000E+00  0.80000000000E+02  0.80000000000E+02 0.  0.
          5    1    3    3  501    0  0.12712639760E+02  0.24561192552E+02  0.28513972202E+02  0.40000000000E+02  0.47000000000E+01 0. -1.
         -5    1    3    3    0  501 -0.12712639760E+02 -0.24561192552E+02 -0.28513972202E+02  0.40000000000E+02  0.47000000000E+01 0.  1.
</event>
<event>
 5    1  0.4833967E-001  0.8000000E+02  0.7546771E-02  0.1203772E+00
         11   -1    0    0    0    0  0.00000000000E+00  0.00000000000E+00  0.40000000000E+02  0.40000000000E+02  0.00000000000E+00 0.  1.
        -11   -1    0    0    0    0 -0.00000000000E+00 -0.00000000000E+00 -0.40000000000E+02  0.40000000000E+02  0.00000000000E+00 0. -1.
         23    2    1    2    0    0  0.00000000000E+00  0.00000000000E+00  0.00000000000E+00  0.80000000000E+02  0.80000000000E+02 0.  0.
          5    1    3    3  501    0 -0.22481719247E+02  0.27757459798E+02 -0.17378311921E+02  0.40000000000E+02  0.47000000000E+01 0. -1.
         -5    1    3    3    0  501  0.22481719247E+02 -0.27757459798E+02  0.17378311921E+02  0.40000000000E+02  0.47000000000E+01 0.  1.
</event>
<event>
 5    1  0.4833967E-001  0.8000000E+02  0.7546771E-02  0.1203772E+00
         11   -1    0    0    0    0  0.00000000000E+00  0.00000000000E+00  0.40000000000E+02  0.40000000000E+02  0.00000000000E+00 0.  1.
        -11   -1    0    0    0    0 -0.00000000000E+00 -0.00000000000E+00 -0.40000000000E+02  0.40000000000E+02  0.00000000000E+00 0. -1.
         23    2    1    2    0    0  0.00000000000E+00  0.00000000000E+00  0.00000000000E+00  0.80000000000E+02  0.80000000000E+02 0.  0.
          5    1    3    3  501    0 -0.35764900965E+02 -0.16209802205E+02  0.60020139510E+01  0.40000000000E+02  0.47000000000E+01 0. -1.
         -5    1    3    3    0  501  0.35764900965E+02  0.16209802205E+02 -0.60020139510E+01  0.40000000000E+02  0.47000000000E+01 0.  1.
</event>
<event>
 5    1  0.4833967E-001  0.8000000E+02  0.7546771E-02  0.1203772E+00
         11   -1    0    0    0    0  0.00000000000E+00  0.00000000000E+00  0.40000000000E+02  0.40000000000E+02  0.00000000000E+00 0. -1.
        -11   -1    0    0    0    0 -0.00000000000E+00 -0.00000000000E+00 -0.40000000000E+02  0.40000000000E+02  0.00000000000E+00 0.  1.
         23    2    1    2    0    0  0.00000000000E+00  0.00000000000E+00  0.00000000000E+00  0.80000000000E+02  0.80000000000E+02 0.  0.
          5    1    3    3  501    0  0.12390235972E+02  0.12527141110E+02  0.35601443625E+02  0.40000000000E+02  0.47000000000E+01 0. -1.
         -5    1    3    3    0  501 -0.12390235972E+02 -0.12527141110E+02 -0.35601443625E+02  0.40000000000E+02  0.47000000000E+01 0.  1.
</event>
<event>
 5    1  0.4833967E-001  0.8000000E+02  0.7546771E-02  0.1203772E+00
         11   -1    0    0    0    0  0.00000000000E+00  0.00000000000E+00  0.40000000000E+02  0.40000000000E+02  0.00000000000E+00 0. -1.
        -11   -1    0    0    0    0 -0.00000000000E+00 -0.00000000000E+00 -0.40000000000E+02  0.40000000000E+02  0.00000000000E+00 0.  1.
         23    2    1    2    0    0  0.00000000000E+00  0.00000000000E+00  0.00000000000E+00  0.80000000000E+02  0.80000000000E+02 0.  0.
          5    1    3    3  501    0  0.12585579387E+02  0.37676241559E+02  0.11837868780E+00  0.40000000000E+02  0.47000000000E+01 0. -1.
         -5    1    3    3    0  501 -0.12585579387E+02 -0.37676241559E+02 -0.11837868780E+00  0.40000000000E+02  0.47000000000E+01 0.  1.
</event>
<event>
 5    1  0.4833967E-001  0.8000000E+02  0.7546771E-02  0.1203772E+00
         11   -1    0    0    0    0  0.00000000000E+00  0.00000000000E+00  0.40000000000E+02  0.40000000000E+02  0.00000000000E+00 0.  1.
        -11   -1    0    0    0    0 -0.00000000000E+00 -0.00000000000E+00 -0.40000000000E+02  0.40000000000E+02  0.00000000000E+00 0. -1.
         23    2    1    2    0    0  0.00000000000E+00  0.00000000000E+00  0.00000000000E+00  0.80000000000E+02  0.80000000000E+02 0.  0.
          5    1    3    3  501    0 -0.19923432928E+02 -0.15002646799E+02 -0.30917428894E+02  0.40000000000E+02  0.47000000000E+01 0. -1.
         -5    1    3    3    0  501  0.19923432928E+02  0.15002646799E+02  0.30917428894E+02  0.40000000000E+02  0.47000000000E+01 0.  1.
</event>
<event>
 5    1  0.4833967E-001  0.8000000E+02  0.7546771E-02  0.1203772E+00
         11   -1    0    0    0    0  0.00000000000E+00  0.00000000000E+00  0.40000000000E+02  0.40000000000E+02  0.00000000000E+00 0. -1.
        -11   -1    0    0    0    0 -0.00000000000E+00 -0.00000000000E+00 -0.40000000000E+02  0.40000000000E+02  0.00000000000E+00 0.  1.
         23    2    1    2    0    0  0.00000000000E+00  0.00000000000E+00  0.00000000000E+00  0.80000000000E+02  0.80000000000E+02 0.  0.
          5    1    3    3  501    0  0.26946535019E+02  0.25213442624E+02  0.14699542903E+02  0.40000000000E+02  0.47000000000E+01 0. -1.
         -5    1    3    3    0  501 -0.26946535019E+02 -0.25213442624E+02 -0.14699542903E+02  0.40000000000E+02  0.47000000000E+01 0.  1.
</event>
<event>
 5    1  0.4833967E-001  0.8000000E+02  0.7546771E-02  0.1203772E+00
         11   -1    0    0    0    0  0.00000000000E+00  0.00000000000E+00  0.40000000000E+02  0.40000000000E+02  0.00000000000E+00 0.  1.
        -11   -1    0    0    0    0 -0.00000000000E+00 -0.00000000000E+00 -0.40000000000E+02  0.40000000000E+02  0.00000000000E+00 0. -1.
         23    2    1    2    0    0  0.00000000000E+00  0.00000000000E+00  0.00000000000E+00  0.80000000000E+02  0.80000000000E+02 0.  0.
          5    1    3    3  501    0  0.37471294519E+02  0.11120340518E+02  0.70816745092E+01  0.40000000000E+02  0.47000000000E+01 0. -1.
         -5    1    3    3    0  501 -0.37471294519E+02 -0.11120340518E+02 -0.70816745092E+01  0.40000000000E+02  0.47000000000E+01 0.  1.
</event>
<event>
 5    1  0.4833967E-001  0.8000000E+02  0.7546771E-02  0.1203772E+00
         11   -1    0    0    0    0  0.00000000000E+00  0.00000000000E+00  0.40000000000E+02  0.40000000000E+02  0.00000000000E+00 0. -1.
        -11   -1    0    0    0    0 -0.00000000000E+00 -0.00000000000E+00 -0.40000000000E+02  0.40000000000E+02  0.00000000000E+00 0.  1.
         23    2    1    2    0    0  0.00000000000E+00  0.00000000000E+00  0.00000000000E+00  0.80000000000E+02  0.80000000000E+02 0.  0.
          5    1    3    3  501    0  0.84765130371E+01 -0.60557936865E+01  0.38332572175E+02  0.40000000000E+02  0.47000000000E+01 0. -1.
         -5    1    3    3    0  501 -0.84765130371E+01  0.60557936865E+01 -0.38332572175E+02  0.40000000000E+02  0.47000000000E+01 0.  1.
</event>
<event>
 5    1  0.4833967E-001  0.8000000E+02  0.7546771E-02  0.1203772E+00
         11   -1    0    0    0    0  0.00000000000E+00  0.00000000000E+00  0.40000000000E+02  0.40000000000E+02  0.00000000000E+00 0.  1.
        -11   -1    0    0    0    0 -0.00000000000E+00 -0.00000000000E+00 -0.40000000000E+02  0.40000000000E+02  0.00000000000E+00 0. -1.
         23    2    1    2    0    0  0.00000000000E+00  0.00000000000E+00  0.00000000000E+00  0.80000000000E+02  0.80000000000E+02 0.  0.
          5    1    3    3  501    0 -0.32412679752E+02 -0.22207270236E+02 -0.58451124828E+01  0.40000000000E+02  0.47000000000E+01 0. -1.
         -5    1    3    3    0  501  0.32412679752E+02  0.22207270236E+02  0.58451124828E+01  0.40000000000E+02  0.47000000000E+01 0.  1.
</event>
<event>
 5    1  0.4833967E-001  0.8000000E+02  0.7546771E-02  0.1203772E+00
         11   -1    0    0    0    0  0.00000000000E+00  0.00000000000E+00  0.40000000000E+02  0.40000000000E+02  0.00000000000E+00 0.  1.
        -11   -1    0    0    0    0 -0.00000000000E+00 -0.00000000000E+00 -0.40000000000E+02  0.40000000000E+02  0.00000000000E+00 0. -1.
         23    2    1    2    0    0  0.00000000000E+00  0.00000000000E+00  0.00000000000E+00  0.80000000000E+02  0.80000000000E+02 0.  0.
          5    1    3    3  501    0  0.21031183992E+02 -0.64848056092E+01 -0.33068816068E+02  0.40000000000E+02  0.47000000000E+01 0. -1.
         -5    1    3    3    0  501 -0.21031183992E+02  0.64848056092E+01  0.33068816068E+02  0.40000000000E+02  0.47000000000E+01 0.  1.
</event>
<event>
 5    1  0.4833967E-001  0.8000000E+02  0.7546771E-02  0.1203772E+00
         11   -1    0    0    0    0  0.00000000000E+00  0.00000000000E+00  0.40000000000E+02  0.40000000000E+02  0.00000000000E+00 0.  1.
        -11   -1    0    0    0    0 -0.00000000000E+00 -0.00000000000E+00 -0.40000000000E+02  0.40000000000E+02  0.00000000000E+00 0. -1.
         23    2    1    2    0    0  0.00000000000E+00  0.00000000000E+00  0.00000000000E+00  0.80000000000E+02  0.80000000000E+02 0.  0.
          5    1    3    3  501    0 -0.47240685522E+01  0.15532319135E+02 -0.36253830675E+02  0.40000000000E+02  0.47000000000E+01 0. -1.
         -5    1    3    3    0  501  0.47240685522E+01 -0.15532319135E+02  0.36253830675E+02  0.40000000000E+02  0.47000000000E+01 0.  1.
</event>
<event>
 5    1  0.4833967E-001  0.8000000E+02  0.7546771E-02  0.1203772E+00
         11   -1    0    0    0    0  0.00000000000E+00  0.00000000000E+00  0.40000000000E+02  0.40000000000E+02  0.00000000000E+00 0.  1.
        -11   -1    0    0    0    0 -0.00000000000E+00 -0.00000000000E+00 -0.40000000000E+02  0.40000000000E+02  0.00000000000E+00 0. -1.
         23    2    1    2    0    0  0.00000000000E+00  0.00000000000E+00  0.00000000000E+00  0.80000000000E+02  0.80000000000E+02 0.  0.
          5    1    3    3  501    0  0.32416512212E+02 -0.67740656188E+01 -0.21936083766E+02  0.40000000000E+02  0.47000000000E+01 0. -1.
         -5    1    3    3    0  501 -0.32416512212E+02  0.67740656188E+01  0.21936083766E+02  0.40000000000E+02  0.47000000000E+01 0.  1.
</event>
<event>
 5    1  0.4833967E-001  0.8000000E+02  0.7546771E-02  0.1203772E+00
         11   -1    0    0    0    0  0.00000000000E+00  0.00000000000E+00  0.40000000000E+02  0.40000000000E+02  0.00000000000E+00 0.  1.
        -11   -1    0    0    0    0 -0.00000000000E+00 -0.00000000000E+00 -0.40000000000E+02  0.40000000000E+02  0.00000000000E+00 0. -1.
         23    2    1    2    0    0  0.00000000000E+00  0.00000000000E+00  0.00000000000E+00  0.80000000000E+02  0.80000000000E+02 0.  0.
          5    1    3    3  501    0  0.28085641706E+02 -0.22351234201E+02 -0.17015553463E+02  0.40000000000E+02  0.47000000000E+01 0. -1.
         -5    1    3    3    0  501 -0.28085641706E+02  0.22351234201E+02  0.17015553463E+02  0.40000000000E+02  0.47000000000E+01 0.  1.
</event>
<event>
 5    1  0.4833967E-001  0.8000000E+02  0.7546771E-02  0.1203772E+00
         11   -1    0    0    0    0  0.00000000000E+00  0.00000000000E+00  0.40000000000E+02  0.40000000000E+02  0.00000000000E+00 0. -1.
        -11   -1    0    0    0    0 -0.00000000000E+00 -0.00000000000E+00 -0.40000000000E+02  0.40000000000E+02  0.00000000000E+00 0.  1.
         23    2    1    2    0    0  0.00000000000E+00  0.00000000000E+00  0.00000000000E+00  0.80000000000E+02  0.80000000000E+02 0.  0.
          5    1    3    3  501    0 -0.24616502547E+02  0.13191102283E+02  0.28247701197E+02  0.40000000000E+02  0.47000000000E+01 0. -1.
         -5    1    3    3    0  501  0.24616502547E+02 -0.13191102283E+02 -0.28247701197E+02  0.40000000000E+02  0.47000000000E+01 0.  1.
</event>
<event>
 5    1  0.4833967E-001  0.8000000E+02  0.7546771E-02  0.1203772E+00
         11   -1    0    0    0    0  0.00000000000E+00  0.00000000000E+00  0.40000000000E+02  0.40000000000E+02  0.00000000000E+00 0.  1.
        -11   -1    0    0    0    0 -0.00000000000E+00 -0.00000000000E+00 -0.40000000000E+02  0.40000000000E+02  0.00000000000E+00 0. -1.
         23    2    1    2    0    0  0.00000000000E+00  0.00000000000E+00  0.00000000000E+00  0.80000000000E+02  0.80000000000E+02 0.  0.
          5    1    3    3  501    0 -0.28686118985E+02  0.27415104762E+02 -0.18516502127E+01  0.40000000000E+02  0.47000000000E+01 0. -1.
         -5    1    3    3    0  501  0.28686118985E+02 -0.27415104762E+02  0.18516502127E+01  0.40000000000E+02  0.47000000000E+01 0.  1.
</event>
<event>
 5    1  0.4833967E-001  0.8000000E+02  0.7546771E-02  0.1203772E+00
         11   -1    0    0    0    0  0.00000000000E+00  0.00000000000E+00  0.40000000000E+02  0.40000000000E+02  0.00000000000E+00 0. -1.
        -11   -1    0    0    0    0 -0.00000000000E+00 -0.00000000000E+00 -0.40000000000E+02  0.40000000000E+02  0.00000000000E+00 0.  1.
         23    2    1    2    0    0  0.00000000000E+00  0.00000000000E+00  0.00000000000E+00  0.80000000000E+02  0.80000000000E+02 0.  0.
          5    1    3    3  501    0  0.39418672140E+02 -0.84454653188E+00  0.48337384971E+01  0.40000000000E+02  0.47000000000E+01 0. -1.
         -5    1    3    3    0  501 -0.39418672140E+02  0.84454653188E+00 -0.48337384971E+01  0.40000000000E+02  0.47000000000E+01 0.  1.
</event>
<event>
 5    1  0.4833967E-001  0.8000000E+02  0.7546771E-02  0.1203772E+00
         11   -1    0    0    0    0  0.00000000000E+00  0.00000000000E+00  0.40000000000E+02  0.40000000000E+02  0.00000000000E+00 0. -1.
        -11   -1    0    0    0    0 -0.00000000000E+00 -0.00000000000E+00 -0.40000000000E+02  0.40000000000E+02  0.00000000000E+00 0.  1.
         23    2    1    2    0    0  0.00000000000E+00  0.00000000000E+00  0.00000000000E+00  0.80000000000E+02  0.80000000000E+02 0.  0.
          5    1    3    3  501    0  0.32051666659E+01 -0.25736250388E+02  0.30087909907E+02  0.40000000000E+02  0.47000000000E+01 0. -1.
         -5    1    3    3    0  501 -0.32051666659E+01  0.25736250388E+02 -0.30087909907E+02  0.40000000000E+02  0.47000000000E+01 0.  1.
</event>
<event>
 5    1  0.4833967E-001  0.8000000E+02  0.7546771E-02  0.1203772E+00
         11   -1    0    0    0    0  0.00000000000E+00  0.00000000000E+00  0.40000000000E+02  0.40000000000E+02  0.00000000000E+00 0.  1.
        -11   -1    0    0    0    0 -0.00000000000E+00 -0.00000000000E+00 -0.40000000000E+02  0.40000000000E+02  0.00000000000E+00 0. -1.
         23    2    1    2    0    0  0.00000000000E+00  0.00000000000E+00  0.00000000000E+00  0.80000000000E+02  0.80000000000E+02 0.  0.
          5    1    3    3  501    0 -0.12948095395E+02 -0.35756548869E+02 -0.11477196462E+02  0.40000000000E+02  0.47000000000E+01 0. -1.
         -5    1    3    3    0  501  0.12948095395E+02  0.35756548869E+02  0.11477196462E+02  0.40000000000E+02  0.47000000000E+01 0.  1.
</event>
<event>
 5    1  0.4833967E-001  0.8000000E+02  0.7546771E-02  0.1203772E+00
         11   -1    0    0    0    0  0.00000000000E+00  0.00000000000E+00  0.40000000000E+02  0.40000000000E+02  0.00000000000E+00 0.  1.
        -11   -1    0    0    0    0 -0.00000000000E+00 -0.00000000000E+00 -0.40000000000E+02  0.40000000000E+02  0.00000000000E+00 0. -1.
         23    2    1    2    0    0  0.00000000000E+00  0.00000000000E+00  0.00000000000E+00  0.80000000000E+02  0.80000000000E+02 0.  0.
          5    1    3    3  501    0 -0.14451485165E+02  0.18995811120E+02 -0.31752539054E+02  0.40000000000E+02  0.47000000000E+01 0. -1.
         -5    1    3    3    0  501  0.14451485165E+02 -0.18995811120E+02  0.31752539054E+02  0.40000000000E+02  0.47000000000E+01 0.  1.
</event>
<event>
 5    1  0.4833967E-001  0.8000000E+02  0.7546771E-02  0.1203772E+00
         11   -1    0    0    0    0  0.00000000000E+00  0.00000000000E+00  0.40000000000E+02  0.40000000000E+02  0.00000000000E+00 0.  1.
        -11   -1    0    0    0    0 -0.00000000000E+00 -0.00000000000E+00 -0.40000000000E+02  0.40000000000E+02  0.00000000000E+00 0. -1.
         23    2    1    2    0    0  0.00000000000E+00  0.00000000000E+00  0.00000000000E+00  0.80000000000E+02  0.80000000000E+02 0.  0.
          5    1    3    3  501    0 -0.51098697515E+01  0.32866212638E+02 -0.21716613410E+02  0.40000000000E+02  0.47000000000E+01 0. -1.
         -5    1    3    3    0  501  0.51098697515E+01 -0.32866212638E+02  0.21716613410E+02  0.40000000000E+02  0.47000000000E+01 0.  1.
</event>
<event>
 5    1  0.4833967E-001  0.8000000E+02  0.7546771E-02  0.1203772E+00
         11   -1    0    0    0    0  0.00000000000E+00  0.00000000000E+00  0.40000000000E+02  0.40000000000E+02  0.00000000000E+00 0. -1.
        -11   -1    0    0    0    0 -0.00000000000E+00 -0.00000000000E+00 -0.40000000000E+02  0.40000000000E+02  0.00000000000E+00 0.  1.
         23    2    1    2    0    0  0.00000000000E+00  0.00000000000E+00  0.00000000000E+00  0.80000000000E+02  0.80000000000E+02 0.  0.
          5    1    3    3  501    0 -0.80884042254E+01  0.31284116120E+02  0.23103934636E+02  0.40000000000E+02  0.47000000000E+01 0. -1.
         -5    1    3    3    0  501  0.80884042254E+01 -0.31284116120E+02 -0.23103934636E+02  0.40000000000E+02  0.47000000000E+01 0.  1.
</event>
<event>
 5    1  0.4833967E-001  0.8000000E+02  0.7546771E-02  0.1203772E+00
         11   -1    0    0    0    0  0.00000000000E+00  0.00000000000E+00  0.40000000000E+02  0.40000000000E+02  0.00000000000E+00 0.  1.
        -11   -1    0    0    0    0 -0.00000000000E+00 -0.00000000000E+00 -0.40000000000E+02  0.40000000000E+02  0.00000000000E+00 0. -1.
         23    2    1    2    0    0  0.00000000000E+00  0.00000000000E+00  0.00000000000E+00  0.80000000000E+02  0.80000000000E+02 0.  0.
          5    1    3    3  501    0  0.29197990697E+02 -0.11501470487E+02 -0.24353716675E+02  0.40000000000E+02  0.47000000000E+01 0. -1.
         -5    1    3    3    0  501 -0.29197990697E+02  0.11501470487E+02  0.24353716675E+02  0.40000000000E+02  0.47000000000E+01 0.  1.
</event>
<event>
 5    1  0.4833967E-001  0.8000000E+02  0.7546771E-02  0.1203772E+00
         11   -1    0    0    0    0  0.00000000000E+00  0.00000000000E+00  0.40000000000E+02  0.40000000000E+02  0.00000000000E+00 0. -1.
        -11   -1    0    0    0    0 -0.00000000000E+00 -0.00000000000E+00 -0.40000000000E+02  0.40000000000E+02  0.00000000000E+00 0.  1.
         23    2    1    2    0    0  0.00000000000E+00  0.00000000000E+00  0.00000000000E+00  0.80000000000E+02  0.80000000000E+02 0.  0.
          5    1    3    3  501    0  0.61243832643E+01  0.20459352242E+02  0.33493534234E+02  0.40000000000E+02  0.47000000000E+01 0. -1.
         -5    1    3    3    0  501 -0.61243832643E+01 -0.20459352242E+02 -0.33493534234E+02  0.40000000000E+02  0.47000000000E+01 0.  1.
</event>
<event>
 5    1  0.4833967E-001  0.8000000E+02  0.7546771E-02  0.1203772E+00
         11   -1    0    0    0    0  0.00000000000E+00  0.00000000000E+00  0.40000000000E+02  0.40000000000E+02  0.00000000000E+00 0. -1.
        -11   -1    0    0    0    0 -0.00000000000E+00 -0.00000000000E+00 -0.40000000000E+02  0.40000000000E+02  0.00000000000E+00 0.  1.
         23    2    1    2    0    0  0.00000000000E+00  0.00000000000E+00  0.00000000000E+00  0.80000000000E+02  0.80000000000E+02 0.  0.
          5    1    3    3  501    0  0.20517646820E+02  0.30445134598E+02  0.15166738221E+02  0.40000000000E+02  0.47000000000E+01 0. -1.
         -5    1    3    3    0  501 -0.20517646820E+02 -0.30445134598E+02 -0.15166738221E+02  0.40000000000E+02  0.47000000000E+01 0.  1.
</event>
<event>
 5    1  0.4833967E-001  0.8000000E+02  0.7546771E-02  0.1203772E+00
         11   -1    0    0    0    0  0.00000000000E+00  0.00000000000E+00  0.40000000000E+02  0.40000000000E+02  0.00000000000E+00 0. -1.
        -11   -1    0    0    0    0 -0.00000000000E+00 -0.00000000000E+00 -0.40000000000E+02  0.40000000000E+02  0.00000000000E+00 0.  1.
         23    2    1    2    0    0  0.00000000000E+00  0.00000000000E+00  0.00000000000E+00  0.80000000000E+02  0.80000000000E+02 0.  0.
          5    1    3    3  501    0 -0.47815883119E+01  0.18705424456E+02  0.34715320957E+02  0.40000000000E+02  0.47000000000E+01 0. -1.
         -5    1    3    3    0  501  0.47815883119E+01 -0.18705424456E+02 -0.34715320957E+02  0.40000000000E+02  0.47000000000E+01 0.  1.
</event>
<event>
 5    1  0.4833967E-001  0.8000000E+02  0.7546771E-02  0.1203772E+00
         11   -1    0    0    0    0  0.00000000000E+00  0.00000000000E+00  0.40000000000E+02  0.40000000000E+02  0.00000000000E+00 0. -1.
        -11   -1    0    0    0    0 -0.00000000000E+00 -0.00000000000E+00 -0.40000000000E+02  0.40000000000E+02  0.00000000000E+00 0.  1.
         23    2    1    2    0    0  0.00000000000E+00  0.00000000000E+00  0.00000000000E+00  0.80000000000E+02  0.80000000000E+02 0.  0.
          5    1    3    3  501    0 -0.52056356360E+01 -0.34661862621E+02  0.18691351938E+02  0.40000000000E+02  0.47000000000E+01 0. -1.
         -5    1    3    3    0  501  0.52056356360E+01  0.34661862621E+02 -0.18691351938E+02  0.40000000000E+02  0.47000000000E+01 0.  1.
</event>
<event>
 5    1  0.4833967E-001  0.8000000E+02  0.7546771E-02  0.1203772E+00
         11   -1    0    0    0    0  0.00000000000E+00  0.00000000000E+00  0.40000000000E+02  0.40000000000E+02  0.00000000000E+00 0. -1.
        -11   -1    0    0    0    0 -0.00000000000E+00 -0.00000000000E+00 -0.40000000000E+02  0.40000000000E+02  0.00000000000E+00 0.  1.
         23    2    1    2    0    0  0.00000000000E+00  0.00000000000E+00  0.00000000000E+00  0.80000000000E+02  0.80000000000E+02 0.  0.
          5    1    3    3  501    0 -0.19341625258E+02 -0.16647253356E+02  0.30441427169E+02  0.40000000000E+02  0.47000000000E+01 0. -1.
         -5    1    3    3    0  501  0.19341625258E+02  0.16647253356E+02 -0.30441427169E+02  0.40000000000E+02  0.47000000000E+01 0.  1.
</event>
<event>
 5    1  0.4833967E-001  0.8000000E+02  0.7546771E-02  0.1203772E+00
         11   -1    0    0    0    0  0.00000000000E+00  0.00000000000E+00  0.40000000000E+02  0.40000000000E+02  0.00000000000E+00 0. -1.
        -11   -1    0    0    0    0 -0.00000000000E+00 -0.00000000000E+00 -0.40000000000E+02  0.40000000000E+02  0.00000000000E+00 0.  1.
         23    2    1    2    0    0  0.00000000000E+00  0.00000000000E+00  0.00000000000E+00  0.80000000000E+02  0.80000000000E+02 0.  0.
          5    1    3    3  501    0  0.27535266158E+02  0.27721842387E+02  0.71567151842E+01  0.40000000000E+02  0.47000000000E+01 0. -1.
         -5    1    3    3    0  501 -0.27535266158E+02 -0.27721842387E+02 -0.71567151842E+01  0.40000000000E+02  0.47000000000E+01 0.  1.
</event>
<event>
 5    1  0.4833967E-001  0.8000000E+02  0.7546771E-02  0.1203772E+00
         11   -1    0    0    0    0  0.00000000000E+00  0.00000000000E+00  0.40000000000E+02  0.40000000000E+02  0.00000000000E+00 0. -1.
        -11   -1    0    0    0    0 -0.00000000000E+00 -0.00000000000E+00 -0.40000000000E+02  0.40000000000E+02  0.00000000000E+00 0.  1.
         23    2    1    2    0    0  0.00000000000E+00  0.00000000000E+00  0.00000000000E+00  0.80000000000E+02  0.80000000000E+02 0.  0.
          5    1    3    3  501    0 -0.67340756770E+01  0.32329297654E+02  0.22076655951E+02  0.40000000000E+02  0.47000000000E+01 0. -1.
         -5    1    3    3    0  501  0.67340756770E+01 -0.32329297654E+02 -0.22076655951E+02  0.40000000000E+02  0.47000000000E+01 0.  1.
</event>
<event>
 5    1  0.4833967E-001  0.8000000E+02  0.7546771E-02  0.1203772E+00
         11   -1    0    0    0    0  0.00000000000E+00  0.00000000000E+00  0.40000000000E+02  0.40000000000E+02  0.00000000000E+00 0. -1.
        -11   -1    0    0    0    0 -0.00000000000E+00 -0.00000000000E+00 -0.40000000000E+02  0.40000000000E+02  0.00000000000E+00 0.  1.
         23    2    1    2    0    0  0.00000000000E+00  0.00000000000E+00  0.00000000000E+00  0.80000000000E+02  0.80000000000E+02 0.  0.
          5    1    3    3  501    0  0.95184229806E-02 -0.38542855973E+02 -0.96103154391E+01  0.40000000000E+02  0.47000000000E+01 0. -1.
         -5    1    3    3    0  501 -0.95184229806E-02  0.38542855973E+02  0.96103154391E+01  0.40000000000E+02  0.47000000000E+01 0.  1.
</event>
<event>
 5    1  0.4833967E-001  0.8000000E+02  0.7546771E-02  0.1203772E+00
         11   -1    0    0    0    0  0.00000000000E+00  0.00000000000E+00  0.40000000000E+02  0.40000000000E+02  0.00000000000E+00 0.  1.
        -11   -1    0    0    0    0 -0.00000000000E+00 -0.00000000000E+00 -0.40000000000E+02  0.40000000000E+02  0.00000000000E+00 0. -1.
         23    2    1    2    0    0  0.00000000000E+00  0.00000000000E+00  0.00000000000E+00  0.80000000000E+02  0.80000000000E+02 0.  0.
          5    1    3    3  501    0 -0.29493678700E+02  0.10155886980E+02 -0.24594529400E+02  0.40000000000E+02  0.47000000000E+01 0. -1.
         -5    1    3    3    0  501  0.29493678700E+02 -0.10155886980E+02  0.24594529400E+02  0.40000000000E+02  0.47000000000E+01 0.  1.
</event>
<event>
 5    1  0.4833967E-001  0.8000000E+02  0.7546771E-02  0.1203772E+00
         11   -1    0    0    0    0  0.00000000000E+00  0.00000000000E+00  0.40000000000E+02  0.40000000000E+02  0.00000000000E+00 0.  1.
        -11   -1    0    0    0    0 -0.00000000000E+00 -0.00000000000E+00 -0.40000000000E+02  0.40000000000E+02  0.00000000000E+00 0. -1.
         23    2    1    2    0    0  0.00000000000E+00  0.00000000000E+00  0.00000000000E+00  0.80000000000E+02  0.80000000000E+02 0.  0.
          5    1    3    3  501    0  0.14796905868E+02  0.55159451212E+01 -0.36449086767E+02  0.40000000000E+02  0.47000000000E+01 0. -1.
         -5    1    3    3    0  501 -0.14796905868E+02 -0.55159451212E+01  0.36449086767E+02  0.40000000000E+02  0.47000000000E+01 0.  1.
</event>
<event>
 5    1  0.4833967E-001  0.8000000E+02  0.7546771E-02  0.1203772E+00
         11   -1    0    0    0    0  0.00000000000E+00  0.00000000000E+00  0.40000000000E+02  0.40000000000E+02  0.00000000000E+00 0.  1.
        -11   -1    0    0    0    0 -0.00000000000E+00 -0.00000000000E+00 -0.40000000000E+02  0.40000000000E+02  0.00000000000E+00 0. -1.
         23    2    1    2    0    0  0.00000000000E+00  0.00000000000E+00  0.00000000000E+00  0.80000000000E+02  0.80000000000E+02 0.  0.
          5    1    3    3  501    0  0.20297530212E+02  0.17000960680E+02 -0.29612288045E+02  0.40000000000E+02  0.47000000000E+01 0. -1.
         -5    1    3    3    0  501 -0.20297530212E+02 -0.17000960680E+02  0.29612288045E+02  0.40000000000E+02  0.47000000000E+01 0.  1.
</event>
<event>
 5    1  0.4833967E-001  0.8000000E+02  0.7546771E-02  0.1203772E+00
         11   -1    0    0    0    0  0.00000000000E+00  0.00000000000E+00  0.40000000000E+02  0.40000000000E+02  0.00000000000E+00 0.  1.
        -11   -1    0    0    0    0 -0.00000000000E+00 -0.00000000000E+00 -0.40000000000E+02  0.40000000000E+02  0.00000000000E+00 0. -1.
         23    2    1    2    0    0  0.00000000000E+00  0.00000000000E+00  0.00000000000E+00  0.80000000000E+02  0.80000000000E+02 0.  0.
          5    1    3    3  501    0 -0.21700481899E+02 -0.25287587552E+02 -0.21622603940E+02  0.40000000000E+02  0.47000000000E+01 0. -1.
         -5    1    3    3    0  501  0.21700481899E+02  0.25287587552E+02  0.21622603940E+02  0.40000000000E+02  0.47000000000E+01 0.  1.
</event>
<event>
 5    1  0.4833967E-001  0.8000000E+02  0.7546771E-02  0.1203772E+00
         11   -1    0    0    0    0  0.00000000000E+00  0.00000000000E+00  0.40000000000E+02  0.40000000000E+02  0.00000000000E+00 0. -1.
        -11   -1    0    0    0    0 -0.00000000000E+00 -0.00000000000E+00 -0.40000000000E+02  0.40000000000E+02  0.00000000000E+00 0.  1.
         23    2    1    2    0    0  0.00000000000E+00  0.00000000000E+00  0.00000000000E+00  0.80000000000E+02  0.80000000000E+02 0.  0.
          5    1    3    3  501    0  0.24538807693E+02 -0.29920528334E+02 -0.89732324850E+01  0.40000000000E+02  0.47000000000E+01 0. -1.
         -5    1    3    3    0  501 -0.24538807693E+02  0.29920528334E+02  0.89732324850E+01  0.40000000000E+02  0.47000000000E+01 0.  1.
</event>
<event>
 5    1  0.4833967E-001  0.8000000E+02  0.7546771E-02  0.1203772E+00
         11   -1    0    0    0    0  0.00000000000E+00  0.00000000000E+00  0.40000000000E+02  0.40000000000E+02  0.00000000000E+00 0. -1.
        -11   -1    0    0    0    0 -0.00000000000E+00 -0.00000000000E+00 -0.40000000000E+02  0.40000000000E+02  0.00000000000E+00 0.  1.
         23    2    1    2    0    0  0.00000000000E+00  0.00000000000E+00  0.00000000000E+00  0.80000000000E+02  0.80000000000E+02 0.  0.
          5    1    3    3  501    0  0.13110099746E+02 -0.16723681571E+02  0.33561194248E+02  0.40000000000E+02  0.47000000000E+01 0. -1.
         -5    1    3    3    0  501 -0.13110099746E+02  0.16723681571E+02 -0.33561194248E+02  0.40000000000E+02  0.47000000000E+01 0.  1.
</event>
<event>
 5    1  0.4833967E-001  0.8000000E+02  0.7546771E-02  0.1203772E+00
         11   -1    0    0    0    0  0.00000000000E+00  0.00000000000E+00  0.40000000000E+02  0.40000000000E+02  0.00000000000E+00 0. -1.
        -11   -1    0    0    0    0 -0.00000000000E+00 -0.00000000000E+00 -0.40000000000E+02  0.40000000000E+02  0.00000000000E+00 0.  1.
         23    2    1    2    0    0  0.00000000000E+00  0.00000000000E+00  0.00000000000E+00  0.80000000000E+02  0.80000000000E+02 0.  0.
          5    1    3    3  501    0 -0.10237911386E+02 -0.38380591114E+02 -0.15936178492E+00  0.40000000000E+02  0.47000000000E+01 0. -1.
         -5    1    3    3    0  501  0.10237911386E+02  0.38380591114E+02  0.15936178492E+00  0.40000000000E+02  0.47000000000E+01 0.  1.
</event>
<event>
 5    1  0.4833967E-001  0.8000000E+02  0.7546771E-02  0.1203772E+00
         11   -1    0    0    0    0  0.00000000000E+00  0.00000000000E+00  0.40000000000E+02  0.40000000000E+02  0.00000000000E+00 0.  1.
        -11   -1    0    0    0    0 -0.00000000000E+00 -0.00000000000E+00 -0.40000000000E+02  0.40000000000E+02  0.00000000000E+00 0. -1.
         23    2    1    2    0    0  0.00000000000E+00  0.00000000000E+00  0.00000000000E+00  0.80000000000E+02  0.80000000000E+02 0.  0.
          5    1    3    3  501    0 -0.27839788273E+02 -0.17116653559E+02 -0.22580441976E+02  0.40000000000E+02  0.47000000000E+01 0. -1.
         -5    1    3    3    0  501  0.27839788273E+02  0.17116653559E+02  0.22580441976E+02  0.40000000000E+02  0.47000000000E+01 0.  1.
</event>
<event>
 5    1  0.4833967E-001  0.8000000E+02  0.7546771E-02  0.1203772E+00
         11   -1    0    0    0    0  0.00000000000E+00  0.00000000000E+00  0.40000000000E+02  0.40000000000E+02  0.00000000000E+00 0. -1.
        -11   -1    0    0    0    0 -0.00000000000E+00 -0.00000000000E+00 -0.40000000000E+02  0.40000000000E+02  0.00000000000E+00 0.  1.
         23    2    1    2    0    0  0.00000000000E+00  0.00000000000E+00  0.00000000000E+00  0.80000000000E+02  0.80000000000E+02 0.  0.
          5    1    3    3  501    0  0.15765487836E+01  0.27979399864E+02  0.28152756121E+02  0.40000000000E+02  0.47000000000E+01 0. -1.
         -5    1    3    3    0  501 -0.15765487836E+01 -0.27979399864E+02 -0.28152756121E+02  0.40000000000E+02  0.47000000000E+01 0.  1.
</event>
<event>
 5    1  0.4833967E-001  0.8000000E+02  0.7546771E-02  0.1203772E+00
         11   -1    0    0    0    0  0.00000000000E+00  0.00000000000E+00  0.40000000000E+02  0.40000000000E+02  0.00000000000E+00 0.  1.
        -11   -1    0    0    0    0 -0.00000000000E+00 -0.00000000000E+00 -0.40000000000E+02  0.40000000000E+02  0.00000000000E+00 0. -1.
         23    2    1    2    0    0  0.00000000000E+00  0.00000000000E+00  0.00000000000E+00  0.80000000000E+02  0.80000000000E+02 0.  0.
          5    1    3    3  501    0 -0.33239777932E+02  0.12809024174E+02 -0.17577146035E+02  0.40000000000E+02  0.47000000000E+01 0. -1.
         -5    1    3    3    0  501  0.33239777932E+02 -0.12809024174E+02  0.17577146035E+02  0.40000000000E+02  0.47000000000E+01 0.  1.
</event>
<event>
 5    1  0.4833967E-001  0.8000000E+02  0.7546771E-02  0.1203772E+00
         11   -1    0    0    0    0  0.00000000000E+00  0.00000000000E+00  0.40000000000E+02  0.40000000000E+02  0.00000000000E+00 0.  1.
        -11   -1    0    0    0    0 -0.00000000000E+00 -0.00000000000E+00 -0.40000000000E+02  0.40000000000E+02  0.00000000000E+00 0. -1.
         23    2    1    2    0    0  0.00000000000E+00  0.00000000000E+00  0.00000000000E+00  0.80000000000E+02  0.80000000000E+02 0.  0.
          5    1    3    3  501    0 -0.94214412633E+01  0.11839059143E+01 -0.38571295173E+02  0.40000000000E+02  0.47000000000E+01 0. -1.
         -5    1    3    3    0  501  0.94214412633E+01 -0.11839059143E+01  0.38571295173E+02  0.40000000000E+02  0.47000000000E+01 0.  1.
</event>
<event>
 5    1  0.4833967E-001  0.8000000E+02  0.7546771E-02  0.1203772E+00
         11   -1    0    0    0    0  0.00000000000E+00  0.00000000000E+00  0.40000000000E+02  0.40000000000E+02  0.00000000000E+00 0. -1.
        -11   -1    0    0    0    0 -0.00000000000E+00 -0.00000000000E+00 -0.40000000000E+02  0.40000000000E+02  0.00000000000E+00 0.  1.
         23    2    1    2    0    0  0.00000000000E+00  0.00000000000E+00  0.00000000000E+00  0.80000000000E+02  0.80000000000E+02 0.  0.
          5    1    3    3  501    0  0.33382421794E+01  0.33544229322E+02  0.21013110630E+02  0.40000000000E+02  0.47000000000E+01 0. -1.
         -5    1    3    3    0  501 -0.33382421794E+01 -0.33544229322E+02 -0.21013110630E+02  0.40000000000E+02  0.47000000000E+01 0.  1.
</event>
<event>
 5    1  0.4833967E-001  0.8000000E+02  0.7546771E-02  0.1203772E+00
         11   -1    0    0    0    0  0.00000000000E+00  0.00000000000E+00  0.40000000000E+02  0.40000000000E+02  0.00000000000E+00 0. -1.
        -11   -1    0    0    0    0 -0.00000000000E+00 -0.00000000000E+00 -0.40000000000E+02  0.40000000000E+02  0.00000000000E+00 0.  1.
         23    2    1    2    0    0  0.00000000000E+00  0.00000000000E+00  0.00000000000E+00  0.80000000000E+02  0.80000000000E+02 0.  0.
          5    1    3    3  501    0  0.29691431999E+01  0.36477611441E+02  0.15442734610E+02  0.40000000000E+02  0.47000000000E+01 0. -1.
         -5    1    3    3    0  501 -0.29691431999E+01 -0.36477611441E+02 -0.15442734610E+02  0.40000000000E+02  0.47000000000E+01 0.  1.
</event>
<event>
 5    1  0.4833967E-001  0.8000000E+02  0.7546771E-02  0.1203772E+00
         11   -1    0    0    0    0  0.00000000000E+00  0.00000000000E+00  0.40000000000E+02  0.40000000000E+02  0.00000000000E+00 0. -1.
        -11   -1    0    0    0    0 -0.00000000000E+00 -0.00000000000E+00 -0.40000000000E+02  0.40000000000E+02  0.00000000000E+00 0.  1.
         23    2    1    2    0    0  0.00000000000E+00  0.00000000000E+00  0.00000000000E+00  0.80000000000E+02  0.80000000000E+02 0.  0.
          5    1    3    3  501    0  0.22114476283E+02  0.27004052121E+02  0.18964205962E+02  0.40000000000E+02  0.47000000000E+01 0. -1.
         -5    1    3    3    0  501 -0.22114476283E+02 -0.27004052121E+02 -0.18964205962E+02  0.40000000000E+02  0.47000000000E+01 0.  1.
</event>
<event>
 5    1  0.4833967E-001  0.8000000E+02  0.7546771E-02  0.1203772E+00
         11   -1    0    0    0    0  0.00000000000E+00  0.00000000000E+00  0.40000000000E+02  0.40000000000E+02  0.00000000000E+00 0. -1.
        -11   -1    0    0    0    0 -0.00000000000E+00 -0.00000000000E+00 -0.40000000000E+02  0.40000000000E+02  0.00000000000E+00 0.  1.
         23    2    1    2    0    0  0.00000000000E+00  0.00000000000E+00  0.00000000000E+00  0.80000000000E+02  0.80000000000E+02 0.  0.
          5    1    3    3  501    0  0.33138758878E+02 -0.15822133465E+01  0.21845577607E+02  0.40000000000E+02  0.47000000000E+01 0. -1.
         -5    1    3    3    0  501 -0.33138758878E+02  0.15822133465E+01 -0.21845577607E+02  0.40000000000E+02  0.47000000000E+01 0.  1.
</event>
<event>
 5    1  0.4833967E-001  0.8000000E+02  0.7546771E-02  0.1203772E+00
         11   -1    0    0    0    0  0.00000000000E+00  0.00000000000E+00  0.40000000000E+02  0.40000000000E+02  0.00000000000E+00 0. -1.
        -11   -1    0    0    0    0 -0.00000000000E+00 -0.00000000000E+00 -0.40000000000E+02  0.40000000000E+02  0.00000000000E+00 0.  1.
         23    2    1    2    0    0  0.00000000000E+00  0.00000000000E+00  0.00000000000E+00  0.80000000000E+02  0.80000000000E+02 0.  0.
          5    1    3    3  501    0 -0.29734802458E+02  0.29696149299E+00  0.26337489187E+02  0.40000000000E+02  0.47000000000E+01 0. -1.
         -5    1    3    3    0  501  0.29734802458E+02 -0.29696149299E+00 -0.26337489187E+02  0.40000000000E+02  0.47000000000E+01 0.  1.
</event>
<event>
 5    1  0.4833967E-001  0.8000000E+02  0.7546771E-02  0.1203772E+00
         11   -1    0    0    0    0  0.00000000000E+00  0.00000000000E+00  0.40000000000E+02  0.40000000000E+02  0.00000000000E+00 0.  1.
        -11   -1    0    0    0    0 -0.00000000000E+00 -0.00000000000E+00 -0.40000000000E+02  0.40000000000E+02  0.00000000000E+00 0. -1.
         23    2    1    2    0    0  0.00000000000E+00  0.00000000000E+00  0.00000000000E+00  0.80000000000E+02  0.80000000000E+02 0.  0.
          5    1    3    3  501    0 -0.33372650667E+02  0.17675476715E+02 -0.12318835594E+02  0.40000000000E+02  0.47000000000E+01 0. -1.
         -5    1    3    3    0  501  0.33372650667E+02 -0.17675476715E+02  0.12318835594E+02  0.40000000000E+02  0.47000000000E+01 0.  1.
</event>
<event>
 5    1  0.4833967E-001  0.8000000E+02  0.7546771E-02  0.1203772E+00
         11   -1    0    0    0    0  0.00000000000E+00  0.00000000000E+00  0.40000000000E+02  0.40000000000E+02  0.00000000000E+00 0. -1.
        -11   -1    0    0    0    0 -0.00000000000E+00 -0.00000000000E+00 -0.40000000000E+02  0.40000000000E+02  0.00000000000E+00 0.  1.
         23    2    1    2    0    0  0.00000000000E+00  0.00000000000E+00  0.00000000000E+00  0.80000000000E+02  0.80000000000E+02 0.  0.
          5    1    3    3  501    0  0.18638803521E+02  0.16852310437E+02 -0.30765315475E+02  0.40000000000E+02  0.47000000000E+01 0.  1.
         -5    1    3    3    0  501 -0.18638803521E+02 -0.16852310437E+02  0.30765315475E+02  0.40000000000E+02  0.47000000000E+01 0. -1.
</event>
<event>
 5    1  0.4833967E-001  0.8000000E+02  0.7546771E-02  0.1203772E+00
         11   -1    0    0    0    0  0.00000000000E+00  0.00000000000E+00  0.40000000000E+02  0.40000000000E+02  0.00000000000E+00 0. -1.
        -11   -1    0    0    0    0 -0.00000000000E+00 -0.00000000000E+00 -0.40000000000E+02  0.40000000000E+02  0.00000000000E+00 0.  1.
         23    2    1    2    0    0  0.00000000000E+00  0.00000000000E+00  0.00000000000E+00  0.80000000000E+02  0.80000000000E+02 0.  0.
          5    1    3    3  501    0 -0.37303331273E+02  0.13588458152E+02  0.13134995299E+01  0.40000000000E+02  0.47000000000E+01 0. -1.
         -5    1    3    3    0  501  0.37303331273E+02 -0.13588458152E+02 -0.13134995299E+01  0.40000000000E+02  0.47000000000E+01 0.  1.
</event>
<event>
 5    1  0.4833967E-001  0.8000000E+02  0.7546771E-02  0.1203772E+00
         11   -1    0    0    0    0  0.00000000000E+00  0.00000000000E+00  0.40000000000E+02  0.40000000000E+02  0.00000000000E+00 0. -1.
        -11   -1    0    0    0    0 -0.00000000000E+00 -0.00000000000E+00 -0.40000000000E+02  0.40000000000E+02  0.00000000000E+00 0.  1.
         23    2    1    2    0    0  0.00000000000E+00  0.00000000000E+00  0.00000000000E+00  0.80000000000E+02  0.80000000000E+02 0.  0.
          5    1    3    3  501    0  0.29704008058E+02  0.33940157311E+01 -0.26154589702E+02  0.40000000000E+02  0.47000000000E+01 0.  1.
         -5    1    3    3    0  501 -0.29704008058E+02 -0.33940157311E+01  0.26154589702E+02  0.40000000000E+02  0.47000000000E+01 0. -1.
</event>
<event>
 5    1  0.4833967E-001  0.8000000E+02  0.7546771E-02  0.1203772E+00
         11   -1    0    0    0    0  0.00000000000E+00  0.00000000000E+00  0.40000000000E+02  0.40000000000E+02  0.00000000000E+00 0.  1.
        -11   -1    0    0    0    0 -0.00000000000E+00 -0.00000000000E+00 -0.40000000000E+02  0.40000000000E+02  0.00000000000E+00 0. -1.
         23    2    1    2    0    0  0.00000000000E+00  0.00000000000E+00  0.00000000000E+00  0.80000000000E+02  0.80000000000E+02 0.  0.
          5    1    3    3  501    0 -0.86503647507E+00  0.71887531036E+01 -0.39057438993E+02  0.40000000000E+02  0.47000000000E+01 0. -1.
         -5    1    3    3    0  501  0.86503647507E+00 -0.71887531036E+01  0.39057438993E+02  0.40000000000E+02  0.47000000000E+01 0.  1.
</event>
<event>
 5    1  0.4833967E-001  0.8000000E+02  0.7546771E-02  0.1203772E+00
         11   -1    0    0    0    0  0.00000000000E+00  0.00000000000E+00  0.40000000000E+02  0.40000000000E+02  0.00000000000E+00 0.  1.
        -11   -1    0    0    0    0 -0.00000000000E+00 -0.00000000000E+00 -0.40000000000E+02  0.40000000000E+02  0.00000000000E+00 0. -1.
         23    2    1    2    0    0  0.00000000000E+00  0.00000000000E+00  0.00000000000E+00  0.80000000000E+02  0.80000000000E+02 0.  0.
          5    1    3    3  501    0  0.35462234368E+02 -0.17655889668E+02  0.29341938652E+01  0.40000000000E+02  0.47000000000E+01 0. -1.
         -5    1    3    3    0  501 -0.35462234368E+02  0.17655889668E+02 -0.29341938652E+01  0.40000000000E+02  0.47000000000E+01 0.  1.
</event>
<event>
 5    1  0.4833967E-001  0.8000000E+02  0.7546771E-02  0.1203772E+00
         11   -1    0    0    0    0  0.00000000000E+00  0.00000000000E+00  0.40000000000E+02  0.40000000000E+02  0.00000000000E+00 0.  1.
        -11   -1    0    0    0    0 -0.00000000000E+00 -0.00000000000E+00 -0.40000000000E+02  0.40000000000E+02  0.00000000000E+00 0. -1.
         23    2    1    2    0    0  0.00000000000E+00  0.00000000000E+00  0.00000000000E+00  0.80000000000E+02  0.80000000000E+02 0.  0.
          5    1    3    3  501    0 -0.14300035441E+02 -0.29117831354E+02 -0.22925332792E+02  0.40000000000E+02  0.47000000000E+01 0. -1.
         -5    1    3    3    0  501  0.14300035441E+02  0.29117831354E+02  0.22925332792E+02  0.40000000000E+02  0.47000000000E+01 0.  1.
</event>
<event>
 5    1  0.4833967E-001  0.8000000E+02  0.7546771E-02  0.1203772E+00
         11   -1    0    0    0    0  0.00000000000E+00  0.00000000000E+00  0.40000000000E+02  0.40000000000E+02  0.00000000000E+00 0.  1.
        -11   -1    0    0    0    0 -0.00000000000E+00 -0.00000000000E+00 -0.40000000000E+02  0.40000000000E+02  0.00000000000E+00 0. -1.
         23    2    1    2    0    0  0.00000000000E+00  0.00000000000E+00  0.00000000000E+00  0.80000000000E+02  0.80000000000E+02 0.  0.
          5    1    3    3  501    0  0.13872231509E+02  0.37145522160E+02 -0.23835638077E+01  0.40000000000E+02  0.47000000000E+01 0. -1.
         -5    1    3    3    0  501 -0.13872231509E+02 -0.37145522160E+02  0.23835638077E+01  0.40000000000E+02  0.47000000000E+01 0.  1.
</event>
<event>
 5    1  0.4833967E-001  0.8000000E+02  0.7546771E-02  0.1203772E+00
         11   -1    0    0    0    0  0.00000000000E+00  0.00000000000E+00  0.40000000000E+02  0.40000000000E+02  0.00000000000E+00 0. -1.
        -11   -1    0    0    0    0 -0.00000000000E+00 -0.00000000000E+00 -0.40000000000E+02  0.40000000000E+02  0.00000000000E+00 0.  1.
         23    2    1    2    0    0  0.00000000000E+00  0.00000000000E+00  0.00000000000E+00  0.80000000000E+02  0.80000000000E+02 0.  0.
          5    1    3    3  501    0 -0.71705078528E+01 -0.36797057215E+02  0.13132798538E+02  0.40000000000E+02  0.47000000000E+01 0. -1.
         -5    1    3    3    0  501  0.71705078528E+01  0.36797057215E+02 -0.13132798538E+02  0.40000000000E+02  0.47000000000E+01 0.  1.
</event>
<event>
 5    1  0.4833967E-001  0.8000000E+02  0.7546771E-02  0.1203772E+00
         11   -1    0    0    0    0  0.00000000000E+00  0.00000000000E+00  0.40000000000E+02  0.40000000000E+02  0.00000000000E+00 0.  1.
        -11   -1    0    0    0    0 -0.00000000000E+00 -0.00000000000E+00 -0.40000000000E+02  0.40000000000E+02  0.00000000000E+00 0. -1.
         23    2    1    2    0    0  0.00000000000E+00  0.00000000000E+00  0.00000000000E+00  0.80000000000E+02  0.80000000000E+02 0.  0.
          5    1    3    3  501    0  0.77643823756E+00  0.19801298107E+01 -0.39665932859E+02  0.40000000000E+02  0.47000000000E+01 0. -1.
         -5    1    3    3    0  501 -0.77643823756E+00 -0.19801298107E+01  0.39665932859E+02  0.40000000000E+02  0.47000000000E+01 0.  1.
</event>
<event>
 5    1  0.4833967E-001  0.8000000E+02  0.7546771E-02  0.1203772E+00
         11   -1    0    0    0    0  0.00000000000E+00  0.00000000000E+00  0.40000000000E+02  0.40000000000E+02  0.00000000000E+00 0.  1.
        -11   -1    0    0    0    0 -0.00000000000E+00 -0.00000000000E+00 -0.40000000000E+02  0.40000000000E+02  0.00000000000E+00 0. -1.
         23    2    1    2    0    0  0.00000000000E+00  0.00000000000E+00  0.00000000000E+00  0.80000000000E+02  0.80000000000E+02 0.  0.
          5    1    3    3  501    0 -0.29522727931E+02  0.26280296820E+02  0.39578446829E+01  0.40000000000E+02  0.47000000000E+01 0. -1.
         -5    1    3    3    0  501  0.29522727931E+02 -0.26280296820E+02 -0.39578446829E+01  0.40000000000E+02  0.47000000000E+01 0.  1.
</event>
<event>
 5    1  0.4833967E-001  0.8000000E+02  0.7546771E-02  0.1203772E+00
         11   -1    0    0    0    0  0.00000000000E+00  0.00000000000E+00  0.40000000000E+02  0.40000000000E+02  0.00000000000E+00 0. -1.
        -11   -1    0    0    0    0 -0.00000000000E+00 -0.00000000000E+00 -0.40000000000E+02  0.40000000000E+02  0.00000000000E+00 0.  1.
         23    2    1    2    0    0  0.00000000000E+00  0.00000000000E+00  0.00000000000E+00  0.80000000000E+02  0.80000000000E+02 0.  0.
          5    1    3    3  501    0 -0.31555754592E+02  0.17007242697E+02  0.17114264459E+02  0.40000000000E+02  0.47000000000E+01 0. -1.
         -5    1    3    3    0  501  0.31555754592E+02 -0.17007242697E+02 -0.17114264459E+02  0.40000000000E+02  0.47000000000E+01 0.  1.
</event>
<event>
 5    1  0.4833967E-001  0.8000000E+02  0.7546771E-02  0.1203772E+00
         11   -1    0    0    0    0  0.00000000000E+00  0.00000000000E+00  0.40000000000E+02  0.40000000000E+02  0.00000000000E+00 0. -1.
        -11   -1    0    0    0    0 -0.00000000000E+00 -0.00000000000E+00 -0.40000000000E+02  0.40000000000E+02  0.00000000000E+00 0.  1.
         23    2    1    2    0    0  0.00000000000E+00  0.00000000000E+00  0.00000000000E+00  0.80000000000E+02  0.80000000000E+02 0.  0.
          5    1    3    3  501    0 -0.19329347390E+02  0.29380026446E+02 -0.18468902931E+02  0.40000000000E+02  0.47000000000E+01 0. -1.
         -5    1    3    3    0  501  0.19329347390E+02 -0.29380026446E+02  0.18468902931E+02  0.40000000000E+02  0.47000000000E+01 0.  1.
</event>
<event>
 5    1  0.4833967E-001  0.8000000E+02  0.7546771E-02  0.1203772E+00
         11   -1    0    0    0    0  0.00000000000E+00  0.00000000000E+00  0.40000000000E+02  0.40000000000E+02  0.00000000000E+00 0. -1.
        -11   -1    0    0    0    0 -0.00000000000E+00 -0.00000000000E+00 -0.40000000000E+02  0.40000000000E+02  0.00000000000E+00 0.  1.
         23    2    1    2    0    0  0.00000000000E+00  0.00000000000E+00  0.00000000000E+00  0.80000000000E+02  0.80000000000E+02 0.  0.
          5    1    3    3  501    0  0.12124764595E+02  0.32872907345E+02  0.18715556262E+02  0.40000000000E+02  0.47000000000E+01 0. -1.
         -5    1    3    3    0  501 -0.12124764595E+02 -0.32872907345E+02 -0.18715556262E+02  0.40000000000E+02  0.47000000000E+01 0.  1.
</event>
<event>
 5    1  0.4833967E-001  0.8000000E+02  0.7546771E-02  0.1203772E+00
         11   -1    0    0    0    0  0.00000000000E+00  0.00000000000E+00  0.40000000000E+02  0.40000000000E+02  0.00000000000E+00 0. -1.
        -11   -1    0    0    0    0 -0.00000000000E+00 -0.00000000000E+00 -0.40000000000E+02  0.40000000000E+02  0.00000000000E+00 0.  1.
         23    2    1    2    0    0  0.00000000000E+00  0.00000000000E+00  0.00000000000E+00  0.80000000000E+02  0.80000000000E+02 0.  0.
          5    1    3    3  501    0  0.47592796838E+01 -0.39429781909E+02 -0.74266780042E+00  0.40000000000E+02  0.47000000000E+01 0. -1.
         -5    1    3    3    0  501 -0.47592796838E+01  0.39429781909E+02  0.74266780042E+00  0.40000000000E+02  0.47000000000E+01 0.  1.
</event>
<event>
 5    1  0.4833967E-001  0.8000000E+02  0.7546771E-02  0.1203772E+00
         11   -1    0    0    0    0  0.00000000000E+00  0.00000000000E+00  0.40000000000E+02  0.40000000000E+02  0.00000000000E+00 0. -1.
        -11   -1    0    0    0    0 -0.00000000000E+00 -0.00000000000E+00 -0.40000000000E+02  0.40000000000E+02  0.00000000000E+00 0.  1.
         23    2    1    2    0    0  0.00000000000E+00  0.00000000000E+00  0.00000000000E+00  0.80000000000E+02  0.80000000000E+02 0.  0.
          5    1    3    3  501    0 -0.28375100764E+02  0.92933246635E+00  0.27783088342E+02  0.40000000000E+02  0.47000000000E+01 0. -1.
         -5    1    3    3    0  501  0.28375100764E+02 -0.92933246635E+00 -0.27783088342E+02  0.40000000000E+02  0.47000000000E+01 0.  1.
</event>
<event>
 5    1  0.4833967E-001  0.8000000E+02  0.7546771E-02  0.1203772E+00
         11   -1    0    0    0    0  0.00000000000E+00  0.00000000000E+00  0.40000000000E+02  0.40000000000E+02  0.00000000000E+00 0.  1.
        -11   -1    0    0    0    0 -0.00000000000E+00 -0.00000000000E+00 -0.40000000000E+02  0.40000000000E+02  0.00000000000E+00 0. -1.
         23    2    1    2    0    0  0.00000000000E+00  0.00000000000E+00  0.00000000000E+00  0.80000000000E+02  0.80000000000E+02 0.  0.
          5    1    3    3  501    0  0.25145173929E+02  0.15638739903E+02 -0.26477538449E+02  0.40000000000E+02  0.47000000000E+01 0. -1.
         -5    1    3    3    0  501 -0.25145173929E+02 -0.15638739903E+02  0.26477538449E+02  0.40000000000E+02  0.47000000000E+01 0.  1.
</event>
<event>
 5    1  0.4833967E-001  0.8000000E+02  0.7546771E-02  0.1203772E+00
         11   -1    0    0    0    0  0.00000000000E+00  0.00000000000E+00  0.40000000000E+02  0.40000000000E+02  0.00000000000E+00 0.  1.
        -11   -1    0    0    0    0 -0.00000000000E+00 -0.00000000000E+00 -0.40000000000E+02  0.40000000000E+02  0.00000000000E+00 0. -1.
         23    2    1    2    0    0  0.00000000000E+00  0.00000000000E+00  0.00000000000E+00  0.80000000000E+02  0.80000000000E+02 0.  0.
          5    1    3    3  501    0  0.22980591032E+02 -0.26015267710E+02 -0.19313422322E+02  0.40000000000E+02  0.47000000000E+01 0. -1.
         -5    1    3    3    0  501 -0.22980591032E+02  0.26015267710E+02  0.19313422322E+02  0.40000000000E+02  0.47000000000E+01 0.  1.
</event>
<event>
 5    1  0.4833967E-001  0.8000000E+02  0.7546771E-02  0.1203772E+00
         11   -1    0    0    0    0  0.00000000000E+00  0.00000000000E+00  0.40000000000E+02  0.40000000000E+02  0.00000000000E+00 0.  1.
        -11   -1    0    0    0    0 -0.00000000000E+00 -0.00000000000E+00 -0.40000000000E+02  0.40000000000E+02  0.00000000000E+00 0. -1.
         23    2    1    2    0    0  0.00000000000E+00  0.00000000000E+00  0.00000000000E+00  0.80000000000E+02  0.80000000000E+02 0.  0.
          5    1    3    3  501    0 -0.66484593867E+01  0.18352574991E+02 -0.34596112195E+02  0.40000000000E+02  0.47000000000E+01 0. -1.
         -5    1    3    3    0  501  0.66484593867E+01 -0.18352574991E+02  0.34596112195E+02  0.40000000000E+02  0.47000000000E+01 0.  1.
</event>
<event>
 5    1  0.4833967E-001  0.8000000E+02  0.7546771E-02  0.1203772E+00
         11   -1    0    0    0    0  0.00000000000E+00  0.00000000000E+00  0.40000000000E+02  0.40000000000E+02  0.00000000000E+00 0. -1.
        -11   -1    0    0    0    0 -0.00000000000E+00 -0.00000000000E+00 -0.40000000000E+02  0.40000000000E+02  0.00000000000E+00 0.  1.
         23    2    1    2    0    0  0.00000000000E+00  0.00000000000E+00  0.00000000000E+00  0.80000000000E+02  0.80000000000E+02 0.  0.
          5    1    3    3  501    0 -0.11181773239E+02 -0.70121420243E+01  0.37466088820E+02  0.40000000000E+02  0.47000000000E+01 0. -1.
         -5    1    3    3    0  501  0.11181773239E+02  0.70121420243E+01 -0.37466088820E+02  0.40000000000E+02  0.47000000000E+01 0.  1.
</event>
<event>
 5    1  0.4833967E-001  0.8000000E+02  0.7546771E-02  0.1203772E+00
         11   -1    0    0    0    0  0.00000000000E+00  0.00000000000E+00  0.40000000000E+02  0.40000000000E+02  0.00000000000E+00 0.  1.
        -11   -1    0    0    0    0 -0.00000000000E+00 -0.00000000000E+00 -0.40000000000E+02  0.40000000000E+02  0.00000000000E+00 0. -1.
         23    2    1    2    0    0  0.00000000000E+00  0.00000000000E+00  0.00000000000E+00  0.80000000000E+02  0.80000000000E+02 0.  0.
          5    1    3    3  501    0  0.19678894256E+02 -0.28575491295E+02 -0.19341468871E+02  0.40000000000E+02  0.47000000000E+01 0. -1.
         -5    1    3    3    0  501 -0.19678894256E+02  0.28575491295E+02  0.19341468871E+02  0.40000000000E+02  0.47000000000E+01 0.  1.
</event>
<event>
 5    1  0.4833967E-001  0.8000000E+02  0.7546771E-02  0.1203772E+00
         11   -1    0    0    0    0  0.00000000000E+00  0.00000000000E+00  0.40000000000E+02  0.40000000000E+02  0.00000000000E+00 0. -1.
        -11   -1    0    0    0    0 -0.00000000000E+00 -0.00000000000E+00 -0.40000000000E+02  0.40000000000E+02  0.00000000000E+00 0.  1.
         23    2    1    2    0    0  0.00000000000E+00  0.00000000000E+00  0.00000000000E+00  0.80000000000E+02  0.80000000000E+02 0.  0.
          5    1    3    3  501    0 -0.30543002019E+01  0.17807945847E+02  0.35375956736E+02  0.40000000000E+02  0.47000000000E+01 0. -1.
         -5    1    3    3    0  501  0.30543002019E+01 -0.17807945847E+02 -0.35375956736E+02  0.40000000000E+02  0.47000000000E+01 0.  1.
</event>
<event>
 5    1  0.4833967E-001  0.8000000E+02  0.7546771E-02  0.1203772E+00
         11   -1    0    0    0    0  0.00000000000E+00  0.00000000000E+00  0.40000000000E+02  0.40000000000E+02  0.00000000000E+00 0. -1.
        -11   -1    0    0    0    0 -0.00000000000E+00 -0.00000000000E+00 -0.40000000000E+02  0.40000000000E+02  0.00000000000E+00 0.  1.
         23    2    1    2    0    0  0.00000000000E+00  0.00000000000E+00  0.00000000000E+00  0.80000000000E+02  0.80000000000E+02 0.  0.
          5    1    3    3  501    0 -0.39535368274E+02  0.25785779608E+01 -0.28662852467E+01  0.40000000000E+02  0.47000000000E+01 0. -1.
         -5    1    3    3    0  501  0.39535368274E+02 -0.25785779608E+01  0.28662852467E+01  0.40000000000E+02  0.47000000000E+01 0.  1.
</event>
<event>
 5    1  0.4833967E-001  0.8000000E+02  0.7546771E-02  0.1203772E+00
         11   -1    0    0    0    0  0.00000000000E+00  0.00000000000E+00  0.40000000000E+02  0.40000000000E+02  0.00000000000E+00 0. -1.
        -11   -1    0    0    0    0 -0.00000000000E+00 -0.00000000000E+00 -0.40000000000E+02  0.40000000000E+02  0.00000000000E+00 0.  1.
         23    2    1    2    0    0  0.00000000000E+00  0.00000000000E+00  0.00000000000E+00  0.80000000000E+02  0.80000000000E+02 0.  0.
          5    1    3    3  501    0  0.20008109048E+02 -0.13262509928E+02 -0.31649508728E+02  0.40000000000E+02  0.47000000000E+01 0.  1.
         -5    1    3    3    0  501 -0.20008109048E+02  0.13262509928E+02  0.31649508728E+02  0.40000000000E+02  0.47000000000E+01 0. -1.
</event>
<event>
 5    1  0.4833967E-001  0.8000000E+02  0.7546771E-02  0.1203772E+00
         11   -1    0    0    0    0  0.00000000000E+00  0.00000000000E+00  0.40000000000E+02  0.40000000000E+02  0.00000000000E+00 0. -1.
        -11   -1    0    0    0    0 -0.00000000000E+00 -0.00000000000E+00 -0.40000000000E+02  0.40000000000E+02  0.00000000000E+00 0.  1.
         23    2    1    2    0    0  0.00000000000E+00  0.00000000000E+00  0.00000000000E+00  0.80000000000E+02  0.80000000000E+02 0.  0.
          5    1    3    3  501    0 -0.24288623949E+01 -0.39472051369E+02 -0.37373504193E+01  0.40000000000E+02  0.47000000000E+01 0. -1.
         -5    1    3    3    0  501  0.24288623949E+01  0.39472051369E+02  0.37373504193E+01  0.40000000000E+02  0.47000000000E+01 0.  1.
</event>
<event>
 5    1  0.4833967E-001  0.8000000E+02  0.7546771E-02  0.1203772E+00
         11   -1    0    0    0    0  0.00000000000E+00  0.00000000000E+00  0.40000000000E+02  0.40000000000E+02  0.00000000000E+00 0. -1.
        -11   -1    0    0    0    0 -0.00000000000E+00 -0.00000000000E+00 -0.40000000000E+02  0.40000000000E+02  0.00000000000E+00 0.  1.
         23    2    1    2    0    0  0.00000000000E+00  0.00000000000E+00  0.00000000000E+00  0.80000000000E+02  0.80000000000E+02 0.  0.
          5    1    3    3  501    0  0.50955532221E-01  0.97749033380E+00 -0.39710853884E+02  0.40000000000E+02  0.47000000000E+01 0.  1.
         -5    1    3    3    0  501 -0.50955532221E-01 -0.97749033380E+00  0.39710853884E+02  0.40000000000E+02  0.47000000000E+01 0. -1.
</event>
<event>
 5    1  0.4833967E-001  0.8000000E+02  0.7546771E-02  0.1203772E+00
         11   -1    0    0    0    0  0.00000000000E+00  0.00000000000E+00  0.40000000000E+02  0.40000000000E+02  0.00000000000E+00 0. -1.
        -11   -1    0    0    0    0 -0.00000000000E+00 -0.00000000000E+00 -0.40000000000E+02  0.40000000000E+02  0.00000000000E+00 0.  1.
         23    2    1    2    0    0  0.00000000000E+00  0.00000000000E+00  0.00000000000E+00  0.80000000000E+02  0.80000000000E+02 0.  0.
          5    1    3    3  501    0 -0.17069404234E+02 -0.13178870174E+01  0.35844227051E+02  0.40000000000E+02  0.47000000000E+01 0. -1.
         -5    1    3    3    0  501  0.17069404234E+02  0.13178870174E+01 -0.35844227051E+02  0.40000000000E+02  0.47000000000E+01 0.  1.
</event>
<event>
 5    1  0.4833967E-001  0.8000000E+02  0.7546771E-02  0.1203772E+00
         11   -1    0    0    0    0  0.00000000000E+00  0.00000000000E+00  0.40000000000E+02  0.40000000000E+02  0.00000000000E+00 0.  1.
        -11   -1    0    0    0    0 -0.00000000000E+00 -0.00000000000E+00 -0.40000000000E+02  0.40000000000E+02  0.00000000000E+00 0. -1.
         23    2    1    2    0    0  0.00000000000E+00  0.00000000000E+00  0.00000000000E+00  0.80000000000E+02  0.80000000000E+02 0.  0.
          5    1    3    3  501    0 -0.56407265525E+01  0.29942195247E+02  0.25486411041E+02  0.40000000000E+02  0.47000000000E+01 0. -1.
         -5    1    3    3    0  501  0.56407265525E+01 -0.29942195247E+02 -0.25486411041E+02  0.40000000000E+02  0.47000000000E+01 0.  1.
</event>
<event>
 5    1  0.4833967E-001  0.8000000E+02  0.7546771E-02  0.1203772E+00
         11   -1    0    0    0    0  0.00000000000E+00  0.00000000000E+00  0.40000000000E+02  0.40000000000E+02  0.00000000000E+00 0.  1.
        -11   -1    0    0    0    0 -0.00000000000E+00 -0.00000000000E+00 -0.40000000000E+02  0.40000000000E+02  0.00000000000E+00 0. -1.
         23    2    1    2    0    0  0.00000000000E+00  0.00000000000E+00  0.00000000000E+00  0.80000000000E+02  0.80000000000E+02 0.  0.
          5    1    3    3  501    0 -0.19523080574E+02  0.29845626238E+02  0.17492796212E+02  0.40000000000E+02  0.47000000000E+01 0. -1.
         -5    1    3    3    0  501  0.19523080574E+02 -0.29845626238E+02 -0.17492796212E+02  0.40000000000E+02  0.47000000000E+01 0.  1.
</event>
<event>
 5    1  0.4833967E-001  0.8000000E+02  0.7546771E-02  0.1203772E+00
         11   -1    0    0    0    0  0.00000000000E+00  0.00000000000E+00  0.40000000000E+02  0.40000000000E+02  0.00000000000E+00 0.  1.
        -11   -1    0    0    0    0 -0.00000000000E+00 -0.00000000000E+00 -0.40000000000E+02  0.40000000000E+02  0.00000000000E+00 0. -1.
         23    2    1    2    0    0  0.00000000000E+00  0.00000000000E+00  0.00000000000E+00  0.80000000000E+02  0.80000000000E+02 0.  0.
          5    1    3    3  501    0 -0.52967159872E+01  0.37859676963E+02  0.10793500821E+02  0.40000000000E+02  0.47000000000E+01 0. -1.
         -5    1    3    3    0  501  0.52967159872E+01 -0.37859676963E+02 -0.10793500821E+02  0.40000000000E+02  0.47000000000E+01 0.  1.
</event>
<event>
 5    1  0.4833967E-001  0.8000000E+02  0.7546771E-02  0.1203772E+00
         11   -1    0    0    0    0  0.00000000000E+00  0.00000000000E+00  0.40000000000E+02  0.40000000000E+02  0.00000000000E+00 0.  1.
        -11   -1    0    0    0    0 -0.00000000000E+00 -0.00000000000E+00 -0.40000000000E+02  0.40000000000E+02  0.00000000000E+00 0. -1.
         23    2    1    2    0    0  0.00000000000E+00  0.00000000000E+00  0.00000000000E+00  0.80000000000E+02  0.80000000000E+02 0.  0.
          5    1    3    3  501    0  0.18568443357E+02  0.10127288336E+02 -0.33623815106E+02  0.40000000000E+02  0.47000000000E+01 0. -1.
         -5    1    3    3    0  501 -0.18568443357E+02 -0.10127288336E+02  0.33623815106E+02  0.40000000000E+02  0.47000000000E+01 0.  1.
</event>
<event>
 5    1  0.4833967E-001  0.8000000E+02  0.7546771E-02  0.1203772E+00
         11   -1    0    0    0    0  0.00000000000E+00  0.00000000000E+00  0.40000000000E+02  0.40000000000E+02  0.00000000000E+00 0. -1.
        -11   -1    0    0    0    0 -0.00000000000E+00 -0.00000000000E+00 -0.40000000000E+02  0.40000000000E+02  0.00000000000E+00 0.  1.
         23    2    1    2    0    0  0.00000000000E+00  0.00000000000E+00  0.00000000000E+00  0.80000000000E+02  0.80000000000E+02 0.  0.
          5    1    3    3  501    0 -0.68617504849E+01 -0.28839063074E+01  0.39019347312E+02  0.40000000000E+02  0.47000000000E+01 0. -1.
         -5    1    3    3    0  501  0.68617504849E+01  0.28839063074E+01 -0.39019347312E+02  0.40000000000E+02  0.47000000000E+01 0.  1.
</event>
<event>
 5    1  0.4833967E-001  0.8000000E+02  0.7546771E-02  0.1203772E+00
         11   -1    0    0    0    0  0.00000000000E+00  0.00000000000E+00  0.40000000000E+02  0.40000000000E+02  0.00000000000E+00 0.  1.
        -11   -1    0    0    0    0 -0.00000000000E+00 -0.00000000000E+00 -0.40000000000E+02  0.40000000000E+02  0.00000000000E+00 0. -1.
         23    2    1    2    0    0  0.00000000000E+00  0.00000000000E+00  0.00000000000E+00  0.80000000000E+02  0.80000000000E+02 0.  0.
          5    1    3    3  501    0  0.12533985527E+02  0.22542418390E+02 -0.30210074146E+02  0.40000000000E+02  0.47000000000E+01 0. -1.
         -5    1    3    3    0  501 -0.12533985527E+02 -0.22542418390E+02  0.30210074146E+02  0.40000000000E+02  0.47000000000E+01 0.  1.
</event>
<event>
 5    1  0.4833967E-001  0.8000000E+02  0.7546771E-02  0.1203772E+00
         11   -1    0    0    0    0  0.00000000000E+00  0.00000000000E+00  0.40000000000E+02  0.40000000000E+02  0.00000000000E+00 0. -1.
        -11   -1    0    0    0    0 -0.00000000000E+00 -0.00000000000E+00 -0.40000000000E+02  0.40000000000E+02  0.00000000000E+00 0.  1.
         23    2    1    2    0    0  0.00000000000E+00  0.00000000000E+00  0.00000000000E+00  0.80000000000E+02  0.80000000000E+02 0.  0.
          5    1    3    3  501    0  0.82617657803E+01  0.33125464633E+02  0.20306570834E+02  0.40000000000E+02  0.47000000000E+01 0. -1.
         -5    1    3    3    0  501 -0.82617657803E+01 -0.33125464633E+02 -0.20306570834E+02  0.40000000000E+02  0.47000000000E+01 0.  1.
</event>
<event>
 5    1  0.4833967E-001  0.8000000E+02  0.7546771E-02  0.1203772E+00
         11   -1    0    0    0    0  0.00000000000E+00  0.00000000000E+00  0.40000000000E+02  0.40000000000E+02  0.00000000000E+00 0.  1.
        -11   -1    0    0    0    0 -0.00000000000E+00 -0.00000000000E+00 -0.40000000000E+02  0.40000000000E+02  0.00000000000E+00 0. -1.
         23    2    1    2    0    0  0.00000000000E+00  0.00000000000E+00  0.00000000000E+00  0.80000000000E+02  0.80000000000E+02 0.  0.
          5    1    3    3  501    0  0.15230867563E+02  0.30291198005E+02  0.20697197798E+02  0.40000000000E+02  0.47000000000E+01 0. -1.
         -5    1    3    3    0  501 -0.15230867563E+02 -0.30291198005E+02 -0.20697197798E+02  0.40000000000E+02  0.47000000000E+01 0.  1.
</event>
<event>
 5    1  0.4833967E-001  0.8000000E+02  0.7546771E-02  0.1203772E+00
         11   -1    0    0    0    0  0.00000000000E+00  0.00000000000E+00  0.40000000000E+02  0.40000000000E+02  0.00000000000E+00 0.  1.
        -11   -1    0    0    0    0 -0.00000000000E+00 -0.00000000000E+00 -0.40000000000E+02  0.40000000000E+02  0.00000000000E+00 0. -1.
         23    2    1    2    0    0  0.00000000000E+00  0.00000000000E+00  0.00000000000E+00  0.80000000000E+02  0.80000000000E+02 0.  0.
          5    1    3    3  501    0  0.22449417105E+02 -0.25379235520E+02 -0.20732295484E+02  0.40000000000E+02  0.47000000000E+01 0. -1.
         -5    1    3    3    0  501 -0.22449417105E+02  0.25379235520E+02  0.20732295484E+02  0.40000000000E+02  0.47000000000E+01 0.  1.
</event>
<event>
 5    1  0.4833967E-001  0.8000000E+02  0.7546771E-02  0.1203772E+00
         11   -1    0    0    0    0  0.00000000000E+00  0.00000000000E+00  0.40000000000E+02  0.40000000000E+02  0.00000000000E+00 0.  1.
        -11   -1    0    0    0    0 -0.00000000000E+00 -0.00000000000E+00 -0.40000000000E+02  0.40000000000E+02  0.00000000000E+00 0. -1.
         23    2    1    2    0    0  0.00000000000E+00  0.00000000000E+00  0.00000000000E+00  0.80000000000E+02  0.80000000000E+02 0.  0.
          5    1    3    3  501    0 -0.32189218721E+02  0.16112190463E+02  0.16797664022E+02  0.40000000000E+02  0.47000000000E+01 0. -1.
         -5    1    3    3    0  501  0.32189218721E+02 -0.16112190463E+02 -0.16797664022E+02  0.40000000000E+02  0.47000000000E+01 0.  1.
</event>
<event>
 5    1  0.4833967E-001  0.8000000E+02  0.7546771E-02  0.1203772E+00
         11   -1    0    0    0    0  0.00000000000E+00  0.00000000000E+00  0.40000000000E+02  0.40000000000E+02  0.00000000000E+00 0. -1.
        -11   -1    0    0    0    0 -0.00000000000E+00 -0.00000000000E+00 -0.40000000000E+02  0.40000000000E+02  0.00000000000E+00 0.  1.
         23    2    1    2    0    0  0.00000000000E+00  0.00000000000E+00  0.00000000000E+00  0.80000000000E+02  0.80000000000E+02 0.  0.
          5    1    3    3  501    0 -0.29706995402E+02  0.26365979042E+02  0.48946232121E+00  0.40000000000E+02  0.47000000000E+01 0. -1.
         -5    1    3    3    0  501  0.29706995402E+02 -0.26365979042E+02 -0.48946232121E+00  0.40000000000E+02  0.47000000000E+01 0.  1.
</event>
<event>
 5    1  0.4833967E-001  0.8000000E+02  0.7546771E-02  0.1203772E+00
         11   -1    0    0    0    0  0.00000000000E+00  0.00000000000E+00  0.40000000000E+02  0.40000000000E+02  0.00000000000E+00 0. -1.
        -11   -1    0    0    0    0 -0.00000000000E+00 -0.00000000000E+00 -0.40000000000E+02  0.40000000000E+02  0.00000000000E+00 0.  1.
         23    2    1    2    0    0  0.00000000000E+00  0.00000000000E+00  0.00000000000E+00  0.80000000000E+02  0.80000000000E+02 0.  0.
          5    1    3    3  501    0 -0.32906340220E+01 -0.28460718284E+02  0.27514891286E+02  0.40000000000E+02  0.47000000000E+01 0. -1.
         -5    1    3    3    0  501  0.32906340220E+01  0.28460718284E+02 -0.27514891286E+02  0.40000000000E+02  0.47000000000E+01 0.  1.
</event>
<event>
 5    1  0.4833967E-001  0.8000000E+02  0.7546771E-02  0.1203772E+00
         11   -1    0    0    0    0  0.00000000000E+00  0.00000000000E+00  0.40000000000E+02  0.40000000000E+02  0.00000000000E+00 0.  1.
        -11   -1    0    0    0    0 -0.00000000000E+00 -0.00000000000E+00 -0.40000000000E+02  0.40000000000E+02  0.00000000000E+00 0. -1.
         23    2    1    2    0    0  0.00000000000E+00  0.00000000000E+00  0.00000000000E+00  0.80000000000E+02  0.80000000000E+02 0.  0.
          5    1    3    3  501    0  0.94491462596E+01  0.12711900133E+02 -0.36428439851E+02  0.40000000000E+02  0.47000000000E+01 0. -1.
         -5    1    3    3    0  501 -0.94491462596E+01 -0.12711900133E+02  0.36428439851E+02  0.40000000000E+02  0.47000000000E+01 0.  1.
</event>
<event>
 5    1  0.4833967E-001  0.8000000E+02  0.7546771E-02  0.1203772E+00
         11   -1    0    0    0    0  0.00000000000E+00  0.00000000000E+00  0.40000000000E+02  0.40000000000E+02  0.00000000000E+00 0.  1.
        -11   -1    0    0    0    0 -0.00000000000E+00 -0.00000000000E+00 -0.40000000000E+02  0.40000000000E+02  0.00000000000E+00 0. -1.
         23    2    1    2    0    0  0.00000000000E+00  0.00000000000E+00  0.00000000000E+00  0.80000000000E+02  0.80000000000E+02 0.  0.
          5    1    3    3  501    0  0.17855085645E+02  0.29077988563E+02 -0.20336580286E+02  0.40000000000E+02  0.47000000000E+01 0. -1.
         -5    1    3    3    0  501 -0.17855085645E+02 -0.29077988563E+02  0.20336580286E+02  0.40000000000E+02  0.47000000000E+01 0.  1.
</event>
<event>
 5    1  0.4833967E-001  0.8000000E+02  0.7546771E-02  0.1203772E+00
         11   -1    0    0    0    0  0.00000000000E+00  0.00000000000E+00  0.40000000000E+02  0.40000000000E+02  0.00000000000E+00 0.  1.
        -11   -1    0    0    0    0 -0.00000000000E+00 -0.00000000000E+00 -0.40000000000E+02  0.40000000000E+02  0.00000000000E+00 0. -1.
         23    2    1    2    0    0  0.00000000000E+00  0.00000000000E+00  0.00000000000E+00  0.80000000000E+02  0.80000000000E+02 0.  0.
          5    1    3    3  501    0  0.25944550552E+02 -0.29691199302E+02  0.48190227882E+01  0.40000000000E+02  0.47000000000E+01 0. -1.
         -5    1    3    3    0  501 -0.25944550552E+02  0.29691199302E+02 -0.48190227882E+01  0.40000000000E+02  0.47000000000E+01 0.  1.
</event>
<event>
 5    1  0.4833967E-001  0.8000000E+02  0.7546771E-02  0.1203772E+00
         11   -1    0    0    0    0  0.00000000000E+00  0.00000000000E+00  0.40000000000E+02  0.40000000000E+02  0.00000000000E+00 0. -1.
        -11   -1    0    0    0    0 -0.00000000000E+00 -0.00000000000E+00 -0.40000000000E+02  0.40000000000E+02  0.00000000000E+00 0.  1.
         23    2    1    2    0    0  0.00000000000E+00  0.00000000000E+00  0.00000000000E+00  0.80000000000E+02  0.80000000000E+02 0.  0.
          5    1    3    3  501    0  0.11968198879E+02  0.26071069064E+02 -0.27476746049E+02  0.40000000000E+02  0.47000000000E+01 0.  1.
         -5    1    3    3    0  501 -0.11968198879E+02 -0.26071069064E+02  0.27476746049E+02  0.40000000000E+02  0.47000000000E+01 0. -1.
</event>
<event>
 5    1  0.4833967E-001  0.8000000E+02  0.7546771E-02  0.1203772E+00
         11   -1    0    0    0    0  0.00000000000E+00  0.00000000000E+00  0.40000000000E+02  0.40000000000E+02  0.00000000000E+00 0.  1.
        -11   -1    0    0    0    0 -0.00000000000E+00 -0.00000000000E+00 -0.40000000000E+02  0.40000000000E+02  0.00000000000E+00 0. -1.
         23    2    1    2    0    0  0.00000000000E+00  0.00000000000E+00  0.00000000000E+00  0.80000000000E+02  0.80000000000E+02 0.  0.
          5    1    3    3  501    0 -0.27565176734E+02 -0.87681535961E+00 -0.28588498149E+02  0.40000000000E+02  0.47000000000E+01 0. -1.
         -5    1    3    3    0  501  0.27565176734E+02  0.87681535961E+00  0.28588498149E+02  0.40000000000E+02  0.47000000000E+01 0.  1.
</event>
<event>
 5    1  0.4833967E-001  0.8000000E+02  0.7546771E-02  0.1203772E+00
         11   -1    0    0    0    0  0.00000000000E+00  0.00000000000E+00  0.40000000000E+02  0.40000000000E+02  0.00000000000E+00 0. -1.
        -11   -1    0    0    0    0 -0.00000000000E+00 -0.00000000000E+00 -0.40000000000E+02  0.40000000000E+02  0.00000000000E+00 0.  1.
         23    2    1    2    0    0  0.00000000000E+00  0.00000000000E+00  0.00000000000E+00  0.80000000000E+02  0.80000000000E+02 0.  0.
          5    1    3    3  501    0  0.17749307620E+01 -0.55054353596E+01  0.39299488575E+02  0.40000000000E+02  0.47000000000E+01 0. -1.
         -5    1    3    3    0  501 -0.17749307620E+01  0.55054353596E+01 -0.39299488575E+02  0.40000000000E+02  0.47000000000E+01 0.  1.
</event>
<event>
 5    1  0.4833967E-001  0.8000000E+02  0.7546771E-02  0.1203772E+00
         11   -1    0    0    0    0  0.00000000000E+00  0.00000000000E+00  0.40000000000E+02  0.40000000000E+02  0.00000000000E+00 0. -1.
        -11   -1    0    0    0    0 -0.00000000000E+00 -0.00000000000E+00 -0.40000000000E+02  0.40000000000E+02  0.00000000000E+00 0.  1.
         23    2    1    2    0    0  0.00000000000E+00  0.00000000000E+00  0.00000000000E+00  0.80000000000E+02  0.80000000000E+02 0.  0.
          5    1    3    3  501    0  0.39459033878E+02  0.35499394075E+01  0.28796832460E+01  0.40000000000E+02  0.47000000000E+01 0. -1.
         -5    1    3    3    0  501 -0.39459033878E+02 -0.35499394075E+01 -0.28796832460E+01  0.40000000000E+02  0.47000000000E+01 0.  1.
</event>
<event>
 5    1  0.4833967E-001  0.8000000E+02  0.7546771E-02  0.1203772E+00
         11   -1    0    0    0    0  0.00000000000E+00  0.00000000000E+00  0.40000000000E+02  0.40000000000E+02  0.00000000000E+00 0. -1.
        -11   -1    0    0    0    0 -0.00000000000E+00 -0.00000000000E+00 -0.40000000000E+02  0.40000000000E+02  0.00000000000E+00 0.  1.
         23    2    1    2    0    0  0.00000000000E+00  0.00000000000E+00  0.00000000000E+00  0.80000000000E+02  0.80000000000E+02 0.  0.
          5    1    3    3  501    0  0.12574085939E+00 -0.29602187776E+02  0.26487821128E+02  0.40000000000E+02  0.47000000000E+01 0. -1.
         -5    1    3    3    0  501 -0.12574085939E+00  0.29602187776E+02 -0.26487821128E+02  0.40000000000E+02  0.47000000000E+01 0.  1.
</event>
<event>
 5    1  0.4833967E-001  0.8000000E+02  0.7546771E-02  0.1203772E+00
         11   -1    0    0    0    0  0.00000000000E+00  0.00000000000E+00  0.40000000000E+02  0.40000000000E+02  0.00000000000E+00 0. -1.
        -11   -1    0    0    0    0 -0.00000000000E+00 -0.00000000000E+00 -0.40000000000E+02  0.40000000000E+02  0.00000000000E+00 0.  1.
         23    2    1    2    0    0  0.00000000000E+00  0.00000000000E+00  0.00000000000E+00  0.80000000000E+02  0.80000000000E+02 0.  0.
          5    1    3    3  501    0  0.30105753551E+02 -0.25058522460E+02  0.66048508861E+01  0.40000000000E+02  0.47000000000E+01 0.  1.
         -5    1    3    3    0  501 -0.30105753551E+02  0.25058522460E+02 -0.66048508861E+01  0.40000000000E+02  0.47000000000E+01 0. -1.
</event>
<event>
 5    1  0.4833967E-001  0.8000000E+02  0.7546771E-02  0.1203772E+00
         11   -1    0    0    0    0  0.00000000000E+00  0.00000000000E+00  0.40000000000E+02  0.40000000000E+02  0.00000000000E+00 0. -1.
        -11   -1    0    0    0    0 -0.00000000000E+00 -0.00000000000E+00 -0.40000000000E+02  0.40000000000E+02  0.00000000000E+00 0.  1.
         23    2    1    2    0    0  0.00000000000E+00  0.00000000000E+00  0.00000000000E+00  0.80000000000E+02  0.80000000000E+02 0.  0.
          5    1    3    3  501    0  0.99033498417E+01 -0.50262655152E+01  0.38138829516E+02  0.40000000000E+02  0.47000000000E+01 0. -1.
         -5    1    3    3    0  501 -0.99033498417E+01  0.50262655152E+01 -0.38138829516E+02  0.40000000000E+02  0.47000000000E+01 0.  1.
</event>
<event>
 5    1  0.4833967E-001  0.8000000E+02  0.7546771E-02  0.1203772E+00
         11   -1    0    0    0    0  0.00000000000E+00  0.00000000000E+00  0.40000000000E+02  0.40000000000E+02  0.00000000000E+00 0.  1.
        -11   -1    0    0    0    0 -0.00000000000E+00 -0.00000000000E+00 -0.40000000000E+02  0.40000000000E+02  0.00000000000E+00 0. -1.
         23    2    1    2    0    0  0.00000000000E+00  0.00000000000E+00  0.00000000000E+00  0.80000000000E+02  0.80000000000E+02 0.  0.
          5    1    3    3  501    0  0.58066383602E+01 -0.23979300838E+02 -0.31131753601E+02  0.40000000000E+02  0.47000000000E+01 0. -1.
         -5    1    3    3    0  501 -0.58066383602E+01  0.23979300838E+02  0.31131753601E+02  0.40000000000E+02  0.47000000000E+01 0.  1.
</event>
<event>
 5    1  0.4833967E-001  0.8000000E+02  0.7546771E-02  0.1203772E+00
         11   -1    0    0    0    0  0.00000000000E+00  0.00000000000E+00  0.40000000000E+02  0.40000000000E+02  0.00000000000E+00 0.  1.
        -11   -1    0    0    0    0 -0.00000000000E+00 -0.00000000000E+00 -0.40000000000E+02  0.40000000000E+02  0.00000000000E+00 0. -1.
         23    2    1    2    0    0  0.00000000000E+00  0.00000000000E+00  0.00000000000E+00  0.80000000000E+02  0.80000000000E+02 0.  0.
          5    1    3    3  501    0  0.19892499759E+02  0.92705269704E+00 -0.34370612835E+02  0.40000000000E+02  0.47000000000E+01 0. -1.
         -5    1    3    3    0  501 -0.19892499759E+02 -0.92705269704E+00  0.34370612835E+02  0.40000000000E+02  0.47000000000E+01 0.  1.
</event>
<event>
 5    1  0.4833967E-001  0.8000000E+02  0.7546771E-02  0.1203772E+00
         11   -1    0    0    0    0  0.00000000000E+00  0.00000000000E+00  0.40000000000E+02  0.40000000000E+02  0.00000000000E+00 0.  1.
        -11   -1    0    0    0    0 -0.00000000000E+00 -0.00000000000E+00 -0.40000000000E+02  0.40000000000E+02  0.00000000000E+00 0. -1.
         23    2    1    2    0    0  0.00000000000E+00  0.00000000000E+00  0.00000000000E+00  0.80000000000E+02  0.80000000000E+02 0.  0.
          5    1    3    3  501    0 -0.35579584502E+02  0.62514712475E+01 -0.16520359375E+02  0.40000000000E+02  0.47000000000E+01 0. -1.
         -5    1    3    3    0  501  0.35579584502E+02 -0.62514712475E+01  0.16520359375E+02  0.40000000000E+02  0.47000000000E+01 0.  1.
</event>
<event>
 5    1  0.4833967E-001  0.8000000E+02  0.7546771E-02  0.1203772E+00
         11   -1    0    0    0    0  0.00000000000E+00  0.00000000000E+00  0.40000000000E+02  0.40000000000E+02  0.00000000000E+00 0. -1.
        -11   -1    0    0    0    0 -0.00000000000E+00 -0.00000000000E+00 -0.40000000000E+02  0.40000000000E+02  0.00000000000E+00 0.  1.
         23    2    1    2    0    0  0.00000000000E+00  0.00000000000E+00  0.00000000000E+00  0.80000000000E+02  0.80000000000E+02 0.  0.
          5    1    3    3  501    0 -0.18567908828E+02  0.20066634948E+02  0.28817927123E+02  0.40000000000E+02  0.47000000000E+01 0. -1.
         -5    1    3    3    0  501  0.18567908828E+02 -0.20066634948E+02 -0.28817927123E+02  0.40000000000E+02  0.47000000000E+01 0.  1.
</event>
<event>
 5    1  0.4833967E-001  0.8000000E+02  0.7546771E-02  0.1203772E+00
         11   -1    0    0    0    0  0.00000000000E+00  0.00000000000E+00  0.40000000000E+02  0.40000000000E+02  0.00000000000E+00 0. -1.
        -11   -1    0    0    0    0 -0.00000000000E+00 -0.00000000000E+00 -0.40000000000E+02  0.40000000000E+02  0.00000000000E+00 0.  1.
         23    2    1    2    0    0  0.00000000000E+00  0.00000000000E+00  0.00000000000E+00  0.80000000000E+02  0.80000000000E+02 0.  0.
          5    1    3    3  501    0  0.39072427044E+02  0.23188205233E+01  0.67733681620E+01  0.40000000000E+02  0.47000000000E+01 0. -1.
         -5    1    3    3    0  501 -0.39072427044E+02 -0.23188205233E+01 -0.67733681620E+01  0.40000000000E+02  0.47000000000E+01 0.  1.
</event>
<event>
 5    1  0.4833967E-001  0.8000000E+02  0.7546771E-02  0.1203772E+00
         11   -1    0    0    0    0  0.00000000000E+00  0.00000000000E+00  0.40000000000E+02  0.40000000000E+02  0.00000000000E+00 0.  1.
        -11   -1    0    0    0    0 -0.00000000000E+00 -0.00000000000E+00 -0.40000000000E+02  0.40000000000E+02  0.00000000000E+00 0. -1.
         23    2    1    2    0    0  0.00000000000E+00  0.00000000000E+00  0.00000000000E+00  0.80000000000E+02  0.80000000000E+02 0.  0.
          5    1    3    3  501    0  0.34874375163E+02  0.15856331436E+02 -0.10500700470E+02  0.40000000000E+02  0.47000000000E+01 0. -1.
         -5    1    3    3    0  501 -0.34874375163E+02 -0.15856331436E+02  0.10500700470E+02  0.40000000000E+02  0.47000000000E+01 0.  1.
</event>
<event>
 5    1  0.4833967E-001  0.8000000E+02  0.7546771E-02  0.1203772E+00
         11   -1    0    0    0    0  0.00000000000E+00  0.00000000000E+00  0.40000000000E+02  0.40000000000E+02  0.00000000000E+00 0.  1.
        -11   -1    0    0    0    0 -0.00000000000E+00 -0.00000000000E+00 -0.40000000000E+02  0.40000000000E+02  0.00000000000E+00 0. -1.
         23    2    1    2    0    0  0.00000000000E+00  0.00000000000E+00  0.00000000000E+00  0.80000000000E+02  0.80000000000E+02 0.  0.
          5    1    3    3  501    0 -0.26648876130E+02  0.12758873918E+02 -0.26551055297E+02  0.40000000000E+02  0.47000000000E+01 0. -1.
         -5    1    3    3    0  501  0.26648876130E+02 -0.12758873918E+02  0.26551055297E+02  0.40000000000E+02  0.47000000000E+01 0.  1.
</event>
<event>
 5    1  0.4833967E-001  0.8000000E+02  0.7546771E-02  0.1203772E+00
         11   -1    0    0    0    0  0.00000000000E+00  0.00000000000E+00  0.40000000000E+02  0.40000000000E+02  0.00000000000E+00 0. -1.
        -11   -1    0    0    0    0 -0.00000000000E+00 -0.00000000000E+00 -0.40000000000E+02  0.40000000000E+02  0.00000000000E+00 0.  1.
         23    2    1    2    0    0  0.00000000000E+00  0.00000000000E+00  0.00000000000E+00  0.80000000000E+02  0.80000000000E+02 0.  0.
          5    1    3    3  501    0 -0.24000489107E+02  0.17851317978E+01  0.31602212377E+02  0.40000000000E+02  0.47000000000E+01 0. -1.
         -5    1    3    3    0  501  0.24000489107E+02 -0.17851317978E+01 -0.31602212377E+02  0.40000000000E+02  0.47000000000E+01 0.  1.
</event>
<event>
 5    1  0.4833967E-001  0.8000000E+02  0.7546771E-02  0.1203772E+00
         11   -1    0    0    0    0  0.00000000000E+00  0.00000000000E+00  0.40000000000E+02  0.40000000000E+02  0.00000000000E+00 0. -1.
        -11   -1    0    0    0    0 -0.00000000000E+00 -0.00000000000E+00 -0.40000000000E+02  0.40000000000E+02  0.00000000000E+00 0.  1.
         23    2    1    2    0    0  0.00000000000E+00  0.00000000000E+00  0.00000000000E+00  0.80000000000E+02  0.80000000000E+02 0.  0.
          5    1    3    3  501    0 -0.19345036567E+02  0.49987249978E+01  0.34332088614E+02  0.40000000000E+02  0.47000000000E+01 0. -1.
         -5    1    3    3    0  501  0.19345036567E+02 -0.49987249978E+01 -0.34332088614E+02  0.40000000000E+02  0.47000000000E+01 0.  1.
</event>
<event>
 5    1  0.4833967E-001  0.8000000E+02  0.7546771E-02  0.1203772E+00
         11   -1    0    0    0    0  0.00000000000E+00  0.00000000000E+00  0.40000000000E+02  0.40000000000E+02  0.00000000000E+00 0.  1.
        -11   -1    0    0    0    0 -0.00000000000E+00 -0.00000000000E+00 -0.40000000000E+02  0.40000000000E+02  0.00000000000E+00 0. -1.
         23    2    1    2    0    0  0.00000000000E+00  0.00000000000E+00  0.00000000000E+00  0.80000000000E+02  0.80000000000E+02 0.  0.
          5    1    3    3  501    0  0.16334711638E+02  0.18235438658E+02 -0.31281879302E+02  0.40000000000E+02  0.47000000000E+01 0. -1.
         -5    1    3    3    0  501 -0.16334711638E+02 -0.18235438658E+02  0.31281879302E+02  0.40000000000E+02  0.47000000000E+01 0.  1.
</event>
<event>
 5    1  0.4833967E-001  0.8000000E+02  0.7546771E-02  0.1203772E+00
         11   -1    0    0    0    0  0.00000000000E+00  0.00000000000E+00  0.40000000000E+02  0.40000000000E+02  0.00000000000E+00 0. -1.
        -11   -1    0    0    0    0 -0.00000000000E+00 -0.00000000000E+00 -0.40000000000E+02  0.40000000000E+02  0.00000000000E+00 0.  1.
         23    2    1    2    0    0  0.00000000000E+00  0.00000000000E+00  0.00000000000E+00  0.80000000000E+02  0.80000000000E+02 0.  0.
          5    1    3    3  501    0  0.16514492582E+02  0.34347938752E+02  0.11198242641E+02  0.40000000000E+02  0.47000000000E+01 0. -1.
         -5    1    3    3    0  501 -0.16514492582E+02 -0.34347938752E+02 -0.11198242641E+02  0.40000000000E+02  0.47000000000E+01 0.  1.
</event>
<event>
 5    1  0.4833967E-001  0.8000000E+02  0.7546771E-02  0.1203772E+00
         11   -1    0    0    0    0  0.00000000000E+00  0.00000000000E+00  0.40000000000E+02  0.40000000000E+02  0.00000000000E+00 0.  1.
        -11   -1    0    0    0    0 -0.00000000000E+00 -0.00000000000E+00 -0.40000000000E+02  0.40000000000E+02  0.00000000000E+00 0. -1.
         23    2    1    2    0    0  0.00000000000E+00  0.00000000000E+00  0.00000000000E+00  0.80000000000E+02  0.80000000000E+02 0.  0.
          5    1    3    3  501    0  0.36327604414E+02  0.90688181009E+01 -0.13265432363E+02  0.40000000000E+02  0.47000000000E+01 0. -1.
         -5    1    3    3    0  501 -0.36327604414E+02 -0.90688181009E+01  0.13265432363E+02  0.40000000000E+02  0.47000000000E+01 0.  1.
</event>
<event>
 5    1  0.4833967E-001  0.8000000E+02  0.7546771E-02  0.1203772E+00
         11   -1    0    0    0    0  0.00000000000E+00  0.00000000000E+00  0.40000000000E+02  0.40000000000E+02  0.00000000000E+00 0. -1.
        -11   -1    0    0    0    0 -0.00000000000E+00 -0.00000000000E+00 -0.40000000000E+02  0.40000000000E+02  0.00000000000E+00 0.  1.
         23    2    1    2    0    0  0.00000000000E+00  0.00000000000E+00  0.00000000000E+00  0.80000000000E+02  0.80000000000E+02 0.  0.
          5    1    3    3  501    0 -0.29470913395E+02  0.77246824874E+01 -0.25489302543E+02  0.40000000000E+02  0.47000000000E+01 0.  1.
         -5    1    3    3    0  501  0.29470913395E+02 -0.77246824874E+01  0.25489302543E+02  0.40000000000E+02  0.47000000000E+01 0. -1.
</event>
<event>
 5    1  0.4833967E-001  0.8000000E+02  0.7546771E-02  0.1203772E+00
         11   -1    0    0    0    0  0.00000000000E+00  0.00000000000E+00  0.40000000000E+02  0.40000000000E+02  0.00000000000E+00 0.  1.
        -11   -1    0    0    0    0 -0.00000000000E+00 -0.00000000000E+00 -0.40000000000E+02  0.40000000000E+02  0.00000000000E+00 0. -1.
         23    2    1    2    0    0  0.00000000000E+00  0.00000000000E+00  0.00000000000E+00  0.80000000000E+02  0.80000000000E+02 0.  0.
          5    1    3    3  501    0  0.11336531779E+02  0.91999663308E+01 -0.36942572552E+02  0.40000000000E+02  0.47000000000E+01 0. -1.
         -5    1    3    3    0  501 -0.11336531779E+02 -0.91999663308E+01  0.36942572552E+02  0.40000000000E+02  0.47000000000E+01 0.  1.
</event>
<event>
 5    1  0.4833967E-001  0.8000000E+02  0.7546771E-02  0.1203772E+00
         11   -1    0    0    0    0  0.00000000000E+00  0.00000000000E+00  0.40000000000E+02  0.40000000000E+02  0.00000000000E+00 0. -1.
        -11   -1    0    0    0    0 -0.00000000000E+00 -0.00000000000E+00 -0.40000000000E+02  0.40000000000E+02  0.00000000000E+00 0.  1.
         23    2    1    2    0    0  0.00000000000E+00  0.00000000000E+00  0.00000000000E+00  0.80000000000E+02  0.80000000000E+02 0.  0.
          5    1    3    3  501    0 -0.28619301075E+02  0.22554705035E+02  0.15815526763E+02  0.40000000000E+02  0.47000000000E+01 0. -1.
         -5    1    3    3    0  501  0.28619301075E+02 -0.22554705035E+02 -0.15815526763E+02  0.40000000000E+02  0.47000000000E+01 0.  1.
</event>
<event>
 5    1  0.4833967E-001  0.8000000E+02  0.7546771E-02  0.1203772E+00
         11   -1    0    0    0    0  0.00000000000E+00  0.00000000000E+00  0.40000000000E+02  0.40000000000E+02  0.00000000000E+00 0. -1.
        -11   -1    0    0    0    0 -0.00000000000E+00 -0.00000000000E+00 -0.40000000000E+02  0.40000000000E+02  0.00000000000E+00 0.  1.
         23    2    1    2    0    0  0.00000000000E+00  0.00000000000E+00  0.00000000000E+00  0.80000000000E+02  0.80000000000E+02 0.  0.
          5    1    3    3  501    0  0.39086588514E+02  0.63303429049E+01  0.31741702973E+01  0.40000000000E+02  0.47000000000E+01 0. -1.
         -5    1    3    3    0  501 -0.39086588514E+02 -0.63303429049E+01 -0.31741702973E+01  0.40000000000E+02  0.47000000000E+01 0.  1.
</event>
<event>
 5    1  0.4833967E-001  0.8000000E+02  0.7546771E-02  0.1203772E+00
         11   -1    0    0    0    0  0.00000000000E+00  0.00000000000E+00  0.40000000000E+02  0.40000000000E+02  0.00000000000E+00 0.  1.
        -11   -1    0    0    0    0 -0.00000000000E+00 -0.00000000000E+00 -0.40000000000E+02  0.40000000000E+02  0.00000000000E+00 0. -1.
         23    2    1    2    0    0  0.00000000000E+00  0.00000000000E+00  0.00000000000E+00  0.80000000000E+02  0.80000000000E+02 0.  0.
          5    1    3    3  501    0  0.38430852050E+02 -0.46834438105E+01 -0.88907235259E+01  0.40000000000E+02  0.47000000000E+01 0. -1.
         -5    1    3    3    0  501 -0.38430852050E+02  0.46834438105E+01  0.88907235259E+01  0.40000000000E+02  0.47000000000E+01 0.  1.
</event>
<event>
 5    1  0.4833967E-001  0.8000000E+02  0.7546771E-02  0.1203772E+00
         11   -1    0    0    0    0  0.00000000000E+00  0.00000000000E+00  0.40000000000E+02  0.40000000000E+02  0.00000000000E+00 0.  1.
        -11   -1    0    0    0    0 -0.00000000000E+00 -0.00000000000E+00 -0.40000000000E+02  0.40000000000E+02  0.00000000000E+00 0. -1.
         23    2    1    2    0    0  0.00000000000E+00  0.00000000000E+00  0.00000000000E+00  0.80000000000E+02  0.80000000000E+02 0.  0.
          5    1    3    3  501    0  0.72255408162E+01 -0.74928363925E+01 -0.38334827021E+02  0.40000000000E+02  0.47000000000E+01 0. -1.
         -5    1    3    3    0  501 -0.72255408162E+01  0.74928363925E+01  0.38334827021E+02  0.40000000000E+02  0.47000000000E+01 0.  1.
</event>
<event>
 5    1  0.4833967E-001  0.8000000E+02  0.7546771E-02  0.1203772E+00
         11   -1    0    0    0    0  0.00000000000E+00  0.00000000000E+00  0.40000000000E+02  0.40000000000E+02  0.00000000000E+00 0.  1.
        -11   -1    0    0    0    0 -0.00000000000E+00 -0.00000000000E+00 -0.40000000000E+02  0.40000000000E+02  0.00000000000E+00 0. -1.
         23    2    1    2    0    0  0.00000000000E+00  0.00000000000E+00  0.00000000000E+00  0.80000000000E+02  0.80000000000E+02 0.  0.
          5    1    3    3  501    0 -0.64686051327E+00 -0.34272919165E+02 -0.20071337359E+02  0.40000000000E+02  0.47000000000E+01 0. -1.
         -5    1    3    3    0  501  0.64686051327E+00  0.34272919165E+02  0.20071337359E+02  0.40000000000E+02  0.47000000000E+01 0.  1.
</event>
<event>
 5    1  0.4833967E-001  0.8000000E+02  0.7546771E-02  0.1203772E+00
         11   -1    0    0    0    0  0.00000000000E+00  0.00000000000E+00  0.40000000000E+02  0.40000000000E+02  0.00000000000E+00 0. -1.
        -11   -1    0    0    0    0 -0.00000000000E+00 -0.00000000000E+00 -0.40000000000E+02  0.40000000000E+02  0.00000000000E+00 0.  1.
         23    2    1    2    0    0  0.00000000000E+00  0.00000000000E+00  0.00000000000E+00  0.80000000000E+02  0.80000000000E+02 0.  0.
          5    1    3    3  501    0 -0.37851580612E+02  0.12046974123E+02 -0.19560076489E+00  0.40000000000E+02  0.47000000000E+01 0. -1.
         -5    1    3    3    0  501  0.37851580612E+02 -0.12046974123E+02  0.19560076489E+00  0.40000000000E+02  0.47000000000E+01 0.  1.
</event>
<event>
 5    1  0.4833967E-001  0.8000000E+02  0.7546771E-02  0.1203772E+00
         11   -1    0    0    0    0  0.00000000000E+00  0.00000000000E+00  0.40000000000E+02  0.40000000000E+02  0.00000000000E+00 0. -1.
        -11   -1    0    0    0    0 -0.00000000000E+00 -0.00000000000E+00 -0.40000000000E+02  0.40000000000E+02  0.00000000000E+00 0.  1.
         23    2    1    2    0    0  0.00000000000E+00  0.00000000000E+00  0.00000000000E+00  0.80000000000E+02  0.80000000000E+02 0.  0.
          5    1    3    3  501    0 -0.22669114799E+02 -0.14542291324E+02  0.29198338947E+02  0.40000000000E+02  0.47000000000E+01 0. -1.
         -5    1    3    3    0  501  0.22669114799E+02  0.14542291324E+02 -0.29198338947E+02  0.40000000000E+02  0.47000000000E+01 0.  1.
</event>
<event>
 5    1  0.4833967E-001  0.8000000E+02  0.7546771E-02  0.1203772E+00
         11   -1    0    0    0    0  0.00000000000E+00  0.00000000000E+00  0.40000000000E+02  0.40000000000E+02  0.00000000000E+00 0.  1.
        -11   -1    0    0    0    0 -0.00000000000E+00 -0.00000000000E+00 -0.40000000000E+02  0.40000000000E+02  0.00000000000E+00 0. -1.
         23    2    1    2    0    0  0.00000000000E+00  0.00000000000E+00  0.00000000000E+00  0.80000000000E+02  0.80000000000E+02 0.  0.
          5    1    3    3  501    0 -0.98589728442E+00 -0.31222857658E+02 -0.24537138509E+02  0.40000000000E+02  0.47000000000E+01 0. -1.
         -5    1    3    3    0  501  0.98589728442E+00  0.31222857658E+02  0.24537138509E+02  0.40000000000E+02  0.47000000000E+01 0.  1.
</event>
<event>
 5    1  0.4833967E-001  0.8000000E+02  0.7546771E-02  0.1203772E+00
         11   -1    0    0    0    0  0.00000000000E+00  0.00000000000E+00  0.40000000000E+02  0.40000000000E+02  0.00000000000E+00 0. -1.
        -11   -1    0    0    0    0 -0.00000000000E+00 -0.00000000000E+00 -0.40000000000E+02  0.40000000000E+02  0.00000000000E+00 0.  1.
         23    2    1    2    0    0  0.00000000000E+00  0.00000000000E+00  0.00000000000E+00  0.80000000000E+02  0.80000000000E+02 0.  0.
          5    1    3    3  501    0  0.60689172506E+01 -0.26136878193E+02  0.29290644269E+02  0.40000000000E+02  0.47000000000E+01 0. -1.
         -5    1    3    3    0  501 -0.60689172506E+01  0.26136878193E+02 -0.29290644269E+02  0.40000000000E+02  0.47000000000E+01 0.  1.
</event>
<event>
 5    1  0.4833967E-001  0.8000000E+02  0.7546771E-02  0.1203772E+00
         11   -1    0    0    0    0  0.00000000000E+00  0.00000000000E+00  0.40000000000E+02  0.40000000000E+02  0.00000000000E+00 0.  1.
        -11   -1    0    0    0    0 -0.00000000000E+00 -0.00000000000E+00 -0.40000000000E+02  0.40000000000E+02  0.00000000000E+00 0. -1.
         23    2    1    2    0    0  0.00000000000E+00  0.00000000000E+00  0.00000000000E+00  0.80000000000E+02  0.80000000000E+02 0.  0.
          5    1    3    3  501    0  0.27933978796E+02  0.23134008721E+02 -0.16199397183E+02  0.40000000000E+02  0.47000000000E+01 0. -1.
         -5    1    3    3    0  501 -0.27933978796E+02 -0.23134008721E+02  0.16199397183E+02  0.40000000000E+02  0.47000000000E+01 0.  1.
</event>
<event>
 5    1  0.4833967E-001  0.8000000E+02  0.7546771E-02  0.1203772E+00
         11   -1    0    0    0    0  0.00000000000E+00  0.00000000000E+00  0.40000000000E+02  0.40000000000E+02  0.00000000000E+00 0.  1.
        -11   -1    0    0    0    0 -0.00000000000E+00 -0.00000000000E+00 -0.40000000000E+02  0.40000000000E+02  0.00000000000E+00 0. -1.
         23    2    1    2    0    0  0.00000000000E+00  0.00000000000E+00  0.00000000000E+00  0.80000000000E+02  0.80000000000E+02 0.  0.
          5    1    3    3  501    0 -0.21687686500E+02 -0.27902229119E+02 -0.18138904720E+02  0.40000000000E+02  0.47000000000E+01 0. -1.
         -5    1    3    3    0  501  0.21687686500E+02  0.27902229119E+02  0.18138904720E+02  0.40000000000E+02  0.47000000000E+01 0.  1.
</event>
<event>
 5    1  0.4833967E-001  0.8000000E+02  0.7546771E-02  0.1203772E+00
         11   -1    0    0    0    0  0.00000000000E+00  0.00000000000E+00  0.40000000000E+02  0.40000000000E+02  0.00000000000E+00 0. -1.
        -11   -1    0    0    0    0 -0.00000000000E+00 -0.00000000000E+00 -0.40000000000E+02  0.40000000000E+02  0.00000000000E+00 0.  1.
         23    2    1    2    0    0  0.00000000000E+00  0.00000000000E+00  0.00000000000E+00  0.80000000000E+02  0.80000000000E+02 0.  0.
          5    1    3    3  501    0  0.30679093593E+02 -0.95355724573E+01  0.23361850830E+02  0.40000000000E+02  0.47000000000E+01 0. -1.
         -5    1    3    3    0  501 -0.30679093593E+02  0.95355724573E+01 -0.23361850830E+02  0.40000000000E+02  0.47000000000E+01 0.  1.
</event>
<event>
 5    1  0.4833967E-001  0.8000000E+02  0.7546771E-02  0.1203772E+00
         11   -1    0    0    0    0  0.00000000000E+00  0.00000000000E+00  0.40000000000E+02  0.40000000000E+02  0.00000000000E+00 0. -1.
        -11   -1    0    0    0    0 -0.00000000000E+00 -0.00000000000E+00 -0.40000000000E+02  0.40000000000E+02  0.00000000000E+00 0.  1.
         23    2    1    2    0    0  0.00000000000E+00  0.00000000000E+00  0.00000000000E+00  0.80000000000E+02  0.80000000000E+02 0.  0.
          5    1    3    3  501    0 -0.23448422234E+02 -0.84100157939E+01  0.30941123591E+02  0.40000000000E+02  0.47000000000E+01 0. -1.
         -5    1    3    3    0  501  0.23448422234E+02  0.84100157939E+01 -0.30941123591E+02  0.40000000000E+02  0.47000000000E+01 0.  1.
</event>
<event>
 5    1  0.4833967E-001  0.8000000E+02  0.7546771E-02  0.1203772E+00
         11   -1    0    0    0    0  0.00000000000E+00  0.00000000000E+00  0.40000000000E+02  0.40000000000E+02  0.00000000000E+00 0.  1.
        -11   -1    0    0    0    0 -0.00000000000E+00 -0.00000000000E+00 -0.40000000000E+02  0.40000000000E+02  0.00000000000E+00 0. -1.
         23    2    1    2    0    0  0.00000000000E+00  0.00000000000E+00  0.00000000000E+00  0.80000000000E+02  0.80000000000E+02 0.  0.
          5    1    3    3  501    0 -0.33097228790E+02 -0.21929508378E+02  0.12570237467E+01  0.40000000000E+02  0.47000000000E+01 0. -1.
         -5    1    3    3    0  501  0.33097228790E+02  0.21929508378E+02 -0.12570237467E+01  0.40000000000E+02  0.47000000000E+01 0.  1.
</event>
<event>
 5    1  0.4833967E-001  0.8000000E+02  0.7546771E-02  0.1203772E+00
         11   -1    0    0    0    0  0.00000000000E+00  0.00000000000E+00  0.40000000000E+02  0.40000000000E+02  0.00000000000E+00 0. -1.
        -11   -1    0    0    0    0 -0.00000000000E+00 -0.00000000000E+00 -0.40000000000E+02  0.40000000000E+02  0.00000000000E+00 0.  1.
         23    2    1    2    0    0  0.00000000000E+00  0.00000000000E+00  0.00000000000E+00  0.80000000000E+02  0.80000000000E+02 0.  0.
          5    1    3    3  501    0  0.27614392437E+02  0.15700662188E+01  0.28511229760E+02  0.40000000000E+02  0.47000000000E+01 0. -1.
         -5    1    3    3    0  501 -0.27614392437E+02 -0.15700662188E+01 -0.28511229760E+02  0.40000000000E+02  0.47000000000E+01 0.  1.
</event>
<event>
 5    1  0.4833967E-001  0.8000000E+02  0.7546771E-02  0.1203772E+00
         11   -1    0    0    0    0  0.00000000000E+00  0.00000000000E+00  0.40000000000E+02  0.40000000000E+02  0.00000000000E+00 0.  1.
        -11   -1    0    0    0    0 -0.00000000000E+00 -0.00000000000E+00 -0.40000000000E+02  0.40000000000E+02  0.00000000000E+00 0. -1.
         23    2    1    2    0    0  0.00000000000E+00  0.00000000000E+00  0.00000000000E+00  0.80000000000E+02  0.80000000000E+02 0.  0.
          5    1    3    3  501    0  0.17911861401E+02 -0.13117394471E+02 -0.32939477583E+02  0.40000000000E+02  0.47000000000E+01 0. -1.
         -5    1    3    3    0  501 -0.17911861401E+02  0.13117394471E+02  0.32939477583E+02  0.40000000000E+02  0.47000000000E+01 0.  1.
</event>
<event>
 5    1  0.4833967E-001  0.8000000E+02  0.7546771E-02  0.1203772E+00
         11   -1    0    0    0    0  0.00000000000E+00  0.00000000000E+00  0.40000000000E+02  0.40000000000E+02  0.00000000000E+00 0. -1.
        -11   -1    0    0    0    0 -0.00000000000E+00 -0.00000000000E+00 -0.40000000000E+02  0.40000000000E+02  0.00000000000E+00 0.  1.
         23    2    1    2    0    0  0.00000000000E+00  0.00000000000E+00  0.00000000000E+00  0.80000000000E+02  0.80000000000E+02 0.  0.
          5    1    3    3  501    0 -0.26926059057E+02  0.27991663356E+02  0.83285128444E+01  0.40000000000E+02  0.47000000000E+01 0. -1.
         -5    1    3    3    0  501  0.26926059057E+02 -0.27991663356E+02 -0.83285128444E+01  0.40000000000E+02  0.47000000000E+01 0.  1.
</event>
<event>
 5    1  0.4833967E-001  0.8000000E+02  0.7546771E-02  0.1203772E+00
         11   -1    0    0    0    0  0.00000000000E+00  0.00000000000E+00  0.40000000000E+02  0.40000000000E+02  0.00000000000E+00 0. -1.
        -11   -1    0    0    0    0 -0.00000000000E+00 -0.00000000000E+00 -0.40000000000E+02  0.40000000000E+02  0.00000000000E+00 0.  1.
         23    2    1    2    0    0  0.00000000000E+00  0.00000000000E+00  0.00000000000E+00  0.80000000000E+02  0.80000000000E+02 0.  0.
          5    1    3    3  501    0  0.27620725750E+02 -0.20047872192E+02  0.20324574526E+02  0.40000000000E+02  0.47000000000E+01 0. -1.
         -5    1    3    3    0  501 -0.27620725750E+02  0.20047872192E+02 -0.20324574526E+02  0.40000000000E+02  0.47000000000E+01 0.  1.
</event>
<event>
 5    1  0.4833967E-001  0.8000000E+02  0.7546771E-02  0.1203772E+00
         11   -1    0    0    0    0  0.00000000000E+00  0.00000000000E+00  0.40000000000E+02  0.40000000000E+02  0.00000000000E+00 0. -1.
        -11   -1    0    0    0    0 -0.00000000000E+00 -0.00000000000E+00 -0.40000000000E+02  0.40000000000E+02  0.00000000000E+00 0.  1.
         23    2    1    2    0    0  0.00000000000E+00  0.00000000000E+00  0.00000000000E+00  0.80000000000E+02  0.80000000000E+02 0.  0.
          5    1    3    3  501    0  0.21718130119E+02 -0.30907173635E+02  0.12287369207E+02  0.40000000000E+02  0.47000000000E+01 0. -1.
         -5    1    3    3    0  501 -0.21718130119E+02  0.30907173635E+02 -0.12287369207E+02  0.40000000000E+02  0.47000000000E+01 0.  1.
</event>
<event>
 5    1  0.4833967E-001  0.8000000E+02  0.7546771E-02  0.1203772E+00
         11   -1    0    0    0    0  0.00000000000E+00  0.00000000000E+00  0.40000000000E+02  0.40000000000E+02  0.00000000000E+00 0.  1.
        -11   -1    0    0    0    0 -0.00000000000E+00 -0.00000000000E+00 -0.40000000000E+02  0.40000000000E+02  0.00000000000E+00 0. -1.
         23    2    1    2    0    0  0.00000000000E+00  0.00000000000E+00  0.00000000000E+00  0.80000000000E+02  0.80000000000E+02 0.  0.
          5    1    3    3  501    0 -0.18483231973E+02 -0.17667719381E+02 -0.30399536636E+02  0.40000000000E+02  0.47000000000E+01 0. -1.
         -5    1    3    3    0  501  0.18483231973E+02  0.17667719381E+02  0.30399536636E+02  0.40000000000E+02  0.47000000000E+01 0.  1.
</event>
<event>
 5    1  0.4833967E-001  0.8000000E+02  0.7546771E-02  0.1203772E+00
         11   -1    0    0    0    0  0.00000000000E+00  0.00000000000E+00  0.40000000000E+02  0.40000000000E+02  0.00000000000E+00 0. -1.
        -11   -1    0    0    0    0 -0.00000000000E+00 -0.00000000000E+00 -0.40000000000E+02  0.40000000000E+02  0.00000000000E+00 0.  1.
         23    2    1    2    0    0  0.00000000000E+00  0.00000000000E+00  0.00000000000E+00  0.80000000000E+02  0.80000000000E+02 0.  0.
          5    1    3    3  501    0 -0.31096708160E+01 -0.29857521317E+02  0.26014772116E+02  0.40000000000E+02  0.47000000000E+01 0. -1.
         -5    1    3    3    0  501  0.31096708160E+01  0.29857521317E+02 -0.26014772116E+02  0.40000000000E+02  0.47000000000E+01 0.  1.
</event>
<event>
 5    1  0.4833967E-001  0.8000000E+02  0.7546771E-02  0.1203772E+00
         11   -1    0    0    0    0  0.00000000000E+00  0.00000000000E+00  0.40000000000E+02  0.40000000000E+02  0.00000000000E+00 0.  1.
        -11   -1    0    0    0    0 -0.00000000000E+00 -0.00000000000E+00 -0.40000000000E+02  0.40000000000E+02  0.00000000000E+00 0. -1.
         23    2    1    2    0    0  0.00000000000E+00  0.00000000000E+00  0.00000000000E+00  0.80000000000E+02  0.80000000000E+02 0.  0.
          5    1    3    3  501    0 -0.18232898111E+02 -0.34466416738E+02 -0.75853505995E+01  0.40000000000E+02  0.47000000000E+01 0. -1.
         -5    1    3    3    0  501  0.18232898111E+02  0.34466416738E+02  0.75853505995E+01  0.40000000000E+02  0.47000000000E+01 0.  1.
</event>
<event>
 5    1  0.4833967E-001  0.8000000E+02  0.7546771E-02  0.1203772E+00
         11   -1    0    0    0    0  0.00000000000E+00  0.00000000000E+00  0.40000000000E+02  0.40000000000E+02  0.00000000000E+00 0. -1.
        -11   -1    0    0    0    0 -0.00000000000E+00 -0.00000000000E+00 -0.40000000000E+02  0.40000000000E+02  0.00000000000E+00 0.  1.
         23    2    1    2    0    0  0.00000000000E+00  0.00000000000E+00  0.00000000000E+00  0.80000000000E+02  0.80000000000E+02 0.  0.
          5    1    3    3  501    0 -0.18872831023E+02  0.26455496765E+02  0.22843663019E+02  0.40000000000E+02  0.47000000000E+01 0. -1.
         -5    1    3    3    0  501  0.18872831023E+02 -0.26455496765E+02 -0.22843663019E+02  0.40000000000E+02  0.47000000000E+01 0.  1.
</event>
<event>
 5    1  0.4833967E-001  0.8000000E+02  0.7546771E-02  0.1203772E+00
         11   -1    0    0    0    0  0.00000000000E+00  0.00000000000E+00  0.40000000000E+02  0.40000000000E+02  0.00000000000E+00 0.  1.
        -11   -1    0    0    0    0 -0.00000000000E+00 -0.00000000000E+00 -0.40000000000E+02  0.40000000000E+02  0.00000000000E+00 0. -1.
         23    2    1    2    0    0  0.00000000000E+00  0.00000000000E+00  0.00000000000E+00  0.80000000000E+02  0.80000000000E+02 0.  0.
          5    1    3    3  501    0  0.15541885737E+02 -0.30751818595E+02 -0.19765764363E+02  0.40000000000E+02  0.47000000000E+01 0. -1.
         -5    1    3    3    0  501 -0.15541885737E+02  0.30751818595E+02  0.19765764363E+02  0.40000000000E+02  0.47000000000E+01 0.  1.
</event>
<event>
 5    1  0.4833967E-001  0.8000000E+02  0.7546771E-02  0.1203772E+00
         11   -1    0    0    0    0  0.00000000000E+00  0.00000000000E+00  0.40000000000E+02  0.40000000000E+02  0.00000000000E+00 0. -1.
        -11   -1    0    0    0    0 -0.00000000000E+00 -0.00000000000E+00 -0.40000000000E+02  0.40000000000E+02  0.00000000000E+00 0.  1.
         23    2    1    2    0    0  0.00000000000E+00  0.00000000000E+00  0.00000000000E+00  0.80000000000E+02  0.80000000000E+02 0.  0.
          5    1    3    3  501    0  0.17047504726E+02  0.28772682628E+02 -0.21434209035E+02  0.40000000000E+02  0.47000000000E+01 0.  1.
         -5    1    3    3    0  501 -0.17047504726E+02 -0.28772682628E+02  0.21434209035E+02  0.40000000000E+02  0.47000000000E+01 0. -1.
</event>
<event>
 5    1  0.4833967E-001  0.8000000E+02  0.7546771E-02  0.1203772E+00
         11   -1    0    0    0    0  0.00000000000E+00  0.00000000000E+00  0.40000000000E+02  0.40000000000E+02  0.00000000000E+00 0. -1.
        -11   -1    0    0    0    0 -0.00000000000E+00 -0.00000000000E+00 -0.40000000000E+02  0.40000000000E+02  0.00000000000E+00 0.  1.
         23    2    1    2    0    0  0.00000000000E+00  0.00000000000E+00  0.00000000000E+00  0.80000000000E+02  0.80000000000E+02 0.  0.
          5    1    3    3  501    0 -0.10904091274E+02 -0.20274848549E+02  0.32371921627E+02  0.40000000000E+02  0.47000000000E+01 0. -1.
         -5    1    3    3    0  501  0.10904091274E+02  0.20274848549E+02 -0.32371921627E+02  0.40000000000E+02  0.47000000000E+01 0.  1.
</event>
<event>
 5    1  0.4833967E-001  0.8000000E+02  0.7546771E-02  0.1203772E+00
         11   -1    0    0    0    0  0.00000000000E+00  0.00000000000E+00  0.40000000000E+02  0.40000000000E+02  0.00000000000E+00 0.  1.
        -11   -1    0    0    0    0 -0.00000000000E+00 -0.00000000000E+00 -0.40000000000E+02  0.40000000000E+02  0.00000000000E+00 0. -1.
         23    2    1    2    0    0  0.00000000000E+00  0.00000000000E+00  0.00000000000E+00  0.80000000000E+02  0.80000000000E+02 0.  0.
          5    1    3    3  501    0  0.30618048386E+02 -0.37663358910E+01 -0.25025183856E+02  0.40000000000E+02  0.47000000000E+01 0. -1.
         -5    1    3    3    0  501 -0.30618048386E+02  0.37663358910E+01  0.25025183856E+02  0.40000000000E+02  0.47000000000E+01 0.  1.
</event>
<event>
 5    1  0.4833967E-001  0.8000000E+02  0.7546771E-02  0.1203772E+00
         11   -1    0    0    0    0  0.00000000000E+00  0.00000000000E+00  0.40000000000E+02  0.40000000000E+02  0.00000000000E+00 0.  1.
        -11   -1    0    0    0    0 -0.00000000000E+00 -0.00000000000E+00 -0.40000000000E+02  0.40000000000E+02  0.00000000000E+00 0. -1.
         23    2    1    2    0    0  0.00000000000E+00  0.00000000000E+00  0.00000000000E+00  0.80000000000E+02  0.80000000000E+02 0.  0.
          5    1    3    3  501    0  0.54087993260E+01  0.25369179927E+02 -0.30084208477E+02  0.40000000000E+02  0.47000000000E+01 0. -1.
         -5    1    3    3    0  501 -0.54087993260E+01 -0.25369179927E+02  0.30084208477E+02  0.40000000000E+02  0.47000000000E+01 0.  1.
</event>
<event>
 5    1  0.4833967E-001  0.8000000E+02  0.7546771E-02  0.1203772E+00
         11   -1    0    0    0    0  0.00000000000E+00  0.00000000000E+00  0.40000000000E+02  0.40000000000E+02  0.00000000000E+00 0.  1.
        -11   -1    0    0    0    0 -0.00000000000E+00 -0.00000000000E+00 -0.40000000000E+02  0.40000000000E+02  0.00000000000E+00 0. -1.
         23    2    1    2    0    0  0.00000000000E+00  0.00000000000E+00  0.00000000000E+00  0.80000000000E+02  0.80000000000E+02 0.  0.
          5    1    3    3  501    0  0.28294417535E+02  0.88767910356E+01 -0.26429879252E+02  0.40000000000E+02  0.47000000000E+01 0. -1.
         -5    1    3    3    0  501 -0.28294417535E+02 -0.88767910356E+01  0.26429879252E+02  0.40000000000E+02  0.47000000000E+01 0.  1.
</event>
<event>
 5    1  0.4833967E-001  0.8000000E+02  0.7546771E-02  0.1203772E+00
         11   -1    0    0    0    0  0.00000000000E+00  0.00000000000E+00  0.40000000000E+02  0.40000000000E+02  0.00000000000E+00 0. -1.
        -11   -1    0    0    0    0 -0.00000000000E+00 -0.00000000000E+00 -0.40000000000E+02  0.40000000000E+02  0.00000000000E+00 0.  1.
         23    2    1    2    0    0  0.00000000000E+00  0.00000000000E+00  0.00000000000E+00  0.80000000000E+02  0.80000000000E+02 0.  0.
          5    1    3    3  501    0 -0.23942704997E+02  0.31664393233E+02  0.14223496881E+01  0.40000000000E+02  0.47000000000E+01 0. -1.
         -5    1    3    3    0  501  0.23942704997E+02 -0.31664393233E+02 -0.14223496881E+01  0.40000000000E+02  0.47000000000E+01 0.  1.
</event>
<event>
 5    1  0.4833967E-001  0.8000000E+02  0.7546771E-02  0.1203772E+00
         11   -1    0    0    0    0  0.00000000000E+00  0.00000000000E+00  0.40000000000E+02  0.40000000000E+02  0.00000000000E+00 0.  1.
        -11   -1    0    0    0    0 -0.00000000000E+00 -0.00000000000E+00 -0.40000000000E+02  0.40000000000E+02  0.00000000000E+00 0. -1.
         23    2    1    2    0    0  0.00000000000E+00  0.00000000000E+00  0.00000000000E+00  0.80000000000E+02  0.80000000000E+02 0.  0.
          5    1    3    3  501    0  0.30984299294E+02  0.24496064790E+02  0.42220856328E+01  0.40000000000E+02  0.47000000000E+01 0. -1.
         -5    1    3    3    0  501 -0.30984299294E+02 -0.24496064790E+02 -0.42220856328E+01  0.40000000000E+02  0.47000000000E+01 0.  1.
</event>
<event>
 5    1  0.4833967E-001  0.8000000E+02  0.7546771E-02  0.1203772E+00
         11   -1    0    0    0    0  0.00000000000E+00  0.00000000000E+00  0.40000000000E+02  0.40000000000E+02  0.00000000000E+00 0. -1.
        -11   -1    0    0    0    0 -0.00000000000E+00 -0.00000000000E+00 -0.40000000000E+02  0.40000000000E+02  0.00000000000E+00 0.  1.
         23    2    1    2    0    0  0.00000000000E+00  0.00000000000E+00  0.00000000000E+00  0.80000000000E+02  0.80000000000E+02 0.  0.
          5    1    3    3  501    0 -0.45640567645E+01 -0.18882748237E+02  0.34648538279E+02  0.40000000000E+02  0.47000000000E+01 0. -1.
         -5    1    3    3    0  501  0.45640567645E+01  0.18882748237E+02 -0.34648538279E+02  0.40000000000E+02  0.47000000000E+01 0.  1.
</event>
<event>
 5    1  0.4833967E-001  0.8000000E+02  0.7546771E-02  0.1203772E+00
         11   -1    0    0    0    0  0.00000000000E+00  0.00000000000E+00  0.40000000000E+02  0.40000000000E+02  0.00000000000E+00 0. -1.
        -11   -1    0    0    0    0 -0.00000000000E+00 -0.00000000000E+00 -0.40000000000E+02  0.40000000000E+02  0.00000000000E+00 0.  1.
         23    2    1    2    0    0  0.00000000000E+00  0.00000000000E+00  0.00000000000E+00  0.80000000000E+02  0.80000000000E+02 0.  0.
          5    1    3    3  501    0 -0.45070076108E+01 -0.77006598207E+01  0.38707837975E+02  0.40000000000E+02  0.47000000000E+01 0. -1.
         -5    1    3    3    0  501  0.45070076108E+01  0.77006598207E+01 -0.38707837975E+02  0.40000000000E+02  0.47000000000E+01 0.  1.
</event>
<event>
 5    1  0.4833967E-001  0.8000000E+02  0.7546771E-02  0.1203772E+00
         11   -1    0    0    0    0  0.00000000000E+00  0.00000000000E+00  0.40000000000E+02  0.40000000000E+02  0.00000000000E+00 0. -1.
        -11   -1    0    0    0    0 -0.00000000000E+00 -0.00000000000E+00 -0.40000000000E+02  0.40000000000E+02  0.00000000000E+00 0.  1.
         23    2    1    2    0    0  0.00000000000E+00  0.00000000000E+00  0.00000000000E+00  0.80000000000E+02  0.80000000000E+02 0.  0.
          5    1    3    3  501    0 -0.28578922478E+02  0.27419630728E+02  0.30527103943E+01  0.40000000000E+02  0.47000000000E+01 0. -1.
         -5    1    3    3    0  501  0.28578922478E+02 -0.27419630728E+02 -0.30527103943E+01  0.40000000000E+02  0.47000000000E+01 0.  1.
</event>
<event>
 5    1  0.4833967E-001  0.8000000E+02  0.7546771E-02  0.1203772E+00
         11   -1    0    0    0    0  0.00000000000E+00  0.00000000000E+00  0.40000000000E+02  0.40000000000E+02  0.00000000000E+00 0.  1.
        -11   -1    0    0    0    0 -0.00000000000E+00 -0.00000000000E+00 -0.40000000000E+02  0.40000000000E+02  0.00000000000E+00 0. -1.
         23    2    1    2    0    0  0.00000000000E+00  0.00000000000E+00  0.00000000000E+00  0.80000000000E+02  0.80000000000E+02 0.  0.
          5    1    3    3  501    0  0.30840978726E+02 -0.19888449071E+02  0.15205052606E+02  0.40000000000E+02  0.47000000000E+01 0. -1.
         -5    1    3    3    0  501 -0.30840978726E+02  0.19888449071E+02 -0.15205052606E+02  0.40000000000E+02  0.47000000000E+01 0.  1.
</event>
<event>
 5    1  0.4833967E-001  0.8000000E+02  0.7546771E-02  0.1203772E+00
         11   -1    0    0    0    0  0.00000000000E+00  0.00000000000E+00  0.40000000000E+02  0.40000000000E+02  0.00000000000E+00 0. -1.
        -11   -1    0    0    0    0 -0.00000000000E+00 -0.00000000000E+00 -0.40000000000E+02  0.40000000000E+02  0.00000000000E+00 0.  1.
         23    2    1    2    0    0  0.00000000000E+00  0.00000000000E+00  0.00000000000E+00  0.80000000000E+02  0.80000000000E+02 0.  0.
          5    1    3    3  501    0 -0.34734330611E+02  0.19266581956E+02  0.48486779520E+00  0.40000000000E+02  0.47000000000E+01 0. -1.
         -5    1    3    3    0  501  0.34734330611E+02 -0.19266581956E+02 -0.48486779520E+00  0.40000000000E+02  0.47000000000E+01 0.  1.
</event>
<event>
 5    1  0.4833967E-001  0.8000000E+02  0.7546771E-02  0.1203772E+00
         11   -1    0    0    0    0  0.00000000000E+00  0.00000000000E+00  0.40000000000E+02  0.40000000000E+02  0.00000000000E+00 0. -1.
        -11   -1    0    0    0    0 -0.00000000000E+00 -0.00000000000E+00 -0.40000000000E+02  0.40000000000E+02  0.00000000000E+00 0.  1.
         23    2    1    2    0    0  0.00000000000E+00  0.00000000000E+00  0.00000000000E+00  0.80000000000E+02  0.80000000000E+02 0.  0.
          5    1    3    3  501    0 -0.16083338897E+02 -0.29132779320E+02  0.21691412564E+02  0.40000000000E+02  0.47000000000E+01 0. -1.
         -5    1    3    3    0  501  0.16083338897E+02  0.29132779320E+02 -0.21691412564E+02  0.40000000000E+02  0.47000000000E+01 0.  1.
</event>
<event>
 5    1  0.4833967E-001  0.8000000E+02  0.7546771E-02  0.1203772E+00
         11   -1    0    0    0    0  0.00000000000E+00  0.00000000000E+00  0.40000000000E+02  0.40000000000E+02  0.00000000000E+00 0.  1.
        -11   -1    0    0    0    0 -0.00000000000E+00 -0.00000000000E+00 -0.40000000000E+02  0.40000000000E+02  0.00000000000E+00 0. -1.
         23    2    1    2    0    0  0.00000000000E+00  0.00000000000E+00  0.00000000000E+00  0.80000000000E+02  0.80000000000E+02 0.  0.
          5    1    3    3  501    0  0.10992131553E+01 -0.51788276288E+01 -0.39368534070E+02  0.40000000000E+02  0.47000000000E+01 0. -1.
         -5    1    3    3    0  501 -0.10992131553E+01  0.51788276288E+01  0.39368534070E+02  0.40000000000E+02  0.47000000000E+01 0.  1.
</event>
<event>
 5    1  0.4833967E-001  0.8000000E+02  0.7546771E-02  0.1203772E+00
         11   -1    0    0    0    0  0.00000000000E+00  0.00000000000E+00  0.40000000000E+02  0.40000000000E+02  0.00000000000E+00 0. -1.
        -11   -1    0    0    0    0 -0.00000000000E+00 -0.00000000000E+00 -0.40000000000E+02  0.40000000000E+02  0.00000000000E+00 0.  1.
         23    2    1    2    0    0  0.00000000000E+00  0.00000000000E+00  0.00000000000E+00  0.80000000000E+02  0.80000000000E+02 0.  0.
          5    1    3    3  501    0 -0.44545842350E+01 -0.32755322786E+01  0.39336211912E+02  0.40000000000E+02  0.47000000000E+01 0. -1.
         -5    1    3    3    0  501  0.44545842350E+01  0.32755322786E+01 -0.39336211912E+02  0.40000000000E+02  0.47000000000E+01 0.  1.
</event>
<event>
 5    1  0.4833967E-001  0.8000000E+02  0.7546771E-02  0.1203772E+00
         11   -1    0    0    0    0  0.00000000000E+00  0.00000000000E+00  0.40000000000E+02  0.40000000000E+02  0.00000000000E+00 0.  1.
        -11   -1    0    0    0    0 -0.00000000000E+00 -0.00000000000E+00 -0.40000000000E+02  0.40000000000E+02  0.00000000000E+00 0. -1.
         23    2    1    2    0    0  0.00000000000E+00  0.00000000000E+00  0.00000000000E+00  0.80000000000E+02  0.80000000000E+02 0.  0.
          5    1    3    3  501    0  0.23594332055E+02  0.28974258658E+02 -0.13479978863E+02  0.40000000000E+02  0.47000000000E+01 0. -1.
         -5    1    3    3    0  501 -0.23594332055E+02 -0.28974258658E+02  0.13479978863E+02  0.40000000000E+02  0.47000000000E+01 0.  1.
</event>
<event>
 5    1  0.4833967E-001  0.8000000E+02  0.7546771E-02  0.1203772E+00
         11   -1    0    0    0    0  0.00000000000E+00  0.00000000000E+00  0.40000000000E+02  0.40000000000E+02  0.00000000000E+00 0.  1.
        -11   -1    0    0    0    0 -0.00000000000E+00 -0.00000000000E+00 -0.40000000000E+02  0.40000000000E+02  0.00000000000E+00 0. -1.
         23    2    1    2    0    0  0.00000000000E+00  0.00000000000E+00  0.00000000000E+00  0.80000000000E+02  0.80000000000E+02 0.  0.
          5    1    3    3  501    0  0.38383647976E+02  0.85093631586E+01 -0.56741789424E+01  0.40000000000E+02  0.47000000000E+01 0. -1.
         -5    1    3    3    0  501 -0.38383647976E+02 -0.85093631586E+01  0.56741789424E+01  0.40000000000E+02  0.47000000000E+01 0.  1.
</event>
<event>
 5    1  0.4833967E-001  0.8000000E+02  0.7546771E-02  0.1203772E+00
         11   -1    0    0    0    0  0.00000000000E+00  0.00000000000E+00  0.40000000000E+02  0.40000000000E+02  0.00000000000E+00 0.  1.
        -11   -1    0    0    0    0 -0.00000000000E+00 -0.00000000000E+00 -0.40000000000E+02  0.40000000000E+02  0.00000000000E+00 0. -1.
         23    2    1    2    0    0  0.00000000000E+00  0.00000000000E+00  0.00000000000E+00  0.80000000000E+02  0.80000000000E+02 0.  0.
          5    1    3    3  501    0  0.27507296072E+02  0.23172445682E+02 -0.16861092014E+02  0.40000000000E+02  0.47000000000E+01 0. -1.
         -5    1    3    3    0  501 -0.27507296072E+02 -0.23172445682E+02  0.16861092014E+02  0.40000000000E+02  0.47000000000E+01 0.  1.
</event>
<event>
 5    1  0.4833967E-001  0.8000000E+02  0.7546771E-02  0.1203772E+00
         11   -1    0    0    0    0  0.00000000000E+00  0.00000000000E+00  0.40000000000E+02  0.40000000000E+02  0.00000000000E+00 0.  1.
        -11   -1    0    0    0    0 -0.00000000000E+00 -0.00000000000E+00 -0.40000000000E+02  0.40000000000E+02  0.00000000000E+00 0. -1.
         23    2    1    2    0    0  0.00000000000E+00  0.00000000000E+00  0.00000000000E+00  0.80000000000E+02  0.80000000000E+02 0.  0.
          5    1    3    3  501    0 -0.17472343759E+02 -0.19697916678E+02 -0.29742550027E+02  0.40000000000E+02  0.47000000000E+01 0. -1.
         -5    1    3    3    0  501  0.17472343759E+02  0.19697916678E+02  0.29742550027E+02  0.40000000000E+02  0.47000000000E+01 0.  1.
</event>
<event>
 5    1  0.4833967E-001  0.8000000E+02  0.7546771E-02  0.1203772E+00
         11   -1    0    0    0    0  0.00000000000E+00  0.00000000000E+00  0.40000000000E+02  0.40000000000E+02  0.00000000000E+00 0.  1.
        -11   -1    0    0    0    0 -0.00000000000E+00 -0.00000000000E+00 -0.40000000000E+02  0.40000000000E+02  0.00000000000E+00 0. -1.
         23    2    1    2    0    0  0.00000000000E+00  0.00000000000E+00  0.00000000000E+00  0.80000000000E+02  0.80000000000E+02 0.  0.
          5    1    3    3  501    0 -0.13159077178E+02 -0.22967383342E+02 -0.29618372511E+02  0.40000000000E+02  0.47000000000E+01 0. -1.
         -5    1    3    3    0  501  0.13159077178E+02  0.22967383342E+02  0.29618372511E+02  0.40000000000E+02  0.47000000000E+01 0.  1.
</event>
<event>
 5    1  0.4833967E-001  0.8000000E+02  0.7546771E-02  0.1203772E+00
         11   -1    0    0    0    0  0.00000000000E+00  0.00000000000E+00  0.40000000000E+02  0.40000000000E+02  0.00000000000E+00 0. -1.
        -11   -1    0    0    0    0 -0.00000000000E+00 -0.00000000000E+00 -0.40000000000E+02  0.40000000000E+02  0.00000000000E+00 0.  1.
         23    2    1    2    0    0  0.00000000000E+00  0.00000000000E+00  0.00000000000E+00  0.80000000000E+02  0.80000000000E+02 0.  0.
          5    1    3    3  501    0 -0.24971267798E+02 -0.73139799181E+01  0.30014188017E+02  0.40000000000E+02  0.47000000000E+01 0. -1.
         -5    1    3    3    0  501  0.24971267798E+02  0.73139799181E+01 -0.30014188017E+02  0.40000000000E+02  0.47000000000E+01 0.  1.
</event>
<event>
 5    1  0.4833967E-001  0.8000000E+02  0.7546771E-02  0.1203772E+00
         11   -1    0    0    0    0  0.00000000000E+00  0.00000000000E+00  0.40000000000E+02  0.40000000000E+02  0.00000000000E+00 0. -1.
        -11   -1    0    0    0    0 -0.00000000000E+00 -0.00000000000E+00 -0.40000000000E+02  0.40000000000E+02  0.00000000000E+00 0.  1.
         23    2    1    2    0    0  0.00000000000E+00  0.00000000000E+00  0.00000000000E+00  0.80000000000E+02  0.80000000000E+02 0.  0.
          5    1    3    3  501    0  0.24400718664E+02 -0.10636324755E+02 -0.29485310315E+02  0.40000000000E+02  0.47000000000E+01 0.  1.
         -5    1    3    3    0  501 -0.24400718664E+02  0.10636324755E+02  0.29485310315E+02  0.40000000000E+02  0.47000000000E+01 0. -1.
</event>
<event>
 5    1  0.4833967E-001  0.8000000E+02  0.7546771E-02  0.1203772E+00
         11   -1    0    0    0    0  0.00000000000E+00  0.00000000000E+00  0.40000000000E+02  0.40000000000E+02  0.00000000000E+00 0. -1.
        -11   -1    0    0    0    0 -0.00000000000E+00 -0.00000000000E+00 -0.40000000000E+02  0.40000000000E+02  0.00000000000E+00 0.  1.
         23    2    1    2    0    0  0.00000000000E+00  0.00000000000E+00  0.00000000000E+00  0.80000000000E+02  0.80000000000E+02 0.  0.
          5    1    3    3  501    0 -0.28395754757E+02  0.23098535335E+02  0.15428829415E+02  0.40000000000E+02  0.47000000000E+01 0. -1.
         -5    1    3    3    0  501  0.28395754757E+02 -0.23098535335E+02 -0.15428829415E+02  0.40000000000E+02  0.47000000000E+01 0.  1.
</event>
<event>
 5    1  0.4833967E-001  0.8000000E+02  0.7546771E-02  0.1203772E+00
         11   -1    0    0    0    0  0.00000000000E+00  0.00000000000E+00  0.40000000000E+02  0.40000000000E+02  0.00000000000E+00 0.  1.
        -11   -1    0    0    0    0 -0.00000000000E+00 -0.00000000000E+00 -0.40000000000E+02  0.40000000000E+02  0.00000000000E+00 0. -1.
         23    2    1    2    0    0  0.00000000000E+00  0.00000000000E+00  0.00000000000E+00  0.80000000000E+02  0.80000000000E+02 0.  0.
          5    1    3    3  501    0 -0.36564376657E+02  0.13599871323E+02 -0.74833053982E+01  0.40000000000E+02  0.47000000000E+01 0. -1.
         -5    1    3    3    0  501  0.36564376657E+02 -0.13599871323E+02  0.74833053982E+01  0.40000000000E+02  0.47000000000E+01 0.  1.
</event>
<event>
 5    1  0.4833967E-001  0.8000000E+02  0.7546771E-02  0.1203772E+00
         11   -1    0    0    0    0  0.00000000000E+00  0.00000000000E+00  0.40000000000E+02  0.40000000000E+02  0.00000000000E+00 0.  1.
        -11   -1    0    0    0    0 -0.00000000000E+00 -0.00000000000E+00 -0.40000000000E+02  0.40000000000E+02  0.00000000000E+00 0. -1.
         23    2    1    2    0    0  0.00000000000E+00  0.00000000000E+00  0.00000000000E+00  0.80000000000E+02  0.80000000000E+02 0.  0.
          5    1    3    3  501    0  0.35298789156E+02  0.11188844969E+02 -0.14377594804E+02  0.40000000000E+02  0.47000000000E+01 0. -1.
         -5    1    3    3    0  501 -0.35298789156E+02 -0.11188844969E+02  0.14377594804E+02  0.40000000000E+02  0.47000000000E+01 0.  1.
</event>
<event>
 5    1  0.4833967E-001  0.8000000E+02  0.7546771E-02  0.1203772E+00
         11   -1    0    0    0    0  0.00000000000E+00  0.00000000000E+00  0.40000000000E+02  0.40000000000E+02  0.00000000000E+00 0. -1.
        -11   -1    0    0    0    0 -0.00000000000E+00 -0.00000000000E+00 -0.40000000000E+02  0.40000000000E+02  0.00000000000E+00 0.  1.
         23    2    1    2    0    0  0.00000000000E+00  0.00000000000E+00  0.00000000000E+00  0.80000000000E+02  0.80000000000E+02 0.  0.
          5    1    3    3  501    0  0.34107895775E+02  0.57670766266E+01  0.19526962718E+02  0.40000000000E+02  0.47000000000E+01 0. -1.
         -5    1    3    3    0  501 -0.34107895775E+02 -0.57670766266E+01 -0.19526962718E+02  0.40000000000E+02  0.47000000000E+01 0.  1.
</event>
<event>
 5    1  0.4833967E-001  0.8000000E+02  0.7546771E-02  0.1203772E+00
         11   -1    0    0    0    0  0.00000000000E+00  0.00000000000E+00  0.40000000000E+02  0.40000000000E+02  0.00000000000E+00 0. -1.
        -11   -1    0    0    0    0 -0.00000000000E+00 -0.00000000000E+00 -0.40000000000E+02  0.40000000000E+02  0.00000000000E+00 0.  1.
         23    2    1    2    0    0  0.00000000000E+00  0.00000000000E+00  0.00000000000E+00  0.80000000000E+02  0.80000000000E+02 0.  0.
          5    1    3    3  501    0  0.13416225714E+02  0.56110272347E+00  0.37384489449E+02  0.40000000000E+02  0.47000000000E+01 0. -1.
         -5    1    3    3    0  501 -0.13416225714E+02 -0.56110272347E+00 -0.37384489449E+02  0.40000000000E+02  0.47000000000E+01 0.  1.
</event>
<event>
 5    1  0.4833967E-001  0.8000000E+02  0.7546771E-02  0.1203772E+00
         11   -1    0    0    0    0  0.00000000000E+00  0.00000000000E+00  0.40000000000E+02  0.40000000000E+02  0.00000000000E+00 0. -1.
        -11   -1    0    0    0    0 -0.00000000000E+00 -0.00000000000E+00 -0.40000000000E+02  0.40000000000E+02  0.00000000000E+00 0.  1.
         23    2    1    2    0    0  0.00000000000E+00  0.00000000000E+00  0.00000000000E+00  0.80000000000E+02  0.80000000000E+02 0.  0.
          5    1    3    3  501    0  0.16784019320E+02  0.57902450638E+01  0.35534205458E+02  0.40000000000E+02  0.47000000000E+01 0. -1.
         -5    1    3    3    0  501 -0.16784019320E+02 -0.57902450638E+01 -0.35534205458E+02  0.40000000000E+02  0.47000000000E+01 0.  1.
</event>
<event>
 5    1  0.4833967E-001  0.8000000E+02  0.7546771E-02  0.1203772E+00
         11   -1    0    0    0    0  0.00000000000E+00  0.00000000000E+00  0.40000000000E+02  0.40000000000E+02  0.00000000000E+00 0.  1.
        -11   -1    0    0    0    0 -0.00000000000E+00 -0.00000000000E+00 -0.40000000000E+02  0.40000000000E+02  0.00000000000E+00 0. -1.
         23    2    1    2    0    0  0.00000000000E+00  0.00000000000E+00  0.00000000000E+00  0.80000000000E+02  0.80000000000E+02 0.  0.
          5    1    3    3  501    0  0.13861115378E+02  0.32471043400E+02 -0.18204692280E+02  0.40000000000E+02  0.47000000000E+01 0. -1.
         -5    1    3    3    0  501 -0.13861115378E+02 -0.32471043400E+02  0.18204692280E+02  0.40000000000E+02  0.47000000000E+01 0.  1.
</event>
<event>
 5    1  0.4833967E-001  0.8000000E+02  0.7546771E-02  0.1203772E+00
         11   -1    0    0    0    0  0.00000000000E+00  0.00000000000E+00  0.40000000000E+02  0.40000000000E+02  0.00000000000E+00 0.  1.
        -11   -1    0    0    0    0 -0.00000000000E+00 -0.00000000000E+00 -0.40000000000E+02  0.40000000000E+02  0.00000000000E+00 0. -1.
         23    2    1    2    0    0  0.00000000000E+00  0.00000000000E+00  0.00000000000E+00  0.80000000000E+02  0.80000000000E+02 0.  0.
          5    1    3    3  501    0 -0.29432900102E+02 -0.47396576142E+01 -0.26251667324E+02  0.40000000000E+02  0.47000000000E+01 0. -1.
         -5    1    3    3    0  501  0.29432900102E+02  0.47396576142E+01  0.26251667324E+02  0.40000000000E+02  0.47000000000E+01 0.  1.
</event>
<event>
 5    1  0.4833967E-001  0.8000000E+02  0.7546771E-02  0.1203772E+00
         11   -1    0    0    0    0  0.00000000000E+00  0.00000000000E+00  0.40000000000E+02  0.40000000000E+02  0.00000000000E+00 0.  1.
        -11   -1    0    0    0    0 -0.00000000000E+00 -0.00000000000E+00 -0.40000000000E+02  0.40000000000E+02  0.00000000000E+00 0. -1.
         23    2    1    2    0    0  0.00000000000E+00  0.00000000000E+00  0.00000000000E+00  0.80000000000E+02  0.80000000000E+02 0.  0.
          5    1    3    3  501    0 -0.33594110897E+02  0.16878970613E+00 -0.21197104120E+02  0.40000000000E+02  0.47000000000E+01 0. -1.
         -5    1    3    3    0  501  0.33594110897E+02 -0.16878970613E+00  0.21197104120E+02  0.40000000000E+02  0.47000000000E+01 0.  1.
</event>
<event>
 5    1  0.4833967E-001  0.8000000E+02  0.7546771E-02  0.1203772E+00
         11   -1    0    0    0    0  0.00000000000E+00  0.00000000000E+00  0.40000000000E+02  0.40000000000E+02  0.00000000000E+00 0. -1.
        -11   -1    0    0    0    0 -0.00000000000E+00 -0.00000000000E+00 -0.40000000000E+02  0.40000000000E+02  0.00000000000E+00 0.  1.
         23    2    1    2    0    0  0.00000000000E+00  0.00000000000E+00  0.00000000000E+00  0.80000000000E+02  0.80000000000E+02 0.  0.
          5    1    3    3  501    0 -0.29888144049E+02 -0.25127092241E+02  0.72964430251E+01  0.40000000000E+02  0.47000000000E+01 0. -1.
         -5    1    3    3    0  501  0.29888144049E+02  0.25127092241E+02 -0.72964430251E+01  0.40000000000E+02  0.47000000000E+01 0.  1.
</event>
<event>
 5    1  0.4833967E-001  0.8000000E+02  0.7546771E-02  0.1203772E+00
         11   -1    0    0    0    0  0.00000000000E+00  0.00000000000E+00  0.40000000000E+02  0.40000000000E+02  0.00000000000E+00 0.  1.
        -11   -1    0    0    0    0 -0.00000000000E+00 -0.00000000000E+00 -0.40000000000E+02  0.40000000000E+02  0.00000000000E+00 0. -1.
         23    2    1    2    0    0  0.00000000000E+00  0.00000000000E+00  0.00000000000E+00  0.80000000000E+02  0.80000000000E+02 0.  0.
          5    1    3    3  501    0 -0.24140964823E+02 -0.67818835500E+01 -0.30807951456E+02  0.40000000000E+02  0.47000000000E+01 0. -1.
         -5    1    3    3    0  501  0.24140964823E+02  0.67818835500E+01  0.30807951456E+02  0.40000000000E+02  0.47000000000E+01 0.  1.
</event>
<event>
 5    1  0.4833967E-001  0.8000000E+02  0.7546771E-02  0.1203772E+00
         11   -1    0    0    0    0  0.00000000000E+00  0.00000000000E+00  0.40000000000E+02  0.40000000000E+02  0.00000000000E+00 0.  1.
        -11   -1    0    0    0    0 -0.00000000000E+00 -0.00000000000E+00 -0.40000000000E+02  0.40000000000E+02  0.00000000000E+00 0. -1.
         23    2    1    2    0    0  0.00000000000E+00  0.00000000000E+00  0.00000000000E+00  0.80000000000E+02  0.80000000000E+02 0.  0.
          5    1    3    3  501    0  0.15042581636E+02  0.55100726791E+00 -0.36760401640E+02  0.40000000000E+02  0.47000000000E+01 0. -1.
         -5    1    3    3    0  501 -0.15042581636E+02 -0.55100726791E+00  0.36760401640E+02  0.40000000000E+02  0.47000000000E+01 0.  1.
</event>
<event>
 5    1  0.4833967E-001  0.8000000E+02  0.7546771E-02  0.1203772E+00
         11   -1    0    0    0    0  0.00000000000E+00  0.00000000000E+00  0.40000000000E+02  0.40000000000E+02  0.00000000000E+00 0.  1.
        -11   -1    0    0    0    0 -0.00000000000E+00 -0.00000000000E+00 -0.40000000000E+02  0.40000000000E+02  0.00000000000E+00 0. -1.
         23    2    1    2    0    0  0.00000000000E+00  0.00000000000E+00  0.00000000000E+00  0.80000000000E+02  0.80000000000E+02 0.  0.
          5    1    3    3  501    0 -0.15002902157E+02 -0.21822060126E+02 -0.29607779700E+02  0.40000000000E+02  0.47000000000E+01 0. -1.
         -5    1    3    3    0  501  0.15002902157E+02  0.21822060126E+02  0.29607779700E+02  0.40000000000E+02  0.47000000000E+01 0.  1.
</event>
<event>
 5    1  0.4833967E-001  0.8000000E+02  0.7546771E-02  0.1203772E+00
         11   -1    0    0    0    0  0.00000000000E+00  0.00000000000E+00  0.40000000000E+02  0.40000000000E+02  0.00000000000E+00 0.  1.
        -11   -1    0    0    0    0 -0.00000000000E+00 -0.00000000000E+00 -0.40000000000E+02  0.40000000000E+02  0.00000000000E+00 0. -1.
         23    2    1    2    0    0  0.00000000000E+00  0.00000000000E+00  0.00000000000E+00  0.80000000000E+02  0.80000000000E+02 0.  0.
          5    1    3    3  501    0 -0.10987471427E+01 -0.38821792253E+02 -0.83409352564E+01  0.40000000000E+02  0.47000000000E+01 0. -1.
         -5    1    3    3    0  501  0.10987471427E+01  0.38821792253E+02  0.83409352564E+01  0.40000000000E+02  0.47000000000E+01 0.  1.
</event>
<event>
 5    1  0.4833967E-001  0.8000000E+02  0.7546771E-02  0.1203772E+00
         11   -1    0    0    0    0  0.00000000000E+00  0.00000000000E+00  0.40000000000E+02  0.40000000000E+02  0.00000000000E+00 0. -1.
        -11   -1    0    0    0    0 -0.00000000000E+00 -0.00000000000E+00 -0.40000000000E+02  0.40000000000E+02  0.00000000000E+00 0.  1.
         23    2    1    2    0    0  0.00000000000E+00  0.00000000000E+00  0.00000000000E+00  0.80000000000E+02  0.80000000000E+02 0.  0.
          5    1    3    3  501    0  0.12295555119E+02 -0.37235928808E+02  0.63415242731E+01  0.40000000000E+02  0.47000000000E+01 0. -1.
         -5    1    3    3    0  501 -0.12295555119E+02  0.37235928808E+02 -0.63415242731E+01  0.40000000000E+02  0.47000000000E+01 0.  1.
</event>
<event>
 5    1  0.4833967E-001  0.8000000E+02  0.7546771E-02  0.1203772E+00
         11   -1    0    0    0    0  0.00000000000E+00  0.00000000000E+00  0.40000000000E+02  0.40000000000E+02  0.00000000000E+00 0.  1.
        -11   -1    0    0    0    0 -0.00000000000E+00 -0.00000000000E+00 -0.40000000000E+02  0.40000000000E+02  0.00000000000E+00 0. -1.
         23    2    1    2    0    0  0.00000000000E+00  0.00000000000E+00  0.00000000000E+00  0.80000000000E+02  0.80000000000E+02 0.  0.
          5    1    3    3  501    0  0.10563143911E+02 -0.25702207794E+02 -0.28385322004E+02  0.40000000000E+02  0.47000000000E+01 0. -1.
         -5    1    3    3    0  501 -0.10563143911E+02  0.25702207794E+02  0.28385322004E+02  0.40000000000E+02  0.47000000000E+01 0.  1.
</event>
<event>
 5    1  0.4833967E-001  0.8000000E+02  0.7546771E-02  0.1203772E+00
         11   -1    0    0    0    0  0.00000000000E+00  0.00000000000E+00  0.40000000000E+02  0.40000000000E+02  0.00000000000E+00 0.  1.
        -11   -1    0    0    0    0 -0.00000000000E+00 -0.00000000000E+00 -0.40000000000E+02  0.40000000000E+02  0.00000000000E+00 0. -1.
         23    2    1    2    0    0  0.00000000000E+00  0.00000000000E+00  0.00000000000E+00  0.80000000000E+02  0.80000000000E+02 0.  0.
          5    1    3    3  501    0  0.10802936924E+02  0.31962603287E+02 -0.20966605469E+02  0.40000000000E+02  0.47000000000E+01 0. -1.
         -5    1    3    3    0  501 -0.10802936924E+02 -0.31962603287E+02  0.20966605469E+02  0.40000000000E+02  0.47000000000E+01 0.  1.
</event>
<event>
 5    1  0.4833967E-001  0.8000000E+02  0.7546771E-02  0.1203772E+00
         11   -1    0    0    0    0  0.00000000000E+00  0.00000000000E+00  0.40000000000E+02  0.40000000000E+02  0.00000000000E+00 0.  1.
        -11   -1    0    0    0    0 -0.00000000000E+00 -0.00000000000E+00 -0.40000000000E+02  0.40000000000E+02  0.00000000000E+00 0. -1.
         23    2    1    2    0    0  0.00000000000E+00  0.00000000000E+00  0.00000000000E+00  0.80000000000E+02  0.80000000000E+02 0.  0.
          5    1    3    3  501    0 -0.30670250217E+01 -0.19253546277E+02 -0.34609309633E+02  0.40000000000E+02  0.47000000000E+01 0. -1.
         -5    1    3    3    0  501  0.30670250217E+01  0.19253546277E+02  0.34609309633E+02  0.40000000000E+02  0.47000000000E+01 0.  1.
</event>
<event>
 5    1  0.4833967E-001  0.8000000E+02  0.7546771E-02  0.1203772E+00
         11   -1    0    0    0    0  0.00000000000E+00  0.00000000000E+00  0.40000000000E+02  0.40000000000E+02  0.00000000000E+00 0.  1.
        -11   -1    0    0    0    0 -0.00000000000E+00 -0.00000000000E+00 -0.40000000000E+02  0.40000000000E+02  0.00000000000E+00 0. -1.
         23    2    1    2    0    0  0.00000000000E+00  0.00000000000E+00  0.00000000000E+00  0.80000000000E+02  0.80000000000E+02 0.  0.
          5    1    3    3  501    0  0.23215872616E+02 -0.16348724499E+02 -0.27778633262E+02  0.40000000000E+02  0.47000000000E+01 0. -1.
         -5    1    3    3    0  501 -0.23215872616E+02  0.16348724499E+02  0.27778633262E+02  0.40000000000E+02  0.47000000000E+01 0.  1.
</event>
<event>
 5    1  0.4833967E-001  0.8000000E+02  0.7546771E-02  0.1203772E+00
         11   -1    0    0    0    0  0.00000000000E+00  0.00000000000E+00  0.40000000000E+02  0.40000000000E+02  0.00000000000E+00 0.  1.
        -11   -1    0    0    0    0 -0.00000000000E+00 -0.00000000000E+00 -0.40000000000E+02  0.40000000000E+02  0.00000000000E+00 0. -1.
         23    2    1    2    0    0  0.00000000000E+00  0.00000000000E+00  0.00000000000E+00  0.80000000000E+02  0.80000000000E+02 0.  0.
          5    1    3    3  501    0  0.13296135229E+02  0.40227244709E+01 -0.37214788402E+02  0.40000000000E+02  0.47000000000E+01 0. -1.
         -5    1    3    3    0  501 -0.13296135229E+02 -0.40227244709E+01  0.37214788402E+02  0.40000000000E+02  0.47000000000E+01 0.  1.
</event>
<event>
 5    1  0.4833967E-001  0.8000000E+02  0.7546771E-02  0.1203772E+00
         11   -1    0    0    0    0  0.00000000000E+00  0.00000000000E+00  0.40000000000E+02  0.40000000000E+02  0.00000000000E+00 0.  1.
        -11   -1    0    0    0    0 -0.00000000000E+00 -0.00000000000E+00 -0.40000000000E+02  0.40000000000E+02  0.00000000000E+00 0. -1.
         23    2    1    2    0    0  0.00000000000E+00  0.00000000000E+00  0.00000000000E+00  0.80000000000E+02  0.80000000000E+02 0.  0.
          5    1    3    3  501    0  0.28755464867E+02  0.27117429806E+02 -0.39595758653E+01  0.40000000000E+02  0.47000000000E+01 0. -1.
         -5    1    3    3    0  501 -0.28755464867E+02 -0.27117429806E+02  0.39595758653E+01  0.40000000000E+02  0.47000000000E+01 0.  1.
</event>
<event>
 5    1  0.4833967E-001  0.8000000E+02  0.7546771E-02  0.1203772E+00
         11   -1    0    0    0    0  0.00000000000E+00  0.00000000000E+00  0.40000000000E+02  0.40000000000E+02  0.00000000000E+00 0.  1.
        -11   -1    0    0    0    0 -0.00000000000E+00 -0.00000000000E+00 -0.40000000000E+02  0.40000000000E+02  0.00000000000E+00 0. -1.
         23    2    1    2    0    0  0.00000000000E+00  0.00000000000E+00  0.00000000000E+00  0.80000000000E+02  0.80000000000E+02 0.  0.
          5    1    3    3  501    0  0.13818646586E+01  0.37809359785E+02 -0.12101766925E+02  0.40000000000E+02  0.47000000000E+01 0. -1.
         -5    1    3    3    0  501 -0.13818646586E+01 -0.37809359785E+02  0.12101766925E+02  0.40000000000E+02  0.47000000000E+01 0.  1.
</event>
<event>
 5    1  0.4833967E-001  0.8000000E+02  0.7546771E-02  0.1203772E+00
         11   -1    0    0    0    0  0.00000000000E+00  0.00000000000E+00  0.40000000000E+02  0.40000000000E+02  0.00000000000E+00 0.  1.
        -11   -1    0    0    0    0 -0.00000000000E+00 -0.00000000000E+00 -0.40000000000E+02  0.40000000000E+02  0.00000000000E+00 0. -1.
         23    2    1    2    0    0  0.00000000000E+00  0.00000000000E+00  0.00000000000E+00  0.80000000000E+02  0.80000000000E+02 0.  0.
          5    1    3    3  501    0 -0.23286669024E+02 -0.44844489500E+01 -0.31867393420E+02  0.40000000000E+02  0.47000000000E+01 0. -1.
         -5    1    3    3    0  501  0.23286669024E+02  0.44844489500E+01  0.31867393420E+02  0.40000000000E+02  0.47000000000E+01 0.  1.
</event>
<event>
 5    1  0.4833967E-001  0.8000000E+02  0.7546771E-02  0.1203772E+00
         11   -1    0    0    0    0  0.00000000000E+00  0.00000000000E+00  0.40000000000E+02  0.40000000000E+02  0.00000000000E+00 0. -1.
        -11   -1    0    0    0    0 -0.00000000000E+00 -0.00000000000E+00 -0.40000000000E+02  0.40000000000E+02  0.00000000000E+00 0.  1.
         23    2    1    2    0    0  0.00000000000E+00  0.00000000000E+00  0.00000000000E+00  0.80000000000E+02  0.80000000000E+02 0.  0.
          5    1    3    3  501    0  0.24953498233E+02 -0.28115105022E+02  0.12836424560E+02  0.40000000000E+02  0.47000000000E+01 0. -1.
         -5    1    3    3    0  501 -0.24953498233E+02  0.28115105022E+02 -0.12836424560E+02  0.40000000000E+02  0.47000000000E+01 0.  1.
</event>
<event>
 5    1  0.4833967E-001  0.8000000E+02  0.7546771E-02  0.1203772E+00
         11   -1    0    0    0    0  0.00000000000E+00  0.00000000000E+00  0.40000000000E+02  0.40000000000E+02  0.00000000000E+00 0. -1.
        -11   -1    0    0    0    0 -0.00000000000E+00 -0.00000000000E+00 -0.40000000000E+02  0.40000000000E+02  0.00000000000E+00 0.  1.
         23    2    1    2    0    0  0.00000000000E+00  0.00000000000E+00  0.00000000000E+00  0.80000000000E+02  0.80000000000E+02 0.  0.
          5    1    3    3  501    0  0.39710140954E+01  0.41459572985E+01  0.39305878506E+02  0.40000000000E+02  0.47000000000E+01 0. -1.
         -5    1    3    3    0  501 -0.39710140954E+01 -0.41459572985E+01 -0.39305878506E+02  0.40000000000E+02  0.47000000000E+01 0.  1.
</event>
<event>
 5    1  0.4833967E-001  0.8000000E+02  0.7546771E-02  0.1203772E+00
         11   -1    0    0    0    0  0.00000000000E+00  0.00000000000E+00  0.40000000000E+02  0.40000000000E+02  0.00000000000E+00 0. -1.
        -11   -1    0    0    0    0 -0.00000000000E+00 -0.00000000000E+00 -0.40000000000E+02  0.40000000000E+02  0.00000000000E+00 0.  1.
         23    2    1    2    0    0  0.00000000000E+00  0.00000000000E+00  0.00000000000E+00  0.80000000000E+02  0.80000000000E+02 0.  0.
          5    1    3    3  501    0  0.14201820396E+02 -0.12280552418E+02  0.35005804229E+02  0.40000000000E+02  0.47000000000E+01 0. -1.
         -5    1    3    3    0  501 -0.14201820396E+02  0.12280552418E+02 -0.35005804229E+02  0.40000000000E+02  0.47000000000E+01 0.  1.
</event>
<event>
 5    1  0.4833967E-001  0.8000000E+02  0.7546771E-02  0.1203772E+00
         11   -1    0    0    0    0  0.00000000000E+00  0.00000000000E+00  0.40000000000E+02  0.40000000000E+02  0.00000000000E+00 0. -1.
        -11   -1    0    0    0    0 -0.00000000000E+00 -0.00000000000E+00 -0.40000000000E+02  0.40000000000E+02  0.00000000000E+00 0.  1.
         23    2    1    2    0    0  0.00000000000E+00  0.00000000000E+00  0.00000000000E+00  0.80000000000E+02  0.80000000000E+02 0.  0.
          5    1    3    3  501    0  0.28249123811E+02 -0.75458361394E+01  0.26887866425E+02  0.40000000000E+02  0.47000000000E+01 0. -1.
         -5    1    3    3    0  501 -0.28249123811E+02  0.75458361394E+01 -0.26887866425E+02  0.40000000000E+02  0.47000000000E+01 0.  1.
</event>
<event>
 5    1  0.4833967E-001  0.8000000E+02  0.7546771E-02  0.1203772E+00
         11   -1    0    0    0    0  0.00000000000E+00  0.00000000000E+00  0.40000000000E+02  0.40000000000E+02  0.00000000000E+00 0.  1.
        -11   -1    0    0    0    0 -0.00000000000E+00 -0.00000000000E+00 -0.40000000000E+02  0.40000000000E+02  0.00000000000E+00 0. -1.
         23    2    1    2    0    0  0.00000000000E+00  0.00000000000E+00  0.00000000000E+00  0.80000000000E+02  0.80000000000E+02 0.  0.
          5    1    3    3  501    0 -0.27587074936E+02  0.25265488294E+02 -0.13361077717E+02  0.40000000000E+02  0.47000000000E+01 0. -1.
         -5    1    3    3    0  501  0.27587074936E+02 -0.25265488294E+02  0.13361077717E+02  0.40000000000E+02  0.47000000000E+01 0.  1.
</event>
<event>
 5    1  0.4833967E-001  0.8000000E+02  0.7546771E-02  0.1203772E+00
         11   -1    0    0    0    0  0.00000000000E+00  0.00000000000E+00  0.40000000000E+02  0.40000000000E+02  0.00000000000E+00 0.  1.
        -11   -1    0    0    0    0 -0.00000000000E+00 -0.00000000000E+00 -0.40000000000E+02  0.40000000000E+02  0.00000000000E+00 0. -1.
         23    2    1    2    0    0  0.00000000000E+00  0.00000000000E+00  0.00000000000E+00  0.80000000000E+02  0.80000000000E+02 0.  0.
          5    1    3    3  501    0 -0.65108204585E+01  0.38335339617E+02 -0.81191719645E+01  0.40000000000E+02  0.47000000000E+01 0. -1.
         -5    1    3    3    0  501  0.65108204585E+01 -0.38335339617E+02  0.81191719645E+01  0.40000000000E+02  0.47000000000E+01 0.  1.
</event>
<event>
 5    1  0.4833967E-001  0.8000000E+02  0.7546771E-02  0.1203772E+00
         11   -1    0    0    0    0  0.00000000000E+00  0.00000000000E+00  0.40000000000E+02  0.40000000000E+02  0.00000000000E+00 0. -1.
        -11   -1    0    0    0    0 -0.00000000000E+00 -0.00000000000E+00 -0.40000000000E+02  0.40000000000E+02  0.00000000000E+00 0.  1.
         23    2    1    2    0    0  0.00000000000E+00  0.00000000000E+00  0.00000000000E+00  0.80000000000E+02  0.80000000000E+02 0.  0.
          5    1    3    3  501    0 -0.10298964137E+01  0.27353583526E+02 -0.28785947642E+02  0.40000000000E+02  0.47000000000E+01 0. -1.
         -5    1    3    3    0  501  0.10298964137E+01 -0.27353583526E+02  0.28785947642E+02  0.40000000000E+02  0.47000000000E+01 0.  1.
</event>
<event>
 5    1  0.4833967E-001  0.8000000E+02  0.7546771E-02  0.1203772E+00
         11   -1    0    0    0    0  0.00000000000E+00  0.00000000000E+00  0.40000000000E+02  0.40000000000E+02  0.00000000000E+00 0.  1.
        -11   -1    0    0    0    0 -0.00000000000E+00 -0.00000000000E+00 -0.40000000000E+02  0.40000000000E+02  0.00000000000E+00 0. -1.
         23    2    1    2    0    0  0.00000000000E+00  0.00000000000E+00  0.00000000000E+00  0.80000000000E+02  0.80000000000E+02 0.  0.
          5    1    3    3  501    0 -0.24558334183E+02 -0.23944252594E+02 -0.20036741000E+02  0.40000000000E+02  0.47000000000E+01 0. -1.
         -5    1    3    3    0  501  0.24558334183E+02  0.23944252594E+02  0.20036741000E+02  0.40000000000E+02  0.47000000000E+01 0.  1.
</event>
<event>
 5    1  0.4833967E-001  0.8000000E+02  0.7546771E-02  0.1203772E+00
         11   -1    0    0    0    0  0.00000000000E+00  0.00000000000E+00  0.40000000000E+02  0.40000000000E+02  0.00000000000E+00 0. -1.
        -11   -1    0    0    0    0 -0.00000000000E+00 -0.00000000000E+00 -0.40000000000E+02  0.40000000000E+02  0.00000000000E+00 0.  1.
         23    2    1    2    0    0  0.00000000000E+00  0.00000000000E+00  0.00000000000E+00  0.80000000000E+02  0.80000000000E+02 0.  0.
          5    1    3    3  501    0  0.12112245920E+01 -0.28199311548E+02  0.27950702374E+02  0.40000000000E+02  0.47000000000E+01 0. -1.
         -5    1    3    3    0  501 -0.12112245920E+01  0.28199311548E+02 -0.27950702374E+02  0.40000000000E+02  0.47000000000E+01 0.  1.
</event>
<event>
 5    1  0.4833967E-001  0.8000000E+02  0.7546771E-02  0.1203772E+00
         11   -1    0    0    0    0  0.00000000000E+00  0.00000000000E+00  0.40000000000E+02  0.40000000000E+02  0.00000000000E+00 0. -1.
        -11   -1    0    0    0    0 -0.00000000000E+00 -0.00000000000E+00 -0.40000000000E+02  0.40000000000E+02  0.00000000000E+00 0.  1.
         23    2    1    2    0    0  0.00000000000E+00  0.00000000000E+00  0.00000000000E+00  0.80000000000E+02  0.80000000000E+02 0.  0.
          5    1    3    3  501    0 -0.50188085287E+01  0.12556453439E+02  0.37350462353E+02  0.40000000000E+02  0.47000000000E+01 0. -1.
         -5    1    3    3    0  501  0.50188085287E+01 -0.12556453439E+02 -0.37350462353E+02  0.40000000000E+02  0.47000000000E+01 0.  1.
</event>
<event>
 5    1  0.4833967E-001  0.8000000E+02  0.7546771E-02  0.1203772E+00
         11   -1    0    0    0    0  0.00000000000E+00  0.00000000000E+00  0.40000000000E+02  0.40000000000E+02  0.00000000000E+00 0. -1.
        -11   -1    0    0    0    0 -0.00000000000E+00 -0.00000000000E+00 -0.40000000000E+02  0.40000000000E+02  0.00000000000E+00 0.  1.
         23    2    1    2    0    0  0.00000000000E+00  0.00000000000E+00  0.00000000000E+00  0.80000000000E+02  0.80000000000E+02 0.  0.
          5    1    3    3  501    0  0.30200559461E+02 -0.19501970789E+02 -0.16897021737E+02  0.40000000000E+02  0.47000000000E+01 0. -1.
         -5    1    3    3    0  501 -0.30200559461E+02  0.19501970789E+02  0.16897021737E+02  0.40000000000E+02  0.47000000000E+01 0.  1.
</event>
<event>
 5    1  0.4833967E-001  0.8000000E+02  0.7546771E-02  0.1203772E+00
         11   -1    0    0    0    0  0.00000000000E+00  0.00000000000E+00  0.40000000000E+02  0.40000000000E+02  0.00000000000E+00 0. -1.
        -11   -1    0    0    0    0 -0.00000000000E+00 -0.00000000000E+00 -0.40000000000E+02  0.40000000000E+02  0.00000000000E+00 0.  1.
         23    2    1    2    0    0  0.00000000000E+00  0.00000000000E+00  0.00000000000E+00  0.80000000000E+02  0.80000000000E+02 0.  0.
          5    1    3    3  501    0  0.38501669449E+02 -0.91929593272E+01  0.33197813868E+01  0.40000000000E+02  0.47000000000E+01 0. -1.
         -5    1    3    3    0  501 -0.38501669449E+02  0.91929593272E+01 -0.33197813868E+01  0.40000000000E+02  0.47000000000E+01 0.  1.
</event>
<event>
 5    1  0.4833967E-001  0.8000000E+02  0.7546771E-02  0.1203772E+00
         11   -1    0    0    0    0  0.00000000000E+00  0.00000000000E+00  0.40000000000E+02  0.40000000000E+02  0.00000000000E+00 0. -1.
        -11   -1    0    0    0    0 -0.00000000000E+00 -0.00000000000E+00 -0.40000000000E+02  0.40000000000E+02  0.00000000000E+00 0.  1.
         23    2    1    2    0    0  0.00000000000E+00  0.00000000000E+00  0.00000000000E+00  0.80000000000E+02  0.80000000000E+02 0.  0.
          5    1    3    3  501    0  0.13031541639E+02  0.21486454228E+02  0.30763959551E+02  0.40000000000E+02  0.47000000000E+01 0. -1.
         -5    1    3    3    0  501 -0.13031541639E+02 -0.21486454228E+02 -0.30763959551E+02  0.40000000000E+02  0.47000000000E+01 0.  1.
</event>
<event>
 5    1  0.4833967E-001  0.8000000E+02  0.7546771E-02  0.1203772E+00
         11   -1    0    0    0    0  0.00000000000E+00  0.00000000000E+00  0.40000000000E+02  0.40000000000E+02  0.00000000000E+00 0. -1.
        -11   -1    0    0    0    0 -0.00000000000E+00 -0.00000000000E+00 -0.40000000000E+02  0.40000000000E+02  0.00000000000E+00 0.  1.
         23    2    1    2    0    0  0.00000000000E+00  0.00000000000E+00  0.00000000000E+00  0.80000000000E+02  0.80000000000E+02 0.  0.
          5    1    3    3  501    0 -0.41533119386E+01 -0.77053661083E+01  0.38746449296E+02  0.40000000000E+02  0.47000000000E+01 0. -1.
         -5    1    3    3    0  501  0.41533119386E+01  0.77053661083E+01 -0.38746449296E+02  0.40000000000E+02  0.47000000000E+01 0.  1.
</event>
<event>
 5    1  0.4833967E-001  0.8000000E+02  0.7546771E-02  0.1203772E+00
         11   -1    0    0    0    0  0.00000000000E+00  0.00000000000E+00  0.40000000000E+02  0.40000000000E+02  0.00000000000E+00 0.  1.
        -11   -1    0    0    0    0 -0.00000000000E+00 -0.00000000000E+00 -0.40000000000E+02  0.40000000000E+02  0.00000000000E+00 0. -1.
         23    2    1    2    0    0  0.00000000000E+00  0.00000000000E+00  0.00000000000E+00  0.80000000000E+02  0.80000000000E+02 0.  0.
          5    1    3    3  501    0 -0.49662865228E+01  0.18052366939E+01 -0.39369875776E+02  0.40000000000E+02  0.47000000000E+01 0. -1.
         -5    1    3    3    0  501  0.49662865228E+01 -0.18052366939E+01  0.39369875776E+02  0.40000000000E+02  0.47000000000E+01 0.  1.
</event>
<event>
 5    1  0.4833967E-001  0.8000000E+02  0.7546771E-02  0.1203772E+00
         11   -1    0    0    0    0  0.00000000000E+00  0.00000000000E+00  0.40000000000E+02  0.40000000000E+02  0.00000000000E+00 0.  1.
        -11   -1    0    0    0    0 -0.00000000000E+00 -0.00000000000E+00 -0.40000000000E+02  0.40000000000E+02  0.00000000000E+00 0. -1.
         23    2    1    2    0    0  0.00000000000E+00  0.00000000000E+00  0.00000000000E+00  0.80000000000E+02  0.80000000000E+02 0.  0.
          5    1    3    3  501    0  0.21823954757E+02  0.16970646650E+00 -0.33190302778E+02  0.40000000000E+02  0.47000000000E+01 0. -1.
         -5    1    3    3    0  501 -0.21823954757E+02 -0.16970646650E+00  0.33190302778E+02  0.40000000000E+02  0.47000000000E+01 0.  1.
</event>
<event>
 5    1  0.4833967E-001  0.8000000E+02  0.7546771E-02  0.1203772E+00
         11   -1    0    0    0    0  0.00000000000E+00  0.00000000000E+00  0.40000000000E+02  0.40000000000E+02  0.00000000000E+00 0. -1.
        -11   -1    0    0    0    0 -0.00000000000E+00 -0.00000000000E+00 -0.40000000000E+02  0.40000000000E+02  0.00000000000E+00 0.  1.
         23    2    1    2    0    0  0.00000000000E+00  0.00000000000E+00  0.00000000000E+00  0.80000000000E+02  0.80000000000E+02 0.  0.
          5    1    3    3  501    0 -0.93739958161E+01  0.26350830143E+02  0.28207657705E+02  0.40000000000E+02  0.47000000000E+01 0. -1.
         -5    1    3    3    0  501  0.93739958161E+01 -0.26350830143E+02 -0.28207657705E+02  0.40000000000E+02  0.47000000000E+01 0.  1.
</event>
<event>
 5    1  0.4833967E-001  0.8000000E+02  0.7546771E-02  0.1203772E+00
         11   -1    0    0    0    0  0.00000000000E+00  0.00000000000E+00  0.40000000000E+02  0.40000000000E+02  0.00000000000E+00 0.  1.
        -11   -1    0    0    0    0 -0.00000000000E+00 -0.00000000000E+00 -0.40000000000E+02  0.40000000000E+02  0.00000000000E+00 0. -1.
         23    2    1    2    0    0  0.00000000000E+00  0.00000000000E+00  0.00000000000E+00  0.80000000000E+02  0.80000000000E+02 0.  0.
          5    1    3    3  501    0 -0.12031003508E+02 -0.22230343962E+02 -0.30642727717E+02  0.40000000000E+02  0.47000000000E+01 0. -1.
         -5    1    3    3    0  501  0.12031003508E+02  0.22230343962E+02  0.30642727717E+02  0.40000000000E+02  0.47000000000E+01 0.  1.
</event>
<event>
 5    1  0.4833967E-001  0.8000000E+02  0.7546771E-02  0.1203772E+00
         11   -1    0    0    0    0  0.00000000000E+00  0.00000000000E+00  0.40000000000E+02  0.40000000000E+02  0.00000000000E+00 0.  1.
        -11   -1    0    0    0    0 -0.00000000000E+00 -0.00000000000E+00 -0.40000000000E+02  0.40000000000E+02  0.00000000000E+00 0. -1.
         23    2    1    2    0    0  0.00000000000E+00  0.00000000000E+00  0.00000000000E+00  0.80000000000E+02  0.80000000000E+02 0.  0.
          5    1    3    3  501    0  0.23580505328E+02  0.15413848912E+02 -0.28005053655E+02  0.40000000000E+02  0.47000000000E+01 0. -1.
         -5    1    3    3    0  501 -0.23580505328E+02 -0.15413848912E+02  0.28005053655E+02  0.40000000000E+02  0.47000000000E+01 0.  1.
</event>
<event>
 5    1  0.4833967E-001  0.8000000E+02  0.7546771E-02  0.1203772E+00
         11   -1    0    0    0    0  0.00000000000E+00  0.00000000000E+00  0.40000000000E+02  0.40000000000E+02  0.00000000000E+00 0. -1.
        -11   -1    0    0    0    0 -0.00000000000E+00 -0.00000000000E+00 -0.40000000000E+02  0.40000000000E+02  0.00000000000E+00 0.  1.
         23    2    1    2    0    0  0.00000000000E+00  0.00000000000E+00  0.00000000000E+00  0.80000000000E+02  0.80000000000E+02 0.  0.
          5    1    3    3  501    0 -0.13927565869E+02 -0.22307512154E+02  0.29770922231E+02  0.40000000000E+02  0.47000000000E+01 0. -1.
         -5    1    3    3    0  501  0.13927565869E+02  0.22307512154E+02 -0.29770922231E+02  0.40000000000E+02  0.47000000000E+01 0.  1.
</event>
<event>
 5    1  0.4833967E-001  0.8000000E+02  0.7546771E-02  0.1203772E+00
         11   -1    0    0    0    0  0.00000000000E+00  0.00000000000E+00  0.40000000000E+02  0.40000000000E+02  0.00000000000E+00 0.  1.
        -11   -1    0    0    0    0 -0.00000000000E+00 -0.00000000000E+00 -0.40000000000E+02  0.40000000000E+02  0.00000000000E+00 0. -1.
         23    2    1    2    0    0  0.00000000000E+00  0.00000000000E+00  0.00000000000E+00  0.80000000000E+02  0.80000000000E+02 0.  0.
          5    1    3    3  501    0  0.31709913972E+02  0.43657735241E+01 -0.23522996778E+02  0.40000000000E+02  0.47000000000E+01 0. -1.
         -5    1    3    3    0  501 -0.31709913972E+02 -0.43657735241E+01  0.23522996778E+02  0.40000000000E+02  0.47000000000E+01 0.  1.
</event>
<event>
 5    1  0.4833967E-001  0.8000000E+02  0.7546771E-02  0.1203772E+00
         11   -1    0    0    0    0  0.00000000000E+00  0.00000000000E+00  0.40000000000E+02  0.40000000000E+02  0.00000000000E+00 0.  1.
        -11   -1    0    0    0    0 -0.00000000000E+00 -0.00000000000E+00 -0.40000000000E+02  0.40000000000E+02  0.00000000000E+00 0. -1.
         23    2    1    2    0    0  0.00000000000E+00  0.00000000000E+00  0.00000000000E+00  0.80000000000E+02  0.80000000000E+02 0.  0.
          5    1    3    3  501    0  0.18299181152E+02 -0.23252017362E+02 -0.26502710385E+02  0.40000000000E+02  0.47000000000E+01 0. -1.
         -5    1    3    3    0  501 -0.18299181152E+02  0.23252017362E+02  0.26502710385E+02  0.40000000000E+02  0.47000000000E+01 0.  1.
</event>
<event>
 5    1  0.4833967E-001  0.8000000E+02  0.7546771E-02  0.1203772E+00
         11   -1    0    0    0    0  0.00000000000E+00  0.00000000000E+00  0.40000000000E+02  0.40000000000E+02  0.00000000000E+00 0. -1.
        -11   -1    0    0    0    0 -0.00000000000E+00 -0.00000000000E+00 -0.40000000000E+02  0.40000000000E+02  0.00000000000E+00 0.  1.
         23    2    1    2    0    0  0.00000000000E+00  0.00000000000E+00  0.00000000000E+00  0.80000000000E+02  0.80000000000E+02 0.  0.
          5    1    3    3  501    0  0.60244096720E+01  0.61982100006E+01  0.38771106263E+02  0.40000000000E+02  0.47000000000E+01 0. -1.
         -5    1    3    3    0  501 -0.60244096720E+01 -0.61982100006E+01 -0.38771106263E+02  0.40000000000E+02  0.47000000000E+01 0.  1.
</event>
<event>
 5    1  0.4833967E-001  0.8000000E+02  0.7546771E-02  0.1203772E+00
         11   -1    0    0    0    0  0.00000000000E+00  0.00000000000E+00  0.40000000000E+02  0.40000000000E+02  0.00000000000E+00 0.  1.
        -11   -1    0    0    0    0 -0.00000000000E+00 -0.00000000000E+00 -0.40000000000E+02  0.40000000000E+02  0.00000000000E+00 0. -1.
         23    2    1    2    0    0  0.00000000000E+00  0.00000000000E+00  0.00000000000E+00  0.80000000000E+02  0.80000000000E+02 0.  0.
          5    1    3    3  501    0 -0.15776988044E+01  0.16276629261E+02 -0.36200721076E+02  0.40000000000E+02  0.47000000000E+01 0. -1.
         -5    1    3    3    0  501  0.15776988044E+01 -0.16276629261E+02  0.36200721076E+02  0.40000000000E+02  0.47000000000E+01 0.  1.
</event>
<event>
 5    1  0.4833967E-001  0.8000000E+02  0.7546771E-02  0.1203772E+00
         11   -1    0    0    0    0  0.00000000000E+00  0.00000000000E+00  0.40000000000E+02  0.40000000000E+02  0.00000000000E+00 0.  1.
        -11   -1    0    0    0    0 -0.00000000000E+00 -0.00000000000E+00 -0.40000000000E+02  0.40000000000E+02  0.00000000000E+00 0. -1.
         23    2    1    2    0    0  0.00000000000E+00  0.00000000000E+00  0.00000000000E+00  0.80000000000E+02  0.80000000000E+02 0.  0.
          5    1    3    3  501    0  0.82458435152E+01 -0.27142893069E+02 -0.27806104016E+02  0.40000000000E+02  0.47000000000E+01 0. -1.
         -5    1    3    3    0  501 -0.82458435152E+01  0.27142893069E+02  0.27806104016E+02  0.40000000000E+02  0.47000000000E+01 0.  1.
</event>
<event>
 5    1  0.4833967E-001  0.8000000E+02  0.7546771E-02  0.1203772E+00
         11   -1    0    0    0    0  0.00000000000E+00  0.00000000000E+00  0.40000000000E+02  0.40000000000E+02  0.00000000000E+00 0. -1.
        -11   -1    0    0    0    0 -0.00000000000E+00 -0.00000000000E+00 -0.40000000000E+02  0.40000000000E+02  0.00000000000E+00 0.  1.
         23    2    1    2    0    0  0.00000000000E+00  0.00000000000E+00  0.00000000000E+00  0.80000000000E+02  0.80000000000E+02 0.  0.
          5    1    3    3  501    0 -0.15306160397E+02  0.25109201750E+01  0.36569478172E+02  0.40000000000E+02  0.47000000000E+01 0. -1.
         -5    1    3    3    0  501  0.15306160397E+02 -0.25109201750E+01 -0.36569478172E+02  0.40000000000E+02  0.47000000000E+01 0.  1.
</event>
<event>
 5    1  0.4833967E-001  0.8000000E+02  0.7546771E-02  0.1203772E+00
         11   -1    0    0    0    0  0.00000000000E+00  0.00000000000E+00  0.40000000000E+02  0.40000000000E+02  0.00000000000E+00 0.  1.
        -11   -1    0    0    0    0 -0.00000000000E+00 -0.00000000000E+00 -0.40000000000E+02  0.40000000000E+02  0.00000000000E+00 0. -1.
         23    2    1    2    0    0  0.00000000000E+00  0.00000000000E+00  0.00000000000E+00  0.80000000000E+02  0.80000000000E+02 0.  0.
          5    1    3    3  501    0  0.32579750618E+02 -0.11126978977E+02 -0.19815655137E+02  0.40000000000E+02  0.47000000000E+01 0. -1.
         -5    1    3    3    0  501 -0.32579750618E+02  0.11126978977E+02  0.19815655137E+02  0.40000000000E+02  0.47000000000E+01 0.  1.
</event>
<event>
 5    1  0.4833967E-001  0.8000000E+02  0.7546771E-02  0.1203772E+00
         11   -1    0    0    0    0  0.00000000000E+00  0.00000000000E+00  0.40000000000E+02  0.40000000000E+02  0.00000000000E+00 0. -1.
        -11   -1    0    0    0    0 -0.00000000000E+00 -0.00000000000E+00 -0.40000000000E+02  0.40000000000E+02  0.00000000000E+00 0.  1.
         23    2    1    2    0    0  0.00000000000E+00  0.00000000000E+00  0.00000000000E+00  0.80000000000E+02  0.80000000000E+02 0.  0.
          5    1    3    3  501    0 -0.36099207541E+02  0.15517332729E+02 -0.58283445247E+01  0.40000000000E+02  0.47000000000E+01 0. -1.
         -5    1    3    3    0  501  0.36099207541E+02 -0.15517332729E+02  0.58283445247E+01  0.40000000000E+02  0.47000000000E+01 0.  1.
</event>
<event>
 5    1  0.4833967E-001  0.8000000E+02  0.7546771E-02  0.1203772E+00
         11   -1    0    0    0    0  0.00000000000E+00  0.00000000000E+00  0.40000000000E+02  0.40000000000E+02  0.00000000000E+00 0.  1.
        -11   -1    0    0    0    0 -0.00000000000E+00 -0.00000000000E+00 -0.40000000000E+02  0.40000000000E+02  0.00000000000E+00 0. -1.
         23    2    1    2    0    0  0.00000000000E+00  0.00000000000E+00  0.00000000000E+00  0.80000000000E+02  0.80000000000E+02 0.  0.
          5    1    3    3  501    0  0.56990120224E+01 -0.34908969309E+02 -0.18077475592E+02  0.40000000000E+02  0.47000000000E+01 0. -1.
         -5    1    3    3    0  501 -0.56990120224E+01  0.34908969309E+02  0.18077475592E+02  0.40000000000E+02  0.47000000000E+01 0.  1.
</event>
<event>
 5    1  0.4833967E-001  0.8000000E+02  0.7546771E-02  0.1203772E+00
         11   -1    0    0    0    0  0.00000000000E+00  0.00000000000E+00  0.40000000000E+02  0.40000000000E+02  0.00000000000E+00 0.  1.
        -11   -1    0    0    0    0 -0.00000000000E+00 -0.00000000000E+00 -0.40000000000E+02  0.40000000000E+02  0.00000000000E+00 0. -1.
         23    2    1    2    0    0  0.00000000000E+00  0.00000000000E+00  0.00000000000E+00  0.80000000000E+02  0.80000000000E+02 0.  0.
          5    1    3    3  501    0  0.25172561722E+02 -0.67409483746E+01 -0.29980189315E+02  0.40000000000E+02  0.47000000000E+01 0. -1.
         -5    1    3    3    0  501 -0.25172561722E+02  0.67409483746E+01  0.29980189315E+02  0.40000000000E+02  0.47000000000E+01 0.  1.
</event>
<event>
 5    1  0.4833967E-001  0.8000000E+02  0.7546771E-02  0.1203772E+00
         11   -1    0    0    0    0  0.00000000000E+00  0.00000000000E+00  0.40000000000E+02  0.40000000000E+02  0.00000000000E+00 0.  1.
        -11   -1    0    0    0    0 -0.00000000000E+00 -0.00000000000E+00 -0.40000000000E+02  0.40000000000E+02  0.00000000000E+00 0. -1.
         23    2    1    2    0    0  0.00000000000E+00  0.00000000000E+00  0.00000000000E+00  0.80000000000E+02  0.80000000000E+02 0.  0.
          5    1    3    3  501    0  0.12678410717E+02 -0.92960979366E+01 -0.36479452639E+02  0.40000000000E+02  0.47000000000E+01 0. -1.
         -5    1    3    3    0  501 -0.12678410717E+02  0.92960979366E+01  0.36479452639E+02  0.40000000000E+02  0.47000000000E+01 0.  1.
</event>
<event>
 5    1  0.4833967E-001  0.8000000E+02  0.7546771E-02  0.1203772E+00
         11   -1    0    0    0    0  0.00000000000E+00  0.00000000000E+00  0.40000000000E+02  0.40000000000E+02  0.00000000000E+00 0.  1.
        -11   -1    0    0    0    0 -0.00000000000E+00 -0.00000000000E+00 -0.40000000000E+02  0.40000000000E+02  0.00000000000E+00 0. -1.
         23    2    1    2    0    0  0.00000000000E+00  0.00000000000E+00  0.00000000000E+00  0.80000000000E+02  0.80000000000E+02 0.  0.
          5    1    3    3  501    0  0.41224482970E+01 -0.39110846017E+02  0.55908088748E+01  0.40000000000E+02  0.47000000000E+01 0. -1.
         -5    1    3    3    0  501 -0.41224482970E+01  0.39110846017E+02 -0.55908088748E+01  0.40000000000E+02  0.47000000000E+01 0.  1.
</event>
<event>
 5    1  0.4833967E-001  0.8000000E+02  0.7546771E-02  0.1203772E+00
         11   -1    0    0    0    0  0.00000000000E+00  0.00000000000E+00  0.40000000000E+02  0.40000000000E+02  0.00000000000E+00 0. -1.
        -11   -1    0    0    0    0 -0.00000000000E+00 -0.00000000000E+00 -0.40000000000E+02  0.40000000000E+02  0.00000000000E+00 0.  1.
         23    2    1    2    0    0  0.00000000000E+00  0.00000000000E+00  0.00000000000E+00  0.80000000000E+02  0.80000000000E+02 0.  0.
          5    1    3    3  501    0 -0.33822646961E+02 -0.16099672408E+01  0.20768884371E+02  0.40000000000E+02  0.47000000000E+01 0. -1.
         -5    1    3    3    0  501  0.33822646961E+02  0.16099672408E+01 -0.20768884371E+02  0.40000000000E+02  0.47000000000E+01 0.  1.
</event>
<event>
 5    1  0.4833967E-001  0.8000000E+02  0.7546771E-02  0.1203772E+00
         11   -1    0    0    0    0  0.00000000000E+00  0.00000000000E+00  0.40000000000E+02  0.40000000000E+02  0.00000000000E+00 0. -1.
        -11   -1    0    0    0    0 -0.00000000000E+00 -0.00000000000E+00 -0.40000000000E+02  0.40000000000E+02  0.00000000000E+00 0.  1.
         23    2    1    2    0    0  0.00000000000E+00  0.00000000000E+00  0.00000000000E+00  0.80000000000E+02  0.80000000000E+02 0.  0.
          5    1    3    3  501    0  0.24804541567E+02 -0.15053010210E+02  0.27130270940E+02  0.40000000000E+02  0.47000000000E+01 0. -1.
         -5    1    3    3    0  501 -0.24804541567E+02  0.15053010210E+02 -0.27130270940E+02  0.40000000000E+02  0.47000000000E+01 0.  1.
</event>
<event>
 5    1  0.4833967E-001  0.8000000E+02  0.7546771E-02  0.1203772E+00
         11   -1    0    0    0    0  0.00000000000E+00  0.00000000000E+00  0.40000000000E+02  0.40000000000E+02  0.00000000000E+00 0. -1.
        -11   -1    0    0    0    0 -0.00000000000E+00 -0.00000000000E+00 -0.40000000000E+02  0.40000000000E+02  0.00000000000E+00 0.  1.
         23    2    1    2    0    0  0.00000000000E+00  0.00000000000E+00  0.00000000000E+00  0.80000000000E+02  0.80000000000E+02 0.  0.
          5    1    3    3  501    0 -0.48767572193E+01 -0.94324738505E+01 -0.38277351999E+02  0.40000000000E+02  0.47000000000E+01 0.  1.
         -5    1    3    3    0  501  0.48767572193E+01  0.94324738505E+01  0.38277351999E+02  0.40000000000E+02  0.47000000000E+01 0. -1.
</event>
<event>
 5    1  0.4833967E-001  0.8000000E+02  0.7546771E-02  0.1203772E+00
         11   -1    0    0    0    0  0.00000000000E+00  0.00000000000E+00  0.40000000000E+02  0.40000000000E+02  0.00000000000E+00 0. -1.
        -11   -1    0    0    0    0 -0.00000000000E+00 -0.00000000000E+00 -0.40000000000E+02  0.40000000000E+02  0.00000000000E+00 0.  1.
         23    2    1    2    0    0  0.00000000000E+00  0.00000000000E+00  0.00000000000E+00  0.80000000000E+02  0.80000000000E+02 0.  0.
          5    1    3    3  501    0 -0.21835498221E+02 -0.30703075925E+02  0.12587380434E+02  0.40000000000E+02  0.47000000000E+01 0. -1.
         -5    1    3    3    0  501  0.21835498221E+02  0.30703075925E+02 -0.12587380434E+02  0.40000000000E+02  0.47000000000E+01 0.  1.
</event>
<event>
 5    1  0.4833967E-001  0.8000000E+02  0.7546771E-02  0.1203772E+00
         11   -1    0    0    0    0  0.00000000000E+00  0.00000000000E+00  0.40000000000E+02  0.40000000000E+02  0.00000000000E+00 0.  1.
        -11   -1    0    0    0    0 -0.00000000000E+00 -0.00000000000E+00 -0.40000000000E+02  0.40000000000E+02  0.00000000000E+00 0. -1.
         23    2    1    2    0    0  0.00000000000E+00  0.00000000000E+00  0.00000000000E+00  0.80000000000E+02  0.80000000000E+02 0.  0.
          5    1    3    3  501    0  0.30167926392E+02  0.13243632410E+02 -0.22190367681E+02  0.40000000000E+02  0.47000000000E+01 0. -1.
         -5    1    3    3    0  501 -0.30167926392E+02 -0.13243632410E+02  0.22190367681E+02  0.40000000000E+02  0.47000000000E+01 0.  1.
</event>
<event>
 5    1  0.4833967E-001  0.8000000E+02  0.7546771E-02  0.1203772E+00
         11   -1    0    0    0    0  0.00000000000E+00  0.00000000000E+00  0.40000000000E+02  0.40000000000E+02  0.00000000000E+00 0.  1.
        -11   -1    0    0    0    0 -0.00000000000E+00 -0.00000000000E+00 -0.40000000000E+02  0.40000000000E+02  0.00000000000E+00 0. -1.
         23    2    1    2    0    0  0.00000000000E+00  0.00000000000E+00  0.00000000000E+00  0.80000000000E+02  0.80000000000E+02 0.  0.
          5    1    3    3  501    0 -0.22024923499E+02  0.87582759886E+01 -0.31876407366E+02  0.40000000000E+02  0.47000000000E+01 0. -1.
         -5    1    3    3    0  501  0.22024923499E+02 -0.87582759886E+01  0.31876407366E+02  0.40000000000E+02  0.47000000000E+01 0.  1.
</event>
<event>
 5    1  0.4833967E-001  0.8000000E+02  0.7546771E-02  0.1203772E+00
         11   -1    0    0    0    0  0.00000000000E+00  0.00000000000E+00  0.40000000000E+02  0.40000000000E+02  0.00000000000E+00 0. -1.
        -11   -1    0    0    0    0 -0.00000000000E+00 -0.00000000000E+00 -0.40000000000E+02  0.40000000000E+02  0.00000000000E+00 0.  1.
         23    2    1    2    0    0  0.00000000000E+00  0.00000000000E+00  0.00000000000E+00  0.80000000000E+02  0.80000000000E+02 0.  0.
          5    1    3    3  501    0  0.35113968557E+01  0.15697137215E+02  0.36320517279E+02  0.40000000000E+02  0.47000000000E+01 0. -1.
         -5    1    3    3    0  501 -0.35113968557E+01 -0.15697137215E+02 -0.36320517279E+02  0.40000000000E+02  0.47000000000E+01 0.  1.
</event>
<event>
 5    1  0.4833967E-001  0.8000000E+02  0.7546771E-02  0.1203772E+00
         11   -1    0    0    0    0  0.00000000000E+00  0.00000000000E+00  0.40000000000E+02  0.40000000000E+02  0.00000000000E+00 0.  1.
        -11   -1    0    0    0    0 -0.00000000000E+00 -0.00000000000E+00 -0.40000000000E+02  0.40000000000E+02  0.00000000000E+00 0. -1.
         23    2    1    2    0    0  0.00000000000E+00  0.00000000000E+00  0.00000000000E+00  0.80000000000E+02  0.80000000000E+02 0.  0.
          5    1    3    3  501    0  0.16688601334E+02  0.14002740649E+02 -0.33216318878E+02  0.40000000000E+02  0.47000000000E+01 0. -1.
         -5    1    3    3    0  501 -0.16688601334E+02 -0.14002740649E+02  0.33216318878E+02  0.40000000000E+02  0.47000000000E+01 0.  1.
</event>
<event>
 5    1  0.4833967E-001  0.8000000E+02  0.7546771E-02  0.1203772E+00
         11   -1    0    0    0    0  0.00000000000E+00  0.00000000000E+00  0.40000000000E+02  0.40000000000E+02  0.00000000000E+00 0.  1.
        -11   -1    0    0    0    0 -0.00000000000E+00 -0.00000000000E+00 -0.40000000000E+02  0.40000000000E+02  0.00000000000E+00 0. -1.
         23    2    1    2    0    0  0.00000000000E+00  0.00000000000E+00  0.00000000000E+00  0.80000000000E+02  0.80000000000E+02 0.  0.
          5    1    3    3  501    0 -0.33903632097E+01 -0.39545916808E+02 -0.15924512815E+01  0.40000000000E+02  0.47000000000E+01 0. -1.
         -5    1    3    3    0  501  0.33903632097E+01  0.39545916808E+02  0.15924512815E+01  0.40000000000E+02  0.47000000000E+01 0.  1.
</event>
<event>
 5    1  0.4833967E-001  0.8000000E+02  0.7546771E-02  0.1203772E+00
         11   -1    0    0    0    0  0.00000000000E+00  0.00000000000E+00  0.40000000000E+02  0.40000000000E+02  0.00000000000E+00 0. -1.
        -11   -1    0    0    0    0 -0.00000000000E+00 -0.00000000000E+00 -0.40000000000E+02  0.40000000000E+02  0.00000000000E+00 0.  1.
         23    2    1    2    0    0  0.00000000000E+00  0.00000000000E+00  0.00000000000E+00  0.80000000000E+02  0.80000000000E+02 0.  0.
          5    1    3    3  501    0  0.12714807780E+02 -0.85986732373E+01  0.36637501029E+02  0.40000000000E+02  0.47000000000E+01 0. -1.
         -5    1    3    3    0  501 -0.12714807780E+02  0.85986732373E+01 -0.36637501029E+02  0.40000000000E+02  0.47000000000E+01 0.  1.
</event>
<event>
 5    1  0.4833967E-001  0.8000000E+02  0.7546771E-02  0.1203772E+00
         11   -1    0    0    0    0  0.00000000000E+00  0.00000000000E+00  0.40000000000E+02  0.40000000000E+02  0.00000000000E+00 0.  1.
        -11   -1    0    0    0    0 -0.00000000000E+00 -0.00000000000E+00 -0.40000000000E+02  0.40000000000E+02  0.00000000000E+00 0. -1.
         23    2    1    2    0    0  0.00000000000E+00  0.00000000000E+00  0.00000000000E+00  0.80000000000E+02  0.80000000000E+02 0.  0.
          5    1    3    3  501    0 -0.16140045022E+02  0.19987509896E+02 -0.30297003067E+02  0.40000000000E+02  0.47000000000E+01 0. -1.
         -5    1    3    3    0  501  0.16140045022E+02 -0.19987509896E+02  0.30297003067E+02  0.40000000000E+02  0.47000000000E+01 0.  1.
</event>
<event>
 5    1  0.4833967E-001  0.8000000E+02  0.7546771E-02  0.1203772E+00
         11   -1    0    0    0    0  0.00000000000E+00  0.00000000000E+00  0.40000000000E+02  0.40000000000E+02  0.00000000000E+00 0.  1.
        -11   -1    0    0    0    0 -0.00000000000E+00 -0.00000000000E+00 -0.40000000000E+02  0.40000000000E+02  0.00000000000E+00 0. -1.
         23    2    1    2    0    0  0.00000000000E+00  0.00000000000E+00  0.00000000000E+00  0.80000000000E+02  0.80000000000E+02 0.  0.
          5    1    3    3  501    0 -0.33858888849E+02  0.14382344919E+02 -0.14987788381E+02  0.40000000000E+02  0.47000000000E+01 0. -1.
         -5    1    3    3    0  501  0.33858888849E+02 -0.14382344919E+02  0.14987788381E+02  0.40000000000E+02  0.47000000000E+01 0.  1.
</event>
<event>
 5    1  0.4833967E-001  0.8000000E+02  0.7546771E-02  0.1203772E+00
         11   -1    0    0    0    0  0.00000000000E+00  0.00000000000E+00  0.40000000000E+02  0.40000000000E+02  0.00000000000E+00 0. -1.
        -11   -1    0    0    0    0 -0.00000000000E+00 -0.00000000000E+00 -0.40000000000E+02  0.40000000000E+02  0.00000000000E+00 0.  1.
         23    2    1    2    0    0  0.00000000000E+00  0.00000000000E+00  0.00000000000E+00  0.80000000000E+02  0.80000000000E+02 0.  0.
          5    1    3    3  501    0 -0.59283432232E+01 -0.22675767078E+02 -0.32071394326E+02  0.40000000000E+02  0.47000000000E+01 0. -1.
         -5    1    3    3    0  501  0.59283432232E+01  0.22675767078E+02  0.32071394326E+02  0.40000000000E+02  0.47000000000E+01 0.  1.
</event>
<event>
 5    1  0.4833967E-001  0.8000000E+02  0.7546771E-02  0.1203772E+00
         11   -1    0    0    0    0  0.00000000000E+00  0.00000000000E+00  0.40000000000E+02  0.40000000000E+02  0.00000000000E+00 0. -1.
        -11   -1    0    0    0    0 -0.00000000000E+00 -0.00000000000E+00 -0.40000000000E+02  0.40000000000E+02  0.00000000000E+00 0.  1.
         23    2    1    2    0    0  0.00000000000E+00  0.00000000000E+00  0.00000000000E+00  0.80000000000E+02  0.80000000000E+02 0.  0.
          5    1    3    3  501    0  0.32391409171E+02 -0.46502857659E+01  0.22518469180E+02  0.40000000000E+02  0.47000000000E+01 0. -1.
         -5    1    3    3    0  501 -0.32391409171E+02  0.46502857659E+01 -0.22518469180E+02  0.40000000000E+02  0.47000000000E+01 0.  1.
</event>
<event>
 5    1  0.4833967E-001  0.8000000E+02  0.7546771E-02  0.1203772E+00
         11   -1    0    0    0    0  0.00000000000E+00  0.00000000000E+00  0.40000000000E+02  0.40000000000E+02  0.00000000000E+00 0.  1.
        -11   -1    0    0    0    0 -0.00000000000E+00 -0.00000000000E+00 -0.40000000000E+02  0.40000000000E+02  0.00000000000E+00 0. -1.
         23    2    1    2    0    0  0.00000000000E+00  0.00000000000E+00  0.00000000000E+00  0.80000000000E+02  0.80000000000E+02 0.  0.
          5    1    3    3  501    0 -0.35007297018E+02  0.86953261855E+00 -0.18752148371E+02  0.40000000000E+02  0.47000000000E+01 0. -1.
         -5    1    3    3    0  501  0.35007297018E+02 -0.86953261855E+00  0.18752148371E+02  0.40000000000E+02  0.47000000000E+01 0.  1.
</event>
<event>
 5    1  0.4833967E-001  0.8000000E+02  0.7546771E-02  0.1203772E+00
         11   -1    0    0    0    0  0.00000000000E+00  0.00000000000E+00  0.40000000000E+02  0.40000000000E+02  0.00000000000E+00 0.  1.
        -11   -1    0    0    0    0 -0.00000000000E+00 -0.00000000000E+00 -0.40000000000E+02  0.40000000000E+02  0.00000000000E+00 0. -1.
         23    2    1    2    0    0  0.00000000000E+00  0.00000000000E+00  0.00000000000E+00  0.80000000000E+02  0.80000000000E+02 0.  0.
          5    1    3    3  501    0  0.15139336639E+02 -0.34966317720E+02 -0.11227961134E+02  0.40000000000E+02  0.47000000000E+01 0. -1.
         -5    1    3    3    0  501 -0.15139336639E+02  0.34966317720E+02  0.11227961134E+02  0.40000000000E+02  0.47000000000E+01 0.  1.
</event>
<event>
 5    1  0.4833967E-001  0.8000000E+02  0.7546771E-02  0.1203772E+00
         11   -1    0    0    0    0  0.00000000000E+00  0.00000000000E+00  0.40000000000E+02  0.40000000000E+02  0.00000000000E+00 0.  1.
        -11   -1    0    0    0    0 -0.00000000000E+00 -0.00000000000E+00 -0.40000000000E+02  0.40000000000E+02  0.00000000000E+00 0. -1.
         23    2    1    2    0    0  0.00000000000E+00  0.00000000000E+00  0.00000000000E+00  0.80000000000E+02  0.80000000000E+02 0.  0.
          5    1    3    3  501    0  0.39192787814E+02  0.11887323559E+01 -0.63578533122E+01  0.40000000000E+02  0.47000000000E+01 0. -1.
         -5    1    3    3    0  501 -0.39192787814E+02 -0.11887323559E+01  0.63578533122E+01  0.40000000000E+02  0.47000000000E+01 0.  1.
</event>
<event>
 5    1  0.4833967E-001  0.8000000E+02  0.7546771E-02  0.1203772E+00
         11   -1    0    0    0    0  0.00000000000E+00  0.00000000000E+00  0.40000000000E+02  0.40000000000E+02  0.00000000000E+00 0. -1.
        -11   -1    0    0    0    0 -0.00000000000E+00 -0.00000000000E+00 -0.40000000000E+02  0.40000000000E+02  0.00000000000E+00 0.  1.
         23    2    1    2    0    0  0.00000000000E+00  0.00000000000E+00  0.00000000000E+00  0.80000000000E+02  0.80000000000E+02 0.  0.
          5    1    3    3  501    0  0.71046323298E+01 -0.22332166930E+02  0.32073486241E+02  0.40000000000E+02  0.47000000000E+01 0. -1.
         -5    1    3    3    0  501 -0.71046323298E+01  0.22332166930E+02 -0.32073486241E+02  0.40000000000E+02  0.47000000000E+01 0.  1.
</event>
<event>
 5    1  0.4833967E-001  0.8000000E+02  0.7546771E-02  0.1203772E+00
         11   -1    0    0    0    0  0.00000000000E+00  0.00000000000E+00  0.40000000000E+02  0.40000000000E+02  0.00000000000E+00 0. -1.
        -11   -1    0    0    0    0 -0.00000000000E+00 -0.00000000000E+00 -0.40000000000E+02  0.40000000000E+02  0.00000000000E+00 0.  1.
         23    2    1    2    0    0  0.00000000000E+00  0.00000000000E+00  0.00000000000E+00  0.80000000000E+02  0.80000000000E+02 0.  0.
          5    1    3    3  501    0  0.25076149573E+02 -0.30772901956E+02  0.14578161046E+01  0.40000000000E+02  0.47000000000E+01 0. -1.
         -5    1    3    3    0  501 -0.25076149573E+02  0.30772901956E+02 -0.14578161046E+01  0.40000000000E+02  0.47000000000E+01 0.  1.
</event>
<event>
 5    1  0.4833967E-001  0.8000000E+02  0.7546771E-02  0.1203772E+00
         11   -1    0    0    0    0  0.00000000000E+00  0.00000000000E+00  0.40000000000E+02  0.40000000000E+02  0.00000000000E+00 0. -1.
        -11   -1    0    0    0    0 -0.00000000000E+00 -0.00000000000E+00 -0.40000000000E+02  0.40000000000E+02  0.00000000000E+00 0.  1.
         23    2    1    2    0    0  0.00000000000E+00  0.00000000000E+00  0.00000000000E+00  0.80000000000E+02  0.80000000000E+02 0.  0.
          5    1    3    3  501    0  0.86001665119E+01 -0.77496582448E+01  0.37998551723E+02  0.40000000000E+02  0.47000000000E+01 0. -1.
         -5    1    3    3    0  501 -0.86001665119E+01  0.77496582448E+01 -0.37998551723E+02  0.40000000000E+02  0.47000000000E+01 0.  1.
</event>
<event>
 5    1  0.4833967E-001  0.8000000E+02  0.7546771E-02  0.1203772E+00
         11   -1    0    0    0    0  0.00000000000E+00  0.00000000000E+00  0.40000000000E+02  0.40000000000E+02  0.00000000000E+00 0.  1.
        -11   -1    0    0    0    0 -0.00000000000E+00 -0.00000000000E+00 -0.40000000000E+02  0.40000000000E+02  0.00000000000E+00 0. -1.
         23    2    1    2    0    0  0.00000000000E+00  0.00000000000E+00  0.00000000000E+00  0.80000000000E+02  0.80000000000E+02 0.  0.
          5    1    3    3  501    0 -0.30352712960E+02 -0.79526853978E+01 -0.24359343401E+02  0.40000000000E+02  0.47000000000E+01 0. -1.
         -5    1    3    3    0  501  0.30352712960E+02  0.79526853978E+01  0.24359343401E+02  0.40000000000E+02  0.47000000000E+01 0.  1.
</event>
<event>
 5    1  0.4833967E-001  0.8000000E+02  0.7546771E-02  0.1203772E+00
         11   -1    0    0    0    0  0.00000000000E+00  0.00000000000E+00  0.40000000000E+02  0.40000000000E+02  0.00000000000E+00 0. -1.
        -11   -1    0    0    0    0 -0.00000000000E+00 -0.00000000000E+00 -0.40000000000E+02  0.40000000000E+02  0.00000000000E+00 0.  1.
         23    2    1    2    0    0  0.00000000000E+00  0.00000000000E+00  0.00000000000E+00  0.80000000000E+02  0.80000000000E+02 0.  0.
          5    1    3    3  501    0  0.25934242610E+01  0.30395996275E+02  0.25441453595E+02  0.40000000000E+02  0.47000000000E+01 0. -1.
         -5    1    3    3    0  501 -0.25934242610E+01 -0.30395996275E+02 -0.25441453595E+02  0.40000000000E+02  0.47000000000E+01 0.  1.
</event>
<event>
 5    1  0.4833967E-001  0.8000000E+02  0.7546771E-02  0.1203772E+00
         11   -1    0    0    0    0  0.00000000000E+00  0.00000000000E+00  0.40000000000E+02  0.40000000000E+02  0.00000000000E+00 0. -1.
        -11   -1    0    0    0    0 -0.00000000000E+00 -0.00000000000E+00 -0.40000000000E+02  0.40000000000E+02  0.00000000000E+00 0.  1.
         23    2    1    2    0    0  0.00000000000E+00  0.00000000000E+00  0.00000000000E+00  0.80000000000E+02  0.80000000000E+02 0.  0.
          5    1    3    3  501    0  0.22695685556E+02 -0.26225673778E+02  0.19365688525E+02  0.40000000000E+02  0.47000000000E+01 0. -1.
         -5    1    3    3    0  501 -0.22695685556E+02  0.26225673778E+02 -0.19365688525E+02  0.40000000000E+02  0.47000000000E+01 0.  1.
</event>
<event>
 5    1  0.4833967E-001  0.8000000E+02  0.7546771E-02  0.1203772E+00
         11   -1    0    0    0    0  0.00000000000E+00  0.00000000000E+00  0.40000000000E+02  0.40000000000E+02  0.00000000000E+00 0. -1.
        -11   -1    0    0    0    0 -0.00000000000E+00 -0.00000000000E+00 -0.40000000000E+02  0.40000000000E+02  0.00000000000E+00 0.  1.
         23    2    1    2    0    0  0.00000000000E+00  0.00000000000E+00  0.00000000000E+00  0.80000000000E+02  0.80000000000E+02 0.  0.
          5    1    3    3  501    0  0.23602607799E+02  0.14908079877E+02  0.28259088086E+02  0.40000000000E+02  0.47000000000E+01 0. -1.
         -5    1    3    3    0  501 -0.23602607799E+02 -0.14908079877E+02 -0.28259088086E+02  0.40000000000E+02  0.47000000000E+01 0.  1.
</event>
<event>
 5    1  0.4833967E-001  0.8000000E+02  0.7546771E-02  0.1203772E+00
         11   -1    0    0    0    0  0.00000000000E+00  0.00000000000E+00  0.40000000000E+02  0.40000000000E+02  0.00000000000E+00 0.  1.
        -11   -1    0    0    0    0 -0.00000000000E+00 -0.00000000000E+00 -0.40000000000E+02  0.40000000000E+02  0.00000000000E+00 0. -1.
         23    2    1    2    0    0  0.00000000000E+00  0.00000000000E+00  0.00000000000E+00  0.80000000000E+02  0.80000000000E+02 0.  0.
          5    1    3    3  501    0  0.30343962883E+02 -0.28759764266E+01 -0.25473175620E+02  0.40000000000E+02  0.47000000000E+01 0. -1.
         -5    1    3    3    0  501 -0.30343962883E+02  0.28759764266E+01  0.25473175620E+02  0.40000000000E+02  0.47000000000E+01 0.  1.
</event>
<event>
 5    1  0.4833967E-001  0.8000000E+02  0.7546771E-02  0.1203772E+00
         11   -1    0    0    0    0  0.00000000000E+00  0.00000000000E+00  0.40000000000E+02  0.40000000000E+02  0.00000000000E+00 0.  1.
        -11   -1    0    0    0    0 -0.00000000000E+00 -0.00000000000E+00 -0.40000000000E+02  0.40000000000E+02  0.00000000000E+00 0. -1.
         23    2    1    2    0    0  0.00000000000E+00  0.00000000000E+00  0.00000000000E+00  0.80000000000E+02  0.80000000000E+02 0.  0.
          5    1    3    3  501    0 -0.36391773597E+02 -0.32865449832E+01 -0.15580354184E+02  0.40000000000E+02  0.47000000000E+01 0. -1.
         -5    1    3    3    0  501  0.36391773597E+02  0.32865449832E+01  0.15580354184E+02  0.40000000000E+02  0.47000000000E+01 0.  1.
</event>
<event>
 5    1  0.4833967E-001  0.8000000E+02  0.7546771E-02  0.1203772E+00
         11   -1    0    0    0    0  0.00000000000E+00  0.00000000000E+00  0.40000000000E+02  0.40000000000E+02  0.00000000000E+00 0. -1.
        -11   -1    0    0    0    0 -0.00000000000E+00 -0.00000000000E+00 -0.40000000000E+02  0.40000000000E+02  0.00000000000E+00 0.  1.
         23    2    1    2    0    0  0.00000000000E+00  0.00000000000E+00  0.00000000000E+00  0.80000000000E+02  0.80000000000E+02 0.  0.
          5    1    3    3  501    0 -0.21628362289E+02 -0.80239571165E+00 -0.33308859269E+02  0.40000000000E+02  0.47000000000E+01 0.  1.
         -5    1    3    3    0  501  0.21628362289E+02  0.80239571165E+00  0.33308859269E+02  0.40000000000E+02  0.47000000000E+01 0. -1.
</event>
<event>
 5    1  0.4833967E-001  0.8000000E+02  0.7546771E-02  0.1203772E+00
         11   -1    0    0    0    0  0.00000000000E+00  0.00000000000E+00  0.40000000000E+02  0.40000000000E+02  0.00000000000E+00 0. -1.
        -11   -1    0    0    0    0 -0.00000000000E+00 -0.00000000000E+00 -0.40000000000E+02  0.40000000000E+02  0.00000000000E+00 0.  1.
         23    2    1    2    0    0  0.00000000000E+00  0.00000000000E+00  0.00000000000E+00  0.80000000000E+02  0.80000000000E+02 0.  0.
          5    1    3    3  501    0 -0.19906548168E+01  0.24407078248E+02  0.31276857656E+02  0.40000000000E+02  0.47000000000E+01 0. -1.
         -5    1    3    3    0  501  0.19906548168E+01 -0.24407078248E+02 -0.31276857656E+02  0.40000000000E+02  0.47000000000E+01 0.  1.
</event>
<event>
 5    1  0.4833967E-001  0.8000000E+02  0.7546771E-02  0.1203772E+00
         11   -1    0    0    0    0  0.00000000000E+00  0.00000000000E+00  0.40000000000E+02  0.40000000000E+02  0.00000000000E+00 0.  1.
        -11   -1    0    0    0    0 -0.00000000000E+00 -0.00000000000E+00 -0.40000000000E+02  0.40000000000E+02  0.00000000000E+00 0. -1.
         23    2    1    2    0    0  0.00000000000E+00  0.00000000000E+00  0.00000000000E+00  0.80000000000E+02  0.80000000000E+02 0.  0.
          5    1    3    3  501    0  0.14033213287E+02  0.16339179869E+02 -0.33376790230E+02  0.40000000000E+02  0.47000000000E+01 0. -1.
         -5    1    3    3    0  501 -0.14033213287E+02 -0.16339179869E+02  0.33376790230E+02  0.40000000000E+02  0.47000000000E+01 0.  1.
</event>
<event>
 5    1  0.4833967E-001  0.8000000E+02  0.7546771E-02  0.1203772E+00
         11   -1    0    0    0    0  0.00000000000E+00  0.00000000000E+00  0.40000000000E+02  0.40000000000E+02  0.00000000000E+00 0. -1.
        -11   -1    0    0    0    0 -0.00000000000E+00 -0.00000000000E+00 -0.40000000000E+02  0.40000000000E+02  0.00000000000E+00 0.  1.
         23    2    1    2    0    0  0.00000000000E+00  0.00000000000E+00  0.00000000000E+00  0.80000000000E+02  0.80000000000E+02 0.  0.
          5    1    3    3  501    0  0.36247615397E+02 -0.16193112533E+02 -0.13429387653E+01  0.40000000000E+02  0.47000000000E+01 0. -1.
         -5    1    3    3    0  501 -0.36247615397E+02  0.16193112533E+02  0.13429387653E+01  0.40000000000E+02  0.47000000000E+01 0.  1.
</event>
<event>
 5    1  0.4833967E-001  0.8000000E+02  0.7546771E-02  0.1203772E+00
         11   -1    0    0    0    0  0.00000000000E+00  0.00000000000E+00  0.40000000000E+02  0.40000000000E+02  0.00000000000E+00 0.  1.
        -11   -1    0    0    0    0 -0.00000000000E+00 -0.00000000000E+00 -0.40000000000E+02  0.40000000000E+02  0.00000000000E+00 0. -1.
         23    2    1    2    0    0  0.00000000000E+00  0.00000000000E+00  0.00000000000E+00  0.80000000000E+02  0.80000000000E+02 0.  0.
          5    1    3    3  501    0 -0.50133585640E+01 -0.63916733173E+01 -0.38883450826E+02  0.40000000000E+02  0.47000000000E+01 0. -1.
         -5    1    3    3    0  501  0.50133585640E+01  0.63916733173E+01  0.38883450826E+02  0.40000000000E+02  0.47000000000E+01 0.  1.
</event>
<event>
 5    1  0.4833967E-001  0.8000000E+02  0.7546771E-02  0.1203772E+00
         11   -1    0    0    0    0  0.00000000000E+00  0.00000000000E+00  0.40000000000E+02  0.40000000000E+02  0.00000000000E+00 0. -1.
        -11   -1    0    0    0    0 -0.00000000000E+00 -0.00000000000E+00 -0.40000000000E+02  0.40000000000E+02  0.00000000000E+00 0.  1.
         23    2    1    2    0    0  0.00000000000E+00  0.00000000000E+00  0.00000000000E+00  0.80000000000E+02  0.80000000000E+02 0.  0.
          5    1    3    3  501    0 -0.21654573612E+02 -0.34423361082E+01  0.33123100154E+02  0.40000000000E+02  0.47000000000E+01 0. -1.
         -5    1    3    3    0  501  0.21654573612E+02  0.34423361082E+01 -0.33123100154E+02  0.40000000000E+02  0.47000000000E+01 0.  1.
</event>
<event>
 5    1  0.4833967E-001  0.8000000E+02  0.7546771E-02  0.1203772E+00
         11   -1    0    0    0    0  0.00000000000E+00  0.00000000000E+00  0.40000000000E+02  0.40000000000E+02  0.00000000000E+00 0. -1.
        -11   -1    0    0    0    0 -0.00000000000E+00 -0.00000000000E+00 -0.40000000000E+02  0.40000000000E+02  0.00000000000E+00 0.  1.
         23    2    1    2    0    0  0.00000000000E+00  0.00000000000E+00  0.00000000000E+00  0.80000000000E+02  0.80000000000E+02 0.  0.
          5    1    3    3  501    0 -0.13367003374E+02  0.43450051446E+01 -0.37153117650E+02  0.40000000000E+02  0.47000000000E+01 0.  1.
         -5    1    3    3    0  501  0.13367003374E+02 -0.43450051446E+01  0.37153117650E+02  0.40000000000E+02  0.47000000000E+01 0. -1.
</event>
<event>
 5    1  0.4833967E-001  0.8000000E+02  0.7546771E-02  0.1203772E+00
         11   -1    0    0    0    0  0.00000000000E+00  0.00000000000E+00  0.40000000000E+02  0.40000000000E+02  0.00000000000E+00 0. -1.
        -11   -1    0    0    0    0 -0.00000000000E+00 -0.00000000000E+00 -0.40000000000E+02  0.40000000000E+02  0.00000000000E+00 0.  1.
         23    2    1    2    0    0  0.00000000000E+00  0.00000000000E+00  0.00000000000E+00  0.80000000000E+02  0.80000000000E+02 0.  0.
          5    1    3    3  501    0  0.24382644806E+02  0.25160531032E+02 -0.18717486756E+02  0.40000000000E+02  0.47000000000E+01 0.  1.
         -5    1    3    3    0  501 -0.24382644806E+02 -0.25160531032E+02  0.18717486756E+02  0.40000000000E+02  0.47000000000E+01 0. -1.
</event>
<event>
 5    1  0.4833967E-001  0.8000000E+02  0.7546771E-02  0.1203772E+00
         11   -1    0    0    0    0  0.00000000000E+00  0.00000000000E+00  0.40000000000E+02  0.40000000000E+02  0.00000000000E+00 0. -1.
        -11   -1    0    0    0    0 -0.00000000000E+00 -0.00000000000E+00 -0.40000000000E+02  0.40000000000E+02  0.00000000000E+00 0.  1.
         23    2    1    2    0    0  0.00000000000E+00  0.00000000000E+00  0.00000000000E+00  0.80000000000E+02  0.80000000000E+02 0.  0.
          5    1    3    3  501    0  0.51364466769E+01 -0.14559808815E+02  0.36599711513E+02  0.40000000000E+02  0.47000000000E+01 0. -1.
         -5    1    3    3    0  501 -0.51364466769E+01  0.14559808815E+02 -0.36599711513E+02  0.40000000000E+02  0.47000000000E+01 0.  1.
</event>
<event>
 5    1  0.4833967E-001  0.8000000E+02  0.7546771E-02  0.1203772E+00
         11   -1    0    0    0    0  0.00000000000E+00  0.00000000000E+00  0.40000000000E+02  0.40000000000E+02  0.00000000000E+00 0.  1.
        -11   -1    0    0    0    0 -0.00000000000E+00 -0.00000000000E+00 -0.40000000000E+02  0.40000000000E+02  0.00000000000E+00 0. -1.
         23    2    1    2    0    0  0.00000000000E+00  0.00000000000E+00  0.00000000000E+00  0.80000000000E+02  0.80000000000E+02 0.  0.
          5    1    3    3  501    0 -0.22138523109E+02  0.32480959672E+02 -0.57256487305E+01  0.40000000000E+02  0.47000000000E+01 0. -1.
         -5    1    3    3    0  501  0.22138523109E+02 -0.32480959672E+02  0.57256487305E+01  0.40000000000E+02  0.47000000000E+01 0.  1.
</event>
<event>
 5    1  0.4833967E-001  0.8000000E+02  0.7546771E-02  0.1203772E+00
         11   -1    0    0    0    0  0.00000000000E+00  0.00000000000E+00  0.40000000000E+02  0.40000000000E+02  0.00000000000E+00 0.  1.
        -11   -1    0    0    0    0 -0.00000000000E+00 -0.00000000000E+00 -0.40000000000E+02  0.40000000000E+02  0.00000000000E+00 0. -1.
         23    2    1    2    0    0  0.00000000000E+00  0.00000000000E+00  0.00000000000E+00  0.80000000000E+02  0.80000000000E+02 0.  0.
          5    1    3    3  501    0 -0.30957859484E+02 -0.51453730280E+01 -0.24352537292E+02  0.40000000000E+02  0.47000000000E+01 0. -1.
         -5    1    3    3    0  501  0.30957859484E+02  0.51453730280E+01  0.24352537292E+02  0.40000000000E+02  0.47000000000E+01 0.  1.
</event>
<event>
 5    1  0.4833967E-001  0.8000000E+02  0.7546771E-02  0.1203772E+00
         11   -1    0    0    0    0  0.00000000000E+00  0.00000000000E+00  0.40000000000E+02  0.40000000000E+02  0.00000000000E+00 0.  1.
        -11   -1    0    0    0    0 -0.00000000000E+00 -0.00000000000E+00 -0.40000000000E+02  0.40000000000E+02  0.00000000000E+00 0. -1.
         23    2    1    2    0    0  0.00000000000E+00  0.00000000000E+00  0.00000000000E+00  0.80000000000E+02  0.80000000000E+02 0.  0.
          5    1    3    3  501    0  0.28472411374E+02  0.27221260548E+02  0.51219883566E+01  0.40000000000E+02  0.47000000000E+01 0. -1.
         -5    1    3    3    0  501 -0.28472411374E+02 -0.27221260548E+02 -0.51219883566E+01  0.40000000000E+02  0.47000000000E+01 0.  1.
</event>
<event>
 5    1  0.4833967E-001  0.8000000E+02  0.7546771E-02  0.1203772E+00
         11   -1    0    0    0    0  0.00000000000E+00  0.00000000000E+00  0.40000000000E+02  0.40000000000E+02  0.00000000000E+00 0. -1.
        -11   -1    0    0    0    0 -0.00000000000E+00 -0.00000000000E+00 -0.40000000000E+02  0.40000000000E+02  0.00000000000E+00 0.  1.
         23    2    1    2    0    0  0.00000000000E+00  0.00000000000E+00  0.00000000000E+00  0.80000000000E+02  0.80000000000E+02 0.  0.
          5    1    3    3  501    0  0.23451070987E+02  0.24645166270E+02  0.20507877733E+02  0.40000000000E+02  0.47000000000E+01 0. -1.
         -5    1    3    3    0  501 -0.23451070987E+02 -0.24645166270E+02 -0.20507877733E+02  0.40000000000E+02  0.47000000000E+01 0.  1.
</event>
<event>
 5    1  0.4833967E-001  0.8000000E+02  0.7546771E-02  0.1203772E+00
         11   -1    0    0    0    0  0.00000000000E+00  0.00000000000E+00  0.40000000000E+02  0.40000000000E+02  0.00000000000E+00 0. -1.
        -11   -1    0    0    0    0 -0.00000000000E+00 -0.00000000000E+00 -0.40000000000E+02  0.40000000000E+02  0.00000000000E+00 0.  1.
         23    2    1    2    0    0  0.00000000000E+00  0.00000000000E+00  0.00000000000E+00  0.80000000000E+02  0.80000000000E+02 0.  0.
          5    1    3    3  501    0  0.30343038669E+01 -0.39384837902E+02 -0.41877850278E+01  0.40000000000E+02  0.47000000000E+01 0. -1.
         -5    1    3    3    0  501 -0.30343038669E+01  0.39384837902E+02  0.41877850278E+01  0.40000000000E+02  0.47000000000E+01 0.  1.
</event>
<event>
 5    1  0.4833967E-001  0.8000000E+02  0.7546771E-02  0.1203772E+00
         11   -1    0    0    0    0  0.00000000000E+00  0.00000000000E+00  0.40000000000E+02  0.40000000000E+02  0.00000000000E+00 0. -1.
        -11   -1    0    0    0    0 -0.00000000000E+00 -0.00000000000E+00 -0.40000000000E+02  0.40000000000E+02  0.00000000000E+00 0.  1.
         23    2    1    2    0    0  0.00000000000E+00  0.00000000000E+00  0.00000000000E+00  0.80000000000E+02  0.80000000000E+02 0.  0.
          5    1    3    3  501    0 -0.14403984575E+02  0.19209801660E+02  0.31645201035E+02  0.40000000000E+02  0.47000000000E+01 0. -1.
         -5    1    3    3    0  501  0.14403984575E+02 -0.19209801660E+02 -0.31645201035E+02  0.40000000000E+02  0.47000000000E+01 0.  1.
</event>
<event>
 5    1  0.4833967E-001  0.8000000E+02  0.7546771E-02  0.1203772E+00
         11   -1    0    0    0    0  0.00000000000E+00  0.00000000000E+00  0.40000000000E+02  0.40000000000E+02  0.00000000000E+00 0.  1.
        -11   -1    0    0    0    0 -0.00000000000E+00 -0.00000000000E+00 -0.40000000000E+02  0.40000000000E+02  0.00000000000E+00 0. -1.
         23    2    1    2    0    0  0.00000000000E+00  0.00000000000E+00  0.00000000000E+00  0.80000000000E+02  0.80000000000E+02 0.  0.
          5    1    3    3  501    0 -0.10615451746E+02  0.33219151984E+02 -0.19018678337E+02  0.40000000000E+02  0.47000000000E+01 0. -1.
         -5    1    3    3    0  501  0.10615451746E+02 -0.33219151984E+02  0.19018678337E+02  0.40000000000E+02  0.47000000000E+01 0.  1.
</event>
<event>
 5    1  0.4833967E-001  0.8000000E+02  0.7546771E-02  0.1203772E+00
         11   -1    0    0    0    0  0.00000000000E+00  0.00000000000E+00  0.40000000000E+02  0.40000000000E+02  0.00000000000E+00 0. -1.
        -11   -1    0    0    0    0 -0.00000000000E+00 -0.00000000000E+00 -0.40000000000E+02  0.40000000000E+02  0.00000000000E+00 0.  1.
         23    2    1    2    0    0  0.00000000000E+00  0.00000000000E+00  0.00000000000E+00  0.80000000000E+02  0.80000000000E+02 0.  0.
          5    1    3    3  501    0 -0.24026174868E+01 -0.39011984731E+02  0.70853706006E+01  0.40000000000E+02  0.47000000000E+01 0. -1.
         -5    1    3    3    0  501  0.24026174868E+01  0.39011984731E+02 -0.70853706006E+01  0.40000000000E+02  0.47000000000E+01 0.  1.
</event>
<event>
 5    1  0.4833967E-001  0.8000000E+02  0.7546771E-02  0.1203772E+00
         11   -1    0    0    0    0  0.00000000000E+00  0.00000000000E+00  0.40000000000E+02  0.40000000000E+02  0.00000000000E+00 0.  1.
        -11   -1    0    0    0    0 -0.00000000000E+00 -0.00000000000E+00 -0.40000000000E+02  0.40000000000E+02  0.00000000000E+00 0. -1.
         23    2    1    2    0    0  0.00000000000E+00  0.00000000000E+00  0.00000000000E+00  0.80000000000E+02  0.80000000000E+02 0.  0.
          5    1    3    3  501    0  0.21814585110E+02  0.11946175517E+02 -0.30972936041E+02  0.40000000000E+02  0.47000000000E+01 0. -1.
         -5    1    3    3    0  501 -0.21814585110E+02 -0.11946175517E+02  0.30972936041E+02  0.40000000000E+02  0.47000000000E+01 0.  1.
</event>
<event>
 5    1  0.4833967E-001  0.8000000E+02  0.7546771E-02  0.1203772E+00
         11   -1    0    0    0    0  0.00000000000E+00  0.00000000000E+00  0.40000000000E+02  0.40000000000E+02  0.00000000000E+00 0. -1.
        -11   -1    0    0    0    0 -0.00000000000E+00 -0.00000000000E+00 -0.40000000000E+02  0.40000000000E+02  0.00000000000E+00 0.  1.
         23    2    1    2    0    0  0.00000000000E+00  0.00000000000E+00  0.00000000000E+00  0.80000000000E+02  0.80000000000E+02 0.  0.
          5    1    3    3  501    0  0.14637389344E+02  0.33127046779E+02  0.16317340619E+02  0.40000000000E+02  0.47000000000E+01 0. -1.
         -5    1    3    3    0  501 -0.14637389344E+02 -0.33127046779E+02 -0.16317340619E+02  0.40000000000E+02  0.47000000000E+01 0.  1.
</event>
<event>
 5    1  0.4833967E-001  0.8000000E+02  0.7546771E-02  0.1203772E+00
         11   -1    0    0    0    0  0.00000000000E+00  0.00000000000E+00  0.40000000000E+02  0.40000000000E+02  0.00000000000E+00 0. -1.
        -11   -1    0    0    0    0 -0.00000000000E+00 -0.00000000000E+00 -0.40000000000E+02  0.40000000000E+02  0.00000000000E+00 0.  1.
         23    2    1    2    0    0  0.00000000000E+00  0.00000000000E+00  0.00000000000E+00  0.80000000000E+02  0.80000000000E+02 0.  0.
          5    1    3    3  501    0  0.99165804033E+01  0.21987272434E+02  0.31561547554E+02  0.40000000000E+02  0.47000000000E+01 0. -1.
         -5    1    3    3    0  501 -0.99165804033E+01 -0.21987272434E+02 -0.31561547554E+02  0.40000000000E+02  0.47000000000E+01 0.  1.
</event>
<event>
 5    1  0.4833967E-001  0.8000000E+02  0.7546771E-02  0.1203772E+00
         11   -1    0    0    0    0  0.00000000000E+00  0.00000000000E+00  0.40000000000E+02  0.40000000000E+02  0.00000000000E+00 0. -1.
        -11   -1    0    0    0    0 -0.00000000000E+00 -0.00000000000E+00 -0.40000000000E+02  0.40000000000E+02  0.00000000000E+00 0.  1.
         23    2    1    2    0    0  0.00000000000E+00  0.00000000000E+00  0.00000000000E+00  0.80000000000E+02  0.80000000000E+02 0.  0.
          5    1    3    3  501    0 -0.37909247552E+02  0.71102616000E+01 -0.94996384136E+01  0.40000000000E+02  0.47000000000E+01 0.  1.
         -5    1    3    3    0  501  0.37909247552E+02 -0.71102616000E+01  0.94996384136E+01  0.40000000000E+02  0.47000000000E+01 0. -1.
</event>
<event>
 5    1  0.4833967E-001  0.8000000E+02  0.7546771E-02  0.1203772E+00
         11   -1    0    0    0    0  0.00000000000E+00  0.00000000000E+00  0.40000000000E+02  0.40000000000E+02  0.00000000000E+00 0.  1.
        -11   -1    0    0    0    0 -0.00000000000E+00 -0.00000000000E+00 -0.40000000000E+02  0.40000000000E+02  0.00000000000E+00 0. -1.
         23    2    1    2    0    0  0.00000000000E+00  0.00000000000E+00  0.00000000000E+00  0.80000000000E+02  0.80000000000E+02 0.  0.
          5    1    3    3  501    0 -0.35840423498E+02  0.15917280932E+02  0.63256787135E+01  0.40000000000E+02  0.47000000000E+01 0. -1.
         -5    1    3    3    0  501  0.35840423498E+02 -0.15917280932E+02 -0.63256787135E+01  0.40000000000E+02  0.47000000000E+01 0.  1.
</event>
<event>
 5    1  0.4833967E-001  0.8000000E+02  0.7546771E-02  0.1203772E+00
         11   -1    0    0    0    0  0.00000000000E+00  0.00000000000E+00  0.40000000000E+02  0.40000000000E+02  0.00000000000E+00 0. -1.
        -11   -1    0    0    0    0 -0.00000000000E+00 -0.00000000000E+00 -0.40000000000E+02  0.40000000000E+02  0.00000000000E+00 0.  1.
         23    2    1    2    0    0  0.00000000000E+00  0.00000000000E+00  0.00000000000E+00  0.80000000000E+02  0.80000000000E+02 0.  0.
          5    1    3    3  501    0 -0.32884023603E+02  0.18896758120E+02  0.11809467568E+02  0.40000000000E+02  0.47000000000E+01 0. -1.
         -5    1    3    3    0  501  0.32884023603E+02 -0.18896758120E+02 -0.11809467568E+02  0.40000000000E+02  0.47000000000E+01 0.  1.
</event>
<event>
 5    1  0.4833967E-001  0.8000000E+02  0.7546771E-02  0.1203772E+00
         11   -1    0    0    0    0  0.00000000000E+00  0.00000000000E+00  0.40000000000E+02  0.40000000000E+02  0.00000000000E+00 0.  1.
        -11   -1    0    0    0    0 -0.00000000000E+00 -0.00000000000E+00 -0.40000000000E+02  0.40000000000E+02  0.00000000000E+00 0. -1.
         23    2    1    2    0    0  0.00000000000E+00  0.00000000000E+00  0.00000000000E+00  0.80000000000E+02  0.80000000000E+02 0.  0.
          5    1    3    3  501    0  0.26344601516E+02 -0.29710047036E+02 -0.10886120083E+01  0.40000000000E+02  0.47000000000E+01 0. -1.
         -5    1    3    3    0  501 -0.26344601516E+02  0.29710047036E+02  0.10886120083E+01  0.40000000000E+02  0.47000000000E+01 0.  1.
</event>
<event>
 5    1  0.4833967E-001  0.8000000E+02  0.7546771E-02  0.1203772E+00
         11   -1    0    0    0    0  0.00000000000E+00  0.00000000000E+00  0.40000000000E+02  0.40000000000E+02  0.00000000000E+00 0. -1.
        -11   -1    0    0    0    0 -0.00000000000E+00 -0.00000000000E+00 -0.40000000000E+02  0.40000000000E+02  0.00000000000E+00 0.  1.
         23    2    1    2    0    0  0.00000000000E+00  0.00000000000E+00  0.00000000000E+00  0.80000000000E+02  0.80000000000E+02 0.  0.
          5    1    3    3  501    0 -0.25240265171E+02 -0.27606604971E+02  0.13368409632E+02  0.40000000000E+02  0.47000000000E+01 0. -1.
         -5    1    3    3    0  501  0.25240265171E+02  0.27606604971E+02 -0.13368409632E+02  0.40000000000E+02  0.47000000000E+01 0.  1.
</event>
<event>
 5    1  0.4833967E-001  0.8000000E+02  0.7546771E-02  0.1203772E+00
         11   -1    0    0    0    0  0.00000000000E+00  0.00000000000E+00  0.40000000000E+02  0.40000000000E+02  0.00000000000E+00 0. -1.
        -11   -1    0    0    0    0 -0.00000000000E+00 -0.00000000000E+00 -0.40000000000E+02  0.40000000000E+02  0.00000000000E+00 0.  1.
         23    2    1    2    0    0  0.00000000000E+00  0.00000000000E+00  0.00000000000E+00  0.80000000000E+02  0.80000000000E+02 0.  0.
          5    1    3    3  501    0 -0.26956329030E+02  0.20595143658E+01  0.29103689213E+02  0.40000000000E+02  0.47000000000E+01 0. -1.
         -5    1    3    3    0  501  0.26956329030E+02 -0.20595143658E+01 -0.29103689213E+02  0.40000000000E+02  0.47000000000E+01 0.  1.
</event>
<event>
 5    1  0.4833967E-001  0.8000000E+02  0.7546771E-02  0.1203772E+00
         11   -1    0    0    0    0  0.00000000000E+00  0.00000000000E+00  0.40000000000E+02  0.40000000000E+02  0.00000000000E+00 0. -1.
        -11   -1    0    0    0    0 -0.00000000000E+00 -0.00000000000E+00 -0.40000000000E+02  0.40000000000E+02  0.00000000000E+00 0.  1.
         23    2    1    2    0    0  0.00000000000E+00  0.00000000000E+00  0.00000000000E+00  0.80000000000E+02  0.80000000000E+02 0.  0.
          5    1    3    3  501    0 -0.28696855441E+02  0.65782371138E+01  0.26666969912E+02  0.40000000000E+02  0.47000000000E+01 0. -1.
         -5    1    3    3    0  501  0.28696855441E+02 -0.65782371138E+01 -0.26666969912E+02  0.40000000000E+02  0.47000000000E+01 0.  1.
</event>
<event>
 5    1  0.4833967E-001  0.8000000E+02  0.7546771E-02  0.1203772E+00
         11   -1    0    0    0    0  0.00000000000E+00  0.00000000000E+00  0.40000000000E+02  0.40000000000E+02  0.00000000000E+00 0.  1.
        -11   -1    0    0    0    0 -0.00000000000E+00 -0.00000000000E+00 -0.40000000000E+02  0.40000000000E+02  0.00000000000E+00 0. -1.
         23    2    1    2    0    0  0.00000000000E+00  0.00000000000E+00  0.00000000000E+00  0.80000000000E+02  0.80000000000E+02 0.  0.
          5    1    3    3  501    0  0.44674376477E+01  0.15641229629E+02 -0.36239535546E+02  0.40000000000E+02  0.47000000000E+01 0. -1.
         -5    1    3    3    0  501 -0.44674376477E+01 -0.15641229629E+02  0.36239535546E+02  0.40000000000E+02  0.47000000000E+01 0.  1.
</event>
<event>
 5    1  0.4833967E-001  0.8000000E+02  0.7546771E-02  0.1203772E+00
         11   -1    0    0    0    0  0.00000000000E+00  0.00000000000E+00  0.40000000000E+02  0.40000000000E+02  0.00000000000E+00 0. -1.
        -11   -1    0    0    0    0 -0.00000000000E+00 -0.00000000000E+00 -0.40000000000E+02  0.40000000000E+02  0.00000000000E+00 0.  1.
         23    2    1    2    0    0  0.00000000000E+00  0.00000000000E+00  0.00000000000E+00  0.80000000000E+02  0.80000000000E+02 0.  0.
          5    1    3    3  501    0 -0.10891857638E+02 -0.41696045813E+01 -0.37972250853E+02  0.40000000000E+02  0.47000000000E+01 0.  1.
         -5    1    3    3    0  501  0.10891857638E+02  0.41696045813E+01  0.37972250853E+02  0.40000000000E+02  0.47000000000E+01 0. -1.
</event>
<event>
 5    1  0.4833967E-001  0.8000000E+02  0.7546771E-02  0.1203772E+00
         11   -1    0    0    0    0  0.00000000000E+00  0.00000000000E+00  0.40000000000E+02  0.40000000000E+02  0.00000000000E+00 0. -1.
        -11   -1    0    0    0    0 -0.00000000000E+00 -0.00000000000E+00 -0.40000000000E+02  0.40000000000E+02  0.00000000000E+00 0.  1.
         23    2    1    2    0    0  0.00000000000E+00  0.00000000000E+00  0.00000000000E+00  0.80000000000E+02  0.80000000000E+02 0.  0.
          5    1    3    3  501    0 -0.32294867029E+02 -0.13065175496E+02 -0.19085406803E+02  0.40000000000E+02  0.47000000000E+01 0.  1.
         -5    1    3    3    0  501  0.32294867029E+02  0.13065175496E+02  0.19085406803E+02  0.40000000000E+02  0.47000000000E+01 0. -1.
</event>
<event>
 5    1  0.4833967E-001  0.8000000E+02  0.7546771E-02  0.1203772E+00
         11   -1    0    0    0    0  0.00000000000E+00  0.00000000000E+00  0.40000000000E+02  0.40000000000E+02  0.00000000000E+00 0. -1.
        -11   -1    0    0    0    0 -0.00000000000E+00 -0.00000000000E+00 -0.40000000000E+02  0.40000000000E+02  0.00000000000E+00 0.  1.
         23    2    1    2    0    0  0.00000000000E+00  0.00000000000E+00  0.00000000000E+00  0.80000000000E+02  0.80000000000E+02 0.  0.
          5    1    3    3  501    0 -0.15610459896E+02 -0.13352266557E+02  0.33999125277E+02  0.40000000000E+02  0.47000000000E+01 0. -1.
         -5    1    3    3    0  501  0.15610459896E+02  0.13352266557E+02 -0.33999125277E+02  0.40000000000E+02  0.47000000000E+01 0.  1.
</event>
<event>
 5    1  0.4833967E-001  0.8000000E+02  0.7546771E-02  0.1203772E+00
         11   -1    0    0    0    0  0.00000000000E+00  0.00000000000E+00  0.40000000000E+02  0.40000000000E+02  0.00000000000E+00 0. -1.
        -11   -1    0    0    0    0 -0.00000000000E+00 -0.00000000000E+00 -0.40000000000E+02  0.40000000000E+02  0.00000000000E+00 0.  1.
         23    2    1    2    0    0  0.00000000000E+00  0.00000000000E+00  0.00000000000E+00  0.80000000000E+02  0.80000000000E+02 0.  0.
          5    1    3    3  501    0  0.33286313538E+02  0.21470931452E+02 -0.29883831137E+01  0.40000000000E+02  0.47000000000E+01 0. -1.
         -5    1    3    3    0  501 -0.33286313538E+02 -0.21470931452E+02  0.29883831137E+01  0.40000000000E+02  0.47000000000E+01 0.  1.
</event>
<event>
 5    1  0.4833967E-001  0.8000000E+02  0.7546771E-02  0.1203772E+00
         11   -1    0    0    0    0  0.00000000000E+00  0.00000000000E+00  0.40000000000E+02  0.40000000000E+02  0.00000000000E+00 0.  1.
        -11   -1    0    0    0    0 -0.00000000000E+00 -0.00000000000E+00 -0.40000000000E+02  0.40000000000E+02  0.00000000000E+00 0. -1.
         23    2    1    2    0    0  0.00000000000E+00  0.00000000000E+00  0.00000000000E+00  0.80000000000E+02  0.80000000000E+02 0.  0.
          5    1    3    3  501    0 -0.27360467763E+02  0.10989188882E+02 -0.26618650069E+02  0.40000000000E+02  0.47000000000E+01 0. -1.
         -5    1    3    3    0  501  0.27360467763E+02 -0.10989188882E+02  0.26618650069E+02  0.40000000000E+02  0.47000000000E+01 0.  1.
</event>
<event>
 5    1  0.4833967E-001  0.8000000E+02  0.7546771E-02  0.1203772E+00
         11   -1    0    0    0    0  0.00000000000E+00  0.00000000000E+00  0.40000000000E+02  0.40000000000E+02  0.00000000000E+00 0.  1.
        -11   -1    0    0    0    0 -0.00000000000E+00 -0.00000000000E+00 -0.40000000000E+02  0.40000000000E+02  0.00000000000E+00 0. -1.
         23    2    1    2    0    0  0.00000000000E+00  0.00000000000E+00  0.00000000000E+00  0.80000000000E+02  0.80000000000E+02 0.  0.
          5    1    3    3  501    0  0.27343657673E+02 -0.97092994853E+01 -0.27128654382E+02  0.40000000000E+02  0.47000000000E+01 0. -1.
         -5    1    3    3    0  501 -0.27343657673E+02  0.97092994853E+01  0.27128654382E+02  0.40000000000E+02  0.47000000000E+01 0.  1.
</event>
<event>
 5    1  0.4833967E-001  0.8000000E+02  0.7546771E-02  0.1203772E+00
         11   -1    0    0    0    0  0.00000000000E+00  0.00000000000E+00  0.40000000000E+02  0.40000000000E+02  0.00000000000E+00 0.  1.
        -11   -1    0    0    0    0 -0.00000000000E+00 -0.00000000000E+00 -0.40000000000E+02  0.40000000000E+02  0.00000000000E+00 0. -1.
         23    2    1    2    0    0  0.00000000000E+00  0.00000000000E+00  0.00000000000E+00  0.80000000000E+02  0.80000000000E+02 0.  0.
          5    1    3    3  501    0 -0.47237922352E+01  0.19697508341E+02 -0.34170220252E+02  0.40000000000E+02  0.47000000000E+01 0. -1.
         -5    1    3    3    0  501  0.47237922352E+01 -0.19697508341E+02  0.34170220252E+02  0.40000000000E+02  0.47000000000E+01 0.  1.
</event>
<event>
 5    1  0.4833967E-001  0.8000000E+02  0.7546771E-02  0.1203772E+00
         11   -1    0    0    0    0  0.00000000000E+00  0.00000000000E+00  0.40000000000E+02  0.40000000000E+02  0.00000000000E+00 0.  1.
        -11   -1    0    0    0    0 -0.00000000000E+00 -0.00000000000E+00 -0.40000000000E+02  0.40000000000E+02  0.00000000000E+00 0. -1.
         23    2    1    2    0    0  0.00000000000E+00  0.00000000000E+00  0.00000000000E+00  0.80000000000E+02  0.80000000000E+02 0.  0.
          5    1    3    3  501    0 -0.15154641478E+02  0.22982576224E+02 -0.28636480785E+02  0.40000000000E+02  0.47000000000E+01 0. -1.
         -5    1    3    3    0  501  0.15154641478E+02 -0.22982576224E+02  0.28636480785E+02  0.40000000000E+02  0.47000000000E+01 0.  1.
</event>
<event>
 5    1  0.4833967E-001  0.8000000E+02  0.7546771E-02  0.1203772E+00
         11   -1    0    0    0    0  0.00000000000E+00  0.00000000000E+00  0.40000000000E+02  0.40000000000E+02  0.00000000000E+00 0. -1.
        -11   -1    0    0    0    0 -0.00000000000E+00 -0.00000000000E+00 -0.40000000000E+02  0.40000000000E+02  0.00000000000E+00 0.  1.
         23    2    1    2    0    0  0.00000000000E+00  0.00000000000E+00  0.00000000000E+00  0.80000000000E+02  0.80000000000E+02 0.  0.
          5    1    3    3  501    0 -0.11978973915E+02 -0.36876727124E+02  0.86325651214E+01  0.40000000000E+02  0.47000000000E+01 0. -1.
         -5    1    3    3    0  501  0.11978973915E+02  0.36876727124E+02 -0.86325651214E+01  0.40000000000E+02  0.47000000000E+01 0.  1.
</event>
<event>
 5    1  0.4833967E-001  0.8000000E+02  0.7546771E-02  0.1203772E+00
         11   -1    0    0    0    0  0.00000000000E+00  0.00000000000E+00  0.40000000000E+02  0.40000000000E+02  0.00000000000E+00 0. -1.
        -11   -1    0    0    0    0 -0.00000000000E+00 -0.00000000000E+00 -0.40000000000E+02  0.40000000000E+02  0.00000000000E+00 0.  1.
         23    2    1    2    0    0  0.00000000000E+00  0.00000000000E+00  0.00000000000E+00  0.80000000000E+02  0.80000000000E+02 0.  0.
          5    1    3    3  501    0  0.14860404907E+02 -0.57444499619E+01  0.36387905417E+02  0.40000000000E+02  0.47000000000E+01 0. -1.
         -5    1    3    3    0  501 -0.14860404907E+02  0.57444499619E+01 -0.36387905417E+02  0.40000000000E+02  0.47000000000E+01 0.  1.
</event>
<event>
 5    1  0.4833967E-001  0.8000000E+02  0.7546771E-02  0.1203772E+00
         11   -1    0    0    0    0  0.00000000000E+00  0.00000000000E+00  0.40000000000E+02  0.40000000000E+02  0.00000000000E+00 0. -1.
        -11   -1    0    0    0    0 -0.00000000000E+00 -0.00000000000E+00 -0.40000000000E+02  0.40000000000E+02  0.00000000000E+00 0.  1.
         23    2    1    2    0    0  0.00000000000E+00  0.00000000000E+00  0.00000000000E+00  0.80000000000E+02  0.80000000000E+02 0.  0.
          5    1    3    3  501    0 -0.13423193204E+02  0.14103162103E+02  0.34624105807E+02  0.40000000000E+02  0.47000000000E+01 0. -1.
         -5    1    3    3    0  501  0.13423193204E+02 -0.14103162103E+02 -0.34624105807E+02  0.40000000000E+02  0.47000000000E+01 0.  1.
</event>
<event>
 5    1  0.4833967E-001  0.8000000E+02  0.7546771E-02  0.1203772E+00
         11   -1    0    0    0    0  0.00000000000E+00  0.00000000000E+00  0.40000000000E+02  0.40000000000E+02  0.00000000000E+00 0. -1.
        -11   -1    0    0    0    0 -0.00000000000E+00 -0.00000000000E+00 -0.40000000000E+02  0.40000000000E+02  0.00000000000E+00 0.  1.
         23    2    1    2    0    0  0.00000000000E+00  0.00000000000E+00  0.00000000000E+00  0.80000000000E+02  0.80000000000E+02 0.  0.
          5    1    3    3  501    0 -0.34563811965E+02 -0.33087091176E+01  0.19295215635E+02  0.40000000000E+02  0.47000000000E+01 0. -1.
         -5    1    3    3    0  501  0.34563811965E+02  0.33087091176E+01 -0.19295215635E+02  0.40000000000E+02  0.47000000000E+01 0.  1.
</event>
<event>
 5    1  0.4833967E-001  0.8000000E+02  0.7546771E-02  0.1203772E+00
         11   -1    0    0    0    0  0.00000000000E+00  0.00000000000E+00  0.40000000000E+02  0.40000000000E+02  0.00000000000E+00 0.  1.
        -11   -1    0    0    0    0 -0.00000000000E+00 -0.00000000000E+00 -0.40000000000E+02  0.40000000000E+02  0.00000000000E+00 0. -1.
         23    2    1    2    0    0  0.00000000000E+00  0.00000000000E+00  0.00000000000E+00  0.80000000000E+02  0.80000000000E+02 0.  0.
          5    1    3    3  501    0 -0.87496890485E+01 -0.72518180643E+01 -0.38062633597E+02  0.40000000000E+02  0.47000000000E+01 0. -1.
         -5    1    3    3    0  501  0.87496890485E+01  0.72518180643E+01  0.38062633597E+02  0.40000000000E+02  0.47000000000E+01 0.  1.
</event>
<event>
 5    1  0.4833967E-001  0.8000000E+02  0.7546771E-02  0.1203772E+00
         11   -1    0    0    0    0  0.00000000000E+00  0.00000000000E+00  0.40000000000E+02  0.40000000000E+02  0.00000000000E+00 0.  1.
        -11   -1    0    0    0    0 -0.00000000000E+00 -0.00000000000E+00 -0.40000000000E+02  0.40000000000E+02  0.00000000000E+00 0. -1.
         23    2    1    2    0    0  0.00000000000E+00  0.00000000000E+00  0.00000000000E+00  0.80000000000E+02  0.80000000000E+02 0.  0.
          5    1    3    3  501    0 -0.36087744933E+02  0.39945392769E+01 -0.16112986118E+02  0.40000000000E+02  0.47000000000E+01 0. -1.
         -5    1    3    3    0  501  0.36087744933E+02 -0.39945392769E+01  0.16112986118E+02  0.40000000000E+02  0.47000000000E+01 0.  1.
</event>
<event>
 5    1  0.4833967E-001  0.8000000E+02  0.7546771E-02  0.1203772E+00
         11   -1    0    0    0    0  0.00000000000E+00  0.00000000000E+00  0.40000000000E+02  0.40000000000E+02  0.00000000000E+00 0.  1.
        -11   -1    0    0    0    0 -0.00000000000E+00 -0.00000000000E+00 -0.40000000000E+02  0.40000000000E+02  0.00000000000E+00 0. -1.
         23    2    1    2    0    0  0.00000000000E+00  0.00000000000E+00  0.00000000000E+00  0.80000000000E+02  0.80000000000E+02 0.  0.
          5    1    3    3  501    0 -0.13098403416E+02  0.35013251410E+02 -0.13431829870E+02  0.40000000000E+02  0.47000000000E+01 0. -1.
         -5    1    3    3    0  501  0.13098403416E+02 -0.35013251410E+02  0.13431829870E+02  0.40000000000E+02  0.47000000000E+01 0.  1.
</event>
<event>
 5    1  0.4833967E-001  0.8000000E+02  0.7546771E-02  0.1203772E+00
         11   -1    0    0    0    0  0.00000000000E+00  0.00000000000E+00  0.40000000000E+02  0.40000000000E+02  0.00000000000E+00 0.  1.
        -11   -1    0    0    0    0 -0.00000000000E+00 -0.00000000000E+00 -0.40000000000E+02  0.40000000000E+02  0.00000000000E+00 0. -1.
         23    2    1    2    0    0  0.00000000000E+00  0.00000000000E+00  0.00000000000E+00  0.80000000000E+02  0.80000000000E+02 0.  0.
          5    1    3    3  501    0 -0.21110282029E+02  0.63065252559E+01 -0.33052892942E+02  0.40000000000E+02  0.47000000000E+01 0. -1.
         -5    1    3    3    0  501  0.21110282029E+02 -0.63065252559E+01  0.33052892942E+02  0.40000000000E+02  0.47000000000E+01 0.  1.
</event>
<event>
 5    1  0.4833967E-001  0.8000000E+02  0.7546771E-02  0.1203772E+00
         11   -1    0    0    0    0  0.00000000000E+00  0.00000000000E+00  0.40000000000E+02  0.40000000000E+02  0.00000000000E+00 0. -1.
        -11   -1    0    0    0    0 -0.00000000000E+00 -0.00000000000E+00 -0.40000000000E+02  0.40000000000E+02  0.00000000000E+00 0.  1.
         23    2    1    2    0    0  0.00000000000E+00  0.00000000000E+00  0.00000000000E+00  0.80000000000E+02  0.80000000000E+02 0.  0.
          5    1    3    3  501    0  0.30925448944E+02 -0.14877232342E+02 -0.20004863546E+02  0.40000000000E+02  0.47000000000E+01 0. -1.
         -5    1    3    3    0  501 -0.30925448944E+02  0.14877232342E+02  0.20004863546E+02  0.40000000000E+02  0.47000000000E+01 0.  1.
</event>
<event>
 5    1  0.4833967E-001  0.8000000E+02  0.7546771E-02  0.1203772E+00
         11   -1    0    0    0    0  0.00000000000E+00  0.00000000000E+00  0.40000000000E+02  0.40000000000E+02  0.00000000000E+00 0.  1.
        -11   -1    0    0    0    0 -0.00000000000E+00 -0.00000000000E+00 -0.40000000000E+02  0.40000000000E+02  0.00000000000E+00 0. -1.
         23    2    1    2    0    0  0.00000000000E+00  0.00000000000E+00  0.00000000000E+00  0.80000000000E+02  0.80000000000E+02 0.  0.
          5    1    3    3  501    0 -0.33439102634E+02 -0.26016638132E+01 -0.21283039266E+02  0.40000000000E+02  0.47000000000E+01 0. -1.
         -5    1    3    3    0  501  0.33439102634E+02  0.26016638132E+01  0.21283039266E+02  0.40000000000E+02  0.47000000000E+01 0.  1.
</event>
<event>
 5    1  0.4833967E-001  0.8000000E+02  0.7546771E-02  0.1203772E+00
         11   -1    0    0    0    0  0.00000000000E+00  0.00000000000E+00  0.40000000000E+02  0.40000000000E+02  0.00000000000E+00 0. -1.
        -11   -1    0    0    0    0 -0.00000000000E+00 -0.00000000000E+00 -0.40000000000E+02  0.40000000000E+02  0.00000000000E+00 0.  1.
         23    2    1    2    0    0  0.00000000000E+00  0.00000000000E+00  0.00000000000E+00  0.80000000000E+02  0.80000000000E+02 0.  0.
          5    1    3    3  501    0  0.24795033097E+02  0.30238314449E+02 -0.69828842901E+01  0.40000000000E+02  0.47000000000E+01 0. -1.
         -5    1    3    3    0  501 -0.24795033097E+02 -0.30238314449E+02  0.69828842901E+01  0.40000000000E+02  0.47000000000E+01 0.  1.
</event>
<event>
 5    1  0.4833967E-001  0.8000000E+02  0.7546771E-02  0.1203772E+00
         11   -1    0    0    0    0  0.00000000000E+00  0.00000000000E+00  0.40000000000E+02  0.40000000000E+02  0.00000000000E+00 0.  1.
        -11   -1    0    0    0    0 -0.00000000000E+00 -0.00000000000E+00 -0.40000000000E+02  0.40000000000E+02  0.00000000000E+00 0. -1.
         23    2    1    2    0    0  0.00000000000E+00  0.00000000000E+00  0.00000000000E+00  0.80000000000E+02  0.80000000000E+02 0.  0.
          5    1    3    3  501    0 -0.25070882017E+02 -0.30659513867E+02  0.30586082282E+01  0.40000000000E+02  0.47000000000E+01 0. -1.
         -5    1    3    3    0  501  0.25070882017E+02  0.30659513867E+02 -0.30586082282E+01  0.40000000000E+02  0.47000000000E+01 0.  1.
</event>
<event>
 5    1  0.4833967E-001  0.8000000E+02  0.7546771E-02  0.1203772E+00
         11   -1    0    0    0    0  0.00000000000E+00  0.00000000000E+00  0.40000000000E+02  0.40000000000E+02  0.00000000000E+00 0. -1.
        -11   -1    0    0    0    0 -0.00000000000E+00 -0.00000000000E+00 -0.40000000000E+02  0.40000000000E+02  0.00000000000E+00 0.  1.
         23    2    1    2    0    0  0.00000000000E+00  0.00000000000E+00  0.00000000000E+00  0.80000000000E+02  0.80000000000E+02 0.  0.
          5    1    3    3  501    0  0.23971972978E+02  0.84381802934E+01  0.30529520548E+02  0.40000000000E+02  0.47000000000E+01 0. -1.
         -5    1    3    3    0  501 -0.23971972978E+02 -0.84381802934E+01 -0.30529520548E+02  0.40000000000E+02  0.47000000000E+01 0.  1.
</event>
<event>
 5    1  0.4833967E-001  0.8000000E+02  0.7546771E-02  0.1203772E+00
         11   -1    0    0    0    0  0.00000000000E+00  0.00000000000E+00  0.40000000000E+02  0.40000000000E+02  0.00000000000E+00 0. -1.
        -11   -1    0    0    0    0 -0.00000000000E+00 -0.00000000000E+00 -0.40000000000E+02  0.40000000000E+02  0.00000000000E+00 0.  1.
         23    2    1    2    0    0  0.00000000000E+00  0.00000000000E+00  0.00000000000E+00  0.80000000000E+02  0.80000000000E+02 0.  0.
          5    1    3    3  501    0  0.28511418627E+02 -0.16335599723E+02  0.22319435243E+02  0.40000000000E+02  0.47000000000E+01 0. -1.
         -5    1    3    3    0  501 -0.28511418627E+02  0.16335599723E+02 -0.22319435243E+02  0.40000000000E+02  0.47000000000E+01 0.  1.
</event>
<event>
 5    1  0.4833967E-001  0.8000000E+02  0.7546771E-02  0.1203772E+00
         11   -1    0    0    0    0  0.00000000000E+00  0.00000000000E+00  0.40000000000E+02  0.40000000000E+02  0.00000000000E+00 0. -1.
        -11   -1    0    0    0    0 -0.00000000000E+00 -0.00000000000E+00 -0.40000000000E+02  0.40000000000E+02  0.00000000000E+00 0.  1.
         23    2    1    2    0    0  0.00000000000E+00  0.00000000000E+00  0.00000000000E+00  0.80000000000E+02  0.80000000000E+02 0.  0.
          5    1    3    3  501    0  0.34753784765E+02 -0.36502667755E+01  0.18888091406E+02  0.40000000000E+02  0.47000000000E+01 0. -1.
         -5    1    3    3    0  501 -0.34753784765E+02  0.36502667755E+01 -0.18888091406E+02  0.40000000000E+02  0.47000000000E+01 0.  1.
</event>
<event>
 5    1  0.4833967E-001  0.8000000E+02  0.7546771E-02  0.1203772E+00
         11   -1    0    0    0    0  0.00000000000E+00  0.00000000000E+00  0.40000000000E+02  0.40000000000E+02  0.00000000000E+00 0.  1.
        -11   -1    0    0    0    0 -0.00000000000E+00 -0.00000000000E+00 -0.40000000000E+02  0.40000000000E+02  0.00000000000E+00 0. -1.
         23    2    1    2    0    0  0.00000000000E+00  0.00000000000E+00  0.00000000000E+00  0.80000000000E+02  0.80000000000E+02 0.  0.
          5    1    3    3  501    0 -0.34957857494E+02 -0.18829428166E+02  0.11449167502E+01  0.40000000000E+02  0.47000000000E+01 0. -1.
         -5    1    3    3    0  501  0.34957857494E+02  0.18829428166E+02 -0.11449167502E+01  0.40000000000E+02  0.47000000000E+01 0.  1.
</event>
<event>
 5    1  0.4833967E-001  0.8000000E+02  0.7546771E-02  0.1203772E+00
         11   -1    0    0    0    0  0.00000000000E+00  0.00000000000E+00  0.40000000000E+02  0.40000000000E+02  0.00000000000E+00 0.  1.
        -11   -1    0    0    0    0 -0.00000000000E+00 -0.00000000000E+00 -0.40000000000E+02  0.40000000000E+02  0.00000000000E+00 0. -1.
         23    2    1    2    0    0  0.00000000000E+00  0.00000000000E+00  0.00000000000E+00  0.80000000000E+02  0.80000000000E+02 0.  0.
          5    1    3    3  501    0 -0.31256163905E+02 -0.27271407332E+01 -0.24362366908E+02  0.40000000000E+02  0.47000000000E+01 0. -1.
         -5    1    3    3    0  501  0.31256163905E+02  0.27271407332E+01  0.24362366908E+02  0.40000000000E+02  0.47000000000E+01 0.  1.
</event>
<event>
 5    1  0.4833967E-001  0.8000000E+02  0.7546771E-02  0.1203772E+00
         11   -1    0    0    0    0  0.00000000000E+00  0.00000000000E+00  0.40000000000E+02  0.40000000000E+02  0.00000000000E+00 0. -1.
        -11   -1    0    0    0    0 -0.00000000000E+00 -0.00000000000E+00 -0.40000000000E+02  0.40000000000E+02  0.00000000000E+00 0.  1.
         23    2    1    2    0    0  0.00000000000E+00  0.00000000000E+00  0.00000000000E+00  0.80000000000E+02  0.80000000000E+02 0.  0.
          5    1    3    3  501    0 -0.24582384541E+02 -0.91671910485E+01  0.29825810610E+02  0.40000000000E+02  0.47000000000E+01 0. -1.
         -5    1    3    3    0  501  0.24582384541E+02  0.91671910485E+01 -0.29825810610E+02  0.40000000000E+02  0.47000000000E+01 0.  1.
</event>
<event>
 5    1  0.4833967E-001  0.8000000E+02  0.7546771E-02  0.1203772E+00
         11   -1    0    0    0    0  0.00000000000E+00  0.00000000000E+00  0.40000000000E+02  0.40000000000E+02  0.00000000000E+00 0. -1.
        -11   -1    0    0    0    0 -0.00000000000E+00 -0.00000000000E+00 -0.40000000000E+02  0.40000000000E+02  0.00000000000E+00 0.  1.
         23    2    1    2    0    0  0.00000000000E+00  0.00000000000E+00  0.00000000000E+00  0.80000000000E+02  0.80000000000E+02 0.  0.
          5    1    3    3  501    0 -0.20457637507E+02 -0.30809124047E+02  0.14498032387E+02  0.40000000000E+02  0.47000000000E+01 0. -1.
         -5    1    3    3    0  501  0.20457637507E+02  0.30809124047E+02 -0.14498032387E+02  0.40000000000E+02  0.47000000000E+01 0.  1.
</event>
<event>
 5    1  0.4833967E-001  0.8000000E+02  0.7546771E-02  0.1203772E+00
         11   -1    0    0    0    0  0.00000000000E+00  0.00000000000E+00  0.40000000000E+02  0.40000000000E+02  0.00000000000E+00 0.  1.
        -11   -1    0    0    0    0 -0.00000000000E+00 -0.00000000000E+00 -0.40000000000E+02  0.40000000000E+02  0.00000000000E+00 0. -1.
         23    2    1    2    0    0  0.00000000000E+00  0.00000000000E+00  0.00000000000E+00  0.80000000000E+02  0.80000000000E+02 0.  0.
          5    1    3    3  501    0 -0.17160070057E+02 -0.16399202550E+02 -0.31851344577E+02  0.40000000000E+02  0.47000000000E+01 0. -1.
         -5    1    3    3    0  501  0.17160070057E+02  0.16399202550E+02  0.31851344577E+02  0.40000000000E+02  0.47000000000E+01 0.  1.
</event>
<event>
 5    1  0.4833967E-001  0.8000000E+02  0.7546771E-02  0.1203772E+00
         11   -1    0    0    0    0  0.00000000000E+00  0.00000000000E+00  0.40000000000E+02  0.40000000000E+02  0.00000000000E+00 0. -1.
        -11   -1    0    0    0    0 -0.00000000000E+00 -0.00000000000E+00 -0.40000000000E+02  0.40000000000E+02  0.00000000000E+00 0.  1.
         23    2    1    2    0    0  0.00000000000E+00  0.00000000000E+00  0.00000000000E+00  0.80000000000E+02  0.80000000000E+02 0.  0.
          5    1    3    3  501    0  0.18239992942E+02 -0.75059883781E+01  0.34480034744E+02  0.40000000000E+02  0.47000000000E+01 0. -1.
         -5    1    3    3    0  501 -0.18239992942E+02  0.75059883781E+01 -0.34480034744E+02  0.40000000000E+02  0.47000000000E+01 0.  1.
</event>
<event>
 5    1  0.4833967E-001  0.8000000E+02  0.7546771E-02  0.1203772E+00
         11   -1    0    0    0    0  0.00000000000E+00  0.00000000000E+00  0.40000000000E+02  0.40000000000E+02  0.00000000000E+00 0.  1.
        -11   -1    0    0    0    0 -0.00000000000E+00 -0.00000000000E+00 -0.40000000000E+02  0.40000000000E+02  0.00000000000E+00 0. -1.
         23    2    1    2    0    0  0.00000000000E+00  0.00000000000E+00  0.00000000000E+00  0.80000000000E+02  0.80000000000E+02 0.  0.
          5    1    3    3  501    0 -0.16896863938E+02  0.14281815989E+02 -0.32991449212E+02  0.40000000000E+02  0.47000000000E+01 0. -1.
         -5    1    3    3    0  501  0.16896863938E+02 -0.14281815989E+02  0.32991449212E+02  0.40000000000E+02  0.47000000000E+01 0.  1.
</event>
<event>
 5    1  0.4833967E-001  0.8000000E+02  0.7546771E-02  0.1203772E+00
         11   -1    0    0    0    0  0.00000000000E+00  0.00000000000E+00  0.40000000000E+02  0.40000000000E+02  0.00000000000E+00 0.  1.
        -11   -1    0    0    0    0 -0.00000000000E+00 -0.00000000000E+00 -0.40000000000E+02  0.40000000000E+02  0.00000000000E+00 0. -1.
         23    2    1    2    0    0  0.00000000000E+00  0.00000000000E+00  0.00000000000E+00  0.80000000000E+02  0.80000000000E+02 0.  0.
          5    1    3    3  501    0 -0.90425722243E+01 -0.36440621898E+02  0.12970079540E+02  0.40000000000E+02  0.47000000000E+01 0. -1.
         -5    1    3    3    0  501  0.90425722243E+01  0.36440621898E+02 -0.12970079540E+02  0.40000000000E+02  0.47000000000E+01 0.  1.
</event>
<event>
 5    1  0.4833967E-001  0.8000000E+02  0.7546771E-02  0.1203772E+00
         11   -1    0    0    0    0  0.00000000000E+00  0.00000000000E+00  0.40000000000E+02  0.40000000000E+02  0.00000000000E+00 0.  1.
        -11   -1    0    0    0    0 -0.00000000000E+00 -0.00000000000E+00 -0.40000000000E+02  0.40000000000E+02  0.00000000000E+00 0. -1.
         23    2    1    2    0    0  0.00000000000E+00  0.00000000000E+00  0.00000000000E+00  0.80000000000E+02  0.80000000000E+02 0.  0.
          5    1    3    3  501    0  0.82131981765E+01 -0.16182854534E+02 -0.35335090135E+02  0.40000000000E+02  0.47000000000E+01 0. -1.
         -5    1    3    3    0  501 -0.82131981765E+01  0.16182854534E+02  0.35335090135E+02  0.40000000000E+02  0.47000000000E+01 0.  1.
</event>
<event>
 5    1  0.4833967E-001  0.8000000E+02  0.7546771E-02  0.1203772E+00
         11   -1    0    0    0    0  0.00000000000E+00  0.00000000000E+00  0.40000000000E+02  0.40000000000E+02  0.00000000000E+00 0.  1.
        -11   -1    0    0    0    0 -0.00000000000E+00 -0.00000000000E+00 -0.40000000000E+02  0.40000000000E+02  0.00000000000E+00 0. -1.
         23    2    1    2    0    0  0.00000000000E+00  0.00000000000E+00  0.00000000000E+00  0.80000000000E+02  0.80000000000E+02 0.  0.
          5    1    3    3  501    0  0.11482585068E+01 -0.37466428657E+02 -0.13147555899E+02  0.40000000000E+02  0.47000000000E+01 0. -1.
         -5    1    3    3    0  501 -0.11482585068E+01  0.37466428657E+02  0.13147555899E+02  0.40000000000E+02  0.47000000000E+01 0.  1.
</event>
<event>
 5    1  0.4833967E-001  0.8000000E+02  0.7546771E-02  0.1203772E+00
         11   -1    0    0    0    0  0.00000000000E+00  0.00000000000E+00  0.40000000000E+02  0.40000000000E+02  0.00000000000E+00 0. -1.
        -11   -1    0    0    0    0 -0.00000000000E+00 -0.00000000000E+00 -0.40000000000E+02  0.40000000000E+02  0.00000000000E+00 0.  1.
         23    2    1    2    0    0  0.00000000000E+00  0.00000000000E+00  0.00000000000E+00  0.80000000000E+02  0.80000000000E+02 0.  0.
          5    1    3    3  501    0 -0.18276220592E+02 -0.34053598330E+02  0.91783550610E+01  0.40000000000E+02  0.47000000000E+01 0. -1.
         -5    1    3    3    0  501  0.18276220592E+02  0.34053598330E+02 -0.91783550610E+01  0.40000000000E+02  0.47000000000E+01 0.  1.
</event>
<event>
 5    1  0.4833967E-001  0.8000000E+02  0.7546771E-02  0.1203772E+00
         11   -1    0    0    0    0  0.00000000000E+00  0.00000000000E+00  0.40000000000E+02  0.40000000000E+02  0.00000000000E+00 0.  1.
        -11   -1    0    0    0    0 -0.00000000000E+00 -0.00000000000E+00 -0.40000000000E+02  0.40000000000E+02  0.00000000000E+00 0. -1.
         23    2    1    2    0    0  0.00000000000E+00  0.00000000000E+00  0.00000000000E+00  0.80000000000E+02  0.80000000000E+02 0.  0.
          5    1    3    3  501    0 -0.19272851430E+01  0.22641690005E+01 -0.39611477007E+02  0.40000000000E+02  0.47000000000E+01 0. -1.
         -5    1    3    3    0  501  0.19272851430E+01 -0.22641690005E+01  0.39611477007E+02  0.40000000000E+02  0.47000000000E+01 0.  1.
</event>
<event>
 5    1  0.4833967E-001  0.8000000E+02  0.7546771E-02  0.1203772E+00
         11   -1    0    0    0    0  0.00000000000E+00  0.00000000000E+00  0.40000000000E+02  0.40000000000E+02  0.00000000000E+00 0.  1.
        -11   -1    0    0    0    0 -0.00000000000E+00 -0.00000000000E+00 -0.40000000000E+02  0.40000000000E+02  0.00000000000E+00 0. -1.
         23    2    1    2    0    0  0.00000000000E+00  0.00000000000E+00  0.00000000000E+00  0.80000000000E+02  0.80000000000E+02 0.  0.
          5    1    3    3  501    0  0.37038522570E+02  0.30026288549E+01 -0.14037167300E+02  0.40000000000E+02  0.47000000000E+01 0. -1.
         -5    1    3    3    0  501 -0.37038522570E+02 -0.30026288549E+01  0.14037167300E+02  0.40000000000E+02  0.47000000000E+01 0.  1.
</event>
<event>
 5    1  0.4833967E-001  0.8000000E+02  0.7546771E-02  0.1203772E+00
         11   -1    0    0    0    0  0.00000000000E+00  0.00000000000E+00  0.40000000000E+02  0.40000000000E+02  0.00000000000E+00 0. -1.
        -11   -1    0    0    0    0 -0.00000000000E+00 -0.00000000000E+00 -0.40000000000E+02  0.40000000000E+02  0.00000000000E+00 0.  1.
         23    2    1    2    0    0  0.00000000000E+00  0.00000000000E+00  0.00000000000E+00  0.80000000000E+02  0.80000000000E+02 0.  0.
          5    1    3    3  501    0  0.53017074013E+01  0.26567542416E+02  0.29051120264E+02  0.40000000000E+02  0.47000000000E+01 0. -1.
         -5    1    3    3    0  501 -0.53017074013E+01 -0.26567542416E+02 -0.29051120264E+02  0.40000000000E+02  0.47000000000E+01 0.  1.
</event>
<event>
 5    1  0.4833967E-001  0.8000000E+02  0.7546771E-02  0.1203772E+00
         11   -1    0    0    0    0  0.00000000000E+00  0.00000000000E+00  0.40000000000E+02  0.40000000000E+02  0.00000000000E+00 0. -1.
        -11   -1    0    0    0    0 -0.00000000000E+00 -0.00000000000E+00 -0.40000000000E+02  0.40000000000E+02  0.00000000000E+00 0.  1.
         23    2    1    2    0    0  0.00000000000E+00  0.00000000000E+00  0.00000000000E+00  0.80000000000E+02  0.80000000000E+02 0.  0.
          5    1    3    3  501    0  0.41517972715E+01  0.39231557629E+02  0.46430017679E+01  0.40000000000E+02  0.47000000000E+01 0. -1.
         -5    1    3    3    0  501 -0.41517972715E+01 -0.39231557629E+02 -0.46430017679E+01  0.40000000000E+02  0.47000000000E+01 0.  1.
</event>
<event>
 5    1  0.4833967E-001  0.8000000E+02  0.7546771E-02  0.1203772E+00
         11   -1    0    0    0    0  0.00000000000E+00  0.00000000000E+00  0.40000000000E+02  0.40000000000E+02  0.00000000000E+00 0.  1.
        -11   -1    0    0    0    0 -0.00000000000E+00 -0.00000000000E+00 -0.40000000000E+02  0.40000000000E+02  0.00000000000E+00 0. -1.
         23    2    1    2    0    0  0.00000000000E+00  0.00000000000E+00  0.00000000000E+00  0.80000000000E+02  0.80000000000E+02 0.  0.
          5    1    3    3  501    0  0.96800738231E+01  0.38312538355E+02 -0.40442027129E+01  0.40000000000E+02  0.47000000000E+01 0. -1.
         -5    1    3    3    0  501 -0.96800738231E+01 -0.38312538355E+02  0.40442027129E+01  0.40000000000E+02  0.47000000000E+01 0.  1.
</event>
<event>
 5    1  0.4833967E-001  0.8000000E+02  0.7546771E-02  0.1203772E+00
         11   -1    0    0    0    0  0.00000000000E+00  0.00000000000E+00  0.40000000000E+02  0.40000000000E+02  0.00000000000E+00 0. -1.
        -11   -1    0    0    0    0 -0.00000000000E+00 -0.00000000000E+00 -0.40000000000E+02  0.40000000000E+02  0.00000000000E+00 0.  1.
         23    2    1    2    0    0  0.00000000000E+00  0.00000000000E+00  0.00000000000E+00  0.80000000000E+02  0.80000000000E+02 0.  0.
          5    1    3    3  501    0 -0.18369898000E+02  0.30502186023E+02  0.17608903865E+02  0.40000000000E+02  0.47000000000E+01 0. -1.
         -5    1    3    3    0  501  0.18369898000E+02 -0.30502186023E+02 -0.17608903865E+02  0.40000000000E+02  0.47000000000E+01 0.  1.
</event>
<event>
 5    1  0.4833967E-001  0.8000000E+02  0.7546771E-02  0.1203772E+00
         11   -1    0    0    0    0  0.00000000000E+00  0.00000000000E+00  0.40000000000E+02  0.40000000000E+02  0.00000000000E+00 0.  1.
        -11   -1    0    0    0    0 -0.00000000000E+00 -0.00000000000E+00 -0.40000000000E+02  0.40000000000E+02  0.00000000000E+00 0. -1.
         23    2    1    2    0    0  0.00000000000E+00  0.00000000000E+00  0.00000000000E+00  0.80000000000E+02  0.80000000000E+02 0.  0.
          5    1    3    3  501    0 -0.37961271860E+02 -0.11567110455E+02 -0.17475109459E+01  0.40000000000E+02  0.47000000000E+01 0. -1.
         -5    1    3    3    0  501  0.37961271860E+02  0.11567110455E+02  0.17475109459E+01  0.40000000000E+02  0.47000000000E+01 0.  1.
</event>
<event>
 5    1  0.4833967E-001  0.8000000E+02  0.7546771E-02  0.1203772E+00
         11   -1    0    0    0    0  0.00000000000E+00  0.00000000000E+00  0.40000000000E+02  0.40000000000E+02  0.00000000000E+00 0. -1.
        -11   -1    0    0    0    0 -0.00000000000E+00 -0.00000000000E+00 -0.40000000000E+02  0.40000000000E+02  0.00000000000E+00 0.  1.
         23    2    1    2    0    0  0.00000000000E+00  0.00000000000E+00  0.00000000000E+00  0.80000000000E+02  0.80000000000E+02 0.  0.
          5    1    3    3  501    0 -0.21123598751E+02 -0.26145080585E+02 -0.21169278141E+02  0.40000000000E+02  0.47000000000E+01 0. -1.
         -5    1    3    3    0  501  0.21123598751E+02  0.26145080585E+02  0.21169278141E+02  0.40000000000E+02  0.47000000000E+01 0.  1.
</event>
<event>
 5    1  0.4833967E-001  0.8000000E+02  0.7546771E-02  0.1203772E+00
         11   -1    0    0    0    0  0.00000000000E+00  0.00000000000E+00  0.40000000000E+02  0.40000000000E+02  0.00000000000E+00 0.  1.
        -11   -1    0    0    0    0 -0.00000000000E+00 -0.00000000000E+00 -0.40000000000E+02  0.40000000000E+02  0.00000000000E+00 0. -1.
         23    2    1    2    0    0  0.00000000000E+00  0.00000000000E+00  0.00000000000E+00  0.80000000000E+02  0.80000000000E+02 0.  0.
          5    1    3    3  501    0  0.83808601691E+01 -0.81039524379E+01 -0.37973637404E+02  0.40000000000E+02  0.47000000000E+01 0. -1.
         -5    1    3    3    0  501 -0.83808601691E+01  0.81039524379E+01  0.37973637404E+02  0.40000000000E+02  0.47000000000E+01 0.  1.
</event>
<event>
 5    1  0.4833967E-001  0.8000000E+02  0.7546771E-02  0.1203772E+00
         11   -1    0    0    0    0  0.00000000000E+00  0.00000000000E+00  0.40000000000E+02  0.40000000000E+02  0.00000000000E+00 0.  1.
        -11   -1    0    0    0    0 -0.00000000000E+00 -0.00000000000E+00 -0.40000000000E+02  0.40000000000E+02  0.00000000000E+00 0. -1.
         23    2    1    2    0    0  0.00000000000E+00  0.00000000000E+00  0.00000000000E+00  0.80000000000E+02  0.80000000000E+02 0.  0.
          5    1    3    3  501    0  0.20022896665E+02  0.30979055667E+02 -0.14740818129E+02  0.40000000000E+02  0.47000000000E+01 0. -1.
         -5    1    3    3    0  501 -0.20022896665E+02 -0.30979055667E+02  0.14740818129E+02  0.40000000000E+02  0.47000000000E+01 0.  1.
</event>
<event>
 5    1  0.4833967E-001  0.8000000E+02  0.7546771E-02  0.1203772E+00
         11   -1    0    0    0    0  0.00000000000E+00  0.00000000000E+00  0.40000000000E+02  0.40000000000E+02  0.00000000000E+00 0. -1.
        -11   -1    0    0    0    0 -0.00000000000E+00 -0.00000000000E+00 -0.40000000000E+02  0.40000000000E+02  0.00000000000E+00 0.  1.
         23    2    1    2    0    0  0.00000000000E+00  0.00000000000E+00  0.00000000000E+00  0.80000000000E+02  0.80000000000E+02 0.  0.
          5    1    3    3  501    0 -0.21204223722E+02 -0.11219755961E+01  0.33571298264E+02  0.40000000000E+02  0.47000000000E+01 0. -1.
         -5    1    3    3    0  501  0.21204223722E+02  0.11219755961E+01 -0.33571298264E+02  0.40000000000E+02  0.47000000000E+01 0.  1.
</event>
<event>
 5    1  0.4833967E-001  0.8000000E+02  0.7546771E-02  0.1203772E+00
         11   -1    0    0    0    0  0.00000000000E+00  0.00000000000E+00  0.40000000000E+02  0.40000000000E+02  0.00000000000E+00 0.  1.
        -11   -1    0    0    0    0 -0.00000000000E+00 -0.00000000000E+00 -0.40000000000E+02  0.40000000000E+02  0.00000000000E+00 0. -1.
         23    2    1    2    0    0  0.00000000000E+00  0.00000000000E+00  0.00000000000E+00  0.80000000000E+02  0.80000000000E+02 0.  0.
          5    1    3    3  501    0  0.35108530206E+02  0.49198616483E+01  0.17919153667E+02  0.40000000000E+02  0.47000000000E+01 0. -1.
         -5    1    3    3    0  501 -0.35108530206E+02 -0.49198616483E+01 -0.17919153667E+02  0.40000000000E+02  0.47000000000E+01 0.  1.
</event>
<event>
 5    1  0.4833967E-001  0.8000000E+02  0.7546771E-02  0.1203772E+00
         11   -1    0    0    0    0  0.00000000000E+00  0.00000000000E+00  0.40000000000E+02  0.40000000000E+02  0.00000000000E+00 0. -1.
        -11   -1    0    0    0    0 -0.00000000000E+00 -0.00000000000E+00 -0.40000000000E+02  0.40000000000E+02  0.00000000000E+00 0.  1.
         23    2    1    2    0    0  0.00000000000E+00  0.00000000000E+00  0.00000000000E+00  0.80000000000E+02  0.80000000000E+02 0.  0.
          5    1    3    3  501    0 -0.90458710624E+01 -0.25826990141E+02  0.28793207479E+02  0.40000000000E+02  0.47000000000E+01 0. -1.
         -5    1    3    3    0  501  0.90458710624E+01  0.25826990141E+02 -0.28793207479E+02  0.40000000000E+02  0.47000000000E+01 0.  1.
</event>
<event>
 5    1  0.4833967E-001  0.8000000E+02  0.7546771E-02  0.1203772E+00
         11   -1    0    0    0    0  0.00000000000E+00  0.00000000000E+00  0.40000000000E+02  0.40000000000E+02  0.00000000000E+00 0.  1.
        -11   -1    0    0    0    0 -0.00000000000E+00 -0.00000000000E+00 -0.40000000000E+02  0.40000000000E+02  0.00000000000E+00 0. -1.
         23    2    1    2    0    0  0.00000000000E+00  0.00000000000E+00  0.00000000000E+00  0.80000000000E+02  0.80000000000E+02 0.  0.
          5    1    3    3  501    0 -0.20424217730E+02  0.24362632961E+02  0.23816453249E+02  0.40000000000E+02  0.47000000000E+01 0. -1.
         -5    1    3    3    0  501  0.20424217730E+02 -0.24362632961E+02 -0.23816453249E+02  0.40000000000E+02  0.47000000000E+01 0.  1.
</event>
<event>
 5    1  0.4833967E-001  0.8000000E+02  0.7546771E-02  0.1203772E+00
         11   -1    0    0    0    0  0.00000000000E+00  0.00000000000E+00  0.40000000000E+02  0.40000000000E+02  0.00000000000E+00 0.  1.
        -11   -1    0    0    0    0 -0.00000000000E+00 -0.00000000000E+00 -0.40000000000E+02  0.40000000000E+02  0.00000000000E+00 0. -1.
         23    2    1    2    0    0  0.00000000000E+00  0.00000000000E+00  0.00000000000E+00  0.80000000000E+02  0.80000000000E+02 0.  0.
          5    1    3    3  501    0  0.27949982542E+02  0.80859128219E+01 -0.27043048824E+02  0.40000000000E+02  0.47000000000E+01 0. -1.
         -5    1    3    3    0  501 -0.27949982542E+02 -0.80859128219E+01  0.27043048824E+02  0.40000000000E+02  0.47000000000E+01 0.  1.
</event>
<event>
 5    1  0.4833967E-001  0.8000000E+02  0.7546771E-02  0.1203772E+00
         11   -1    0    0    0    0  0.00000000000E+00  0.00000000000E+00  0.40000000000E+02  0.40000000000E+02  0.00000000000E+00 0.  1.
        -11   -1    0    0    0    0 -0.00000000000E+00 -0.00000000000E+00 -0.40000000000E+02  0.40000000000E+02  0.00000000000E+00 0. -1.
         23    2    1    2    0    0  0.00000000000E+00  0.00000000000E+00  0.00000000000E+00  0.80000000000E+02  0.80000000000E+02 0.  0.
          5    1    3    3  501    0  0.17537250274E+02 -0.32316190613E+02  0.15033917556E+02  0.40000000000E+02  0.47000000000E+01 0. -1.
         -5    1    3    3    0  501 -0.17537250274E+02  0.32316190613E+02 -0.15033917556E+02  0.40000000000E+02  0.47000000000E+01 0.  1.
</event>
<event>
 5    1  0.4833967E-001  0.8000000E+02  0.7546771E-02  0.1203772E+00
         11   -1    0    0    0    0  0.00000000000E+00  0.00000000000E+00  0.40000000000E+02  0.40000000000E+02  0.00000000000E+00 0.  1.
        -11   -1    0    0    0    0 -0.00000000000E+00 -0.00000000000E+00 -0.40000000000E+02  0.40000000000E+02  0.00000000000E+00 0. -1.
         23    2    1    2    0    0  0.00000000000E+00  0.00000000000E+00  0.00000000000E+00  0.80000000000E+02  0.80000000000E+02 0.  0.
          5    1    3    3  501    0  0.23610045134E+02 -0.58772540764E+01 -0.31399580464E+02  0.40000000000E+02  0.47000000000E+01 0. -1.
         -5    1    3    3    0  501 -0.23610045134E+02  0.58772540764E+01  0.31399580464E+02  0.40000000000E+02  0.47000000000E+01 0.  1.
</event>
<event>
 5    1  0.4833967E-001  0.8000000E+02  0.7546771E-02  0.1203772E+00
         11   -1    0    0    0    0  0.00000000000E+00  0.00000000000E+00  0.40000000000E+02  0.40000000000E+02  0.00000000000E+00 0. -1.
        -11   -1    0    0    0    0 -0.00000000000E+00 -0.00000000000E+00 -0.40000000000E+02  0.40000000000E+02  0.00000000000E+00 0.  1.
         23    2    1    2    0    0  0.00000000000E+00  0.00000000000E+00  0.00000000000E+00  0.80000000000E+02  0.80000000000E+02 0.  0.
          5    1    3    3  501    0  0.50209856660E+01 -0.13538744698E+02  0.37005433317E+02  0.40000000000E+02  0.47000000000E+01 0. -1.
         -5    1    3    3    0  501 -0.50209856660E+01  0.13538744698E+02 -0.37005433317E+02  0.40000000000E+02  0.47000000000E+01 0.  1.
</event>
<event>
 5    1  0.4833967E-001  0.8000000E+02  0.7546771E-02  0.1203772E+00
         11   -1    0    0    0    0  0.00000000000E+00  0.00000000000E+00  0.40000000000E+02  0.40000000000E+02  0.00000000000E+00 0. -1.
        -11   -1    0    0    0    0 -0.00000000000E+00 -0.00000000000E+00 -0.40000000000E+02  0.40000000000E+02  0.00000000000E+00 0.  1.
         23    2    1    2    0    0  0.00000000000E+00  0.00000000000E+00  0.00000000000E+00  0.80000000000E+02  0.80000000000E+02 0.  0.
          5    1    3    3  501    0  0.11572111001E+02 -0.22136146957E+02 -0.30886683941E+02  0.40000000000E+02  0.47000000000E+01 0.  1.
         -5    1    3    3    0  501 -0.11572111001E+02  0.22136146957E+02  0.30886683941E+02  0.40000000000E+02  0.47000000000E+01 0. -1.
</event>
<event>
 5    1  0.4833967E-001  0.8000000E+02  0.7546771E-02  0.1203772E+00
         11   -1    0    0    0    0  0.00000000000E+00  0.00000000000E+00  0.40000000000E+02  0.40000000000E+02  0.00000000000E+00 0. -1.
        -11   -1    0    0    0    0 -0.00000000000E+00 -0.00000000000E+00 -0.40000000000E+02  0.40000000000E+02  0.00000000000E+00 0.  1.
         23    2    1    2    0    0  0.00000000000E+00  0.00000000000E+00  0.00000000000E+00  0.80000000000E+02  0.80000000000E+02 0.  0.
          5    1    3    3  501    0 -0.87775131884E+01  0.48636565147E-01  0.38740971809E+02  0.40000000000E+02  0.47000000000E+01 0. -1.
         -5    1    3    3    0  501  0.87775131884E+01 -0.48636565147E-01 -0.38740971809E+02  0.40000000000E+02  0.47000000000E+01 0.  1.
</event>
<event>
 5    1  0.4833967E-001  0.8000000E+02  0.7546771E-02  0.1203772E+00
         11   -1    0    0    0    0  0.00000000000E+00  0.00000000000E+00  0.40000000000E+02  0.40000000000E+02  0.00000000000E+00 0. -1.
        -11   -1    0    0    0    0 -0.00000000000E+00 -0.00000000000E+00 -0.40000000000E+02  0.40000000000E+02  0.00000000000E+00 0.  1.
         23    2    1    2    0    0  0.00000000000E+00  0.00000000000E+00  0.00000000000E+00  0.80000000000E+02  0.80000000000E+02 0.  0.
          5    1    3    3  501    0  0.27557297982E+02 -0.28547539061E+02  0.18823765572E+01  0.40000000000E+02  0.47000000000E+01 0. -1.
         -5    1    3    3    0  501 -0.27557297982E+02  0.28547539061E+02 -0.18823765572E+01  0.40000000000E+02  0.47000000000E+01 0.  1.
</event>
<event>
 5    1  0.4833967E-001  0.8000000E+02  0.7546771E-02  0.1203772E+00
         11   -1    0    0    0    0  0.00000000000E+00  0.00000000000E+00  0.40000000000E+02  0.40000000000E+02  0.00000000000E+00 0. -1.
        -11   -1    0    0    0    0 -0.00000000000E+00 -0.00000000000E+00 -0.40000000000E+02  0.40000000000E+02  0.00000000000E+00 0.  1.
         23    2    1    2    0    0  0.00000000000E+00  0.00000000000E+00  0.00000000000E+00  0.80000000000E+02  0.80000000000E+02 0.  0.
          5    1    3    3  501    0 -0.24030026212E+02  0.23121543953E+02  0.21583837598E+02  0.40000000000E+02  0.47000000000E+01 0. -1.
         -5    1    3    3    0  501  0.24030026212E+02 -0.23121543953E+02 -0.21583837598E+02  0.40000000000E+02  0.47000000000E+01 0.  1.
</event>
<event>
 5    1  0.4833967E-001  0.8000000E+02  0.7546771E-02  0.1203772E+00
         11   -1    0    0    0    0  0.00000000000E+00  0.00000000000E+00  0.40000000000E+02  0.40000000000E+02  0.00000000000E+00 0. -1.
        -11   -1    0    0    0    0 -0.00000000000E+00 -0.00000000000E+00 -0.40000000000E+02  0.40000000000E+02  0.00000000000E+00 0.  1.
         23    2    1    2    0    0  0.00000000000E+00  0.00000000000E+00  0.00000000000E+00  0.80000000000E+02  0.80000000000E+02 0.  0.
          5    1    3    3  501    0 -0.36708779537E+02  0.13673990087E+02 -0.65876778897E+01  0.40000000000E+02  0.47000000000E+01 0. -1.
         -5    1    3    3    0  501  0.36708779537E+02 -0.13673990087E+02  0.65876778897E+01  0.40000000000E+02  0.47000000000E+01 0.  1.
</event>
<event>
 5    1  0.4833967E-001  0.8000000E+02  0.7546771E-02  0.1203772E+00
         11   -1    0    0    0    0  0.00000000000E+00  0.00000000000E+00  0.40000000000E+02  0.40000000000E+02  0.00000000000E+00 0.  1.
        -11   -1    0    0    0    0 -0.00000000000E+00 -0.00000000000E+00 -0.40000000000E+02  0.40000000000E+02  0.00000000000E+00 0. -1.
         23    2    1    2    0    0  0.00000000000E+00  0.00000000000E+00  0.00000000000E+00  0.80000000000E+02  0.80000000000E+02 0.  0.
          5    1    3    3  501    0 -0.18067971948E+02 -0.26289455544E+02 -0.23671141013E+02  0.40000000000E+02  0.47000000000E+01 0. -1.
         -5    1    3    3    0  501  0.18067971948E+02  0.26289455544E+02  0.23671141013E+02  0.40000000000E+02  0.47000000000E+01 0.  1.
</event>
<event>
 5    1  0.4833967E-001  0.8000000E+02  0.7546771E-02  0.1203772E+00
         11   -1    0    0    0    0  0.00000000000E+00  0.00000000000E+00  0.40000000000E+02  0.40000000000E+02  0.00000000000E+00 0. -1.
        -11   -1    0    0    0    0 -0.00000000000E+00 -0.00000000000E+00 -0.40000000000E+02  0.40000000000E+02  0.00000000000E+00 0.  1.
         23    2    1    2    0    0  0.00000000000E+00  0.00000000000E+00  0.00000000000E+00  0.80000000000E+02  0.80000000000E+02 0.  0.
          5    1    3    3  501    0  0.20735143948E+02 -0.61520571263E+01 -0.33318403302E+02  0.40000000000E+02  0.47000000000E+01 0.  1.
         -5    1    3    3    0  501 -0.20735143948E+02  0.61520571263E+01  0.33318403302E+02  0.40000000000E+02  0.47000000000E+01 0. -1.
</event>
<event>
 5    1  0.4833967E-001  0.8000000E+02  0.7546771E-02  0.1203772E+00
         11   -1    0    0    0    0  0.00000000000E+00  0.00000000000E+00  0.40000000000E+02  0.40000000000E+02  0.00000000000E+00 0.  1.
        -11   -1    0    0    0    0 -0.00000000000E+00 -0.00000000000E+00 -0.40000000000E+02  0.40000000000E+02  0.00000000000E+00 0. -1.
         23    2    1    2    0    0  0.00000000000E+00  0.00000000000E+00  0.00000000000E+00  0.80000000000E+02  0.80000000000E+02 0.  0.
          5    1    3    3  501    0  0.37513640271E+02 -0.82639491153E+01 -0.10116518110E+02  0.40000000000E+02  0.47000000000E+01 0. -1.
         -5    1    3    3    0  501 -0.37513640271E+02  0.82639491153E+01  0.10116518110E+02  0.40000000000E+02  0.47000000000E+01 0.  1.
</event>
<event>
 5    1  0.4833967E-001  0.8000000E+02  0.7546771E-02  0.1203772E+00
         11   -1    0    0    0    0  0.00000000000E+00  0.00000000000E+00  0.40000000000E+02  0.40000000000E+02  0.00000000000E+00 0. -1.
        -11   -1    0    0    0    0 -0.00000000000E+00 -0.00000000000E+00 -0.40000000000E+02  0.40000000000E+02  0.00000000000E+00 0.  1.
         23    2    1    2    0    0  0.00000000000E+00  0.00000000000E+00  0.00000000000E+00  0.80000000000E+02  0.80000000000E+02 0.  0.
          5    1    3    3  501    0  0.10979269462E+02 -0.70426681632E+01  0.37520214115E+02  0.40000000000E+02  0.47000000000E+01 0. -1.
         -5    1    3    3    0  501 -0.10979269462E+02  0.70426681632E+01 -0.37520214115E+02  0.40000000000E+02  0.47000000000E+01 0.  1.
</event>
<event>
 5    1  0.4833967E-001  0.8000000E+02  0.7546771E-02  0.1203772E+00
         11   -1    0    0    0    0  0.00000000000E+00  0.00000000000E+00  0.40000000000E+02  0.40000000000E+02  0.00000000000E+00 0.  1.
        -11   -1    0    0    0    0 -0.00000000000E+00 -0.00000000000E+00 -0.40000000000E+02  0.40000000000E+02  0.00000000000E+00 0. -1.
         23    2    1    2    0    0  0.00000000000E+00  0.00000000000E+00  0.00000000000E+00  0.80000000000E+02  0.80000000000E+02 0.  0.
          5    1    3    3  501    0 -0.28102352871E+01  0.16812895059E+02 -0.35879508600E+02  0.40000000000E+02  0.47000000000E+01 0. -1.
         -5    1    3    3    0  501  0.28102352871E+01 -0.16812895059E+02  0.35879508600E+02  0.40000000000E+02  0.47000000000E+01 0.  1.
</event>
<event>
 5    1  0.4833967E-001  0.8000000E+02  0.7546771E-02  0.1203772E+00
         11   -1    0    0    0    0  0.00000000000E+00  0.00000000000E+00  0.40000000000E+02  0.40000000000E+02  0.00000000000E+00 0. -1.
        -11   -1    0    0    0    0 -0.00000000000E+00 -0.00000000000E+00 -0.40000000000E+02  0.40000000000E+02  0.00000000000E+00 0.  1.
         23    2    1    2    0    0  0.00000000000E+00  0.00000000000E+00  0.00000000000E+00  0.80000000000E+02  0.80000000000E+02 0.  0.
          5    1    3    3  501    0 -0.17236282405E+02 -0.32263133069E+02  0.15489054633E+02  0.40000000000E+02  0.47000000000E+01 0. -1.
         -5    1    3    3    0  501  0.17236282405E+02  0.32263133069E+02 -0.15489054633E+02  0.40000000000E+02  0.47000000000E+01 0.  1.
</event>
<event>
 5    1  0.4833967E-001  0.8000000E+02  0.7546771E-02  0.1203772E+00
         11   -1    0    0    0    0  0.00000000000E+00  0.00000000000E+00  0.40000000000E+02  0.40000000000E+02  0.00000000000E+00 0. -1.
        -11   -1    0    0    0    0 -0.00000000000E+00 -0.00000000000E+00 -0.40000000000E+02  0.40000000000E+02  0.00000000000E+00 0.  1.
         23    2    1    2    0    0  0.00000000000E+00  0.00000000000E+00  0.00000000000E+00  0.80000000000E+02  0.80000000000E+02 0.  0.
          5    1    3    3  501    0 -0.16266436066E+02  0.11892841582E+02  0.34232636136E+02  0.40000000000E+02  0.47000000000E+01 0. -1.
         -5    1    3    3    0  501  0.16266436066E+02 -0.11892841582E+02 -0.34232636136E+02  0.40000000000E+02  0.47000000000E+01 0.  1.
</event>
<event>
 5    1  0.4833967E-001  0.8000000E+02  0.7546771E-02  0.1203772E+00
         11   -1    0    0    0    0  0.00000000000E+00  0.00000000000E+00  0.40000000000E+02  0.40000000000E+02  0.00000000000E+00 0.  1.
        -11   -1    0    0    0    0 -0.00000000000E+00 -0.00000000000E+00 -0.40000000000E+02  0.40000000000E+02  0.00000000000E+00 0. -1.
         23    2    1    2    0    0  0.00000000000E+00  0.00000000000E+00  0.00000000000E+00  0.80000000000E+02  0.80000000000E+02 0.  0.
          5    1    3    3  501    0  0.47574181974E+01  0.34574349291E+02 -0.18970802386E+02  0.40000000000E+02  0.47000000000E+01 0. -1.
         -5    1    3    3    0  501 -0.47574181974E+01 -0.34574349291E+02  0.18970802386E+02  0.40000000000E+02  0.47000000000E+01 0.  1.
</event>
<event>
 5    1  0.4833967E-001  0.8000000E+02  0.7546771E-02  0.1203772E+00
         11   -1    0    0    0    0  0.00000000000E+00  0.00000000000E+00  0.40000000000E+02  0.40000000000E+02  0.00000000000E+00 0.  1.
        -11   -1    0    0    0    0 -0.00000000000E+00 -0.00000000000E+00 -0.40000000000E+02  0.40000000000E+02  0.00000000000E+00 0. -1.
         23    2    1    2    0    0  0.00000000000E+00  0.00000000000E+00  0.00000000000E+00  0.80000000000E+02  0.80000000000E+02 0.  0.
          5    1    3    3  501    0 -0.18306486534E+02 -0.35018241243E+02 -0.40626753543E+01  0.40000000000E+02  0.47000000000E+01 0. -1.
         -5    1    3    3    0  501  0.18306486534E+02  0.35018241243E+02  0.40626753543E+01  0.40000000000E+02  0.47000000000E+01 0.  1.
</event>
<event>
 5    1  0.4833967E-001  0.8000000E+02  0.7546771E-02  0.1203772E+00
         11   -1    0    0    0    0  0.00000000000E+00  0.00000000000E+00  0.40000000000E+02  0.40000000000E+02  0.00000000000E+00 0.  1.
        -11   -1    0    0    0    0 -0.00000000000E+00 -0.00000000000E+00 -0.40000000000E+02  0.40000000000E+02  0.00000000000E+00 0. -1.
         23    2    1    2    0    0  0.00000000000E+00  0.00000000000E+00  0.00000000000E+00  0.80000000000E+02  0.80000000000E+02 0.  0.
          5    1    3    3  501    0  0.37526471038E+02  0.73274497415E+01 -0.10769514923E+02  0.40000000000E+02  0.47000000000E+01 0. -1.
         -5    1    3    3    0  501 -0.37526471038E+02 -0.73274497415E+01  0.10769514923E+02  0.40000000000E+02  0.47000000000E+01 0.  1.
</event>
<event>
 5    1  0.4833967E-001  0.8000000E+02  0.7546771E-02  0.1203772E+00
         11   -1    0    0    0    0  0.00000000000E+00  0.00000000000E+00  0.40000000000E+02  0.40000000000E+02  0.00000000000E+00 0. -1.
        -11   -1    0    0    0    0 -0.00000000000E+00 -0.00000000000E+00 -0.40000000000E+02  0.40000000000E+02  0.00000000000E+00 0.  1.
         23    2    1    2    0    0  0.00000000000E+00  0.00000000000E+00  0.00000000000E+00  0.80000000000E+02  0.80000000000E+02 0.  0.
          5    1    3    3  501    0 -0.21893612457E+02 -0.81143239489E+00  0.33134895670E+02  0.40000000000E+02  0.47000000000E+01 0. -1.
         -5    1    3    3    0  501  0.21893612457E+02  0.81143239489E+00 -0.33134895670E+02  0.40000000000E+02  0.47000000000E+01 0.  1.
</event>
<event>
 5    1  0.4833967E-001  0.8000000E+02  0.7546771E-02  0.1203772E+00
         11   -1    0    0    0    0  0.00000000000E+00  0.00000000000E+00  0.40000000000E+02  0.40000000000E+02  0.00000000000E+00 0.  1.
        -11   -1    0    0    0    0 -0.00000000000E+00 -0.00000000000E+00 -0.40000000000E+02  0.40000000000E+02  0.00000000000E+00 0. -1.
         23    2    1    2    0    0  0.00000000000E+00  0.00000000000E+00  0.00000000000E+00  0.80000000000E+02  0.80000000000E+02 0.  0.
          5    1    3    3  501    0  0.72985052984E+01  0.26425533008E+01 -0.38957139685E+02  0.40000000000E+02  0.47000000000E+01 0. -1.
         -5    1    3    3    0  501 -0.72985052984E+01 -0.26425533008E+01  0.38957139685E+02  0.40000000000E+02  0.47000000000E+01 0.  1.
</event>
<event>
 5    1  0.4833967E-001  0.8000000E+02  0.7546771E-02  0.1203772E+00
         11   -1    0    0    0    0  0.00000000000E+00  0.00000000000E+00  0.40000000000E+02  0.40000000000E+02  0.00000000000E+00 0. -1.
        -11   -1    0    0    0    0 -0.00000000000E+00 -0.00000000000E+00 -0.40000000000E+02  0.40000000000E+02  0.00000000000E+00 0.  1.
         23    2    1    2    0    0  0.00000000000E+00  0.00000000000E+00  0.00000000000E+00  0.80000000000E+02  0.80000000000E+02 0.  0.
          5    1    3    3  501    0  0.10899036868E+01 -0.39101642520E+02  0.69125727611E+01  0.40000000000E+02  0.47000000000E+01 0. -1.
         -5    1    3    3    0  501 -0.10899036868E+01  0.39101642520E+02 -0.69125727611E+01  0.40000000000E+02  0.47000000000E+01 0.  1.
</event>
<event>
 5    1  0.4833967E-001  0.8000000E+02  0.7546771E-02  0.1203772E+00
         11   -1    0    0    0    0  0.00000000000E+00  0.00000000000E+00  0.40000000000E+02  0.40000000000E+02  0.00000000000E+00 0. -1.
        -11   -1    0    0    0    0 -0.00000000000E+00 -0.00000000000E+00 -0.40000000000E+02  0.40000000000E+02  0.00000000000E+00 0.  1.
         23    2    1    2    0    0  0.00000000000E+00  0.00000000000E+00  0.00000000000E+00  0.80000000000E+02  0.80000000000E+02 0.  0.
          5    1    3    3  501    0  0.16355399341E+02 -0.18141985031E+02 -0.31325377756E+02  0.40000000000E+02  0.47000000000E+01 0.  1.
         -5    1    3    3    0  501 -0.16355399341E+02  0.18141985031E+02  0.31325377756E+02  0.40000000000E+02  0.47000000000E+01 0. -1.
</event>
<event>
 5    1  0.4833967E-001  0.8000000E+02  0.7546771E-02  0.1203772E+00
         11   -1    0    0    0    0  0.00000000000E+00  0.00000000000E+00  0.40000000000E+02  0.40000000000E+02  0.00000000000E+00 0.  1.
        -11   -1    0    0    0    0 -0.00000000000E+00 -0.00000000000E+00 -0.40000000000E+02  0.40000000000E+02  0.00000000000E+00 0. -1.
         23    2    1    2    0    0  0.00000000000E+00  0.00000000000E+00  0.00000000000E+00  0.80000000000E+02  0.80000000000E+02 0.  0.
          5    1    3    3  501    0  0.25771890791E+02 -0.82635080759E+01 -0.29076349140E+02  0.40000000000E+02  0.47000000000E+01 0. -1.
         -5    1    3    3    0  501 -0.25771890791E+02  0.82635080759E+01  0.29076349140E+02  0.40000000000E+02  0.47000000000E+01 0.  1.
</event>
<event>
 5    1  0.4833967E-001  0.8000000E+02  0.7546771E-02  0.1203772E+00
         11   -1    0    0    0    0  0.00000000000E+00  0.00000000000E+00  0.40000000000E+02  0.40000000000E+02  0.00000000000E+00 0.  1.
        -11   -1    0    0    0    0 -0.00000000000E+00 -0.00000000000E+00 -0.40000000000E+02  0.40000000000E+02  0.00000000000E+00 0. -1.
         23    2    1    2    0    0  0.00000000000E+00  0.00000000000E+00  0.00000000000E+00  0.80000000000E+02  0.80000000000E+02 0.  0.
          5    1    3    3  501    0 -0.21250362602E+02  0.27207916292E+02 -0.19648444731E+02  0.40000000000E+02  0.47000000000E+01 0. -1.
         -5    1    3    3    0  501  0.21250362602E+02 -0.27207916292E+02  0.19648444731E+02  0.40000000000E+02  0.47000000000E+01 0.  1.
</event>
<event>
 5    1  0.4833967E-001  0.8000000E+02  0.7546771E-02  0.1203772E+00
         11   -1    0    0    0    0  0.00000000000E+00  0.00000000000E+00  0.40000000000E+02  0.40000000000E+02  0.00000000000E+00 0.  1.
        -11   -1    0    0    0    0 -0.00000000000E+00 -0.00000000000E+00 -0.40000000000E+02  0.40000000000E+02  0.00000000000E+00 0. -1.
         23    2    1    2    0    0  0.00000000000E+00  0.00000000000E+00  0.00000000000E+00  0.80000000000E+02  0.80000000000E+02 0.  0.
          5    1    3    3  501    0 -0.25729195840E+02  0.25793847595E+02 -0.15830221340E+02  0.40000000000E+02  0.47000000000E+01 0. -1.
         -5    1    3    3    0  501  0.25729195840E+02 -0.25793847595E+02  0.15830221340E+02  0.40000000000E+02  0.47000000000E+01 0.  1.
</event>
<event>
 5    1  0.4833967E-001  0.8000000E+02  0.7546771E-02  0.1203772E+00
         11   -1    0    0    0    0  0.00000000000E+00  0.00000000000E+00  0.40000000000E+02  0.40000000000E+02  0.00000000000E+00 0. -1.
        -11   -1    0    0    0    0 -0.00000000000E+00 -0.00000000000E+00 -0.40000000000E+02  0.40000000000E+02  0.00000000000E+00 0.  1.
         23    2    1    2    0    0  0.00000000000E+00  0.00000000000E+00  0.00000000000E+00  0.80000000000E+02  0.80000000000E+02 0.  0.
          5    1    3    3  501    0 -0.25964035445E+02  0.21357538494E+02 -0.21157372543E+02  0.40000000000E+02  0.47000000000E+01 0.  1.
         -5    1    3    3    0  501  0.25964035445E+02 -0.21357538494E+02  0.21157372543E+02  0.40000000000E+02  0.47000000000E+01 0. -1.
</event>
