<event>
 5    1  0.9023675E-001  0.1000000E+03  0.7546771E-02  0.1163815E+00
         11   -1    0    0    0    0  0.00000000000E+00  0.00000000000E+00  0.50000000000E+02  0.50000000000E+02  0.00000000000E+00 0. -1.
        -11   -1    0    0    0    0 -0.00000000000E+00 -0.00000000000E+00 -0.50000000000E+02  0.50000000000E+02  0.00000000000E+00 0.  1.
         23    2    1    2    0    0  0.00000000000E+00  0.00000000000E+00  0.00000000000E+00  0.10000000000E+03  0.10000000000E+03 0.  0.
          5    1    3    3  501    0 -0.26641032504E+02  0.33425116955E+01  0.41916500363E+02  0.50000000000E+02  0.47000000000E+01 0. -1.
         -5    1    3    3    0  501  0.26641032504E+02 -0.33425116955E+01 -0.41916500363E+02  0.50000000000E+02  0.47000000000E+01 0.  1.
</event>
<event>
 5    1  0.9023675E-001  0.1000000E+03  0.7546771E-02  0.1163815E+00
         11   -1    0    0    0    0  0.00000000000E+00  0.00000000000E+00  0.50000000000E+02  0.50000000000E+02  0.00000000000E+00 0. -1.
        -11   -1    0    0    0    0 -0.00000000000E+00 -0.00000000000E+00 -0.50000000000E+02  0.50000000000E+02  0.00000000000E+00 0.  1.
         23    2    1    2    0    0  0.00000000000E+00  0.00000000000E+00  0.00000000000E+00  0.10000000000E+03  0.10000000000E+03 0.  0.
          5    1    3    3  501    0  0.29446542669E+02  0.33341886472E+02  0.22341211502E+02  0.50000000000E+02  0.47000000000E+01 0. -1.
         -5    1    3    3    0  501 -0.29446542669E+02 -0.33341886472E+02 -0.22341211502E+02  0.50000000000E+02  0.47000000000E+01 0.  1.
</event>
<event>
 5    1  0.9023675E-001  0.1000000E+03  0.7546771E-02  0.1163815E+00
         11   -1    0    0    0    0  0.00000000000E+00  0.00000000000E+00  0.50000000000E+02  0.50000000000E+02  0.00000000000E+00 0. -1.
        -11   -1    0    0    0    0 -0.00000000000E+00 -0.00000000000E+00 -0.50000000000E+02  0.50000000000E+02  0.00000000000E+00 0.  1.
         23    2    1    2    0    0  0.00000000000E+00  0.00000000000E+00  0.00000000000E+00  0.10000000000E+03  0.10000000000E+03 0.  0.
          5    1    3    3  501    0 -0.36626243736E+02  0.33626404470E+02 -0.23860411052E+01  0.50000000000E+02  0.47000000000E+01 0. -1.
         -5    1    3    3    0  501  0.36626243736E+02 -0.33626404470E+02  0.23860411052E+01  0.50000000000E+02  0.47000000000E+01 0.  1.
</event>
<event>
 5    1  0.9023675E-001  0.1000000E+03  0.7546771E-02  0.1163815E+00
         11   -1    0    0    0    0  0.00000000000E+00  0.00000000000E+00  0.50000000000E+02  0.50000000000E+02  0.00000000000E+00 0. -1.
        -11   -1    0    0    0    0 -0.00000000000E+00 -0.00000000000E+00 -0.50000000000E+02  0.50000000000E+02  0.00000000000E+00 0.  1.
         23    2    1    2    0    0  0.00000000000E+00  0.00000000000E+00  0.00000000000E+00  0.10000000000E+03  0.10000000000E+03 0.  0.
          5    1    3    3  501    0 -0.44824135460E+02  0.20711511031E+02  0.63039821617E+01  0.50000000000E+02  0.47000000000E+01 0. -1.
         -5    1    3    3    0  501  0.44824135460E+02 -0.20711511031E+02 -0.63039821617E+01  0.50000000000E+02  0.47000000000E+01 0.  1.
</event>
<event>
 5    1  0.9023675E-001  0.1000000E+03  0.7546771E-02  0.1163815E+00
         11   -1    0    0    0    0  0.00000000000E+00  0.00000000000E+00  0.50000000000E+02  0.50000000000E+02  0.00000000000E+00 0. -1.
        -11   -1    0    0    0    0 -0.00000000000E+00 -0.00000000000E+00 -0.50000000000E+02  0.50000000000E+02  0.00000000000E+00 0.  1.
         23    2    1    2    0    0  0.00000000000E+00  0.00000000000E+00  0.00000000000E+00  0.10000000000E+03  0.10000000000E+03 0.  0.
          5    1    3    3  501    0 -0.25645592939E+02  0.42255641798E+02 -0.58884886927E+01  0.50000000000E+02  0.47000000000E+01 0. -1.
         -5    1    3    3    0  501  0.25645592939E+02 -0.42255641798E+02  0.58884886927E+01  0.50000000000E+02  0.47000000000E+01 0.  1.
</event>
<event>
 5    1  0.9023675E-001  0.1000000E+03  0.7546771E-02  0.1163815E+00
         11   -1    0    0    0    0  0.00000000000E+00  0.00000000000E+00  0.50000000000E+02  0.50000000000E+02  0.00000000000E+00 0. -1.
        -11   -1    0    0    0    0 -0.00000000000E+00 -0.00000000000E+00 -0.50000000000E+02  0.50000000000E+02  0.00000000000E+00 0.  1.
         23    2    1    2    0    0  0.00000000000E+00  0.00000000000E+00  0.00000000000E+00  0.10000000000E+03  0.10000000000E+03 0.  0.
          5    1    3    3  501    0  0.10816309716E+02  0.11550061485E+02  0.47196541439E+02  0.50000000000E+02  0.47000000000E+01 0. -1.
         -5    1    3    3    0  501 -0.10816309716E+02 -0.11550061485E+02 -0.47196541439E+02  0.50000000000E+02  0.47000000000E+01 0.  1.
</event>
<event>
 5    1  0.9023675E-001  0.1000000E+03  0.7546771E-02  0.1163815E+00
         11   -1    0    0    0    0  0.00000000000E+00  0.00000000000E+00  0.50000000000E+02  0.50000000000E+02  0.00000000000E+00 0.  1.
        -11   -1    0    0    0    0 -0.00000000000E+00 -0.00000000000E+00 -0.50000000000E+02  0.50000000000E+02  0.00000000000E+00 0. -1.
         23    2    1    2    0    0  0.00000000000E+00  0.00000000000E+00  0.00000000000E+00  0.10000000000E+03  0.10000000000E+03 0.  0.
          5    1    3    3  501    0 -0.23294815713E+02 -0.20396012432E+02 -0.38977740286E+02  0.50000000000E+02  0.47000000000E+01 0. -1.
         -5    1    3    3    0  501  0.23294815713E+02  0.20396012432E+02  0.38977740286E+02  0.50000000000E+02  0.47000000000E+01 0.  1.
</event>
<event>
 5    1  0.9023675E-001  0.1000000E+03  0.7546771E-02  0.1163815E+00
         11   -1    0    0    0    0  0.00000000000E+00  0.00000000000E+00  0.50000000000E+02  0.50000000000E+02  0.00000000000E+00 0. -1.
        -11   -1    0    0    0    0 -0.00000000000E+00 -0.00000000000E+00 -0.50000000000E+02  0.50000000000E+02  0.00000000000E+00 0.  1.
         23    2    1    2    0    0  0.00000000000E+00  0.00000000000E+00  0.00000000000E+00  0.10000000000E+03  0.10000000000E+03 0.  0.
          5    1    3    3  501    0 -0.17274812329E+02 -0.31799392640E+02  0.34180249951E+02  0.50000000000E+02  0.47000000000E+01 0. -1.
         -5    1    3    3    0  501  0.17274812329E+02  0.31799392640E+02 -0.34180249951E+02  0.50000000000E+02  0.47000000000E+01 0.  1.
</event>
<event>
 5    1  0.9023675E-001  0.1000000E+03  0.7546771E-02  0.1163815E+00
         11   -1    0    0    0    0  0.00000000000E+00  0.00000000000E+00  0.50000000000E+02  0.50000000000E+02  0.00000000000E+00 0. -1.
        -11   -1    0    0    0    0 -0.00000000000E+00 -0.00000000000E+00 -0.50000000000E+02  0.50000000000E+02  0.00000000000E+00 0.  1.
         23    2    1    2    0    0  0.00000000000E+00  0.00000000000E+00  0.00000000000E+00  0.10000000000E+03  0.10000000000E+03 0.  0.
          5    1    3    3  501    0  0.35632178675E+02  0.17494015700E+02  0.30036931560E+02  0.50000000000E+02  0.47000000000E+01 0. -1.
         -5    1    3    3    0  501 -0.35632178675E+02 -0.17494015700E+02 -0.30036931560E+02  0.50000000000E+02  0.47000000000E+01 0.  1.
</event>
<event>
 5    1  0.9023675E-001  0.1000000E+03  0.7546771E-02  0.1163815E+00
         11   -1    0    0    0    0  0.00000000000E+00  0.00000000000E+00  0.50000000000E+02  0.50000000000E+02  0.00000000000E+00 0. -1.
        -11   -1    0    0    0    0 -0.00000000000E+00 -0.00000000000E+00 -0.50000000000E+02  0.50000000000E+02  0.00000000000E+00 0.  1.
         23    2    1    2    0    0  0.00000000000E+00  0.00000000000E+00  0.00000000000E+00  0.10000000000E+03  0.10000000000E+03 0.  0.
          5    1    3    3  501    0 -0.93576835824E+01 -0.11955613467E+01  0.48876521880E+02  0.50000000000E+02  0.47000000000E+01 0. -1.
         -5    1    3    3    0  501  0.93576835824E+01  0.11955613467E+01 -0.48876521880E+02  0.50000000000E+02  0.47000000000E+01 0.  1.
</event>
<event>
 5    1  0.9023675E-001  0.1000000E+03  0.7546771E-02  0.1163815E+00
         11   -1    0    0    0    0  0.00000000000E+00  0.00000000000E+00  0.50000000000E+02  0.50000000000E+02  0.00000000000E+00 0. -1.
        -11   -1    0    0    0    0 -0.00000000000E+00 -0.00000000000E+00 -0.50000000000E+02  0.50000000000E+02  0.00000000000E+00 0.  1.
         23    2    1    2    0    0  0.00000000000E+00  0.00000000000E+00  0.00000000000E+00  0.10000000000E+03  0.10000000000E+03 0.  0.
          5    1    3    3  501    0  0.92702485733E+01  0.17727767285E+02  0.45581780993E+02  0.50000000000E+02  0.47000000000E+01 0. -1.
         -5    1    3    3    0  501 -0.92702485733E+01 -0.17727767285E+02 -0.45581780993E+02  0.50000000000E+02  0.47000000000E+01 0.  1.
</event>
<event>
 5    1  0.9023675E-001  0.1000000E+03  0.7546771E-02  0.1163815E+00
         11   -1    0    0    0    0  0.00000000000E+00  0.00000000000E+00  0.50000000000E+02  0.50000000000E+02  0.00000000000E+00 0. -1.
        -11   -1    0    0    0    0 -0.00000000000E+00 -0.00000000000E+00 -0.50000000000E+02  0.50000000000E+02  0.00000000000E+00 0.  1.
         23    2    1    2    0    0  0.00000000000E+00  0.00000000000E+00  0.00000000000E+00  0.10000000000E+03  0.10000000000E+03 0.  0.
          5    1    3    3  501    0  0.32800500029E+02 -0.27352187510E+02  0.25571371420E+02  0.50000000000E+02  0.47000000000E+01 0. -1.
         -5    1    3    3    0  501 -0.32800500029E+02  0.27352187510E+02 -0.25571371420E+02  0.50000000000E+02  0.47000000000E+01 0.  1.
</event>
<event>
 5    1  0.9023675E-001  0.1000000E+03  0.7546771E-02  0.1163815E+00
         11   -1    0    0    0    0  0.00000000000E+00  0.00000000000E+00  0.50000000000E+02  0.50000000000E+02  0.00000000000E+00 0. -1.
        -11   -1    0    0    0    0 -0.00000000000E+00 -0.00000000000E+00 -0.50000000000E+02  0.50000000000E+02  0.00000000000E+00 0.  1.
         23    2    1    2    0    0  0.00000000000E+00  0.00000000000E+00  0.00000000000E+00  0.10000000000E+03  0.10000000000E+03 0.  0.
          5    1    3    3  501    0 -0.15914816269E+02 -0.32758602081E+02  0.33933797501E+02  0.50000000000E+02  0.47000000000E+01 0. -1.
         -5    1    3    3    0  501  0.15914816269E+02  0.32758602081E+02 -0.33933797501E+02  0.50000000000E+02  0.47000000000E+01 0.  1.
</event>
<event>
 5    1  0.9023675E-001  0.1000000E+03  0.7546771E-02  0.1163815E+00
         11   -1    0    0    0    0  0.00000000000E+00  0.00000000000E+00  0.50000000000E+02  0.50000000000E+02  0.00000000000E+00 0. -1.
        -11   -1    0    0    0    0 -0.00000000000E+00 -0.00000000000E+00 -0.50000000000E+02  0.50000000000E+02  0.00000000000E+00 0.  1.
         23    2    1    2    0    0  0.00000000000E+00  0.00000000000E+00  0.00000000000E+00  0.10000000000E+03  0.10000000000E+03 0.  0.
          5    1    3    3  501    0 -0.46892687190E+00 -0.25854006659E+02  0.42535402282E+02  0.50000000000E+02  0.47000000000E+01 0. -1.
         -5    1    3    3    0  501  0.46892687190E+00  0.25854006659E+02 -0.42535402282E+02  0.50000000000E+02  0.47000000000E+01 0.  1.
</event>
<event>
 5    1  0.9023675E-001  0.1000000E+03  0.7546771E-02  0.1163815E+00
         11   -1    0    0    0    0  0.00000000000E+00  0.00000000000E+00  0.50000000000E+02  0.50000000000E+02  0.00000000000E+00 0.  1.
        -11   -1    0    0    0    0 -0.00000000000E+00 -0.00000000000E+00 -0.50000000000E+02  0.50000000000E+02  0.00000000000E+00 0. -1.
         23    2    1    2    0    0  0.00000000000E+00  0.00000000000E+00  0.00000000000E+00  0.10000000000E+03  0.10000000000E+03 0.  0.
          5    1    3    3  501    0  0.11242616172E+02 -0.29914442553E+02 -0.38165949593E+02  0.50000000000E+02  0.47000000000E+01 0. -1.
         -5    1    3    3    0  501 -0.11242616172E+02  0.29914442553E+02  0.38165949593E+02  0.50000000000E+02  0.47000000000E+01 0.  1.
</event>
<event>
 5    1  0.9023675E-001  0.1000000E+03  0.7546771E-02  0.1163815E+00
         11   -1    0    0    0    0  0.00000000000E+00  0.00000000000E+00  0.50000000000E+02  0.50000000000E+02  0.00000000000E+00 0. -1.
        -11   -1    0    0    0    0 -0.00000000000E+00 -0.00000000000E+00 -0.50000000000E+02  0.50000000000E+02  0.00000000000E+00 0.  1.
         23    2    1    2    0    0  0.00000000000E+00  0.00000000000E+00  0.00000000000E+00  0.10000000000E+03  0.10000000000E+03 0.  0.
          5    1    3    3  501    0 -0.10711730807E+02 -0.27649409324E+01  0.48533740066E+02  0.50000000000E+02  0.47000000000E+01 0. -1.
         -5    1    3    3    0  501  0.10711730807E+02  0.27649409324E+01 -0.48533740066E+02  0.50000000000E+02  0.47000000000E+01 0.  1.
</event>
<event>
 5    1  0.9023675E-001  0.1000000E+03  0.7546771E-02  0.1163815E+00
         11   -1    0    0    0    0  0.00000000000E+00  0.00000000000E+00  0.50000000000E+02  0.50000000000E+02  0.00000000000E+00 0. -1.
        -11   -1    0    0    0    0 -0.00000000000E+00 -0.00000000000E+00 -0.50000000000E+02  0.50000000000E+02  0.00000000000E+00 0.  1.
         23    2    1    2    0    0  0.00000000000E+00  0.00000000000E+00  0.00000000000E+00  0.10000000000E+03  0.10000000000E+03 0.  0.
          5    1    3    3  501    0 -0.26193850375E+02 -0.76656780318E+01  0.41629671904E+02  0.50000000000E+02  0.47000000000E+01 0. -1.
         -5    1    3    3    0  501  0.26193850375E+02  0.76656780318E+01 -0.41629671904E+02  0.50000000000E+02  0.47000000000E+01 0.  1.
</event>
<event>
 5    1  0.9023675E-001  0.1000000E+03  0.7546771E-02  0.1163815E+00
         11   -1    0    0    0    0  0.00000000000E+00  0.00000000000E+00  0.50000000000E+02  0.50000000000E+02  0.00000000000E+00 0. -1.
        -11   -1    0    0    0    0 -0.00000000000E+00 -0.00000000000E+00 -0.50000000000E+02  0.50000000000E+02  0.00000000000E+00 0.  1.
         23    2    1    2    0    0  0.00000000000E+00  0.00000000000E+00  0.00000000000E+00  0.10000000000E+03  0.10000000000E+03 0.  0.
          5    1    3    3  501    0  0.12525850521E+02 -0.40953864565E+02  0.25373096892E+02  0.50000000000E+02  0.47000000000E+01 0. -1.
         -5    1    3    3    0  501 -0.12525850521E+02  0.40953864565E+02 -0.25373096892E+02  0.50000000000E+02  0.47000000000E+01 0.  1.
</event>
<event>
 5    1  0.9023675E-001  0.1000000E+03  0.7546771E-02  0.1163815E+00
         11   -1    0    0    0    0  0.00000000000E+00  0.00000000000E+00  0.50000000000E+02  0.50000000000E+02  0.00000000000E+00 0. -1.
        -11   -1    0    0    0    0 -0.00000000000E+00 -0.00000000000E+00 -0.50000000000E+02  0.50000000000E+02  0.00000000000E+00 0.  1.
         23    2    1    2    0    0  0.00000000000E+00  0.00000000000E+00  0.00000000000E+00  0.10000000000E+03  0.10000000000E+03 0.  0.
          5    1    3    3  501    0 -0.22636363547E+02  0.41306791462E+02  0.16101367161E+02  0.50000000000E+02  0.47000000000E+01 0. -1.
         -5    1    3    3    0  501  0.22636363547E+02 -0.41306791462E+02 -0.16101367161E+02  0.50000000000E+02  0.47000000000E+01 0.  1.
</event>
<event>
 5    1  0.9023675E-001  0.1000000E+03  0.7546771E-02  0.1163815E+00
         11   -1    0    0    0    0  0.00000000000E+00  0.00000000000E+00  0.50000000000E+02  0.50000000000E+02  0.00000000000E+00 0.  1.
        -11   -1    0    0    0    0 -0.00000000000E+00 -0.00000000000E+00 -0.50000000000E+02  0.50000000000E+02  0.00000000000E+00 0. -1.
         23    2    1    2    0    0  0.00000000000E+00  0.00000000000E+00  0.00000000000E+00  0.10000000000E+03  0.10000000000E+03 0.  0.
          5    1    3    3  501    0  0.63754232416E+01 -0.32908444439E+02 -0.36800791609E+02  0.50000000000E+02  0.47000000000E+01 0. -1.
         -5    1    3    3    0  501 -0.63754232416E+01  0.32908444439E+02  0.36800791609E+02  0.50000000000E+02  0.47000000000E+01 0.  1.
</event>
<event>
 5    1  0.9023675E-001  0.1000000E+03  0.7546771E-02  0.1163815E+00
         11   -1    0    0    0    0  0.00000000000E+00  0.00000000000E+00  0.50000000000E+02  0.50000000000E+02  0.00000000000E+00 0. -1.
        -11   -1    0    0    0    0 -0.00000000000E+00 -0.00000000000E+00 -0.50000000000E+02  0.50000000000E+02  0.00000000000E+00 0.  1.
         23    2    1    2    0    0  0.00000000000E+00  0.00000000000E+00  0.00000000000E+00  0.10000000000E+03  0.10000000000E+03 0.  0.
          5    1    3    3  501    0  0.10242112214E+02  0.47674240934E+02  0.10008790576E+02  0.50000000000E+02  0.47000000000E+01 0. -1.
         -5    1    3    3    0  501 -0.10242112214E+02 -0.47674240934E+02 -0.10008790576E+02  0.50000000000E+02  0.47000000000E+01 0.  1.
</event>
<event>
 5    1  0.9023675E-001  0.1000000E+03  0.7546771E-02  0.1163815E+00
         11   -1    0    0    0    0  0.00000000000E+00  0.00000000000E+00  0.50000000000E+02  0.50000000000E+02  0.00000000000E+00 0. -1.
        -11   -1    0    0    0    0 -0.00000000000E+00 -0.00000000000E+00 -0.50000000000E+02  0.50000000000E+02  0.00000000000E+00 0.  1.
         23    2    1    2    0    0  0.00000000000E+00  0.00000000000E+00  0.00000000000E+00  0.10000000000E+03  0.10000000000E+03 0.  0.
          5    1    3    3  501    0 -0.10218989970E+02  0.37345951627E+02  0.31285174461E+02  0.50000000000E+02  0.47000000000E+01 0. -1.
         -5    1    3    3    0  501  0.10218989970E+02 -0.37345951627E+02 -0.31285174461E+02  0.50000000000E+02  0.47000000000E+01 0.  1.
</event>
<event>
 5    1  0.9023675E-001  0.1000000E+03  0.7546771E-02  0.1163815E+00
         11   -1    0    0    0    0  0.00000000000E+00  0.00000000000E+00  0.50000000000E+02  0.50000000000E+02  0.00000000000E+00 0.  1.
        -11   -1    0    0    0    0 -0.00000000000E+00 -0.00000000000E+00 -0.50000000000E+02  0.50000000000E+02  0.00000000000E+00 0. -1.
         23    2    1    2    0    0  0.00000000000E+00  0.00000000000E+00  0.00000000000E+00  0.10000000000E+03  0.10000000000E+03 0.  0.
          5    1    3    3  501    0  0.36706697196E+02 -0.11197840659E+02  0.31703891646E+02  0.50000000000E+02  0.47000000000E+01 0.  1.
         -5    1    3    3    0  501 -0.36706697196E+02  0.11197840659E+02 -0.31703891646E+02  0.50000000000E+02  0.47000000000E+01 0. -1.
</event>
<event>
 5    1  0.9023675E-001  0.1000000E+03  0.7546771E-02  0.1163815E+00
         11   -1    0    0    0    0  0.00000000000E+00  0.00000000000E+00  0.50000000000E+02  0.50000000000E+02  0.00000000000E+00 0. -1.
        -11   -1    0    0    0    0 -0.00000000000E+00 -0.00000000000E+00 -0.50000000000E+02  0.50000000000E+02  0.00000000000E+00 0.  1.
         23    2    1    2    0    0  0.00000000000E+00  0.00000000000E+00  0.00000000000E+00  0.10000000000E+03  0.10000000000E+03 0.  0.
          5    1    3    3  501    0 -0.67039948624E+01 -0.38365129717E+02  0.31001343111E+02  0.50000000000E+02  0.47000000000E+01 0. -1.
         -5    1    3    3    0  501  0.67039948624E+01  0.38365129717E+02 -0.31001343111E+02  0.50000000000E+02  0.47000000000E+01 0.  1.
</event>
<event>
 5    1  0.9023675E-001  0.1000000E+03  0.7546771E-02  0.1163815E+00
         11   -1    0    0    0    0  0.00000000000E+00  0.00000000000E+00  0.50000000000E+02  0.50000000000E+02  0.00000000000E+00 0. -1.
        -11   -1    0    0    0    0 -0.00000000000E+00 -0.00000000000E+00 -0.50000000000E+02  0.50000000000E+02  0.00000000000E+00 0.  1.
         23    2    1    2    0    0  0.00000000000E+00  0.00000000000E+00  0.00000000000E+00  0.10000000000E+03  0.10000000000E+03 0.  0.
          5    1    3    3  501    0  0.20423261933E+02 -0.40109969371E+02  0.21260073590E+02  0.50000000000E+02  0.47000000000E+01 0. -1.
         -5    1    3    3    0  501 -0.20423261933E+02  0.40109969371E+02 -0.21260073590E+02  0.50000000000E+02  0.47000000000E+01 0.  1.
</event>
<event>
 5    1  0.9023675E-001  0.1000000E+03  0.7546771E-02  0.1163815E+00
         11   -1    0    0    0    0  0.00000000000E+00  0.00000000000E+00  0.50000000000E+02  0.50000000000E+02  0.00000000000E+00 0. -1.
        -11   -1    0    0    0    0 -0.00000000000E+00 -0.00000000000E+00 -0.50000000000E+02  0.50000000000E+02  0.00000000000E+00 0.  1.
         23    2    1    2    0    0  0.00000000000E+00  0.00000000000E+00  0.00000000000E+00  0.10000000000E+03  0.10000000000E+03 0.  0.
          5    1    3    3  501    0 -0.56626390258E+01  0.23661045477E+02  0.43428095125E+02  0.50000000000E+02  0.47000000000E+01 0. -1.
         -5    1    3    3    0  501  0.56626390258E+01 -0.23661045477E+02 -0.43428095125E+02  0.50000000000E+02  0.47000000000E+01 0.  1.
</event>
<event>
 5    1  0.9023675E-001  0.1000000E+03  0.7546771E-02  0.1163815E+00
         11   -1    0    0    0    0  0.00000000000E+00  0.00000000000E+00  0.50000000000E+02  0.50000000000E+02  0.00000000000E+00 0. -1.
        -11   -1    0    0    0    0 -0.00000000000E+00 -0.00000000000E+00 -0.50000000000E+02  0.50000000000E+02  0.00000000000E+00 0.  1.
         23    2    1    2    0    0  0.00000000000E+00  0.00000000000E+00  0.00000000000E+00  0.10000000000E+03  0.10000000000E+03 0.  0.
          5    1    3    3  501    0 -0.38383652899E+02 -0.99721447756E+01  0.30085902325E+02  0.50000000000E+02  0.47000000000E+01 0. -1.
         -5    1    3    3    0  501  0.38383652899E+02  0.99721447756E+01 -0.30085902325E+02  0.50000000000E+02  0.47000000000E+01 0.  1.
</event>
<event>
 5    1  0.9023675E-001  0.1000000E+03  0.7546771E-02  0.1163815E+00
         11   -1    0    0    0    0  0.00000000000E+00  0.00000000000E+00  0.50000000000E+02  0.50000000000E+02  0.00000000000E+00 0.  1.
        -11   -1    0    0    0    0 -0.00000000000E+00 -0.00000000000E+00 -0.50000000000E+02  0.50000000000E+02  0.00000000000E+00 0. -1.
         23    2    1    2    0    0  0.00000000000E+00  0.00000000000E+00  0.00000000000E+00  0.10000000000E+03  0.10000000000E+03 0.  0.
          5    1    3    3  501    0  0.17762930381E+02 -0.23652611326E+02 -0.40036761629E+02  0.50000000000E+02  0.47000000000E+01 0. -1.
         -5    1    3    3    0  501 -0.17762930381E+02  0.23652611326E+02  0.40036761629E+02  0.50000000000E+02  0.47000000000E+01 0.  1.
</event>
<event>
 5    1  0.9023675E-001  0.1000000E+03  0.7546771E-02  0.1163815E+00
         11   -1    0    0    0    0  0.00000000000E+00  0.00000000000E+00  0.50000000000E+02  0.50000000000E+02  0.00000000000E+00 0.  1.
        -11   -1    0    0    0    0 -0.00000000000E+00 -0.00000000000E+00 -0.50000000000E+02  0.50000000000E+02  0.00000000000E+00 0. -1.
         23    2    1    2    0    0  0.00000000000E+00  0.00000000000E+00  0.00000000000E+00  0.10000000000E+03  0.10000000000E+03 0.  0.
          5    1    3    3  501    0  0.12568587522E+02 -0.18312775000E+01 -0.48130936313E+02  0.50000000000E+02  0.47000000000E+01 0. -1.
         -5    1    3    3    0  501 -0.12568587522E+02  0.18312775000E+01  0.48130936313E+02  0.50000000000E+02  0.47000000000E+01 0.  1.
</event>
<event>
 5    1  0.9023675E-001  0.1000000E+03  0.7546771E-02  0.1163815E+00
         11   -1    0    0    0    0  0.00000000000E+00  0.00000000000E+00  0.50000000000E+02  0.50000000000E+02  0.00000000000E+00 0. -1.
        -11   -1    0    0    0    0 -0.00000000000E+00 -0.00000000000E+00 -0.50000000000E+02  0.50000000000E+02  0.00000000000E+00 0.  1.
         23    2    1    2    0    0  0.00000000000E+00  0.00000000000E+00  0.00000000000E+00  0.10000000000E+03  0.10000000000E+03 0.  0.
          5    1    3    3  501    0 -0.32524520134E+02 -0.20495161073E+02  0.31622997370E+02  0.50000000000E+02  0.47000000000E+01 0. -1.
         -5    1    3    3    0  501  0.32524520134E+02  0.20495161073E+02 -0.31622997370E+02  0.50000000000E+02  0.47000000000E+01 0.  1.
</event>
<event>
 5    1  0.9023675E-001  0.1000000E+03  0.7546771E-02  0.1163815E+00
         11   -1    0    0    0    0  0.00000000000E+00  0.00000000000E+00  0.50000000000E+02  0.50000000000E+02  0.00000000000E+00 0. -1.
        -11   -1    0    0    0    0 -0.00000000000E+00 -0.00000000000E+00 -0.50000000000E+02  0.50000000000E+02  0.00000000000E+00 0.  1.
         23    2    1    2    0    0  0.00000000000E+00  0.00000000000E+00  0.00000000000E+00  0.10000000000E+03  0.10000000000E+03 0.  0.
          5    1    3    3  501    0  0.39842763792E+02  0.26954247972E+02  0.12803620178E+02  0.50000000000E+02  0.47000000000E+01 0. -1.
         -5    1    3    3    0  501 -0.39842763792E+02 -0.26954247972E+02 -0.12803620178E+02  0.50000000000E+02  0.47000000000E+01 0.  1.
</event>
<event>
 5    1  0.9023675E-001  0.1000000E+03  0.7546771E-02  0.1163815E+00
         11   -1    0    0    0    0  0.00000000000E+00  0.00000000000E+00  0.50000000000E+02  0.50000000000E+02  0.00000000000E+00 0.  1.
        -11   -1    0    0    0    0 -0.00000000000E+00 -0.00000000000E+00 -0.50000000000E+02  0.50000000000E+02  0.00000000000E+00 0. -1.
         23    2    1    2    0    0  0.00000000000E+00  0.00000000000E+00  0.00000000000E+00  0.10000000000E+03  0.10000000000E+03 0.  0.
          5    1    3    3  501    0  0.42120077501E+02 -0.26529370142E+02 -0.39889873207E-01  0.50000000000E+02  0.47000000000E+01 0. -1.
         -5    1    3    3    0  501 -0.42120077501E+02  0.26529370142E+02  0.39889873207E-01  0.50000000000E+02  0.47000000000E+01 0.  1.
</event>
<event>
 5    1  0.9023675E-001  0.1000000E+03  0.7546771E-02  0.1163815E+00
         11   -1    0    0    0    0  0.00000000000E+00  0.00000000000E+00  0.50000000000E+02  0.50000000000E+02  0.00000000000E+00 0. -1.
        -11   -1    0    0    0    0 -0.00000000000E+00 -0.00000000000E+00 -0.50000000000E+02  0.50000000000E+02  0.00000000000E+00 0.  1.
         23    2    1    2    0    0  0.00000000000E+00  0.00000000000E+00  0.00000000000E+00  0.10000000000E+03  0.10000000000E+03 0.  0.
          5    1    3    3  501    0  0.63100890130E+01  0.46093544631E+02 -0.17705307678E+02  0.50000000000E+02  0.47000000000E+01 0. -1.
         -5    1    3    3    0  501 -0.63100890130E+01 -0.46093544631E+02  0.17705307678E+02  0.50000000000E+02  0.47000000000E+01 0.  1.
</event>
<event>
 5    1  0.9023675E-001  0.1000000E+03  0.7546771E-02  0.1163815E+00
         11   -1    0    0    0    0  0.00000000000E+00  0.00000000000E+00  0.50000000000E+02  0.50000000000E+02  0.00000000000E+00 0. -1.
        -11   -1    0    0    0    0 -0.00000000000E+00 -0.00000000000E+00 -0.50000000000E+02  0.50000000000E+02  0.00000000000E+00 0.  1.
         23    2    1    2    0    0  0.00000000000E+00  0.00000000000E+00  0.00000000000E+00  0.10000000000E+03  0.10000000000E+03 0.  0.
          5    1    3    3  501    0  0.48134974339E+01 -0.13131835403E+02  0.47773372724E+02  0.50000000000E+02  0.47000000000E+01 0. -1.
         -5    1    3    3    0  501 -0.48134974339E+01  0.13131835403E+02 -0.47773372724E+02  0.50000000000E+02  0.47000000000E+01 0.  1.
</event>
<event>
 5    1  0.9023675E-001  0.1000000E+03  0.7546771E-02  0.1163815E+00
         11   -1    0    0    0    0  0.00000000000E+00  0.00000000000E+00  0.50000000000E+02  0.50000000000E+02  0.00000000000E+00 0. -1.
        -11   -1    0    0    0    0 -0.00000000000E+00 -0.00000000000E+00 -0.50000000000E+02  0.50000000000E+02  0.00000000000E+00 0.  1.
         23    2    1    2    0    0  0.00000000000E+00  0.00000000000E+00  0.00000000000E+00  0.10000000000E+03  0.10000000000E+03 0.  0.
          5    1    3    3  501    0 -0.38877069638E+02  0.31083828695E+02 -0.52825184774E+00  0.50000000000E+02  0.47000000000E+01 0. -1.
         -5    1    3    3    0  501  0.38877069638E+02 -0.31083828695E+02  0.52825184774E+00  0.50000000000E+02  0.47000000000E+01 0.  1.
</event>
<event>
 5    1  0.9023675E-001  0.1000000E+03  0.7546771E-02  0.1163815E+00
         11   -1    0    0    0    0  0.00000000000E+00  0.00000000000E+00  0.50000000000E+02  0.50000000000E+02  0.00000000000E+00 0. -1.
        -11   -1    0    0    0    0 -0.00000000000E+00 -0.00000000000E+00 -0.50000000000E+02  0.50000000000E+02  0.00000000000E+00 0.  1.
         23    2    1    2    0    0  0.00000000000E+00  0.00000000000E+00  0.00000000000E+00  0.10000000000E+03  0.10000000000E+03 0.  0.
          5    1    3    3  501    0  0.44652575508E+02 -0.10756598160E+02 -0.19192527102E+02  0.50000000000E+02  0.47000000000E+01 0. -1.
         -5    1    3    3    0  501 -0.44652575508E+02  0.10756598160E+02  0.19192527102E+02  0.50000000000E+02  0.47000000000E+01 0.  1.
</event>
<event>
 5    1  0.9023675E-001  0.1000000E+03  0.7546771E-02  0.1163815E+00
         11   -1    0    0    0    0  0.00000000000E+00  0.00000000000E+00  0.50000000000E+02  0.50000000000E+02  0.00000000000E+00 0. -1.
        -11   -1    0    0    0    0 -0.00000000000E+00 -0.00000000000E+00 -0.50000000000E+02  0.50000000000E+02  0.00000000000E+00 0.  1.
         23    2    1    2    0    0  0.00000000000E+00  0.00000000000E+00  0.00000000000E+00  0.10000000000E+03  0.10000000000E+03 0.  0.
          5    1    3    3  501    0  0.22910909103E+02 -0.38839128663E+02  0.21083698175E+02  0.50000000000E+02  0.47000000000E+01 0. -1.
         -5    1    3    3    0  501 -0.22910909103E+02  0.38839128663E+02 -0.21083698175E+02  0.50000000000E+02  0.47000000000E+01 0.  1.
</event>
<event>
 5    1  0.9023675E-001  0.1000000E+03  0.7546771E-02  0.1163815E+00
         11   -1    0    0    0    0  0.00000000000E+00  0.00000000000E+00  0.50000000000E+02  0.50000000000E+02  0.00000000000E+00 0.  1.
        -11   -1    0    0    0    0 -0.00000000000E+00 -0.00000000000E+00 -0.50000000000E+02  0.50000000000E+02  0.00000000000E+00 0. -1.
         23    2    1    2    0    0  0.00000000000E+00  0.00000000000E+00  0.00000000000E+00  0.10000000000E+03  0.10000000000E+03 0.  0.
          5    1    3    3  501    0  0.28856201648E+01  0.43295113360E+02 -0.24395006772E+02  0.50000000000E+02  0.47000000000E+01 0. -1.
         -5    1    3    3    0  501 -0.28856201648E+01 -0.43295113360E+02  0.24395006772E+02  0.50000000000E+02  0.47000000000E+01 0.  1.
</event>
<event>
 5    1  0.9023675E-001  0.1000000E+03  0.7546771E-02  0.1163815E+00
         11   -1    0    0    0    0  0.00000000000E+00  0.00000000000E+00  0.50000000000E+02  0.50000000000E+02  0.00000000000E+00 0. -1.
        -11   -1    0    0    0    0 -0.00000000000E+00 -0.00000000000E+00 -0.50000000000E+02  0.50000000000E+02  0.00000000000E+00 0.  1.
         23    2    1    2    0    0  0.00000000000E+00  0.00000000000E+00  0.00000000000E+00  0.10000000000E+03  0.10000000000E+03 0.  0.
          5    1    3    3  501    0  0.39958597511E+02  0.12205851171E+02  0.27059890652E+02  0.50000000000E+02  0.47000000000E+01 0. -1.
         -5    1    3    3    0  501 -0.39958597511E+02 -0.12205851171E+02 -0.27059890652E+02  0.50000000000E+02  0.47000000000E+01 0.  1.
</event>
<event>
 5    1  0.9023675E-001  0.1000000E+03  0.7546771E-02  0.1163815E+00
         11   -1    0    0    0    0  0.00000000000E+00  0.00000000000E+00  0.50000000000E+02  0.50000000000E+02  0.00000000000E+00 0. -1.
        -11   -1    0    0    0    0 -0.00000000000E+00 -0.00000000000E+00 -0.50000000000E+02  0.50000000000E+02  0.00000000000E+00 0.  1.
         23    2    1    2    0    0  0.00000000000E+00  0.00000000000E+00  0.00000000000E+00  0.10000000000E+03  0.10000000000E+03 0.  0.
          5    1    3    3  501    0 -0.23382324833E+02  0.40749429251E+02  0.16451775014E+02  0.50000000000E+02  0.47000000000E+01 0. -1.
         -5    1    3    3    0  501  0.23382324833E+02 -0.40749429251E+02 -0.16451775014E+02  0.50000000000E+02  0.47000000000E+01 0.  1.
</event>
<event>
 5    1  0.9023675E-001  0.1000000E+03  0.7546771E-02  0.1163815E+00
         11   -1    0    0    0    0  0.00000000000E+00  0.00000000000E+00  0.50000000000E+02  0.50000000000E+02  0.00000000000E+00 0. -1.
        -11   -1    0    0    0    0 -0.00000000000E+00 -0.00000000000E+00 -0.50000000000E+02  0.50000000000E+02  0.00000000000E+00 0.  1.
         23    2    1    2    0    0  0.00000000000E+00  0.00000000000E+00  0.00000000000E+00  0.10000000000E+03  0.10000000000E+03 0.  0.
          5    1    3    3  501    0  0.91751880270E+01  0.40253023697E+02  0.27810429840E+02  0.50000000000E+02  0.47000000000E+01 0. -1.
         -5    1    3    3    0  501 -0.91751880270E+01 -0.40253023697E+02 -0.27810429840E+02  0.50000000000E+02  0.47000000000E+01 0.  1.
</event>
<event>
 5    1  0.9023675E-001  0.1000000E+03  0.7546771E-02  0.1163815E+00
         11   -1    0    0    0    0  0.00000000000E+00  0.00000000000E+00  0.50000000000E+02  0.50000000000E+02  0.00000000000E+00 0.  1.
        -11   -1    0    0    0    0 -0.00000000000E+00 -0.00000000000E+00 -0.50000000000E+02  0.50000000000E+02  0.00000000000E+00 0. -1.
         23    2    1    2    0    0  0.00000000000E+00  0.00000000000E+00  0.00000000000E+00  0.10000000000E+03  0.10000000000E+03 0.  0.
          5    1    3    3  501    0  0.10767662103E+02  0.42631786554E+02  0.23334485811E+02  0.50000000000E+02  0.47000000000E+01 0.  1.
         -5    1    3    3    0  501 -0.10767662103E+02 -0.42631786554E+02 -0.23334485811E+02  0.50000000000E+02  0.47000000000E+01 0. -1.
</event>
<event>
 5    1  0.9023675E-001  0.1000000E+03  0.7546771E-02  0.1163815E+00
         11   -1    0    0    0    0  0.00000000000E+00  0.00000000000E+00  0.50000000000E+02  0.50000000000E+02  0.00000000000E+00 0.  1.
        -11   -1    0    0    0    0 -0.00000000000E+00 -0.00000000000E+00 -0.50000000000E+02  0.50000000000E+02  0.00000000000E+00 0. -1.
         23    2    1    2    0    0  0.00000000000E+00  0.00000000000E+00  0.00000000000E+00  0.10000000000E+03  0.10000000000E+03 0.  0.
          5    1    3    3  501    0 -0.93300523795E+01 -0.48820582144E+02  0.27222934672E+01  0.50000000000E+02  0.47000000000E+01 0. -1.
         -5    1    3    3    0  501  0.93300523795E+01  0.48820582144E+02 -0.27222934672E+01  0.50000000000E+02  0.47000000000E+01 0.  1.
</event>
<event>
 5    1  0.9023675E-001  0.1000000E+03  0.7546771E-02  0.1163815E+00
         11   -1    0    0    0    0  0.00000000000E+00  0.00000000000E+00  0.50000000000E+02  0.50000000000E+02  0.00000000000E+00 0. -1.
        -11   -1    0    0    0    0 -0.00000000000E+00 -0.00000000000E+00 -0.50000000000E+02  0.50000000000E+02  0.00000000000E+00 0.  1.
         23    2    1    2    0    0  0.00000000000E+00  0.00000000000E+00  0.00000000000E+00  0.10000000000E+03  0.10000000000E+03 0.  0.
          5    1    3    3  501    0 -0.32863267567E+02 -0.25460988943E+02  0.27379804361E+02  0.50000000000E+02  0.47000000000E+01 0. -1.
         -5    1    3    3    0  501  0.32863267567E+02  0.25460988943E+02 -0.27379804361E+02  0.50000000000E+02  0.47000000000E+01 0.  1.
</event>
<event>
 5    1  0.9023675E-001  0.1000000E+03  0.7546771E-02  0.1163815E+00
         11   -1    0    0    0    0  0.00000000000E+00  0.00000000000E+00  0.50000000000E+02  0.50000000000E+02  0.00000000000E+00 0.  1.
        -11   -1    0    0    0    0 -0.00000000000E+00 -0.00000000000E+00 -0.50000000000E+02  0.50000000000E+02  0.00000000000E+00 0. -1.
         23    2    1    2    0    0  0.00000000000E+00  0.00000000000E+00  0.00000000000E+00  0.10000000000E+03  0.10000000000E+03 0.  0.
          5    1    3    3  501    0 -0.17536663665E+02  0.91605177566E+01 -0.45677788278E+02  0.50000000000E+02  0.47000000000E+01 0. -1.
         -5    1    3    3    0  501  0.17536663665E+02 -0.91605177566E+01  0.45677788278E+02  0.50000000000E+02  0.47000000000E+01 0.  1.
</event>
<event>
 5    1  0.9023675E-001  0.1000000E+03  0.7546771E-02  0.1163815E+00
         11   -1    0    0    0    0  0.00000000000E+00  0.00000000000E+00  0.50000000000E+02  0.50000000000E+02  0.00000000000E+00 0. -1.
        -11   -1    0    0    0    0 -0.00000000000E+00 -0.00000000000E+00 -0.50000000000E+02  0.50000000000E+02  0.00000000000E+00 0.  1.
         23    2    1    2    0    0  0.00000000000E+00  0.00000000000E+00  0.00000000000E+00  0.10000000000E+03  0.10000000000E+03 0.  0.
          5    1    3    3  501    0  0.17943338886E+02  0.14968383471E+02  0.43953317120E+02  0.50000000000E+02  0.47000000000E+01 0. -1.
         -5    1    3    3    0  501 -0.17943338886E+02 -0.14968383471E+02 -0.43953317120E+02  0.50000000000E+02  0.47000000000E+01 0.  1.
</event>
<event>
 5    1  0.9023675E-001  0.1000000E+03  0.7546771E-02  0.1163815E+00
         11   -1    0    0    0    0  0.00000000000E+00  0.00000000000E+00  0.50000000000E+02  0.50000000000E+02  0.00000000000E+00 0.  1.
        -11   -1    0    0    0    0 -0.00000000000E+00 -0.00000000000E+00 -0.50000000000E+02  0.50000000000E+02  0.00000000000E+00 0. -1.
         23    2    1    2    0    0  0.00000000000E+00  0.00000000000E+00  0.00000000000E+00  0.10000000000E+03  0.10000000000E+03 0.  0.
          5    1    3    3  501    0  0.35398295079E+02 -0.47623362473E+01 -0.34672624056E+02  0.50000000000E+02  0.47000000000E+01 0. -1.
         -5    1    3    3    0  501 -0.35398295079E+02  0.47623362473E+01  0.34672624056E+02  0.50000000000E+02  0.47000000000E+01 0.  1.
</event>
<event>
 5    1  0.9023675E-001  0.1000000E+03  0.7546771E-02  0.1163815E+00
         11   -1    0    0    0    0  0.00000000000E+00  0.00000000000E+00  0.50000000000E+02  0.50000000000E+02  0.00000000000E+00 0.  1.
        -11   -1    0    0    0    0 -0.00000000000E+00 -0.00000000000E+00 -0.50000000000E+02  0.50000000000E+02  0.00000000000E+00 0. -1.
         23    2    1    2    0    0  0.00000000000E+00  0.00000000000E+00  0.00000000000E+00  0.10000000000E+03  0.10000000000E+03 0.  0.
          5    1    3    3  501    0 -0.14917006413E+02  0.72140019246E+01 -0.46939866807E+02  0.50000000000E+02  0.47000000000E+01 0. -1.
         -5    1    3    3    0  501  0.14917006413E+02 -0.72140019246E+01  0.46939866807E+02  0.50000000000E+02  0.47000000000E+01 0.  1.
</event>
<event>
 5    1  0.9023675E-001  0.1000000E+03  0.7546771E-02  0.1163815E+00
         11   -1    0    0    0    0  0.00000000000E+00  0.00000000000E+00  0.50000000000E+02  0.50000000000E+02  0.00000000000E+00 0.  1.
        -11   -1    0    0    0    0 -0.00000000000E+00 -0.00000000000E+00 -0.50000000000E+02  0.50000000000E+02  0.00000000000E+00 0. -1.
         23    2    1    2    0    0  0.00000000000E+00  0.00000000000E+00  0.00000000000E+00  0.10000000000E+03  0.10000000000E+03 0.  0.
          5    1    3    3  501    0 -0.22561577011E+02  0.75109045476E+01 -0.43731813999E+02  0.50000000000E+02  0.47000000000E+01 0. -1.
         -5    1    3    3    0  501  0.22561577011E+02 -0.75109045476E+01  0.43731813999E+02  0.50000000000E+02  0.47000000000E+01 0.  1.
</event>
<event>
 5    1  0.9023675E-001  0.1000000E+03  0.7546771E-02  0.1163815E+00
         11   -1    0    0    0    0  0.00000000000E+00  0.00000000000E+00  0.50000000000E+02  0.50000000000E+02  0.00000000000E+00 0.  1.
        -11   -1    0    0    0    0 -0.00000000000E+00 -0.00000000000E+00 -0.50000000000E+02  0.50000000000E+02  0.00000000000E+00 0. -1.
         23    2    1    2    0    0  0.00000000000E+00  0.00000000000E+00  0.00000000000E+00  0.10000000000E+03  0.10000000000E+03 0.  0.
          5    1    3    3  501    0 -0.23519653353E+02  0.24156150014E+02 -0.36622620368E+02  0.50000000000E+02  0.47000000000E+01 0. -1.
         -5    1    3    3    0  501  0.23519653353E+02 -0.24156150014E+02  0.36622620368E+02  0.50000000000E+02  0.47000000000E+01 0.  1.
</event>
<event>
 5    1  0.9023675E-001  0.1000000E+03  0.7546771E-02  0.1163815E+00
         11   -1    0    0    0    0  0.00000000000E+00  0.00000000000E+00  0.50000000000E+02  0.50000000000E+02  0.00000000000E+00 0. -1.
        -11   -1    0    0    0    0 -0.00000000000E+00 -0.00000000000E+00 -0.50000000000E+02  0.50000000000E+02  0.00000000000E+00 0.  1.
         23    2    1    2    0    0  0.00000000000E+00  0.00000000000E+00  0.00000000000E+00  0.10000000000E+03  0.10000000000E+03 0.  0.
          5    1    3    3  501    0 -0.84839851264E+01  0.13015155509E+02  0.47292047148E+02  0.50000000000E+02  0.47000000000E+01 0. -1.
         -5    1    3    3    0  501  0.84839851264E+01 -0.13015155509E+02 -0.47292047148E+02  0.50000000000E+02  0.47000000000E+01 0.  1.
</event>
<event>
 5    1  0.9023675E-001  0.1000000E+03  0.7546771E-02  0.1163815E+00
         11   -1    0    0    0    0  0.00000000000E+00  0.00000000000E+00  0.50000000000E+02  0.50000000000E+02  0.00000000000E+00 0. -1.
        -11   -1    0    0    0    0 -0.00000000000E+00 -0.00000000000E+00 -0.50000000000E+02  0.50000000000E+02  0.00000000000E+00 0.  1.
         23    2    1    2    0    0  0.00000000000E+00  0.00000000000E+00  0.00000000000E+00  0.10000000000E+03  0.10000000000E+03 0.  0.
          5    1    3    3  501    0 -0.29819614191E+02 -0.37745803636E+02  0.12804488172E+02  0.50000000000E+02  0.47000000000E+01 0. -1.
         -5    1    3    3    0  501  0.29819614191E+02  0.37745803636E+02 -0.12804488172E+02  0.50000000000E+02  0.47000000000E+01 0.  1.
</event>
<event>
 5    1  0.9023675E-001  0.1000000E+03  0.7546771E-02  0.1163815E+00
         11   -1    0    0    0    0  0.00000000000E+00  0.00000000000E+00  0.50000000000E+02  0.50000000000E+02  0.00000000000E+00 0.  1.
        -11   -1    0    0    0    0 -0.00000000000E+00 -0.00000000000E+00 -0.50000000000E+02  0.50000000000E+02  0.00000000000E+00 0. -1.
         23    2    1    2    0    0  0.00000000000E+00  0.00000000000E+00  0.00000000000E+00  0.10000000000E+03  0.10000000000E+03 0.  0.
          5    1    3    3  501    0 -0.23124618870E+01 -0.28836402123E+02 -0.40509559768E+02  0.50000000000E+02  0.47000000000E+01 0. -1.
         -5    1    3    3    0  501  0.23124618870E+01  0.28836402123E+02  0.40509559768E+02  0.50000000000E+02  0.47000000000E+01 0.  1.
</event>
<event>
 5    1  0.9023675E-001  0.1000000E+03  0.7546771E-02  0.1163815E+00
         11   -1    0    0    0    0  0.00000000000E+00  0.00000000000E+00  0.50000000000E+02  0.50000000000E+02  0.00000000000E+00 0.  1.
        -11   -1    0    0    0    0 -0.00000000000E+00 -0.00000000000E+00 -0.50000000000E+02  0.50000000000E+02  0.00000000000E+00 0. -1.
         23    2    1    2    0    0  0.00000000000E+00  0.00000000000E+00  0.00000000000E+00  0.10000000000E+03  0.10000000000E+03 0.  0.
          5    1    3    3  501    0  0.45278148642E+02  0.20643390503E+02  0.12844002817E+01  0.50000000000E+02  0.47000000000E+01 0.  1.
         -5    1    3    3    0  501 -0.45278148642E+02 -0.20643390503E+02 -0.12844002817E+01  0.50000000000E+02  0.47000000000E+01 0. -1.
</event>
<event>
 5    1  0.9023675E-001  0.1000000E+03  0.7546771E-02  0.1163815E+00
         11   -1    0    0    0    0  0.00000000000E+00  0.00000000000E+00  0.50000000000E+02  0.50000000000E+02  0.00000000000E+00 0.  1.
        -11   -1    0    0    0    0 -0.00000000000E+00 -0.00000000000E+00 -0.50000000000E+02  0.50000000000E+02  0.00000000000E+00 0. -1.
         23    2    1    2    0    0  0.00000000000E+00  0.00000000000E+00  0.00000000000E+00  0.10000000000E+03  0.10000000000E+03 0.  0.
          5    1    3    3  501    0 -0.95189308453E+01  0.21930834649E+01 -0.48810760499E+02  0.50000000000E+02  0.47000000000E+01 0. -1.
         -5    1    3    3    0  501  0.95189308453E+01 -0.21930834649E+01  0.48810760499E+02  0.50000000000E+02  0.47000000000E+01 0.  1.
</event>
<event>
 5    1  0.9023675E-001  0.1000000E+03  0.7546771E-02  0.1163815E+00
         11   -1    0    0    0    0  0.00000000000E+00  0.00000000000E+00  0.50000000000E+02  0.50000000000E+02  0.00000000000E+00 0.  1.
        -11   -1    0    0    0    0 -0.00000000000E+00 -0.00000000000E+00 -0.50000000000E+02  0.50000000000E+02  0.00000000000E+00 0. -1.
         23    2    1    2    0    0  0.00000000000E+00  0.00000000000E+00  0.00000000000E+00  0.10000000000E+03  0.10000000000E+03 0.  0.
          5    1    3    3  501    0  0.11766981440E+02  0.58631656048E+01 -0.48011159504E+02  0.50000000000E+02  0.47000000000E+01 0. -1.
         -5    1    3    3    0  501 -0.11766981440E+02 -0.58631656048E+01  0.48011159504E+02  0.50000000000E+02  0.47000000000E+01 0.  1.
</event>
<event>
 5    1  0.9023675E-001  0.1000000E+03  0.7546771E-02  0.1163815E+00
         11   -1    0    0    0    0  0.00000000000E+00  0.00000000000E+00  0.50000000000E+02  0.50000000000E+02  0.00000000000E+00 0. -1.
        -11   -1    0    0    0    0 -0.00000000000E+00 -0.00000000000E+00 -0.50000000000E+02  0.50000000000E+02  0.00000000000E+00 0.  1.
         23    2    1    2    0    0  0.00000000000E+00  0.00000000000E+00  0.00000000000E+00  0.10000000000E+03  0.10000000000E+03 0.  0.
          5    1    3    3  501    0  0.95668471459E+01 -0.40413604399E+00  0.48848972453E+02  0.50000000000E+02  0.47000000000E+01 0. -1.
         -5    1    3    3    0  501 -0.95668471459E+01  0.40413604399E+00 -0.48848972453E+02  0.50000000000E+02  0.47000000000E+01 0.  1.
</event>
<event>
 5    1  0.9023675E-001  0.1000000E+03  0.7546771E-02  0.1163815E+00
         11   -1    0    0    0    0  0.00000000000E+00  0.00000000000E+00  0.50000000000E+02  0.50000000000E+02  0.00000000000E+00 0. -1.
        -11   -1    0    0    0    0 -0.00000000000E+00 -0.00000000000E+00 -0.50000000000E+02  0.50000000000E+02  0.00000000000E+00 0.  1.
         23    2    1    2    0    0  0.00000000000E+00  0.00000000000E+00  0.00000000000E+00  0.10000000000E+03  0.10000000000E+03 0.  0.
          5    1    3    3  501    0  0.23679069295E+02  0.39385809205E+02  0.19130334828E+02  0.50000000000E+02  0.47000000000E+01 0. -1.
         -5    1    3    3    0  501 -0.23679069295E+02 -0.39385809205E+02 -0.19130334828E+02  0.50000000000E+02  0.47000000000E+01 0.  1.
</event>
<event>
 5    1  0.9023675E-001  0.1000000E+03  0.7546771E-02  0.1163815E+00
         11   -1    0    0    0    0  0.00000000000E+00  0.00000000000E+00  0.50000000000E+02  0.50000000000E+02  0.00000000000E+00 0. -1.
        -11   -1    0    0    0    0 -0.00000000000E+00 -0.00000000000E+00 -0.50000000000E+02  0.50000000000E+02  0.00000000000E+00 0.  1.
         23    2    1    2    0    0  0.00000000000E+00  0.00000000000E+00  0.00000000000E+00  0.10000000000E+03  0.10000000000E+03 0.  0.
          5    1    3    3  501    0 -0.64359506629E+01  0.82119183719E+00  0.49353968260E+02  0.50000000000E+02  0.47000000000E+01 0. -1.
         -5    1    3    3    0  501  0.64359506629E+01 -0.82119183719E+00 -0.49353968260E+02  0.50000000000E+02  0.47000000000E+01 0.  1.
</event>
<event>
 5    1  0.9023675E-001  0.1000000E+03  0.7546771E-02  0.1163815E+00
         11   -1    0    0    0    0  0.00000000000E+00  0.00000000000E+00  0.50000000000E+02  0.50000000000E+02  0.00000000000E+00 0.  1.
        -11   -1    0    0    0    0 -0.00000000000E+00 -0.00000000000E+00 -0.50000000000E+02  0.50000000000E+02  0.00000000000E+00 0. -1.
         23    2    1    2    0    0  0.00000000000E+00  0.00000000000E+00  0.00000000000E+00  0.10000000000E+03  0.10000000000E+03 0.  0.
          5    1    3    3  501    0  0.36820632810E+02 -0.10724195558E+02 -0.31735510539E+02  0.50000000000E+02  0.47000000000E+01 0. -1.
         -5    1    3    3    0  501 -0.36820632810E+02  0.10724195558E+02  0.31735510539E+02  0.50000000000E+02  0.47000000000E+01 0.  1.
</event>
<event>
 5    1  0.9023675E-001  0.1000000E+03  0.7546771E-02  0.1163815E+00
         11   -1    0    0    0    0  0.00000000000E+00  0.00000000000E+00  0.50000000000E+02  0.50000000000E+02  0.00000000000E+00 0.  1.
        -11   -1    0    0    0    0 -0.00000000000E+00 -0.00000000000E+00 -0.50000000000E+02  0.50000000000E+02  0.00000000000E+00 0. -1.
         23    2    1    2    0    0  0.00000000000E+00  0.00000000000E+00  0.00000000000E+00  0.10000000000E+03  0.10000000000E+03 0.  0.
          5    1    3    3  501    0 -0.20371499065E+02  0.39169171069E+02 -0.22993217773E+02  0.50000000000E+02  0.47000000000E+01 0. -1.
         -5    1    3    3    0  501  0.20371499065E+02 -0.39169171069E+02  0.22993217773E+02  0.50000000000E+02  0.47000000000E+01 0.  1.
</event>
<event>
 5    1  0.9023675E-001  0.1000000E+03  0.7546771E-02  0.1163815E+00
         11   -1    0    0    0    0  0.00000000000E+00  0.00000000000E+00  0.50000000000E+02  0.50000000000E+02  0.00000000000E+00 0. -1.
        -11   -1    0    0    0    0 -0.00000000000E+00 -0.00000000000E+00 -0.50000000000E+02  0.50000000000E+02  0.00000000000E+00 0.  1.
         23    2    1    2    0    0  0.00000000000E+00  0.00000000000E+00  0.00000000000E+00  0.10000000000E+03  0.10000000000E+03 0.  0.
          5    1    3    3  501    0  0.44833247128E+02 -0.21488176234E+02 -0.24795632877E+01  0.50000000000E+02  0.47000000000E+01 0. -1.
         -5    1    3    3    0  501 -0.44833247128E+02  0.21488176234E+02  0.24795632877E+01  0.50000000000E+02  0.47000000000E+01 0.  1.
</event>
<event>
 5    1  0.9023675E-001  0.1000000E+03  0.7546771E-02  0.1163815E+00
         11   -1    0    0    0    0  0.00000000000E+00  0.00000000000E+00  0.50000000000E+02  0.50000000000E+02  0.00000000000E+00 0.  1.
        -11   -1    0    0    0    0 -0.00000000000E+00 -0.00000000000E+00 -0.50000000000E+02  0.50000000000E+02  0.00000000000E+00 0. -1.
         23    2    1    2    0    0  0.00000000000E+00  0.00000000000E+00  0.00000000000E+00  0.10000000000E+03  0.10000000000E+03 0.  0.
          5    1    3    3  501    0 -0.23417415945E+01 -0.14583266428E+02 -0.47536876071E+02  0.50000000000E+02  0.47000000000E+01 0. -1.
         -5    1    3    3    0  501  0.23417415945E+01  0.14583266428E+02  0.47536876071E+02  0.50000000000E+02  0.47000000000E+01 0.  1.
</event>
<event>
 5    1  0.9023675E-001  0.1000000E+03  0.7546771E-02  0.1163815E+00
         11   -1    0    0    0    0  0.00000000000E+00  0.00000000000E+00  0.50000000000E+02  0.50000000000E+02  0.00000000000E+00 0. -1.
        -11   -1    0    0    0    0 -0.00000000000E+00 -0.00000000000E+00 -0.50000000000E+02  0.50000000000E+02  0.00000000000E+00 0.  1.
         23    2    1    2    0    0  0.00000000000E+00  0.00000000000E+00  0.00000000000E+00  0.10000000000E+03  0.10000000000E+03 0.  0.
          5    1    3    3  501    0 -0.23272964453E+02  0.41578793495E+02  0.14404272182E+02  0.50000000000E+02  0.47000000000E+01 0. -1.
         -5    1    3    3    0  501  0.23272964453E+02 -0.41578793495E+02 -0.14404272182E+02  0.50000000000E+02  0.47000000000E+01 0.  1.
</event>
<event>
 5    1  0.9023675E-001  0.1000000E+03  0.7546771E-02  0.1163815E+00
         11   -1    0    0    0    0  0.00000000000E+00  0.00000000000E+00  0.50000000000E+02  0.50000000000E+02  0.00000000000E+00 0.  1.
        -11   -1    0    0    0    0 -0.00000000000E+00 -0.00000000000E+00 -0.50000000000E+02  0.50000000000E+02  0.00000000000E+00 0. -1.
         23    2    1    2    0    0  0.00000000000E+00  0.00000000000E+00  0.00000000000E+00  0.10000000000E+03  0.10000000000E+03 0.  0.
          5    1    3    3  501    0 -0.86428555117E+01  0.40692560586E+02 -0.27337274215E+02  0.50000000000E+02  0.47000000000E+01 0. -1.
         -5    1    3    3    0  501  0.86428555117E+01 -0.40692560586E+02  0.27337274215E+02  0.50000000000E+02  0.47000000000E+01 0.  1.
</event>
<event>
 5    1  0.9023675E-001  0.1000000E+03  0.7546771E-02  0.1163815E+00
         11   -1    0    0    0    0  0.00000000000E+00  0.00000000000E+00  0.50000000000E+02  0.50000000000E+02  0.00000000000E+00 0.  1.
        -11   -1    0    0    0    0 -0.00000000000E+00 -0.00000000000E+00 -0.50000000000E+02  0.50000000000E+02  0.00000000000E+00 0. -1.
         23    2    1    2    0    0  0.00000000000E+00  0.00000000000E+00  0.00000000000E+00  0.10000000000E+03  0.10000000000E+03 0.  0.
          5    1    3    3  501    0 -0.45907290409E+02  0.94833337666E+00 -0.19223198253E+02  0.50000000000E+02  0.47000000000E+01 0. -1.
         -5    1    3    3    0  501  0.45907290409E+02 -0.94833337666E+00  0.19223198253E+02  0.50000000000E+02  0.47000000000E+01 0.  1.
</event>
<event>
 5    1  0.9023675E-001  0.1000000E+03  0.7546771E-02  0.1163815E+00
         11   -1    0    0    0    0  0.00000000000E+00  0.00000000000E+00  0.50000000000E+02  0.50000000000E+02  0.00000000000E+00 0.  1.
        -11   -1    0    0    0    0 -0.00000000000E+00 -0.00000000000E+00 -0.50000000000E+02  0.50000000000E+02  0.00000000000E+00 0. -1.
         23    2    1    2    0    0  0.00000000000E+00  0.00000000000E+00  0.00000000000E+00  0.10000000000E+03  0.10000000000E+03 0.  0.
          5    1    3    3  501    0 -0.44885946145E+02 -0.13751298106E+02  0.16554867535E+02  0.50000000000E+02  0.47000000000E+01 0. -1.
         -5    1    3    3    0  501  0.44885946145E+02  0.13751298106E+02 -0.16554867535E+02  0.50000000000E+02  0.47000000000E+01 0.  1.
</event>
<event>
 5    1  0.9023675E-001  0.1000000E+03  0.7546771E-02  0.1163815E+00
         11   -1    0    0    0    0  0.00000000000E+00  0.00000000000E+00  0.50000000000E+02  0.50000000000E+02  0.00000000000E+00 0. -1.
        -11   -1    0    0    0    0 -0.00000000000E+00 -0.00000000000E+00 -0.50000000000E+02  0.50000000000E+02  0.00000000000E+00 0.  1.
         23    2    1    2    0    0  0.00000000000E+00  0.00000000000E+00  0.00000000000E+00  0.10000000000E+03  0.10000000000E+03 0.  0.
          5    1    3    3  501    0 -0.20453857772E+02  0.26702757520E+02  0.36694855812E+02  0.50000000000E+02  0.47000000000E+01 0. -1.
         -5    1    3    3    0  501  0.20453857772E+02 -0.26702757520E+02 -0.36694855812E+02  0.50000000000E+02  0.47000000000E+01 0.  1.
</event>
<event>
 5    1  0.9023675E-001  0.1000000E+03  0.7546771E-02  0.1163815E+00
         11   -1    0    0    0    0  0.00000000000E+00  0.00000000000E+00  0.50000000000E+02  0.50000000000E+02  0.00000000000E+00 0.  1.
        -11   -1    0    0    0    0 -0.00000000000E+00 -0.00000000000E+00 -0.50000000000E+02  0.50000000000E+02  0.00000000000E+00 0. -1.
         23    2    1    2    0    0  0.00000000000E+00  0.00000000000E+00  0.00000000000E+00  0.10000000000E+03  0.10000000000E+03 0.  0.
          5    1    3    3  501    0 -0.26215686750E+02  0.38501765864E+02 -0.17557385727E+02  0.50000000000E+02  0.47000000000E+01 0. -1.
         -5    1    3    3    0  501  0.26215686750E+02 -0.38501765864E+02  0.17557385727E+02  0.50000000000E+02  0.47000000000E+01 0.  1.
</event>
<event>
 5    1  0.9023675E-001  0.1000000E+03  0.7546771E-02  0.1163815E+00
         11   -1    0    0    0    0  0.00000000000E+00  0.00000000000E+00  0.50000000000E+02  0.50000000000E+02  0.00000000000E+00 0.  1.
        -11   -1    0    0    0    0 -0.00000000000E+00 -0.00000000000E+00 -0.50000000000E+02  0.50000000000E+02  0.00000000000E+00 0. -1.
         23    2    1    2    0    0  0.00000000000E+00  0.00000000000E+00  0.00000000000E+00  0.10000000000E+03  0.10000000000E+03 0.  0.
          5    1    3    3  501    0  0.24952993574E+02  0.28552917838E+02 -0.32248860362E+02  0.50000000000E+02  0.47000000000E+01 0. -1.
         -5    1    3    3    0  501 -0.24952993574E+02 -0.28552917838E+02  0.32248860362E+02  0.50000000000E+02  0.47000000000E+01 0.  1.
</event>
<event>
 5    1  0.9023675E-001  0.1000000E+03  0.7546771E-02  0.1163815E+00
         11   -1    0    0    0    0  0.00000000000E+00  0.00000000000E+00  0.50000000000E+02  0.50000000000E+02  0.00000000000E+00 0. -1.
        -11   -1    0    0    0    0 -0.00000000000E+00 -0.00000000000E+00 -0.50000000000E+02  0.50000000000E+02  0.00000000000E+00 0.  1.
         23    2    1    2    0    0  0.00000000000E+00  0.00000000000E+00  0.00000000000E+00  0.10000000000E+03  0.10000000000E+03 0.  0.
          5    1    3    3  501    0 -0.58008433934E+01  0.49113534375E+02 -0.56675353627E+01  0.50000000000E+02  0.47000000000E+01 0. -1.
         -5    1    3    3    0  501  0.58008433934E+01 -0.49113534375E+02  0.56675353627E+01  0.50000000000E+02  0.47000000000E+01 0.  1.
</event>
<event>
 5    1  0.9023675E-001  0.1000000E+03  0.7546771E-02  0.1163815E+00
         11   -1    0    0    0    0  0.00000000000E+00  0.00000000000E+00  0.50000000000E+02  0.50000000000E+02  0.00000000000E+00 0. -1.
        -11   -1    0    0    0    0 -0.00000000000E+00 -0.00000000000E+00 -0.50000000000E+02  0.50000000000E+02  0.00000000000E+00 0.  1.
         23    2    1    2    0    0  0.00000000000E+00  0.00000000000E+00  0.00000000000E+00  0.10000000000E+03  0.10000000000E+03 0.  0.
          5    1    3    3  501    0  0.44752087818E+02  0.11150667364E+02  0.18730276381E+02  0.50000000000E+02  0.47000000000E+01 0. -1.
         -5    1    3    3    0  501 -0.44752087818E+02 -0.11150667364E+02 -0.18730276381E+02  0.50000000000E+02  0.47000000000E+01 0.  1.
</event>
<event>
 5    1  0.9023675E-001  0.1000000E+03  0.7546771E-02  0.1163815E+00
         11   -1    0    0    0    0  0.00000000000E+00  0.00000000000E+00  0.50000000000E+02  0.50000000000E+02  0.00000000000E+00 0. -1.
        -11   -1    0    0    0    0 -0.00000000000E+00 -0.00000000000E+00 -0.50000000000E+02  0.50000000000E+02  0.00000000000E+00 0.  1.
         23    2    1    2    0    0  0.00000000000E+00  0.00000000000E+00  0.00000000000E+00  0.10000000000E+03  0.10000000000E+03 0.  0.
          5    1    3    3  501    0  0.34385266339E+02 -0.99439618036E+01  0.34593078533E+02  0.50000000000E+02  0.47000000000E+01 0. -1.
         -5    1    3    3    0  501 -0.34385266339E+02  0.99439618036E+01 -0.34593078533E+02  0.50000000000E+02  0.47000000000E+01 0.  1.
</event>
<event>
 5    1  0.9023675E-001  0.1000000E+03  0.7546771E-02  0.1163815E+00
         11   -1    0    0    0    0  0.00000000000E+00  0.00000000000E+00  0.50000000000E+02  0.50000000000E+02  0.00000000000E+00 0. -1.
        -11   -1    0    0    0    0 -0.00000000000E+00 -0.00000000000E+00 -0.50000000000E+02  0.50000000000E+02  0.00000000000E+00 0.  1.
         23    2    1    2    0    0  0.00000000000E+00  0.00000000000E+00  0.00000000000E+00  0.10000000000E+03  0.10000000000E+03 0.  0.
          5    1    3    3  501    0 -0.57997716689E+01  0.42481243680E+02  0.25290642221E+02  0.50000000000E+02  0.47000000000E+01 0. -1.
         -5    1    3    3    0  501  0.57997716689E+01 -0.42481243680E+02 -0.25290642221E+02  0.50000000000E+02  0.47000000000E+01 0.  1.
</event>
<event>
 5    1  0.9023675E-001  0.1000000E+03  0.7546771E-02  0.1163815E+00
         11   -1    0    0    0    0  0.00000000000E+00  0.00000000000E+00  0.50000000000E+02  0.50000000000E+02  0.00000000000E+00 0. -1.
        -11   -1    0    0    0    0 -0.00000000000E+00 -0.00000000000E+00 -0.50000000000E+02  0.50000000000E+02  0.00000000000E+00 0.  1.
         23    2    1    2    0    0  0.00000000000E+00  0.00000000000E+00  0.00000000000E+00  0.10000000000E+03  0.10000000000E+03 0.  0.
          5    1    3    3  501    0  0.12274174632E+02 -0.22853062642E+02  0.42485199364E+02  0.50000000000E+02  0.47000000000E+01 0. -1.
         -5    1    3    3    0  501 -0.12274174632E+02  0.22853062642E+02 -0.42485199364E+02  0.50000000000E+02  0.47000000000E+01 0.  1.
</event>
<event>
 5    1  0.9023675E-001  0.1000000E+03  0.7546771E-02  0.1163815E+00
         11   -1    0    0    0    0  0.00000000000E+00  0.00000000000E+00  0.50000000000E+02  0.50000000000E+02  0.00000000000E+00 0. -1.
        -11   -1    0    0    0    0 -0.00000000000E+00 -0.00000000000E+00 -0.50000000000E+02  0.50000000000E+02  0.00000000000E+00 0.  1.
         23    2    1    2    0    0  0.00000000000E+00  0.00000000000E+00  0.00000000000E+00  0.10000000000E+03  0.10000000000E+03 0.  0.
          5    1    3    3  501    0  0.10643840862E+02  0.40705290419E+02  0.26602593550E+02  0.50000000000E+02  0.47000000000E+01 0. -1.
         -5    1    3    3    0  501 -0.10643840862E+02 -0.40705290419E+02 -0.26602593550E+02  0.50000000000E+02  0.47000000000E+01 0.  1.
</event>
<event>
 5    1  0.9023675E-001  0.1000000E+03  0.7546771E-02  0.1163815E+00
         11   -1    0    0    0    0  0.00000000000E+00  0.00000000000E+00  0.50000000000E+02  0.50000000000E+02  0.00000000000E+00 0.  1.
        -11   -1    0    0    0    0 -0.00000000000E+00 -0.00000000000E+00 -0.50000000000E+02  0.50000000000E+02  0.00000000000E+00 0. -1.
         23    2    1    2    0    0  0.00000000000E+00  0.00000000000E+00  0.00000000000E+00  0.10000000000E+03  0.10000000000E+03 0.  0.
          5    1    3    3  501    0  0.28844957134E+01 -0.48995930891E+02 -0.83059280377E+01  0.50000000000E+02  0.47000000000E+01 0. -1.
         -5    1    3    3    0  501 -0.28844957134E+01  0.48995930891E+02  0.83059280377E+01  0.50000000000E+02  0.47000000000E+01 0.  1.
</event>
<event>
 5    1  0.9023675E-001  0.1000000E+03  0.7546771E-02  0.1163815E+00
         11   -1    0    0    0    0  0.00000000000E+00  0.00000000000E+00  0.50000000000E+02  0.50000000000E+02  0.00000000000E+00 0. -1.
        -11   -1    0    0    0    0 -0.00000000000E+00 -0.00000000000E+00 -0.50000000000E+02  0.50000000000E+02  0.00000000000E+00 0.  1.
         23    2    1    2    0    0  0.00000000000E+00  0.00000000000E+00  0.00000000000E+00  0.10000000000E+03  0.10000000000E+03 0.  0.
          5    1    3    3  501    0  0.17921910564E+02 -0.66013913406E+00  0.46435754953E+02  0.50000000000E+02  0.47000000000E+01 0. -1.
         -5    1    3    3    0  501 -0.17921910564E+02  0.66013913406E+00 -0.46435754953E+02  0.50000000000E+02  0.47000000000E+01 0.  1.
</event>
<event>
 5    1  0.9023675E-001  0.1000000E+03  0.7546771E-02  0.1163815E+00
         11   -1    0    0    0    0  0.00000000000E+00  0.00000000000E+00  0.50000000000E+02  0.50000000000E+02  0.00000000000E+00 0. -1.
        -11   -1    0    0    0    0 -0.00000000000E+00 -0.00000000000E+00 -0.50000000000E+02  0.50000000000E+02  0.00000000000E+00 0.  1.
         23    2    1    2    0    0  0.00000000000E+00  0.00000000000E+00  0.00000000000E+00  0.10000000000E+03  0.10000000000E+03 0.  0.
          5    1    3    3  501    0 -0.60915407348E+01  0.85276694862E+01  0.48662942622E+02  0.50000000000E+02  0.47000000000E+01 0. -1.
         -5    1    3    3    0  501  0.60915407348E+01 -0.85276694862E+01 -0.48662942622E+02  0.50000000000E+02  0.47000000000E+01 0.  1.
</event>
<event>
 5    1  0.9023675E-001  0.1000000E+03  0.7546771E-02  0.1163815E+00
         11   -1    0    0    0    0  0.00000000000E+00  0.00000000000E+00  0.50000000000E+02  0.50000000000E+02  0.00000000000E+00 0.  1.
        -11   -1    0    0    0    0 -0.00000000000E+00 -0.00000000000E+00 -0.50000000000E+02  0.50000000000E+02  0.00000000000E+00 0. -1.
         23    2    1    2    0    0  0.00000000000E+00  0.00000000000E+00  0.00000000000E+00  0.10000000000E+03  0.10000000000E+03 0.  0.
          5    1    3    3  501    0 -0.35164519691E+01 -0.33865522546E+02 -0.36313509170E+02  0.50000000000E+02  0.47000000000E+01 0. -1.
         -5    1    3    3    0  501  0.35164519691E+01  0.33865522546E+02  0.36313509170E+02  0.50000000000E+02  0.47000000000E+01 0.  1.
</event>
<event>
 5    1  0.9023675E-001  0.1000000E+03  0.7546771E-02  0.1163815E+00
         11   -1    0    0    0    0  0.00000000000E+00  0.00000000000E+00  0.50000000000E+02  0.50000000000E+02  0.00000000000E+00 0. -1.
        -11   -1    0    0    0    0 -0.00000000000E+00 -0.00000000000E+00 -0.50000000000E+02  0.50000000000E+02  0.00000000000E+00 0.  1.
         23    2    1    2    0    0  0.00000000000E+00  0.00000000000E+00  0.00000000000E+00  0.10000000000E+03  0.10000000000E+03 0.  0.
          5    1    3    3  501    0  0.65834945342E+01 -0.14744323852E+02  0.47086861372E+02  0.50000000000E+02  0.47000000000E+01 0. -1.
         -5    1    3    3    0  501 -0.65834945342E+01  0.14744323852E+02 -0.47086861372E+02  0.50000000000E+02  0.47000000000E+01 0.  1.
</event>
<event>
 5    1  0.9023675E-001  0.1000000E+03  0.7546771E-02  0.1163815E+00
         11   -1    0    0    0    0  0.00000000000E+00  0.00000000000E+00  0.50000000000E+02  0.50000000000E+02  0.00000000000E+00 0. -1.
        -11   -1    0    0    0    0 -0.00000000000E+00 -0.00000000000E+00 -0.50000000000E+02  0.50000000000E+02  0.00000000000E+00 0.  1.
         23    2    1    2    0    0  0.00000000000E+00  0.00000000000E+00  0.00000000000E+00  0.10000000000E+03  0.10000000000E+03 0.  0.
          5    1    3    3  501    0 -0.17232996919E+02 -0.44875819378E+02 -0.12926509672E+02  0.50000000000E+02  0.47000000000E+01 0. -1.
         -5    1    3    3    0  501  0.17232996919E+02  0.44875819378E+02  0.12926509672E+02  0.50000000000E+02  0.47000000000E+01 0.  1.
</event>
<event>
 5    1  0.9023675E-001  0.1000000E+03  0.7546771E-02  0.1163815E+00
         11   -1    0    0    0    0  0.00000000000E+00  0.00000000000E+00  0.50000000000E+02  0.50000000000E+02  0.00000000000E+00 0. -1.
        -11   -1    0    0    0    0 -0.00000000000E+00 -0.00000000000E+00 -0.50000000000E+02  0.50000000000E+02  0.00000000000E+00 0.  1.
         23    2    1    2    0    0  0.00000000000E+00  0.00000000000E+00  0.00000000000E+00  0.10000000000E+03  0.10000000000E+03 0.  0.
          5    1    3    3  501    0  0.34591347506E+02  0.33692126880E+02 -0.12090875238E+02  0.50000000000E+02  0.47000000000E+01 0. -1.
         -5    1    3    3    0  501 -0.34591347506E+02 -0.33692126880E+02  0.12090875238E+02  0.50000000000E+02  0.47000000000E+01 0.  1.
</event>
<event>
 5    1  0.9023675E-001  0.1000000E+03  0.7546771E-02  0.1163815E+00
         11   -1    0    0    0    0  0.00000000000E+00  0.00000000000E+00  0.50000000000E+02  0.50000000000E+02  0.00000000000E+00 0. -1.
        -11   -1    0    0    0    0 -0.00000000000E+00 -0.00000000000E+00 -0.50000000000E+02  0.50000000000E+02  0.00000000000E+00 0.  1.
         23    2    1    2    0    0  0.00000000000E+00  0.00000000000E+00  0.00000000000E+00  0.10000000000E+03  0.10000000000E+03 0.  0.
          5    1    3    3  501    0  0.41623472490E+02 -0.11704418239E+02  0.24665829229E+02  0.50000000000E+02  0.47000000000E+01 0. -1.
         -5    1    3    3    0  501 -0.41623472490E+02  0.11704418239E+02 -0.24665829229E+02  0.50000000000E+02  0.47000000000E+01 0.  1.
</event>
<event>
 5    1  0.9023675E-001  0.1000000E+03  0.7546771E-02  0.1163815E+00
         11   -1    0    0    0    0  0.00000000000E+00  0.00000000000E+00  0.50000000000E+02  0.50000000000E+02  0.00000000000E+00 0.  1.
        -11   -1    0    0    0    0 -0.00000000000E+00 -0.00000000000E+00 -0.50000000000E+02  0.50000000000E+02  0.00000000000E+00 0. -1.
         23    2    1    2    0    0  0.00000000000E+00  0.00000000000E+00  0.00000000000E+00  0.10000000000E+03  0.10000000000E+03 0.  0.
          5    1    3    3  501    0  0.45150863829E+02  0.11489941430E+02 -0.17529710248E+02  0.50000000000E+02  0.47000000000E+01 0. -1.
         -5    1    3    3    0  501 -0.45150863829E+02 -0.11489941430E+02  0.17529710248E+02  0.50000000000E+02  0.47000000000E+01 0.  1.
</event>
<event>
 5    1  0.9023675E-001  0.1000000E+03  0.7546771E-02  0.1163815E+00
         11   -1    0    0    0    0  0.00000000000E+00  0.00000000000E+00  0.50000000000E+02  0.50000000000E+02  0.00000000000E+00 0. -1.
        -11   -1    0    0    0    0 -0.00000000000E+00 -0.00000000000E+00 -0.50000000000E+02  0.50000000000E+02  0.00000000000E+00 0.  1.
         23    2    1    2    0    0  0.00000000000E+00  0.00000000000E+00  0.00000000000E+00  0.10000000000E+03  0.10000000000E+03 0.  0.
          5    1    3    3  501    0  0.81220205585E+01  0.16615445266E+02  0.46215471010E+02  0.50000000000E+02  0.47000000000E+01 0. -1.
         -5    1    3    3    0  501 -0.81220205585E+01 -0.16615445266E+02 -0.46215471010E+02  0.50000000000E+02  0.47000000000E+01 0.  1.
</event>
<event>
 5    1  0.9023675E-001  0.1000000E+03  0.7546771E-02  0.1163815E+00
         11   -1    0    0    0    0  0.00000000000E+00  0.00000000000E+00  0.50000000000E+02  0.50000000000E+02  0.00000000000E+00 0.  1.
        -11   -1    0    0    0    0 -0.00000000000E+00 -0.00000000000E+00 -0.50000000000E+02  0.50000000000E+02  0.00000000000E+00 0. -1.
         23    2    1    2    0    0  0.00000000000E+00  0.00000000000E+00  0.00000000000E+00  0.10000000000E+03  0.10000000000E+03 0.  0.
          5    1    3    3  501    0  0.28808318093E+02 -0.10429750716E+01 -0.40582052827E+02  0.50000000000E+02  0.47000000000E+01 0. -1.
         -5    1    3    3    0  501 -0.28808318093E+02  0.10429750716E+01  0.40582052827E+02  0.50000000000E+02  0.47000000000E+01 0.  1.
</event>
<event>
 5    1  0.9023675E-001  0.1000000E+03  0.7546771E-02  0.1163815E+00
         11   -1    0    0    0    0  0.00000000000E+00  0.00000000000E+00  0.50000000000E+02  0.50000000000E+02  0.00000000000E+00 0. -1.
        -11   -1    0    0    0    0 -0.00000000000E+00 -0.00000000000E+00 -0.50000000000E+02  0.50000000000E+02  0.00000000000E+00 0.  1.
         23    2    1    2    0    0  0.00000000000E+00  0.00000000000E+00  0.00000000000E+00  0.10000000000E+03  0.10000000000E+03 0.  0.
          5    1    3    3  501    0  0.38077920125E+02 -0.20932067011E+02  0.24286427683E+02  0.50000000000E+02  0.47000000000E+01 0. -1.
         -5    1    3    3    0  501 -0.38077920125E+02  0.20932067011E+02 -0.24286427683E+02  0.50000000000E+02  0.47000000000E+01 0.  1.
</event>
<event>
 5    1  0.9023675E-001  0.1000000E+03  0.7546771E-02  0.1163815E+00
         11   -1    0    0    0    0  0.00000000000E+00  0.00000000000E+00  0.50000000000E+02  0.50000000000E+02  0.00000000000E+00 0. -1.
        -11   -1    0    0    0    0 -0.00000000000E+00 -0.00000000000E+00 -0.50000000000E+02  0.50000000000E+02  0.00000000000E+00 0.  1.
         23    2    1    2    0    0  0.00000000000E+00  0.00000000000E+00  0.00000000000E+00  0.10000000000E+03  0.10000000000E+03 0.  0.
          5    1    3    3  501    0 -0.40257909283E+02 -0.65889703460E+01  0.28527113593E+02  0.50000000000E+02  0.47000000000E+01 0. -1.
         -5    1    3    3    0  501  0.40257909283E+02  0.65889703460E+01 -0.28527113593E+02  0.50000000000E+02  0.47000000000E+01 0.  1.
</event>
<event>
 5    1  0.9023675E-001  0.1000000E+03  0.7546771E-02  0.1163815E+00
         11   -1    0    0    0    0  0.00000000000E+00  0.00000000000E+00  0.50000000000E+02  0.50000000000E+02  0.00000000000E+00 0. -1.
        -11   -1    0    0    0    0 -0.00000000000E+00 -0.00000000000E+00 -0.50000000000E+02  0.50000000000E+02  0.00000000000E+00 0.  1.
         23    2    1    2    0    0  0.00000000000E+00  0.00000000000E+00  0.00000000000E+00  0.10000000000E+03  0.10000000000E+03 0.  0.
          5    1    3    3  501    0 -0.17326294417E+02  0.38541365557E+02  0.26311074907E+02  0.50000000000E+02  0.47000000000E+01 0. -1.
         -5    1    3    3    0  501  0.17326294417E+02 -0.38541365557E+02 -0.26311074907E+02  0.50000000000E+02  0.47000000000E+01 0.  1.
</event>
<event>
 5    1  0.9023675E-001  0.1000000E+03  0.7546771E-02  0.1163815E+00
         11   -1    0    0    0    0  0.00000000000E+00  0.00000000000E+00  0.50000000000E+02  0.50000000000E+02  0.00000000000E+00 0. -1.
        -11   -1    0    0    0    0 -0.00000000000E+00 -0.00000000000E+00 -0.50000000000E+02  0.50000000000E+02  0.00000000000E+00 0.  1.
         23    2    1    2    0    0  0.00000000000E+00  0.00000000000E+00  0.00000000000E+00  0.10000000000E+03  0.10000000000E+03 0.  0.
          5    1    3    3  501    0  0.41539267922E+02  0.14945842971E+02  0.23000456482E+02  0.50000000000E+02  0.47000000000E+01 0. -1.
         -5    1    3    3    0  501 -0.41539267922E+02 -0.14945842971E+02 -0.23000456482E+02  0.50000000000E+02  0.47000000000E+01 0.  1.
</event>
<event>
 5    1  0.9023675E-001  0.1000000E+03  0.7546771E-02  0.1163815E+00
         11   -1    0    0    0    0  0.00000000000E+00  0.00000000000E+00  0.50000000000E+02  0.50000000000E+02  0.00000000000E+00 0. -1.
        -11   -1    0    0    0    0 -0.00000000000E+00 -0.00000000000E+00 -0.50000000000E+02  0.50000000000E+02  0.00000000000E+00 0.  1.
         23    2    1    2    0    0  0.00000000000E+00  0.00000000000E+00  0.00000000000E+00  0.10000000000E+03  0.10000000000E+03 0.  0.
          5    1    3    3  501    0  0.16451837096E+01 -0.14727514861E+02  0.47521612731E+02  0.50000000000E+02  0.47000000000E+01 0. -1.
         -5    1    3    3    0  501 -0.16451837096E+01  0.14727514861E+02 -0.47521612731E+02  0.50000000000E+02  0.47000000000E+01 0.  1.
</event>
<event>
 5    1  0.9023675E-001  0.1000000E+03  0.7546771E-02  0.1163815E+00
         11   -1    0    0    0    0  0.00000000000E+00  0.00000000000E+00  0.50000000000E+02  0.50000000000E+02  0.00000000000E+00 0.  1.
        -11   -1    0    0    0    0 -0.00000000000E+00 -0.00000000000E+00 -0.50000000000E+02  0.50000000000E+02  0.00000000000E+00 0. -1.
         23    2    1    2    0    0  0.00000000000E+00  0.00000000000E+00  0.00000000000E+00  0.10000000000E+03  0.10000000000E+03 0.  0.
          5    1    3    3  501    0  0.35861443012E+02  0.25217145023E+02 -0.23578857096E+02  0.50000000000E+02  0.47000000000E+01 0. -1.
         -5    1    3    3    0  501 -0.35861443012E+02 -0.25217145023E+02  0.23578857096E+02  0.50000000000E+02  0.47000000000E+01 0.  1.
</event>
<event>
 5    1  0.9023675E-001  0.1000000E+03  0.7546771E-02  0.1163815E+00
         11   -1    0    0    0    0  0.00000000000E+00  0.00000000000E+00  0.50000000000E+02  0.50000000000E+02  0.00000000000E+00 0. -1.
        -11   -1    0    0    0    0 -0.00000000000E+00 -0.00000000000E+00 -0.50000000000E+02  0.50000000000E+02  0.00000000000E+00 0.  1.
         23    2    1    2    0    0  0.00000000000E+00  0.00000000000E+00  0.00000000000E+00  0.10000000000E+03  0.10000000000E+03 0.  0.
          5    1    3    3  501    0  0.32706489824E+02  0.39553765480E+01  0.37316893222E+02  0.50000000000E+02  0.47000000000E+01 0. -1.
         -5    1    3    3    0  501 -0.32706489824E+02 -0.39553765480E+01 -0.37316893222E+02  0.50000000000E+02  0.47000000000E+01 0.  1.
</event>
<event>
 5    1  0.9023675E-001  0.1000000E+03  0.7546771E-02  0.1163815E+00
         11   -1    0    0    0    0  0.00000000000E+00  0.00000000000E+00  0.50000000000E+02  0.50000000000E+02  0.00000000000E+00 0. -1.
        -11   -1    0    0    0    0 -0.00000000000E+00 -0.00000000000E+00 -0.50000000000E+02  0.50000000000E+02  0.00000000000E+00 0.  1.
         23    2    1    2    0    0  0.00000000000E+00  0.00000000000E+00  0.00000000000E+00  0.10000000000E+03  0.10000000000E+03 0.  0.
          5    1    3    3  501    0 -0.20520410397E+02  0.36017435214E+01  0.45208961509E+02  0.50000000000E+02  0.47000000000E+01 0. -1.
         -5    1    3    3    0  501  0.20520410397E+02 -0.36017435214E+01 -0.45208961509E+02  0.50000000000E+02  0.47000000000E+01 0.  1.
</event>
<event>
 5    1  0.9023675E-001  0.1000000E+03  0.7546771E-02  0.1163815E+00
         11   -1    0    0    0    0  0.00000000000E+00  0.00000000000E+00  0.50000000000E+02  0.50000000000E+02  0.00000000000E+00 0.  1.
        -11   -1    0    0    0    0 -0.00000000000E+00 -0.00000000000E+00 -0.50000000000E+02  0.50000000000E+02  0.00000000000E+00 0. -1.
         23    2    1    2    0    0  0.00000000000E+00  0.00000000000E+00  0.00000000000E+00  0.10000000000E+03  0.10000000000E+03 0.  0.
          5    1    3    3  501    0  0.30585191371E+02 -0.16849509760E+01 -0.39237953680E+02  0.50000000000E+02  0.47000000000E+01 0. -1.
         -5    1    3    3    0  501 -0.30585191371E+02  0.16849509760E+01  0.39237953680E+02  0.50000000000E+02  0.47000000000E+01 0.  1.
</event>
<event>
 5    1  0.9023675E-001  0.1000000E+03  0.7546771E-02  0.1163815E+00
         11   -1    0    0    0    0  0.00000000000E+00  0.00000000000E+00  0.50000000000E+02  0.50000000000E+02  0.00000000000E+00 0. -1.
        -11   -1    0    0    0    0 -0.00000000000E+00 -0.00000000000E+00 -0.50000000000E+02  0.50000000000E+02  0.00000000000E+00 0.  1.
         23    2    1    2    0    0  0.00000000000E+00  0.00000000000E+00  0.00000000000E+00  0.10000000000E+03  0.10000000000E+03 0.  0.
          5    1    3    3  501    0 -0.87437126387E+01  0.38187915697E+02  0.30710594003E+02  0.50000000000E+02  0.47000000000E+01 0. -1.
         -5    1    3    3    0  501  0.87437126387E+01 -0.38187915697E+02 -0.30710594003E+02  0.50000000000E+02  0.47000000000E+01 0.  1.
</event>
<event>
 5    1  0.9023675E-001  0.1000000E+03  0.7546771E-02  0.1163815E+00
         11   -1    0    0    0    0  0.00000000000E+00  0.00000000000E+00  0.50000000000E+02  0.50000000000E+02  0.00000000000E+00 0. -1.
        -11   -1    0    0    0    0 -0.00000000000E+00 -0.00000000000E+00 -0.50000000000E+02  0.50000000000E+02  0.00000000000E+00 0.  1.
         23    2    1    2    0    0  0.00000000000E+00  0.00000000000E+00  0.00000000000E+00  0.10000000000E+03  0.10000000000E+03 0.  0.
          5    1    3    3  501    0 -0.29287666750E+02 -0.35510633166E+02  0.18950923684E+02  0.50000000000E+02  0.47000000000E+01 0. -1.
         -5    1    3    3    0  501  0.29287666750E+02  0.35510633166E+02 -0.18950923684E+02  0.50000000000E+02  0.47000000000E+01 0.  1.
</event>
<event>
 5    1  0.9023675E-001  0.1000000E+03  0.7546771E-02  0.1163815E+00
         11   -1    0    0    0    0  0.00000000000E+00  0.00000000000E+00  0.50000000000E+02  0.50000000000E+02  0.00000000000E+00 0.  1.
        -11   -1    0    0    0    0 -0.00000000000E+00 -0.00000000000E+00 -0.50000000000E+02  0.50000000000E+02  0.00000000000E+00 0. -1.
         23    2    1    2    0    0  0.00000000000E+00  0.00000000000E+00  0.00000000000E+00  0.10000000000E+03  0.10000000000E+03 0.  0.
          5    1    3    3  501    0  0.72958656949E+01 -0.40991845739E+02 -0.27282758780E+02  0.50000000000E+02  0.47000000000E+01 0. -1.
         -5    1    3    3    0  501 -0.72958656949E+01  0.40991845739E+02  0.27282758780E+02  0.50000000000E+02  0.47000000000E+01 0.  1.
</event>
<event>
 5    1  0.9023675E-001  0.1000000E+03  0.7546771E-02  0.1163815E+00
         11   -1    0    0    0    0  0.00000000000E+00  0.00000000000E+00  0.50000000000E+02  0.50000000000E+02  0.00000000000E+00 0. -1.
        -11   -1    0    0    0    0 -0.00000000000E+00 -0.00000000000E+00 -0.50000000000E+02  0.50000000000E+02  0.00000000000E+00 0.  1.
         23    2    1    2    0    0  0.00000000000E+00  0.00000000000E+00  0.00000000000E+00  0.10000000000E+03  0.10000000000E+03 0.  0.
          5    1    3    3  501    0 -0.32104131908E+02 -0.13450348745E+02  0.35585430067E+02  0.50000000000E+02  0.47000000000E+01 0. -1.
         -5    1    3    3    0  501  0.32104131908E+02  0.13450348745E+02 -0.35585430067E+02  0.50000000000E+02  0.47000000000E+01 0.  1.
</event>
<event>
 5    1  0.9023675E-001  0.1000000E+03  0.7546771E-02  0.1163815E+00
         11   -1    0    0    0    0  0.00000000000E+00  0.00000000000E+00  0.50000000000E+02  0.50000000000E+02  0.00000000000E+00 0.  1.
        -11   -1    0    0    0    0 -0.00000000000E+00 -0.00000000000E+00 -0.50000000000E+02  0.50000000000E+02  0.00000000000E+00 0. -1.
         23    2    1    2    0    0  0.00000000000E+00  0.00000000000E+00  0.00000000000E+00  0.10000000000E+03  0.10000000000E+03 0.  0.
          5    1    3    3  501    0  0.40815824783E+02 -0.48980712274E+01  0.28071112296E+02  0.50000000000E+02  0.47000000000E+01 0. -1.
         -5    1    3    3    0  501 -0.40815824783E+02  0.48980712274E+01 -0.28071112296E+02  0.50000000000E+02  0.47000000000E+01 0.  1.
</event>
<event>
 5    1  0.9023675E-001  0.1000000E+03  0.7546771E-02  0.1163815E+00
         11   -1    0    0    0    0  0.00000000000E+00  0.00000000000E+00  0.50000000000E+02  0.50000000000E+02  0.00000000000E+00 0. -1.
        -11   -1    0    0    0    0 -0.00000000000E+00 -0.00000000000E+00 -0.50000000000E+02  0.50000000000E+02  0.00000000000E+00 0.  1.
         23    2    1    2    0    0  0.00000000000E+00  0.00000000000E+00  0.00000000000E+00  0.10000000000E+03  0.10000000000E+03 0.  0.
          5    1    3    3  501    0 -0.25452028367E+02  0.25593920308E+02  0.34279082475E+02  0.50000000000E+02  0.47000000000E+01 0. -1.
         -5    1    3    3    0  501  0.25452028367E+02 -0.25593920308E+02 -0.34279082475E+02  0.50000000000E+02  0.47000000000E+01 0.  1.
</event>
<event>
 5    1  0.9023675E-001  0.1000000E+03  0.7546771E-02  0.1163815E+00
         11   -1    0    0    0    0  0.00000000000E+00  0.00000000000E+00  0.50000000000E+02  0.50000000000E+02  0.00000000000E+00 0. -1.
        -11   -1    0    0    0    0 -0.00000000000E+00 -0.00000000000E+00 -0.50000000000E+02  0.50000000000E+02  0.00000000000E+00 0.  1.
         23    2    1    2    0    0  0.00000000000E+00  0.00000000000E+00  0.00000000000E+00  0.10000000000E+03  0.10000000000E+03 0.  0.
          5    1    3    3  501    0  0.37720774126E+02  0.24670606760E+02  0.21128520095E+02  0.50000000000E+02  0.47000000000E+01 0. -1.
         -5    1    3    3    0  501 -0.37720774126E+02 -0.24670606760E+02 -0.21128520095E+02  0.50000000000E+02  0.47000000000E+01 0.  1.
</event>
<event>
 5    1  0.9023675E-001  0.1000000E+03  0.7546771E-02  0.1163815E+00
         11   -1    0    0    0    0  0.00000000000E+00  0.00000000000E+00  0.50000000000E+02  0.50000000000E+02  0.00000000000E+00 0. -1.
        -11   -1    0    0    0    0 -0.00000000000E+00 -0.00000000000E+00 -0.50000000000E+02  0.50000000000E+02  0.00000000000E+00 0.  1.
         23    2    1    2    0    0  0.00000000000E+00  0.00000000000E+00  0.00000000000E+00  0.10000000000E+03  0.10000000000E+03 0.  0.
          5    1    3    3  501    0 -0.42238089947E+02  0.10123544757E+01  0.26321643110E+02  0.50000000000E+02  0.47000000000E+01 0. -1.
         -5    1    3    3    0  501  0.42238089947E+02 -0.10123544757E+01 -0.26321643110E+02  0.50000000000E+02  0.47000000000E+01 0.  1.
</event>
<event>
 5    1  0.9023675E-001  0.1000000E+03  0.7546771E-02  0.1163815E+00
         11   -1    0    0    0    0  0.00000000000E+00  0.00000000000E+00  0.50000000000E+02  0.50000000000E+02  0.00000000000E+00 0. -1.
        -11   -1    0    0    0    0 -0.00000000000E+00 -0.00000000000E+00 -0.50000000000E+02  0.50000000000E+02  0.00000000000E+00 0.  1.
         23    2    1    2    0    0  0.00000000000E+00  0.00000000000E+00  0.00000000000E+00  0.10000000000E+03  0.10000000000E+03 0.  0.
          5    1    3    3  501    0 -0.12261880584E+02  0.41548678104E+02  0.24520677649E+02  0.50000000000E+02  0.47000000000E+01 0. -1.
         -5    1    3    3    0  501  0.12261880584E+02 -0.41548678104E+02 -0.24520677649E+02  0.50000000000E+02  0.47000000000E+01 0.  1.
</event>
<event>
 5    1  0.9023675E-001  0.1000000E+03  0.7546771E-02  0.1163815E+00
         11   -1    0    0    0    0  0.00000000000E+00  0.00000000000E+00  0.50000000000E+02  0.50000000000E+02  0.00000000000E+00 0.  1.
        -11   -1    0    0    0    0 -0.00000000000E+00 -0.00000000000E+00 -0.50000000000E+02  0.50000000000E+02  0.00000000000E+00 0. -1.
         23    2    1    2    0    0  0.00000000000E+00  0.00000000000E+00  0.00000000000E+00  0.10000000000E+03  0.10000000000E+03 0.  0.
          5    1    3    3  501    0 -0.45109589367E+02 -0.20814549816E+02 -0.31288117701E+01  0.50000000000E+02  0.47000000000E+01 0. -1.
         -5    1    3    3    0  501  0.45109589367E+02  0.20814549816E+02  0.31288117701E+01  0.50000000000E+02  0.47000000000E+01 0.  1.
</event>
<event>
 5    1  0.9023675E-001  0.1000000E+03  0.7546771E-02  0.1163815E+00
         11   -1    0    0    0    0  0.00000000000E+00  0.00000000000E+00  0.50000000000E+02  0.50000000000E+02  0.00000000000E+00 0. -1.
        -11   -1    0    0    0    0 -0.00000000000E+00 -0.00000000000E+00 -0.50000000000E+02  0.50000000000E+02  0.00000000000E+00 0.  1.
         23    2    1    2    0    0  0.00000000000E+00  0.00000000000E+00  0.00000000000E+00  0.10000000000E+03  0.10000000000E+03 0.  0.
          5    1    3    3  501    0  0.25552256139E+02  0.15671024646E+02  0.39741806611E+02  0.50000000000E+02  0.47000000000E+01 0. -1.
         -5    1    3    3    0  501 -0.25552256139E+02 -0.15671024646E+02 -0.39741806611E+02  0.50000000000E+02  0.47000000000E+01 0.  1.
</event>
<event>
 5    1  0.9023675E-001  0.1000000E+03  0.7546771E-02  0.1163815E+00
         11   -1    0    0    0    0  0.00000000000E+00  0.00000000000E+00  0.50000000000E+02  0.50000000000E+02  0.00000000000E+00 0. -1.
        -11   -1    0    0    0    0 -0.00000000000E+00 -0.00000000000E+00 -0.50000000000E+02  0.50000000000E+02  0.00000000000E+00 0.  1.
         23    2    1    2    0    0  0.00000000000E+00  0.00000000000E+00  0.00000000000E+00  0.10000000000E+03  0.10000000000E+03 0.  0.
          5    1    3    3  501    0  0.35341197253E+02 -0.24931225472E+02  0.24644345664E+02  0.50000000000E+02  0.47000000000E+01 0. -1.
         -5    1    3    3    0  501 -0.35341197253E+02  0.24931225472E+02 -0.24644345664E+02  0.50000000000E+02  0.47000000000E+01 0.  1.
</event>
<event>
 5    1  0.9023675E-001  0.1000000E+03  0.7546771E-02  0.1163815E+00
         11   -1    0    0    0    0  0.00000000000E+00  0.00000000000E+00  0.50000000000E+02  0.50000000000E+02  0.00000000000E+00 0. -1.
        -11   -1    0    0    0    0 -0.00000000000E+00 -0.00000000000E+00 -0.50000000000E+02  0.50000000000E+02  0.00000000000E+00 0.  1.
         23    2    1    2    0    0  0.00000000000E+00  0.00000000000E+00  0.00000000000E+00  0.10000000000E+03  0.10000000000E+03 0.  0.
          5    1    3    3  501    0 -0.28761777236E+02  0.24152729829E+02  0.32669799693E+02  0.50000000000E+02  0.47000000000E+01 0. -1.
         -5    1    3    3    0  501  0.28761777236E+02 -0.24152729829E+02 -0.32669799693E+02  0.50000000000E+02  0.47000000000E+01 0.  1.
</event>
<event>
 5    1  0.9023675E-001  0.1000000E+03  0.7546771E-02  0.1163815E+00
         11   -1    0    0    0    0  0.00000000000E+00  0.00000000000E+00  0.50000000000E+02  0.50000000000E+02  0.00000000000E+00 0. -1.
        -11   -1    0    0    0    0 -0.00000000000E+00 -0.00000000000E+00 -0.50000000000E+02  0.50000000000E+02  0.00000000000E+00 0.  1.
         23    2    1    2    0    0  0.00000000000E+00  0.00000000000E+00  0.00000000000E+00  0.10000000000E+03  0.10000000000E+03 0.  0.
          5    1    3    3  501    0  0.35493254972E+01  0.29660051742E+02  0.39819513045E+02  0.50000000000E+02  0.47000000000E+01 0. -1.
         -5    1    3    3    0  501 -0.35493254972E+01 -0.29660051742E+02 -0.39819513045E+02  0.50000000000E+02  0.47000000000E+01 0.  1.
</event>
<event>
 5    1  0.9023675E-001  0.1000000E+03  0.7546771E-02  0.1163815E+00
         11   -1    0    0    0    0  0.00000000000E+00  0.00000000000E+00  0.50000000000E+02  0.50000000000E+02  0.00000000000E+00 0.  1.
        -11   -1    0    0    0    0 -0.00000000000E+00 -0.00000000000E+00 -0.50000000000E+02  0.50000000000E+02  0.00000000000E+00 0. -1.
         23    2    1    2    0    0  0.00000000000E+00  0.00000000000E+00  0.00000000000E+00  0.10000000000E+03  0.10000000000E+03 0.  0.
          5    1    3    3  501    0  0.48772216366E+02  0.80825130610E+01 -0.58184098635E+01  0.50000000000E+02  0.47000000000E+01 0. -1.
         -5    1    3    3    0  501 -0.48772216366E+02 -0.80825130610E+01  0.58184098635E+01  0.50000000000E+02  0.47000000000E+01 0.  1.
</event>
<event>
 5    1  0.9023675E-001  0.1000000E+03  0.7546771E-02  0.1163815E+00
         11   -1    0    0    0    0  0.00000000000E+00  0.00000000000E+00  0.50000000000E+02  0.50000000000E+02  0.00000000000E+00 0. -1.
        -11   -1    0    0    0    0 -0.00000000000E+00 -0.00000000000E+00 -0.50000000000E+02  0.50000000000E+02  0.00000000000E+00 0.  1.
         23    2    1    2    0    0  0.00000000000E+00  0.00000000000E+00  0.00000000000E+00  0.10000000000E+03  0.10000000000E+03 0.  0.
          5    1    3    3  501    0  0.41920145597E+02 -0.13604540821E+02  0.23141474935E+02  0.50000000000E+02  0.47000000000E+01 0. -1.
         -5    1    3    3    0  501 -0.41920145597E+02  0.13604540821E+02 -0.23141474935E+02  0.50000000000E+02  0.47000000000E+01 0.  1.
</event>
<event>
 5    1  0.9023675E-001  0.1000000E+03  0.7546771E-02  0.1163815E+00
         11   -1    0    0    0    0  0.00000000000E+00  0.00000000000E+00  0.50000000000E+02  0.50000000000E+02  0.00000000000E+00 0. -1.
        -11   -1    0    0    0    0 -0.00000000000E+00 -0.00000000000E+00 -0.50000000000E+02  0.50000000000E+02  0.00000000000E+00 0.  1.
         23    2    1    2    0    0  0.00000000000E+00  0.00000000000E+00  0.00000000000E+00  0.10000000000E+03  0.10000000000E+03 0.  0.
          5    1    3    3  501    0  0.24355890899E+02 -0.17106052075E+01  0.43379423790E+02  0.50000000000E+02  0.47000000000E+01 0. -1.
         -5    1    3    3    0  501 -0.24355890899E+02  0.17106052075E+01 -0.43379423790E+02  0.50000000000E+02  0.47000000000E+01 0.  1.
</event>
<event>
 5    1  0.9023675E-001  0.1000000E+03  0.7546771E-02  0.1163815E+00
         11   -1    0    0    0    0  0.00000000000E+00  0.00000000000E+00  0.50000000000E+02  0.50000000000E+02  0.00000000000E+00 0.  1.
        -11   -1    0    0    0    0 -0.00000000000E+00 -0.00000000000E+00 -0.50000000000E+02  0.50000000000E+02  0.00000000000E+00 0. -1.
         23    2    1    2    0    0  0.00000000000E+00  0.00000000000E+00  0.00000000000E+00  0.10000000000E+03  0.10000000000E+03 0.  0.
          5    1    3    3  501    0 -0.17364704379E+02 -0.45882044171E+02  0.84389018550E+01  0.50000000000E+02  0.47000000000E+01 0. -1.
         -5    1    3    3    0  501  0.17364704379E+02  0.45882044171E+02 -0.84389018550E+01  0.50000000000E+02  0.47000000000E+01 0.  1.
</event>
<event>
 5    1  0.9023675E-001  0.1000000E+03  0.7546771E-02  0.1163815E+00
         11   -1    0    0    0    0  0.00000000000E+00  0.00000000000E+00  0.50000000000E+02  0.50000000000E+02  0.00000000000E+00 0.  1.
        -11   -1    0    0    0    0 -0.00000000000E+00 -0.00000000000E+00 -0.50000000000E+02  0.50000000000E+02  0.00000000000E+00 0. -1.
         23    2    1    2    0    0  0.00000000000E+00  0.00000000000E+00  0.00000000000E+00  0.10000000000E+03  0.10000000000E+03 0.  0.
          5    1    3    3  501    0  0.10196988503E+02 -0.26229427592E+02 -0.41060303867E+02  0.50000000000E+02  0.47000000000E+01 0. -1.
         -5    1    3    3    0  501 -0.10196988503E+02  0.26229427592E+02  0.41060303867E+02  0.50000000000E+02  0.47000000000E+01 0.  1.
</event>
<event>
 5    1  0.9023675E-001  0.1000000E+03  0.7546771E-02  0.1163815E+00
         11   -1    0    0    0    0  0.00000000000E+00  0.00000000000E+00  0.50000000000E+02  0.50000000000E+02  0.00000000000E+00 0.  1.
        -11   -1    0    0    0    0 -0.00000000000E+00 -0.00000000000E+00 -0.50000000000E+02  0.50000000000E+02  0.00000000000E+00 0. -1.
         23    2    1    2    0    0  0.00000000000E+00  0.00000000000E+00  0.00000000000E+00  0.10000000000E+03  0.10000000000E+03 0.  0.
          5    1    3    3  501    0 -0.46531749162E+02  0.16859870035E+02 -0.53339574740E+01  0.50000000000E+02  0.47000000000E+01 0. -1.
         -5    1    3    3    0  501  0.46531749162E+02 -0.16859870035E+02  0.53339574740E+01  0.50000000000E+02  0.47000000000E+01 0.  1.
</event>
<event>
 5    1  0.9023675E-001  0.1000000E+03  0.7546771E-02  0.1163815E+00
         11   -1    0    0    0    0  0.00000000000E+00  0.00000000000E+00  0.50000000000E+02  0.50000000000E+02  0.00000000000E+00 0. -1.
        -11   -1    0    0    0    0 -0.00000000000E+00 -0.00000000000E+00 -0.50000000000E+02  0.50000000000E+02  0.00000000000E+00 0.  1.
         23    2    1    2    0    0  0.00000000000E+00  0.00000000000E+00  0.00000000000E+00  0.10000000000E+03  0.10000000000E+03 0.  0.
          5    1    3    3  501    0 -0.21527481943E+02 -0.13135793882E+02  0.42917693790E+02  0.50000000000E+02  0.47000000000E+01 0. -1.
         -5    1    3    3    0  501  0.21527481943E+02  0.13135793882E+02 -0.42917693790E+02  0.50000000000E+02  0.47000000000E+01 0.  1.
</event>
<event>
 5    1  0.9023675E-001  0.1000000E+03  0.7546771E-02  0.1163815E+00
         11   -1    0    0    0    0  0.00000000000E+00  0.00000000000E+00  0.50000000000E+02  0.50000000000E+02  0.00000000000E+00 0.  1.
        -11   -1    0    0    0    0 -0.00000000000E+00 -0.00000000000E+00 -0.50000000000E+02  0.50000000000E+02  0.00000000000E+00 0. -1.
         23    2    1    2    0    0  0.00000000000E+00  0.00000000000E+00  0.00000000000E+00  0.10000000000E+03  0.10000000000E+03 0.  0.
          5    1    3    3  501    0 -0.28082640048E+02 -0.22188986098E+02 -0.34596592663E+02  0.50000000000E+02  0.47000000000E+01 0. -1.
         -5    1    3    3    0  501  0.28082640048E+02  0.22188986098E+02  0.34596592663E+02  0.50000000000E+02  0.47000000000E+01 0.  1.
</event>
<event>
 5    1  0.9023675E-001  0.1000000E+03  0.7546771E-02  0.1163815E+00
         11   -1    0    0    0    0  0.00000000000E+00  0.00000000000E+00  0.50000000000E+02  0.50000000000E+02  0.00000000000E+00 0. -1.
        -11   -1    0    0    0    0 -0.00000000000E+00 -0.00000000000E+00 -0.50000000000E+02  0.50000000000E+02  0.00000000000E+00 0.  1.
         23    2    1    2    0    0  0.00000000000E+00  0.00000000000E+00  0.00000000000E+00  0.10000000000E+03  0.10000000000E+03 0.  0.
          5    1    3    3  501    0  0.15815127829E+02 -0.45904690428E+02 -0.10979577792E+02  0.50000000000E+02  0.47000000000E+01 0. -1.
         -5    1    3    3    0  501 -0.15815127829E+02  0.45904690428E+02  0.10979577792E+02  0.50000000000E+02  0.47000000000E+01 0.  1.
</event>
<event>
 5    1  0.9023675E-001  0.1000000E+03  0.7546771E-02  0.1163815E+00
         11   -1    0    0    0    0  0.00000000000E+00  0.00000000000E+00  0.50000000000E+02  0.50000000000E+02  0.00000000000E+00 0.  1.
        -11   -1    0    0    0    0 -0.00000000000E+00 -0.00000000000E+00 -0.50000000000E+02  0.50000000000E+02  0.00000000000E+00 0. -1.
         23    2    1    2    0    0  0.00000000000E+00  0.00000000000E+00  0.00000000000E+00  0.10000000000E+03  0.10000000000E+03 0.  0.
          5    1    3    3  501    0 -0.17082909154E+02  0.46623296646E+02  0.35146016403E+01  0.50000000000E+02  0.47000000000E+01 0. -1.
         -5    1    3    3    0  501  0.17082909154E+02 -0.46623296646E+02 -0.35146016403E+01  0.50000000000E+02  0.47000000000E+01 0.  1.
</event>
<event>
 5    1  0.9023675E-001  0.1000000E+03  0.7546771E-02  0.1163815E+00
         11   -1    0    0    0    0  0.00000000000E+00  0.00000000000E+00  0.50000000000E+02  0.50000000000E+02  0.00000000000E+00 0.  1.
        -11   -1    0    0    0    0 -0.00000000000E+00 -0.00000000000E+00 -0.50000000000E+02  0.50000000000E+02  0.00000000000E+00 0. -1.
         23    2    1    2    0    0  0.00000000000E+00  0.00000000000E+00  0.00000000000E+00  0.10000000000E+03  0.10000000000E+03 0.  0.
          5    1    3    3  501    0 -0.27046416426E+02  0.25292000779E+02 -0.33267342170E+02  0.50000000000E+02  0.47000000000E+01 0. -1.
         -5    1    3    3    0  501  0.27046416426E+02 -0.25292000779E+02  0.33267342170E+02  0.50000000000E+02  0.47000000000E+01 0.  1.
</event>
<event>
 5    1  0.9023675E-001  0.1000000E+03  0.7546771E-02  0.1163815E+00
         11   -1    0    0    0    0  0.00000000000E+00  0.00000000000E+00  0.50000000000E+02  0.50000000000E+02  0.00000000000E+00 0. -1.
        -11   -1    0    0    0    0 -0.00000000000E+00 -0.00000000000E+00 -0.50000000000E+02  0.50000000000E+02  0.00000000000E+00 0.  1.
         23    2    1    2    0    0  0.00000000000E+00  0.00000000000E+00  0.00000000000E+00  0.10000000000E+03  0.10000000000E+03 0.  0.
          5    1    3    3  501    0  0.20173363593E+01  0.40290569136E+02  0.29163511324E+02  0.50000000000E+02  0.47000000000E+01 0. -1.
         -5    1    3    3    0  501 -0.20173363593E+01 -0.40290569136E+02 -0.29163511324E+02  0.50000000000E+02  0.47000000000E+01 0.  1.
</event>
<event>
 5    1  0.9023675E-001  0.1000000E+03  0.7546771E-02  0.1163815E+00
         11   -1    0    0    0    0  0.00000000000E+00  0.00000000000E+00  0.50000000000E+02  0.50000000000E+02  0.00000000000E+00 0. -1.
        -11   -1    0    0    0    0 -0.00000000000E+00 -0.00000000000E+00 -0.50000000000E+02  0.50000000000E+02  0.00000000000E+00 0.  1.
         23    2    1    2    0    0  0.00000000000E+00  0.00000000000E+00  0.00000000000E+00  0.10000000000E+03  0.10000000000E+03 0.  0.
          5    1    3    3  501    0  0.28938228861E+02  0.12366180993E+02  0.38568983368E+02  0.50000000000E+02  0.47000000000E+01 0. -1.
         -5    1    3    3    0  501 -0.28938228861E+02 -0.12366180993E+02 -0.38568983368E+02  0.50000000000E+02  0.47000000000E+01 0.  1.
</event>
<event>
 5    1  0.9023675E-001  0.1000000E+03  0.7546771E-02  0.1163815E+00
         11   -1    0    0    0    0  0.00000000000E+00  0.00000000000E+00  0.50000000000E+02  0.50000000000E+02  0.00000000000E+00 0.  1.
        -11   -1    0    0    0    0 -0.00000000000E+00 -0.00000000000E+00 -0.50000000000E+02  0.50000000000E+02  0.00000000000E+00 0. -1.
         23    2    1    2    0    0  0.00000000000E+00  0.00000000000E+00  0.00000000000E+00  0.10000000000E+03  0.10000000000E+03 0.  0.
          5    1    3    3  501    0 -0.35328923558E+02 -0.16237767017E+02 -0.31082343581E+02  0.50000000000E+02  0.47000000000E+01 0. -1.
         -5    1    3    3    0  501  0.35328923558E+02  0.16237767017E+02  0.31082343581E+02  0.50000000000E+02  0.47000000000E+01 0.  1.
</event>
<event>
 5    1  0.9023675E-001  0.1000000E+03  0.7546771E-02  0.1163815E+00
         11   -1    0    0    0    0  0.00000000000E+00  0.00000000000E+00  0.50000000000E+02  0.50000000000E+02  0.00000000000E+00 0. -1.
        -11   -1    0    0    0    0 -0.00000000000E+00 -0.00000000000E+00 -0.50000000000E+02  0.50000000000E+02  0.00000000000E+00 0.  1.
         23    2    1    2    0    0  0.00000000000E+00  0.00000000000E+00  0.00000000000E+00  0.10000000000E+03  0.10000000000E+03 0.  0.
          5    1    3    3  501    0 -0.30013200942E+02  0.33873920433E+02  0.20728610270E+02  0.50000000000E+02  0.47000000000E+01 0. -1.
         -5    1    3    3    0  501  0.30013200942E+02 -0.33873920433E+02 -0.20728610270E+02  0.50000000000E+02  0.47000000000E+01 0.  1.
</event>
<event>
 5    1  0.9023675E-001  0.1000000E+03  0.7546771E-02  0.1163815E+00
         11   -1    0    0    0    0  0.00000000000E+00  0.00000000000E+00  0.50000000000E+02  0.50000000000E+02  0.00000000000E+00 0. -1.
        -11   -1    0    0    0    0 -0.00000000000E+00 -0.00000000000E+00 -0.50000000000E+02  0.50000000000E+02  0.00000000000E+00 0.  1.
         23    2    1    2    0    0  0.00000000000E+00  0.00000000000E+00  0.00000000000E+00  0.10000000000E+03  0.10000000000E+03 0.  0.
          5    1    3    3  501    0 -0.96429395282E+01 -0.10724131743E+01  0.48823904465E+02  0.50000000000E+02  0.47000000000E+01 0. -1.
         -5    1    3    3    0  501  0.96429395282E+01  0.10724131743E+01 -0.48823904465E+02  0.50000000000E+02  0.47000000000E+01 0.  1.
</event>
<event>
 5    1  0.9023675E-001  0.1000000E+03  0.7546771E-02  0.1163815E+00
         11   -1    0    0    0    0  0.00000000000E+00  0.00000000000E+00  0.50000000000E+02  0.50000000000E+02  0.00000000000E+00 0. -1.
        -11   -1    0    0    0    0 -0.00000000000E+00 -0.00000000000E+00 -0.50000000000E+02  0.50000000000E+02  0.00000000000E+00 0.  1.
         23    2    1    2    0    0  0.00000000000E+00  0.00000000000E+00  0.00000000000E+00  0.10000000000E+03  0.10000000000E+03 0.  0.
          5    1    3    3  501    0 -0.40583585860E+02 -0.18685046403E+02  0.21948840509E+02  0.50000000000E+02  0.47000000000E+01 0. -1.
         -5    1    3    3    0  501  0.40583585860E+02  0.18685046403E+02 -0.21948840509E+02  0.50000000000E+02  0.47000000000E+01 0.  1.
</event>
<event>
 5    1  0.9023675E-001  0.1000000E+03  0.7546771E-02  0.1163815E+00
         11   -1    0    0    0    0  0.00000000000E+00  0.00000000000E+00  0.50000000000E+02  0.50000000000E+02  0.00000000000E+00 0. -1.
        -11   -1    0    0    0    0 -0.00000000000E+00 -0.00000000000E+00 -0.50000000000E+02  0.50000000000E+02  0.00000000000E+00 0.  1.
         23    2    1    2    0    0  0.00000000000E+00  0.00000000000E+00  0.00000000000E+00  0.10000000000E+03  0.10000000000E+03 0.  0.
          5    1    3    3  501    0  0.33863850833E+02 -0.28843274148E+02  0.22343122950E+02  0.50000000000E+02  0.47000000000E+01 0. -1.
         -5    1    3    3    0  501 -0.33863850833E+02  0.28843274148E+02 -0.22343122950E+02  0.50000000000E+02  0.47000000000E+01 0.  1.
</event>
<event>
 5    1  0.9023675E-001  0.1000000E+03  0.7546771E-02  0.1163815E+00
         11   -1    0    0    0    0  0.00000000000E+00  0.00000000000E+00  0.50000000000E+02  0.50000000000E+02  0.00000000000E+00 0. -1.
        -11   -1    0    0    0    0 -0.00000000000E+00 -0.00000000000E+00 -0.50000000000E+02  0.50000000000E+02  0.00000000000E+00 0.  1.
         23    2    1    2    0    0  0.00000000000E+00  0.00000000000E+00  0.00000000000E+00  0.10000000000E+03  0.10000000000E+03 0.  0.
          5    1    3    3  501    0  0.25229156993E+01  0.28702601977E+02  0.40591939300E+02  0.50000000000E+02  0.47000000000E+01 0. -1.
         -5    1    3    3    0  501 -0.25229156993E+01 -0.28702601977E+02 -0.40591939300E+02  0.50000000000E+02  0.47000000000E+01 0.  1.
</event>
<event>
 5    1  0.9023675E-001  0.1000000E+03  0.7546771E-02  0.1163815E+00
         11   -1    0    0    0    0  0.00000000000E+00  0.00000000000E+00  0.50000000000E+02  0.50000000000E+02  0.00000000000E+00 0.  1.
        -11   -1    0    0    0    0 -0.00000000000E+00 -0.00000000000E+00 -0.50000000000E+02  0.50000000000E+02  0.00000000000E+00 0. -1.
         23    2    1    2    0    0  0.00000000000E+00  0.00000000000E+00  0.00000000000E+00  0.10000000000E+03  0.10000000000E+03 0.  0.
          5    1    3    3  501    0  0.26788104779E+01 -0.47057406497E+01 -0.49483229274E+02  0.50000000000E+02  0.47000000000E+01 0. -1.
         -5    1    3    3    0  501 -0.26788104779E+01  0.47057406497E+01  0.49483229274E+02  0.50000000000E+02  0.47000000000E+01 0.  1.
</event>
<event>
 5    1  0.9023675E-001  0.1000000E+03  0.7546771E-02  0.1163815E+00
         11   -1    0    0    0    0  0.00000000000E+00  0.00000000000E+00  0.50000000000E+02  0.50000000000E+02  0.00000000000E+00 0.  1.
        -11   -1    0    0    0    0 -0.00000000000E+00 -0.00000000000E+00 -0.50000000000E+02  0.50000000000E+02  0.00000000000E+00 0. -1.
         23    2    1    2    0    0  0.00000000000E+00  0.00000000000E+00  0.00000000000E+00  0.10000000000E+03  0.10000000000E+03 0.  0.
          5    1    3    3  501    0 -0.19725436022E+02 -0.35613018948E+02 -0.28644895796E+02  0.50000000000E+02  0.47000000000E+01 0. -1.
         -5    1    3    3    0  501  0.19725436022E+02  0.35613018948E+02  0.28644895796E+02  0.50000000000E+02  0.47000000000E+01 0.  1.
</event>
<event>
 5    1  0.9023675E-001  0.1000000E+03  0.7546771E-02  0.1163815E+00
         11   -1    0    0    0    0  0.00000000000E+00  0.00000000000E+00  0.50000000000E+02  0.50000000000E+02  0.00000000000E+00 0.  1.
        -11   -1    0    0    0    0 -0.00000000000E+00 -0.00000000000E+00 -0.50000000000E+02  0.50000000000E+02  0.00000000000E+00 0. -1.
         23    2    1    2    0    0  0.00000000000E+00  0.00000000000E+00  0.00000000000E+00  0.10000000000E+03  0.10000000000E+03 0.  0.
          5    1    3    3  501    0  0.41410231009E+01  0.26942773120E+02 -0.41651517431E+02  0.50000000000E+02  0.47000000000E+01 0. -1.
         -5    1    3    3    0  501 -0.41410231009E+01 -0.26942773120E+02  0.41651517431E+02  0.50000000000E+02  0.47000000000E+01 0.  1.
</event>
<event>
 5    1  0.9023675E-001  0.1000000E+03  0.7546771E-02  0.1163815E+00
         11   -1    0    0    0    0  0.00000000000E+00  0.00000000000E+00  0.50000000000E+02  0.50000000000E+02  0.00000000000E+00 0.  1.
        -11   -1    0    0    0    0 -0.00000000000E+00 -0.00000000000E+00 -0.50000000000E+02  0.50000000000E+02  0.00000000000E+00 0. -1.
         23    2    1    2    0    0  0.00000000000E+00  0.00000000000E+00  0.00000000000E+00  0.10000000000E+03  0.10000000000E+03 0.  0.
          5    1    3    3  501    0 -0.27361649588E+02  0.24900945206E+02 -0.33304550135E+02  0.50000000000E+02  0.47000000000E+01 0. -1.
         -5    1    3    3    0  501  0.27361649588E+02 -0.24900945206E+02  0.33304550135E+02  0.50000000000E+02  0.47000000000E+01 0.  1.
</event>
<event>
 5    1  0.9023675E-001  0.1000000E+03  0.7546771E-02  0.1163815E+00
         11   -1    0    0    0    0  0.00000000000E+00  0.00000000000E+00  0.50000000000E+02  0.50000000000E+02  0.00000000000E+00 0. -1.
        -11   -1    0    0    0    0 -0.00000000000E+00 -0.00000000000E+00 -0.50000000000E+02  0.50000000000E+02  0.00000000000E+00 0.  1.
         23    2    1    2    0    0  0.00000000000E+00  0.00000000000E+00  0.00000000000E+00  0.10000000000E+03  0.10000000000E+03 0.  0.
          5    1    3    3  501    0 -0.21338783688E+02  0.43645026370E+02 -0.10847948371E+02  0.50000000000E+02  0.47000000000E+01 0. -1.
         -5    1    3    3    0  501  0.21338783688E+02 -0.43645026370E+02  0.10847948371E+02  0.50000000000E+02  0.47000000000E+01 0.  1.
</event>
<event>
 5    1  0.9023675E-001  0.1000000E+03  0.7546771E-02  0.1163815E+00
         11   -1    0    0    0    0  0.00000000000E+00  0.00000000000E+00  0.50000000000E+02  0.50000000000E+02  0.00000000000E+00 0. -1.
        -11   -1    0    0    0    0 -0.00000000000E+00 -0.00000000000E+00 -0.50000000000E+02  0.50000000000E+02  0.00000000000E+00 0.  1.
         23    2    1    2    0    0  0.00000000000E+00  0.00000000000E+00  0.00000000000E+00  0.10000000000E+03  0.10000000000E+03 0.  0.
          5    1    3    3  501    0  0.28215643407E+02  0.50945661923E+01  0.40691926256E+02  0.50000000000E+02  0.47000000000E+01 0. -1.
         -5    1    3    3    0  501 -0.28215643407E+02 -0.50945661923E+01 -0.40691926256E+02  0.50000000000E+02  0.47000000000E+01 0.  1.
</event>
<event>
 5    1  0.9023675E-001  0.1000000E+03  0.7546771E-02  0.1163815E+00
         11   -1    0    0    0    0  0.00000000000E+00  0.00000000000E+00  0.50000000000E+02  0.50000000000E+02  0.00000000000E+00 0. -1.
        -11   -1    0    0    0    0 -0.00000000000E+00 -0.00000000000E+00 -0.50000000000E+02  0.50000000000E+02  0.00000000000E+00 0.  1.
         23    2    1    2    0    0  0.00000000000E+00  0.00000000000E+00  0.00000000000E+00  0.10000000000E+03  0.10000000000E+03 0.  0.
          5    1    3    3  501    0  0.49269446891E+02 -0.19540289383E+01 -0.68273987682E+01  0.50000000000E+02  0.47000000000E+01 0. -1.
         -5    1    3    3    0  501 -0.49269446891E+02  0.19540289383E+01  0.68273987682E+01  0.50000000000E+02  0.47000000000E+01 0.  1.
</event>
<event>
 5    1  0.9023675E-001  0.1000000E+03  0.7546771E-02  0.1163815E+00
         11   -1    0    0    0    0  0.00000000000E+00  0.00000000000E+00  0.50000000000E+02  0.50000000000E+02  0.00000000000E+00 0. -1.
        -11   -1    0    0    0    0 -0.00000000000E+00 -0.00000000000E+00 -0.50000000000E+02  0.50000000000E+02  0.00000000000E+00 0.  1.
         23    2    1    2    0    0  0.00000000000E+00  0.00000000000E+00  0.00000000000E+00  0.10000000000E+03  0.10000000000E+03 0.  0.
          5    1    3    3  501    0  0.12711491548E+02  0.33379639500E+02  0.34671712526E+02  0.50000000000E+02  0.47000000000E+01 0. -1.
         -5    1    3    3    0  501 -0.12711491548E+02 -0.33379639500E+02 -0.34671712526E+02  0.50000000000E+02  0.47000000000E+01 0.  1.
</event>
<event>
 5    1  0.9023675E-001  0.1000000E+03  0.7546771E-02  0.1163815E+00
         11   -1    0    0    0    0  0.00000000000E+00  0.00000000000E+00  0.50000000000E+02  0.50000000000E+02  0.00000000000E+00 0.  1.
        -11   -1    0    0    0    0 -0.00000000000E+00 -0.00000000000E+00 -0.50000000000E+02  0.50000000000E+02  0.00000000000E+00 0. -1.
         23    2    1    2    0    0  0.00000000000E+00  0.00000000000E+00  0.00000000000E+00  0.10000000000E+03  0.10000000000E+03 0.  0.
          5    1    3    3  501    0 -0.90156781853E+00  0.35704032984E+01 -0.49642213848E+02  0.50000000000E+02  0.47000000000E+01 0. -1.
         -5    1    3    3    0  501  0.90156781853E+00 -0.35704032984E+01  0.49642213848E+02  0.50000000000E+02  0.47000000000E+01 0.  1.
</event>
<event>
 5    1  0.9023675E-001  0.1000000E+03  0.7546771E-02  0.1163815E+00
         11   -1    0    0    0    0  0.00000000000E+00  0.00000000000E+00  0.50000000000E+02  0.50000000000E+02  0.00000000000E+00 0. -1.
        -11   -1    0    0    0    0 -0.00000000000E+00 -0.00000000000E+00 -0.50000000000E+02  0.50000000000E+02  0.00000000000E+00 0.  1.
         23    2    1    2    0    0  0.00000000000E+00  0.00000000000E+00  0.00000000000E+00  0.10000000000E+03  0.10000000000E+03 0.  0.
          5    1    3    3  501    0  0.98580059336E+01  0.29564768660E+02  0.38815643407E+02  0.50000000000E+02  0.47000000000E+01 0. -1.
         -5    1    3    3    0  501 -0.98580059336E+01 -0.29564768660E+02 -0.38815643407E+02  0.50000000000E+02  0.47000000000E+01 0.  1.
</event>
<event>
 5    1  0.9023675E-001  0.1000000E+03  0.7546771E-02  0.1163815E+00
         11   -1    0    0    0    0  0.00000000000E+00  0.00000000000E+00  0.50000000000E+02  0.50000000000E+02  0.00000000000E+00 0. -1.
        -11   -1    0    0    0    0 -0.00000000000E+00 -0.00000000000E+00 -0.50000000000E+02  0.50000000000E+02  0.00000000000E+00 0.  1.
         23    2    1    2    0    0  0.00000000000E+00  0.00000000000E+00  0.00000000000E+00  0.10000000000E+03  0.10000000000E+03 0.  0.
          5    1    3    3  501    0 -0.17352106992E+02  0.35073079390E+02  0.30768384505E+02  0.50000000000E+02  0.47000000000E+01 0. -1.
         -5    1    3    3    0  501  0.17352106992E+02 -0.35073079390E+02 -0.30768384505E+02  0.50000000000E+02  0.47000000000E+01 0.  1.
</event>
<event>
 5    1  0.9023675E-001  0.1000000E+03  0.7546771E-02  0.1163815E+00
         11   -1    0    0    0    0  0.00000000000E+00  0.00000000000E+00  0.50000000000E+02  0.50000000000E+02  0.00000000000E+00 0.  1.
        -11   -1    0    0    0    0 -0.00000000000E+00 -0.00000000000E+00 -0.50000000000E+02  0.50000000000E+02  0.00000000000E+00 0. -1.
         23    2    1    2    0    0  0.00000000000E+00  0.00000000000E+00  0.00000000000E+00  0.10000000000E+03  0.10000000000E+03 0.  0.
          5    1    3    3  501    0  0.64398019739E+01 -0.47010356584E+02 -0.15048764879E+02  0.50000000000E+02  0.47000000000E+01 0. -1.
         -5    1    3    3    0  501 -0.64398019739E+01  0.47010356584E+02  0.15048764879E+02  0.50000000000E+02  0.47000000000E+01 0.  1.
</event>
<event>
 5    1  0.9023675E-001  0.1000000E+03  0.7546771E-02  0.1163815E+00
         11   -1    0    0    0    0  0.00000000000E+00  0.00000000000E+00  0.50000000000E+02  0.50000000000E+02  0.00000000000E+00 0. -1.
        -11   -1    0    0    0    0 -0.00000000000E+00 -0.00000000000E+00 -0.50000000000E+02  0.50000000000E+02  0.00000000000E+00 0.  1.
         23    2    1    2    0    0  0.00000000000E+00  0.00000000000E+00  0.00000000000E+00  0.10000000000E+03  0.10000000000E+03 0.  0.
          5    1    3    3  501    0  0.78597109982E+01  0.44077217260E+02  0.21756237305E+02  0.50000000000E+02  0.47000000000E+01 0. -1.
         -5    1    3    3    0  501 -0.78597109982E+01 -0.44077217260E+02 -0.21756237305E+02  0.50000000000E+02  0.47000000000E+01 0.  1.
</event>
<event>
 5    1  0.9023675E-001  0.1000000E+03  0.7546771E-02  0.1163815E+00
         11   -1    0    0    0    0  0.00000000000E+00  0.00000000000E+00  0.50000000000E+02  0.50000000000E+02  0.00000000000E+00 0. -1.
        -11   -1    0    0    0    0 -0.00000000000E+00 -0.00000000000E+00 -0.50000000000E+02  0.50000000000E+02  0.00000000000E+00 0.  1.
         23    2    1    2    0    0  0.00000000000E+00  0.00000000000E+00  0.00000000000E+00  0.10000000000E+03  0.10000000000E+03 0.  0.
          5    1    3    3  501    0 -0.35702765252E+02 -0.33884961987E+02  0.74183491725E+01  0.50000000000E+02  0.47000000000E+01 0. -1.
         -5    1    3    3    0  501  0.35702765252E+02  0.33884961987E+02 -0.74183491725E+01  0.50000000000E+02  0.47000000000E+01 0.  1.
</event>
<event>
 5    1  0.9023675E-001  0.1000000E+03  0.7546771E-02  0.1163815E+00
         11   -1    0    0    0    0  0.00000000000E+00  0.00000000000E+00  0.50000000000E+02  0.50000000000E+02  0.00000000000E+00 0. -1.
        -11   -1    0    0    0    0 -0.00000000000E+00 -0.00000000000E+00 -0.50000000000E+02  0.50000000000E+02  0.00000000000E+00 0.  1.
         23    2    1    2    0    0  0.00000000000E+00  0.00000000000E+00  0.00000000000E+00  0.10000000000E+03  0.10000000000E+03 0.  0.
          5    1    3    3  501    0  0.51661703798E+00  0.10195081527E+02  0.48720667273E+02  0.50000000000E+02  0.47000000000E+01 0. -1.
         -5    1    3    3    0  501 -0.51661703798E+00 -0.10195081527E+02 -0.48720667273E+02  0.50000000000E+02  0.47000000000E+01 0.  1.
</event>
<event>
 5    1  0.9023675E-001  0.1000000E+03  0.7546771E-02  0.1163815E+00
         11   -1    0    0    0    0  0.00000000000E+00  0.00000000000E+00  0.50000000000E+02  0.50000000000E+02  0.00000000000E+00 0.  1.
        -11   -1    0    0    0    0 -0.00000000000E+00 -0.00000000000E+00 -0.50000000000E+02  0.50000000000E+02  0.00000000000E+00 0. -1.
         23    2    1    2    0    0  0.00000000000E+00  0.00000000000E+00  0.00000000000E+00  0.10000000000E+03  0.10000000000E+03 0.  0.
          5    1    3    3  501    0 -0.42660221140E+02  0.10134550249E+02 -0.23564940559E+02  0.50000000000E+02  0.47000000000E+01 0. -1.
         -5    1    3    3    0  501  0.42660221140E+02 -0.10134550249E+02  0.23564940559E+02  0.50000000000E+02  0.47000000000E+01 0.  1.
</event>
<event>
 5    1  0.9023675E-001  0.1000000E+03  0.7546771E-02  0.1163815E+00
         11   -1    0    0    0    0  0.00000000000E+00  0.00000000000E+00  0.50000000000E+02  0.50000000000E+02  0.00000000000E+00 0.  1.
        -11   -1    0    0    0    0 -0.00000000000E+00 -0.00000000000E+00 -0.50000000000E+02  0.50000000000E+02  0.00000000000E+00 0. -1.
         23    2    1    2    0    0  0.00000000000E+00  0.00000000000E+00  0.00000000000E+00  0.10000000000E+03  0.10000000000E+03 0.  0.
          5    1    3    3  501    0  0.38231206285E+02 -0.85080620038E+01 -0.30722918920E+02  0.50000000000E+02  0.47000000000E+01 0. -1.
         -5    1    3    3    0  501 -0.38231206285E+02  0.85080620038E+01  0.30722918920E+02  0.50000000000E+02  0.47000000000E+01 0.  1.
</event>
<event>
 5    1  0.9023675E-001  0.1000000E+03  0.7546771E-02  0.1163815E+00
         11   -1    0    0    0    0  0.00000000000E+00  0.00000000000E+00  0.50000000000E+02  0.50000000000E+02  0.00000000000E+00 0. -1.
        -11   -1    0    0    0    0 -0.00000000000E+00 -0.00000000000E+00 -0.50000000000E+02  0.50000000000E+02  0.00000000000E+00 0.  1.
         23    2    1    2    0    0  0.00000000000E+00  0.00000000000E+00  0.00000000000E+00  0.10000000000E+03  0.10000000000E+03 0.  0.
          5    1    3    3  501    0  0.33722778506E+02  0.12104900925E+02  0.34556556302E+02  0.50000000000E+02  0.47000000000E+01 0. -1.
         -5    1    3    3    0  501 -0.33722778506E+02 -0.12104900925E+02 -0.34556556302E+02  0.50000000000E+02  0.47000000000E+01 0.  1.
</event>
<event>
 5    1  0.9023675E-001  0.1000000E+03  0.7546771E-02  0.1163815E+00
         11   -1    0    0    0    0  0.00000000000E+00  0.00000000000E+00  0.50000000000E+02  0.50000000000E+02  0.00000000000E+00 0. -1.
        -11   -1    0    0    0    0 -0.00000000000E+00 -0.00000000000E+00 -0.50000000000E+02  0.50000000000E+02  0.00000000000E+00 0.  1.
         23    2    1    2    0    0  0.00000000000E+00  0.00000000000E+00  0.00000000000E+00  0.10000000000E+03  0.10000000000E+03 0.  0.
          5    1    3    3  501    0  0.44930308725E+02  0.11301282376E+02  0.18205998313E+02  0.50000000000E+02  0.47000000000E+01 0. -1.
         -5    1    3    3    0  501 -0.44930308725E+02 -0.11301282376E+02 -0.18205998313E+02  0.50000000000E+02  0.47000000000E+01 0.  1.
</event>
<event>
 5    1  0.9023675E-001  0.1000000E+03  0.7546771E-02  0.1163815E+00
         11   -1    0    0    0    0  0.00000000000E+00  0.00000000000E+00  0.50000000000E+02  0.50000000000E+02  0.00000000000E+00 0.  1.
        -11   -1    0    0    0    0 -0.00000000000E+00 -0.00000000000E+00 -0.50000000000E+02  0.50000000000E+02  0.00000000000E+00 0. -1.
         23    2    1    2    0    0  0.00000000000E+00  0.00000000000E+00  0.00000000000E+00  0.10000000000E+03  0.10000000000E+03 0.  0.
          5    1    3    3  501    0  0.30986225284E+02 -0.22880873521E+02 -0.31531404497E+02  0.50000000000E+02  0.47000000000E+01 0. -1.
         -5    1    3    3    0  501 -0.30986225284E+02  0.22880873521E+02  0.31531404497E+02  0.50000000000E+02  0.47000000000E+01 0.  1.
</event>
<event>
 5    1  0.9023675E-001  0.1000000E+03  0.7546771E-02  0.1163815E+00
         11   -1    0    0    0    0  0.00000000000E+00  0.00000000000E+00  0.50000000000E+02  0.50000000000E+02  0.00000000000E+00 0. -1.
        -11   -1    0    0    0    0 -0.00000000000E+00 -0.00000000000E+00 -0.50000000000E+02  0.50000000000E+02  0.00000000000E+00 0.  1.
         23    2    1    2    0    0  0.00000000000E+00  0.00000000000E+00  0.00000000000E+00  0.10000000000E+03  0.10000000000E+03 0.  0.
          5    1    3    3  501    0 -0.13735753485E+02  0.41681062966E+02  0.23493149346E+02  0.50000000000E+02  0.47000000000E+01 0. -1.
         -5    1    3    3    0  501  0.13735753485E+02 -0.41681062966E+02 -0.23493149346E+02  0.50000000000E+02  0.47000000000E+01 0.  1.
</event>
<event>
 5    1  0.9023675E-001  0.1000000E+03  0.7546771E-02  0.1163815E+00
         11   -1    0    0    0    0  0.00000000000E+00  0.00000000000E+00  0.50000000000E+02  0.50000000000E+02  0.00000000000E+00 0. -1.
        -11   -1    0    0    0    0 -0.00000000000E+00 -0.00000000000E+00 -0.50000000000E+02  0.50000000000E+02  0.00000000000E+00 0.  1.
         23    2    1    2    0    0  0.00000000000E+00  0.00000000000E+00  0.00000000000E+00  0.10000000000E+03  0.10000000000E+03 0.  0.
          5    1    3    3  501    0 -0.21165383016E+02  0.44280433219E+02 -0.83174392508E+01  0.50000000000E+02  0.47000000000E+01 0.  1.
         -5    1    3    3    0  501  0.21165383016E+02 -0.44280433219E+02  0.83174392508E+01  0.50000000000E+02  0.47000000000E+01 0. -1.
</event>
<event>
 5    1  0.9023675E-001  0.1000000E+03  0.7546771E-02  0.1163815E+00
         11   -1    0    0    0    0  0.00000000000E+00  0.00000000000E+00  0.50000000000E+02  0.50000000000E+02  0.00000000000E+00 0. -1.
        -11   -1    0    0    0    0 -0.00000000000E+00 -0.00000000000E+00 -0.50000000000E+02  0.50000000000E+02  0.00000000000E+00 0.  1.
         23    2    1    2    0    0  0.00000000000E+00  0.00000000000E+00  0.00000000000E+00  0.10000000000E+03  0.10000000000E+03 0.  0.
          5    1    3    3  501    0  0.92681352600E+01 -0.42353418511E+02 -0.24458119494E+02  0.50000000000E+02  0.47000000000E+01 0. -1.
         -5    1    3    3    0  501 -0.92681352600E+01  0.42353418511E+02  0.24458119494E+02  0.50000000000E+02  0.47000000000E+01 0.  1.
</event>
<event>
 5    1  0.9023675E-001  0.1000000E+03  0.7546771E-02  0.1163815E+00
         11   -1    0    0    0    0  0.00000000000E+00  0.00000000000E+00  0.50000000000E+02  0.50000000000E+02  0.00000000000E+00 0.  1.
        -11   -1    0    0    0    0 -0.00000000000E+00 -0.00000000000E+00 -0.50000000000E+02  0.50000000000E+02  0.00000000000E+00 0. -1.
         23    2    1    2    0    0  0.00000000000E+00  0.00000000000E+00  0.00000000000E+00  0.10000000000E+03  0.10000000000E+03 0.  0.
          5    1    3    3  501    0  0.32956029848E+02 -0.98303440004E+00 -0.37294017483E+02  0.50000000000E+02  0.47000000000E+01 0. -1.
         -5    1    3    3    0  501 -0.32956029848E+02  0.98303440004E+00  0.37294017483E+02  0.50000000000E+02  0.47000000000E+01 0.  1.
</event>
<event>
 5    1  0.9023675E-001  0.1000000E+03  0.7546771E-02  0.1163815E+00
         11   -1    0    0    0    0  0.00000000000E+00  0.00000000000E+00  0.50000000000E+02  0.50000000000E+02  0.00000000000E+00 0. -1.
        -11   -1    0    0    0    0 -0.00000000000E+00 -0.00000000000E+00 -0.50000000000E+02  0.50000000000E+02  0.00000000000E+00 0.  1.
         23    2    1    2    0    0  0.00000000000E+00  0.00000000000E+00  0.00000000000E+00  0.10000000000E+03  0.10000000000E+03 0.  0.
          5    1    3    3  501    0  0.43801091879E+02  0.14754314215E+02  0.18484711581E+02  0.50000000000E+02  0.47000000000E+01 0. -1.
         -5    1    3    3    0  501 -0.43801091879E+02 -0.14754314215E+02 -0.18484711581E+02  0.50000000000E+02  0.47000000000E+01 0.  1.
</event>
<event>
 5    1  0.9023675E-001  0.1000000E+03  0.7546771E-02  0.1163815E+00
         11   -1    0    0    0    0  0.00000000000E+00  0.00000000000E+00  0.50000000000E+02  0.50000000000E+02  0.00000000000E+00 0. -1.
        -11   -1    0    0    0    0 -0.00000000000E+00 -0.00000000000E+00 -0.50000000000E+02  0.50000000000E+02  0.00000000000E+00 0.  1.
         23    2    1    2    0    0  0.00000000000E+00  0.00000000000E+00  0.00000000000E+00  0.10000000000E+03  0.10000000000E+03 0.  0.
          5    1    3    3  501    0  0.16429741923E+02  0.27309969800E+02  0.38237927897E+02  0.50000000000E+02  0.47000000000E+01 0. -1.
         -5    1    3    3    0  501 -0.16429741923E+02 -0.27309969800E+02 -0.38237927897E+02  0.50000000000E+02  0.47000000000E+01 0.  1.
</event>
<event>
 5    1  0.9023675E-001  0.1000000E+03  0.7546771E-02  0.1163815E+00
         11   -1    0    0    0    0  0.00000000000E+00  0.00000000000E+00  0.50000000000E+02  0.50000000000E+02  0.00000000000E+00 0.  1.
        -11   -1    0    0    0    0 -0.00000000000E+00 -0.00000000000E+00 -0.50000000000E+02  0.50000000000E+02  0.00000000000E+00 0. -1.
         23    2    1    2    0    0  0.00000000000E+00  0.00000000000E+00  0.00000000000E+00  0.10000000000E+03  0.10000000000E+03 0.  0.
          5    1    3    3  501    0  0.41219647137E+02  0.24985840260E+02  0.12432154937E+02  0.50000000000E+02  0.47000000000E+01 0. -1.
         -5    1    3    3    0  501 -0.41219647137E+02 -0.24985840260E+02 -0.12432154937E+02  0.50000000000E+02  0.47000000000E+01 0.  1.
</event>
<event>
 5    1  0.9023675E-001  0.1000000E+03  0.7546771E-02  0.1163815E+00
         11   -1    0    0    0    0  0.00000000000E+00  0.00000000000E+00  0.50000000000E+02  0.50000000000E+02  0.00000000000E+00 0. -1.
        -11   -1    0    0    0    0 -0.00000000000E+00 -0.00000000000E+00 -0.50000000000E+02  0.50000000000E+02  0.00000000000E+00 0.  1.
         23    2    1    2    0    0  0.00000000000E+00  0.00000000000E+00  0.00000000000E+00  0.10000000000E+03  0.10000000000E+03 0.  0.
          5    1    3    3  501    0  0.47951030548E+02 -0.12232947318E+02  0.53817905253E+01  0.50000000000E+02  0.47000000000E+01 0. -1.
         -5    1    3    3    0  501 -0.47951030548E+02  0.12232947318E+02 -0.53817905253E+01  0.50000000000E+02  0.47000000000E+01 0.  1.
</event>
<event>
 5    1  0.9023675E-001  0.1000000E+03  0.7546771E-02  0.1163815E+00
         11   -1    0    0    0    0  0.00000000000E+00  0.00000000000E+00  0.50000000000E+02  0.50000000000E+02  0.00000000000E+00 0. -1.
        -11   -1    0    0    0    0 -0.00000000000E+00 -0.00000000000E+00 -0.50000000000E+02  0.50000000000E+02  0.00000000000E+00 0.  1.
         23    2    1    2    0    0  0.00000000000E+00  0.00000000000E+00  0.00000000000E+00  0.10000000000E+03  0.10000000000E+03 0.  0.
          5    1    3    3  501    0 -0.95524957055E+01  0.29044787399E+02  0.39281804322E+02  0.50000000000E+02  0.47000000000E+01 0. -1.
         -5    1    3    3    0  501  0.95524957055E+01 -0.29044787399E+02 -0.39281804322E+02  0.50000000000E+02  0.47000000000E+01 0.  1.
</event>
<event>
 5    1  0.9023675E-001  0.1000000E+03  0.7546771E-02  0.1163815E+00
         11   -1    0    0    0    0  0.00000000000E+00  0.00000000000E+00  0.50000000000E+02  0.50000000000E+02  0.00000000000E+00 0. -1.
        -11   -1    0    0    0    0 -0.00000000000E+00 -0.00000000000E+00 -0.50000000000E+02  0.50000000000E+02  0.00000000000E+00 0.  1.
         23    2    1    2    0    0  0.00000000000E+00  0.00000000000E+00  0.00000000000E+00  0.10000000000E+03  0.10000000000E+03 0.  0.
          5    1    3    3  501    0 -0.34664020470E+02 -0.17062855035E+02  0.31387492141E+02  0.50000000000E+02  0.47000000000E+01 0. -1.
         -5    1    3    3    0  501  0.34664020470E+02  0.17062855035E+02 -0.31387492141E+02  0.50000000000E+02  0.47000000000E+01 0.  1.
</event>
<event>
 5    1  0.9023675E-001  0.1000000E+03  0.7546771E-02  0.1163815E+00
         11   -1    0    0    0    0  0.00000000000E+00  0.00000000000E+00  0.50000000000E+02  0.50000000000E+02  0.00000000000E+00 0. -1.
        -11   -1    0    0    0    0 -0.00000000000E+00 -0.00000000000E+00 -0.50000000000E+02  0.50000000000E+02  0.00000000000E+00 0.  1.
         23    2    1    2    0    0  0.00000000000E+00  0.00000000000E+00  0.00000000000E+00  0.10000000000E+03  0.10000000000E+03 0.  0.
          5    1    3    3  501    0 -0.21206481247E+02  0.35685806913E+02  0.27472137487E+02  0.50000000000E+02  0.47000000000E+01 0. -1.
         -5    1    3    3    0  501  0.21206481247E+02 -0.35685806913E+02 -0.27472137487E+02  0.50000000000E+02  0.47000000000E+01 0.  1.
</event>
<event>
 5    1  0.9023675E-001  0.1000000E+03  0.7546771E-02  0.1163815E+00
         11   -1    0    0    0    0  0.00000000000E+00  0.00000000000E+00  0.50000000000E+02  0.50000000000E+02  0.00000000000E+00 0. -1.
        -11   -1    0    0    0    0 -0.00000000000E+00 -0.00000000000E+00 -0.50000000000E+02  0.50000000000E+02  0.00000000000E+00 0.  1.
         23    2    1    2    0    0  0.00000000000E+00  0.00000000000E+00  0.00000000000E+00  0.10000000000E+03  0.10000000000E+03 0.  0.
          5    1    3    3  501    0 -0.33370666543E+02  0.19858025314E+02  0.31144300363E+02  0.50000000000E+02  0.47000000000E+01 0. -1.
         -5    1    3    3    0  501  0.33370666543E+02 -0.19858025314E+02 -0.31144300363E+02  0.50000000000E+02  0.47000000000E+01 0.  1.
</event>
<event>
 5    1  0.9023675E-001  0.1000000E+03  0.7546771E-02  0.1163815E+00
         11   -1    0    0    0    0  0.00000000000E+00  0.00000000000E+00  0.50000000000E+02  0.50000000000E+02  0.00000000000E+00 0.  1.
        -11   -1    0    0    0    0 -0.00000000000E+00 -0.00000000000E+00 -0.50000000000E+02  0.50000000000E+02  0.00000000000E+00 0. -1.
         23    2    1    2    0    0  0.00000000000E+00  0.00000000000E+00  0.00000000000E+00  0.10000000000E+03  0.10000000000E+03 0.  0.
          5    1    3    3  501    0 -0.34661041827E+01  0.40325835674E+02 -0.28977976103E+02  0.50000000000E+02  0.47000000000E+01 0. -1.
         -5    1    3    3    0  501  0.34661041827E+01 -0.40325835674E+02  0.28977976103E+02  0.50000000000E+02  0.47000000000E+01 0.  1.
</event>
<event>
 5    1  0.9023675E-001  0.1000000E+03  0.7546771E-02  0.1163815E+00
         11   -1    0    0    0    0  0.00000000000E+00  0.00000000000E+00  0.50000000000E+02  0.50000000000E+02  0.00000000000E+00 0. -1.
        -11   -1    0    0    0    0 -0.00000000000E+00 -0.00000000000E+00 -0.50000000000E+02  0.50000000000E+02  0.00000000000E+00 0.  1.
         23    2    1    2    0    0  0.00000000000E+00  0.00000000000E+00  0.00000000000E+00  0.10000000000E+03  0.10000000000E+03 0.  0.
          5    1    3    3  501    0  0.24668189443E+02  0.43223688615E+02  0.10503200208E+01  0.50000000000E+02  0.47000000000E+01 0. -1.
         -5    1    3    3    0  501 -0.24668189443E+02 -0.43223688615E+02 -0.10503200208E+01  0.50000000000E+02  0.47000000000E+01 0.  1.
</event>
<event>
 5    1  0.9023675E-001  0.1000000E+03  0.7546771E-02  0.1163815E+00
         11   -1    0    0    0    0  0.00000000000E+00  0.00000000000E+00  0.50000000000E+02  0.50000000000E+02  0.00000000000E+00 0. -1.
        -11   -1    0    0    0    0 -0.00000000000E+00 -0.00000000000E+00 -0.50000000000E+02  0.50000000000E+02  0.00000000000E+00 0.  1.
         23    2    1    2    0    0  0.00000000000E+00  0.00000000000E+00  0.00000000000E+00  0.10000000000E+03  0.10000000000E+03 0.  0.
          5    1    3    3  501    0  0.10788221721E+02 -0.60666712804E+00  0.48591730028E+02  0.50000000000E+02  0.47000000000E+01 0. -1.
         -5    1    3    3    0  501 -0.10788221721E+02  0.60666712804E+00 -0.48591730028E+02  0.50000000000E+02  0.47000000000E+01 0.  1.
</event>
<event>
 5    1  0.9023675E-001  0.1000000E+03  0.7546771E-02  0.1163815E+00
         11   -1    0    0    0    0  0.00000000000E+00  0.00000000000E+00  0.50000000000E+02  0.50000000000E+02  0.00000000000E+00 0. -1.
        -11   -1    0    0    0    0 -0.00000000000E+00 -0.00000000000E+00 -0.50000000000E+02  0.50000000000E+02  0.00000000000E+00 0.  1.
         23    2    1    2    0    0  0.00000000000E+00  0.00000000000E+00  0.00000000000E+00  0.10000000000E+03  0.10000000000E+03 0.  0.
          5    1    3    3  501    0  0.57196253991E+01  0.25303425243E+02  0.42484497835E+02  0.50000000000E+02  0.47000000000E+01 0. -1.
         -5    1    3    3    0  501 -0.57196253991E+01 -0.25303425243E+02 -0.42484497835E+02  0.50000000000E+02  0.47000000000E+01 0.  1.
</event>
<event>
 5    1  0.9023675E-001  0.1000000E+03  0.7546771E-02  0.1163815E+00
         11   -1    0    0    0    0  0.00000000000E+00  0.00000000000E+00  0.50000000000E+02  0.50000000000E+02  0.00000000000E+00 0. -1.
        -11   -1    0    0    0    0 -0.00000000000E+00 -0.00000000000E+00 -0.50000000000E+02  0.50000000000E+02  0.00000000000E+00 0.  1.
         23    2    1    2    0    0  0.00000000000E+00  0.00000000000E+00  0.00000000000E+00  0.10000000000E+03  0.10000000000E+03 0.  0.
          5    1    3    3  501    0 -0.17918562137E+02 -0.45485978147E+02  0.93734157577E+01  0.50000000000E+02  0.47000000000E+01 0. -1.
         -5    1    3    3    0  501  0.17918562137E+02  0.45485978147E+02 -0.93734157577E+01  0.50000000000E+02  0.47000000000E+01 0.  1.
</event>
<event>
 5    1  0.9023675E-001  0.1000000E+03  0.7546771E-02  0.1163815E+00
         11   -1    0    0    0    0  0.00000000000E+00  0.00000000000E+00  0.50000000000E+02  0.50000000000E+02  0.00000000000E+00 0. -1.
        -11   -1    0    0    0    0 -0.00000000000E+00 -0.00000000000E+00 -0.50000000000E+02  0.50000000000E+02  0.00000000000E+00 0.  1.
         23    2    1    2    0    0  0.00000000000E+00  0.00000000000E+00  0.00000000000E+00  0.10000000000E+03  0.10000000000E+03 0.  0.
          5    1    3    3  501    0 -0.10581134620E+02  0.31026819531E+02  0.37460459954E+02  0.50000000000E+02  0.47000000000E+01 0. -1.
         -5    1    3    3    0  501  0.10581134620E+02 -0.31026819531E+02 -0.37460459954E+02  0.50000000000E+02  0.47000000000E+01 0.  1.
</event>
<event>
 5    1  0.9023675E-001  0.1000000E+03  0.7546771E-02  0.1163815E+00
         11   -1    0    0    0    0  0.00000000000E+00  0.00000000000E+00  0.50000000000E+02  0.50000000000E+02  0.00000000000E+00 0.  1.
        -11   -1    0    0    0    0 -0.00000000000E+00 -0.00000000000E+00 -0.50000000000E+02  0.50000000000E+02  0.00000000000E+00 0. -1.
         23    2    1    2    0    0  0.00000000000E+00  0.00000000000E+00  0.00000000000E+00  0.10000000000E+03  0.10000000000E+03 0.  0.
          5    1    3    3  501    0  0.12720751352E+02 -0.30240540226E+02 -0.37437978202E+02  0.50000000000E+02  0.47000000000E+01 0. -1.
         -5    1    3    3    0  501 -0.12720751352E+02  0.30240540226E+02  0.37437978202E+02  0.50000000000E+02  0.47000000000E+01 0.  1.
</event>
<event>
 5    1  0.9023675E-001  0.1000000E+03  0.7546771E-02  0.1163815E+00
         11   -1    0    0    0    0  0.00000000000E+00  0.00000000000E+00  0.50000000000E+02  0.50000000000E+02  0.00000000000E+00 0. -1.
        -11   -1    0    0    0    0 -0.00000000000E+00 -0.00000000000E+00 -0.50000000000E+02  0.50000000000E+02  0.00000000000E+00 0.  1.
         23    2    1    2    0    0  0.00000000000E+00  0.00000000000E+00  0.00000000000E+00  0.10000000000E+03  0.10000000000E+03 0.  0.
          5    1    3    3  501    0 -0.11278286525E+02  0.38920529757E+02 -0.28911980500E+02  0.50000000000E+02  0.47000000000E+01 0. -1.
         -5    1    3    3    0  501  0.11278286525E+02 -0.38920529757E+02  0.28911980500E+02  0.50000000000E+02  0.47000000000E+01 0.  1.
</event>
<event>
 5    1  0.9023675E-001  0.1000000E+03  0.7546771E-02  0.1163815E+00
         11   -1    0    0    0    0  0.00000000000E+00  0.00000000000E+00  0.50000000000E+02  0.50000000000E+02  0.00000000000E+00 0.  1.
        -11   -1    0    0    0    0 -0.00000000000E+00 -0.00000000000E+00 -0.50000000000E+02  0.50000000000E+02  0.00000000000E+00 0. -1.
         23    2    1    2    0    0  0.00000000000E+00  0.00000000000E+00  0.00000000000E+00  0.10000000000E+03  0.10000000000E+03 0.  0.
          5    1    3    3  501    0 -0.20326228734E+02 -0.44719936398E+02  0.80549186224E+01  0.50000000000E+02  0.47000000000E+01 0. -1.
         -5    1    3    3    0  501  0.20326228734E+02  0.44719936398E+02 -0.80549186224E+01  0.50000000000E+02  0.47000000000E+01 0.  1.
</event>
<event>
 5    1  0.9023675E-001  0.1000000E+03  0.7546771E-02  0.1163815E+00
         11   -1    0    0    0    0  0.00000000000E+00  0.00000000000E+00  0.50000000000E+02  0.50000000000E+02  0.00000000000E+00 0. -1.
        -11   -1    0    0    0    0 -0.00000000000E+00 -0.00000000000E+00 -0.50000000000E+02  0.50000000000E+02  0.00000000000E+00 0.  1.
         23    2    1    2    0    0  0.00000000000E+00  0.00000000000E+00  0.00000000000E+00  0.10000000000E+03  0.10000000000E+03 0.  0.
          5    1    3    3  501    0  0.16099281493E+02  0.45860736516E+02  0.10747836139E+02  0.50000000000E+02  0.47000000000E+01 0. -1.
         -5    1    3    3    0  501 -0.16099281493E+02 -0.45860736516E+02 -0.10747836139E+02  0.50000000000E+02  0.47000000000E+01 0.  1.
</event>
<event>
 5    1  0.9023675E-001  0.1000000E+03  0.7546771E-02  0.1163815E+00
         11   -1    0    0    0    0  0.00000000000E+00  0.00000000000E+00  0.50000000000E+02  0.50000000000E+02  0.00000000000E+00 0. -1.
        -11   -1    0    0    0    0 -0.00000000000E+00 -0.00000000000E+00 -0.50000000000E+02  0.50000000000E+02  0.00000000000E+00 0.  1.
         23    2    1    2    0    0  0.00000000000E+00  0.00000000000E+00  0.00000000000E+00  0.10000000000E+03  0.10000000000E+03 0.  0.
          5    1    3    3  501    0 -0.38513894102E+02 -0.30023718208E+02 -0.96522694788E+01  0.50000000000E+02  0.47000000000E+01 0. -1.
         -5    1    3    3    0  501  0.38513894102E+02  0.30023718208E+02  0.96522694788E+01  0.50000000000E+02  0.47000000000E+01 0.  1.
</event>
<event>
 5    1  0.9023675E-001  0.1000000E+03  0.7546771E-02  0.1163815E+00
         11   -1    0    0    0    0  0.00000000000E+00  0.00000000000E+00  0.50000000000E+02  0.50000000000E+02  0.00000000000E+00 0. -1.
        -11   -1    0    0    0    0 -0.00000000000E+00 -0.00000000000E+00 -0.50000000000E+02  0.50000000000E+02  0.00000000000E+00 0.  1.
         23    2    1    2    0    0  0.00000000000E+00  0.00000000000E+00  0.00000000000E+00  0.10000000000E+03  0.10000000000E+03 0.  0.
          5    1    3    3  501    0 -0.36403007466E+02  0.16972639670E+02  0.29405110952E+02  0.50000000000E+02  0.47000000000E+01 0. -1.
         -5    1    3    3    0  501  0.36403007466E+02 -0.16972639670E+02 -0.29405110952E+02  0.50000000000E+02  0.47000000000E+01 0.  1.
</event>
<event>
 5    1  0.9023675E-001  0.1000000E+03  0.7546771E-02  0.1163815E+00
         11   -1    0    0    0    0  0.00000000000E+00  0.00000000000E+00  0.50000000000E+02  0.50000000000E+02  0.00000000000E+00 0. -1.
        -11   -1    0    0    0    0 -0.00000000000E+00 -0.00000000000E+00 -0.50000000000E+02  0.50000000000E+02  0.00000000000E+00 0.  1.
         23    2    1    2    0    0  0.00000000000E+00  0.00000000000E+00  0.00000000000E+00  0.10000000000E+03  0.10000000000E+03 0.  0.
          5    1    3    3  501    0 -0.40475077982E+02 -0.10817744989E+02  0.26882233086E+02  0.50000000000E+02  0.47000000000E+01 0. -1.
         -5    1    3    3    0  501  0.40475077982E+02  0.10817744989E+02 -0.26882233086E+02  0.50000000000E+02  0.47000000000E+01 0.  1.
</event>
<event>
 5    1  0.9023675E-001  0.1000000E+03  0.7546771E-02  0.1163815E+00
         11   -1    0    0    0    0  0.00000000000E+00  0.00000000000E+00  0.50000000000E+02  0.50000000000E+02  0.00000000000E+00 0.  1.
        -11   -1    0    0    0    0 -0.00000000000E+00 -0.00000000000E+00 -0.50000000000E+02  0.50000000000E+02  0.00000000000E+00 0. -1.
         23    2    1    2    0    0  0.00000000000E+00  0.00000000000E+00  0.00000000000E+00  0.10000000000E+03  0.10000000000E+03 0.  0.
          5    1    3    3  501    0  0.26587359223E+02  0.26579692968E+02 -0.32627323692E+02  0.50000000000E+02  0.47000000000E+01 0. -1.
         -5    1    3    3    0  501 -0.26587359223E+02 -0.26579692968E+02  0.32627323692E+02  0.50000000000E+02  0.47000000000E+01 0.  1.
</event>
<event>
 5    1  0.9023675E-001  0.1000000E+03  0.7546771E-02  0.1163815E+00
         11   -1    0    0    0    0  0.00000000000E+00  0.00000000000E+00  0.50000000000E+02  0.50000000000E+02  0.00000000000E+00 0.  1.
        -11   -1    0    0    0    0 -0.00000000000E+00 -0.00000000000E+00 -0.50000000000E+02  0.50000000000E+02  0.00000000000E+00 0. -1.
         23    2    1    2    0    0  0.00000000000E+00  0.00000000000E+00  0.00000000000E+00  0.10000000000E+03  0.10000000000E+03 0.  0.
          5    1    3    3  501    0  0.33190998977E+02  0.33110115859E+02 -0.16732836423E+02  0.50000000000E+02  0.47000000000E+01 0. -1.
         -5    1    3    3    0  501 -0.33190998977E+02 -0.33110115859E+02  0.16732836423E+02  0.50000000000E+02  0.47000000000E+01 0.  1.
</event>
<event>
 5    1  0.9023675E-001  0.1000000E+03  0.7546771E-02  0.1163815E+00
         11   -1    0    0    0    0  0.00000000000E+00  0.00000000000E+00  0.50000000000E+02  0.50000000000E+02  0.00000000000E+00 0. -1.
        -11   -1    0    0    0    0 -0.00000000000E+00 -0.00000000000E+00 -0.50000000000E+02  0.50000000000E+02  0.00000000000E+00 0.  1.
         23    2    1    2    0    0  0.00000000000E+00  0.00000000000E+00  0.00000000000E+00  0.10000000000E+03  0.10000000000E+03 0.  0.
          5    1    3    3  501    0  0.84628037028E+01 -0.40829016134E+02  0.27189747977E+02  0.50000000000E+02  0.47000000000E+01 0. -1.
         -5    1    3    3    0  501 -0.84628037028E+01  0.40829016134E+02 -0.27189747977E+02  0.50000000000E+02  0.47000000000E+01 0.  1.
</event>
<event>
 5    1  0.9023675E-001  0.1000000E+03  0.7546771E-02  0.1163815E+00
         11   -1    0    0    0    0  0.00000000000E+00  0.00000000000E+00  0.50000000000E+02  0.50000000000E+02  0.00000000000E+00 0.  1.
        -11   -1    0    0    0    0 -0.00000000000E+00 -0.00000000000E+00 -0.50000000000E+02  0.50000000000E+02  0.00000000000E+00 0. -1.
         23    2    1    2    0    0  0.00000000000E+00  0.00000000000E+00  0.00000000000E+00  0.10000000000E+03  0.10000000000E+03 0.  0.
          5    1    3    3  501    0  0.24069745480E+02  0.26249540709E+02 -0.34778139184E+02  0.50000000000E+02  0.47000000000E+01 0. -1.
         -5    1    3    3    0  501 -0.24069745480E+02 -0.26249540709E+02  0.34778139184E+02  0.50000000000E+02  0.47000000000E+01 0.  1.
</event>
<event>
 5    1  0.9023675E-001  0.1000000E+03  0.7546771E-02  0.1163815E+00
         11   -1    0    0    0    0  0.00000000000E+00  0.00000000000E+00  0.50000000000E+02  0.50000000000E+02  0.00000000000E+00 0.  1.
        -11   -1    0    0    0    0 -0.00000000000E+00 -0.00000000000E+00 -0.50000000000E+02  0.50000000000E+02  0.00000000000E+00 0. -1.
         23    2    1    2    0    0  0.00000000000E+00  0.00000000000E+00  0.00000000000E+00  0.10000000000E+03  0.10000000000E+03 0.  0.
          5    1    3    3  501    0 -0.31653125036E+02 -0.15783340392E+02  0.35026787485E+02  0.50000000000E+02  0.47000000000E+01 0.  1.
         -5    1    3    3    0  501  0.31653125036E+02  0.15783340392E+02 -0.35026787485E+02  0.50000000000E+02  0.47000000000E+01 0. -1.
</event>
<event>
 5    1  0.9023675E-001  0.1000000E+03  0.7546771E-02  0.1163815E+00
         11   -1    0    0    0    0  0.00000000000E+00  0.00000000000E+00  0.50000000000E+02  0.50000000000E+02  0.00000000000E+00 0.  1.
        -11   -1    0    0    0    0 -0.00000000000E+00 -0.00000000000E+00 -0.50000000000E+02  0.50000000000E+02  0.00000000000E+00 0. -1.
         23    2    1    2    0    0  0.00000000000E+00  0.00000000000E+00  0.00000000000E+00  0.10000000000E+03  0.10000000000E+03 0.  0.
          5    1    3    3  501    0 -0.24144032699E+02  0.39738578082E+02  0.17771356083E+02  0.50000000000E+02  0.47000000000E+01 0. -1.
         -5    1    3    3    0  501  0.24144032699E+02 -0.39738578082E+02 -0.17771356083E+02  0.50000000000E+02  0.47000000000E+01 0.  1.
</event>
<event>
 5    1  0.9023675E-001  0.1000000E+03  0.7546771E-02  0.1163815E+00
         11   -1    0    0    0    0  0.00000000000E+00  0.00000000000E+00  0.50000000000E+02  0.50000000000E+02  0.00000000000E+00 0. -1.
        -11   -1    0    0    0    0 -0.00000000000E+00 -0.00000000000E+00 -0.50000000000E+02  0.50000000000E+02  0.00000000000E+00 0.  1.
         23    2    1    2    0    0  0.00000000000E+00  0.00000000000E+00  0.00000000000E+00  0.10000000000E+03  0.10000000000E+03 0.  0.
          5    1    3    3  501    0  0.16629226752E+02 -0.82006289166E+01  0.46196628697E+02  0.50000000000E+02  0.47000000000E+01 0. -1.
         -5    1    3    3    0  501 -0.16629226752E+02  0.82006289166E+01 -0.46196628697E+02  0.50000000000E+02  0.47000000000E+01 0.  1.
</event>
<event>
 5    1  0.9023675E-001  0.1000000E+03  0.7546771E-02  0.1163815E+00
         11   -1    0    0    0    0  0.00000000000E+00  0.00000000000E+00  0.50000000000E+02  0.50000000000E+02  0.00000000000E+00 0.  1.
        -11   -1    0    0    0    0 -0.00000000000E+00 -0.00000000000E+00 -0.50000000000E+02  0.50000000000E+02  0.00000000000E+00 0. -1.
         23    2    1    2    0    0  0.00000000000E+00  0.00000000000E+00  0.00000000000E+00  0.10000000000E+03  0.10000000000E+03 0.  0.
          5    1    3    3  501    0  0.37124842309E+02 -0.79634845900E+01 -0.32190666298E+02  0.50000000000E+02  0.47000000000E+01 0. -1.
         -5    1    3    3    0  501 -0.37124842309E+02  0.79634845900E+01  0.32190666298E+02  0.50000000000E+02  0.47000000000E+01 0.  1.
</event>
<event>
 5    1  0.9023675E-001  0.1000000E+03  0.7546771E-02  0.1163815E+00
         11   -1    0    0    0    0  0.00000000000E+00  0.00000000000E+00  0.50000000000E+02  0.50000000000E+02  0.00000000000E+00 0. -1.
        -11   -1    0    0    0    0 -0.00000000000E+00 -0.00000000000E+00 -0.50000000000E+02  0.50000000000E+02  0.00000000000E+00 0.  1.
         23    2    1    2    0    0  0.00000000000E+00  0.00000000000E+00  0.00000000000E+00  0.10000000000E+03  0.10000000000E+03 0.  0.
          5    1    3    3  501    0  0.79369132547E+01 -0.48912110083E+02 -0.47456185248E+01  0.50000000000E+02  0.47000000000E+01 0. -1.
         -5    1    3    3    0  501 -0.79369132547E+01  0.48912110083E+02  0.47456185248E+01  0.50000000000E+02  0.47000000000E+01 0.  1.
</event>
<event>
 5    1  0.9023675E-001  0.1000000E+03  0.7546771E-02  0.1163815E+00
         11   -1    0    0    0    0  0.00000000000E+00  0.00000000000E+00  0.50000000000E+02  0.50000000000E+02  0.00000000000E+00 0. -1.
        -11   -1    0    0    0    0 -0.00000000000E+00 -0.00000000000E+00 -0.50000000000E+02  0.50000000000E+02  0.00000000000E+00 0.  1.
         23    2    1    2    0    0  0.00000000000E+00  0.00000000000E+00  0.00000000000E+00  0.10000000000E+03  0.10000000000E+03 0.  0.
          5    1    3    3  501    0  0.18113197719E+02 -0.13283716137E+02  0.44422572573E+02  0.50000000000E+02  0.47000000000E+01 0. -1.
         -5    1    3    3    0  501 -0.18113197719E+02  0.13283716137E+02 -0.44422572573E+02  0.50000000000E+02  0.47000000000E+01 0.  1.
</event>
<event>
 5    1  0.9023675E-001  0.1000000E+03  0.7546771E-02  0.1163815E+00
         11   -1    0    0    0    0  0.00000000000E+00  0.00000000000E+00  0.50000000000E+02  0.50000000000E+02  0.00000000000E+00 0.  1.
        -11   -1    0    0    0    0 -0.00000000000E+00 -0.00000000000E+00 -0.50000000000E+02  0.50000000000E+02  0.00000000000E+00 0. -1.
         23    2    1    2    0    0  0.00000000000E+00  0.00000000000E+00  0.00000000000E+00  0.10000000000E+03  0.10000000000E+03 0.  0.
          5    1    3    3  501    0  0.66100270255E+01  0.29830066135E+02 -0.39298660245E+02  0.50000000000E+02  0.47000000000E+01 0. -1.
         -5    1    3    3    0  501 -0.66100270255E+01 -0.29830066135E+02  0.39298660245E+02  0.50000000000E+02  0.47000000000E+01 0.  1.
</event>
<event>
 5    1  0.9023675E-001  0.1000000E+03  0.7546771E-02  0.1163815E+00
         11   -1    0    0    0    0  0.00000000000E+00  0.00000000000E+00  0.50000000000E+02  0.50000000000E+02  0.00000000000E+00 0. -1.
        -11   -1    0    0    0    0 -0.00000000000E+00 -0.00000000000E+00 -0.50000000000E+02  0.50000000000E+02  0.00000000000E+00 0.  1.
         23    2    1    2    0    0  0.00000000000E+00  0.00000000000E+00  0.00000000000E+00  0.10000000000E+03  0.10000000000E+03 0.  0.
          5    1    3    3  501    0  0.28548300985E+02 -0.40094946069E+02  0.74363842396E+01  0.50000000000E+02  0.47000000000E+01 0. -1.
         -5    1    3    3    0  501 -0.28548300985E+02  0.40094946069E+02 -0.74363842396E+01  0.50000000000E+02  0.47000000000E+01 0.  1.
</event>
<event>
 5    1  0.9023675E-001  0.1000000E+03  0.7546771E-02  0.1163815E+00
         11   -1    0    0    0    0  0.00000000000E+00  0.00000000000E+00  0.50000000000E+02  0.50000000000E+02  0.00000000000E+00 0. -1.
        -11   -1    0    0    0    0 -0.00000000000E+00 -0.00000000000E+00 -0.50000000000E+02  0.50000000000E+02  0.00000000000E+00 0.  1.
         23    2    1    2    0    0  0.00000000000E+00  0.00000000000E+00  0.00000000000E+00  0.10000000000E+03  0.10000000000E+03 0.  0.
          5    1    3    3  501    0  0.40219538071E+02  0.42346388096E+01  0.29023552358E+02  0.50000000000E+02  0.47000000000E+01 0. -1.
         -5    1    3    3    0  501 -0.40219538071E+02 -0.42346388096E+01 -0.29023552358E+02  0.50000000000E+02  0.47000000000E+01 0.  1.
</event>
<event>
 5    1  0.9023675E-001  0.1000000E+03  0.7546771E-02  0.1163815E+00
         11   -1    0    0    0    0  0.00000000000E+00  0.00000000000E+00  0.50000000000E+02  0.50000000000E+02  0.00000000000E+00 0.  1.
        -11   -1    0    0    0    0 -0.00000000000E+00 -0.00000000000E+00 -0.50000000000E+02  0.50000000000E+02  0.00000000000E+00 0. -1.
         23    2    1    2    0    0  0.00000000000E+00  0.00000000000E+00  0.00000000000E+00  0.10000000000E+03  0.10000000000E+03 0.  0.
          5    1    3    3  501    0 -0.18080648424E+02 -0.46375198968E+02 -0.58401477706E+00  0.50000000000E+02  0.47000000000E+01 0. -1.
         -5    1    3    3    0  501  0.18080648424E+02  0.46375198968E+02  0.58401477706E+00  0.50000000000E+02  0.47000000000E+01 0.  1.
</event>
<event>
 5    1  0.9023675E-001  0.1000000E+03  0.7546771E-02  0.1163815E+00
         11   -1    0    0    0    0  0.00000000000E+00  0.00000000000E+00  0.50000000000E+02  0.50000000000E+02  0.00000000000E+00 0. -1.
        -11   -1    0    0    0    0 -0.00000000000E+00 -0.00000000000E+00 -0.50000000000E+02  0.50000000000E+02  0.00000000000E+00 0.  1.
         23    2    1    2    0    0  0.00000000000E+00  0.00000000000E+00  0.00000000000E+00  0.10000000000E+03  0.10000000000E+03 0.  0.
          5    1    3    3  501    0 -0.57445346517E+01  0.13121355291E+02  0.47673266691E+02  0.50000000000E+02  0.47000000000E+01 0. -1.
         -5    1    3    3    0  501  0.57445346517E+01 -0.13121355291E+02 -0.47673266691E+02  0.50000000000E+02  0.47000000000E+01 0.  1.
</event>
<event>
 5    1  0.9023675E-001  0.1000000E+03  0.7546771E-02  0.1163815E+00
         11   -1    0    0    0    0  0.00000000000E+00  0.00000000000E+00  0.50000000000E+02  0.50000000000E+02  0.00000000000E+00 0.  1.
        -11   -1    0    0    0    0 -0.00000000000E+00 -0.00000000000E+00 -0.50000000000E+02  0.50000000000E+02  0.00000000000E+00 0. -1.
         23    2    1    2    0    0  0.00000000000E+00  0.00000000000E+00  0.00000000000E+00  0.10000000000E+03  0.10000000000E+03 0.  0.
          5    1    3    3  501    0 -0.41445755180E+02  0.22161132469E+02 -0.16402548133E+02  0.50000000000E+02  0.47000000000E+01 0. -1.
         -5    1    3    3    0  501  0.41445755180E+02 -0.22161132469E+02  0.16402548133E+02  0.50000000000E+02  0.47000000000E+01 0.  1.
</event>
<event>
 5    1  0.9023675E-001  0.1000000E+03  0.7546771E-02  0.1163815E+00
         11   -1    0    0    0    0  0.00000000000E+00  0.00000000000E+00  0.50000000000E+02  0.50000000000E+02  0.00000000000E+00 0. -1.
        -11   -1    0    0    0    0 -0.00000000000E+00 -0.00000000000E+00 -0.50000000000E+02  0.50000000000E+02  0.00000000000E+00 0.  1.
         23    2    1    2    0    0  0.00000000000E+00  0.00000000000E+00  0.00000000000E+00  0.10000000000E+03  0.10000000000E+03 0.  0.
          5    1    3    3  501    0 -0.41890543011E+01 -0.40783057289E+01  0.49434089922E+02  0.50000000000E+02  0.47000000000E+01 0. -1.
         -5    1    3    3    0  501  0.41890543011E+01  0.40783057289E+01 -0.49434089922E+02  0.50000000000E+02  0.47000000000E+01 0.  1.
</event>
<event>
 5    1  0.9023675E-001  0.1000000E+03  0.7546771E-02  0.1163815E+00
         11   -1    0    0    0    0  0.00000000000E+00  0.00000000000E+00  0.50000000000E+02  0.50000000000E+02  0.00000000000E+00 0. -1.
        -11   -1    0    0    0    0 -0.00000000000E+00 -0.00000000000E+00 -0.50000000000E+02  0.50000000000E+02  0.00000000000E+00 0.  1.
         23    2    1    2    0    0  0.00000000000E+00  0.00000000000E+00  0.00000000000E+00  0.10000000000E+03  0.10000000000E+03 0.  0.
          5    1    3    3  501    0 -0.12792490050E+02 -0.40240122579E+00  0.48105096108E+02  0.50000000000E+02  0.47000000000E+01 0. -1.
         -5    1    3    3    0  501  0.12792490050E+02  0.40240122579E+00 -0.48105096108E+02  0.50000000000E+02  0.47000000000E+01 0.  1.
</event>
<event>
 5    1  0.9023675E-001  0.1000000E+03  0.7546771E-02  0.1163815E+00
         11   -1    0    0    0    0  0.00000000000E+00  0.00000000000E+00  0.50000000000E+02  0.50000000000E+02  0.00000000000E+00 0. -1.
        -11   -1    0    0    0    0 -0.00000000000E+00 -0.00000000000E+00 -0.50000000000E+02  0.50000000000E+02  0.00000000000E+00 0.  1.
         23    2    1    2    0    0  0.00000000000E+00  0.00000000000E+00  0.00000000000E+00  0.10000000000E+03  0.10000000000E+03 0.  0.
          5    1    3    3  501    0  0.37752173333E+02  0.32170369221E+02  0.42131642228E+01  0.50000000000E+02  0.47000000000E+01 0.  1.
         -5    1    3    3    0  501 -0.37752173333E+02 -0.32170369221E+02 -0.42131642228E+01  0.50000000000E+02  0.47000000000E+01 0. -1.
</event>
<event>
 5    1  0.9023675E-001  0.1000000E+03  0.7546771E-02  0.1163815E+00
         11   -1    0    0    0    0  0.00000000000E+00  0.00000000000E+00  0.50000000000E+02  0.50000000000E+02  0.00000000000E+00 0.  1.
        -11   -1    0    0    0    0 -0.00000000000E+00 -0.00000000000E+00 -0.50000000000E+02  0.50000000000E+02  0.00000000000E+00 0. -1.
         23    2    1    2    0    0  0.00000000000E+00  0.00000000000E+00  0.00000000000E+00  0.10000000000E+03  0.10000000000E+03 0.  0.
          5    1    3    3  501    0 -0.36802108747E+02 -0.18084372512E+02 -0.28221804737E+02  0.50000000000E+02  0.47000000000E+01 0. -1.
         -5    1    3    3    0  501  0.36802108747E+02  0.18084372512E+02  0.28221804737E+02  0.50000000000E+02  0.47000000000E+01 0.  1.
</event>
<event>
 5    1  0.9023675E-001  0.1000000E+03  0.7546771E-02  0.1163815E+00
         11   -1    0    0    0    0  0.00000000000E+00  0.00000000000E+00  0.50000000000E+02  0.50000000000E+02  0.00000000000E+00 0. -1.
        -11   -1    0    0    0    0 -0.00000000000E+00 -0.00000000000E+00 -0.50000000000E+02  0.50000000000E+02  0.00000000000E+00 0.  1.
         23    2    1    2    0    0  0.00000000000E+00  0.00000000000E+00  0.00000000000E+00  0.10000000000E+03  0.10000000000E+03 0.  0.
          5    1    3    3  501    0 -0.97377009736E+01 -0.45556209667E+02  0.17541919522E+02  0.50000000000E+02  0.47000000000E+01 0. -1.
         -5    1    3    3    0  501  0.97377009736E+01  0.45556209667E+02 -0.17541919522E+02  0.50000000000E+02  0.47000000000E+01 0.  1.
</event>
<event>
 5    1  0.9023675E-001  0.1000000E+03  0.7546771E-02  0.1163815E+00
         11   -1    0    0    0    0  0.00000000000E+00  0.00000000000E+00  0.50000000000E+02  0.50000000000E+02  0.00000000000E+00 0. -1.
        -11   -1    0    0    0    0 -0.00000000000E+00 -0.00000000000E+00 -0.50000000000E+02  0.50000000000E+02  0.00000000000E+00 0.  1.
         23    2    1    2    0    0  0.00000000000E+00  0.00000000000E+00  0.00000000000E+00  0.10000000000E+03  0.10000000000E+03 0.  0.
          5    1    3    3  501    0  0.20397002161E+02  0.45257496308E+02  0.36920632112E+01  0.50000000000E+02  0.47000000000E+01 0. -1.
         -5    1    3    3    0  501 -0.20397002161E+02 -0.45257496308E+02 -0.36920632112E+01  0.50000000000E+02  0.47000000000E+01 0.  1.
</event>
<event>
 5    1  0.9023675E-001  0.1000000E+03  0.7546771E-02  0.1163815E+00
         11   -1    0    0    0    0  0.00000000000E+00  0.00000000000E+00  0.50000000000E+02  0.50000000000E+02  0.00000000000E+00 0. -1.
        -11   -1    0    0    0    0 -0.00000000000E+00 -0.00000000000E+00 -0.50000000000E+02  0.50000000000E+02  0.00000000000E+00 0.  1.
         23    2    1    2    0    0  0.00000000000E+00  0.00000000000E+00  0.00000000000E+00  0.10000000000E+03  0.10000000000E+03 0.  0.
          5    1    3    3  501    0  0.23753578416E+01 -0.43172401761E+02  0.24665996865E+02  0.50000000000E+02  0.47000000000E+01 0. -1.
         -5    1    3    3    0  501 -0.23753578416E+01  0.43172401761E+02 -0.24665996865E+02  0.50000000000E+02  0.47000000000E+01 0.  1.
</event>
<event>
 5    1  0.9023675E-001  0.1000000E+03  0.7546771E-02  0.1163815E+00
         11   -1    0    0    0    0  0.00000000000E+00  0.00000000000E+00  0.50000000000E+02  0.50000000000E+02  0.00000000000E+00 0. -1.
        -11   -1    0    0    0    0 -0.00000000000E+00 -0.00000000000E+00 -0.50000000000E+02  0.50000000000E+02  0.00000000000E+00 0.  1.
         23    2    1    2    0    0  0.00000000000E+00  0.00000000000E+00  0.00000000000E+00  0.10000000000E+03  0.10000000000E+03 0.  0.
          5    1    3    3  501    0 -0.73107600711E+01 -0.33477252745E+02  0.36107289234E+02  0.50000000000E+02  0.47000000000E+01 0. -1.
         -5    1    3    3    0  501  0.73107600711E+01  0.33477252745E+02 -0.36107289234E+02  0.50000000000E+02  0.47000000000E+01 0.  1.
</event>
<event>
 5    1  0.9023675E-001  0.1000000E+03  0.7546771E-02  0.1163815E+00
         11   -1    0    0    0    0  0.00000000000E+00  0.00000000000E+00  0.50000000000E+02  0.50000000000E+02  0.00000000000E+00 0. -1.
        -11   -1    0    0    0    0 -0.00000000000E+00 -0.00000000000E+00 -0.50000000000E+02  0.50000000000E+02  0.00000000000E+00 0.  1.
         23    2    1    2    0    0  0.00000000000E+00  0.00000000000E+00  0.00000000000E+00  0.10000000000E+03  0.10000000000E+03 0.  0.
          5    1    3    3  501    0  0.41791064427E+02 -0.13705656921E+02  0.23314628508E+02  0.50000000000E+02  0.47000000000E+01 0. -1.
         -5    1    3    3    0  501 -0.41791064427E+02  0.13705656921E+02 -0.23314628508E+02  0.50000000000E+02  0.47000000000E+01 0.  1.
</event>
<event>
 5    1  0.9023675E-001  0.1000000E+03  0.7546771E-02  0.1163815E+00
         11   -1    0    0    0    0  0.00000000000E+00  0.00000000000E+00  0.50000000000E+02  0.50000000000E+02  0.00000000000E+00 0. -1.
        -11   -1    0    0    0    0 -0.00000000000E+00 -0.00000000000E+00 -0.50000000000E+02  0.50000000000E+02  0.00000000000E+00 0.  1.
         23    2    1    2    0    0  0.00000000000E+00  0.00000000000E+00  0.00000000000E+00  0.10000000000E+03  0.10000000000E+03 0.  0.
          5    1    3    3  501    0  0.20059991269E+02  0.18344264487E+02  0.41701255505E+02  0.50000000000E+02  0.47000000000E+01 0. -1.
         -5    1    3    3    0  501 -0.20059991269E+02 -0.18344264487E+02 -0.41701255505E+02  0.50000000000E+02  0.47000000000E+01 0.  1.
</event>
<event>
 5    1  0.9023675E-001  0.1000000E+03  0.7546771E-02  0.1163815E+00
         11   -1    0    0    0    0  0.00000000000E+00  0.00000000000E+00  0.50000000000E+02  0.50000000000E+02  0.00000000000E+00 0. -1.
        -11   -1    0    0    0    0 -0.00000000000E+00 -0.00000000000E+00 -0.50000000000E+02  0.50000000000E+02  0.00000000000E+00 0.  1.
         23    2    1    2    0    0  0.00000000000E+00  0.00000000000E+00  0.00000000000E+00  0.10000000000E+03  0.10000000000E+03 0.  0.
          5    1    3    3  501    0 -0.70968656601E+01 -0.20833642893E+02  0.44648670995E+02  0.50000000000E+02  0.47000000000E+01 0. -1.
         -5    1    3    3    0  501  0.70968656601E+01  0.20833642893E+02 -0.44648670995E+02  0.50000000000E+02  0.47000000000E+01 0.  1.
</event>
<event>
 5    1  0.9023675E-001  0.1000000E+03  0.7546771E-02  0.1163815E+00
         11   -1    0    0    0    0  0.00000000000E+00  0.00000000000E+00  0.50000000000E+02  0.50000000000E+02  0.00000000000E+00 0.  1.
        -11   -1    0    0    0    0 -0.00000000000E+00 -0.00000000000E+00 -0.50000000000E+02  0.50000000000E+02  0.00000000000E+00 0. -1.
         23    2    1    2    0    0  0.00000000000E+00  0.00000000000E+00  0.00000000000E+00  0.10000000000E+03  0.10000000000E+03 0.  0.
          5    1    3    3  501    0  0.46164888759E+02 -0.16731599028E+02 -0.81710855974E+01  0.50000000000E+02  0.47000000000E+01 0. -1.
         -5    1    3    3    0  501 -0.46164888759E+02  0.16731599028E+02  0.81710855974E+01  0.50000000000E+02  0.47000000000E+01 0.  1.
</event>
<event>
 5    1  0.9023675E-001  0.1000000E+03  0.7546771E-02  0.1163815E+00
         11   -1    0    0    0    0  0.00000000000E+00  0.00000000000E+00  0.50000000000E+02  0.50000000000E+02  0.00000000000E+00 0. -1.
        -11   -1    0    0    0    0 -0.00000000000E+00 -0.00000000000E+00 -0.50000000000E+02  0.50000000000E+02  0.00000000000E+00 0.  1.
         23    2    1    2    0    0  0.00000000000E+00  0.00000000000E+00  0.00000000000E+00  0.10000000000E+03  0.10000000000E+03 0.  0.
          5    1    3    3  501    0 -0.11052276617E+02  0.12788487968E+01  0.48519292321E+02  0.50000000000E+02  0.47000000000E+01 0. -1.
         -5    1    3    3    0  501  0.11052276617E+02 -0.12788487968E+01 -0.48519292321E+02  0.50000000000E+02  0.47000000000E+01 0.  1.
</event>
<event>
 5    1  0.9023675E-001  0.1000000E+03  0.7546771E-02  0.1163815E+00
         11   -1    0    0    0    0  0.00000000000E+00  0.00000000000E+00  0.50000000000E+02  0.50000000000E+02  0.00000000000E+00 0.  1.
        -11   -1    0    0    0    0 -0.00000000000E+00 -0.00000000000E+00 -0.50000000000E+02  0.50000000000E+02  0.00000000000E+00 0. -1.
         23    2    1    2    0    0  0.00000000000E+00  0.00000000000E+00  0.00000000000E+00  0.10000000000E+03  0.10000000000E+03 0.  0.
          5    1    3    3  501    0  0.23566152176E+02  0.27069613926E+02  0.34493223588E+02  0.50000000000E+02  0.47000000000E+01 0.  1.
         -5    1    3    3    0  501 -0.23566152176E+02 -0.27069613926E+02 -0.34493223588E+02  0.50000000000E+02  0.47000000000E+01 0. -1.
</event>
<event>
 5    1  0.9023675E-001  0.1000000E+03  0.7546771E-02  0.1163815E+00
         11   -1    0    0    0    0  0.00000000000E+00  0.00000000000E+00  0.50000000000E+02  0.50000000000E+02  0.00000000000E+00 0. -1.
        -11   -1    0    0    0    0 -0.00000000000E+00 -0.00000000000E+00 -0.50000000000E+02  0.50000000000E+02  0.00000000000E+00 0.  1.
         23    2    1    2    0    0  0.00000000000E+00  0.00000000000E+00  0.00000000000E+00  0.10000000000E+03  0.10000000000E+03 0.  0.
          5    1    3    3  501    0 -0.28709361889E+02 -0.37732136913E+02  0.15164708500E+02  0.50000000000E+02  0.47000000000E+01 0. -1.
         -5    1    3    3    0  501  0.28709361889E+02  0.37732136913E+02 -0.15164708500E+02  0.50000000000E+02  0.47000000000E+01 0.  1.
</event>
<event>
 5    1  0.9023675E-001  0.1000000E+03  0.7546771E-02  0.1163815E+00
         11   -1    0    0    0    0  0.00000000000E+00  0.00000000000E+00  0.50000000000E+02  0.50000000000E+02  0.00000000000E+00 0. -1.
        -11   -1    0    0    0    0 -0.00000000000E+00 -0.00000000000E+00 -0.50000000000E+02  0.50000000000E+02  0.00000000000E+00 0.  1.
         23    2    1    2    0    0  0.00000000000E+00  0.00000000000E+00  0.00000000000E+00  0.10000000000E+03  0.10000000000E+03 0.  0.
          5    1    3    3  501    0 -0.44105278835E+02 -0.11622099399E+02  0.19938936393E+02  0.50000000000E+02  0.47000000000E+01 0. -1.
         -5    1    3    3    0  501  0.44105278835E+02  0.11622099399E+02 -0.19938936393E+02  0.50000000000E+02  0.47000000000E+01 0.  1.
</event>
<event>
 5    1  0.9023675E-001  0.1000000E+03  0.7546771E-02  0.1163815E+00
         11   -1    0    0    0    0  0.00000000000E+00  0.00000000000E+00  0.50000000000E+02  0.50000000000E+02  0.00000000000E+00 0. -1.
        -11   -1    0    0    0    0 -0.00000000000E+00 -0.00000000000E+00 -0.50000000000E+02  0.50000000000E+02  0.00000000000E+00 0.  1.
         23    2    1    2    0    0  0.00000000000E+00  0.00000000000E+00  0.00000000000E+00  0.10000000000E+03  0.10000000000E+03 0.  0.
          5    1    3    3  501    0  0.23548827635E+02 -0.14007375938E+02  0.41559068040E+02  0.50000000000E+02  0.47000000000E+01 0. -1.
         -5    1    3    3    0  501 -0.23548827635E+02  0.14007375938E+02 -0.41559068040E+02  0.50000000000E+02  0.47000000000E+01 0.  1.
</event>
<event>
 5    1  0.9023675E-001  0.1000000E+03  0.7546771E-02  0.1163815E+00
         11   -1    0    0    0    0  0.00000000000E+00  0.00000000000E+00  0.50000000000E+02  0.50000000000E+02  0.00000000000E+00 0. -1.
        -11   -1    0    0    0    0 -0.00000000000E+00 -0.00000000000E+00 -0.50000000000E+02  0.50000000000E+02  0.00000000000E+00 0.  1.
         23    2    1    2    0    0  0.00000000000E+00  0.00000000000E+00  0.00000000000E+00  0.10000000000E+03  0.10000000000E+03 0.  0.
          5    1    3    3  501    0 -0.11195294291E+02  0.45407790836E+02  0.17050158861E+02  0.50000000000E+02  0.47000000000E+01 0. -1.
         -5    1    3    3    0  501  0.11195294291E+02 -0.45407790836E+02 -0.17050158861E+02  0.50000000000E+02  0.47000000000E+01 0.  1.
</event>
<event>
 5    1  0.9023675E-001  0.1000000E+03  0.7546771E-02  0.1163815E+00
         11   -1    0    0    0    0  0.00000000000E+00  0.00000000000E+00  0.50000000000E+02  0.50000000000E+02  0.00000000000E+00 0.  1.
        -11   -1    0    0    0    0 -0.00000000000E+00 -0.00000000000E+00 -0.50000000000E+02  0.50000000000E+02  0.00000000000E+00 0. -1.
         23    2    1    2    0    0  0.00000000000E+00  0.00000000000E+00  0.00000000000E+00  0.10000000000E+03  0.10000000000E+03 0.  0.
          5    1    3    3  501    0  0.21578691048E+02 -0.18079846492E+02 -0.41053492464E+02  0.50000000000E+02  0.47000000000E+01 0. -1.
         -5    1    3    3    0  501 -0.21578691048E+02  0.18079846492E+02  0.41053492464E+02  0.50000000000E+02  0.47000000000E+01 0.  1.
</event>
<event>
 5    1  0.9023675E-001  0.1000000E+03  0.7546771E-02  0.1163815E+00
         11   -1    0    0    0    0  0.00000000000E+00  0.00000000000E+00  0.50000000000E+02  0.50000000000E+02  0.00000000000E+00 0. -1.
        -11   -1    0    0    0    0 -0.00000000000E+00 -0.00000000000E+00 -0.50000000000E+02  0.50000000000E+02  0.00000000000E+00 0.  1.
         23    2    1    2    0    0  0.00000000000E+00  0.00000000000E+00  0.00000000000E+00  0.10000000000E+03  0.10000000000E+03 0.  0.
          5    1    3    3  501    0  0.13006633168E+02  0.42691873387E+02  0.22048615384E+02  0.50000000000E+02  0.47000000000E+01 0. -1.
         -5    1    3    3    0  501 -0.13006633168E+02 -0.42691873387E+02 -0.22048615384E+02  0.50000000000E+02  0.47000000000E+01 0.  1.
</event>
<event>
 5    1  0.9023675E-001  0.1000000E+03  0.7546771E-02  0.1163815E+00
         11   -1    0    0    0    0  0.00000000000E+00  0.00000000000E+00  0.50000000000E+02  0.50000000000E+02  0.00000000000E+00 0. -1.
        -11   -1    0    0    0    0 -0.00000000000E+00 -0.00000000000E+00 -0.50000000000E+02  0.50000000000E+02  0.00000000000E+00 0.  1.
         23    2    1    2    0    0  0.00000000000E+00  0.00000000000E+00  0.00000000000E+00  0.10000000000E+03  0.10000000000E+03 0.  0.
          5    1    3    3  501    0 -0.22702234721E+02  0.37500354222E+02  0.23584782634E+02  0.50000000000E+02  0.47000000000E+01 0. -1.
         -5    1    3    3    0  501  0.22702234721E+02 -0.37500354222E+02 -0.23584782634E+02  0.50000000000E+02  0.47000000000E+01 0.  1.
</event>
<event>
 5    1  0.9023675E-001  0.1000000E+03  0.7546771E-02  0.1163815E+00
         11   -1    0    0    0    0  0.00000000000E+00  0.00000000000E+00  0.50000000000E+02  0.50000000000E+02  0.00000000000E+00 0.  1.
        -11   -1    0    0    0    0 -0.00000000000E+00 -0.00000000000E+00 -0.50000000000E+02  0.50000000000E+02  0.00000000000E+00 0. -1.
         23    2    1    2    0    0  0.00000000000E+00  0.00000000000E+00  0.00000000000E+00  0.10000000000E+03  0.10000000000E+03 0.  0.
          5    1    3    3  501    0 -0.25661694580E+02  0.23385785376E+02 -0.35672012470E+02  0.50000000000E+02  0.47000000000E+01 0. -1.
         -5    1    3    3    0  501  0.25661694580E+02 -0.23385785376E+02  0.35672012470E+02  0.50000000000E+02  0.47000000000E+01 0.  1.
</event>
<event>
 5    1  0.9023675E-001  0.1000000E+03  0.7546771E-02  0.1163815E+00
         11   -1    0    0    0    0  0.00000000000E+00  0.00000000000E+00  0.50000000000E+02  0.50000000000E+02  0.00000000000E+00 0. -1.
        -11   -1    0    0    0    0 -0.00000000000E+00 -0.00000000000E+00 -0.50000000000E+02  0.50000000000E+02  0.00000000000E+00 0.  1.
         23    2    1    2    0    0  0.00000000000E+00  0.00000000000E+00  0.00000000000E+00  0.10000000000E+03  0.10000000000E+03 0.  0.
          5    1    3    3  501    0 -0.41280534097E+02  0.27216143726E+01  0.27684297353E+02  0.50000000000E+02  0.47000000000E+01 0. -1.
         -5    1    3    3    0  501  0.41280534097E+02 -0.27216143726E+01 -0.27684297353E+02  0.50000000000E+02  0.47000000000E+01 0.  1.
</event>
<event>
 5    1  0.9023675E-001  0.1000000E+03  0.7546771E-02  0.1163815E+00
         11   -1    0    0    0    0  0.00000000000E+00  0.00000000000E+00  0.50000000000E+02  0.50000000000E+02  0.00000000000E+00 0. -1.
        -11   -1    0    0    0    0 -0.00000000000E+00 -0.00000000000E+00 -0.50000000000E+02  0.50000000000E+02  0.00000000000E+00 0.  1.
         23    2    1    2    0    0  0.00000000000E+00  0.00000000000E+00  0.00000000000E+00  0.10000000000E+03  0.10000000000E+03 0.  0.
          5    1    3    3  501    0  0.40471013857E+02  0.15134150251E+02  0.24717696769E+02  0.50000000000E+02  0.47000000000E+01 0. -1.
         -5    1    3    3    0  501 -0.40471013857E+02 -0.15134150251E+02 -0.24717696769E+02  0.50000000000E+02  0.47000000000E+01 0.  1.
</event>
<event>
 5    1  0.9023675E-001  0.1000000E+03  0.7546771E-02  0.1163815E+00
         11   -1    0    0    0    0  0.00000000000E+00  0.00000000000E+00  0.50000000000E+02  0.50000000000E+02  0.00000000000E+00 0. -1.
        -11   -1    0    0    0    0 -0.00000000000E+00 -0.00000000000E+00 -0.50000000000E+02  0.50000000000E+02  0.00000000000E+00 0.  1.
         23    2    1    2    0    0  0.00000000000E+00  0.00000000000E+00  0.00000000000E+00  0.10000000000E+03  0.10000000000E+03 0.  0.
          5    1    3    3  501    0  0.82999804339E+01  0.37101497879E+01  0.48941343600E+02  0.50000000000E+02  0.47000000000E+01 0. -1.
         -5    1    3    3    0  501 -0.82999804339E+01 -0.37101497879E+01 -0.48941343600E+02  0.50000000000E+02  0.47000000000E+01 0.  1.
</event>
<event>
 5    1  0.9023675E-001  0.1000000E+03  0.7546771E-02  0.1163815E+00
         11   -1    0    0    0    0  0.00000000000E+00  0.00000000000E+00  0.50000000000E+02  0.50000000000E+02  0.00000000000E+00 0. -1.
        -11   -1    0    0    0    0 -0.00000000000E+00 -0.00000000000E+00 -0.50000000000E+02  0.50000000000E+02  0.00000000000E+00 0.  1.
         23    2    1    2    0    0  0.00000000000E+00  0.00000000000E+00  0.00000000000E+00  0.10000000000E+03  0.10000000000E+03 0.  0.
          5    1    3    3  501    0  0.34427380479E+01 -0.45105575861E+02 -0.20773651124E+02  0.50000000000E+02  0.47000000000E+01 0. -1.
         -5    1    3    3    0  501 -0.34427380479E+01  0.45105575861E+02  0.20773651124E+02  0.50000000000E+02  0.47000000000E+01 0.  1.
</event>
<event>
 5    1  0.9023675E-001  0.1000000E+03  0.7546771E-02  0.1163815E+00
         11   -1    0    0    0    0  0.00000000000E+00  0.00000000000E+00  0.50000000000E+02  0.50000000000E+02  0.00000000000E+00 0. -1.
        -11   -1    0    0    0    0 -0.00000000000E+00 -0.00000000000E+00 -0.50000000000E+02  0.50000000000E+02  0.00000000000E+00 0.  1.
         23    2    1    2    0    0  0.00000000000E+00  0.00000000000E+00  0.00000000000E+00  0.10000000000E+03  0.10000000000E+03 0.  0.
          5    1    3    3  501    0  0.33873602243E+02 -0.16341662822E+01  0.36439244938E+02  0.50000000000E+02  0.47000000000E+01 0. -1.
         -5    1    3    3    0  501 -0.33873602243E+02  0.16341662822E+01 -0.36439244938E+02  0.50000000000E+02  0.47000000000E+01 0.  1.
</event>
<event>
 5    1  0.9023675E-001  0.1000000E+03  0.7546771E-02  0.1163815E+00
         11   -1    0    0    0    0  0.00000000000E+00  0.00000000000E+00  0.50000000000E+02  0.50000000000E+02  0.00000000000E+00 0. -1.
        -11   -1    0    0    0    0 -0.00000000000E+00 -0.00000000000E+00 -0.50000000000E+02  0.50000000000E+02  0.00000000000E+00 0.  1.
         23    2    1    2    0    0  0.00000000000E+00  0.00000000000E+00  0.00000000000E+00  0.10000000000E+03  0.10000000000E+03 0.  0.
          5    1    3    3  501    0 -0.42184642107E+01  0.14123910521E+02  0.47546079873E+02  0.50000000000E+02  0.47000000000E+01 0. -1.
         -5    1    3    3    0  501  0.42184642107E+01 -0.14123910521E+02 -0.47546079873E+02  0.50000000000E+02  0.47000000000E+01 0.  1.
</event>
<event>
 5    1  0.9023675E-001  0.1000000E+03  0.7546771E-02  0.1163815E+00
         11   -1    0    0    0    0  0.00000000000E+00  0.00000000000E+00  0.50000000000E+02  0.50000000000E+02  0.00000000000E+00 0. -1.
        -11   -1    0    0    0    0 -0.00000000000E+00 -0.00000000000E+00 -0.50000000000E+02  0.50000000000E+02  0.00000000000E+00 0.  1.
         23    2    1    2    0    0  0.00000000000E+00  0.00000000000E+00  0.00000000000E+00  0.10000000000E+03  0.10000000000E+03 0.  0.
          5    1    3    3  501    0 -0.14576042545E+02 -0.51032137689E+01  0.47322364617E+02  0.50000000000E+02  0.47000000000E+01 0. -1.
         -5    1    3    3    0  501  0.14576042545E+02  0.51032137689E+01 -0.47322364617E+02  0.50000000000E+02  0.47000000000E+01 0.  1.
</event>
<event>
 5    1  0.9023675E-001  0.1000000E+03  0.7546771E-02  0.1163815E+00
         11   -1    0    0    0    0  0.00000000000E+00  0.00000000000E+00  0.50000000000E+02  0.50000000000E+02  0.00000000000E+00 0. -1.
        -11   -1    0    0    0    0 -0.00000000000E+00 -0.00000000000E+00 -0.50000000000E+02  0.50000000000E+02  0.00000000000E+00 0.  1.
         23    2    1    2    0    0  0.00000000000E+00  0.00000000000E+00  0.00000000000E+00  0.10000000000E+03  0.10000000000E+03 0.  0.
          5    1    3    3  501    0 -0.14672022051E+02 -0.19477558357E+02  0.43396618410E+02  0.50000000000E+02  0.47000000000E+01 0. -1.
         -5    1    3    3    0  501  0.14672022051E+02  0.19477558357E+02 -0.43396618410E+02  0.50000000000E+02  0.47000000000E+01 0.  1.
</event>
<event>
 5    1  0.9023675E-001  0.1000000E+03  0.7546771E-02  0.1163815E+00
         11   -1    0    0    0    0  0.00000000000E+00  0.00000000000E+00  0.50000000000E+02  0.50000000000E+02  0.00000000000E+00 0. -1.
        -11   -1    0    0    0    0 -0.00000000000E+00 -0.00000000000E+00 -0.50000000000E+02  0.50000000000E+02  0.00000000000E+00 0.  1.
         23    2    1    2    0    0  0.00000000000E+00  0.00000000000E+00  0.00000000000E+00  0.10000000000E+03  0.10000000000E+03 0.  0.
          5    1    3    3  501    0  0.50213124281E+01 -0.31659514284E+02  0.38083744259E+02  0.50000000000E+02  0.47000000000E+01 0. -1.
         -5    1    3    3    0  501 -0.50213124281E+01  0.31659514284E+02 -0.38083744259E+02  0.50000000000E+02  0.47000000000E+01 0.  1.
</event>
<event>
 5    1  0.9023675E-001  0.1000000E+03  0.7546771E-02  0.1163815E+00
         11   -1    0    0    0    0  0.00000000000E+00  0.00000000000E+00  0.50000000000E+02  0.50000000000E+02  0.00000000000E+00 0. -1.
        -11   -1    0    0    0    0 -0.00000000000E+00 -0.00000000000E+00 -0.50000000000E+02  0.50000000000E+02  0.00000000000E+00 0.  1.
         23    2    1    2    0    0  0.00000000000E+00  0.00000000000E+00  0.00000000000E+00  0.10000000000E+03  0.10000000000E+03 0.  0.
          5    1    3    3  501    0  0.47190586797E+02 -0.86397390738E+01 -0.13278306612E+02  0.50000000000E+02  0.47000000000E+01 0. -1.
         -5    1    3    3    0  501 -0.47190586797E+02  0.86397390738E+01  0.13278306612E+02  0.50000000000E+02  0.47000000000E+01 0.  1.
</event>
<event>
 5    1  0.9023675E-001  0.1000000E+03  0.7546771E-02  0.1163815E+00
         11   -1    0    0    0    0  0.00000000000E+00  0.00000000000E+00  0.50000000000E+02  0.50000000000E+02  0.00000000000E+00 0. -1.
        -11   -1    0    0    0    0 -0.00000000000E+00 -0.00000000000E+00 -0.50000000000E+02  0.50000000000E+02  0.00000000000E+00 0.  1.
         23    2    1    2    0    0  0.00000000000E+00  0.00000000000E+00  0.00000000000E+00  0.10000000000E+03  0.10000000000E+03 0.  0.
          5    1    3    3  501    0 -0.28772996063E+02 -0.28031730117E+02  0.29398074838E+02  0.50000000000E+02  0.47000000000E+01 0. -1.
         -5    1    3    3    0  501  0.28772996063E+02  0.28031730117E+02 -0.29398074838E+02  0.50000000000E+02  0.47000000000E+01 0.  1.
</event>
<event>
 5    1  0.9023675E-001  0.1000000E+03  0.7546771E-02  0.1163815E+00
         11   -1    0    0    0    0  0.00000000000E+00  0.00000000000E+00  0.50000000000E+02  0.50000000000E+02  0.00000000000E+00 0. -1.
        -11   -1    0    0    0    0 -0.00000000000E+00 -0.00000000000E+00 -0.50000000000E+02  0.50000000000E+02  0.00000000000E+00 0.  1.
         23    2    1    2    0    0  0.00000000000E+00  0.00000000000E+00  0.00000000000E+00  0.10000000000E+03  0.10000000000E+03 0.  0.
          5    1    3    3  501    0 -0.77360216360E+01  0.45675902032E+02  0.18214717752E+02  0.50000000000E+02  0.47000000000E+01 0. -1.
         -5    1    3    3    0  501  0.77360216360E+01 -0.45675902032E+02 -0.18214717752E+02  0.50000000000E+02  0.47000000000E+01 0.  1.
</event>
<event>
 5    1  0.9023675E-001  0.1000000E+03  0.7546771E-02  0.1163815E+00
         11   -1    0    0    0    0  0.00000000000E+00  0.00000000000E+00  0.50000000000E+02  0.50000000000E+02  0.00000000000E+00 0.  1.
        -11   -1    0    0    0    0 -0.00000000000E+00 -0.00000000000E+00 -0.50000000000E+02  0.50000000000E+02  0.00000000000E+00 0. -1.
         23    2    1    2    0    0  0.00000000000E+00  0.00000000000E+00  0.00000000000E+00  0.10000000000E+03  0.10000000000E+03 0.  0.
          5    1    3    3  501    0 -0.26218190036E+02  0.41195453100E+02  0.96670137661E+01  0.50000000000E+02  0.47000000000E+01 0. -1.
         -5    1    3    3    0  501  0.26218190036E+02 -0.41195453100E+02 -0.96670137661E+01  0.50000000000E+02  0.47000000000E+01 0.  1.
</event>
<event>
 5    1  0.9023675E-001  0.1000000E+03  0.7546771E-02  0.1163815E+00
         11   -1    0    0    0    0  0.00000000000E+00  0.00000000000E+00  0.50000000000E+02  0.50000000000E+02  0.00000000000E+00 0. -1.
        -11   -1    0    0    0    0 -0.00000000000E+00 -0.00000000000E+00 -0.50000000000E+02  0.50000000000E+02  0.00000000000E+00 0.  1.
         23    2    1    2    0    0  0.00000000000E+00  0.00000000000E+00  0.00000000000E+00  0.10000000000E+03  0.10000000000E+03 0.  0.
          5    1    3    3  501    0  0.18572422007E+02 -0.25871513023E+02  0.38257547683E+02  0.50000000000E+02  0.47000000000E+01 0. -1.
         -5    1    3    3    0  501 -0.18572422007E+02  0.25871513023E+02 -0.38257547683E+02  0.50000000000E+02  0.47000000000E+01 0.  1.
</event>
<event>
 5    1  0.9023675E-001  0.1000000E+03  0.7546771E-02  0.1163815E+00
         11   -1    0    0    0    0  0.00000000000E+00  0.00000000000E+00  0.50000000000E+02  0.50000000000E+02  0.00000000000E+00 0. -1.
        -11   -1    0    0    0    0 -0.00000000000E+00 -0.00000000000E+00 -0.50000000000E+02  0.50000000000E+02  0.00000000000E+00 0.  1.
         23    2    1    2    0    0  0.00000000000E+00  0.00000000000E+00  0.00000000000E+00  0.10000000000E+03  0.10000000000E+03 0.  0.
          5    1    3    3  501    0  0.39647164447E+02  0.14001778869E+02  0.26645122251E+02  0.50000000000E+02  0.47000000000E+01 0. -1.
         -5    1    3    3    0  501 -0.39647164447E+02 -0.14001778869E+02 -0.26645122251E+02  0.50000000000E+02  0.47000000000E+01 0.  1.
</event>
<event>
 5    1  0.9023675E-001  0.1000000E+03  0.7546771E-02  0.1163815E+00
         11   -1    0    0    0    0  0.00000000000E+00  0.00000000000E+00  0.50000000000E+02  0.50000000000E+02  0.00000000000E+00 0. -1.
        -11   -1    0    0    0    0 -0.00000000000E+00 -0.00000000000E+00 -0.50000000000E+02  0.50000000000E+02  0.00000000000E+00 0.  1.
         23    2    1    2    0    0  0.00000000000E+00  0.00000000000E+00  0.00000000000E+00  0.10000000000E+03  0.10000000000E+03 0.  0.
          5    1    3    3  501    0 -0.16427268471E+02 -0.27030833640E+02  0.38436816768E+02  0.50000000000E+02  0.47000000000E+01 0. -1.
         -5    1    3    3    0  501  0.16427268471E+02  0.27030833640E+02 -0.38436816768E+02  0.50000000000E+02  0.47000000000E+01 0.  1.
</event>
<event>
 5    1  0.9023675E-001  0.1000000E+03  0.7546771E-02  0.1163815E+00
         11   -1    0    0    0    0  0.00000000000E+00  0.00000000000E+00  0.50000000000E+02  0.50000000000E+02  0.00000000000E+00 0. -1.
        -11   -1    0    0    0    0 -0.00000000000E+00 -0.00000000000E+00 -0.50000000000E+02  0.50000000000E+02  0.00000000000E+00 0.  1.
         23    2    1    2    0    0  0.00000000000E+00  0.00000000000E+00  0.00000000000E+00  0.10000000000E+03  0.10000000000E+03 0.  0.
          5    1    3    3  501    0 -0.10336746387E+02  0.35946124169E+02  0.32847189094E+02  0.50000000000E+02  0.47000000000E+01 0. -1.
         -5    1    3    3    0  501  0.10336746387E+02 -0.35946124169E+02 -0.32847189094E+02  0.50000000000E+02  0.47000000000E+01 0.  1.
</event>
<event>
 5    1  0.9023675E-001  0.1000000E+03  0.7546771E-02  0.1163815E+00
         11   -1    0    0    0    0  0.00000000000E+00  0.00000000000E+00  0.50000000000E+02  0.50000000000E+02  0.00000000000E+00 0. -1.
        -11   -1    0    0    0    0 -0.00000000000E+00 -0.00000000000E+00 -0.50000000000E+02  0.50000000000E+02  0.00000000000E+00 0.  1.
         23    2    1    2    0    0  0.00000000000E+00  0.00000000000E+00  0.00000000000E+00  0.10000000000E+03  0.10000000000E+03 0.  0.
          5    1    3    3  501    0 -0.15666727756E+02  0.42956499644E+02  0.19677468835E+02  0.50000000000E+02  0.47000000000E+01 0. -1.
         -5    1    3    3    0  501  0.15666727756E+02 -0.42956499644E+02 -0.19677468835E+02  0.50000000000E+02  0.47000000000E+01 0.  1.
</event>
<event>
 5    1  0.9023675E-001  0.1000000E+03  0.7546771E-02  0.1163815E+00
         11   -1    0    0    0    0  0.00000000000E+00  0.00000000000E+00  0.50000000000E+02  0.50000000000E+02  0.00000000000E+00 0.  1.
        -11   -1    0    0    0    0 -0.00000000000E+00 -0.00000000000E+00 -0.50000000000E+02  0.50000000000E+02  0.00000000000E+00 0. -1.
         23    2    1    2    0    0  0.00000000000E+00  0.00000000000E+00  0.00000000000E+00  0.10000000000E+03  0.10000000000E+03 0.  0.
          5    1    3    3  501    0 -0.19216305239E+02  0.42588321796E+02 -0.17172025493E+02  0.50000000000E+02  0.47000000000E+01 0. -1.
         -5    1    3    3    0  501  0.19216305239E+02 -0.42588321796E+02  0.17172025493E+02  0.50000000000E+02  0.47000000000E+01 0.  1.
</event>
<event>
 5    1  0.9023675E-001  0.1000000E+03  0.7546771E-02  0.1163815E+00
         11   -1    0    0    0    0  0.00000000000E+00  0.00000000000E+00  0.50000000000E+02  0.50000000000E+02  0.00000000000E+00 0. -1.
        -11   -1    0    0    0    0 -0.00000000000E+00 -0.00000000000E+00 -0.50000000000E+02  0.50000000000E+02  0.00000000000E+00 0.  1.
         23    2    1    2    0    0  0.00000000000E+00  0.00000000000E+00  0.00000000000E+00  0.10000000000E+03  0.10000000000E+03 0.  0.
          5    1    3    3  501    0 -0.41911699870E+02  0.38833186488E+01  0.26575162281E+02  0.50000000000E+02  0.47000000000E+01 0. -1.
         -5    1    3    3    0  501  0.41911699870E+02 -0.38833186488E+01 -0.26575162281E+02  0.50000000000E+02  0.47000000000E+01 0.  1.
</event>
<event>
 5    1  0.9023675E-001  0.1000000E+03  0.7546771E-02  0.1163815E+00
         11   -1    0    0    0    0  0.00000000000E+00  0.00000000000E+00  0.50000000000E+02  0.50000000000E+02  0.00000000000E+00 0. -1.
        -11   -1    0    0    0    0 -0.00000000000E+00 -0.00000000000E+00 -0.50000000000E+02  0.50000000000E+02  0.00000000000E+00 0.  1.
         23    2    1    2    0    0  0.00000000000E+00  0.00000000000E+00  0.00000000000E+00  0.10000000000E+03  0.10000000000E+03 0.  0.
          5    1    3    3  501    0 -0.31865079063E+01 -0.39199748896E+02  0.30514518738E+02  0.50000000000E+02  0.47000000000E+01 0. -1.
         -5    1    3    3    0  501  0.31865079063E+01  0.39199748896E+02 -0.30514518738E+02  0.50000000000E+02  0.47000000000E+01 0.  1.
</event>
<event>
 5    1  0.9023675E-001  0.1000000E+03  0.7546771E-02  0.1163815E+00
         11   -1    0    0    0    0  0.00000000000E+00  0.00000000000E+00  0.50000000000E+02  0.50000000000E+02  0.00000000000E+00 0. -1.
        -11   -1    0    0    0    0 -0.00000000000E+00 -0.00000000000E+00 -0.50000000000E+02  0.50000000000E+02  0.00000000000E+00 0.  1.
         23    2    1    2    0    0  0.00000000000E+00  0.00000000000E+00  0.00000000000E+00  0.10000000000E+03  0.10000000000E+03 0.  0.
          5    1    3    3  501    0  0.26719146487E+02 -0.60859173212E+01  0.41556694062E+02  0.50000000000E+02  0.47000000000E+01 0. -1.
         -5    1    3    3    0  501 -0.26719146487E+02  0.60859173212E+01 -0.41556694062E+02  0.50000000000E+02  0.47000000000E+01 0.  1.
</event>
<event>
 5    1  0.9023675E-001  0.1000000E+03  0.7546771E-02  0.1163815E+00
         11   -1    0    0    0    0  0.00000000000E+00  0.00000000000E+00  0.50000000000E+02  0.50000000000E+02  0.00000000000E+00 0.  1.
        -11   -1    0    0    0    0 -0.00000000000E+00 -0.00000000000E+00 -0.50000000000E+02  0.50000000000E+02  0.00000000000E+00 0. -1.
         23    2    1    2    0    0  0.00000000000E+00  0.00000000000E+00  0.00000000000E+00  0.10000000000E+03  0.10000000000E+03 0.  0.
          5    1    3    3  501    0  0.57232139107E+00 -0.79198214176E+01 -0.49141213629E+02  0.50000000000E+02  0.47000000000E+01 0. -1.
         -5    1    3    3    0  501 -0.57232139107E+00  0.79198214176E+01  0.49141213629E+02  0.50000000000E+02  0.47000000000E+01 0.  1.
</event>
<event>
 5    1  0.9023675E-001  0.1000000E+03  0.7546771E-02  0.1163815E+00
         11   -1    0    0    0    0  0.00000000000E+00  0.00000000000E+00  0.50000000000E+02  0.50000000000E+02  0.00000000000E+00 0.  1.
        -11   -1    0    0    0    0 -0.00000000000E+00 -0.00000000000E+00 -0.50000000000E+02  0.50000000000E+02  0.00000000000E+00 0. -1.
         23    2    1    2    0    0  0.00000000000E+00  0.00000000000E+00  0.00000000000E+00  0.10000000000E+03  0.10000000000E+03 0.  0.
          5    1    3    3  501    0 -0.46869216642E+02  0.15597385744E+02 -0.61569545514E+01  0.50000000000E+02  0.47000000000E+01 0. -1.
         -5    1    3    3    0  501  0.46869216642E+02 -0.15597385744E+02  0.61569545514E+01  0.50000000000E+02  0.47000000000E+01 0.  1.
</event>
<event>
 5    1  0.9023675E-001  0.1000000E+03  0.7546771E-02  0.1163815E+00
         11   -1    0    0    0    0  0.00000000000E+00  0.00000000000E+00  0.50000000000E+02  0.50000000000E+02  0.00000000000E+00 0. -1.
        -11   -1    0    0    0    0 -0.00000000000E+00 -0.00000000000E+00 -0.50000000000E+02  0.50000000000E+02  0.00000000000E+00 0.  1.
         23    2    1    2    0    0  0.00000000000E+00  0.00000000000E+00  0.00000000000E+00  0.10000000000E+03  0.10000000000E+03 0.  0.
          5    1    3    3  501    0  0.43944140393E+02 -0.17801154308E+02  0.15163819785E+02  0.50000000000E+02  0.47000000000E+01 0. -1.
         -5    1    3    3    0  501 -0.43944140393E+02  0.17801154308E+02 -0.15163819785E+02  0.50000000000E+02  0.47000000000E+01 0.  1.
</event>
<event>
 5    1  0.9023675E-001  0.1000000E+03  0.7546771E-02  0.1163815E+00
         11   -1    0    0    0    0  0.00000000000E+00  0.00000000000E+00  0.50000000000E+02  0.50000000000E+02  0.00000000000E+00 0.  1.
        -11   -1    0    0    0    0 -0.00000000000E+00 -0.00000000000E+00 -0.50000000000E+02  0.50000000000E+02  0.00000000000E+00 0. -1.
         23    2    1    2    0    0  0.00000000000E+00  0.00000000000E+00  0.00000000000E+00  0.10000000000E+03  0.10000000000E+03 0.  0.
          5    1    3    3  501    0  0.53776454909E+01  0.40301901985E+02  0.28718419618E+02  0.50000000000E+02  0.47000000000E+01 0.  1.
         -5    1    3    3    0  501 -0.53776454909E+01 -0.40301901985E+02 -0.28718419618E+02  0.50000000000E+02  0.47000000000E+01 0. -1.
</event>
<event>
 5    1  0.9023675E-001  0.1000000E+03  0.7546771E-02  0.1163815E+00
         11   -1    0    0    0    0  0.00000000000E+00  0.00000000000E+00  0.50000000000E+02  0.50000000000E+02  0.00000000000E+00 0. -1.
        -11   -1    0    0    0    0 -0.00000000000E+00 -0.00000000000E+00 -0.50000000000E+02  0.50000000000E+02  0.00000000000E+00 0.  1.
         23    2    1    2    0    0  0.00000000000E+00  0.00000000000E+00  0.00000000000E+00  0.10000000000E+03  0.10000000000E+03 0.  0.
          5    1    3    3  501    0 -0.12804194857E+02 -0.29852630653E+02  0.37719796356E+02  0.50000000000E+02  0.47000000000E+01 0. -1.
         -5    1    3    3    0  501  0.12804194857E+02  0.29852630653E+02 -0.37719796356E+02  0.50000000000E+02  0.47000000000E+01 0.  1.
</event>
<event>
 5    1  0.9023675E-001  0.1000000E+03  0.7546771E-02  0.1163815E+00
         11   -1    0    0    0    0  0.00000000000E+00  0.00000000000E+00  0.50000000000E+02  0.50000000000E+02  0.00000000000E+00 0. -1.
        -11   -1    0    0    0    0 -0.00000000000E+00 -0.00000000000E+00 -0.50000000000E+02  0.50000000000E+02  0.00000000000E+00 0.  1.
         23    2    1    2    0    0  0.00000000000E+00  0.00000000000E+00  0.00000000000E+00  0.10000000000E+03  0.10000000000E+03 0.  0.
          5    1    3    3  501    0  0.25820666324E+02 -0.26121429403E+01  0.42477993124E+02  0.50000000000E+02  0.47000000000E+01 0. -1.
         -5    1    3    3    0  501 -0.25820666324E+02  0.26121429403E+01 -0.42477993124E+02  0.50000000000E+02  0.47000000000E+01 0.  1.
</event>
<event>
 5    1  0.9023675E-001  0.1000000E+03  0.7546771E-02  0.1163815E+00
         11   -1    0    0    0    0  0.00000000000E+00  0.00000000000E+00  0.50000000000E+02  0.50000000000E+02  0.00000000000E+00 0. -1.
        -11   -1    0    0    0    0 -0.00000000000E+00 -0.00000000000E+00 -0.50000000000E+02  0.50000000000E+02  0.00000000000E+00 0.  1.
         23    2    1    2    0    0  0.00000000000E+00  0.00000000000E+00  0.00000000000E+00  0.10000000000E+03  0.10000000000E+03 0.  0.
          5    1    3    3  501    0 -0.49681175476E+02 -0.17028645516E+01  0.26059653863E+01  0.50000000000E+02  0.47000000000E+01 0. -1.
         -5    1    3    3    0  501  0.49681175476E+02  0.17028645516E+01 -0.26059653863E+01  0.50000000000E+02  0.47000000000E+01 0.  1.
</event>
<event>
 5    1  0.9023675E-001  0.1000000E+03  0.7546771E-02  0.1163815E+00
         11   -1    0    0    0    0  0.00000000000E+00  0.00000000000E+00  0.50000000000E+02  0.50000000000E+02  0.00000000000E+00 0.  1.
        -11   -1    0    0    0    0 -0.00000000000E+00 -0.00000000000E+00 -0.50000000000E+02  0.50000000000E+02  0.00000000000E+00 0. -1.
         23    2    1    2    0    0  0.00000000000E+00  0.00000000000E+00  0.00000000000E+00  0.10000000000E+03  0.10000000000E+03 0.  0.
          5    1    3    3  501    0 -0.39439290394E+02 -0.30368501284E+02 -0.45442602774E+00  0.50000000000E+02  0.47000000000E+01 0.  1.
         -5    1    3    3    0  501  0.39439290394E+02  0.30368501284E+02  0.45442602774E+00  0.50000000000E+02  0.47000000000E+01 0. -1.
</event>
<event>
 5    1  0.9023675E-001  0.1000000E+03  0.7546771E-02  0.1163815E+00
         11   -1    0    0    0    0  0.00000000000E+00  0.00000000000E+00  0.50000000000E+02  0.50000000000E+02  0.00000000000E+00 0.  1.
        -11   -1    0    0    0    0 -0.00000000000E+00 -0.00000000000E+00 -0.50000000000E+02  0.50000000000E+02  0.00000000000E+00 0. -1.
         23    2    1    2    0    0  0.00000000000E+00  0.00000000000E+00  0.00000000000E+00  0.10000000000E+03  0.10000000000E+03 0.  0.
          5    1    3    3  501    0  0.18238496729E+02  0.12737780810E+02 -0.44531069795E+02  0.50000000000E+02  0.47000000000E+01 0. -1.
         -5    1    3    3    0  501 -0.18238496729E+02 -0.12737780810E+02  0.44531069795E+02  0.50000000000E+02  0.47000000000E+01 0.  1.
</event>
<event>
 5    1  0.9023675E-001  0.1000000E+03  0.7546771E-02  0.1163815E+00
         11   -1    0    0    0    0  0.00000000000E+00  0.00000000000E+00  0.50000000000E+02  0.50000000000E+02  0.00000000000E+00 0. -1.
        -11   -1    0    0    0    0 -0.00000000000E+00 -0.00000000000E+00 -0.50000000000E+02  0.50000000000E+02  0.00000000000E+00 0.  1.
         23    2    1    2    0    0  0.00000000000E+00  0.00000000000E+00  0.00000000000E+00  0.10000000000E+03  0.10000000000E+03 0.  0.
          5    1    3    3  501    0 -0.17638369322E+02  0.10219452519E+02  0.45413221840E+02  0.50000000000E+02  0.47000000000E+01 0. -1.
         -5    1    3    3    0  501  0.17638369322E+02 -0.10219452519E+02 -0.45413221840E+02  0.50000000000E+02  0.47000000000E+01 0.  1.
</event>
<event>
 5    1  0.9023675E-001  0.1000000E+03  0.7546771E-02  0.1163815E+00
         11   -1    0    0    0    0  0.00000000000E+00  0.00000000000E+00  0.50000000000E+02  0.50000000000E+02  0.00000000000E+00 0. -1.
        -11   -1    0    0    0    0 -0.00000000000E+00 -0.00000000000E+00 -0.50000000000E+02  0.50000000000E+02  0.00000000000E+00 0.  1.
         23    2    1    2    0    0  0.00000000000E+00  0.00000000000E+00  0.00000000000E+00  0.10000000000E+03  0.10000000000E+03 0.  0.
          5    1    3    3  501    0 -0.61171130887E+01  0.21659936247E+02  0.44399753257E+02  0.50000000000E+02  0.47000000000E+01 0. -1.
         -5    1    3    3    0  501  0.61171130887E+01 -0.21659936247E+02 -0.44399753257E+02  0.50000000000E+02  0.47000000000E+01 0.  1.
</event>
<event>
 5    1  0.9023675E-001  0.1000000E+03  0.7546771E-02  0.1163815E+00
         11   -1    0    0    0    0  0.00000000000E+00  0.00000000000E+00  0.50000000000E+02  0.50000000000E+02  0.00000000000E+00 0. -1.
        -11   -1    0    0    0    0 -0.00000000000E+00 -0.00000000000E+00 -0.50000000000E+02  0.50000000000E+02  0.00000000000E+00 0.  1.
         23    2    1    2    0    0  0.00000000000E+00  0.00000000000E+00  0.00000000000E+00  0.10000000000E+03  0.10000000000E+03 0.  0.
          5    1    3    3  501    0  0.26365157762E+02  0.42113809744E+02 -0.30357017335E+01  0.50000000000E+02  0.47000000000E+01 0. -1.
         -5    1    3    3    0  501 -0.26365157762E+02 -0.42113809744E+02  0.30357017335E+01  0.50000000000E+02  0.47000000000E+01 0.  1.
</event>
<event>
 5    1  0.9023675E-001  0.1000000E+03  0.7546771E-02  0.1163815E+00
         11   -1    0    0    0    0  0.00000000000E+00  0.00000000000E+00  0.50000000000E+02  0.50000000000E+02  0.00000000000E+00 0. -1.
        -11   -1    0    0    0    0 -0.00000000000E+00 -0.00000000000E+00 -0.50000000000E+02  0.50000000000E+02  0.00000000000E+00 0.  1.
         23    2    1    2    0    0  0.00000000000E+00  0.00000000000E+00  0.00000000000E+00  0.10000000000E+03  0.10000000000E+03 0.  0.
          5    1    3    3  501    0  0.45558371233E+02  0.17684779112E+02  0.94653789362E+01  0.50000000000E+02  0.47000000000E+01 0. -1.
         -5    1    3    3    0  501 -0.45558371233E+02 -0.17684779112E+02 -0.94653789362E+01  0.50000000000E+02  0.47000000000E+01 0.  1.
</event>
<event>
 5    1  0.9023675E-001  0.1000000E+03  0.7546771E-02  0.1163815E+00
         11   -1    0    0    0    0  0.00000000000E+00  0.00000000000E+00  0.50000000000E+02  0.50000000000E+02  0.00000000000E+00 0. -1.
        -11   -1    0    0    0    0 -0.00000000000E+00 -0.00000000000E+00 -0.50000000000E+02  0.50000000000E+02  0.00000000000E+00 0.  1.
         23    2    1    2    0    0  0.00000000000E+00  0.00000000000E+00  0.00000000000E+00  0.10000000000E+03  0.10000000000E+03 0.  0.
          5    1    3    3  501    0  0.12401547120E+02  0.39977291446E+02  0.26943047297E+02  0.50000000000E+02  0.47000000000E+01 0. -1.
         -5    1    3    3    0  501 -0.12401547120E+02 -0.39977291446E+02 -0.26943047297E+02  0.50000000000E+02  0.47000000000E+01 0.  1.
</event>
<event>
 5    1  0.9023675E-001  0.1000000E+03  0.7546771E-02  0.1163815E+00
         11   -1    0    0    0    0  0.00000000000E+00  0.00000000000E+00  0.50000000000E+02  0.50000000000E+02  0.00000000000E+00 0. -1.
        -11   -1    0    0    0    0 -0.00000000000E+00 -0.00000000000E+00 -0.50000000000E+02  0.50000000000E+02  0.00000000000E+00 0.  1.
         23    2    1    2    0    0  0.00000000000E+00  0.00000000000E+00  0.00000000000E+00  0.10000000000E+03  0.10000000000E+03 0.  0.
          5    1    3    3  501    0  0.40405472533E+02 -0.10365741405E+02  0.27163563730E+02  0.50000000000E+02  0.47000000000E+01 0. -1.
         -5    1    3    3    0  501 -0.40405472533E+02  0.10365741405E+02 -0.27163563730E+02  0.50000000000E+02  0.47000000000E+01 0.  1.
</event>
<event>
 5    1  0.9023675E-001  0.1000000E+03  0.7546771E-02  0.1163815E+00
         11   -1    0    0    0    0  0.00000000000E+00  0.00000000000E+00  0.50000000000E+02  0.50000000000E+02  0.00000000000E+00 0. -1.
        -11   -1    0    0    0    0 -0.00000000000E+00 -0.00000000000E+00 -0.50000000000E+02  0.50000000000E+02  0.00000000000E+00 0.  1.
         23    2    1    2    0    0  0.00000000000E+00  0.00000000000E+00  0.00000000000E+00  0.10000000000E+03  0.10000000000E+03 0.  0.
          5    1    3    3  501    0  0.27384116098E+02 -0.26046779069E+02  0.32397306766E+02  0.50000000000E+02  0.47000000000E+01 0. -1.
         -5    1    3    3    0  501 -0.27384116098E+02  0.26046779069E+02 -0.32397306766E+02  0.50000000000E+02  0.47000000000E+01 0.  1.
</event>
<event>
 5    1  0.9023675E-001  0.1000000E+03  0.7546771E-02  0.1163815E+00
         11   -1    0    0    0    0  0.00000000000E+00  0.00000000000E+00  0.50000000000E+02  0.50000000000E+02  0.00000000000E+00 0.  1.
        -11   -1    0    0    0    0 -0.00000000000E+00 -0.00000000000E+00 -0.50000000000E+02  0.50000000000E+02  0.00000000000E+00 0. -1.
         23    2    1    2    0    0  0.00000000000E+00  0.00000000000E+00  0.00000000000E+00  0.10000000000E+03  0.10000000000E+03 0.  0.
          5    1    3    3  501    0 -0.16452566432E+02  0.45161497832E+02 -0.12948442815E+02  0.50000000000E+02  0.47000000000E+01 0. -1.
         -5    1    3    3    0  501  0.16452566432E+02 -0.45161497832E+02  0.12948442815E+02  0.50000000000E+02  0.47000000000E+01 0.  1.
</event>
<event>
 5    1  0.9023675E-001  0.1000000E+03  0.7546771E-02  0.1163815E+00
         11   -1    0    0    0    0  0.00000000000E+00  0.00000000000E+00  0.50000000000E+02  0.50000000000E+02  0.00000000000E+00 0. -1.
        -11   -1    0    0    0    0 -0.00000000000E+00 -0.00000000000E+00 -0.50000000000E+02  0.50000000000E+02  0.00000000000E+00 0.  1.
         23    2    1    2    0    0  0.00000000000E+00  0.00000000000E+00  0.00000000000E+00  0.10000000000E+03  0.10000000000E+03 0.  0.
          5    1    3    3  501    0  0.54576187267E+01 -0.44868872783E+02  0.20854463623E+02  0.50000000000E+02  0.47000000000E+01 0. -1.
         -5    1    3    3    0  501 -0.54576187267E+01  0.44868872783E+02 -0.20854463623E+02  0.50000000000E+02  0.47000000000E+01 0.  1.
</event>
<event>
 5    1  0.9023675E-001  0.1000000E+03  0.7546771E-02  0.1163815E+00
         11   -1    0    0    0    0  0.00000000000E+00  0.00000000000E+00  0.50000000000E+02  0.50000000000E+02  0.00000000000E+00 0. -1.
        -11   -1    0    0    0    0 -0.00000000000E+00 -0.00000000000E+00 -0.50000000000E+02  0.50000000000E+02  0.00000000000E+00 0.  1.
         23    2    1    2    0    0  0.00000000000E+00  0.00000000000E+00  0.00000000000E+00  0.10000000000E+03  0.10000000000E+03 0.  0.
          5    1    3    3  501    0  0.42819851029E+02 -0.23801390787E+02  0.88240667731E+01  0.50000000000E+02  0.47000000000E+01 0. -1.
         -5    1    3    3    0  501 -0.42819851029E+02  0.23801390787E+02 -0.88240667731E+01  0.50000000000E+02  0.47000000000E+01 0.  1.
</event>
<event>
 5    1  0.9023675E-001  0.1000000E+03  0.7546771E-02  0.1163815E+00
         11   -1    0    0    0    0  0.00000000000E+00  0.00000000000E+00  0.50000000000E+02  0.50000000000E+02  0.00000000000E+00 0. -1.
        -11   -1    0    0    0    0 -0.00000000000E+00 -0.00000000000E+00 -0.50000000000E+02  0.50000000000E+02  0.00000000000E+00 0.  1.
         23    2    1    2    0    0  0.00000000000E+00  0.00000000000E+00  0.00000000000E+00  0.10000000000E+03  0.10000000000E+03 0.  0.
          5    1    3    3  501    0 -0.43761724308E+02 -0.85111454318E+01  0.22144567935E+02  0.50000000000E+02  0.47000000000E+01 0. -1.
         -5    1    3    3    0  501  0.43761724308E+02  0.85111454318E+01 -0.22144567935E+02  0.50000000000E+02  0.47000000000E+01 0.  1.
</event>
<event>
 5    1  0.9023675E-001  0.1000000E+03  0.7546771E-02  0.1163815E+00
         11   -1    0    0    0    0  0.00000000000E+00  0.00000000000E+00  0.50000000000E+02  0.50000000000E+02  0.00000000000E+00 0. -1.
        -11   -1    0    0    0    0 -0.00000000000E+00 -0.00000000000E+00 -0.50000000000E+02  0.50000000000E+02  0.00000000000E+00 0.  1.
         23    2    1    2    0    0  0.00000000000E+00  0.00000000000E+00  0.00000000000E+00  0.10000000000E+03  0.10000000000E+03 0.  0.
          5    1    3    3  501    0  0.42077651513E+02  0.26380968680E+02  0.33801974283E+01  0.50000000000E+02  0.47000000000E+01 0. -1.
         -5    1    3    3    0  501 -0.42077651513E+02 -0.26380968680E+02 -0.33801974283E+01  0.50000000000E+02  0.47000000000E+01 0.  1.
</event>
<event>
 5    1  0.9023675E-001  0.1000000E+03  0.7546771E-02  0.1163815E+00
         11   -1    0    0    0    0  0.00000000000E+00  0.00000000000E+00  0.50000000000E+02  0.50000000000E+02  0.00000000000E+00 0.  1.
        -11   -1    0    0    0    0 -0.00000000000E+00 -0.00000000000E+00 -0.50000000000E+02  0.50000000000E+02  0.00000000000E+00 0. -1.
         23    2    1    2    0    0  0.00000000000E+00  0.00000000000E+00  0.00000000000E+00  0.10000000000E+03  0.10000000000E+03 0.  0.
          5    1    3    3  501    0 -0.37659780474E+02  0.13523085117E+02 -0.29610422212E+02  0.50000000000E+02  0.47000000000E+01 0. -1.
         -5    1    3    3    0  501  0.37659780474E+02 -0.13523085117E+02  0.29610422212E+02  0.50000000000E+02  0.47000000000E+01 0.  1.
</event>
<event>
 5    1  0.9023675E-001  0.1000000E+03  0.7546771E-02  0.1163815E+00
         11   -1    0    0    0    0  0.00000000000E+00  0.00000000000E+00  0.50000000000E+02  0.50000000000E+02  0.00000000000E+00 0. -1.
        -11   -1    0    0    0    0 -0.00000000000E+00 -0.00000000000E+00 -0.50000000000E+02  0.50000000000E+02  0.00000000000E+00 0.  1.
         23    2    1    2    0    0  0.00000000000E+00  0.00000000000E+00  0.00000000000E+00  0.10000000000E+03  0.10000000000E+03 0.  0.
          5    1    3    3  501    0  0.73703140040E+01  0.48275507114E+02  0.96469624409E+01  0.50000000000E+02  0.47000000000E+01 0. -1.
         -5    1    3    3    0  501 -0.73703140040E+01 -0.48275507114E+02 -0.96469624409E+01  0.50000000000E+02  0.47000000000E+01 0.  1.
</event>
<event>
 5    1  0.9023675E-001  0.1000000E+03  0.7546771E-02  0.1163815E+00
         11   -1    0    0    0    0  0.00000000000E+00  0.00000000000E+00  0.50000000000E+02  0.50000000000E+02  0.00000000000E+00 0. -1.
        -11   -1    0    0    0    0 -0.00000000000E+00 -0.00000000000E+00 -0.50000000000E+02  0.50000000000E+02  0.00000000000E+00 0.  1.
         23    2    1    2    0    0  0.00000000000E+00  0.00000000000E+00  0.00000000000E+00  0.10000000000E+03  0.10000000000E+03 0.  0.
          5    1    3    3  501    0  0.32344995482E+02 -0.75603640386E+01  0.37074953309E+02  0.50000000000E+02  0.47000000000E+01 0. -1.
         -5    1    3    3    0  501 -0.32344995482E+02  0.75603640386E+01 -0.37074953309E+02  0.50000000000E+02  0.47000000000E+01 0.  1.
</event>
<event>
 5    1  0.9023675E-001  0.1000000E+03  0.7546771E-02  0.1163815E+00
         11   -1    0    0    0    0  0.00000000000E+00  0.00000000000E+00  0.50000000000E+02  0.50000000000E+02  0.00000000000E+00 0. -1.
        -11   -1    0    0    0    0 -0.00000000000E+00 -0.00000000000E+00 -0.50000000000E+02  0.50000000000E+02  0.00000000000E+00 0.  1.
         23    2    1    2    0    0  0.00000000000E+00  0.00000000000E+00  0.00000000000E+00  0.10000000000E+03  0.10000000000E+03 0.  0.
          5    1    3    3  501    0 -0.34519608233E+02  0.35848816928E+02 -0.10811902315E+01  0.50000000000E+02  0.47000000000E+01 0. -1.
         -5    1    3    3    0  501  0.34519608233E+02 -0.35848816928E+02  0.10811902315E+01  0.50000000000E+02  0.47000000000E+01 0.  1.
</event>
<event>
 5    1  0.9023675E-001  0.1000000E+03  0.7546771E-02  0.1163815E+00
         11   -1    0    0    0    0  0.00000000000E+00  0.00000000000E+00  0.50000000000E+02  0.50000000000E+02  0.00000000000E+00 0.  1.
        -11   -1    0    0    0    0 -0.00000000000E+00 -0.00000000000E+00 -0.50000000000E+02  0.50000000000E+02  0.00000000000E+00 0. -1.
         23    2    1    2    0    0  0.00000000000E+00  0.00000000000E+00  0.00000000000E+00  0.10000000000E+03  0.10000000000E+03 0.  0.
          5    1    3    3  501    0 -0.14870684720E+02  0.46610302975E+02 -0.91789102053E+01  0.50000000000E+02  0.47000000000E+01 0. -1.
         -5    1    3    3    0  501  0.14870684720E+02 -0.46610302975E+02  0.91789102053E+01  0.50000000000E+02  0.47000000000E+01 0.  1.
</event>
<event>
 5    1  0.9023675E-001  0.1000000E+03  0.7546771E-02  0.1163815E+00
         11   -1    0    0    0    0  0.00000000000E+00  0.00000000000E+00  0.50000000000E+02  0.50000000000E+02  0.00000000000E+00 0.  1.
        -11   -1    0    0    0    0 -0.00000000000E+00 -0.00000000000E+00 -0.50000000000E+02  0.50000000000E+02  0.00000000000E+00 0. -1.
         23    2    1    2    0    0  0.00000000000E+00  0.00000000000E+00  0.00000000000E+00  0.10000000000E+03  0.10000000000E+03 0.  0.
          5    1    3    3  501    0  0.57446144382E+01  0.49357207082E+02  0.29623494017E+01  0.50000000000E+02  0.47000000000E+01 0.  1.
         -5    1    3    3    0  501 -0.57446144382E+01 -0.49357207082E+02 -0.29623494017E+01  0.50000000000E+02  0.47000000000E+01 0. -1.
</event>
<event>
 5    1  0.9023675E-001  0.1000000E+03  0.7546771E-02  0.1163815E+00
         11   -1    0    0    0    0  0.00000000000E+00  0.00000000000E+00  0.50000000000E+02  0.50000000000E+02  0.00000000000E+00 0.  1.
        -11   -1    0    0    0    0 -0.00000000000E+00 -0.00000000000E+00 -0.50000000000E+02  0.50000000000E+02  0.00000000000E+00 0. -1.
         23    2    1    2    0    0  0.00000000000E+00  0.00000000000E+00  0.00000000000E+00  0.10000000000E+03  0.10000000000E+03 0.  0.
          5    1    3    3  501    0 -0.96782674572E+01 -0.48084529441E+02  0.84923004816E+01  0.50000000000E+02  0.47000000000E+01 0. -1.
         -5    1    3    3    0  501  0.96782674572E+01  0.48084529441E+02 -0.84923004816E+01  0.50000000000E+02  0.47000000000E+01 0.  1.
</event>
<event>
 5    1  0.9023675E-001  0.1000000E+03  0.7546771E-02  0.1163815E+00
         11   -1    0    0    0    0  0.00000000000E+00  0.00000000000E+00  0.50000000000E+02  0.50000000000E+02  0.00000000000E+00 0.  1.
        -11   -1    0    0    0    0 -0.00000000000E+00 -0.00000000000E+00 -0.50000000000E+02  0.50000000000E+02  0.00000000000E+00 0. -1.
         23    2    1    2    0    0  0.00000000000E+00  0.00000000000E+00  0.00000000000E+00  0.10000000000E+03  0.10000000000E+03 0.  0.
          5    1    3    3  501    0  0.32770537637E+01 -0.24523269337E+02 -0.43194677677E+02  0.50000000000E+02  0.47000000000E+01 0. -1.
         -5    1    3    3    0  501 -0.32770537637E+01  0.24523269337E+02  0.43194677677E+02  0.50000000000E+02  0.47000000000E+01 0.  1.
</event>
<event>
 5    1  0.9023675E-001  0.1000000E+03  0.7546771E-02  0.1163815E+00
         11   -1    0    0    0    0  0.00000000000E+00  0.00000000000E+00  0.50000000000E+02  0.50000000000E+02  0.00000000000E+00 0. -1.
        -11   -1    0    0    0    0 -0.00000000000E+00 -0.00000000000E+00 -0.50000000000E+02  0.50000000000E+02  0.00000000000E+00 0.  1.
         23    2    1    2    0    0  0.00000000000E+00  0.00000000000E+00  0.00000000000E+00  0.10000000000E+03  0.10000000000E+03 0.  0.
          5    1    3    3  501    0 -0.15585527944E+02 -0.45076858019E+02  0.14250550511E+02  0.50000000000E+02  0.47000000000E+01 0. -1.
         -5    1    3    3    0  501  0.15585527944E+02  0.45076858019E+02 -0.14250550511E+02  0.50000000000E+02  0.47000000000E+01 0.  1.
</event>
<event>
 5    1  0.9023675E-001  0.1000000E+03  0.7546771E-02  0.1163815E+00
         11   -1    0    0    0    0  0.00000000000E+00  0.00000000000E+00  0.50000000000E+02  0.50000000000E+02  0.00000000000E+00 0. -1.
        -11   -1    0    0    0    0 -0.00000000000E+00 -0.00000000000E+00 -0.50000000000E+02  0.50000000000E+02  0.00000000000E+00 0.  1.
         23    2    1    2    0    0  0.00000000000E+00  0.00000000000E+00  0.00000000000E+00  0.10000000000E+03  0.10000000000E+03 0.  0.
          5    1    3    3  501    0  0.17866466749E+02 -0.41262216146E+02 -0.21357174079E+02  0.50000000000E+02  0.47000000000E+01 0. -1.
         -5    1    3    3    0  501 -0.17866466749E+02  0.41262216146E+02  0.21357174079E+02  0.50000000000E+02  0.47000000000E+01 0.  1.
</event>
<event>
 5    1  0.9023675E-001  0.1000000E+03  0.7546771E-02  0.1163815E+00
         11   -1    0    0    0    0  0.00000000000E+00  0.00000000000E+00  0.50000000000E+02  0.50000000000E+02  0.00000000000E+00 0. -1.
        -11   -1    0    0    0    0 -0.00000000000E+00 -0.00000000000E+00 -0.50000000000E+02  0.50000000000E+02  0.00000000000E+00 0.  1.
         23    2    1    2    0    0  0.00000000000E+00  0.00000000000E+00  0.00000000000E+00  0.10000000000E+03  0.10000000000E+03 0.  0.
          5    1    3    3  501    0  0.94338246283E+01 -0.30081028549E+02  0.38523300408E+02  0.50000000000E+02  0.47000000000E+01 0. -1.
         -5    1    3    3    0  501 -0.94338246283E+01  0.30081028549E+02 -0.38523300408E+02  0.50000000000E+02  0.47000000000E+01 0.  1.
</event>
<event>
 5    1  0.9023675E-001  0.1000000E+03  0.7546771E-02  0.1163815E+00
         11   -1    0    0    0    0  0.00000000000E+00  0.00000000000E+00  0.50000000000E+02  0.50000000000E+02  0.00000000000E+00 0.  1.
        -11   -1    0    0    0    0 -0.00000000000E+00 -0.00000000000E+00 -0.50000000000E+02  0.50000000000E+02  0.00000000000E+00 0. -1.
         23    2    1    2    0    0  0.00000000000E+00  0.00000000000E+00  0.00000000000E+00  0.10000000000E+03  0.10000000000E+03 0.  0.
          5    1    3    3  501    0 -0.25301742497E+02  0.27194042354E+02 -0.33139340474E+02  0.50000000000E+02  0.47000000000E+01 0. -1.
         -5    1    3    3    0  501  0.25301742497E+02 -0.27194042354E+02  0.33139340474E+02  0.50000000000E+02  0.47000000000E+01 0.  1.
</event>
<event>
 5    1  0.9023675E-001  0.1000000E+03  0.7546771E-02  0.1163815E+00
         11   -1    0    0    0    0  0.00000000000E+00  0.00000000000E+00  0.50000000000E+02  0.50000000000E+02  0.00000000000E+00 0. -1.
        -11   -1    0    0    0    0 -0.00000000000E+00 -0.00000000000E+00 -0.50000000000E+02  0.50000000000E+02  0.00000000000E+00 0.  1.
         23    2    1    2    0    0  0.00000000000E+00  0.00000000000E+00  0.00000000000E+00  0.10000000000E+03  0.10000000000E+03 0.  0.
          5    1    3    3  501    0 -0.12751760794E+02  0.25691420134E+02  0.40684807093E+02  0.50000000000E+02  0.47000000000E+01 0. -1.
         -5    1    3    3    0  501  0.12751760794E+02 -0.25691420134E+02 -0.40684807093E+02  0.50000000000E+02  0.47000000000E+01 0.  1.
</event>
<event>
 5    1  0.9023675E-001  0.1000000E+03  0.7546771E-02  0.1163815E+00
         11   -1    0    0    0    0  0.00000000000E+00  0.00000000000E+00  0.50000000000E+02  0.50000000000E+02  0.00000000000E+00 0. -1.
        -11   -1    0    0    0    0 -0.00000000000E+00 -0.00000000000E+00 -0.50000000000E+02  0.50000000000E+02  0.00000000000E+00 0.  1.
         23    2    1    2    0    0  0.00000000000E+00  0.00000000000E+00  0.00000000000E+00  0.10000000000E+03  0.10000000000E+03 0.  0.
          5    1    3    3  501    0 -0.35352671958E+02  0.11967103495E+02  0.32937623159E+02  0.50000000000E+02  0.47000000000E+01 0. -1.
         -5    1    3    3    0  501  0.35352671958E+02 -0.11967103495E+02 -0.32937623159E+02  0.50000000000E+02  0.47000000000E+01 0.  1.
</event>
<event>
 5    1  0.9023675E-001  0.1000000E+03  0.7546771E-02  0.1163815E+00
         11   -1    0    0    0    0  0.00000000000E+00  0.00000000000E+00  0.50000000000E+02  0.50000000000E+02  0.00000000000E+00 0. -1.
        -11   -1    0    0    0    0 -0.00000000000E+00 -0.00000000000E+00 -0.50000000000E+02  0.50000000000E+02  0.00000000000E+00 0.  1.
         23    2    1    2    0    0  0.00000000000E+00  0.00000000000E+00  0.00000000000E+00  0.10000000000E+03  0.10000000000E+03 0.  0.
          5    1    3    3  501    0  0.10891857271E+02  0.62567172107E+01  0.48167737490E+02  0.50000000000E+02  0.47000000000E+01 0. -1.
         -5    1    3    3    0  501 -0.10891857271E+02 -0.62567172107E+01 -0.48167737490E+02  0.50000000000E+02  0.47000000000E+01 0.  1.
</event>
<event>
 5    1  0.9023675E-001  0.1000000E+03  0.7546771E-02  0.1163815E+00
         11   -1    0    0    0    0  0.00000000000E+00  0.00000000000E+00  0.50000000000E+02  0.50000000000E+02  0.00000000000E+00 0. -1.
        -11   -1    0    0    0    0 -0.00000000000E+00 -0.00000000000E+00 -0.50000000000E+02  0.50000000000E+02  0.00000000000E+00 0.  1.
         23    2    1    2    0    0  0.00000000000E+00  0.00000000000E+00  0.00000000000E+00  0.10000000000E+03  0.10000000000E+03 0.  0.
          5    1    3    3  501    0 -0.17296754351E+02  0.70642818071E+01  0.46139226386E+02  0.50000000000E+02  0.47000000000E+01 0. -1.
         -5    1    3    3    0  501  0.17296754351E+02 -0.70642818071E+01 -0.46139226386E+02  0.50000000000E+02  0.47000000000E+01 0.  1.
</event>
<event>
 5    1  0.9023675E-001  0.1000000E+03  0.7546771E-02  0.1163815E+00
         11   -1    0    0    0    0  0.00000000000E+00  0.00000000000E+00  0.50000000000E+02  0.50000000000E+02  0.00000000000E+00 0. -1.
        -11   -1    0    0    0    0 -0.00000000000E+00 -0.00000000000E+00 -0.50000000000E+02  0.50000000000E+02  0.00000000000E+00 0.  1.
         23    2    1    2    0    0  0.00000000000E+00  0.00000000000E+00  0.00000000000E+00  0.10000000000E+03  0.10000000000E+03 0.  0.
          5    1    3    3  501    0  0.43748337301E+02  0.18535190287E+02  0.14847212008E+02  0.50000000000E+02  0.47000000000E+01 0. -1.
         -5    1    3    3    0  501 -0.43748337301E+02 -0.18535190287E+02 -0.14847212008E+02  0.50000000000E+02  0.47000000000E+01 0.  1.
</event>
<event>
 5    1  0.9023675E-001  0.1000000E+03  0.7546771E-02  0.1163815E+00
         11   -1    0    0    0    0  0.00000000000E+00  0.00000000000E+00  0.50000000000E+02  0.50000000000E+02  0.00000000000E+00 0. -1.
        -11   -1    0    0    0    0 -0.00000000000E+00 -0.00000000000E+00 -0.50000000000E+02  0.50000000000E+02  0.00000000000E+00 0.  1.
         23    2    1    2    0    0  0.00000000000E+00  0.00000000000E+00  0.00000000000E+00  0.10000000000E+03  0.10000000000E+03 0.  0.
          5    1    3    3  501    0 -0.58991087580E+01  0.13788701674E+02  0.47465589873E+02  0.50000000000E+02  0.47000000000E+01 0. -1.
         -5    1    3    3    0  501  0.58991087580E+01 -0.13788701674E+02 -0.47465589873E+02  0.50000000000E+02  0.47000000000E+01 0.  1.
</event>
<event>
 5    1  0.9023675E-001  0.1000000E+03  0.7546771E-02  0.1163815E+00
         11   -1    0    0    0    0  0.00000000000E+00  0.00000000000E+00  0.50000000000E+02  0.50000000000E+02  0.00000000000E+00 0. -1.
        -11   -1    0    0    0    0 -0.00000000000E+00 -0.00000000000E+00 -0.50000000000E+02  0.50000000000E+02  0.00000000000E+00 0.  1.
         23    2    1    2    0    0  0.00000000000E+00  0.00000000000E+00  0.00000000000E+00  0.10000000000E+03  0.10000000000E+03 0.  0.
          5    1    3    3  501    0  0.44586907959E+02  0.21771881246E+02  0.39878347064E+01  0.50000000000E+02  0.47000000000E+01 0. -1.
         -5    1    3    3    0  501 -0.44586907959E+02 -0.21771881246E+02 -0.39878347064E+01  0.50000000000E+02  0.47000000000E+01 0.  1.
</event>
<event>
 5    1  0.9023675E-001  0.1000000E+03  0.7546771E-02  0.1163815E+00
         11   -1    0    0    0    0  0.00000000000E+00  0.00000000000E+00  0.50000000000E+02  0.50000000000E+02  0.00000000000E+00 0.  1.
        -11   -1    0    0    0    0 -0.00000000000E+00 -0.00000000000E+00 -0.50000000000E+02  0.50000000000E+02  0.00000000000E+00 0. -1.
         23    2    1    2    0    0  0.00000000000E+00  0.00000000000E+00  0.00000000000E+00  0.10000000000E+03  0.10000000000E+03 0.  0.
          5    1    3    3  501    0 -0.40671863859E+02  0.26736269447E+02 -0.10434624394E+02  0.50000000000E+02  0.47000000000E+01 0. -1.
         -5    1    3    3    0  501  0.40671863859E+02 -0.26736269447E+02  0.10434624394E+02  0.50000000000E+02  0.47000000000E+01 0.  1.
</event>
<event>
 5    1  0.9023675E-001  0.1000000E+03  0.7546771E-02  0.1163815E+00
         11   -1    0    0    0    0  0.00000000000E+00  0.00000000000E+00  0.50000000000E+02  0.50000000000E+02  0.00000000000E+00 0. -1.
        -11   -1    0    0    0    0 -0.00000000000E+00 -0.00000000000E+00 -0.50000000000E+02  0.50000000000E+02  0.00000000000E+00 0.  1.
         23    2    1    2    0    0  0.00000000000E+00  0.00000000000E+00  0.00000000000E+00  0.10000000000E+03  0.10000000000E+03 0.  0.
          5    1    3    3  501    0 -0.25448751463E+02  0.32967261602E+02  0.27265925831E+02  0.50000000000E+02  0.47000000000E+01 0. -1.
         -5    1    3    3    0  501  0.25448751463E+02 -0.32967261602E+02 -0.27265925831E+02  0.50000000000E+02  0.47000000000E+01 0.  1.
</event>
<event>
 5    1  0.9023675E-001  0.1000000E+03  0.7546771E-02  0.1163815E+00
         11   -1    0    0    0    0  0.00000000000E+00  0.00000000000E+00  0.50000000000E+02  0.50000000000E+02  0.00000000000E+00 0.  1.
        -11   -1    0    0    0    0 -0.00000000000E+00 -0.00000000000E+00 -0.50000000000E+02  0.50000000000E+02  0.00000000000E+00 0. -1.
         23    2    1    2    0    0  0.00000000000E+00  0.00000000000E+00  0.00000000000E+00  0.10000000000E+03  0.10000000000E+03 0.  0.
          5    1    3    3  501    0 -0.30306914479E+01  0.16969061362E+02 -0.46698777991E+02  0.50000000000E+02  0.47000000000E+01 0. -1.
         -5    1    3    3    0  501  0.30306914479E+01 -0.16969061362E+02  0.46698777991E+02  0.50000000000E+02  0.47000000000E+01 0.  1.
</event>
<event>
 5    1  0.9023675E-001  0.1000000E+03  0.7546771E-02  0.1163815E+00
         11   -1    0    0    0    0  0.00000000000E+00  0.00000000000E+00  0.50000000000E+02  0.50000000000E+02  0.00000000000E+00 0. -1.
        -11   -1    0    0    0    0 -0.00000000000E+00 -0.00000000000E+00 -0.50000000000E+02  0.50000000000E+02  0.00000000000E+00 0.  1.
         23    2    1    2    0    0  0.00000000000E+00  0.00000000000E+00  0.00000000000E+00  0.10000000000E+03  0.10000000000E+03 0.  0.
          5    1    3    3  501    0 -0.28001205489E+02  0.53441273996E+01  0.40807876611E+02  0.50000000000E+02  0.47000000000E+01 0. -1.
         -5    1    3    3    0  501  0.28001205489E+02 -0.53441273996E+01 -0.40807876611E+02  0.50000000000E+02  0.47000000000E+01 0.  1.
</event>
<event>
 5    1  0.9023675E-001  0.1000000E+03  0.7546771E-02  0.1163815E+00
         11   -1    0    0    0    0  0.00000000000E+00  0.00000000000E+00  0.50000000000E+02  0.50000000000E+02  0.00000000000E+00 0. -1.
        -11   -1    0    0    0    0 -0.00000000000E+00 -0.00000000000E+00 -0.50000000000E+02  0.50000000000E+02  0.00000000000E+00 0.  1.
         23    2    1    2    0    0  0.00000000000E+00  0.00000000000E+00  0.00000000000E+00  0.10000000000E+03  0.10000000000E+03 0.  0.
          5    1    3    3  501    0  0.23623494821E+02 -0.42666103238E+02  0.99721676145E+01  0.50000000000E+02  0.47000000000E+01 0. -1.
         -5    1    3    3    0  501 -0.23623494821E+02  0.42666103238E+02 -0.99721676145E+01  0.50000000000E+02  0.47000000000E+01 0.  1.
</event>
<event>
 5    1  0.9023675E-001  0.1000000E+03  0.7546771E-02  0.1163815E+00
         11   -1    0    0    0    0  0.00000000000E+00  0.00000000000E+00  0.50000000000E+02  0.50000000000E+02  0.00000000000E+00 0. -1.
        -11   -1    0    0    0    0 -0.00000000000E+00 -0.00000000000E+00 -0.50000000000E+02  0.50000000000E+02  0.00000000000E+00 0.  1.
         23    2    1    2    0    0  0.00000000000E+00  0.00000000000E+00  0.00000000000E+00  0.10000000000E+03  0.10000000000E+03 0.  0.
          5    1    3    3  501    0  0.87996501818E+01  0.37494198543E+02  0.31538250305E+02  0.50000000000E+02  0.47000000000E+01 0. -1.
         -5    1    3    3    0  501 -0.87996501818E+01 -0.37494198543E+02 -0.31538250305E+02  0.50000000000E+02  0.47000000000E+01 0.  1.
</event>
<event>
 5    1  0.9023675E-001  0.1000000E+03  0.7546771E-02  0.1163815E+00
         11   -1    0    0    0    0  0.00000000000E+00  0.00000000000E+00  0.50000000000E+02  0.50000000000E+02  0.00000000000E+00 0. -1.
        -11   -1    0    0    0    0 -0.00000000000E+00 -0.00000000000E+00 -0.50000000000E+02  0.50000000000E+02  0.00000000000E+00 0.  1.
         23    2    1    2    0    0  0.00000000000E+00  0.00000000000E+00  0.00000000000E+00  0.10000000000E+03  0.10000000000E+03 0.  0.
          5    1    3    3  501    0  0.24684749359E+02 -0.64361307923E+01  0.42745167791E+02  0.50000000000E+02  0.47000000000E+01 0. -1.
         -5    1    3    3    0  501 -0.24684749359E+02  0.64361307923E+01 -0.42745167791E+02  0.50000000000E+02  0.47000000000E+01 0.  1.
</event>
<event>
 5    1  0.9023675E-001  0.1000000E+03  0.7546771E-02  0.1163815E+00
         11   -1    0    0    0    0  0.00000000000E+00  0.00000000000E+00  0.50000000000E+02  0.50000000000E+02  0.00000000000E+00 0. -1.
        -11   -1    0    0    0    0 -0.00000000000E+00 -0.00000000000E+00 -0.50000000000E+02  0.50000000000E+02  0.00000000000E+00 0.  1.
         23    2    1    2    0    0  0.00000000000E+00  0.00000000000E+00  0.00000000000E+00  0.10000000000E+03  0.10000000000E+03 0.  0.
          5    1    3    3  501    0 -0.23443527249E+02  0.11515479878E+02  0.42375756670E+02  0.50000000000E+02  0.47000000000E+01 0. -1.
         -5    1    3    3    0  501  0.23443527249E+02 -0.11515479878E+02 -0.42375756670E+02  0.50000000000E+02  0.47000000000E+01 0.  1.
</event>
<event>
 5    1  0.9023675E-001  0.1000000E+03  0.7546771E-02  0.1163815E+00
         11   -1    0    0    0    0  0.00000000000E+00  0.00000000000E+00  0.50000000000E+02  0.50000000000E+02  0.00000000000E+00 0. -1.
        -11   -1    0    0    0    0 -0.00000000000E+00 -0.00000000000E+00 -0.50000000000E+02  0.50000000000E+02  0.00000000000E+00 0.  1.
         23    2    1    2    0    0  0.00000000000E+00  0.00000000000E+00  0.00000000000E+00  0.10000000000E+03  0.10000000000E+03 0.  0.
          5    1    3    3  501    0 -0.17752087006E+02 -0.44111996584E+02 -0.14727700578E+02  0.50000000000E+02  0.47000000000E+01 0. -1.
         -5    1    3    3    0  501  0.17752087006E+02  0.44111996584E+02  0.14727700578E+02  0.50000000000E+02  0.47000000000E+01 0.  1.
</event>
<event>
 5    1  0.9023675E-001  0.1000000E+03  0.7546771E-02  0.1163815E+00
         11   -1    0    0    0    0  0.00000000000E+00  0.00000000000E+00  0.50000000000E+02  0.50000000000E+02  0.00000000000E+00 0. -1.
        -11   -1    0    0    0    0 -0.00000000000E+00 -0.00000000000E+00 -0.50000000000E+02  0.50000000000E+02  0.00000000000E+00 0.  1.
         23    2    1    2    0    0  0.00000000000E+00  0.00000000000E+00  0.00000000000E+00  0.10000000000E+03  0.10000000000E+03 0.  0.
          5    1    3    3  501    0  0.31098582757E+02  0.25699917308E+02  0.29159945145E+02  0.50000000000E+02  0.47000000000E+01 0. -1.
         -5    1    3    3    0  501 -0.31098582757E+02 -0.25699917308E+02 -0.29159945145E+02  0.50000000000E+02  0.47000000000E+01 0.  1.
</event>
<event>
 5    1  0.9023675E-001  0.1000000E+03  0.7546771E-02  0.1163815E+00
         11   -1    0    0    0    0  0.00000000000E+00  0.00000000000E+00  0.50000000000E+02  0.50000000000E+02  0.00000000000E+00 0. -1.
        -11   -1    0    0    0    0 -0.00000000000E+00 -0.00000000000E+00 -0.50000000000E+02  0.50000000000E+02  0.00000000000E+00 0.  1.
         23    2    1    2    0    0  0.00000000000E+00  0.00000000000E+00  0.00000000000E+00  0.10000000000E+03  0.10000000000E+03 0.  0.
          5    1    3    3  501    0  0.97467263238E+01 -0.44229221016E+02  0.20656411458E+02  0.50000000000E+02  0.47000000000E+01 0. -1.
         -5    1    3    3    0  501 -0.97467263238E+01  0.44229221016E+02 -0.20656411458E+02  0.50000000000E+02  0.47000000000E+01 0.  1.
</event>
<event>
 5    1  0.9023675E-001  0.1000000E+03  0.7546771E-02  0.1163815E+00
         11   -1    0    0    0    0  0.00000000000E+00  0.00000000000E+00  0.50000000000E+02  0.50000000000E+02  0.00000000000E+00 0.  1.
        -11   -1    0    0    0    0 -0.00000000000E+00 -0.00000000000E+00 -0.50000000000E+02  0.50000000000E+02  0.00000000000E+00 0. -1.
         23    2    1    2    0    0  0.00000000000E+00  0.00000000000E+00  0.00000000000E+00  0.10000000000E+03  0.10000000000E+03 0.  0.
          5    1    3    3  501    0  0.26808650952E+02  0.37704006760E+02  0.18374278446E+02  0.50000000000E+02  0.47000000000E+01 0. -1.
         -5    1    3    3    0  501 -0.26808650952E+02 -0.37704006760E+02 -0.18374278446E+02  0.50000000000E+02  0.47000000000E+01 0.  1.
</event>
<event>
 5    1  0.9023675E-001  0.1000000E+03  0.7546771E-02  0.1163815E+00
         11   -1    0    0    0    0  0.00000000000E+00  0.00000000000E+00  0.50000000000E+02  0.50000000000E+02  0.00000000000E+00 0. -1.
        -11   -1    0    0    0    0 -0.00000000000E+00 -0.00000000000E+00 -0.50000000000E+02  0.50000000000E+02  0.00000000000E+00 0.  1.
         23    2    1    2    0    0  0.00000000000E+00  0.00000000000E+00  0.00000000000E+00  0.10000000000E+03  0.10000000000E+03 0.  0.
          5    1    3    3  501    0  0.92714988154E+00  0.95964834592E+01  0.48836030739E+02  0.50000000000E+02  0.47000000000E+01 0. -1.
         -5    1    3    3    0  501 -0.92714988154E+00 -0.95964834592E+01 -0.48836030739E+02  0.50000000000E+02  0.47000000000E+01 0.  1.
</event>
<event>
 5    1  0.9023675E-001  0.1000000E+03  0.7546771E-02  0.1163815E+00
         11   -1    0    0    0    0  0.00000000000E+00  0.00000000000E+00  0.50000000000E+02  0.50000000000E+02  0.00000000000E+00 0.  1.
        -11   -1    0    0    0    0 -0.00000000000E+00 -0.00000000000E+00 -0.50000000000E+02  0.50000000000E+02  0.00000000000E+00 0. -1.
         23    2    1    2    0    0  0.00000000000E+00  0.00000000000E+00  0.00000000000E+00  0.10000000000E+03  0.10000000000E+03 0.  0.
          5    1    3    3  501    0  0.20259055230E+02  0.35740100577E+02  0.28109178072E+02  0.50000000000E+02  0.47000000000E+01 0. -1.
         -5    1    3    3    0  501 -0.20259055230E+02 -0.35740100577E+02 -0.28109178072E+02  0.50000000000E+02  0.47000000000E+01 0.  1.
</event>
<event>
 5    1  0.9023675E-001  0.1000000E+03  0.7546771E-02  0.1163815E+00
         11   -1    0    0    0    0  0.00000000000E+00  0.00000000000E+00  0.50000000000E+02  0.50000000000E+02  0.00000000000E+00 0. -1.
        -11   -1    0    0    0    0 -0.00000000000E+00 -0.00000000000E+00 -0.50000000000E+02  0.50000000000E+02  0.00000000000E+00 0.  1.
         23    2    1    2    0    0  0.00000000000E+00  0.00000000000E+00  0.00000000000E+00  0.10000000000E+03  0.10000000000E+03 0.  0.
          5    1    3    3  501    0 -0.23776246832E+02 -0.43104561139E+02  0.73889712156E+01  0.50000000000E+02  0.47000000000E+01 0. -1.
         -5    1    3    3    0  501  0.23776246832E+02  0.43104561139E+02 -0.73889712156E+01  0.50000000000E+02  0.47000000000E+01 0.  1.
</event>
<event>
 5    1  0.9023675E-001  0.1000000E+03  0.7546771E-02  0.1163815E+00
         11   -1    0    0    0    0  0.00000000000E+00  0.00000000000E+00  0.50000000000E+02  0.50000000000E+02  0.00000000000E+00 0.  1.
        -11   -1    0    0    0    0 -0.00000000000E+00 -0.00000000000E+00 -0.50000000000E+02  0.50000000000E+02  0.00000000000E+00 0. -1.
         23    2    1    2    0    0  0.00000000000E+00  0.00000000000E+00  0.00000000000E+00  0.10000000000E+03  0.10000000000E+03 0.  0.
          5    1    3    3  501    0 -0.24630055174E+02  0.36172022297E+02 -0.23724569229E+02  0.50000000000E+02  0.47000000000E+01 0. -1.
         -5    1    3    3    0  501  0.24630055174E+02 -0.36172022297E+02  0.23724569229E+02  0.50000000000E+02  0.47000000000E+01 0.  1.
</event>
<event>
 5    1  0.9023675E-001  0.1000000E+03  0.7546771E-02  0.1163815E+00
         11   -1    0    0    0    0  0.00000000000E+00  0.00000000000E+00  0.50000000000E+02  0.50000000000E+02  0.00000000000E+00 0. -1.
        -11   -1    0    0    0    0 -0.00000000000E+00 -0.00000000000E+00 -0.50000000000E+02  0.50000000000E+02  0.00000000000E+00 0.  1.
         23    2    1    2    0    0  0.00000000000E+00  0.00000000000E+00  0.00000000000E+00  0.10000000000E+03  0.10000000000E+03 0.  0.
          5    1    3    3  501    0  0.12884516424E+02 -0.18293895315E+02  0.44466084050E+02  0.50000000000E+02  0.47000000000E+01 0. -1.
         -5    1    3    3    0  501 -0.12884516424E+02  0.18293895315E+02 -0.44466084050E+02  0.50000000000E+02  0.47000000000E+01 0.  1.
</event>
<event>
 5    1  0.9023675E-001  0.1000000E+03  0.7546771E-02  0.1163815E+00
         11   -1    0    0    0    0  0.00000000000E+00  0.00000000000E+00  0.50000000000E+02  0.50000000000E+02  0.00000000000E+00 0. -1.
        -11   -1    0    0    0    0 -0.00000000000E+00 -0.00000000000E+00 -0.50000000000E+02  0.50000000000E+02  0.00000000000E+00 0.  1.
         23    2    1    2    0    0  0.00000000000E+00  0.00000000000E+00  0.00000000000E+00  0.10000000000E+03  0.10000000000E+03 0.  0.
          5    1    3    3  501    0  0.38187161168E+02 -0.31423838938E+02  0.56738935808E+01  0.50000000000E+02  0.47000000000E+01 0. -1.
         -5    1    3    3    0  501 -0.38187161168E+02  0.31423838938E+02 -0.56738935808E+01  0.50000000000E+02  0.47000000000E+01 0.  1.
</event>
<event>
 5    1  0.9023675E-001  0.1000000E+03  0.7546771E-02  0.1163815E+00
         11   -1    0    0    0    0  0.00000000000E+00  0.00000000000E+00  0.50000000000E+02  0.50000000000E+02  0.00000000000E+00 0. -1.
        -11   -1    0    0    0    0 -0.00000000000E+00 -0.00000000000E+00 -0.50000000000E+02  0.50000000000E+02  0.00000000000E+00 0.  1.
         23    2    1    2    0    0  0.00000000000E+00  0.00000000000E+00  0.00000000000E+00  0.10000000000E+03  0.10000000000E+03 0.  0.
          5    1    3    3  501    0 -0.32507904510E+02 -0.27975308565E+02  0.25269116627E+02  0.50000000000E+02  0.47000000000E+01 0. -1.
         -5    1    3    3    0  501  0.32507904510E+02  0.27975308565E+02 -0.25269116627E+02  0.50000000000E+02  0.47000000000E+01 0.  1.
</event>
<event>
 5    1  0.9023675E-001  0.1000000E+03  0.7546771E-02  0.1163815E+00
         11   -1    0    0    0    0  0.00000000000E+00  0.00000000000E+00  0.50000000000E+02  0.50000000000E+02  0.00000000000E+00 0.  1.
        -11   -1    0    0    0    0 -0.00000000000E+00 -0.00000000000E+00 -0.50000000000E+02  0.50000000000E+02  0.00000000000E+00 0. -1.
         23    2    1    2    0    0  0.00000000000E+00  0.00000000000E+00  0.00000000000E+00  0.10000000000E+03  0.10000000000E+03 0.  0.
          5    1    3    3  501    0 -0.12148195117E+02 -0.36877895943E+02 -0.31150475858E+02  0.50000000000E+02  0.47000000000E+01 0. -1.
         -5    1    3    3    0  501  0.12148195117E+02  0.36877895943E+02  0.31150475858E+02  0.50000000000E+02  0.47000000000E+01 0.  1.
</event>
<event>
 5    1  0.9023675E-001  0.1000000E+03  0.7546771E-02  0.1163815E+00
         11   -1    0    0    0    0  0.00000000000E+00  0.00000000000E+00  0.50000000000E+02  0.50000000000E+02  0.00000000000E+00 0.  1.
        -11   -1    0    0    0    0 -0.00000000000E+00 -0.00000000000E+00 -0.50000000000E+02  0.50000000000E+02  0.00000000000E+00 0. -1.
         23    2    1    2    0    0  0.00000000000E+00  0.00000000000E+00  0.00000000000E+00  0.10000000000E+03  0.10000000000E+03 0.  0.
          5    1    3    3  501    0  0.30628693414E+02 -0.27892339124E+02 -0.27600915890E+02  0.50000000000E+02  0.47000000000E+01 0. -1.
         -5    1    3    3    0  501 -0.30628693414E+02  0.27892339124E+02  0.27600915890E+02  0.50000000000E+02  0.47000000000E+01 0.  1.
</event>
<event>
 5    1  0.9023675E-001  0.1000000E+03  0.7546771E-02  0.1163815E+00
         11   -1    0    0    0    0  0.00000000000E+00  0.00000000000E+00  0.50000000000E+02  0.50000000000E+02  0.00000000000E+00 0.  1.
        -11   -1    0    0    0    0 -0.00000000000E+00 -0.00000000000E+00 -0.50000000000E+02  0.50000000000E+02  0.00000000000E+00 0. -1.
         23    2    1    2    0    0  0.00000000000E+00  0.00000000000E+00  0.00000000000E+00  0.10000000000E+03  0.10000000000E+03 0.  0.
          5    1    3    3  501    0  0.10719102935E+02 -0.48492339059E+02 -0.33917377321E+01  0.50000000000E+02  0.47000000000E+01 0.  1.
         -5    1    3    3    0  501 -0.10719102935E+02  0.48492339059E+02  0.33917377321E+01  0.50000000000E+02  0.47000000000E+01 0. -1.
</event>
<event>
 5    1  0.9023675E-001  0.1000000E+03  0.7546771E-02  0.1163815E+00
         11   -1    0    0    0    0  0.00000000000E+00  0.00000000000E+00  0.50000000000E+02  0.50000000000E+02  0.00000000000E+00 0. -1.
        -11   -1    0    0    0    0 -0.00000000000E+00 -0.00000000000E+00 -0.50000000000E+02  0.50000000000E+02  0.00000000000E+00 0.  1.
         23    2    1    2    0    0  0.00000000000E+00  0.00000000000E+00  0.00000000000E+00  0.10000000000E+03  0.10000000000E+03 0.  0.
          5    1    3    3  501    0  0.66733097022E+01 -0.37054794621E+01  0.49189900992E+02  0.50000000000E+02  0.47000000000E+01 0. -1.
         -5    1    3    3    0  501 -0.66733097022E+01  0.37054794621E+01 -0.49189900992E+02  0.50000000000E+02  0.47000000000E+01 0.  1.
</event>
<event>
 5    1  0.9023675E-001  0.1000000E+03  0.7546771E-02  0.1163815E+00
         11   -1    0    0    0    0  0.00000000000E+00  0.00000000000E+00  0.50000000000E+02  0.50000000000E+02  0.00000000000E+00 0.  1.
        -11   -1    0    0    0    0 -0.00000000000E+00 -0.00000000000E+00 -0.50000000000E+02  0.50000000000E+02  0.00000000000E+00 0. -1.
         23    2    1    2    0    0  0.00000000000E+00  0.00000000000E+00  0.00000000000E+00  0.10000000000E+03  0.10000000000E+03 0.  0.
          5    1    3    3  501    0 -0.46399140180E+02  0.66118903471E+01 -0.16772378978E+02  0.50000000000E+02  0.47000000000E+01 0. -1.
         -5    1    3    3    0  501  0.46399140180E+02 -0.66118903471E+01  0.16772378978E+02  0.50000000000E+02  0.47000000000E+01 0.  1.
</event>
<event>
 5    1  0.9023675E-001  0.1000000E+03  0.7546771E-02  0.1163815E+00
         11   -1    0    0    0    0  0.00000000000E+00  0.00000000000E+00  0.50000000000E+02  0.50000000000E+02  0.00000000000E+00 0.  1.
        -11   -1    0    0    0    0 -0.00000000000E+00 -0.00000000000E+00 -0.50000000000E+02  0.50000000000E+02  0.00000000000E+00 0. -1.
         23    2    1    2    0    0  0.00000000000E+00  0.00000000000E+00  0.00000000000E+00  0.10000000000E+03  0.10000000000E+03 0.  0.
          5    1    3    3  501    0  0.13773199019E+02  0.34048378516E+01 -0.47713898059E+02  0.50000000000E+02  0.47000000000E+01 0. -1.
         -5    1    3    3    0  501 -0.13773199019E+02 -0.34048378516E+01  0.47713898059E+02  0.50000000000E+02  0.47000000000E+01 0.  1.
</event>
<event>
 5    1  0.9023675E-001  0.1000000E+03  0.7546771E-02  0.1163815E+00
         11   -1    0    0    0    0  0.00000000000E+00  0.00000000000E+00  0.50000000000E+02  0.50000000000E+02  0.00000000000E+00 0.  1.
        -11   -1    0    0    0    0 -0.00000000000E+00 -0.00000000000E+00 -0.50000000000E+02  0.50000000000E+02  0.00000000000E+00 0. -1.
         23    2    1    2    0    0  0.00000000000E+00  0.00000000000E+00  0.00000000000E+00  0.10000000000E+03  0.10000000000E+03 0.  0.
          5    1    3    3  501    0 -0.12061989039E+02  0.48023051163E+02  0.51190797423E+01  0.50000000000E+02  0.47000000000E+01 0. -1.
         -5    1    3    3    0  501  0.12061989039E+02 -0.48023051163E+02 -0.51190797423E+01  0.50000000000E+02  0.47000000000E+01 0.  1.
</event>
<event>
 5    1  0.9023675E-001  0.1000000E+03  0.7546771E-02  0.1163815E+00
         11   -1    0    0    0    0  0.00000000000E+00  0.00000000000E+00  0.50000000000E+02  0.50000000000E+02  0.00000000000E+00 0. -1.
        -11   -1    0    0    0    0 -0.00000000000E+00 -0.00000000000E+00 -0.50000000000E+02  0.50000000000E+02  0.00000000000E+00 0.  1.
         23    2    1    2    0    0  0.00000000000E+00  0.00000000000E+00  0.00000000000E+00  0.10000000000E+03  0.10000000000E+03 0.  0.
          5    1    3    3  501    0  0.42462865273E+02 -0.75101005495E+01  0.24867920351E+02  0.50000000000E+02  0.47000000000E+01 0. -1.
         -5    1    3    3    0  501 -0.42462865273E+02  0.75101005495E+01 -0.24867920351E+02  0.50000000000E+02  0.47000000000E+01 0.  1.
</event>
<event>
 5    1  0.9023675E-001  0.1000000E+03  0.7546771E-02  0.1163815E+00
         11   -1    0    0    0    0  0.00000000000E+00  0.00000000000E+00  0.50000000000E+02  0.50000000000E+02  0.00000000000E+00 0.  1.
        -11   -1    0    0    0    0 -0.00000000000E+00 -0.00000000000E+00 -0.50000000000E+02  0.50000000000E+02  0.00000000000E+00 0. -1.
         23    2    1    2    0    0  0.00000000000E+00  0.00000000000E+00  0.00000000000E+00  0.10000000000E+03  0.10000000000E+03 0.  0.
          5    1    3    3  501    0  0.60858381714E+01 -0.37353452226E+02 -0.32335617832E+02  0.50000000000E+02  0.47000000000E+01 0. -1.
         -5    1    3    3    0  501 -0.60858381714E+01  0.37353452226E+02  0.32335617832E+02  0.50000000000E+02  0.47000000000E+01 0.  1.
</event>
<event>
 5    1  0.9023675E-001  0.1000000E+03  0.7546771E-02  0.1163815E+00
         11   -1    0    0    0    0  0.00000000000E+00  0.00000000000E+00  0.50000000000E+02  0.50000000000E+02  0.00000000000E+00 0. -1.
        -11   -1    0    0    0    0 -0.00000000000E+00 -0.00000000000E+00 -0.50000000000E+02  0.50000000000E+02  0.00000000000E+00 0.  1.
         23    2    1    2    0    0  0.00000000000E+00  0.00000000000E+00  0.00000000000E+00  0.10000000000E+03  0.10000000000E+03 0.  0.
          5    1    3    3  501    0  0.81313629212E+01  0.31326851363E+02  0.37820884716E+02  0.50000000000E+02  0.47000000000E+01 0. -1.
         -5    1    3    3    0  501 -0.81313629212E+01 -0.31326851363E+02 -0.37820884716E+02  0.50000000000E+02  0.47000000000E+01 0.  1.
</event>
<event>
 5    1  0.9023675E-001  0.1000000E+03  0.7546771E-02  0.1163815E+00
         11   -1    0    0    0    0  0.00000000000E+00  0.00000000000E+00  0.50000000000E+02  0.50000000000E+02  0.00000000000E+00 0. -1.
        -11   -1    0    0    0    0 -0.00000000000E+00 -0.00000000000E+00 -0.50000000000E+02  0.50000000000E+02  0.00000000000E+00 0.  1.
         23    2    1    2    0    0  0.00000000000E+00  0.00000000000E+00  0.00000000000E+00  0.10000000000E+03  0.10000000000E+03 0.  0.
          5    1    3    3  501    0 -0.38793127929E+01  0.49627217122E+02 -0.15906406370E-01  0.50000000000E+02  0.47000000000E+01 0. -1.
         -5    1    3    3    0  501  0.38793127929E+01 -0.49627217122E+02  0.15906406370E-01  0.50000000000E+02  0.47000000000E+01 0.  1.
</event>
<event>
 5    1  0.9023675E-001  0.1000000E+03  0.7546771E-02  0.1163815E+00
         11   -1    0    0    0    0  0.00000000000E+00  0.00000000000E+00  0.50000000000E+02  0.50000000000E+02  0.00000000000E+00 0.  1.
        -11   -1    0    0    0    0 -0.00000000000E+00 -0.00000000000E+00 -0.50000000000E+02  0.50000000000E+02  0.00000000000E+00 0. -1.
         23    2    1    2    0    0  0.00000000000E+00  0.00000000000E+00  0.00000000000E+00  0.10000000000E+03  0.10000000000E+03 0.  0.
          5    1    3    3  501    0 -0.24613335497E+02  0.10102201350E+02 -0.42071834326E+02  0.50000000000E+02  0.47000000000E+01 0. -1.
         -5    1    3    3    0  501  0.24613335497E+02 -0.10102201350E+02  0.42071834326E+02  0.50000000000E+02  0.47000000000E+01 0.  1.
</event>
<event>
 5    1  0.9023675E-001  0.1000000E+03  0.7546771E-02  0.1163815E+00
         11   -1    0    0    0    0  0.00000000000E+00  0.00000000000E+00  0.50000000000E+02  0.50000000000E+02  0.00000000000E+00 0.  1.
        -11   -1    0    0    0    0 -0.00000000000E+00 -0.00000000000E+00 -0.50000000000E+02  0.50000000000E+02  0.00000000000E+00 0. -1.
         23    2    1    2    0    0  0.00000000000E+00  0.00000000000E+00  0.00000000000E+00  0.10000000000E+03  0.10000000000E+03 0.  0.
          5    1    3    3  501    0  0.34253419897E+02  0.35781306565E+02 -0.49306516649E+01  0.50000000000E+02  0.47000000000E+01 0. -1.
         -5    1    3    3    0  501 -0.34253419897E+02 -0.35781306565E+02  0.49306516649E+01  0.50000000000E+02  0.47000000000E+01 0.  1.
</event>
<event>
 5    1  0.9023675E-001  0.1000000E+03  0.7546771E-02  0.1163815E+00
         11   -1    0    0    0    0  0.00000000000E+00  0.00000000000E+00  0.50000000000E+02  0.50000000000E+02  0.00000000000E+00 0. -1.
        -11   -1    0    0    0    0 -0.00000000000E+00 -0.00000000000E+00 -0.50000000000E+02  0.50000000000E+02  0.00000000000E+00 0.  1.
         23    2    1    2    0    0  0.00000000000E+00  0.00000000000E+00  0.00000000000E+00  0.10000000000E+03  0.10000000000E+03 0.  0.
          5    1    3    3  501    0  0.16631521031E+02  0.10991034265E+02  0.45612494714E+02  0.50000000000E+02  0.47000000000E+01 0. -1.
         -5    1    3    3    0  501 -0.16631521031E+02 -0.10991034265E+02 -0.45612494714E+02  0.50000000000E+02  0.47000000000E+01 0.  1.
</event>
<event>
 5    1  0.9023675E-001  0.1000000E+03  0.7546771E-02  0.1163815E+00
         11   -1    0    0    0    0  0.00000000000E+00  0.00000000000E+00  0.50000000000E+02  0.50000000000E+02  0.00000000000E+00 0. -1.
        -11   -1    0    0    0    0 -0.00000000000E+00 -0.00000000000E+00 -0.50000000000E+02  0.50000000000E+02  0.00000000000E+00 0.  1.
         23    2    1    2    0    0  0.00000000000E+00  0.00000000000E+00  0.00000000000E+00  0.10000000000E+03  0.10000000000E+03 0.  0.
          5    1    3    3  501    0 -0.27033408106E+02  0.19997917381E+02  0.36704061718E+02  0.50000000000E+02  0.47000000000E+01 0. -1.
         -5    1    3    3    0  501  0.27033408106E+02 -0.19997917381E+02 -0.36704061718E+02  0.50000000000E+02  0.47000000000E+01 0.  1.
</event>
<event>
 5    1  0.9023675E-001  0.1000000E+03  0.7546771E-02  0.1163815E+00
         11   -1    0    0    0    0  0.00000000000E+00  0.00000000000E+00  0.50000000000E+02  0.50000000000E+02  0.00000000000E+00 0. -1.
        -11   -1    0    0    0    0 -0.00000000000E+00 -0.00000000000E+00 -0.50000000000E+02  0.50000000000E+02  0.00000000000E+00 0.  1.
         23    2    1    2    0    0  0.00000000000E+00  0.00000000000E+00  0.00000000000E+00  0.10000000000E+03  0.10000000000E+03 0.  0.
          5    1    3    3  501    0 -0.45068553627E+02  0.83330364439E+01  0.19424108155E+02  0.50000000000E+02  0.47000000000E+01 0. -1.
         -5    1    3    3    0  501  0.45068553627E+02 -0.83330364439E+01 -0.19424108155E+02  0.50000000000E+02  0.47000000000E+01 0.  1.
</event>
<event>
 5    1  0.9023675E-001  0.1000000E+03  0.7546771E-02  0.1163815E+00
         11   -1    0    0    0    0  0.00000000000E+00  0.00000000000E+00  0.50000000000E+02  0.50000000000E+02  0.00000000000E+00 0. -1.
        -11   -1    0    0    0    0 -0.00000000000E+00 -0.00000000000E+00 -0.50000000000E+02  0.50000000000E+02  0.00000000000E+00 0.  1.
         23    2    1    2    0    0  0.00000000000E+00  0.00000000000E+00  0.00000000000E+00  0.10000000000E+03  0.10000000000E+03 0.  0.
          5    1    3    3  501    0 -0.19579035760E+01 -0.25598070184E+02  0.42647572222E+02  0.50000000000E+02  0.47000000000E+01 0. -1.
         -5    1    3    3    0  501  0.19579035760E+01  0.25598070184E+02 -0.42647572222E+02  0.50000000000E+02  0.47000000000E+01 0.  1.
</event>
<event>
 5    1  0.9023675E-001  0.1000000E+03  0.7546771E-02  0.1163815E+00
         11   -1    0    0    0    0  0.00000000000E+00  0.00000000000E+00  0.50000000000E+02  0.50000000000E+02  0.00000000000E+00 0.  1.
        -11   -1    0    0    0    0 -0.00000000000E+00 -0.00000000000E+00 -0.50000000000E+02  0.50000000000E+02  0.00000000000E+00 0. -1.
         23    2    1    2    0    0  0.00000000000E+00  0.00000000000E+00  0.00000000000E+00  0.10000000000E+03  0.10000000000E+03 0.  0.
          5    1    3    3  501    0 -0.32272051473E+02 -0.13434908822E+02 -0.35439073333E+02  0.50000000000E+02  0.47000000000E+01 0. -1.
         -5    1    3    3    0  501  0.32272051473E+02  0.13434908822E+02  0.35439073333E+02  0.50000000000E+02  0.47000000000E+01 0.  1.
</event>
<event>
 5    1  0.9023675E-001  0.1000000E+03  0.7546771E-02  0.1163815E+00
         11   -1    0    0    0    0  0.00000000000E+00  0.00000000000E+00  0.50000000000E+02  0.50000000000E+02  0.00000000000E+00 0. -1.
        -11   -1    0    0    0    0 -0.00000000000E+00 -0.00000000000E+00 -0.50000000000E+02  0.50000000000E+02  0.00000000000E+00 0.  1.
         23    2    1    2    0    0  0.00000000000E+00  0.00000000000E+00  0.00000000000E+00  0.10000000000E+03  0.10000000000E+03 0.  0.
          5    1    3    3  501    0  0.42270456978E+02  0.40233071483E+01  0.25979443152E+02  0.50000000000E+02  0.47000000000E+01 0. -1.
         -5    1    3    3    0  501 -0.42270456978E+02 -0.40233071483E+01 -0.25979443152E+02  0.50000000000E+02  0.47000000000E+01 0.  1.
</event>
<event>
 5    1  0.9023675E-001  0.1000000E+03  0.7546771E-02  0.1163815E+00
         11   -1    0    0    0    0  0.00000000000E+00  0.00000000000E+00  0.50000000000E+02  0.50000000000E+02  0.00000000000E+00 0. -1.
        -11   -1    0    0    0    0 -0.00000000000E+00 -0.00000000000E+00 -0.50000000000E+02  0.50000000000E+02  0.00000000000E+00 0.  1.
         23    2    1    2    0    0  0.00000000000E+00  0.00000000000E+00  0.00000000000E+00  0.10000000000E+03  0.10000000000E+03 0.  0.
          5    1    3    3  501    0  0.71676243520E+01 -0.27408568058E+02  0.40930496676E+02  0.50000000000E+02  0.47000000000E+01 0. -1.
         -5    1    3    3    0  501 -0.71676243520E+01  0.27408568058E+02 -0.40930496676E+02  0.50000000000E+02  0.47000000000E+01 0.  1.
</event>
<event>
 5    1  0.9023675E-001  0.1000000E+03  0.7546771E-02  0.1163815E+00
         11   -1    0    0    0    0  0.00000000000E+00  0.00000000000E+00  0.50000000000E+02  0.50000000000E+02  0.00000000000E+00 0. -1.
        -11   -1    0    0    0    0 -0.00000000000E+00 -0.00000000000E+00 -0.50000000000E+02  0.50000000000E+02  0.00000000000E+00 0.  1.
         23    2    1    2    0    0  0.00000000000E+00  0.00000000000E+00  0.00000000000E+00  0.10000000000E+03  0.10000000000E+03 0.  0.
          5    1    3    3  501    0  0.44197629752E+02 -0.14617071687E+01 -0.22854823045E+02  0.50000000000E+02  0.47000000000E+01 0. -1.
         -5    1    3    3    0  501 -0.44197629752E+02  0.14617071687E+01  0.22854823045E+02  0.50000000000E+02  0.47000000000E+01 0.  1.
</event>
<event>
 5    1  0.9023675E-001  0.1000000E+03  0.7546771E-02  0.1163815E+00
         11   -1    0    0    0    0  0.00000000000E+00  0.00000000000E+00  0.50000000000E+02  0.50000000000E+02  0.00000000000E+00 0. -1.
        -11   -1    0    0    0    0 -0.00000000000E+00 -0.00000000000E+00 -0.50000000000E+02  0.50000000000E+02  0.00000000000E+00 0.  1.
         23    2    1    2    0    0  0.00000000000E+00  0.00000000000E+00  0.00000000000E+00  0.10000000000E+03  0.10000000000E+03 0.  0.
          5    1    3    3  501    0  0.30735620159E+02 -0.14845431389E+02  0.36233200526E+02  0.50000000000E+02  0.47000000000E+01 0. -1.
         -5    1    3    3    0  501 -0.30735620159E+02  0.14845431389E+02 -0.36233200526E+02  0.50000000000E+02  0.47000000000E+01 0.  1.
</event>
<event>
 5    1  0.9023675E-001  0.1000000E+03  0.7546771E-02  0.1163815E+00
         11   -1    0    0    0    0  0.00000000000E+00  0.00000000000E+00  0.50000000000E+02  0.50000000000E+02  0.00000000000E+00 0.  1.
        -11   -1    0    0    0    0 -0.00000000000E+00 -0.00000000000E+00 -0.50000000000E+02  0.50000000000E+02  0.00000000000E+00 0. -1.
         23    2    1    2    0    0  0.00000000000E+00  0.00000000000E+00  0.00000000000E+00  0.10000000000E+03  0.10000000000E+03 0.  0.
          5    1    3    3  501    0 -0.45446488154E-01  0.16761617876E+00 -0.49778306916E+02  0.50000000000E+02  0.47000000000E+01 0. -1.
         -5    1    3    3    0  501  0.45446488154E-01 -0.16761617876E+00  0.49778306916E+02  0.50000000000E+02  0.47000000000E+01 0.  1.
</event>
<event>
 5    1  0.9023675E-001  0.1000000E+03  0.7546771E-02  0.1163815E+00
         11   -1    0    0    0    0  0.00000000000E+00  0.00000000000E+00  0.50000000000E+02  0.50000000000E+02  0.00000000000E+00 0. -1.
        -11   -1    0    0    0    0 -0.00000000000E+00 -0.00000000000E+00 -0.50000000000E+02  0.50000000000E+02  0.00000000000E+00 0.  1.
         23    2    1    2    0    0  0.00000000000E+00  0.00000000000E+00  0.00000000000E+00  0.10000000000E+03  0.10000000000E+03 0.  0.
          5    1    3    3  501    0  0.41861872800E+02  0.26019374169E+02  0.69631726594E+01  0.50000000000E+02  0.47000000000E+01 0. -1.
         -5    1    3    3    0  501 -0.41861872800E+02 -0.26019374169E+02 -0.69631726594E+01  0.50000000000E+02  0.47000000000E+01 0.  1.
</event>
<event>
 5    1  0.9023675E-001  0.1000000E+03  0.7546771E-02  0.1163815E+00
         11   -1    0    0    0    0  0.00000000000E+00  0.00000000000E+00  0.50000000000E+02  0.50000000000E+02  0.00000000000E+00 0.  1.
        -11   -1    0    0    0    0 -0.00000000000E+00 -0.00000000000E+00 -0.50000000000E+02  0.50000000000E+02  0.00000000000E+00 0. -1.
         23    2    1    2    0    0  0.00000000000E+00  0.00000000000E+00  0.00000000000E+00  0.10000000000E+03  0.10000000000E+03 0.  0.
          5    1    3    3  501    0  0.98023413935E+01  0.13786251966E+02 -0.46816272384E+02  0.50000000000E+02  0.47000000000E+01 0. -1.
         -5    1    3    3    0  501 -0.98023413935E+01 -0.13786251966E+02  0.46816272384E+02  0.50000000000E+02  0.47000000000E+01 0.  1.
</event>
<event>
 5    1  0.9023675E-001  0.1000000E+03  0.7546771E-02  0.1163815E+00
         11   -1    0    0    0    0  0.00000000000E+00  0.00000000000E+00  0.50000000000E+02  0.50000000000E+02  0.00000000000E+00 0. -1.
        -11   -1    0    0    0    0 -0.00000000000E+00 -0.00000000000E+00 -0.50000000000E+02  0.50000000000E+02  0.00000000000E+00 0.  1.
         23    2    1    2    0    0  0.00000000000E+00  0.00000000000E+00  0.00000000000E+00  0.10000000000E+03  0.10000000000E+03 0.  0.
          5    1    3    3  501    0 -0.32478507982E+02 -0.29205843763E+02  0.23876247808E+02  0.50000000000E+02  0.47000000000E+01 0. -1.
         -5    1    3    3    0  501  0.32478507982E+02  0.29205843763E+02 -0.23876247808E+02  0.50000000000E+02  0.47000000000E+01 0.  1.
</event>
<event>
 5    1  0.9023675E-001  0.1000000E+03  0.7546771E-02  0.1163815E+00
         11   -1    0    0    0    0  0.00000000000E+00  0.00000000000E+00  0.50000000000E+02  0.50000000000E+02  0.00000000000E+00 0. -1.
        -11   -1    0    0    0    0 -0.00000000000E+00 -0.00000000000E+00 -0.50000000000E+02  0.50000000000E+02  0.00000000000E+00 0.  1.
         23    2    1    2    0    0  0.00000000000E+00  0.00000000000E+00  0.00000000000E+00  0.10000000000E+03  0.10000000000E+03 0.  0.
          5    1    3    3  501    0 -0.26223832890E+02 -0.16302155760E+02  0.39044337697E+02  0.50000000000E+02  0.47000000000E+01 0. -1.
         -5    1    3    3    0  501  0.26223832890E+02  0.16302155760E+02 -0.39044337697E+02  0.50000000000E+02  0.47000000000E+01 0.  1.
</event>
<event>
 5    1  0.9023675E-001  0.1000000E+03  0.7546771E-02  0.1163815E+00
         11   -1    0    0    0    0  0.00000000000E+00  0.00000000000E+00  0.50000000000E+02  0.50000000000E+02  0.00000000000E+00 0. -1.
        -11   -1    0    0    0    0 -0.00000000000E+00 -0.00000000000E+00 -0.50000000000E+02  0.50000000000E+02  0.00000000000E+00 0.  1.
         23    2    1    2    0    0  0.00000000000E+00  0.00000000000E+00  0.00000000000E+00  0.10000000000E+03  0.10000000000E+03 0.  0.
          5    1    3    3  501    0  0.19516593485E+02  0.23566967974E+02  0.39263349313E+02  0.50000000000E+02  0.47000000000E+01 0. -1.
         -5    1    3    3    0  501 -0.19516593485E+02 -0.23566967974E+02 -0.39263349313E+02  0.50000000000E+02  0.47000000000E+01 0.  1.
</event>
<event>
 5    1  0.9023675E-001  0.1000000E+03  0.7546771E-02  0.1163815E+00
         11   -1    0    0    0    0  0.00000000000E+00  0.00000000000E+00  0.50000000000E+02  0.50000000000E+02  0.00000000000E+00 0. -1.
        -11   -1    0    0    0    0 -0.00000000000E+00 -0.00000000000E+00 -0.50000000000E+02  0.50000000000E+02  0.00000000000E+00 0.  1.
         23    2    1    2    0    0  0.00000000000E+00  0.00000000000E+00  0.00000000000E+00  0.10000000000E+03  0.10000000000E+03 0.  0.
          5    1    3    3  501    0 -0.47913602867E+02  0.37409750424E+01  0.12969262356E+02  0.50000000000E+02  0.47000000000E+01 0. -1.
         -5    1    3    3    0  501  0.47913602867E+02 -0.37409750424E+01 -0.12969262356E+02  0.50000000000E+02  0.47000000000E+01 0.  1.
</event>
<event>
 5    1  0.9023675E-001  0.1000000E+03  0.7546771E-02  0.1163815E+00
         11   -1    0    0    0    0  0.00000000000E+00  0.00000000000E+00  0.50000000000E+02  0.50000000000E+02  0.00000000000E+00 0. -1.
        -11   -1    0    0    0    0 -0.00000000000E+00 -0.00000000000E+00 -0.50000000000E+02  0.50000000000E+02  0.00000000000E+00 0.  1.
         23    2    1    2    0    0  0.00000000000E+00  0.00000000000E+00  0.00000000000E+00  0.10000000000E+03  0.10000000000E+03 0.  0.
          5    1    3    3  501    0  0.72154728574E+01 -0.35028496754E+02  0.34624433087E+02  0.50000000000E+02  0.47000000000E+01 0. -1.
         -5    1    3    3    0  501 -0.72154728574E+01  0.35028496754E+02 -0.34624433087E+02  0.50000000000E+02  0.47000000000E+01 0.  1.
</event>
<event>
 5    1  0.9023675E-001  0.1000000E+03  0.7546771E-02  0.1163815E+00
         11   -1    0    0    0    0  0.00000000000E+00  0.00000000000E+00  0.50000000000E+02  0.50000000000E+02  0.00000000000E+00 0. -1.
        -11   -1    0    0    0    0 -0.00000000000E+00 -0.00000000000E+00 -0.50000000000E+02  0.50000000000E+02  0.00000000000E+00 0.  1.
         23    2    1    2    0    0  0.00000000000E+00  0.00000000000E+00  0.00000000000E+00  0.10000000000E+03  0.10000000000E+03 0.  0.
          5    1    3    3  501    0  0.36598590187E+02 -0.13269550678E+02  0.31022124704E+02  0.50000000000E+02  0.47000000000E+01 0. -1.
         -5    1    3    3    0  501 -0.36598590187E+02  0.13269550678E+02 -0.31022124704E+02  0.50000000000E+02  0.47000000000E+01 0.  1.
</event>
<event>
 5    1  0.9023675E-001  0.1000000E+03  0.7546771E-02  0.1163815E+00
         11   -1    0    0    0    0  0.00000000000E+00  0.00000000000E+00  0.50000000000E+02  0.50000000000E+02  0.00000000000E+00 0. -1.
        -11   -1    0    0    0    0 -0.00000000000E+00 -0.00000000000E+00 -0.50000000000E+02  0.50000000000E+02  0.00000000000E+00 0.  1.
         23    2    1    2    0    0  0.00000000000E+00  0.00000000000E+00  0.00000000000E+00  0.10000000000E+03  0.10000000000E+03 0.  0.
          5    1    3    3  501    0  0.47487722228E+02  0.13696193978E+02  0.59363716326E+01  0.50000000000E+02  0.47000000000E+01 0. -1.
         -5    1    3    3    0  501 -0.47487722228E+02 -0.13696193978E+02 -0.59363716326E+01  0.50000000000E+02  0.47000000000E+01 0.  1.
</event>
<event>
 5    1  0.9023675E-001  0.1000000E+03  0.7546771E-02  0.1163815E+00
         11   -1    0    0    0    0  0.00000000000E+00  0.00000000000E+00  0.50000000000E+02  0.50000000000E+02  0.00000000000E+00 0.  1.
        -11   -1    0    0    0    0 -0.00000000000E+00 -0.00000000000E+00 -0.50000000000E+02  0.50000000000E+02  0.00000000000E+00 0. -1.
         23    2    1    2    0    0  0.00000000000E+00  0.00000000000E+00  0.00000000000E+00  0.10000000000E+03  0.10000000000E+03 0.  0.
          5    1    3    3  501    0  0.43040246541E+02  0.24905941680E+02  0.22674317364E+01  0.50000000000E+02  0.47000000000E+01 0. -1.
         -5    1    3    3    0  501 -0.43040246541E+02 -0.24905941680E+02 -0.22674317364E+01  0.50000000000E+02  0.47000000000E+01 0.  1.
</event>
<event>
 5    1  0.9023675E-001  0.1000000E+03  0.7546771E-02  0.1163815E+00
         11   -1    0    0    0    0  0.00000000000E+00  0.00000000000E+00  0.50000000000E+02  0.50000000000E+02  0.00000000000E+00 0. -1.
        -11   -1    0    0    0    0 -0.00000000000E+00 -0.00000000000E+00 -0.50000000000E+02  0.50000000000E+02  0.00000000000E+00 0.  1.
         23    2    1    2    0    0  0.00000000000E+00  0.00000000000E+00  0.00000000000E+00  0.10000000000E+03  0.10000000000E+03 0.  0.
          5    1    3    3  501    0  0.87669453893E+00  0.41039401417E+02 -0.28158638781E+02  0.50000000000E+02  0.47000000000E+01 0. -1.
         -5    1    3    3    0  501 -0.87669453893E+00 -0.41039401417E+02  0.28158638781E+02  0.50000000000E+02  0.47000000000E+01 0.  1.
</event>
<event>
 5    1  0.9023675E-001  0.1000000E+03  0.7546771E-02  0.1163815E+00
         11   -1    0    0    0    0  0.00000000000E+00  0.00000000000E+00  0.50000000000E+02  0.50000000000E+02  0.00000000000E+00 0.  1.
        -11   -1    0    0    0    0 -0.00000000000E+00 -0.00000000000E+00 -0.50000000000E+02  0.50000000000E+02  0.00000000000E+00 0. -1.
         23    2    1    2    0    0  0.00000000000E+00  0.00000000000E+00  0.00000000000E+00  0.10000000000E+03  0.10000000000E+03 0.  0.
          5    1    3    3  501    0  0.31372547074E+01  0.26339322738E+02 -0.42122532101E+02  0.50000000000E+02  0.47000000000E+01 0. -1.
         -5    1    3    3    0  501 -0.31372547074E+01 -0.26339322738E+02  0.42122532101E+02  0.50000000000E+02  0.47000000000E+01 0.  1.
</event>
<event>
 5    1  0.9023675E-001  0.1000000E+03  0.7546771E-02  0.1163815E+00
         11   -1    0    0    0    0  0.00000000000E+00  0.00000000000E+00  0.50000000000E+02  0.50000000000E+02  0.00000000000E+00 0. -1.
        -11   -1    0    0    0    0 -0.00000000000E+00 -0.00000000000E+00 -0.50000000000E+02  0.50000000000E+02  0.00000000000E+00 0.  1.
         23    2    1    2    0    0  0.00000000000E+00  0.00000000000E+00  0.00000000000E+00  0.10000000000E+03  0.10000000000E+03 0.  0.
          5    1    3    3  501    0 -0.95093068093E+01 -0.43875717390E+02  0.21503592898E+02  0.50000000000E+02  0.47000000000E+01 0. -1.
         -5    1    3    3    0  501  0.95093068093E+01  0.43875717390E+02 -0.21503592898E+02  0.50000000000E+02  0.47000000000E+01 0.  1.
</event>
<event>
 5    1  0.9023675E-001  0.1000000E+03  0.7546771E-02  0.1163815E+00
         11   -1    0    0    0    0  0.00000000000E+00  0.00000000000E+00  0.50000000000E+02  0.50000000000E+02  0.00000000000E+00 0.  1.
        -11   -1    0    0    0    0 -0.00000000000E+00 -0.00000000000E+00 -0.50000000000E+02  0.50000000000E+02  0.00000000000E+00 0. -1.
         23    2    1    2    0    0  0.00000000000E+00  0.00000000000E+00  0.00000000000E+00  0.10000000000E+03  0.10000000000E+03 0.  0.
          5    1    3    3  501    0  0.29658613830E+02  0.39608618073E+02 -0.54253110517E+01  0.50000000000E+02  0.47000000000E+01 0. -1.
         -5    1    3    3    0  501 -0.29658613830E+02 -0.39608618073E+02  0.54253110517E+01  0.50000000000E+02  0.47000000000E+01 0.  1.
</event>
<event>
 5    1  0.9023675E-001  0.1000000E+03  0.7546771E-02  0.1163815E+00
         11   -1    0    0    0    0  0.00000000000E+00  0.00000000000E+00  0.50000000000E+02  0.50000000000E+02  0.00000000000E+00 0.  1.
        -11   -1    0    0    0    0 -0.00000000000E+00 -0.00000000000E+00 -0.50000000000E+02  0.50000000000E+02  0.00000000000E+00 0. -1.
         23    2    1    2    0    0  0.00000000000E+00  0.00000000000E+00  0.00000000000E+00  0.10000000000E+03  0.10000000000E+03 0.  0.
          5    1    3    3  501    0 -0.64206661765E+01 -0.11132776835E+02 -0.48091021260E+02  0.50000000000E+02  0.47000000000E+01 0. -1.
         -5    1    3    3    0  501  0.64206661765E+01  0.11132776835E+02  0.48091021260E+02  0.50000000000E+02  0.47000000000E+01 0.  1.
</event>
<event>
 5    1  0.9023675E-001  0.1000000E+03  0.7546771E-02  0.1163815E+00
         11   -1    0    0    0    0  0.00000000000E+00  0.00000000000E+00  0.50000000000E+02  0.50000000000E+02  0.00000000000E+00 0. -1.
        -11   -1    0    0    0    0 -0.00000000000E+00 -0.00000000000E+00 -0.50000000000E+02  0.50000000000E+02  0.00000000000E+00 0.  1.
         23    2    1    2    0    0  0.00000000000E+00  0.00000000000E+00  0.00000000000E+00  0.10000000000E+03  0.10000000000E+03 0.  0.
          5    1    3    3  501    0 -0.12447760972E+01  0.49037874453E+02  0.84644788171E+01  0.50000000000E+02  0.47000000000E+01 0. -1.
         -5    1    3    3    0  501  0.12447760972E+01 -0.49037874453E+02 -0.84644788171E+01  0.50000000000E+02  0.47000000000E+01 0.  1.
</event>
<event>
 5    1  0.9023675E-001  0.1000000E+03  0.7546771E-02  0.1163815E+00
         11   -1    0    0    0    0  0.00000000000E+00  0.00000000000E+00  0.50000000000E+02  0.50000000000E+02  0.00000000000E+00 0. -1.
        -11   -1    0    0    0    0 -0.00000000000E+00 -0.00000000000E+00 -0.50000000000E+02  0.50000000000E+02  0.00000000000E+00 0.  1.
         23    2    1    2    0    0  0.00000000000E+00  0.00000000000E+00  0.00000000000E+00  0.10000000000E+03  0.10000000000E+03 0.  0.
          5    1    3    3  501    0  0.46588228350E+02 -0.45998686387E+01 -0.16920052829E+02  0.50000000000E+02  0.47000000000E+01 0. -1.
         -5    1    3    3    0  501 -0.46588228350E+02  0.45998686387E+01  0.16920052829E+02  0.50000000000E+02  0.47000000000E+01 0.  1.
</event>
<event>
 5    1  0.9023675E-001  0.1000000E+03  0.7546771E-02  0.1163815E+00
         11   -1    0    0    0    0  0.00000000000E+00  0.00000000000E+00  0.50000000000E+02  0.50000000000E+02  0.00000000000E+00 0.  1.
        -11   -1    0    0    0    0 -0.00000000000E+00 -0.00000000000E+00 -0.50000000000E+02  0.50000000000E+02  0.00000000000E+00 0. -1.
         23    2    1    2    0    0  0.00000000000E+00  0.00000000000E+00  0.00000000000E+00  0.10000000000E+03  0.10000000000E+03 0.  0.
          5    1    3    3  501    0  0.36566849890E+02 -0.63761593456E+00 -0.33769349047E+02  0.50000000000E+02  0.47000000000E+01 0. -1.
         -5    1    3    3    0  501 -0.36566849890E+02  0.63761593456E+00  0.33769349047E+02  0.50000000000E+02  0.47000000000E+01 0.  1.
</event>
<event>
 5    1  0.9023675E-001  0.1000000E+03  0.7546771E-02  0.1163815E+00
         11   -1    0    0    0    0  0.00000000000E+00  0.00000000000E+00  0.50000000000E+02  0.50000000000E+02  0.00000000000E+00 0.  1.
        -11   -1    0    0    0    0 -0.00000000000E+00 -0.00000000000E+00 -0.50000000000E+02  0.50000000000E+02  0.00000000000E+00 0. -1.
         23    2    1    2    0    0  0.00000000000E+00  0.00000000000E+00  0.00000000000E+00  0.10000000000E+03  0.10000000000E+03 0.  0.
          5    1    3    3  501    0 -0.45605689242E+02 -0.19397200637E+02  0.46668743497E+01  0.50000000000E+02  0.47000000000E+01 0. -1.
         -5    1    3    3    0  501  0.45605689242E+02  0.19397200637E+02 -0.46668743497E+01  0.50000000000E+02  0.47000000000E+01 0.  1.
</event>
<event>
 5    1  0.9023675E-001  0.1000000E+03  0.7546771E-02  0.1163815E+00
         11   -1    0    0    0    0  0.00000000000E+00  0.00000000000E+00  0.50000000000E+02  0.50000000000E+02  0.00000000000E+00 0. -1.
        -11   -1    0    0    0    0 -0.00000000000E+00 -0.00000000000E+00 -0.50000000000E+02  0.50000000000E+02  0.00000000000E+00 0.  1.
         23    2    1    2    0    0  0.00000000000E+00  0.00000000000E+00  0.00000000000E+00  0.10000000000E+03  0.10000000000E+03 0.  0.
          5    1    3    3  501    0  0.43568420793E+01 -0.32919748268E+02  0.37083933193E+02  0.50000000000E+02  0.47000000000E+01 0. -1.
         -5    1    3    3    0  501 -0.43568420793E+01  0.32919748268E+02 -0.37083933193E+02  0.50000000000E+02  0.47000000000E+01 0.  1.
</event>
<event>
 5    1  0.9023675E-001  0.1000000E+03  0.7546771E-02  0.1163815E+00
         11   -1    0    0    0    0  0.00000000000E+00  0.00000000000E+00  0.50000000000E+02  0.50000000000E+02  0.00000000000E+00 0. -1.
        -11   -1    0    0    0    0 -0.00000000000E+00 -0.00000000000E+00 -0.50000000000E+02  0.50000000000E+02  0.00000000000E+00 0.  1.
         23    2    1    2    0    0  0.00000000000E+00  0.00000000000E+00  0.00000000000E+00  0.10000000000E+03  0.10000000000E+03 0.  0.
          5    1    3    3  501    0  0.46148376469E+02 -0.20325299467E+01  0.18550098957E+02  0.50000000000E+02  0.47000000000E+01 0. -1.
         -5    1    3    3    0  501 -0.46148376469E+02  0.20325299467E+01 -0.18550098957E+02  0.50000000000E+02  0.47000000000E+01 0.  1.
</event>
<event>
 5    1  0.9023675E-001  0.1000000E+03  0.7546771E-02  0.1163815E+00
         11   -1    0    0    0    0  0.00000000000E+00  0.00000000000E+00  0.50000000000E+02  0.50000000000E+02  0.00000000000E+00 0. -1.
        -11   -1    0    0    0    0 -0.00000000000E+00 -0.00000000000E+00 -0.50000000000E+02  0.50000000000E+02  0.00000000000E+00 0.  1.
         23    2    1    2    0    0  0.00000000000E+00  0.00000000000E+00  0.00000000000E+00  0.10000000000E+03  0.10000000000E+03 0.  0.
          5    1    3    3  501    0  0.31782463209E+02 -0.93760042917E+01  0.37146676512E+02  0.50000000000E+02  0.47000000000E+01 0. -1.
         -5    1    3    3    0  501 -0.31782463209E+02  0.93760042917E+01 -0.37146676512E+02  0.50000000000E+02  0.47000000000E+01 0.  1.
</event>
<event>
 5    1  0.9023675E-001  0.1000000E+03  0.7546771E-02  0.1163815E+00
         11   -1    0    0    0    0  0.00000000000E+00  0.00000000000E+00  0.50000000000E+02  0.50000000000E+02  0.00000000000E+00 0.  1.
        -11   -1    0    0    0    0 -0.00000000000E+00 -0.00000000000E+00 -0.50000000000E+02  0.50000000000E+02  0.00000000000E+00 0. -1.
         23    2    1    2    0    0  0.00000000000E+00  0.00000000000E+00  0.00000000000E+00  0.10000000000E+03  0.10000000000E+03 0.  0.
          5    1    3    3  501    0 -0.46839321168E+02  0.13333043976E+02 -0.10306208366E+02  0.50000000000E+02  0.47000000000E+01 0. -1.
         -5    1    3    3    0  501  0.46839321168E+02 -0.13333043976E+02  0.10306208366E+02  0.50000000000E+02  0.47000000000E+01 0.  1.
</event>
<event>
 5    1  0.9023675E-001  0.1000000E+03  0.7546771E-02  0.1163815E+00
         11   -1    0    0    0    0  0.00000000000E+00  0.00000000000E+00  0.50000000000E+02  0.50000000000E+02  0.00000000000E+00 0. -1.
        -11   -1    0    0    0    0 -0.00000000000E+00 -0.00000000000E+00 -0.50000000000E+02  0.50000000000E+02  0.00000000000E+00 0.  1.
         23    2    1    2    0    0  0.00000000000E+00  0.00000000000E+00  0.00000000000E+00  0.10000000000E+03  0.10000000000E+03 0.  0.
          5    1    3    3  501    0 -0.44273007315E+02 -0.99953236265E+01  0.20442708453E+02  0.50000000000E+02  0.47000000000E+01 0. -1.
         -5    1    3    3    0  501  0.44273007315E+02  0.99953236265E+01 -0.20442708453E+02  0.50000000000E+02  0.47000000000E+01 0.  1.
</event>
<event>
 5    1  0.9023675E-001  0.1000000E+03  0.7546771E-02  0.1163815E+00
         11   -1    0    0    0    0  0.00000000000E+00  0.00000000000E+00  0.50000000000E+02  0.50000000000E+02  0.00000000000E+00 0. -1.
        -11   -1    0    0    0    0 -0.00000000000E+00 -0.00000000000E+00 -0.50000000000E+02  0.50000000000E+02  0.00000000000E+00 0.  1.
         23    2    1    2    0    0  0.00000000000E+00  0.00000000000E+00  0.00000000000E+00  0.10000000000E+03  0.10000000000E+03 0.  0.
          5    1    3    3  501    0  0.44714540169E+01 -0.49206190632E+02 -0.60553201773E+01  0.50000000000E+02  0.47000000000E+01 0. -1.
         -5    1    3    3    0  501 -0.44714540169E+01  0.49206190632E+02  0.60553201773E+01  0.50000000000E+02  0.47000000000E+01 0.  1.
</event>
<event>
 5    1  0.9023675E-001  0.1000000E+03  0.7546771E-02  0.1163815E+00
         11   -1    0    0    0    0  0.00000000000E+00  0.00000000000E+00  0.50000000000E+02  0.50000000000E+02  0.00000000000E+00 0. -1.
        -11   -1    0    0    0    0 -0.00000000000E+00 -0.00000000000E+00 -0.50000000000E+02  0.50000000000E+02  0.00000000000E+00 0.  1.
         23    2    1    2    0    0  0.00000000000E+00  0.00000000000E+00  0.00000000000E+00  0.10000000000E+03  0.10000000000E+03 0.  0.
          5    1    3    3  501    0 -0.12355343987E+02 -0.30945294894E+02 -0.36981673825E+02  0.50000000000E+02  0.47000000000E+01 0. -1.
         -5    1    3    3    0  501  0.12355343987E+02  0.30945294894E+02  0.36981673825E+02  0.50000000000E+02  0.47000000000E+01 0.  1.
</event>
<event>
 5    1  0.9023675E-001  0.1000000E+03  0.7546771E-02  0.1163815E+00
         11   -1    0    0    0    0  0.00000000000E+00  0.00000000000E+00  0.50000000000E+02  0.50000000000E+02  0.00000000000E+00 0. -1.
        -11   -1    0    0    0    0 -0.00000000000E+00 -0.00000000000E+00 -0.50000000000E+02  0.50000000000E+02  0.00000000000E+00 0.  1.
         23    2    1    2    0    0  0.00000000000E+00  0.00000000000E+00  0.00000000000E+00  0.10000000000E+03  0.10000000000E+03 0.  0.
          5    1    3    3  501    0  0.16808832122E+02 -0.16768068450E+02 -0.43751629034E+02  0.50000000000E+02  0.47000000000E+01 0.  1.
         -5    1    3    3    0  501 -0.16808832122E+02  0.16768068450E+02  0.43751629034E+02  0.50000000000E+02  0.47000000000E+01 0. -1.
</event>
<event>
 5    1  0.9023675E-001  0.1000000E+03  0.7546771E-02  0.1163815E+00
         11   -1    0    0    0    0  0.00000000000E+00  0.00000000000E+00  0.50000000000E+02  0.50000000000E+02  0.00000000000E+00 0.  1.
        -11   -1    0    0    0    0 -0.00000000000E+00 -0.00000000000E+00 -0.50000000000E+02  0.50000000000E+02  0.00000000000E+00 0. -1.
         23    2    1    2    0    0  0.00000000000E+00  0.00000000000E+00  0.00000000000E+00  0.10000000000E+03  0.10000000000E+03 0.  0.
          5    1    3    3  501    0 -0.24275437782E+02  0.18821534753E+02 -0.39170945228E+02  0.50000000000E+02  0.47000000000E+01 0. -1.
         -5    1    3    3    0  501  0.24275437782E+02 -0.18821534753E+02  0.39170945228E+02  0.50000000000E+02  0.47000000000E+01 0.  1.
</event>
<event>
 5    1  0.9023675E-001  0.1000000E+03  0.7546771E-02  0.1163815E+00
         11   -1    0    0    0    0  0.00000000000E+00  0.00000000000E+00  0.50000000000E+02  0.50000000000E+02  0.00000000000E+00 0.  1.
        -11   -1    0    0    0    0 -0.00000000000E+00 -0.00000000000E+00 -0.50000000000E+02  0.50000000000E+02  0.00000000000E+00 0. -1.
         23    2    1    2    0    0  0.00000000000E+00  0.00000000000E+00  0.00000000000E+00  0.10000000000E+03  0.10000000000E+03 0.  0.
          5    1    3    3  501    0 -0.40616619979E+02  0.41771359154E+01 -0.28473702200E+02  0.50000000000E+02  0.47000000000E+01 0. -1.
         -5    1    3    3    0  501  0.40616619979E+02 -0.41771359154E+01  0.28473702200E+02  0.50000000000E+02  0.47000000000E+01 0.  1.
</event>
<event>
 5    1  0.9023675E-001  0.1000000E+03  0.7546771E-02  0.1163815E+00
         11   -1    0    0    0    0  0.00000000000E+00  0.00000000000E+00  0.50000000000E+02  0.50000000000E+02  0.00000000000E+00 0.  1.
        -11   -1    0    0    0    0 -0.00000000000E+00 -0.00000000000E+00 -0.50000000000E+02  0.50000000000E+02  0.00000000000E+00 0. -1.
         23    2    1    2    0    0  0.00000000000E+00  0.00000000000E+00  0.00000000000E+00  0.10000000000E+03  0.10000000000E+03 0.  0.
          5    1    3    3  501    0 -0.51945302369E+00 -0.47869438604E+02 -0.13643936979E+02  0.50000000000E+02  0.47000000000E+01 0. -1.
         -5    1    3    3    0  501  0.51945302369E+00  0.47869438604E+02  0.13643936979E+02  0.50000000000E+02  0.47000000000E+01 0.  1.
</event>
<event>
 5    1  0.9023675E-001  0.1000000E+03  0.7546771E-02  0.1163815E+00
         11   -1    0    0    0    0  0.00000000000E+00  0.00000000000E+00  0.50000000000E+02  0.50000000000E+02  0.00000000000E+00 0. -1.
        -11   -1    0    0    0    0 -0.00000000000E+00 -0.00000000000E+00 -0.50000000000E+02  0.50000000000E+02  0.00000000000E+00 0.  1.
         23    2    1    2    0    0  0.00000000000E+00  0.00000000000E+00  0.00000000000E+00  0.10000000000E+03  0.10000000000E+03 0.  0.
          5    1    3    3  501    0  0.33780746135E+02 -0.54529828005E+01  0.36152955193E+02  0.50000000000E+02  0.47000000000E+01 0. -1.
         -5    1    3    3    0  501 -0.33780746135E+02  0.54529828005E+01 -0.36152955193E+02  0.50000000000E+02  0.47000000000E+01 0.  1.
</event>
<event>
 5    1  0.9023675E-001  0.1000000E+03  0.7546771E-02  0.1163815E+00
         11   -1    0    0    0    0  0.00000000000E+00  0.00000000000E+00  0.50000000000E+02  0.50000000000E+02  0.00000000000E+00 0.  1.
        -11   -1    0    0    0    0 -0.00000000000E+00 -0.00000000000E+00 -0.50000000000E+02  0.50000000000E+02  0.00000000000E+00 0. -1.
         23    2    1    2    0    0  0.00000000000E+00  0.00000000000E+00  0.00000000000E+00  0.10000000000E+03  0.10000000000E+03 0.  0.
          5    1    3    3  501    0 -0.98747599328E+01  0.32084845412E+02 -0.36755432404E+02  0.50000000000E+02  0.47000000000E+01 0. -1.
         -5    1    3    3    0  501  0.98747599328E+01 -0.32084845412E+02  0.36755432404E+02  0.50000000000E+02  0.47000000000E+01 0.  1.
</event>
<event>
 5    1  0.9023675E-001  0.1000000E+03  0.7546771E-02  0.1163815E+00
         11   -1    0    0    0    0  0.00000000000E+00  0.00000000000E+00  0.50000000000E+02  0.50000000000E+02  0.00000000000E+00 0. -1.
        -11   -1    0    0    0    0 -0.00000000000E+00 -0.00000000000E+00 -0.50000000000E+02  0.50000000000E+02  0.00000000000E+00 0.  1.
         23    2    1    2    0    0  0.00000000000E+00  0.00000000000E+00  0.00000000000E+00  0.10000000000E+03  0.10000000000E+03 0.  0.
          5    1    3    3  501    0 -0.12764516542E+02 -0.15405581328E+02  0.45581193286E+02  0.50000000000E+02  0.47000000000E+01 0. -1.
         -5    1    3    3    0  501  0.12764516542E+02  0.15405581328E+02 -0.45581193286E+02  0.50000000000E+02  0.47000000000E+01 0.  1.
</event>
<event>
 5    1  0.9023675E-001  0.1000000E+03  0.7546771E-02  0.1163815E+00
         11   -1    0    0    0    0  0.00000000000E+00  0.00000000000E+00  0.50000000000E+02  0.50000000000E+02  0.00000000000E+00 0. -1.
        -11   -1    0    0    0    0 -0.00000000000E+00 -0.00000000000E+00 -0.50000000000E+02  0.50000000000E+02  0.00000000000E+00 0.  1.
         23    2    1    2    0    0  0.00000000000E+00  0.00000000000E+00  0.00000000000E+00  0.10000000000E+03  0.10000000000E+03 0.  0.
          5    1    3    3  501    0  0.34047691149E+02 -0.24137999110E+02  0.27129720352E+02  0.50000000000E+02  0.47000000000E+01 0. -1.
         -5    1    3    3    0  501 -0.34047691149E+02  0.24137999110E+02 -0.27129720352E+02  0.50000000000E+02  0.47000000000E+01 0.  1.
</event>
<event>
 5    1  0.9023675E-001  0.1000000E+03  0.7546771E-02  0.1163815E+00
         11   -1    0    0    0    0  0.00000000000E+00  0.00000000000E+00  0.50000000000E+02  0.50000000000E+02  0.00000000000E+00 0. -1.
        -11   -1    0    0    0    0 -0.00000000000E+00 -0.00000000000E+00 -0.50000000000E+02  0.50000000000E+02  0.00000000000E+00 0.  1.
         23    2    1    2    0    0  0.00000000000E+00  0.00000000000E+00  0.00000000000E+00  0.10000000000E+03  0.10000000000E+03 0.  0.
          5    1    3    3  501    0 -0.26350680805E+02  0.21666486991E+02  0.36250723614E+02  0.50000000000E+02  0.47000000000E+01 0. -1.
         -5    1    3    3    0  501  0.26350680805E+02 -0.21666486991E+02 -0.36250723614E+02  0.50000000000E+02  0.47000000000E+01 0.  1.
</event>
<event>
 5    1  0.9023675E-001  0.1000000E+03  0.7546771E-02  0.1163815E+00
         11   -1    0    0    0    0  0.00000000000E+00  0.00000000000E+00  0.50000000000E+02  0.50000000000E+02  0.00000000000E+00 0. -1.
        -11   -1    0    0    0    0 -0.00000000000E+00 -0.00000000000E+00 -0.50000000000E+02  0.50000000000E+02  0.00000000000E+00 0.  1.
         23    2    1    2    0    0  0.00000000000E+00  0.00000000000E+00  0.00000000000E+00  0.10000000000E+03  0.10000000000E+03 0.  0.
          5    1    3    3  501    0  0.23760975603E+02  0.28230949745E+02  0.33411667347E+02  0.50000000000E+02  0.47000000000E+01 0. -1.
         -5    1    3    3    0  501 -0.23760975603E+02 -0.28230949745E+02 -0.33411667347E+02  0.50000000000E+02  0.47000000000E+01 0.  1.
</event>
<event>
 5    1  0.9023675E-001  0.1000000E+03  0.7546771E-02  0.1163815E+00
         11   -1    0    0    0    0  0.00000000000E+00  0.00000000000E+00  0.50000000000E+02  0.50000000000E+02  0.00000000000E+00 0. -1.
        -11   -1    0    0    0    0 -0.00000000000E+00 -0.00000000000E+00 -0.50000000000E+02  0.50000000000E+02  0.00000000000E+00 0.  1.
         23    2    1    2    0    0  0.00000000000E+00  0.00000000000E+00  0.00000000000E+00  0.10000000000E+03  0.10000000000E+03 0.  0.
          5    1    3    3  501    0 -0.55828026933E+01  0.41275129277E+02  0.27259970969E+02  0.50000000000E+02  0.47000000000E+01 0. -1.
         -5    1    3    3    0  501  0.55828026933E+01 -0.41275129277E+02 -0.27259970969E+02  0.50000000000E+02  0.47000000000E+01 0.  1.
</event>
<event>
 5    1  0.9023675E-001  0.1000000E+03  0.7546771E-02  0.1163815E+00
         11   -1    0    0    0    0  0.00000000000E+00  0.00000000000E+00  0.50000000000E+02  0.50000000000E+02  0.00000000000E+00 0. -1.
        -11   -1    0    0    0    0 -0.00000000000E+00 -0.00000000000E+00 -0.50000000000E+02  0.50000000000E+02  0.00000000000E+00 0.  1.
         23    2    1    2    0    0  0.00000000000E+00  0.00000000000E+00  0.00000000000E+00  0.10000000000E+03  0.10000000000E+03 0.  0.
          5    1    3    3  501    0  0.20863176864E+02 -0.33545123712E+02  0.30287993105E+02  0.50000000000E+02  0.47000000000E+01 0. -1.
         -5    1    3    3    0  501 -0.20863176864E+02  0.33545123712E+02 -0.30287993105E+02  0.50000000000E+02  0.47000000000E+01 0.  1.
</event>
<event>
 5    1  0.9023675E-001  0.1000000E+03  0.7546771E-02  0.1163815E+00
         11   -1    0    0    0    0  0.00000000000E+00  0.00000000000E+00  0.50000000000E+02  0.50000000000E+02  0.00000000000E+00 0. -1.
        -11   -1    0    0    0    0 -0.00000000000E+00 -0.00000000000E+00 -0.50000000000E+02  0.50000000000E+02  0.00000000000E+00 0.  1.
         23    2    1    2    0    0  0.00000000000E+00  0.00000000000E+00  0.00000000000E+00  0.10000000000E+03  0.10000000000E+03 0.  0.
          5    1    3    3  501    0 -0.45002967447E+01 -0.48597052537E+02  0.97971329442E+01  0.50000000000E+02  0.47000000000E+01 0. -1.
         -5    1    3    3    0  501  0.45002967447E+01  0.48597052537E+02 -0.97971329442E+01  0.50000000000E+02  0.47000000000E+01 0.  1.
</event>
<event>
 5    1  0.9023675E-001  0.1000000E+03  0.7546771E-02  0.1163815E+00
         11   -1    0    0    0    0  0.00000000000E+00  0.00000000000E+00  0.50000000000E+02  0.50000000000E+02  0.00000000000E+00 0. -1.
        -11   -1    0    0    0    0 -0.00000000000E+00 -0.00000000000E+00 -0.50000000000E+02  0.50000000000E+02  0.00000000000E+00 0.  1.
         23    2    1    2    0    0  0.00000000000E+00  0.00000000000E+00  0.00000000000E+00  0.10000000000E+03  0.10000000000E+03 0.  0.
          5    1    3    3  501    0  0.24021494398E+02 -0.39322383149E+02  0.18831568983E+02  0.50000000000E+02  0.47000000000E+01 0. -1.
         -5    1    3    3    0  501 -0.24021494398E+02  0.39322383149E+02 -0.18831568983E+02  0.50000000000E+02  0.47000000000E+01 0.  1.
</event>
<event>
 5    1  0.9023675E-001  0.1000000E+03  0.7546771E-02  0.1163815E+00
         11   -1    0    0    0    0  0.00000000000E+00  0.00000000000E+00  0.50000000000E+02  0.50000000000E+02  0.00000000000E+00 0. -1.
        -11   -1    0    0    0    0 -0.00000000000E+00 -0.00000000000E+00 -0.50000000000E+02  0.50000000000E+02  0.00000000000E+00 0.  1.
         23    2    1    2    0    0  0.00000000000E+00  0.00000000000E+00  0.00000000000E+00  0.10000000000E+03  0.10000000000E+03 0.  0.
          5    1    3    3  501    0  0.45677059589E+02 -0.19124108347E+02 -0.50778644380E+01  0.50000000000E+02  0.47000000000E+01 0. -1.
         -5    1    3    3    0  501 -0.45677059589E+02  0.19124108347E+02  0.50778644380E+01  0.50000000000E+02  0.47000000000E+01 0.  1.
</event>
<event>
 5    1  0.9023675E-001  0.1000000E+03  0.7546771E-02  0.1163815E+00
         11   -1    0    0    0    0  0.00000000000E+00  0.00000000000E+00  0.50000000000E+02  0.50000000000E+02  0.00000000000E+00 0. -1.
        -11   -1    0    0    0    0 -0.00000000000E+00 -0.00000000000E+00 -0.50000000000E+02  0.50000000000E+02  0.00000000000E+00 0.  1.
         23    2    1    2    0    0  0.00000000000E+00  0.00000000000E+00  0.00000000000E+00  0.10000000000E+03  0.10000000000E+03 0.  0.
          5    1    3    3  501    0  0.45515952291E+02  0.19499260176E+02  0.50977386834E+01  0.50000000000E+02  0.47000000000E+01 0. -1.
         -5    1    3    3    0  501 -0.45515952291E+02 -0.19499260176E+02 -0.50977386834E+01  0.50000000000E+02  0.47000000000E+01 0.  1.
</event>
<event>
 5    1  0.9023675E-001  0.1000000E+03  0.7546771E-02  0.1163815E+00
         11   -1    0    0    0    0  0.00000000000E+00  0.00000000000E+00  0.50000000000E+02  0.50000000000E+02  0.00000000000E+00 0. -1.
        -11   -1    0    0    0    0 -0.00000000000E+00 -0.00000000000E+00 -0.50000000000E+02  0.50000000000E+02  0.00000000000E+00 0.  1.
         23    2    1    2    0    0  0.00000000000E+00  0.00000000000E+00  0.00000000000E+00  0.10000000000E+03  0.10000000000E+03 0.  0.
          5    1    3    3  501    0 -0.63983879391E+01  0.32860336094E+02  0.36839773934E+02  0.50000000000E+02  0.47000000000E+01 0. -1.
         -5    1    3    3    0  501  0.63983879391E+01 -0.32860336094E+02 -0.36839773934E+02  0.50000000000E+02  0.47000000000E+01 0.  1.
</event>
<event>
 5    1  0.9023675E-001  0.1000000E+03  0.7546771E-02  0.1163815E+00
         11   -1    0    0    0    0  0.00000000000E+00  0.00000000000E+00  0.50000000000E+02  0.50000000000E+02  0.00000000000E+00 0.  1.
        -11   -1    0    0    0    0 -0.00000000000E+00 -0.00000000000E+00 -0.50000000000E+02  0.50000000000E+02  0.00000000000E+00 0. -1.
         23    2    1    2    0    0  0.00000000000E+00  0.00000000000E+00  0.00000000000E+00  0.10000000000E+03  0.10000000000E+03 0.  0.
          5    1    3    3  501    0 -0.42006333980E+02  0.78971018921E+01 -0.25514969866E+02  0.50000000000E+02  0.47000000000E+01 0. -1.
         -5    1    3    3    0  501  0.42006333980E+02 -0.78971018921E+01  0.25514969866E+02  0.50000000000E+02  0.47000000000E+01 0.  1.
</event>
<event>
 5    1  0.9023675E-001  0.1000000E+03  0.7546771E-02  0.1163815E+00
         11   -1    0    0    0    0  0.00000000000E+00  0.00000000000E+00  0.50000000000E+02  0.50000000000E+02  0.00000000000E+00 0. -1.
        -11   -1    0    0    0    0 -0.00000000000E+00 -0.00000000000E+00 -0.50000000000E+02  0.50000000000E+02  0.00000000000E+00 0.  1.
         23    2    1    2    0    0  0.00000000000E+00  0.00000000000E+00  0.00000000000E+00  0.10000000000E+03  0.10000000000E+03 0.  0.
          5    1    3    3  501    0  0.29480830301E+01  0.53932837435E+01  0.49397685137E+02  0.50000000000E+02  0.47000000000E+01 0. -1.
         -5    1    3    3    0  501 -0.29480830301E+01 -0.53932837435E+01 -0.49397685137E+02  0.50000000000E+02  0.47000000000E+01 0.  1.
</event>
<event>
 5    1  0.9023675E-001  0.1000000E+03  0.7546771E-02  0.1163815E+00
         11   -1    0    0    0    0  0.00000000000E+00  0.00000000000E+00  0.50000000000E+02  0.50000000000E+02  0.00000000000E+00 0.  1.
        -11   -1    0    0    0    0 -0.00000000000E+00 -0.00000000000E+00 -0.50000000000E+02  0.50000000000E+02  0.00000000000E+00 0. -1.
         23    2    1    2    0    0  0.00000000000E+00  0.00000000000E+00  0.00000000000E+00  0.10000000000E+03  0.10000000000E+03 0.  0.
          5    1    3    3  501    0 -0.18625748629E+02  0.12718271638E+02 -0.44376086517E+02  0.50000000000E+02  0.47000000000E+01 0. -1.
         -5    1    3    3    0  501  0.18625748629E+02 -0.12718271638E+02  0.44376086517E+02  0.50000000000E+02  0.47000000000E+01 0.  1.
</event>
<event>
 5    1  0.9023675E-001  0.1000000E+03  0.7546771E-02  0.1163815E+00
         11   -1    0    0    0    0  0.00000000000E+00  0.00000000000E+00  0.50000000000E+02  0.50000000000E+02  0.00000000000E+00 0. -1.
        -11   -1    0    0    0    0 -0.00000000000E+00 -0.00000000000E+00 -0.50000000000E+02  0.50000000000E+02  0.00000000000E+00 0.  1.
         23    2    1    2    0    0  0.00000000000E+00  0.00000000000E+00  0.00000000000E+00  0.10000000000E+03  0.10000000000E+03 0.  0.
          5    1    3    3  501    0 -0.55364246097E+01  0.20570473255E+02  0.44990150396E+02  0.50000000000E+02  0.47000000000E+01 0. -1.
         -5    1    3    3    0  501  0.55364246097E+01 -0.20570473255E+02 -0.44990150396E+02  0.50000000000E+02  0.47000000000E+01 0.  1.
</event>
<event>
 5    1  0.9023675E-001  0.1000000E+03  0.7546771E-02  0.1163815E+00
         11   -1    0    0    0    0  0.00000000000E+00  0.00000000000E+00  0.50000000000E+02  0.50000000000E+02  0.00000000000E+00 0. -1.
        -11   -1    0    0    0    0 -0.00000000000E+00 -0.00000000000E+00 -0.50000000000E+02  0.50000000000E+02  0.00000000000E+00 0.  1.
         23    2    1    2    0    0  0.00000000000E+00  0.00000000000E+00  0.00000000000E+00  0.10000000000E+03  0.10000000000E+03 0.  0.
          5    1    3    3  501    0 -0.23930524975E+02  0.66409209631E+01  0.43140910319E+02  0.50000000000E+02  0.47000000000E+01 0. -1.
         -5    1    3    3    0  501  0.23930524975E+02 -0.66409209631E+01 -0.43140910319E+02  0.50000000000E+02  0.47000000000E+01 0.  1.
</event>
<event>
 5    1  0.9023675E-001  0.1000000E+03  0.7546771E-02  0.1163815E+00
         11   -1    0    0    0    0  0.00000000000E+00  0.00000000000E+00  0.50000000000E+02  0.50000000000E+02  0.00000000000E+00 0. -1.
        -11   -1    0    0    0    0 -0.00000000000E+00 -0.00000000000E+00 -0.50000000000E+02  0.50000000000E+02  0.00000000000E+00 0.  1.
         23    2    1    2    0    0  0.00000000000E+00  0.00000000000E+00  0.00000000000E+00  0.10000000000E+03  0.10000000000E+03 0.  0.
          5    1    3    3  501    0  0.33976666184E+02 -0.14565136316E+01  0.36350718330E+02  0.50000000000E+02  0.47000000000E+01 0. -1.
         -5    1    3    3    0  501 -0.33976666184E+02  0.14565136316E+01 -0.36350718330E+02  0.50000000000E+02  0.47000000000E+01 0.  1.
</event>
<event>
 5    1  0.9023675E-001  0.1000000E+03  0.7546771E-02  0.1163815E+00
         11   -1    0    0    0    0  0.00000000000E+00  0.00000000000E+00  0.50000000000E+02  0.50000000000E+02  0.00000000000E+00 0.  1.
        -11   -1    0    0    0    0 -0.00000000000E+00 -0.00000000000E+00 -0.50000000000E+02  0.50000000000E+02  0.00000000000E+00 0. -1.
         23    2    1    2    0    0  0.00000000000E+00  0.00000000000E+00  0.00000000000E+00  0.10000000000E+03  0.10000000000E+03 0.  0.
          5    1    3    3  501    0 -0.36690990866E+02 -0.27117743182E+02  0.19907516016E+02  0.50000000000E+02  0.47000000000E+01 0. -1.
         -5    1    3    3    0  501  0.36690990866E+02  0.27117743182E+02 -0.19907516016E+02  0.50000000000E+02  0.47000000000E+01 0.  1.
</event>
<event>
 5    1  0.9023675E-001  0.1000000E+03  0.7546771E-02  0.1163815E+00
         11   -1    0    0    0    0  0.00000000000E+00  0.00000000000E+00  0.50000000000E+02  0.50000000000E+02  0.00000000000E+00 0.  1.
        -11   -1    0    0    0    0 -0.00000000000E+00 -0.00000000000E+00 -0.50000000000E+02  0.50000000000E+02  0.00000000000E+00 0. -1.
         23    2    1    2    0    0  0.00000000000E+00  0.00000000000E+00  0.00000000000E+00  0.10000000000E+03  0.10000000000E+03 0.  0.
          5    1    3    3  501    0  0.35312452809E+02 -0.29333360685E+02 -0.19248236998E+02  0.50000000000E+02  0.47000000000E+01 0. -1.
         -5    1    3    3    0  501 -0.35312452809E+02  0.29333360685E+02  0.19248236998E+02  0.50000000000E+02  0.47000000000E+01 0.  1.
</event>
<event>
 5    1  0.9023675E-001  0.1000000E+03  0.7546771E-02  0.1163815E+00
         11   -1    0    0    0    0  0.00000000000E+00  0.00000000000E+00  0.50000000000E+02  0.50000000000E+02  0.00000000000E+00 0. -1.
        -11   -1    0    0    0    0 -0.00000000000E+00 -0.00000000000E+00 -0.50000000000E+02  0.50000000000E+02  0.00000000000E+00 0.  1.
         23    2    1    2    0    0  0.00000000000E+00  0.00000000000E+00  0.00000000000E+00  0.10000000000E+03  0.10000000000E+03 0.  0.
          5    1    3    3  501    0  0.27241585196E+02 -0.36555490441E+02  0.19987549990E+02  0.50000000000E+02  0.47000000000E+01 0. -1.
         -5    1    3    3    0  501 -0.27241585196E+02  0.36555490441E+02 -0.19987549990E+02  0.50000000000E+02  0.47000000000E+01 0.  1.
</event>
<event>
 5    1  0.9023675E-001  0.1000000E+03  0.7546771E-02  0.1163815E+00
         11   -1    0    0    0    0  0.00000000000E+00  0.00000000000E+00  0.50000000000E+02  0.50000000000E+02  0.00000000000E+00 0.  1.
        -11   -1    0    0    0    0 -0.00000000000E+00 -0.00000000000E+00 -0.50000000000E+02  0.50000000000E+02  0.00000000000E+00 0. -1.
         23    2    1    2    0    0  0.00000000000E+00  0.00000000000E+00  0.00000000000E+00  0.10000000000E+03  0.10000000000E+03 0.  0.
          5    1    3    3  501    0  0.55891175813E+01 -0.29457914012E+02 -0.39735413257E+02  0.50000000000E+02  0.47000000000E+01 0. -1.
         -5    1    3    3    0  501 -0.55891175813E+01  0.29457914012E+02  0.39735413257E+02  0.50000000000E+02  0.47000000000E+01 0.  1.
</event>
<event>
 5    1  0.9023675E-001  0.1000000E+03  0.7546771E-02  0.1163815E+00
         11   -1    0    0    0    0  0.00000000000E+00  0.00000000000E+00  0.50000000000E+02  0.50000000000E+02  0.00000000000E+00 0.  1.
        -11   -1    0    0    0    0 -0.00000000000E+00 -0.00000000000E+00 -0.50000000000E+02  0.50000000000E+02  0.00000000000E+00 0. -1.
         23    2    1    2    0    0  0.00000000000E+00  0.00000000000E+00  0.00000000000E+00  0.10000000000E+03  0.10000000000E+03 0.  0.
          5    1    3    3  501    0 -0.91899264360E+01  0.62778907205E+01 -0.48518484521E+02  0.50000000000E+02  0.47000000000E+01 0. -1.
         -5    1    3    3    0  501  0.91899264360E+01 -0.62778907205E+01  0.48518484521E+02  0.50000000000E+02  0.47000000000E+01 0.  1.
</event>
<event>
 5    1  0.9023675E-001  0.1000000E+03  0.7546771E-02  0.1163815E+00
         11   -1    0    0    0    0  0.00000000000E+00  0.00000000000E+00  0.50000000000E+02  0.50000000000E+02  0.00000000000E+00 0. -1.
        -11   -1    0    0    0    0 -0.00000000000E+00 -0.00000000000E+00 -0.50000000000E+02  0.50000000000E+02  0.00000000000E+00 0.  1.
         23    2    1    2    0    0  0.00000000000E+00  0.00000000000E+00  0.00000000000E+00  0.10000000000E+03  0.10000000000E+03 0.  0.
          5    1    3    3  501    0 -0.35227807384E+01  0.38191894042E+02  0.31731360597E+02  0.50000000000E+02  0.47000000000E+01 0. -1.
         -5    1    3    3    0  501  0.35227807384E+01 -0.38191894042E+02 -0.31731360597E+02  0.50000000000E+02  0.47000000000E+01 0.  1.
</event>
<event>
 5    1  0.9023675E-001  0.1000000E+03  0.7546771E-02  0.1163815E+00
         11   -1    0    0    0    0  0.00000000000E+00  0.00000000000E+00  0.50000000000E+02  0.50000000000E+02  0.00000000000E+00 0. -1.
        -11   -1    0    0    0    0 -0.00000000000E+00 -0.00000000000E+00 -0.50000000000E+02  0.50000000000E+02  0.00000000000E+00 0.  1.
         23    2    1    2    0    0  0.00000000000E+00  0.00000000000E+00  0.00000000000E+00  0.10000000000E+03  0.10000000000E+03 0.  0.
          5    1    3    3  501    0  0.81216721842E+01 -0.66905222298E+00  0.49107034222E+02  0.50000000000E+02  0.47000000000E+01 0. -1.
         -5    1    3    3    0  501 -0.81216721842E+01  0.66905222298E+00 -0.49107034222E+02  0.50000000000E+02  0.47000000000E+01 0.  1.
</event>
<event>
 5    1  0.9023675E-001  0.1000000E+03  0.7546771E-02  0.1163815E+00
         11   -1    0    0    0    0  0.00000000000E+00  0.00000000000E+00  0.50000000000E+02  0.50000000000E+02  0.00000000000E+00 0.  1.
        -11   -1    0    0    0    0 -0.00000000000E+00 -0.00000000000E+00 -0.50000000000E+02  0.50000000000E+02  0.00000000000E+00 0. -1.
         23    2    1    2    0    0  0.00000000000E+00  0.00000000000E+00  0.00000000000E+00  0.10000000000E+03  0.10000000000E+03 0.  0.
          5    1    3    3  501    0  0.46182585397E+02 -0.66496830316E+01 -0.17345331407E+02  0.50000000000E+02  0.47000000000E+01 0. -1.
         -5    1    3    3    0  501 -0.46182585397E+02  0.66496830316E+01  0.17345331407E+02  0.50000000000E+02  0.47000000000E+01 0.  1.
</event>
<event>
 5    1  0.9023675E-001  0.1000000E+03  0.7546771E-02  0.1163815E+00
         11   -1    0    0    0    0  0.00000000000E+00  0.00000000000E+00  0.50000000000E+02  0.50000000000E+02  0.00000000000E+00 0. -1.
        -11   -1    0    0    0    0 -0.00000000000E+00 -0.00000000000E+00 -0.50000000000E+02  0.50000000000E+02  0.00000000000E+00 0.  1.
         23    2    1    2    0    0  0.00000000000E+00  0.00000000000E+00  0.00000000000E+00  0.10000000000E+03  0.10000000000E+03 0.  0.
          5    1    3    3  501    0  0.24222911425E+02  0.43420428193E+02 -0.24139133422E+01  0.50000000000E+02  0.47000000000E+01 0. -1.
         -5    1    3    3    0  501 -0.24222911425E+02 -0.43420428193E+02  0.24139133422E+01  0.50000000000E+02  0.47000000000E+01 0.  1.
</event>
<event>
 5    1  0.9023675E-001  0.1000000E+03  0.7546771E-02  0.1163815E+00
         11   -1    0    0    0    0  0.00000000000E+00  0.00000000000E+00  0.50000000000E+02  0.50000000000E+02  0.00000000000E+00 0. -1.
        -11   -1    0    0    0    0 -0.00000000000E+00 -0.00000000000E+00 -0.50000000000E+02  0.50000000000E+02  0.00000000000E+00 0.  1.
         23    2    1    2    0    0  0.00000000000E+00  0.00000000000E+00  0.00000000000E+00  0.10000000000E+03  0.10000000000E+03 0.  0.
          5    1    3    3  501    0  0.47381024676E+01 -0.82998539402E+01  0.48852561955E+02  0.50000000000E+02  0.47000000000E+01 0. -1.
         -5    1    3    3    0  501 -0.47381024676E+01  0.82998539402E+01 -0.48852561955E+02  0.50000000000E+02  0.47000000000E+01 0.  1.
</event>
<event>
 5    1  0.9023675E-001  0.1000000E+03  0.7546771E-02  0.1163815E+00
         11   -1    0    0    0    0  0.00000000000E+00  0.00000000000E+00  0.50000000000E+02  0.50000000000E+02  0.00000000000E+00 0. -1.
        -11   -1    0    0    0    0 -0.00000000000E+00 -0.00000000000E+00 -0.50000000000E+02  0.50000000000E+02  0.00000000000E+00 0.  1.
         23    2    1    2    0    0  0.00000000000E+00  0.00000000000E+00  0.00000000000E+00  0.10000000000E+03  0.10000000000E+03 0.  0.
          5    1    3    3  501    0  0.31201186235E+02  0.30653463024E+02  0.23764704545E+02  0.50000000000E+02  0.47000000000E+01 0. -1.
         -5    1    3    3    0  501 -0.31201186235E+02 -0.30653463024E+02 -0.23764704545E+02  0.50000000000E+02  0.47000000000E+01 0.  1.
</event>
<event>
 5    1  0.9023675E-001  0.1000000E+03  0.7546771E-02  0.1163815E+00
         11   -1    0    0    0    0  0.00000000000E+00  0.00000000000E+00  0.50000000000E+02  0.50000000000E+02  0.00000000000E+00 0. -1.
        -11   -1    0    0    0    0 -0.00000000000E+00 -0.00000000000E+00 -0.50000000000E+02  0.50000000000E+02  0.00000000000E+00 0.  1.
         23    2    1    2    0    0  0.00000000000E+00  0.00000000000E+00  0.00000000000E+00  0.10000000000E+03  0.10000000000E+03 0.  0.
          5    1    3    3  501    0 -0.16388406547E+02 -0.30723082311E+02  0.35572775323E+02  0.50000000000E+02  0.47000000000E+01 0. -1.
         -5    1    3    3    0  501  0.16388406547E+02  0.30723082311E+02 -0.35572775323E+02  0.50000000000E+02  0.47000000000E+01 0.  1.
</event>
<event>
 5    1  0.9023675E-001  0.1000000E+03  0.7546771E-02  0.1163815E+00
         11   -1    0    0    0    0  0.00000000000E+00  0.00000000000E+00  0.50000000000E+02  0.50000000000E+02  0.00000000000E+00 0. -1.
        -11   -1    0    0    0    0 -0.00000000000E+00 -0.00000000000E+00 -0.50000000000E+02  0.50000000000E+02  0.00000000000E+00 0.  1.
         23    2    1    2    0    0  0.00000000000E+00  0.00000000000E+00  0.00000000000E+00  0.10000000000E+03  0.10000000000E+03 0.  0.
          5    1    3    3  501    0 -0.49169097153E+02 -0.76246722318E+01 -0.14745367201E+01  0.50000000000E+02  0.47000000000E+01 0. -1.
         -5    1    3    3    0  501  0.49169097153E+02  0.76246722318E+01  0.14745367201E+01  0.50000000000E+02  0.47000000000E+01 0.  1.
</event>
<event>
 5    1  0.9023675E-001  0.1000000E+03  0.7546771E-02  0.1163815E+00
         11   -1    0    0    0    0  0.00000000000E+00  0.00000000000E+00  0.50000000000E+02  0.50000000000E+02  0.00000000000E+00 0. -1.
        -11   -1    0    0    0    0 -0.00000000000E+00 -0.00000000000E+00 -0.50000000000E+02  0.50000000000E+02  0.00000000000E+00 0.  1.
         23    2    1    2    0    0  0.00000000000E+00  0.00000000000E+00  0.00000000000E+00  0.10000000000E+03  0.10000000000E+03 0.  0.
          5    1    3    3  501    0 -0.86718876795E+01  0.47741712400E+02  0.11110232273E+02  0.50000000000E+02  0.47000000000E+01 0. -1.
         -5    1    3    3    0  501  0.86718876795E+01 -0.47741712400E+02 -0.11110232273E+02  0.50000000000E+02  0.47000000000E+01 0.  1.
</event>
<event>
 5    1  0.9023675E-001  0.1000000E+03  0.7546771E-02  0.1163815E+00
         11   -1    0    0    0    0  0.00000000000E+00  0.00000000000E+00  0.50000000000E+02  0.50000000000E+02  0.00000000000E+00 0. -1.
        -11   -1    0    0    0    0 -0.00000000000E+00 -0.00000000000E+00 -0.50000000000E+02  0.50000000000E+02  0.00000000000E+00 0.  1.
         23    2    1    2    0    0  0.00000000000E+00  0.00000000000E+00  0.00000000000E+00  0.10000000000E+03  0.10000000000E+03 0.  0.
          5    1    3    3  501    0 -0.23934298807E+02  0.11682693881E+02  0.42054417180E+02  0.50000000000E+02  0.47000000000E+01 0. -1.
         -5    1    3    3    0  501  0.23934298807E+02 -0.11682693881E+02 -0.42054417180E+02  0.50000000000E+02  0.47000000000E+01 0.  1.
</event>
<event>
 5    1  0.9023675E-001  0.1000000E+03  0.7546771E-02  0.1163815E+00
         11   -1    0    0    0    0  0.00000000000E+00  0.00000000000E+00  0.50000000000E+02  0.50000000000E+02  0.00000000000E+00 0. -1.
        -11   -1    0    0    0    0 -0.00000000000E+00 -0.00000000000E+00 -0.50000000000E+02  0.50000000000E+02  0.00000000000E+00 0.  1.
         23    2    1    2    0    0  0.00000000000E+00  0.00000000000E+00  0.00000000000E+00  0.10000000000E+03  0.10000000000E+03 0.  0.
          5    1    3    3  501    0 -0.18513169375E+02 -0.38212192922E+02  0.25980778891E+02  0.50000000000E+02  0.47000000000E+01 0. -1.
         -5    1    3    3    0  501  0.18513169375E+02  0.38212192922E+02 -0.25980778891E+02  0.50000000000E+02  0.47000000000E+01 0.  1.
</event>
<event>
 5    1  0.9023675E-001  0.1000000E+03  0.7546771E-02  0.1163815E+00
         11   -1    0    0    0    0  0.00000000000E+00  0.00000000000E+00  0.50000000000E+02  0.50000000000E+02  0.00000000000E+00 0.  1.
        -11   -1    0    0    0    0 -0.00000000000E+00 -0.00000000000E+00 -0.50000000000E+02  0.50000000000E+02  0.00000000000E+00 0. -1.
         23    2    1    2    0    0  0.00000000000E+00  0.00000000000E+00  0.00000000000E+00  0.10000000000E+03  0.10000000000E+03 0.  0.
          5    1    3    3  501    0 -0.11478477965E+02  0.33409627960E+02 -0.35070661573E+02  0.50000000000E+02  0.47000000000E+01 0. -1.
         -5    1    3    3    0  501  0.11478477965E+02 -0.33409627960E+02  0.35070661573E+02  0.50000000000E+02  0.47000000000E+01 0.  1.
</event>
<event>
 5    1  0.9023675E-001  0.1000000E+03  0.7546771E-02  0.1163815E+00
         11   -1    0    0    0    0  0.00000000000E+00  0.00000000000E+00  0.50000000000E+02  0.50000000000E+02  0.00000000000E+00 0. -1.
        -11   -1    0    0    0    0 -0.00000000000E+00 -0.00000000000E+00 -0.50000000000E+02  0.50000000000E+02  0.00000000000E+00 0.  1.
         23    2    1    2    0    0  0.00000000000E+00  0.00000000000E+00  0.00000000000E+00  0.10000000000E+03  0.10000000000E+03 0.  0.
          5    1    3    3  501    0  0.17604545780E+02 -0.40333569695E+02  0.23263557843E+02  0.50000000000E+02  0.47000000000E+01 0. -1.
         -5    1    3    3    0  501 -0.17604545780E+02  0.40333569695E+02 -0.23263557843E+02  0.50000000000E+02  0.47000000000E+01 0.  1.
</event>
<event>
 5    1  0.9023675E-001  0.1000000E+03  0.7546771E-02  0.1163815E+00
         11   -1    0    0    0    0  0.00000000000E+00  0.00000000000E+00  0.50000000000E+02  0.50000000000E+02  0.00000000000E+00 0. -1.
        -11   -1    0    0    0    0 -0.00000000000E+00 -0.00000000000E+00 -0.50000000000E+02  0.50000000000E+02  0.00000000000E+00 0.  1.
         23    2    1    2    0    0  0.00000000000E+00  0.00000000000E+00  0.00000000000E+00  0.10000000000E+03  0.10000000000E+03 0.  0.
          5    1    3    3  501    0  0.32038272719E+02  0.19675823744E+02  0.32623933564E+02  0.50000000000E+02  0.47000000000E+01 0. -1.
         -5    1    3    3    0  501 -0.32038272719E+02 -0.19675823744E+02 -0.32623933564E+02  0.50000000000E+02  0.47000000000E+01 0.  1.
</event>
<event>
 5    1  0.9023675E-001  0.1000000E+03  0.7546771E-02  0.1163815E+00
         11   -1    0    0    0    0  0.00000000000E+00  0.00000000000E+00  0.50000000000E+02  0.50000000000E+02  0.00000000000E+00 0. -1.
        -11   -1    0    0    0    0 -0.00000000000E+00 -0.00000000000E+00 -0.50000000000E+02  0.50000000000E+02  0.00000000000E+00 0.  1.
         23    2    1    2    0    0  0.00000000000E+00  0.00000000000E+00  0.00000000000E+00  0.10000000000E+03  0.10000000000E+03 0.  0.
          5    1    3    3  501    0  0.27903912967E+02 -0.48786411723E+01  0.40932633698E+02  0.50000000000E+02  0.47000000000E+01 0. -1.
         -5    1    3    3    0  501 -0.27903912967E+02  0.48786411723E+01 -0.40932633698E+02  0.50000000000E+02  0.47000000000E+01 0.  1.
</event>
<event>
 5    1  0.9023675E-001  0.1000000E+03  0.7546771E-02  0.1163815E+00
         11   -1    0    0    0    0  0.00000000000E+00  0.00000000000E+00  0.50000000000E+02  0.50000000000E+02  0.00000000000E+00 0.  1.
        -11   -1    0    0    0    0 -0.00000000000E+00 -0.00000000000E+00 -0.50000000000E+02  0.50000000000E+02  0.00000000000E+00 0. -1.
         23    2    1    2    0    0  0.00000000000E+00  0.00000000000E+00  0.00000000000E+00  0.10000000000E+03  0.10000000000E+03 0.  0.
          5    1    3    3  501    0  0.48494559394E+02  0.10510445400E+02 -0.39646244070E+01  0.50000000000E+02  0.47000000000E+01 0. -1.
         -5    1    3    3    0  501 -0.48494559394E+02 -0.10510445400E+02  0.39646244070E+01  0.50000000000E+02  0.47000000000E+01 0.  1.
</event>
<event>
 5    1  0.9023675E-001  0.1000000E+03  0.7546771E-02  0.1163815E+00
         11   -1    0    0    0    0  0.00000000000E+00  0.00000000000E+00  0.50000000000E+02  0.50000000000E+02  0.00000000000E+00 0.  1.
        -11   -1    0    0    0    0 -0.00000000000E+00 -0.00000000000E+00 -0.50000000000E+02  0.50000000000E+02  0.00000000000E+00 0. -1.
         23    2    1    2    0    0  0.00000000000E+00  0.00000000000E+00  0.00000000000E+00  0.10000000000E+03  0.10000000000E+03 0.  0.
          5    1    3    3  501    0 -0.20552898155E+02 -0.39232323186E+02 -0.22722526155E+02  0.50000000000E+02  0.47000000000E+01 0. -1.
         -5    1    3    3    0  501  0.20552898155E+02  0.39232323186E+02  0.22722526155E+02  0.50000000000E+02  0.47000000000E+01 0.  1.
</event>
<event>
 5    1  0.9023675E-001  0.1000000E+03  0.7546771E-02  0.1163815E+00
         11   -1    0    0    0    0  0.00000000000E+00  0.00000000000E+00  0.50000000000E+02  0.50000000000E+02  0.00000000000E+00 0. -1.
        -11   -1    0    0    0    0 -0.00000000000E+00 -0.00000000000E+00 -0.50000000000E+02  0.50000000000E+02  0.00000000000E+00 0.  1.
         23    2    1    2    0    0  0.00000000000E+00  0.00000000000E+00  0.00000000000E+00  0.10000000000E+03  0.10000000000E+03 0.  0.
          5    1    3    3  501    0 -0.16101171922E+02 -0.38739627336E+02  0.26793721963E+02  0.50000000000E+02  0.47000000000E+01 0. -1.
         -5    1    3    3    0  501  0.16101171922E+02  0.38739627336E+02 -0.26793721963E+02  0.50000000000E+02  0.47000000000E+01 0.  1.
</event>
<event>
 5    1  0.9023675E-001  0.1000000E+03  0.7546771E-02  0.1163815E+00
         11   -1    0    0    0    0  0.00000000000E+00  0.00000000000E+00  0.50000000000E+02  0.50000000000E+02  0.00000000000E+00 0. -1.
        -11   -1    0    0    0    0 -0.00000000000E+00 -0.00000000000E+00 -0.50000000000E+02  0.50000000000E+02  0.00000000000E+00 0.  1.
         23    2    1    2    0    0  0.00000000000E+00  0.00000000000E+00  0.00000000000E+00  0.10000000000E+03  0.10000000000E+03 0.  0.
          5    1    3    3  501    0  0.12204735957E+02 -0.45418083421E+01  0.48045045501E+02  0.50000000000E+02  0.47000000000E+01 0. -1.
         -5    1    3    3    0  501 -0.12204735957E+02  0.45418083421E+01 -0.48045045501E+02  0.50000000000E+02  0.47000000000E+01 0.  1.
</event>
<event>
 5    1  0.9023675E-001  0.1000000E+03  0.7546771E-02  0.1163815E+00
         11   -1    0    0    0    0  0.00000000000E+00  0.00000000000E+00  0.50000000000E+02  0.50000000000E+02  0.00000000000E+00 0. -1.
        -11   -1    0    0    0    0 -0.00000000000E+00 -0.00000000000E+00 -0.50000000000E+02  0.50000000000E+02  0.00000000000E+00 0.  1.
         23    2    1    2    0    0  0.00000000000E+00  0.00000000000E+00  0.00000000000E+00  0.10000000000E+03  0.10000000000E+03 0.  0.
          5    1    3    3  501    0  0.33327549251E+02  0.29647874055E+02  0.22094977369E+02  0.50000000000E+02  0.47000000000E+01 0. -1.
         -5    1    3    3    0  501 -0.33327549251E+02 -0.29647874055E+02 -0.22094977369E+02  0.50000000000E+02  0.47000000000E+01 0.  1.
</event>
<event>
 5    1  0.9023675E-001  0.1000000E+03  0.7546771E-02  0.1163815E+00
         11   -1    0    0    0    0  0.00000000000E+00  0.00000000000E+00  0.50000000000E+02  0.50000000000E+02  0.00000000000E+00 0. -1.
        -11   -1    0    0    0    0 -0.00000000000E+00 -0.00000000000E+00 -0.50000000000E+02  0.50000000000E+02  0.00000000000E+00 0.  1.
         23    2    1    2    0    0  0.00000000000E+00  0.00000000000E+00  0.00000000000E+00  0.10000000000E+03  0.10000000000E+03 0.  0.
          5    1    3    3  501    0 -0.43058428529E+02  0.14618309292E+02  0.20253068066E+02  0.50000000000E+02  0.47000000000E+01 0. -1.
         -5    1    3    3    0  501  0.43058428529E+02 -0.14618309292E+02 -0.20253068066E+02  0.50000000000E+02  0.47000000000E+01 0.  1.
</event>
<event>
 5    1  0.9023675E-001  0.1000000E+03  0.7546771E-02  0.1163815E+00
         11   -1    0    0    0    0  0.00000000000E+00  0.00000000000E+00  0.50000000000E+02  0.50000000000E+02  0.00000000000E+00 0.  1.
        -11   -1    0    0    0    0 -0.00000000000E+00 -0.00000000000E+00 -0.50000000000E+02  0.50000000000E+02  0.00000000000E+00 0. -1.
         23    2    1    2    0    0  0.00000000000E+00  0.00000000000E+00  0.00000000000E+00  0.10000000000E+03  0.10000000000E+03 0.  0.
          5    1    3    3  501    0  0.42565560024E+02  0.11024420373E+01 -0.25785029017E+02  0.50000000000E+02  0.47000000000E+01 0. -1.
         -5    1    3    3    0  501 -0.42565560024E+02 -0.11024420373E+01  0.25785029017E+02  0.50000000000E+02  0.47000000000E+01 0.  1.
</event>
<event>
 5    1  0.9023675E-001  0.1000000E+03  0.7546771E-02  0.1163815E+00
         11   -1    0    0    0    0  0.00000000000E+00  0.00000000000E+00  0.50000000000E+02  0.50000000000E+02  0.00000000000E+00 0.  1.
        -11   -1    0    0    0    0 -0.00000000000E+00 -0.00000000000E+00 -0.50000000000E+02  0.50000000000E+02  0.00000000000E+00 0. -1.
         23    2    1    2    0    0  0.00000000000E+00  0.00000000000E+00  0.00000000000E+00  0.10000000000E+03  0.10000000000E+03 0.  0.
          5    1    3    3  501    0  0.33256279830E+02  0.15638657339E+02 -0.33576215518E+02  0.50000000000E+02  0.47000000000E+01 0.  1.
         -5    1    3    3    0  501 -0.33256279830E+02 -0.15638657339E+02  0.33576215518E+02  0.50000000000E+02  0.47000000000E+01 0. -1.
</event>
<event>
 5    1  0.9023675E-001  0.1000000E+03  0.7546771E-02  0.1163815E+00
         11   -1    0    0    0    0  0.00000000000E+00  0.00000000000E+00  0.50000000000E+02  0.50000000000E+02  0.00000000000E+00 0. -1.
        -11   -1    0    0    0    0 -0.00000000000E+00 -0.00000000000E+00 -0.50000000000E+02  0.50000000000E+02  0.00000000000E+00 0.  1.
         23    2    1    2    0    0  0.00000000000E+00  0.00000000000E+00  0.00000000000E+00  0.10000000000E+03  0.10000000000E+03 0.  0.
          5    1    3    3  501    0  0.35756118125E+02 -0.74219972457E+01  0.33827857951E+02  0.50000000000E+02  0.47000000000E+01 0. -1.
         -5    1    3    3    0  501 -0.35756118125E+02  0.74219972457E+01 -0.33827857951E+02  0.50000000000E+02  0.47000000000E+01 0.  1.
</event>
<event>
 5    1  0.9023675E-001  0.1000000E+03  0.7546771E-02  0.1163815E+00
         11   -1    0    0    0    0  0.00000000000E+00  0.00000000000E+00  0.50000000000E+02  0.50000000000E+02  0.00000000000E+00 0.  1.
        -11   -1    0    0    0    0 -0.00000000000E+00 -0.00000000000E+00 -0.50000000000E+02  0.50000000000E+02  0.00000000000E+00 0. -1.
         23    2    1    2    0    0  0.00000000000E+00  0.00000000000E+00  0.00000000000E+00  0.10000000000E+03  0.10000000000E+03 0.  0.
          5    1    3    3  501    0 -0.22118309044E+02  0.25816690060E+02 -0.36361915782E+02  0.50000000000E+02  0.47000000000E+01 0. -1.
         -5    1    3    3    0  501  0.22118309044E+02 -0.25816690060E+02  0.36361915782E+02  0.50000000000E+02  0.47000000000E+01 0.  1.
</event>
<event>
 5    1  0.9023675E-001  0.1000000E+03  0.7546771E-02  0.1163815E+00
         11   -1    0    0    0    0  0.00000000000E+00  0.00000000000E+00  0.50000000000E+02  0.50000000000E+02  0.00000000000E+00 0. -1.
        -11   -1    0    0    0    0 -0.00000000000E+00 -0.00000000000E+00 -0.50000000000E+02  0.50000000000E+02  0.00000000000E+00 0.  1.
         23    2    1    2    0    0  0.00000000000E+00  0.00000000000E+00  0.00000000000E+00  0.10000000000E+03  0.10000000000E+03 0.  0.
          5    1    3    3  501    0 -0.36609336232E+02  0.22527843562E-02  0.33729312113E+02  0.50000000000E+02  0.47000000000E+01 0. -1.
         -5    1    3    3    0  501  0.36609336232E+02 -0.22527843562E-02 -0.33729312113E+02  0.50000000000E+02  0.47000000000E+01 0.  1.
</event>
<event>
 5    1  0.9023675E-001  0.1000000E+03  0.7546771E-02  0.1163815E+00
         11   -1    0    0    0    0  0.00000000000E+00  0.00000000000E+00  0.50000000000E+02  0.50000000000E+02  0.00000000000E+00 0. -1.
        -11   -1    0    0    0    0 -0.00000000000E+00 -0.00000000000E+00 -0.50000000000E+02  0.50000000000E+02  0.00000000000E+00 0.  1.
         23    2    1    2    0    0  0.00000000000E+00  0.00000000000E+00  0.00000000000E+00  0.10000000000E+03  0.10000000000E+03 0.  0.
          5    1    3    3  501    0 -0.10989317753E+02  0.24353237760E+02  0.42000770301E+02  0.50000000000E+02  0.47000000000E+01 0. -1.
         -5    1    3    3    0  501  0.10989317753E+02 -0.24353237760E+02 -0.42000770301E+02  0.50000000000E+02  0.47000000000E+01 0.  1.
</event>
<event>
 5    1  0.9023675E-001  0.1000000E+03  0.7546771E-02  0.1163815E+00
         11   -1    0    0    0    0  0.00000000000E+00  0.00000000000E+00  0.50000000000E+02  0.50000000000E+02  0.00000000000E+00 0. -1.
        -11   -1    0    0    0    0 -0.00000000000E+00 -0.00000000000E+00 -0.50000000000E+02  0.50000000000E+02  0.00000000000E+00 0.  1.
         23    2    1    2    0    0  0.00000000000E+00  0.00000000000E+00  0.00000000000E+00  0.10000000000E+03  0.10000000000E+03 0.  0.
          5    1    3    3  501    0  0.36801501054E+02 -0.16420867397E+01  0.33479293172E+02  0.50000000000E+02  0.47000000000E+01 0. -1.
         -5    1    3    3    0  501 -0.36801501054E+02  0.16420867397E+01 -0.33479293172E+02  0.50000000000E+02  0.47000000000E+01 0.  1.
</event>
<event>
 5    1  0.9023675E-001  0.1000000E+03  0.7546771E-02  0.1163815E+00
         11   -1    0    0    0    0  0.00000000000E+00  0.00000000000E+00  0.50000000000E+02  0.50000000000E+02  0.00000000000E+00 0.  1.
        -11   -1    0    0    0    0 -0.00000000000E+00 -0.00000000000E+00 -0.50000000000E+02  0.50000000000E+02  0.00000000000E+00 0. -1.
         23    2    1    2    0    0  0.00000000000E+00  0.00000000000E+00  0.00000000000E+00  0.10000000000E+03  0.10000000000E+03 0.  0.
          5    1    3    3  501    0  0.43845151903E+02  0.43150028159E+01 -0.23170960389E+02  0.50000000000E+02  0.47000000000E+01 0. -1.
         -5    1    3    3    0  501 -0.43845151903E+02 -0.43150028159E+01  0.23170960389E+02  0.50000000000E+02  0.47000000000E+01 0.  1.
</event>
<event>
 5    1  0.9023675E-001  0.1000000E+03  0.7546771E-02  0.1163815E+00
         11   -1    0    0    0    0  0.00000000000E+00  0.00000000000E+00  0.50000000000E+02  0.50000000000E+02  0.00000000000E+00 0. -1.
        -11   -1    0    0    0    0 -0.00000000000E+00 -0.00000000000E+00 -0.50000000000E+02  0.50000000000E+02  0.00000000000E+00 0.  1.
         23    2    1    2    0    0  0.00000000000E+00  0.00000000000E+00  0.00000000000E+00  0.10000000000E+03  0.10000000000E+03 0.  0.
          5    1    3    3  501    0 -0.28376195789E+02 -0.35740331233E+02  0.19882913164E+02  0.50000000000E+02  0.47000000000E+01 0. -1.
         -5    1    3    3    0  501  0.28376195789E+02  0.35740331233E+02 -0.19882913164E+02  0.50000000000E+02  0.47000000000E+01 0.  1.
</event>
<event>
 5    1  0.9023675E-001  0.1000000E+03  0.7546771E-02  0.1163815E+00
         11   -1    0    0    0    0  0.00000000000E+00  0.00000000000E+00  0.50000000000E+02  0.50000000000E+02  0.00000000000E+00 0. -1.
        -11   -1    0    0    0    0 -0.00000000000E+00 -0.00000000000E+00 -0.50000000000E+02  0.50000000000E+02  0.00000000000E+00 0.  1.
         23    2    1    2    0    0  0.00000000000E+00  0.00000000000E+00  0.00000000000E+00  0.10000000000E+03  0.10000000000E+03 0.  0.
          5    1    3    3  501    0 -0.45391520457E+02  0.20292202691E+02  0.23971609301E+01  0.50000000000E+02  0.47000000000E+01 0. -1.
         -5    1    3    3    0  501  0.45391520457E+02 -0.20292202691E+02 -0.23971609301E+01  0.50000000000E+02  0.47000000000E+01 0.  1.
</event>
<event>
 5    1  0.9023675E-001  0.1000000E+03  0.7546771E-02  0.1163815E+00
         11   -1    0    0    0    0  0.00000000000E+00  0.00000000000E+00  0.50000000000E+02  0.50000000000E+02  0.00000000000E+00 0. -1.
        -11   -1    0    0    0    0 -0.00000000000E+00 -0.00000000000E+00 -0.50000000000E+02  0.50000000000E+02  0.00000000000E+00 0.  1.
         23    2    1    2    0    0  0.00000000000E+00  0.00000000000E+00  0.00000000000E+00  0.10000000000E+03  0.10000000000E+03 0.  0.
          5    1    3    3  501    0  0.34322522680E+02 -0.36048764985E+02  0.60081605938E+00  0.50000000000E+02  0.47000000000E+01 0. -1.
         -5    1    3    3    0  501 -0.34322522680E+02  0.36048764985E+02 -0.60081605938E+00  0.50000000000E+02  0.47000000000E+01 0.  1.
</event>
<event>
 5    1  0.9023675E-001  0.1000000E+03  0.7546771E-02  0.1163815E+00
         11   -1    0    0    0    0  0.00000000000E+00  0.00000000000E+00  0.50000000000E+02  0.50000000000E+02  0.00000000000E+00 0. -1.
        -11   -1    0    0    0    0 -0.00000000000E+00 -0.00000000000E+00 -0.50000000000E+02  0.50000000000E+02  0.00000000000E+00 0.  1.
         23    2    1    2    0    0  0.00000000000E+00  0.00000000000E+00  0.00000000000E+00  0.10000000000E+03  0.10000000000E+03 0.  0.
          5    1    3    3  501    0  0.15823554090E+02 -0.23279808743E+02  0.41055762578E+02  0.50000000000E+02  0.47000000000E+01 0. -1.
         -5    1    3    3    0  501 -0.15823554090E+02  0.23279808743E+02 -0.41055762578E+02  0.50000000000E+02  0.47000000000E+01 0.  1.
</event>
<event>
 5    1  0.9023675E-001  0.1000000E+03  0.7546771E-02  0.1163815E+00
         11   -1    0    0    0    0  0.00000000000E+00  0.00000000000E+00  0.50000000000E+02  0.50000000000E+02  0.00000000000E+00 0. -1.
        -11   -1    0    0    0    0 -0.00000000000E+00 -0.00000000000E+00 -0.50000000000E+02  0.50000000000E+02  0.00000000000E+00 0.  1.
         23    2    1    2    0    0  0.00000000000E+00  0.00000000000E+00  0.00000000000E+00  0.10000000000E+03  0.10000000000E+03 0.  0.
          5    1    3    3  501    0  0.14926028985E+02 -0.37414266490E+02  0.29245449591E+02  0.50000000000E+02  0.47000000000E+01 0. -1.
         -5    1    3    3    0  501 -0.14926028985E+02  0.37414266490E+02 -0.29245449591E+02  0.50000000000E+02  0.47000000000E+01 0.  1.
</event>
<event>
 5    1  0.9023675E-001  0.1000000E+03  0.7546771E-02  0.1163815E+00
         11   -1    0    0    0    0  0.00000000000E+00  0.00000000000E+00  0.50000000000E+02  0.50000000000E+02  0.00000000000E+00 0. -1.
        -11   -1    0    0    0    0 -0.00000000000E+00 -0.00000000000E+00 -0.50000000000E+02  0.50000000000E+02  0.00000000000E+00 0.  1.
         23    2    1    2    0    0  0.00000000000E+00  0.00000000000E+00  0.00000000000E+00  0.10000000000E+03  0.10000000000E+03 0.  0.
          5    1    3    3  501    0 -0.13586165191E+01 -0.51872341003E-01  0.49760038891E+02  0.50000000000E+02  0.47000000000E+01 0. -1.
         -5    1    3    3    0  501  0.13586165191E+01  0.51872341003E-01 -0.49760038891E+02  0.50000000000E+02  0.47000000000E+01 0.  1.
</event>
<event>
 5    1  0.9023675E-001  0.1000000E+03  0.7546771E-02  0.1163815E+00
         11   -1    0    0    0    0  0.00000000000E+00  0.00000000000E+00  0.50000000000E+02  0.50000000000E+02  0.00000000000E+00 0.  1.
        -11   -1    0    0    0    0 -0.00000000000E+00 -0.00000000000E+00 -0.50000000000E+02  0.50000000000E+02  0.00000000000E+00 0. -1.
         23    2    1    2    0    0  0.00000000000E+00  0.00000000000E+00  0.00000000000E+00  0.10000000000E+03  0.10000000000E+03 0.  0.
          5    1    3    3  501    0  0.12914156156E+02  0.37836375028E+02 -0.29657095196E+02  0.50000000000E+02  0.47000000000E+01 0. -1.
         -5    1    3    3    0  501 -0.12914156156E+02 -0.37836375028E+02  0.29657095196E+02  0.50000000000E+02  0.47000000000E+01 0.  1.
</event>
<event>
 5    1  0.9023675E-001  0.1000000E+03  0.7546771E-02  0.1163815E+00
         11   -1    0    0    0    0  0.00000000000E+00  0.00000000000E+00  0.50000000000E+02  0.50000000000E+02  0.00000000000E+00 0. -1.
        -11   -1    0    0    0    0 -0.00000000000E+00 -0.00000000000E+00 -0.50000000000E+02  0.50000000000E+02  0.00000000000E+00 0.  1.
         23    2    1    2    0    0  0.00000000000E+00  0.00000000000E+00  0.00000000000E+00  0.10000000000E+03  0.10000000000E+03 0.  0.
          5    1    3    3  501    0 -0.22179898391E+02  0.44533284126E+02  0.16579241151E+01  0.50000000000E+02  0.47000000000E+01 0. -1.
         -5    1    3    3    0  501  0.22179898391E+02 -0.44533284126E+02 -0.16579241151E+01  0.50000000000E+02  0.47000000000E+01 0.  1.
</event>
<event>
 5    1  0.9023675E-001  0.1000000E+03  0.7546771E-02  0.1163815E+00
         11   -1    0    0    0    0  0.00000000000E+00  0.00000000000E+00  0.50000000000E+02  0.50000000000E+02  0.00000000000E+00 0. -1.
        -11   -1    0    0    0    0 -0.00000000000E+00 -0.00000000000E+00 -0.50000000000E+02  0.50000000000E+02  0.00000000000E+00 0.  1.
         23    2    1    2    0    0  0.00000000000E+00  0.00000000000E+00  0.00000000000E+00  0.10000000000E+03  0.10000000000E+03 0.  0.
          5    1    3    3  501    0 -0.41773166830E+02 -0.26478698593E+02 -0.56383555902E+01  0.50000000000E+02  0.47000000000E+01 0. -1.
         -5    1    3    3    0  501  0.41773166830E+02  0.26478698593E+02  0.56383555902E+01  0.50000000000E+02  0.47000000000E+01 0.  1.
</event>
<event>
 5    1  0.9023675E-001  0.1000000E+03  0.7546771E-02  0.1163815E+00
         11   -1    0    0    0    0  0.00000000000E+00  0.00000000000E+00  0.50000000000E+02  0.50000000000E+02  0.00000000000E+00 0. -1.
        -11   -1    0    0    0    0 -0.00000000000E+00 -0.00000000000E+00 -0.50000000000E+02  0.50000000000E+02  0.00000000000E+00 0.  1.
         23    2    1    2    0    0  0.00000000000E+00  0.00000000000E+00  0.00000000000E+00  0.10000000000E+03  0.10000000000E+03 0.  0.
          5    1    3    3  501    0  0.31376876261E+02  0.15595800311E+02  0.35357780597E+02  0.50000000000E+02  0.47000000000E+01 0. -1.
         -5    1    3    3    0  501 -0.31376876261E+02 -0.15595800311E+02 -0.35357780597E+02  0.50000000000E+02  0.47000000000E+01 0.  1.
</event>
<event>
 5    1  0.9023675E-001  0.1000000E+03  0.7546771E-02  0.1163815E+00
         11   -1    0    0    0    0  0.00000000000E+00  0.00000000000E+00  0.50000000000E+02  0.50000000000E+02  0.00000000000E+00 0. -1.
        -11   -1    0    0    0    0 -0.00000000000E+00 -0.00000000000E+00 -0.50000000000E+02  0.50000000000E+02  0.00000000000E+00 0.  1.
         23    2    1    2    0    0  0.00000000000E+00  0.00000000000E+00  0.00000000000E+00  0.10000000000E+03  0.10000000000E+03 0.  0.
          5    1    3    3  501    0 -0.91440737222E+01 -0.41174735911E+02  0.26437417394E+02  0.50000000000E+02  0.47000000000E+01 0. -1.
         -5    1    3    3    0  501  0.91440737222E+01  0.41174735911E+02 -0.26437417394E+02  0.50000000000E+02  0.47000000000E+01 0.  1.
</event>
<event>
 5    1  0.9023675E-001  0.1000000E+03  0.7546771E-02  0.1163815E+00
         11   -1    0    0    0    0  0.00000000000E+00  0.00000000000E+00  0.50000000000E+02  0.50000000000E+02  0.00000000000E+00 0. -1.
        -11   -1    0    0    0    0 -0.00000000000E+00 -0.00000000000E+00 -0.50000000000E+02  0.50000000000E+02  0.00000000000E+00 0.  1.
         23    2    1    2    0    0  0.00000000000E+00  0.00000000000E+00  0.00000000000E+00  0.10000000000E+03  0.10000000000E+03 0.  0.
          5    1    3    3  501    0 -0.31107860436E+02 -0.20137336133E+02  0.33237008177E+02  0.50000000000E+02  0.47000000000E+01 0. -1.
         -5    1    3    3    0  501  0.31107860436E+02  0.20137336133E+02 -0.33237008177E+02  0.50000000000E+02  0.47000000000E+01 0.  1.
</event>
<event>
 5    1  0.9023675E-001  0.1000000E+03  0.7546771E-02  0.1163815E+00
         11   -1    0    0    0    0  0.00000000000E+00  0.00000000000E+00  0.50000000000E+02  0.50000000000E+02  0.00000000000E+00 0. -1.
        -11   -1    0    0    0    0 -0.00000000000E+00 -0.00000000000E+00 -0.50000000000E+02  0.50000000000E+02  0.00000000000E+00 0.  1.
         23    2    1    2    0    0  0.00000000000E+00  0.00000000000E+00  0.00000000000E+00  0.10000000000E+03  0.10000000000E+03 0.  0.
          5    1    3    3  501    0  0.33999453465E+02 -0.82647047550E+01  0.35406804705E+02  0.50000000000E+02  0.47000000000E+01 0. -1.
         -5    1    3    3    0  501 -0.33999453465E+02  0.82647047550E+01 -0.35406804705E+02  0.50000000000E+02  0.47000000000E+01 0.  1.
</event>
<event>
 5    1  0.9023675E-001  0.1000000E+03  0.7546771E-02  0.1163815E+00
         11   -1    0    0    0    0  0.00000000000E+00  0.00000000000E+00  0.50000000000E+02  0.50000000000E+02  0.00000000000E+00 0.  1.
        -11   -1    0    0    0    0 -0.00000000000E+00 -0.00000000000E+00 -0.50000000000E+02  0.50000000000E+02  0.00000000000E+00 0. -1.
         23    2    1    2    0    0  0.00000000000E+00  0.00000000000E+00  0.00000000000E+00  0.10000000000E+03  0.10000000000E+03 0.  0.
          5    1    3    3  501    0  0.10207713658E+02  0.47555836132E+02 -0.10590327270E+02  0.50000000000E+02  0.47000000000E+01 0. -1.
         -5    1    3    3    0  501 -0.10207713658E+02 -0.47555836132E+02  0.10590327270E+02  0.50000000000E+02  0.47000000000E+01 0.  1.
</event>
<event>
 5    1  0.9023675E-001  0.1000000E+03  0.7546771E-02  0.1163815E+00
         11   -1    0    0    0    0  0.00000000000E+00  0.00000000000E+00  0.50000000000E+02  0.50000000000E+02  0.00000000000E+00 0.  1.
        -11   -1    0    0    0    0 -0.00000000000E+00 -0.00000000000E+00 -0.50000000000E+02  0.50000000000E+02  0.00000000000E+00 0. -1.
         23    2    1    2    0    0  0.00000000000E+00  0.00000000000E+00  0.00000000000E+00  0.10000000000E+03  0.10000000000E+03 0.  0.
          5    1    3    3  501    0 -0.38204655282E+02  0.31678583787E+02  0.38446903744E+01  0.50000000000E+02  0.47000000000E+01 0. -1.
         -5    1    3    3    0  501  0.38204655282E+02 -0.31678583787E+02 -0.38446903744E+01  0.50000000000E+02  0.47000000000E+01 0.  1.
</event>
<event>
 5    1  0.9023675E-001  0.1000000E+03  0.7546771E-02  0.1163815E+00
         11   -1    0    0    0    0  0.00000000000E+00  0.00000000000E+00  0.50000000000E+02  0.50000000000E+02  0.00000000000E+00 0. -1.
        -11   -1    0    0    0    0 -0.00000000000E+00 -0.00000000000E+00 -0.50000000000E+02  0.50000000000E+02  0.00000000000E+00 0.  1.
         23    2    1    2    0    0  0.00000000000E+00  0.00000000000E+00  0.00000000000E+00  0.10000000000E+03  0.10000000000E+03 0.  0.
          5    1    3    3  501    0  0.13327237134E+02 -0.39023991849E+02 -0.27882302819E+02  0.50000000000E+02  0.47000000000E+01 0. -1.
         -5    1    3    3    0  501 -0.13327237134E+02  0.39023991849E+02  0.27882302819E+02  0.50000000000E+02  0.47000000000E+01 0.  1.
</event>
<event>
 5    1  0.9023675E-001  0.1000000E+03  0.7546771E-02  0.1163815E+00
         11   -1    0    0    0    0  0.00000000000E+00  0.00000000000E+00  0.50000000000E+02  0.50000000000E+02  0.00000000000E+00 0. -1.
        -11   -1    0    0    0    0 -0.00000000000E+00 -0.00000000000E+00 -0.50000000000E+02  0.50000000000E+02  0.00000000000E+00 0.  1.
         23    2    1    2    0    0  0.00000000000E+00  0.00000000000E+00  0.00000000000E+00  0.10000000000E+03  0.10000000000E+03 0.  0.
          5    1    3    3  501    0 -0.43145603889E+02  0.24789750753E+02  0.13546670074E+01  0.50000000000E+02  0.47000000000E+01 0. -1.
         -5    1    3    3    0  501  0.43145603889E+02 -0.24789750753E+02 -0.13546670074E+01  0.50000000000E+02  0.47000000000E+01 0.  1.
</event>
<event>
 5    1  0.9023675E-001  0.1000000E+03  0.7546771E-02  0.1163815E+00
         11   -1    0    0    0    0  0.00000000000E+00  0.00000000000E+00  0.50000000000E+02  0.50000000000E+02  0.00000000000E+00 0. -1.
        -11   -1    0    0    0    0 -0.00000000000E+00 -0.00000000000E+00 -0.50000000000E+02  0.50000000000E+02  0.00000000000E+00 0.  1.
         23    2    1    2    0    0  0.00000000000E+00  0.00000000000E+00  0.00000000000E+00  0.10000000000E+03  0.10000000000E+03 0.  0.
          5    1    3    3  501    0 -0.16232267116E+02  0.37763304766E+02  0.28077683620E+02  0.50000000000E+02  0.47000000000E+01 0. -1.
         -5    1    3    3    0  501  0.16232267116E+02 -0.37763304766E+02 -0.28077683620E+02  0.50000000000E+02  0.47000000000E+01 0.  1.
</event>
<event>
 5    1  0.9023675E-001  0.1000000E+03  0.7546771E-02  0.1163815E+00
         11   -1    0    0    0    0  0.00000000000E+00  0.00000000000E+00  0.50000000000E+02  0.50000000000E+02  0.00000000000E+00 0. -1.
        -11   -1    0    0    0    0 -0.00000000000E+00 -0.00000000000E+00 -0.50000000000E+02  0.50000000000E+02  0.00000000000E+00 0.  1.
         23    2    1    2    0    0  0.00000000000E+00  0.00000000000E+00  0.00000000000E+00  0.10000000000E+03  0.10000000000E+03 0.  0.
          5    1    3    3  501    0  0.26039485607E+02  0.23080824266E+02  0.35596779918E+02  0.50000000000E+02  0.47000000000E+01 0. -1.
         -5    1    3    3    0  501 -0.26039485607E+02 -0.23080824266E+02 -0.35596779918E+02  0.50000000000E+02  0.47000000000E+01 0.  1.
</event>
<event>
 5    1  0.9023675E-001  0.1000000E+03  0.7546771E-02  0.1163815E+00
         11   -1    0    0    0    0  0.00000000000E+00  0.00000000000E+00  0.50000000000E+02  0.50000000000E+02  0.00000000000E+00 0. -1.
        -11   -1    0    0    0    0 -0.00000000000E+00 -0.00000000000E+00 -0.50000000000E+02  0.50000000000E+02  0.00000000000E+00 0.  1.
         23    2    1    2    0    0  0.00000000000E+00  0.00000000000E+00  0.00000000000E+00  0.10000000000E+03  0.10000000000E+03 0.  0.
          5    1    3    3  501    0  0.49055093689E+02  0.24423614285E+01  0.80958417617E+01  0.50000000000E+02  0.47000000000E+01 0. -1.
         -5    1    3    3    0  501 -0.49055093689E+02 -0.24423614285E+01 -0.80958417617E+01  0.50000000000E+02  0.47000000000E+01 0.  1.
</event>
<event>
 5    1  0.9023675E-001  0.1000000E+03  0.7546771E-02  0.1163815E+00
         11   -1    0    0    0    0  0.00000000000E+00  0.00000000000E+00  0.50000000000E+02  0.50000000000E+02  0.00000000000E+00 0. -1.
        -11   -1    0    0    0    0 -0.00000000000E+00 -0.00000000000E+00 -0.50000000000E+02  0.50000000000E+02  0.00000000000E+00 0.  1.
         23    2    1    2    0    0  0.00000000000E+00  0.00000000000E+00  0.00000000000E+00  0.10000000000E+03  0.10000000000E+03 0.  0.
          5    1    3    3  501    0 -0.21322332384E+02 -0.17072829677E+01  0.44948340643E+02  0.50000000000E+02  0.47000000000E+01 0. -1.
         -5    1    3    3    0  501  0.21322332384E+02  0.17072829677E+01 -0.44948340643E+02  0.50000000000E+02  0.47000000000E+01 0.  1.
</event>
<event>
 5    1  0.9023675E-001  0.1000000E+03  0.7546771E-02  0.1163815E+00
         11   -1    0    0    0    0  0.00000000000E+00  0.00000000000E+00  0.50000000000E+02  0.50000000000E+02  0.00000000000E+00 0. -1.
        -11   -1    0    0    0    0 -0.00000000000E+00 -0.00000000000E+00 -0.50000000000E+02  0.50000000000E+02  0.00000000000E+00 0.  1.
         23    2    1    2    0    0  0.00000000000E+00  0.00000000000E+00  0.00000000000E+00  0.10000000000E+03  0.10000000000E+03 0.  0.
          5    1    3    3  501    0 -0.35475554311E+02  0.16357014002E+02  0.30851955194E+02  0.50000000000E+02  0.47000000000E+01 0. -1.
         -5    1    3    3    0  501  0.35475554311E+02 -0.16357014002E+02 -0.30851955194E+02  0.50000000000E+02  0.47000000000E+01 0.  1.
</event>
<event>
 5    1  0.9023675E-001  0.1000000E+03  0.7546771E-02  0.1163815E+00
         11   -1    0    0    0    0  0.00000000000E+00  0.00000000000E+00  0.50000000000E+02  0.50000000000E+02  0.00000000000E+00 0. -1.
        -11   -1    0    0    0    0 -0.00000000000E+00 -0.00000000000E+00 -0.50000000000E+02  0.50000000000E+02  0.00000000000E+00 0.  1.
         23    2    1    2    0    0  0.00000000000E+00  0.00000000000E+00  0.00000000000E+00  0.10000000000E+03  0.10000000000E+03 0.  0.
          5    1    3    3  501    0  0.32981768035E+01 -0.99667173760E+01  0.48658982465E+02  0.50000000000E+02  0.47000000000E+01 0. -1.
         -5    1    3    3    0  501 -0.32981768035E+01  0.99667173760E+01 -0.48658982465E+02  0.50000000000E+02  0.47000000000E+01 0.  1.
</event>
<event>
 5    1  0.9023675E-001  0.1000000E+03  0.7546771E-02  0.1163815E+00
         11   -1    0    0    0    0  0.00000000000E+00  0.00000000000E+00  0.50000000000E+02  0.50000000000E+02  0.00000000000E+00 0. -1.
        -11   -1    0    0    0    0 -0.00000000000E+00 -0.00000000000E+00 -0.50000000000E+02  0.50000000000E+02  0.00000000000E+00 0.  1.
         23    2    1    2    0    0  0.00000000000E+00  0.00000000000E+00  0.00000000000E+00  0.10000000000E+03  0.10000000000E+03 0.  0.
          5    1    3    3  501    0 -0.31416184719E+02 -0.26886082417E+02  0.27714110305E+02  0.50000000000E+02  0.47000000000E+01 0. -1.
         -5    1    3    3    0  501  0.31416184719E+02  0.26886082417E+02 -0.27714110305E+02  0.50000000000E+02  0.47000000000E+01 0.  1.
</event>
<event>
 5    1  0.9023675E-001  0.1000000E+03  0.7546771E-02  0.1163815E+00
         11   -1    0    0    0    0  0.00000000000E+00  0.00000000000E+00  0.50000000000E+02  0.50000000000E+02  0.00000000000E+00 0.  1.
        -11   -1    0    0    0    0 -0.00000000000E+00 -0.00000000000E+00 -0.50000000000E+02  0.50000000000E+02  0.00000000000E+00 0. -1.
         23    2    1    2    0    0  0.00000000000E+00  0.00000000000E+00  0.00000000000E+00  0.10000000000E+03  0.10000000000E+03 0.  0.
          5    1    3    3  501    0  0.10553903547E+02 -0.31805643654E+02 -0.36809321533E+02  0.50000000000E+02  0.47000000000E+01 0. -1.
         -5    1    3    3    0  501 -0.10553903547E+02  0.31805643654E+02  0.36809321533E+02  0.50000000000E+02  0.47000000000E+01 0.  1.
</event>
<event>
 5    1  0.9023675E-001  0.1000000E+03  0.7546771E-02  0.1163815E+00
         11   -1    0    0    0    0  0.00000000000E+00  0.00000000000E+00  0.50000000000E+02  0.50000000000E+02  0.00000000000E+00 0. -1.
        -11   -1    0    0    0    0 -0.00000000000E+00 -0.00000000000E+00 -0.50000000000E+02  0.50000000000E+02  0.00000000000E+00 0.  1.
         23    2    1    2    0    0  0.00000000000E+00  0.00000000000E+00  0.00000000000E+00  0.10000000000E+03  0.10000000000E+03 0.  0.
          5    1    3    3  501    0 -0.18585394820E+02 -0.11596662544E+02  0.44699110922E+02  0.50000000000E+02  0.47000000000E+01 0. -1.
         -5    1    3    3    0  501  0.18585394820E+02  0.11596662544E+02 -0.44699110922E+02  0.50000000000E+02  0.47000000000E+01 0.  1.
</event>
<event>
 5    1  0.9023675E-001  0.1000000E+03  0.7546771E-02  0.1163815E+00
         11   -1    0    0    0    0  0.00000000000E+00  0.00000000000E+00  0.50000000000E+02  0.50000000000E+02  0.00000000000E+00 0.  1.
        -11   -1    0    0    0    0 -0.00000000000E+00 -0.00000000000E+00 -0.50000000000E+02  0.50000000000E+02  0.00000000000E+00 0. -1.
         23    2    1    2    0    0  0.00000000000E+00  0.00000000000E+00  0.00000000000E+00  0.10000000000E+03  0.10000000000E+03 0.  0.
          5    1    3    3  501    0 -0.36144377642E+02 -0.20536361136E+02 -0.27381596670E+02  0.50000000000E+02  0.47000000000E+01 0. -1.
         -5    1    3    3    0  501  0.36144377642E+02  0.20536361136E+02  0.27381596670E+02  0.50000000000E+02  0.47000000000E+01 0.  1.
</event>
<event>
 5    1  0.9023675E-001  0.1000000E+03  0.7546771E-02  0.1163815E+00
         11   -1    0    0    0    0  0.00000000000E+00  0.00000000000E+00  0.50000000000E+02  0.50000000000E+02  0.00000000000E+00 0.  1.
        -11   -1    0    0    0    0 -0.00000000000E+00 -0.00000000000E+00 -0.50000000000E+02  0.50000000000E+02  0.00000000000E+00 0. -1.
         23    2    1    2    0    0  0.00000000000E+00  0.00000000000E+00  0.00000000000E+00  0.10000000000E+03  0.10000000000E+03 0.  0.
          5    1    3    3  501    0 -0.18520881609E+01  0.13340184672E+02 -0.47922012086E+02  0.50000000000E+02  0.47000000000E+01 0. -1.
         -5    1    3    3    0  501  0.18520881609E+01 -0.13340184672E+02  0.47922012086E+02  0.50000000000E+02  0.47000000000E+01 0.  1.
</event>
<event>
 5    1  0.9023675E-001  0.1000000E+03  0.7546771E-02  0.1163815E+00
         11   -1    0    0    0    0  0.00000000000E+00  0.00000000000E+00  0.50000000000E+02  0.50000000000E+02  0.00000000000E+00 0. -1.
        -11   -1    0    0    0    0 -0.00000000000E+00 -0.00000000000E+00 -0.50000000000E+02  0.50000000000E+02  0.00000000000E+00 0.  1.
         23    2    1    2    0    0  0.00000000000E+00  0.00000000000E+00  0.00000000000E+00  0.10000000000E+03  0.10000000000E+03 0.  0.
          5    1    3    3  501    0  0.30449216203E+02 -0.19653994260E+02  0.34124415633E+02  0.50000000000E+02  0.47000000000E+01 0. -1.
         -5    1    3    3    0  501 -0.30449216203E+02  0.19653994260E+02 -0.34124415633E+02  0.50000000000E+02  0.47000000000E+01 0.  1.
</event>
<event>
 5    1  0.9023675E-001  0.1000000E+03  0.7546771E-02  0.1163815E+00
         11   -1    0    0    0    0  0.00000000000E+00  0.00000000000E+00  0.50000000000E+02  0.50000000000E+02  0.00000000000E+00 0. -1.
        -11   -1    0    0    0    0 -0.00000000000E+00 -0.00000000000E+00 -0.50000000000E+02  0.50000000000E+02  0.00000000000E+00 0.  1.
         23    2    1    2    0    0  0.00000000000E+00  0.00000000000E+00  0.00000000000E+00  0.10000000000E+03  0.10000000000E+03 0.  0.
          5    1    3    3  501    0  0.38775423826E+01  0.49189683709E+02  0.65764490187E+01  0.50000000000E+02  0.47000000000E+01 0. -1.
         -5    1    3    3    0  501 -0.38775423826E+01 -0.49189683709E+02 -0.65764490187E+01  0.50000000000E+02  0.47000000000E+01 0.  1.
</event>
<event>
 5    1  0.9023675E-001  0.1000000E+03  0.7546771E-02  0.1163815E+00
         11   -1    0    0    0    0  0.00000000000E+00  0.00000000000E+00  0.50000000000E+02  0.50000000000E+02  0.00000000000E+00 0. -1.
        -11   -1    0    0    0    0 -0.00000000000E+00 -0.00000000000E+00 -0.50000000000E+02  0.50000000000E+02  0.00000000000E+00 0.  1.
         23    2    1    2    0    0  0.00000000000E+00  0.00000000000E+00  0.00000000000E+00  0.10000000000E+03  0.10000000000E+03 0.  0.
          5    1    3    3  501    0  0.16192810204E+02  0.29801904770E+02  0.36435550906E+02  0.50000000000E+02  0.47000000000E+01 0. -1.
         -5    1    3    3    0  501 -0.16192810204E+02 -0.29801904770E+02 -0.36435550906E+02  0.50000000000E+02  0.47000000000E+01 0.  1.
</event>
<event>
 5    1  0.9023675E-001  0.1000000E+03  0.7546771E-02  0.1163815E+00
         11   -1    0    0    0    0  0.00000000000E+00  0.00000000000E+00  0.50000000000E+02  0.50000000000E+02  0.00000000000E+00 0. -1.
        -11   -1    0    0    0    0 -0.00000000000E+00 -0.00000000000E+00 -0.50000000000E+02  0.50000000000E+02  0.00000000000E+00 0.  1.
         23    2    1    2    0    0  0.00000000000E+00  0.00000000000E+00  0.00000000000E+00  0.10000000000E+03  0.10000000000E+03 0.  0.
          5    1    3    3  501    0 -0.51267029757E+01  0.49502892719E+02 -0.10442839717E+01  0.50000000000E+02  0.47000000000E+01 0. -1.
         -5    1    3    3    0  501  0.51267029757E+01 -0.49502892719E+02  0.10442839717E+01  0.50000000000E+02  0.47000000000E+01 0.  1.
</event>
<event>
 5    1  0.9023675E-001  0.1000000E+03  0.7546771E-02  0.1163815E+00
         11   -1    0    0    0    0  0.00000000000E+00  0.00000000000E+00  0.50000000000E+02  0.50000000000E+02  0.00000000000E+00 0. -1.
        -11   -1    0    0    0    0 -0.00000000000E+00 -0.00000000000E+00 -0.50000000000E+02  0.50000000000E+02  0.00000000000E+00 0.  1.
         23    2    1    2    0    0  0.00000000000E+00  0.00000000000E+00  0.00000000000E+00  0.10000000000E+03  0.10000000000E+03 0.  0.
          5    1    3    3  501    0  0.13634731294E+02  0.23267051299E+02  0.41840750787E+02  0.50000000000E+02  0.47000000000E+01 0. -1.
         -5    1    3    3    0  501 -0.13634731294E+02 -0.23267051299E+02 -0.41840750787E+02  0.50000000000E+02  0.47000000000E+01 0.  1.
</event>
<event>
 5    1  0.9023675E-001  0.1000000E+03  0.7546771E-02  0.1163815E+00
         11   -1    0    0    0    0  0.00000000000E+00  0.00000000000E+00  0.50000000000E+02  0.50000000000E+02  0.00000000000E+00 0. -1.
        -11   -1    0    0    0    0 -0.00000000000E+00 -0.00000000000E+00 -0.50000000000E+02  0.50000000000E+02  0.00000000000E+00 0.  1.
         23    2    1    2    0    0  0.00000000000E+00  0.00000000000E+00  0.00000000000E+00  0.10000000000E+03  0.10000000000E+03 0.  0.
          5    1    3    3  501    0 -0.21673547409E+02  0.32796196748E+02  0.30538120793E+02  0.50000000000E+02  0.47000000000E+01 0. -1.
         -5    1    3    3    0  501  0.21673547409E+02 -0.32796196748E+02 -0.30538120793E+02  0.50000000000E+02  0.47000000000E+01 0.  1.
</event>
<event>
 5    1  0.9023675E-001  0.1000000E+03  0.7546771E-02  0.1163815E+00
         11   -1    0    0    0    0  0.00000000000E+00  0.00000000000E+00  0.50000000000E+02  0.50000000000E+02  0.00000000000E+00 0. -1.
        -11   -1    0    0    0    0 -0.00000000000E+00 -0.00000000000E+00 -0.50000000000E+02  0.50000000000E+02  0.00000000000E+00 0.  1.
         23    2    1    2    0    0  0.00000000000E+00  0.00000000000E+00  0.00000000000E+00  0.10000000000E+03  0.10000000000E+03 0.  0.
          5    1    3    3  501    0  0.34222104441E+02 -0.35341378340E+02 -0.75989831306E+01  0.50000000000E+02  0.47000000000E+01 0. -1.
         -5    1    3    3    0  501 -0.34222104441E+02  0.35341378340E+02  0.75989831306E+01  0.50000000000E+02  0.47000000000E+01 0.  1.
</event>
<event>
 5    1  0.9023675E-001  0.1000000E+03  0.7546771E-02  0.1163815E+00
         11   -1    0    0    0    0  0.00000000000E+00  0.00000000000E+00  0.50000000000E+02  0.50000000000E+02  0.00000000000E+00 0. -1.
        -11   -1    0    0    0    0 -0.00000000000E+00 -0.00000000000E+00 -0.50000000000E+02  0.50000000000E+02  0.00000000000E+00 0.  1.
         23    2    1    2    0    0  0.00000000000E+00  0.00000000000E+00  0.00000000000E+00  0.10000000000E+03  0.10000000000E+03 0.  0.
          5    1    3    3  501    0 -0.37620355588E+02 -0.25344640478E+02  0.20500440103E+02  0.50000000000E+02  0.47000000000E+01 0. -1.
         -5    1    3    3    0  501  0.37620355588E+02  0.25344640478E+02 -0.20500440103E+02  0.50000000000E+02  0.47000000000E+01 0.  1.
</event>
<event>
 5    1  0.9023675E-001  0.1000000E+03  0.7546771E-02  0.1163815E+00
         11   -1    0    0    0    0  0.00000000000E+00  0.00000000000E+00  0.50000000000E+02  0.50000000000E+02  0.00000000000E+00 0. -1.
        -11   -1    0    0    0    0 -0.00000000000E+00 -0.00000000000E+00 -0.50000000000E+02  0.50000000000E+02  0.00000000000E+00 0.  1.
         23    2    1    2    0    0  0.00000000000E+00  0.00000000000E+00  0.00000000000E+00  0.10000000000E+03  0.10000000000E+03 0.  0.
          5    1    3    3  501    0  0.32633221794E+02 -0.35417359338E+02  0.12593390840E+02  0.50000000000E+02  0.47000000000E+01 0. -1.
         -5    1    3    3    0  501 -0.32633221794E+02  0.35417359338E+02 -0.12593390840E+02  0.50000000000E+02  0.47000000000E+01 0.  1.
</event>
<event>
 5    1  0.9023675E-001  0.1000000E+03  0.7546771E-02  0.1163815E+00
         11   -1    0    0    0    0  0.00000000000E+00  0.00000000000E+00  0.50000000000E+02  0.50000000000E+02  0.00000000000E+00 0.  1.
        -11   -1    0    0    0    0 -0.00000000000E+00 -0.00000000000E+00 -0.50000000000E+02  0.50000000000E+02  0.00000000000E+00 0. -1.
         23    2    1    2    0    0  0.00000000000E+00  0.00000000000E+00  0.00000000000E+00  0.10000000000E+03  0.10000000000E+03 0.  0.
          5    1    3    3  501    0  0.14377991343E+02  0.18887863206E+02 -0.43754222521E+02  0.50000000000E+02  0.47000000000E+01 0. -1.
         -5    1    3    3    0  501 -0.14377991343E+02 -0.18887863206E+02  0.43754222521E+02  0.50000000000E+02  0.47000000000E+01 0.  1.
</event>
<event>
 5    1  0.9023675E-001  0.1000000E+03  0.7546771E-02  0.1163815E+00
         11   -1    0    0    0    0  0.00000000000E+00  0.00000000000E+00  0.50000000000E+02  0.50000000000E+02  0.00000000000E+00 0. -1.
        -11   -1    0    0    0    0 -0.00000000000E+00 -0.00000000000E+00 -0.50000000000E+02  0.50000000000E+02  0.00000000000E+00 0.  1.
         23    2    1    2    0    0  0.00000000000E+00  0.00000000000E+00  0.00000000000E+00  0.10000000000E+03  0.10000000000E+03 0.  0.
          5    1    3    3  501    0  0.30408366595E+02  0.11807593948E+02  0.37600824009E+02  0.50000000000E+02  0.47000000000E+01 0. -1.
         -5    1    3    3    0  501 -0.30408366595E+02 -0.11807593948E+02 -0.37600824009E+02  0.50000000000E+02  0.47000000000E+01 0.  1.
</event>
<event>
 5    1  0.9023675E-001  0.1000000E+03  0.7546771E-02  0.1163815E+00
         11   -1    0    0    0    0  0.00000000000E+00  0.00000000000E+00  0.50000000000E+02  0.50000000000E+02  0.00000000000E+00 0.  1.
        -11   -1    0    0    0    0 -0.00000000000E+00 -0.00000000000E+00 -0.50000000000E+02  0.50000000000E+02  0.00000000000E+00 0. -1.
         23    2    1    2    0    0  0.00000000000E+00  0.00000000000E+00  0.00000000000E+00  0.10000000000E+03  0.10000000000E+03 0.  0.
          5    1    3    3  501    0 -0.78682307732E+01 -0.43635296654E+02 -0.22626573545E+02  0.50000000000E+02  0.47000000000E+01 0. -1.
         -5    1    3    3    0  501  0.78682307732E+01  0.43635296654E+02  0.22626573545E+02  0.50000000000E+02  0.47000000000E+01 0.  1.
</event>
<event>
 5    1  0.9023675E-001  0.1000000E+03  0.7546771E-02  0.1163815E+00
         11   -1    0    0    0    0  0.00000000000E+00  0.00000000000E+00  0.50000000000E+02  0.50000000000E+02  0.00000000000E+00 0. -1.
        -11   -1    0    0    0    0 -0.00000000000E+00 -0.00000000000E+00 -0.50000000000E+02  0.50000000000E+02  0.00000000000E+00 0.  1.
         23    2    1    2    0    0  0.00000000000E+00  0.00000000000E+00  0.00000000000E+00  0.10000000000E+03  0.10000000000E+03 0.  0.
          5    1    3    3  501    0 -0.40051826585E+02 -0.28728431146E+02  0.69597723443E+01  0.50000000000E+02  0.47000000000E+01 0. -1.
         -5    1    3    3    0  501  0.40051826585E+02  0.28728431146E+02 -0.69597723443E+01  0.50000000000E+02  0.47000000000E+01 0.  1.
</event>
<event>
 5    1  0.9023675E-001  0.1000000E+03  0.7546771E-02  0.1163815E+00
         11   -1    0    0    0    0  0.00000000000E+00  0.00000000000E+00  0.50000000000E+02  0.50000000000E+02  0.00000000000E+00 0.  1.
        -11   -1    0    0    0    0 -0.00000000000E+00 -0.00000000000E+00 -0.50000000000E+02  0.50000000000E+02  0.00000000000E+00 0. -1.
         23    2    1    2    0    0  0.00000000000E+00  0.00000000000E+00  0.00000000000E+00  0.10000000000E+03  0.10000000000E+03 0.  0.
          5    1    3    3  501    0 -0.11579100876E+02  0.48409142863E+02  0.62394721561E+00  0.50000000000E+02  0.47000000000E+01 0. -1.
         -5    1    3    3    0  501  0.11579100876E+02 -0.48409142863E+02 -0.62394721561E+00  0.50000000000E+02  0.47000000000E+01 0.  1.
</event>
<event>
 5    1  0.9023675E-001  0.1000000E+03  0.7546771E-02  0.1163815E+00
         11   -1    0    0    0    0  0.00000000000E+00  0.00000000000E+00  0.50000000000E+02  0.50000000000E+02  0.00000000000E+00 0.  1.
        -11   -1    0    0    0    0 -0.00000000000E+00 -0.00000000000E+00 -0.50000000000E+02  0.50000000000E+02  0.00000000000E+00 0. -1.
         23    2    1    2    0    0  0.00000000000E+00  0.00000000000E+00  0.00000000000E+00  0.10000000000E+03  0.10000000000E+03 0.  0.
          5    1    3    3  501    0  0.15975542717E+02 -0.13440037738E+02 -0.45189129450E+02  0.50000000000E+02  0.47000000000E+01 0. -1.
         -5    1    3    3    0  501 -0.15975542717E+02  0.13440037738E+02  0.45189129450E+02  0.50000000000E+02  0.47000000000E+01 0.  1.
</event>
<event>
 5    1  0.9023675E-001  0.1000000E+03  0.7546771E-02  0.1163815E+00
         11   -1    0    0    0    0  0.00000000000E+00  0.00000000000E+00  0.50000000000E+02  0.50000000000E+02  0.00000000000E+00 0. -1.
        -11   -1    0    0    0    0 -0.00000000000E+00 -0.00000000000E+00 -0.50000000000E+02  0.50000000000E+02  0.00000000000E+00 0.  1.
         23    2    1    2    0    0  0.00000000000E+00  0.00000000000E+00  0.00000000000E+00  0.10000000000E+03  0.10000000000E+03 0.  0.
          5    1    3    3  501    0  0.46456717543E+02  0.17136265996E+02  0.51021351247E+01  0.50000000000E+02  0.47000000000E+01 0. -1.
         -5    1    3    3    0  501 -0.46456717543E+02 -0.17136265996E+02 -0.51021351247E+01  0.50000000000E+02  0.47000000000E+01 0.  1.
</event>
<event>
 5    1  0.9023675E-001  0.1000000E+03  0.7546771E-02  0.1163815E+00
         11   -1    0    0    0    0  0.00000000000E+00  0.00000000000E+00  0.50000000000E+02  0.50000000000E+02  0.00000000000E+00 0. -1.
        -11   -1    0    0    0    0 -0.00000000000E+00 -0.00000000000E+00 -0.50000000000E+02  0.50000000000E+02  0.00000000000E+00 0.  1.
         23    2    1    2    0    0  0.00000000000E+00  0.00000000000E+00  0.00000000000E+00  0.10000000000E+03  0.10000000000E+03 0.  0.
          5    1    3    3  501    0  0.22734304430E+02  0.35694274958E+02  0.26210305937E+02  0.50000000000E+02  0.47000000000E+01 0. -1.
         -5    1    3    3    0  501 -0.22734304430E+02 -0.35694274958E+02 -0.26210305937E+02  0.50000000000E+02  0.47000000000E+01 0.  1.
</event>
<event>
 5    1  0.9023675E-001  0.1000000E+03  0.7546771E-02  0.1163815E+00
         11   -1    0    0    0    0  0.00000000000E+00  0.00000000000E+00  0.50000000000E+02  0.50000000000E+02  0.00000000000E+00 0. -1.
        -11   -1    0    0    0    0 -0.00000000000E+00 -0.00000000000E+00 -0.50000000000E+02  0.50000000000E+02  0.00000000000E+00 0.  1.
         23    2    1    2    0    0  0.00000000000E+00  0.00000000000E+00  0.00000000000E+00  0.10000000000E+03  0.10000000000E+03 0.  0.
          5    1    3    3  501    0 -0.44706521636E+02 -0.33942748591E+01  0.21626738575E+02  0.50000000000E+02  0.47000000000E+01 0. -1.
         -5    1    3    3    0  501  0.44706521636E+02  0.33942748591E+01 -0.21626738575E+02  0.50000000000E+02  0.47000000000E+01 0.  1.
</event>
<event>
 5    1  0.9023675E-001  0.1000000E+03  0.7546771E-02  0.1163815E+00
         11   -1    0    0    0    0  0.00000000000E+00  0.00000000000E+00  0.50000000000E+02  0.50000000000E+02  0.00000000000E+00 0.  1.
        -11   -1    0    0    0    0 -0.00000000000E+00 -0.00000000000E+00 -0.50000000000E+02  0.50000000000E+02  0.00000000000E+00 0. -1.
         23    2    1    2    0    0  0.00000000000E+00  0.00000000000E+00  0.00000000000E+00  0.10000000000E+03  0.10000000000E+03 0.  0.
          5    1    3    3  501    0 -0.49311759001E+02 -0.30187768955E-01 -0.68014346193E+01  0.50000000000E+02  0.47000000000E+01 0. -1.
         -5    1    3    3    0  501  0.49311759001E+02  0.30187768955E-01  0.68014346193E+01  0.50000000000E+02  0.47000000000E+01 0.  1.
</event>
<event>
 5    1  0.9023675E-001  0.1000000E+03  0.7546771E-02  0.1163815E+00
         11   -1    0    0    0    0  0.00000000000E+00  0.00000000000E+00  0.50000000000E+02  0.50000000000E+02  0.00000000000E+00 0.  1.
        -11   -1    0    0    0    0 -0.00000000000E+00 -0.00000000000E+00 -0.50000000000E+02  0.50000000000E+02  0.00000000000E+00 0. -1.
         23    2    1    2    0    0  0.00000000000E+00  0.00000000000E+00  0.00000000000E+00  0.10000000000E+03  0.10000000000E+03 0.  0.
          5    1    3    3  501    0  0.65009983434E+01 -0.19151709937E+02 -0.45484712014E+02  0.50000000000E+02  0.47000000000E+01 0. -1.
         -5    1    3    3    0  501 -0.65009983434E+01  0.19151709937E+02  0.45484712014E+02  0.50000000000E+02  0.47000000000E+01 0.  1.
</event>
<event>
 5    1  0.9023675E-001  0.1000000E+03  0.7546771E-02  0.1163815E+00
         11   -1    0    0    0    0  0.00000000000E+00  0.00000000000E+00  0.50000000000E+02  0.50000000000E+02  0.00000000000E+00 0. -1.
        -11   -1    0    0    0    0 -0.00000000000E+00 -0.00000000000E+00 -0.50000000000E+02  0.50000000000E+02  0.00000000000E+00 0.  1.
         23    2    1    2    0    0  0.00000000000E+00  0.00000000000E+00  0.00000000000E+00  0.10000000000E+03  0.10000000000E+03 0.  0.
          5    1    3    3  501    0 -0.14685052692E+02 -0.47472900375E+02 -0.29296684793E+01  0.50000000000E+02  0.47000000000E+01 0. -1.
         -5    1    3    3    0  501  0.14685052692E+02  0.47472900375E+02  0.29296684793E+01  0.50000000000E+02  0.47000000000E+01 0.  1.
</event>
<event>
 5    1  0.9023675E-001  0.1000000E+03  0.7546771E-02  0.1163815E+00
         11   -1    0    0    0    0  0.00000000000E+00  0.00000000000E+00  0.50000000000E+02  0.50000000000E+02  0.00000000000E+00 0. -1.
        -11   -1    0    0    0    0 -0.00000000000E+00 -0.00000000000E+00 -0.50000000000E+02  0.50000000000E+02  0.00000000000E+00 0.  1.
         23    2    1    2    0    0  0.00000000000E+00  0.00000000000E+00  0.00000000000E+00  0.10000000000E+03  0.10000000000E+03 0.  0.
          5    1    3    3  501    0 -0.94309670264E+01 -0.31345608924E+02  0.37502262094E+02  0.50000000000E+02  0.47000000000E+01 0. -1.
         -5    1    3    3    0  501  0.94309670264E+01  0.31345608924E+02 -0.37502262094E+02  0.50000000000E+02  0.47000000000E+01 0.  1.
</event>
<event>
 5    1  0.9023675E-001  0.1000000E+03  0.7546771E-02  0.1163815E+00
         11   -1    0    0    0    0  0.00000000000E+00  0.00000000000E+00  0.50000000000E+02  0.50000000000E+02  0.00000000000E+00 0.  1.
        -11   -1    0    0    0    0 -0.00000000000E+00 -0.00000000000E+00 -0.50000000000E+02  0.50000000000E+02  0.00000000000E+00 0. -1.
         23    2    1    2    0    0  0.00000000000E+00  0.00000000000E+00  0.00000000000E+00  0.10000000000E+03  0.10000000000E+03 0.  0.
          5    1    3    3  501    0 -0.46990257739E+02  0.14985917282E+02 -0.67266604512E+01  0.50000000000E+02  0.47000000000E+01 0. -1.
         -5    1    3    3    0  501  0.46990257739E+02 -0.14985917282E+02  0.67266604512E+01  0.50000000000E+02  0.47000000000E+01 0.  1.
</event>
<event>
 5    1  0.9023675E-001  0.1000000E+03  0.7546771E-02  0.1163815E+00
         11   -1    0    0    0    0  0.00000000000E+00  0.00000000000E+00  0.50000000000E+02  0.50000000000E+02  0.00000000000E+00 0. -1.
        -11   -1    0    0    0    0 -0.00000000000E+00 -0.00000000000E+00 -0.50000000000E+02  0.50000000000E+02  0.00000000000E+00 0.  1.
         23    2    1    2    0    0  0.00000000000E+00  0.00000000000E+00  0.00000000000E+00  0.10000000000E+03  0.10000000000E+03 0.  0.
          5    1    3    3  501    0  0.64882382903E+01  0.34184194029E+02  0.35598506183E+02  0.50000000000E+02  0.47000000000E+01 0. -1.
         -5    1    3    3    0  501 -0.64882382903E+01 -0.34184194029E+02 -0.35598506183E+02  0.50000000000E+02  0.47000000000E+01 0.  1.
</event>
<event>
 5    1  0.9023675E-001  0.1000000E+03  0.7546771E-02  0.1163815E+00
         11   -1    0    0    0    0  0.00000000000E+00  0.00000000000E+00  0.50000000000E+02  0.50000000000E+02  0.00000000000E+00 0. -1.
        -11   -1    0    0    0    0 -0.00000000000E+00 -0.00000000000E+00 -0.50000000000E+02  0.50000000000E+02  0.00000000000E+00 0.  1.
         23    2    1    2    0    0  0.00000000000E+00  0.00000000000E+00  0.00000000000E+00  0.10000000000E+03  0.10000000000E+03 0.  0.
          5    1    3    3  501    0  0.30455384054E+02 -0.37229779131E+02  0.12818858294E+02  0.50000000000E+02  0.47000000000E+01 0. -1.
         -5    1    3    3    0  501 -0.30455384054E+02  0.37229779131E+02 -0.12818858294E+02  0.50000000000E+02  0.47000000000E+01 0.  1.
</event>
<event>
 5    1  0.9023675E-001  0.1000000E+03  0.7546771E-02  0.1163815E+00
         11   -1    0    0    0    0  0.00000000000E+00  0.00000000000E+00  0.50000000000E+02  0.50000000000E+02  0.00000000000E+00 0. -1.
        -11   -1    0    0    0    0 -0.00000000000E+00 -0.00000000000E+00 -0.50000000000E+02  0.50000000000E+02  0.00000000000E+00 0.  1.
         23    2    1    2    0    0  0.00000000000E+00  0.00000000000E+00  0.00000000000E+00  0.10000000000E+03  0.10000000000E+03 0.  0.
          5    1    3    3  501    0 -0.19354738436E+02  0.18772727924E+02  0.41843623007E+02  0.50000000000E+02  0.47000000000E+01 0. -1.
         -5    1    3    3    0  501  0.19354738436E+02 -0.18772727924E+02 -0.41843623007E+02  0.50000000000E+02  0.47000000000E+01 0.  1.
</event>
<event>
 5    1  0.9023675E-001  0.1000000E+03  0.7546771E-02  0.1163815E+00
         11   -1    0    0    0    0  0.00000000000E+00  0.00000000000E+00  0.50000000000E+02  0.50000000000E+02  0.00000000000E+00 0.  1.
        -11   -1    0    0    0    0 -0.00000000000E+00 -0.00000000000E+00 -0.50000000000E+02  0.50000000000E+02  0.00000000000E+00 0. -1.
         23    2    1    2    0    0  0.00000000000E+00  0.00000000000E+00  0.00000000000E+00  0.10000000000E+03  0.10000000000E+03 0.  0.
          5    1    3    3  501    0  0.13467876296E+02  0.17578996968E+02 -0.44581444275E+02  0.50000000000E+02  0.47000000000E+01 0. -1.
         -5    1    3    3    0  501 -0.13467876296E+02 -0.17578996968E+02  0.44581444275E+02  0.50000000000E+02  0.47000000000E+01 0.  1.
</event>
<event>
 5    1  0.9023675E-001  0.1000000E+03  0.7546771E-02  0.1163815E+00
         11   -1    0    0    0    0  0.00000000000E+00  0.00000000000E+00  0.50000000000E+02  0.50000000000E+02  0.00000000000E+00 0. -1.
        -11   -1    0    0    0    0 -0.00000000000E+00 -0.00000000000E+00 -0.50000000000E+02  0.50000000000E+02  0.00000000000E+00 0.  1.
         23    2    1    2    0    0  0.00000000000E+00  0.00000000000E+00  0.00000000000E+00  0.10000000000E+03  0.10000000000E+03 0.  0.
          5    1    3    3  501    0  0.43030914338E+02  0.10840876157E+02  0.22554951017E+02  0.50000000000E+02  0.47000000000E+01 0. -1.
         -5    1    3    3    0  501 -0.43030914338E+02 -0.10840876157E+02 -0.22554951017E+02  0.50000000000E+02  0.47000000000E+01 0.  1.
</event>
<event>
 5    1  0.9023675E-001  0.1000000E+03  0.7546771E-02  0.1163815E+00
         11   -1    0    0    0    0  0.00000000000E+00  0.00000000000E+00  0.50000000000E+02  0.50000000000E+02  0.00000000000E+00 0. -1.
        -11   -1    0    0    0    0 -0.00000000000E+00 -0.00000000000E+00 -0.50000000000E+02  0.50000000000E+02  0.00000000000E+00 0.  1.
         23    2    1    2    0    0  0.00000000000E+00  0.00000000000E+00  0.00000000000E+00  0.10000000000E+03  0.10000000000E+03 0.  0.
          5    1    3    3  501    0  0.40817830673E+01  0.46943065910E+02 -0.16049847663E+02  0.50000000000E+02  0.47000000000E+01 0. -1.
         -5    1    3    3    0  501 -0.40817830673E+01 -0.46943065910E+02  0.16049847663E+02  0.50000000000E+02  0.47000000000E+01 0.  1.
</event>
<event>
 5    1  0.9023675E-001  0.1000000E+03  0.7546771E-02  0.1163815E+00
         11   -1    0    0    0    0  0.00000000000E+00  0.00000000000E+00  0.50000000000E+02  0.50000000000E+02  0.00000000000E+00 0. -1.
        -11   -1    0    0    0    0 -0.00000000000E+00 -0.00000000000E+00 -0.50000000000E+02  0.50000000000E+02  0.00000000000E+00 0.  1.
         23    2    1    2    0    0  0.00000000000E+00  0.00000000000E+00  0.00000000000E+00  0.10000000000E+03  0.10000000000E+03 0.  0.
          5    1    3    3  501    0  0.25029053194E+02  0.41522587298E+02 -0.11284114511E+02  0.50000000000E+02  0.47000000000E+01 0. -1.
         -5    1    3    3    0  501 -0.25029053194E+02 -0.41522587298E+02  0.11284114511E+02  0.50000000000E+02  0.47000000000E+01 0.  1.
</event>
<event>
 5    1  0.9023675E-001  0.1000000E+03  0.7546771E-02  0.1163815E+00
         11   -1    0    0    0    0  0.00000000000E+00  0.00000000000E+00  0.50000000000E+02  0.50000000000E+02  0.00000000000E+00 0. -1.
        -11   -1    0    0    0    0 -0.00000000000E+00 -0.00000000000E+00 -0.50000000000E+02  0.50000000000E+02  0.00000000000E+00 0.  1.
         23    2    1    2    0    0  0.00000000000E+00  0.00000000000E+00  0.00000000000E+00  0.10000000000E+03  0.10000000000E+03 0.  0.
          5    1    3    3  501    0 -0.25786859221E+02 -0.23993590023E+01  0.42511068769E+02  0.50000000000E+02  0.47000000000E+01 0. -1.
         -5    1    3    3    0  501  0.25786859221E+02  0.23993590023E+01 -0.42511068769E+02  0.50000000000E+02  0.47000000000E+01 0.  1.
</event>
<event>
 5    1  0.9023675E-001  0.1000000E+03  0.7546771E-02  0.1163815E+00
         11   -1    0    0    0    0  0.00000000000E+00  0.00000000000E+00  0.50000000000E+02  0.50000000000E+02  0.00000000000E+00 0. -1.
        -11   -1    0    0    0    0 -0.00000000000E+00 -0.00000000000E+00 -0.50000000000E+02  0.50000000000E+02  0.00000000000E+00 0.  1.
         23    2    1    2    0    0  0.00000000000E+00  0.00000000000E+00  0.00000000000E+00  0.10000000000E+03  0.10000000000E+03 0.  0.
          5    1    3    3  501    0 -0.20385974037E+02  0.26802306546E+02  0.36660038548E+02  0.50000000000E+02  0.47000000000E+01 0. -1.
         -5    1    3    3    0  501  0.20385974037E+02 -0.26802306546E+02 -0.36660038548E+02  0.50000000000E+02  0.47000000000E+01 0.  1.
</event>
<event>
 5    1  0.9023675E-001  0.1000000E+03  0.7546771E-02  0.1163815E+00
         11   -1    0    0    0    0  0.00000000000E+00  0.00000000000E+00  0.50000000000E+02  0.50000000000E+02  0.00000000000E+00 0. -1.
        -11   -1    0    0    0    0 -0.00000000000E+00 -0.00000000000E+00 -0.50000000000E+02  0.50000000000E+02  0.00000000000E+00 0.  1.
         23    2    1    2    0    0  0.00000000000E+00  0.00000000000E+00  0.00000000000E+00  0.10000000000E+03  0.10000000000E+03 0.  0.
          5    1    3    3  501    0 -0.94573595512E+01 -0.27335056867E+02  0.40512504445E+02  0.50000000000E+02  0.47000000000E+01 0. -1.
         -5    1    3    3    0  501  0.94573595512E+01  0.27335056867E+02 -0.40512504445E+02  0.50000000000E+02  0.47000000000E+01 0.  1.
</event>
<event>
 5    1  0.9023675E-001  0.1000000E+03  0.7546771E-02  0.1163815E+00
         11   -1    0    0    0    0  0.00000000000E+00  0.00000000000E+00  0.50000000000E+02  0.50000000000E+02  0.00000000000E+00 0. -1.
        -11   -1    0    0    0    0 -0.00000000000E+00 -0.00000000000E+00 -0.50000000000E+02  0.50000000000E+02  0.00000000000E+00 0.  1.
         23    2    1    2    0    0  0.00000000000E+00  0.00000000000E+00  0.00000000000E+00  0.10000000000E+03  0.10000000000E+03 0.  0.
          5    1    3    3  501    0  0.17421565457E+02  0.22394568445E+02 -0.40900884601E+02  0.50000000000E+02  0.47000000000E+01 0. -1.
         -5    1    3    3    0  501 -0.17421565457E+02 -0.22394568445E+02  0.40900884601E+02  0.50000000000E+02  0.47000000000E+01 0.  1.
</event>
<event>
 5    1  0.9023675E-001  0.1000000E+03  0.7546771E-02  0.1163815E+00
         11   -1    0    0    0    0  0.00000000000E+00  0.00000000000E+00  0.50000000000E+02  0.50000000000E+02  0.00000000000E+00 0.  1.
        -11   -1    0    0    0    0 -0.00000000000E+00 -0.00000000000E+00 -0.50000000000E+02  0.50000000000E+02  0.00000000000E+00 0. -1.
         23    2    1    2    0    0  0.00000000000E+00  0.00000000000E+00  0.00000000000E+00  0.10000000000E+03  0.10000000000E+03 0.  0.
          5    1    3    3  501    0  0.19605881937E+02  0.21897784864E+02 -0.40174698649E+02  0.50000000000E+02  0.47000000000E+01 0. -1.
         -5    1    3    3    0  501 -0.19605881937E+02 -0.21897784864E+02  0.40174698649E+02  0.50000000000E+02  0.47000000000E+01 0.  1.
</event>
<event>
 5    1  0.9023675E-001  0.1000000E+03  0.7546771E-02  0.1163815E+00
         11   -1    0    0    0    0  0.00000000000E+00  0.00000000000E+00  0.50000000000E+02  0.50000000000E+02  0.00000000000E+00 0. -1.
        -11   -1    0    0    0    0 -0.00000000000E+00 -0.00000000000E+00 -0.50000000000E+02  0.50000000000E+02  0.00000000000E+00 0.  1.
         23    2    1    2    0    0  0.00000000000E+00  0.00000000000E+00  0.00000000000E+00  0.10000000000E+03  0.10000000000E+03 0.  0.
          5    1    3    3  501    0 -0.17339128136E+02 -0.42162072570E+02  0.19990604596E+02  0.50000000000E+02  0.47000000000E+01 0. -1.
         -5    1    3    3    0  501  0.17339128136E+02  0.42162072570E+02 -0.19990604596E+02  0.50000000000E+02  0.47000000000E+01 0.  1.
</event>
<event>
 5    1  0.9023675E-001  0.1000000E+03  0.7546771E-02  0.1163815E+00
         11   -1    0    0    0    0  0.00000000000E+00  0.00000000000E+00  0.50000000000E+02  0.50000000000E+02  0.00000000000E+00 0.  1.
        -11   -1    0    0    0    0 -0.00000000000E+00 -0.00000000000E+00 -0.50000000000E+02  0.50000000000E+02  0.00000000000E+00 0. -1.
         23    2    1    2    0    0  0.00000000000E+00  0.00000000000E+00  0.00000000000E+00  0.10000000000E+03  0.10000000000E+03 0.  0.
          5    1    3    3  501    0 -0.43531628769E+02 -0.23291752813E+02  0.63562211776E+01  0.50000000000E+02  0.47000000000E+01 0. -1.
         -5    1    3    3    0  501  0.43531628769E+02  0.23291752813E+02 -0.63562211776E+01  0.50000000000E+02  0.47000000000E+01 0.  1.
</event>
<event>
 5    1  0.9023675E-001  0.1000000E+03  0.7546771E-02  0.1163815E+00
         11   -1    0    0    0    0  0.00000000000E+00  0.00000000000E+00  0.50000000000E+02  0.50000000000E+02  0.00000000000E+00 0. -1.
        -11   -1    0    0    0    0 -0.00000000000E+00 -0.00000000000E+00 -0.50000000000E+02  0.50000000000E+02  0.00000000000E+00 0.  1.
         23    2    1    2    0    0  0.00000000000E+00  0.00000000000E+00  0.00000000000E+00  0.10000000000E+03  0.10000000000E+03 0.  0.
          5    1    3    3  501    0 -0.77748490122E+01  0.28394290404E+02  0.40140079662E+02  0.50000000000E+02  0.47000000000E+01 0. -1.
         -5    1    3    3    0  501  0.77748490122E+01 -0.28394290404E+02 -0.40140079662E+02  0.50000000000E+02  0.47000000000E+01 0.  1.
</event>
<event>
 5    1  0.9023675E-001  0.1000000E+03  0.7546771E-02  0.1163815E+00
         11   -1    0    0    0    0  0.00000000000E+00  0.00000000000E+00  0.50000000000E+02  0.50000000000E+02  0.00000000000E+00 0. -1.
        -11   -1    0    0    0    0 -0.00000000000E+00 -0.00000000000E+00 -0.50000000000E+02  0.50000000000E+02  0.00000000000E+00 0.  1.
         23    2    1    2    0    0  0.00000000000E+00  0.00000000000E+00  0.00000000000E+00  0.10000000000E+03  0.10000000000E+03 0.  0.
          5    1    3    3  501    0  0.27892748507E+02  0.38663424299E+02  0.14319364587E+02  0.50000000000E+02  0.47000000000E+01 0. -1.
         -5    1    3    3    0  501 -0.27892748507E+02 -0.38663424299E+02 -0.14319364587E+02  0.50000000000E+02  0.47000000000E+01 0.  1.
</event>
<event>
 5    1  0.9023675E-001  0.1000000E+03  0.7546771E-02  0.1163815E+00
         11   -1    0    0    0    0  0.00000000000E+00  0.00000000000E+00  0.50000000000E+02  0.50000000000E+02  0.00000000000E+00 0. -1.
        -11   -1    0    0    0    0 -0.00000000000E+00 -0.00000000000E+00 -0.50000000000E+02  0.50000000000E+02  0.00000000000E+00 0.  1.
         23    2    1    2    0    0  0.00000000000E+00  0.00000000000E+00  0.00000000000E+00  0.10000000000E+03  0.10000000000E+03 0.  0.
          5    1    3    3  501    0 -0.63932066333E+01  0.19831423100E+02  0.45207870629E+02  0.50000000000E+02  0.47000000000E+01 0. -1.
         -5    1    3    3    0  501  0.63932066333E+01 -0.19831423100E+02 -0.45207870629E+02  0.50000000000E+02  0.47000000000E+01 0.  1.
</event>
<event>
 5    1  0.9023675E-001  0.1000000E+03  0.7546771E-02  0.1163815E+00
         11   -1    0    0    0    0  0.00000000000E+00  0.00000000000E+00  0.50000000000E+02  0.50000000000E+02  0.00000000000E+00 0. -1.
        -11   -1    0    0    0    0 -0.00000000000E+00 -0.00000000000E+00 -0.50000000000E+02  0.50000000000E+02  0.00000000000E+00 0.  1.
         23    2    1    2    0    0  0.00000000000E+00  0.00000000000E+00  0.00000000000E+00  0.10000000000E+03  0.10000000000E+03 0.  0.
          5    1    3    3  501    0  0.32031307426E+01 -0.34010231825E+02  0.36207099921E+02  0.50000000000E+02  0.47000000000E+01 0. -1.
         -5    1    3    3    0  501 -0.32031307426E+01  0.34010231825E+02 -0.36207099921E+02  0.50000000000E+02  0.47000000000E+01 0.  1.
</event>
<event>
 5    1  0.9023675E-001  0.1000000E+03  0.7546771E-02  0.1163815E+00
         11   -1    0    0    0    0  0.00000000000E+00  0.00000000000E+00  0.50000000000E+02  0.50000000000E+02  0.00000000000E+00 0. -1.
        -11   -1    0    0    0    0 -0.00000000000E+00 -0.00000000000E+00 -0.50000000000E+02  0.50000000000E+02  0.00000000000E+00 0.  1.
         23    2    1    2    0    0  0.00000000000E+00  0.00000000000E+00  0.00000000000E+00  0.10000000000E+03  0.10000000000E+03 0.  0.
          5    1    3    3  501    0  0.11560726855E+02  0.35668137885E+02  0.32742075902E+02  0.50000000000E+02  0.47000000000E+01 0. -1.
         -5    1    3    3    0  501 -0.11560726855E+02 -0.35668137885E+02 -0.32742075902E+02  0.50000000000E+02  0.47000000000E+01 0.  1.
</event>
<event>
 5    1  0.9023675E-001  0.1000000E+03  0.7546771E-02  0.1163815E+00
         11   -1    0    0    0    0  0.00000000000E+00  0.00000000000E+00  0.50000000000E+02  0.50000000000E+02  0.00000000000E+00 0. -1.
        -11   -1    0    0    0    0 -0.00000000000E+00 -0.00000000000E+00 -0.50000000000E+02  0.50000000000E+02  0.00000000000E+00 0.  1.
         23    2    1    2    0    0  0.00000000000E+00  0.00000000000E+00  0.00000000000E+00  0.10000000000E+03  0.10000000000E+03 0.  0.
          5    1    3    3  501    0  0.13745796873E+02  0.39275550898E+02  0.27320215409E+02  0.50000000000E+02  0.47000000000E+01 0. -1.
         -5    1    3    3    0  501 -0.13745796873E+02 -0.39275550898E+02 -0.27320215409E+02  0.50000000000E+02  0.47000000000E+01 0.  1.
</event>
<event>
 5    1  0.9023675E-001  0.1000000E+03  0.7546771E-02  0.1163815E+00
         11   -1    0    0    0    0  0.00000000000E+00  0.00000000000E+00  0.50000000000E+02  0.50000000000E+02  0.00000000000E+00 0.  1.
        -11   -1    0    0    0    0 -0.00000000000E+00 -0.00000000000E+00 -0.50000000000E+02  0.50000000000E+02  0.00000000000E+00 0. -1.
         23    2    1    2    0    0  0.00000000000E+00  0.00000000000E+00  0.00000000000E+00  0.10000000000E+03  0.10000000000E+03 0.  0.
          5    1    3    3  501    0  0.39917561828E+02 -0.99542693391E+01 -0.28025181170E+02  0.50000000000E+02  0.47000000000E+01 0. -1.
         -5    1    3    3    0  501 -0.39917561828E+02  0.99542693391E+01  0.28025181170E+02  0.50000000000E+02  0.47000000000E+01 0.  1.
</event>
<event>
 5    1  0.9023675E-001  0.1000000E+03  0.7546771E-02  0.1163815E+00
         11   -1    0    0    0    0  0.00000000000E+00  0.00000000000E+00  0.50000000000E+02  0.50000000000E+02  0.00000000000E+00 0.  1.
        -11   -1    0    0    0    0 -0.00000000000E+00 -0.00000000000E+00 -0.50000000000E+02  0.50000000000E+02  0.00000000000E+00 0. -1.
         23    2    1    2    0    0  0.00000000000E+00  0.00000000000E+00  0.00000000000E+00  0.10000000000E+03  0.10000000000E+03 0.  0.
          5    1    3    3  501    0  0.39490550080E+02  0.30294253954E+02 -0.81524948839E+00  0.50000000000E+02  0.47000000000E+01 0. -1.
         -5    1    3    3    0  501 -0.39490550080E+02 -0.30294253954E+02  0.81524948839E+00  0.50000000000E+02  0.47000000000E+01 0.  1.
</event>
<event>
 5    1  0.9023675E-001  0.1000000E+03  0.7546771E-02  0.1163815E+00
         11   -1    0    0    0    0  0.00000000000E+00  0.00000000000E+00  0.50000000000E+02  0.50000000000E+02  0.00000000000E+00 0. -1.
        -11   -1    0    0    0    0 -0.00000000000E+00 -0.00000000000E+00 -0.50000000000E+02  0.50000000000E+02  0.00000000000E+00 0.  1.
         23    2    1    2    0    0  0.00000000000E+00  0.00000000000E+00  0.00000000000E+00  0.10000000000E+03  0.10000000000E+03 0.  0.
          5    1    3    3  501    0 -0.98770418275E+01 -0.27916067587E+02  0.40013088049E+02  0.50000000000E+02  0.47000000000E+01 0. -1.
         -5    1    3    3    0  501  0.98770418275E+01  0.27916067587E+02 -0.40013088049E+02  0.50000000000E+02  0.47000000000E+01 0.  1.
</event>
<event>
 5    1  0.9023675E-001  0.1000000E+03  0.7546771E-02  0.1163815E+00
         11   -1    0    0    0    0  0.00000000000E+00  0.00000000000E+00  0.50000000000E+02  0.50000000000E+02  0.00000000000E+00 0. -1.
        -11   -1    0    0    0    0 -0.00000000000E+00 -0.00000000000E+00 -0.50000000000E+02  0.50000000000E+02  0.00000000000E+00 0.  1.
         23    2    1    2    0    0  0.00000000000E+00  0.00000000000E+00  0.00000000000E+00  0.10000000000E+03  0.10000000000E+03 0.  0.
          5    1    3    3  501    0  0.47586352084E+02 -0.46795569406E+01  0.13840189385E+02  0.50000000000E+02  0.47000000000E+01 0. -1.
         -5    1    3    3    0  501 -0.47586352084E+02  0.46795569406E+01 -0.13840189385E+02  0.50000000000E+02  0.47000000000E+01 0.  1.
</event>
<event>
 5    1  0.9023675E-001  0.1000000E+03  0.7546771E-02  0.1163815E+00
         11   -1    0    0    0    0  0.00000000000E+00  0.00000000000E+00  0.50000000000E+02  0.50000000000E+02  0.00000000000E+00 0. -1.
        -11   -1    0    0    0    0 -0.00000000000E+00 -0.00000000000E+00 -0.50000000000E+02  0.50000000000E+02  0.00000000000E+00 0.  1.
         23    2    1    2    0    0  0.00000000000E+00  0.00000000000E+00  0.00000000000E+00  0.10000000000E+03  0.10000000000E+03 0.  0.
          5    1    3    3  501    0  0.19488201761E+02 -0.45047396715E+02 -0.82977130190E+01  0.50000000000E+02  0.47000000000E+01 0. -1.
         -5    1    3    3    0  501 -0.19488201761E+02  0.45047396715E+02  0.82977130190E+01  0.50000000000E+02  0.47000000000E+01 0.  1.
</event>
<event>
 5    1  0.9023675E-001  0.1000000E+03  0.7546771E-02  0.1163815E+00
         11   -1    0    0    0    0  0.00000000000E+00  0.00000000000E+00  0.50000000000E+02  0.50000000000E+02  0.00000000000E+00 0. -1.
        -11   -1    0    0    0    0 -0.00000000000E+00 -0.00000000000E+00 -0.50000000000E+02  0.50000000000E+02  0.00000000000E+00 0.  1.
         23    2    1    2    0    0  0.00000000000E+00  0.00000000000E+00  0.00000000000E+00  0.10000000000E+03  0.10000000000E+03 0.  0.
          5    1    3    3  501    0 -0.15480026983E+02 -0.36384901721E+02  0.30239340128E+02  0.50000000000E+02  0.47000000000E+01 0. -1.
         -5    1    3    3    0  501  0.15480026983E+02  0.36384901721E+02 -0.30239340128E+02  0.50000000000E+02  0.47000000000E+01 0.  1.
</event>
<event>
 5    1  0.9023675E-001  0.1000000E+03  0.7546771E-02  0.1163815E+00
         11   -1    0    0    0    0  0.00000000000E+00  0.00000000000E+00  0.50000000000E+02  0.50000000000E+02  0.00000000000E+00 0.  1.
        -11   -1    0    0    0    0 -0.00000000000E+00 -0.00000000000E+00 -0.50000000000E+02  0.50000000000E+02  0.00000000000E+00 0. -1.
         23    2    1    2    0    0  0.00000000000E+00  0.00000000000E+00  0.00000000000E+00  0.10000000000E+03  0.10000000000E+03 0.  0.
          5    1    3    3  501    0  0.66833274535E+01 -0.46011758387E+02 -0.17780923044E+02  0.50000000000E+02  0.47000000000E+01 0. -1.
         -5    1    3    3    0  501 -0.66833274535E+01  0.46011758387E+02  0.17780923044E+02  0.50000000000E+02  0.47000000000E+01 0.  1.
</event>
<event>
 5    1  0.9023675E-001  0.1000000E+03  0.7546771E-02  0.1163815E+00
         11   -1    0    0    0    0  0.00000000000E+00  0.00000000000E+00  0.50000000000E+02  0.50000000000E+02  0.00000000000E+00 0. -1.
        -11   -1    0    0    0    0 -0.00000000000E+00 -0.00000000000E+00 -0.50000000000E+02  0.50000000000E+02  0.00000000000E+00 0.  1.
         23    2    1    2    0    0  0.00000000000E+00  0.00000000000E+00  0.00000000000E+00  0.10000000000E+03  0.10000000000E+03 0.  0.
          5    1    3    3  501    0 -0.34976615338E+02  0.38652307720E+01  0.35208044118E+02  0.50000000000E+02  0.47000000000E+01 0. -1.
         -5    1    3    3    0  501  0.34976615338E+02 -0.38652307720E+01 -0.35208044118E+02  0.50000000000E+02  0.47000000000E+01 0.  1.
</event>
<event>
 5    1  0.9023675E-001  0.1000000E+03  0.7546771E-02  0.1163815E+00
         11   -1    0    0    0    0  0.00000000000E+00  0.00000000000E+00  0.50000000000E+02  0.50000000000E+02  0.00000000000E+00 0. -1.
        -11   -1    0    0    0    0 -0.00000000000E+00 -0.00000000000E+00 -0.50000000000E+02  0.50000000000E+02  0.00000000000E+00 0.  1.
         23    2    1    2    0    0  0.00000000000E+00  0.00000000000E+00  0.00000000000E+00  0.10000000000E+03  0.10000000000E+03 0.  0.
          5    1    3    3  501    0 -0.42167128974E+02  0.26245685795E+02 -0.33177117445E+01  0.50000000000E+02  0.47000000000E+01 0. -1.
         -5    1    3    3    0  501  0.42167128974E+02 -0.26245685795E+02  0.33177117445E+01  0.50000000000E+02  0.47000000000E+01 0.  1.
</event>
<event>
 5    1  0.9023675E-001  0.1000000E+03  0.7546771E-02  0.1163815E+00
         11   -1    0    0    0    0  0.00000000000E+00  0.00000000000E+00  0.50000000000E+02  0.50000000000E+02  0.00000000000E+00 0. -1.
        -11   -1    0    0    0    0 -0.00000000000E+00 -0.00000000000E+00 -0.50000000000E+02  0.50000000000E+02  0.00000000000E+00 0.  1.
         23    2    1    2    0    0  0.00000000000E+00  0.00000000000E+00  0.00000000000E+00  0.10000000000E+03  0.10000000000E+03 0.  0.
          5    1    3    3  501    0  0.15853091576E+02  0.40421004817E+02  0.24346085046E+02  0.50000000000E+02  0.47000000000E+01 0. -1.
         -5    1    3    3    0  501 -0.15853091576E+02 -0.40421004817E+02 -0.24346085046E+02  0.50000000000E+02  0.47000000000E+01 0.  1.
</event>
<event>
 5    1  0.9023675E-001  0.1000000E+03  0.7546771E-02  0.1163815E+00
         11   -1    0    0    0    0  0.00000000000E+00  0.00000000000E+00  0.50000000000E+02  0.50000000000E+02  0.00000000000E+00 0. -1.
        -11   -1    0    0    0    0 -0.00000000000E+00 -0.00000000000E+00 -0.50000000000E+02  0.50000000000E+02  0.00000000000E+00 0.  1.
         23    2    1    2    0    0  0.00000000000E+00  0.00000000000E+00  0.00000000000E+00  0.10000000000E+03  0.10000000000E+03 0.  0.
          5    1    3    3  501    0  0.39394046251E+02  0.23858725425E+02  0.18888629940E+02  0.50000000000E+02  0.47000000000E+01 0. -1.
         -5    1    3    3    0  501 -0.39394046251E+02 -0.23858725425E+02 -0.18888629940E+02  0.50000000000E+02  0.47000000000E+01 0.  1.
</event>
<event>
 5    1  0.9023675E-001  0.1000000E+03  0.7546771E-02  0.1163815E+00
         11   -1    0    0    0    0  0.00000000000E+00  0.00000000000E+00  0.50000000000E+02  0.50000000000E+02  0.00000000000E+00 0. -1.
        -11   -1    0    0    0    0 -0.00000000000E+00 -0.00000000000E+00 -0.50000000000E+02  0.50000000000E+02  0.00000000000E+00 0.  1.
         23    2    1    2    0    0  0.00000000000E+00  0.00000000000E+00  0.00000000000E+00  0.10000000000E+03  0.10000000000E+03 0.  0.
          5    1    3    3  501    0  0.40647522882E+02  0.10196525024E+02  0.26864842471E+02  0.50000000000E+02  0.47000000000E+01 0. -1.
         -5    1    3    3    0  501 -0.40647522882E+02 -0.10196525024E+02 -0.26864842471E+02  0.50000000000E+02  0.47000000000E+01 0.  1.
</event>
<event>
 5    1  0.9023675E-001  0.1000000E+03  0.7546771E-02  0.1163815E+00
         11   -1    0    0    0    0  0.00000000000E+00  0.00000000000E+00  0.50000000000E+02  0.50000000000E+02  0.00000000000E+00 0.  1.
        -11   -1    0    0    0    0 -0.00000000000E+00 -0.00000000000E+00 -0.50000000000E+02  0.50000000000E+02  0.00000000000E+00 0. -1.
         23    2    1    2    0    0  0.00000000000E+00  0.00000000000E+00  0.00000000000E+00  0.10000000000E+03  0.10000000000E+03 0.  0.
          5    1    3    3  501    0  0.57387282150E+01 -0.35093466491E+02 -0.34834259115E+02  0.50000000000E+02  0.47000000000E+01 0. -1.
         -5    1    3    3    0  501 -0.57387282150E+01  0.35093466491E+02  0.34834259115E+02  0.50000000000E+02  0.47000000000E+01 0.  1.
</event>
<event>
 5    1  0.9023675E-001  0.1000000E+03  0.7546771E-02  0.1163815E+00
         11   -1    0    0    0    0  0.00000000000E+00  0.00000000000E+00  0.50000000000E+02  0.50000000000E+02  0.00000000000E+00 0.  1.
        -11   -1    0    0    0    0 -0.00000000000E+00 -0.00000000000E+00 -0.50000000000E+02  0.50000000000E+02  0.00000000000E+00 0. -1.
         23    2    1    2    0    0  0.00000000000E+00  0.00000000000E+00  0.00000000000E+00  0.10000000000E+03  0.10000000000E+03 0.  0.
          5    1    3    3  501    0  0.12496859884E+02 -0.48101483465E+02 -0.28259125055E+01  0.50000000000E+02  0.47000000000E+01 0. -1.
         -5    1    3    3    0  501 -0.12496859884E+02  0.48101483465E+02  0.28259125055E+01  0.50000000000E+02  0.47000000000E+01 0.  1.
</event>
<event>
 5    1  0.9023675E-001  0.1000000E+03  0.7546771E-02  0.1163815E+00
         11   -1    0    0    0    0  0.00000000000E+00  0.00000000000E+00  0.50000000000E+02  0.50000000000E+02  0.00000000000E+00 0.  1.
        -11   -1    0    0    0    0 -0.00000000000E+00 -0.00000000000E+00 -0.50000000000E+02  0.50000000000E+02  0.00000000000E+00 0. -1.
         23    2    1    2    0    0  0.00000000000E+00  0.00000000000E+00  0.00000000000E+00  0.10000000000E+03  0.10000000000E+03 0.  0.
          5    1    3    3  501    0 -0.21262125463E+02 -0.44540235689E+02 -0.64806963770E+01  0.50000000000E+02  0.47000000000E+01 0. -1.
         -5    1    3    3    0  501  0.21262125463E+02  0.44540235689E+02  0.64806963770E+01  0.50000000000E+02  0.47000000000E+01 0.  1.
</event>
<event>
 5    1  0.9023675E-001  0.1000000E+03  0.7546771E-02  0.1163815E+00
         11   -1    0    0    0    0  0.00000000000E+00  0.00000000000E+00  0.50000000000E+02  0.50000000000E+02  0.00000000000E+00 0.  1.
        -11   -1    0    0    0    0 -0.00000000000E+00 -0.00000000000E+00 -0.50000000000E+02  0.50000000000E+02  0.00000000000E+00 0. -1.
         23    2    1    2    0    0  0.00000000000E+00  0.00000000000E+00  0.00000000000E+00  0.10000000000E+03  0.10000000000E+03 0.  0.
          5    1    3    3  501    0  0.43825151624E+01 -0.31249512724E+02  0.38498980705E+02  0.50000000000E+02  0.47000000000E+01 0.  1.
         -5    1    3    3    0  501 -0.43825151624E+01  0.31249512724E+02 -0.38498980705E+02  0.50000000000E+02  0.47000000000E+01 0. -1.
</event>
<event>
 5    1  0.9023675E-001  0.1000000E+03  0.7546771E-02  0.1163815E+00
         11   -1    0    0    0    0  0.00000000000E+00  0.00000000000E+00  0.50000000000E+02  0.50000000000E+02  0.00000000000E+00 0.  1.
        -11   -1    0    0    0    0 -0.00000000000E+00 -0.00000000000E+00 -0.50000000000E+02  0.50000000000E+02  0.00000000000E+00 0. -1.
         23    2    1    2    0    0  0.00000000000E+00  0.00000000000E+00  0.00000000000E+00  0.10000000000E+03  0.10000000000E+03 0.  0.
          5    1    3    3  501    0  0.90225237820E+01  0.22240691296E+02 -0.43610270755E+02  0.50000000000E+02  0.47000000000E+01 0. -1.
         -5    1    3    3    0  501 -0.90225237820E+01 -0.22240691296E+02  0.43610270755E+02  0.50000000000E+02  0.47000000000E+01 0.  1.
</event>
<event>
 5    1  0.9023675E-001  0.1000000E+03  0.7546771E-02  0.1163815E+00
         11   -1    0    0    0    0  0.00000000000E+00  0.00000000000E+00  0.50000000000E+02  0.50000000000E+02  0.00000000000E+00 0.  1.
        -11   -1    0    0    0    0 -0.00000000000E+00 -0.00000000000E+00 -0.50000000000E+02  0.50000000000E+02  0.00000000000E+00 0. -1.
         23    2    1    2    0    0  0.00000000000E+00  0.00000000000E+00  0.00000000000E+00  0.10000000000E+03  0.10000000000E+03 0.  0.
          5    1    3    3  501    0  0.75670485644E+00  0.19758846028E+02  0.45682878646E+02  0.50000000000E+02  0.47000000000E+01 0.  1.
         -5    1    3    3    0  501 -0.75670485644E+00 -0.19758846028E+02 -0.45682878646E+02  0.50000000000E+02  0.47000000000E+01 0. -1.
</event>
<event>
 5    1  0.9023675E-001  0.1000000E+03  0.7546771E-02  0.1163815E+00
         11   -1    0    0    0    0  0.00000000000E+00  0.00000000000E+00  0.50000000000E+02  0.50000000000E+02  0.00000000000E+00 0. -1.
        -11   -1    0    0    0    0 -0.00000000000E+00 -0.00000000000E+00 -0.50000000000E+02  0.50000000000E+02  0.00000000000E+00 0.  1.
         23    2    1    2    0    0  0.00000000000E+00  0.00000000000E+00  0.00000000000E+00  0.10000000000E+03  0.10000000000E+03 0.  0.
          5    1    3    3  501    0  0.23302242613E+02 -0.10316101933E+02  0.42760887855E+02  0.50000000000E+02  0.47000000000E+01 0. -1.
         -5    1    3    3    0  501 -0.23302242613E+02  0.10316101933E+02 -0.42760887855E+02  0.50000000000E+02  0.47000000000E+01 0.  1.
</event>
<event>
 5    1  0.9023675E-001  0.1000000E+03  0.7546771E-02  0.1163815E+00
         11   -1    0    0    0    0  0.00000000000E+00  0.00000000000E+00  0.50000000000E+02  0.50000000000E+02  0.00000000000E+00 0. -1.
        -11   -1    0    0    0    0 -0.00000000000E+00 -0.00000000000E+00 -0.50000000000E+02  0.50000000000E+02  0.00000000000E+00 0.  1.
         23    2    1    2    0    0  0.00000000000E+00  0.00000000000E+00  0.00000000000E+00  0.10000000000E+03  0.10000000000E+03 0.  0.
          5    1    3    3  501    0  0.43459007151E+02 -0.10181454451E+02  0.22035486894E+02  0.50000000000E+02  0.47000000000E+01 0. -1.
         -5    1    3    3    0  501 -0.43459007151E+02  0.10181454451E+02 -0.22035486894E+02  0.50000000000E+02  0.47000000000E+01 0.  1.
</event>
<event>
 5    1  0.9023675E-001  0.1000000E+03  0.7546771E-02  0.1163815E+00
         11   -1    0    0    0    0  0.00000000000E+00  0.00000000000E+00  0.50000000000E+02  0.50000000000E+02  0.00000000000E+00 0.  1.
        -11   -1    0    0    0    0 -0.00000000000E+00 -0.00000000000E+00 -0.50000000000E+02  0.50000000000E+02  0.00000000000E+00 0. -1.
         23    2    1    2    0    0  0.00000000000E+00  0.00000000000E+00  0.00000000000E+00  0.10000000000E+03  0.10000000000E+03 0.  0.
          5    1    3    3  501    0 -0.23069257785E+02  0.16082951521E+02 -0.41073811798E+02  0.50000000000E+02  0.47000000000E+01 0. -1.
         -5    1    3    3    0  501  0.23069257785E+02 -0.16082951521E+02  0.41073811798E+02  0.50000000000E+02  0.47000000000E+01 0.  1.
</event>
<event>
 5    1  0.9023675E-001  0.1000000E+03  0.7546771E-02  0.1163815E+00
         11   -1    0    0    0    0  0.00000000000E+00  0.00000000000E+00  0.50000000000E+02  0.50000000000E+02  0.00000000000E+00 0.  1.
        -11   -1    0    0    0    0 -0.00000000000E+00 -0.00000000000E+00 -0.50000000000E+02  0.50000000000E+02  0.00000000000E+00 0. -1.
         23    2    1    2    0    0  0.00000000000E+00  0.00000000000E+00  0.00000000000E+00  0.10000000000E+03  0.10000000000E+03 0.  0.
          5    1    3    3  501    0 -0.13424131503E+02 -0.64345455569E+01 -0.47500519122E+02  0.50000000000E+02  0.47000000000E+01 0. -1.
         -5    1    3    3    0  501  0.13424131503E+02  0.64345455569E+01  0.47500519122E+02  0.50000000000E+02  0.47000000000E+01 0.  1.
</event>
<event>
 5    1  0.9023675E-001  0.1000000E+03  0.7546771E-02  0.1163815E+00
         11   -1    0    0    0    0  0.00000000000E+00  0.00000000000E+00  0.50000000000E+02  0.50000000000E+02  0.00000000000E+00 0.  1.
        -11   -1    0    0    0    0 -0.00000000000E+00 -0.00000000000E+00 -0.50000000000E+02  0.50000000000E+02  0.00000000000E+00 0. -1.
         23    2    1    2    0    0  0.00000000000E+00  0.00000000000E+00  0.00000000000E+00  0.10000000000E+03  0.10000000000E+03 0.  0.
          5    1    3    3  501    0  0.40571824696E+02  0.24514257688E+02  0.15195006114E+02  0.50000000000E+02  0.47000000000E+01 0. -1.
         -5    1    3    3    0  501 -0.40571824696E+02 -0.24514257688E+02 -0.15195006114E+02  0.50000000000E+02  0.47000000000E+01 0.  1.
</event>
<event>
 5    1  0.9023675E-001  0.1000000E+03  0.7546771E-02  0.1163815E+00
         11   -1    0    0    0    0  0.00000000000E+00  0.00000000000E+00  0.50000000000E+02  0.50000000000E+02  0.00000000000E+00 0. -1.
        -11   -1    0    0    0    0 -0.00000000000E+00 -0.00000000000E+00 -0.50000000000E+02  0.50000000000E+02  0.00000000000E+00 0.  1.
         23    2    1    2    0    0  0.00000000000E+00  0.00000000000E+00  0.00000000000E+00  0.10000000000E+03  0.10000000000E+03 0.  0.
          5    1    3    3  501    0  0.25910100227E+02  0.39441983874E+02 -0.15840032017E+02  0.50000000000E+02  0.47000000000E+01 0. -1.
         -5    1    3    3    0  501 -0.25910100227E+02 -0.39441983874E+02  0.15840032017E+02  0.50000000000E+02  0.47000000000E+01 0.  1.
</event>
<event>
 5    1  0.9023675E-001  0.1000000E+03  0.7546771E-02  0.1163815E+00
         11   -1    0    0    0    0  0.00000000000E+00  0.00000000000E+00  0.50000000000E+02  0.50000000000E+02  0.00000000000E+00 0. -1.
        -11   -1    0    0    0    0 -0.00000000000E+00 -0.00000000000E+00 -0.50000000000E+02  0.50000000000E+02  0.00000000000E+00 0.  1.
         23    2    1    2    0    0  0.00000000000E+00  0.00000000000E+00  0.00000000000E+00  0.10000000000E+03  0.10000000000E+03 0.  0.
          5    1    3    3  501    0 -0.20943609190E+02  0.32415688232E+02  0.31440394249E+02  0.50000000000E+02  0.47000000000E+01 0. -1.
         -5    1    3    3    0  501  0.20943609190E+02 -0.32415688232E+02 -0.31440394249E+02  0.50000000000E+02  0.47000000000E+01 0.  1.
</event>
<event>
 5    1  0.9023675E-001  0.1000000E+03  0.7546771E-02  0.1163815E+00
         11   -1    0    0    0    0  0.00000000000E+00  0.00000000000E+00  0.50000000000E+02  0.50000000000E+02  0.00000000000E+00 0. -1.
        -11   -1    0    0    0    0 -0.00000000000E+00 -0.00000000000E+00 -0.50000000000E+02  0.50000000000E+02  0.00000000000E+00 0.  1.
         23    2    1    2    0    0  0.00000000000E+00  0.00000000000E+00  0.00000000000E+00  0.10000000000E+03  0.10000000000E+03 0.  0.
          5    1    3    3  501    0  0.30849316495E+02  0.14469451926E+01  0.39040184700E+02  0.50000000000E+02  0.47000000000E+01 0. -1.
         -5    1    3    3    0  501 -0.30849316495E+02 -0.14469451926E+01 -0.39040184700E+02  0.50000000000E+02  0.47000000000E+01 0.  1.
</event>
<event>
 5    1  0.9023675E-001  0.1000000E+03  0.7546771E-02  0.1163815E+00
         11   -1    0    0    0    0  0.00000000000E+00  0.00000000000E+00  0.50000000000E+02  0.50000000000E+02  0.00000000000E+00 0.  1.
        -11   -1    0    0    0    0 -0.00000000000E+00 -0.00000000000E+00 -0.50000000000E+02  0.50000000000E+02  0.00000000000E+00 0. -1.
         23    2    1    2    0    0  0.00000000000E+00  0.00000000000E+00  0.00000000000E+00  0.10000000000E+03  0.10000000000E+03 0.  0.
          5    1    3    3  501    0 -0.91662067099E+01  0.26967241786E+02 -0.40824729332E+02  0.50000000000E+02  0.47000000000E+01 0. -1.
         -5    1    3    3    0  501  0.91662067099E+01 -0.26967241786E+02  0.40824729332E+02  0.50000000000E+02  0.47000000000E+01 0.  1.
</event>
<event>
 5    1  0.9023675E-001  0.1000000E+03  0.7546771E-02  0.1163815E+00
         11   -1    0    0    0    0  0.00000000000E+00  0.00000000000E+00  0.50000000000E+02  0.50000000000E+02  0.00000000000E+00 0. -1.
        -11   -1    0    0    0    0 -0.00000000000E+00 -0.00000000000E+00 -0.50000000000E+02  0.50000000000E+02  0.00000000000E+00 0.  1.
         23    2    1    2    0    0  0.00000000000E+00  0.00000000000E+00  0.00000000000E+00  0.10000000000E+03  0.10000000000E+03 0.  0.
          5    1    3    3  501    0  0.33578250524E+02 -0.33370454340E+02  0.15389082783E+02  0.50000000000E+02  0.47000000000E+01 0. -1.
         -5    1    3    3    0  501 -0.33578250524E+02  0.33370454340E+02 -0.15389082783E+02  0.50000000000E+02  0.47000000000E+01 0.  1.
</event>
<event>
 5    1  0.9023675E-001  0.1000000E+03  0.7546771E-02  0.1163815E+00
         11   -1    0    0    0    0  0.00000000000E+00  0.00000000000E+00  0.50000000000E+02  0.50000000000E+02  0.00000000000E+00 0. -1.
        -11   -1    0    0    0    0 -0.00000000000E+00 -0.00000000000E+00 -0.50000000000E+02  0.50000000000E+02  0.00000000000E+00 0.  1.
         23    2    1    2    0    0  0.00000000000E+00  0.00000000000E+00  0.00000000000E+00  0.10000000000E+03  0.10000000000E+03 0.  0.
          5    1    3    3  501    0  0.56144225014E+01  0.47665134143E+02  0.13206939354E+02  0.50000000000E+02  0.47000000000E+01 0. -1.
         -5    1    3    3    0  501 -0.56144225014E+01 -0.47665134143E+02 -0.13206939354E+02  0.50000000000E+02  0.47000000000E+01 0.  1.
</event>
<event>
 5    1  0.9023675E-001  0.1000000E+03  0.7546771E-02  0.1163815E+00
         11   -1    0    0    0    0  0.00000000000E+00  0.00000000000E+00  0.50000000000E+02  0.50000000000E+02  0.00000000000E+00 0. -1.
        -11   -1    0    0    0    0 -0.00000000000E+00 -0.00000000000E+00 -0.50000000000E+02  0.50000000000E+02  0.00000000000E+00 0.  1.
         23    2    1    2    0    0  0.00000000000E+00  0.00000000000E+00  0.00000000000E+00  0.10000000000E+03  0.10000000000E+03 0.  0.
          5    1    3    3  501    0  0.15454594963E+02 -0.41176151072E+02  0.23315018280E+02  0.50000000000E+02  0.47000000000E+01 0. -1.
         -5    1    3    3    0  501 -0.15454594963E+02  0.41176151072E+02 -0.23315018280E+02  0.50000000000E+02  0.47000000000E+01 0.  1.
</event>
<event>
 5    1  0.9023675E-001  0.1000000E+03  0.7546771E-02  0.1163815E+00
         11   -1    0    0    0    0  0.00000000000E+00  0.00000000000E+00  0.50000000000E+02  0.50000000000E+02  0.00000000000E+00 0. -1.
        -11   -1    0    0    0    0 -0.00000000000E+00 -0.00000000000E+00 -0.50000000000E+02  0.50000000000E+02  0.00000000000E+00 0.  1.
         23    2    1    2    0    0  0.00000000000E+00  0.00000000000E+00  0.00000000000E+00  0.10000000000E+03  0.10000000000E+03 0.  0.
          5    1    3    3  501    0  0.29912548763E+02  0.25336134289E+02  0.30679467495E+02  0.50000000000E+02  0.47000000000E+01 0. -1.
         -5    1    3    3    0  501 -0.29912548763E+02 -0.25336134289E+02 -0.30679467495E+02  0.50000000000E+02  0.47000000000E+01 0.  1.
</event>
<event>
 5    1  0.9023675E-001  0.1000000E+03  0.7546771E-02  0.1163815E+00
         11   -1    0    0    0    0  0.00000000000E+00  0.00000000000E+00  0.50000000000E+02  0.50000000000E+02  0.00000000000E+00 0. -1.
        -11   -1    0    0    0    0 -0.00000000000E+00 -0.00000000000E+00 -0.50000000000E+02  0.50000000000E+02  0.00000000000E+00 0.  1.
         23    2    1    2    0    0  0.00000000000E+00  0.00000000000E+00  0.00000000000E+00  0.10000000000E+03  0.10000000000E+03 0.  0.
          5    1    3    3  501    0  0.39861771346E+02  0.29658210625E+02  0.30560968038E+01  0.50000000000E+02  0.47000000000E+01 0. -1.
         -5    1    3    3    0  501 -0.39861771346E+02 -0.29658210625E+02 -0.30560968038E+01  0.50000000000E+02  0.47000000000E+01 0.  1.
</event>
<event>
 5    1  0.9023675E-001  0.1000000E+03  0.7546771E-02  0.1163815E+00
         11   -1    0    0    0    0  0.00000000000E+00  0.00000000000E+00  0.50000000000E+02  0.50000000000E+02  0.00000000000E+00 0. -1.
        -11   -1    0    0    0    0 -0.00000000000E+00 -0.00000000000E+00 -0.50000000000E+02  0.50000000000E+02  0.00000000000E+00 0.  1.
         23    2    1    2    0    0  0.00000000000E+00  0.00000000000E+00  0.00000000000E+00  0.10000000000E+03  0.10000000000E+03 0.  0.
          5    1    3    3  501    0 -0.10254791556E+02 -0.41754210303E+02 -0.25086553612E+02  0.50000000000E+02  0.47000000000E+01 0. -1.
         -5    1    3    3    0  501  0.10254791556E+02  0.41754210303E+02  0.25086553612E+02  0.50000000000E+02  0.47000000000E+01 0.  1.
</event>
<event>
 5    1  0.9023675E-001  0.1000000E+03  0.7546771E-02  0.1163815E+00
         11   -1    0    0    0    0  0.00000000000E+00  0.00000000000E+00  0.50000000000E+02  0.50000000000E+02  0.00000000000E+00 0.  1.
        -11   -1    0    0    0    0 -0.00000000000E+00 -0.00000000000E+00 -0.50000000000E+02  0.50000000000E+02  0.00000000000E+00 0. -1.
         23    2    1    2    0    0  0.00000000000E+00  0.00000000000E+00  0.00000000000E+00  0.10000000000E+03  0.10000000000E+03 0.  0.
          5    1    3    3  501    0  0.18757311283E+02  0.39787200969E+02 -0.23303474258E+02  0.50000000000E+02  0.47000000000E+01 0. -1.
         -5    1    3    3    0  501 -0.18757311283E+02 -0.39787200969E+02  0.23303474258E+02  0.50000000000E+02  0.47000000000E+01 0.  1.
</event>
<event>
 5    1  0.9023675E-001  0.1000000E+03  0.7546771E-02  0.1163815E+00
         11   -1    0    0    0    0  0.00000000000E+00  0.00000000000E+00  0.50000000000E+02  0.50000000000E+02  0.00000000000E+00 0.  1.
        -11   -1    0    0    0    0 -0.00000000000E+00 -0.00000000000E+00 -0.50000000000E+02  0.50000000000E+02  0.00000000000E+00 0. -1.
         23    2    1    2    0    0  0.00000000000E+00  0.00000000000E+00  0.00000000000E+00  0.10000000000E+03  0.10000000000E+03 0.  0.
          5    1    3    3  501    0  0.83311688937E+00  0.23799401444E+02  0.43712748795E+02  0.50000000000E+02  0.47000000000E+01 0.  1.
         -5    1    3    3    0  501 -0.83311688937E+00 -0.23799401444E+02 -0.43712748795E+02  0.50000000000E+02  0.47000000000E+01 0. -1.
</event>
<event>
 5    1  0.9023675E-001  0.1000000E+03  0.7546771E-02  0.1163815E+00
         11   -1    0    0    0    0  0.00000000000E+00  0.00000000000E+00  0.50000000000E+02  0.50000000000E+02  0.00000000000E+00 0. -1.
        -11   -1    0    0    0    0 -0.00000000000E+00 -0.00000000000E+00 -0.50000000000E+02  0.50000000000E+02  0.00000000000E+00 0.  1.
         23    2    1    2    0    0  0.00000000000E+00  0.00000000000E+00  0.00000000000E+00  0.10000000000E+03  0.10000000000E+03 0.  0.
          5    1    3    3  501    0  0.23629982645E+02 -0.13641819572E+02  0.41634537094E+02  0.50000000000E+02  0.47000000000E+01 0. -1.
         -5    1    3    3    0  501 -0.23629982645E+02  0.13641819572E+02 -0.41634537094E+02  0.50000000000E+02  0.47000000000E+01 0.  1.
</event>
<event>
 5    1  0.9023675E-001  0.1000000E+03  0.7546771E-02  0.1163815E+00
         11   -1    0    0    0    0  0.00000000000E+00  0.00000000000E+00  0.50000000000E+02  0.50000000000E+02  0.00000000000E+00 0.  1.
        -11   -1    0    0    0    0 -0.00000000000E+00 -0.00000000000E+00 -0.50000000000E+02  0.50000000000E+02  0.00000000000E+00 0. -1.
         23    2    1    2    0    0  0.00000000000E+00  0.00000000000E+00  0.00000000000E+00  0.10000000000E+03  0.10000000000E+03 0.  0.
          5    1    3    3  501    0  0.95982963767E+01  0.46439447004E+01 -0.48623209317E+02  0.50000000000E+02  0.47000000000E+01 0. -1.
         -5    1    3    3    0  501 -0.95982963767E+01 -0.46439447004E+01  0.48623209317E+02  0.50000000000E+02  0.47000000000E+01 0.  1.
</event>
<event>
 5    1  0.9023675E-001  0.1000000E+03  0.7546771E-02  0.1163815E+00
         11   -1    0    0    0    0  0.00000000000E+00  0.00000000000E+00  0.50000000000E+02  0.50000000000E+02  0.00000000000E+00 0. -1.
        -11   -1    0    0    0    0 -0.00000000000E+00 -0.00000000000E+00 -0.50000000000E+02  0.50000000000E+02  0.00000000000E+00 0.  1.
         23    2    1    2    0    0  0.00000000000E+00  0.00000000000E+00  0.00000000000E+00  0.10000000000E+03  0.10000000000E+03 0.  0.
          5    1    3    3  501    0  0.36835361525E+02 -0.11636558495E+02  0.31395169178E+02  0.50000000000E+02  0.47000000000E+01 0. -1.
         -5    1    3    3    0  501 -0.36835361525E+02  0.11636558495E+02 -0.31395169178E+02  0.50000000000E+02  0.47000000000E+01 0.  1.
</event>
<event>
 5    1  0.9023675E-001  0.1000000E+03  0.7546771E-02  0.1163815E+00
         11   -1    0    0    0    0  0.00000000000E+00  0.00000000000E+00  0.50000000000E+02  0.50000000000E+02  0.00000000000E+00 0. -1.
        -11   -1    0    0    0    0 -0.00000000000E+00 -0.00000000000E+00 -0.50000000000E+02  0.50000000000E+02  0.00000000000E+00 0.  1.
         23    2    1    2    0    0  0.00000000000E+00  0.00000000000E+00  0.00000000000E+00  0.10000000000E+03  0.10000000000E+03 0.  0.
          5    1    3    3  501    0 -0.18675169633E+02  0.43942660057E+02  0.14078020679E+02  0.50000000000E+02  0.47000000000E+01 0. -1.
         -5    1    3    3    0  501  0.18675169633E+02 -0.43942660057E+02 -0.14078020679E+02  0.50000000000E+02  0.47000000000E+01 0.  1.
</event>
<event>
 5    1  0.9023675E-001  0.1000000E+03  0.7546771E-02  0.1163815E+00
         11   -1    0    0    0    0  0.00000000000E+00  0.00000000000E+00  0.50000000000E+02  0.50000000000E+02  0.00000000000E+00 0. -1.
        -11   -1    0    0    0    0 -0.00000000000E+00 -0.00000000000E+00 -0.50000000000E+02  0.50000000000E+02  0.00000000000E+00 0.  1.
         23    2    1    2    0    0  0.00000000000E+00  0.00000000000E+00  0.00000000000E+00  0.10000000000E+03  0.10000000000E+03 0.  0.
          5    1    3    3  501    0 -0.53950877071E+01 -0.42456405000E+01  0.49302916398E+02  0.50000000000E+02  0.47000000000E+01 0. -1.
         -5    1    3    3    0  501  0.53950877071E+01  0.42456405000E+01 -0.49302916398E+02  0.50000000000E+02  0.47000000000E+01 0.  1.
</event>
<event>
 5    1  0.9023675E-001  0.1000000E+03  0.7546771E-02  0.1163815E+00
         11   -1    0    0    0    0  0.00000000000E+00  0.00000000000E+00  0.50000000000E+02  0.50000000000E+02  0.00000000000E+00 0. -1.
        -11   -1    0    0    0    0 -0.00000000000E+00 -0.00000000000E+00 -0.50000000000E+02  0.50000000000E+02  0.00000000000E+00 0.  1.
         23    2    1    2    0    0  0.00000000000E+00  0.00000000000E+00  0.00000000000E+00  0.10000000000E+03  0.10000000000E+03 0.  0.
          5    1    3    3  501    0 -0.38802362806E+01 -0.40228008954E+02 -0.29061332764E+02  0.50000000000E+02  0.47000000000E+01 0. -1.
         -5    1    3    3    0  501  0.38802362806E+01  0.40228008954E+02  0.29061332764E+02  0.50000000000E+02  0.47000000000E+01 0.  1.
</event>
<event>
 5    1  0.9023675E-001  0.1000000E+03  0.7546771E-02  0.1163815E+00
         11   -1    0    0    0    0  0.00000000000E+00  0.00000000000E+00  0.50000000000E+02  0.50000000000E+02  0.00000000000E+00 0. -1.
        -11   -1    0    0    0    0 -0.00000000000E+00 -0.00000000000E+00 -0.50000000000E+02  0.50000000000E+02  0.00000000000E+00 0.  1.
         23    2    1    2    0    0  0.00000000000E+00  0.00000000000E+00  0.00000000000E+00  0.10000000000E+03  0.10000000000E+03 0.  0.
          5    1    3    3  501    0  0.33813258591E+02  0.22782790643E+02  0.28557275675E+02  0.50000000000E+02  0.47000000000E+01 0. -1.
         -5    1    3    3    0  501 -0.33813258591E+02 -0.22782790643E+02 -0.28557275675E+02  0.50000000000E+02  0.47000000000E+01 0.  1.
</event>
<event>
 5    1  0.9023675E-001  0.1000000E+03  0.7546771E-02  0.1163815E+00
         11   -1    0    0    0    0  0.00000000000E+00  0.00000000000E+00  0.50000000000E+02  0.50000000000E+02  0.00000000000E+00 0. -1.
        -11   -1    0    0    0    0 -0.00000000000E+00 -0.00000000000E+00 -0.50000000000E+02  0.50000000000E+02  0.00000000000E+00 0.  1.
         23    2    1    2    0    0  0.00000000000E+00  0.00000000000E+00  0.00000000000E+00  0.10000000000E+03  0.10000000000E+03 0.  0.
          5    1    3    3  501    0  0.24490250373E+02 -0.43250793751E+02 -0.27397949775E+01  0.50000000000E+02  0.47000000000E+01 0. -1.
         -5    1    3    3    0  501 -0.24490250373E+02  0.43250793751E+02  0.27397949775E+01  0.50000000000E+02  0.47000000000E+01 0.  1.
</event>
<event>
 5    1  0.9023675E-001  0.1000000E+03  0.7546771E-02  0.1163815E+00
         11   -1    0    0    0    0  0.00000000000E+00  0.00000000000E+00  0.50000000000E+02  0.50000000000E+02  0.00000000000E+00 0. -1.
        -11   -1    0    0    0    0 -0.00000000000E+00 -0.00000000000E+00 -0.50000000000E+02  0.50000000000E+02  0.00000000000E+00 0.  1.
         23    2    1    2    0    0  0.00000000000E+00  0.00000000000E+00  0.00000000000E+00  0.10000000000E+03  0.10000000000E+03 0.  0.
          5    1    3    3  501    0  0.49324614519E+02 -0.25215978476E+01 -0.62156211981E+01  0.50000000000E+02  0.47000000000E+01 0. -1.
         -5    1    3    3    0  501 -0.49324614519E+02  0.25215978476E+01  0.62156211981E+01  0.50000000000E+02  0.47000000000E+01 0.  1.
</event>
<event>
 5    1  0.9023675E-001  0.1000000E+03  0.7546771E-02  0.1163815E+00
         11   -1    0    0    0    0  0.00000000000E+00  0.00000000000E+00  0.50000000000E+02  0.50000000000E+02  0.00000000000E+00 0.  1.
        -11   -1    0    0    0    0 -0.00000000000E+00 -0.00000000000E+00 -0.50000000000E+02  0.50000000000E+02  0.00000000000E+00 0. -1.
         23    2    1    2    0    0  0.00000000000E+00  0.00000000000E+00  0.00000000000E+00  0.10000000000E+03  0.10000000000E+03 0.  0.
          5    1    3    3  501    0  0.49074808266E+02 -0.28896065060E+01  0.78245362706E+01  0.50000000000E+02  0.47000000000E+01 0. -1.
         -5    1    3    3    0  501 -0.49074808266E+02  0.28896065060E+01 -0.78245362706E+01  0.50000000000E+02  0.47000000000E+01 0.  1.
</event>
<event>
 5    1  0.9023675E-001  0.1000000E+03  0.7546771E-02  0.1163815E+00
         11   -1    0    0    0    0  0.00000000000E+00  0.00000000000E+00  0.50000000000E+02  0.50000000000E+02  0.00000000000E+00 0. -1.
        -11   -1    0    0    0    0 -0.00000000000E+00 -0.00000000000E+00 -0.50000000000E+02  0.50000000000E+02  0.00000000000E+00 0.  1.
         23    2    1    2    0    0  0.00000000000E+00  0.00000000000E+00  0.00000000000E+00  0.10000000000E+03  0.10000000000E+03 0.  0.
          5    1    3    3  501    0  0.43726429264E+02  0.20010723594E+02  0.12863915619E+02  0.50000000000E+02  0.47000000000E+01 0. -1.
         -5    1    3    3    0  501 -0.43726429264E+02 -0.20010723594E+02 -0.12863915619E+02  0.50000000000E+02  0.47000000000E+01 0.  1.
</event>
<event>
 5    1  0.9023675E-001  0.1000000E+03  0.7546771E-02  0.1163815E+00
         11   -1    0    0    0    0  0.00000000000E+00  0.00000000000E+00  0.50000000000E+02  0.50000000000E+02  0.00000000000E+00 0. -1.
        -11   -1    0    0    0    0 -0.00000000000E+00 -0.00000000000E+00 -0.50000000000E+02  0.50000000000E+02  0.00000000000E+00 0.  1.
         23    2    1    2    0    0  0.00000000000E+00  0.00000000000E+00  0.00000000000E+00  0.10000000000E+03  0.10000000000E+03 0.  0.
          5    1    3    3  501    0  0.13282949987E+02  0.17510165371E+02  0.44663937895E+02  0.50000000000E+02  0.47000000000E+01 0. -1.
         -5    1    3    3    0  501 -0.13282949987E+02 -0.17510165371E+02 -0.44663937895E+02  0.50000000000E+02  0.47000000000E+01 0.  1.
</event>
<event>
 5    1  0.9023675E-001  0.1000000E+03  0.7546771E-02  0.1163815E+00
         11   -1    0    0    0    0  0.00000000000E+00  0.00000000000E+00  0.50000000000E+02  0.50000000000E+02  0.00000000000E+00 0. -1.
        -11   -1    0    0    0    0 -0.00000000000E+00 -0.00000000000E+00 -0.50000000000E+02  0.50000000000E+02  0.00000000000E+00 0.  1.
         23    2    1    2    0    0  0.00000000000E+00  0.00000000000E+00  0.00000000000E+00  0.10000000000E+03  0.10000000000E+03 0.  0.
          5    1    3    3  501    0 -0.43639825287E+02  0.77309541889E+00  0.23934869383E+02  0.50000000000E+02  0.47000000000E+01 0. -1.
         -5    1    3    3    0  501  0.43639825287E+02 -0.77309541889E+00 -0.23934869383E+02  0.50000000000E+02  0.47000000000E+01 0.  1.
</event>
<event>
 5    1  0.9023675E-001  0.1000000E+03  0.7546771E-02  0.1163815E+00
         11   -1    0    0    0    0  0.00000000000E+00  0.00000000000E+00  0.50000000000E+02  0.50000000000E+02  0.00000000000E+00 0. -1.
        -11   -1    0    0    0    0 -0.00000000000E+00 -0.00000000000E+00 -0.50000000000E+02  0.50000000000E+02  0.00000000000E+00 0.  1.
         23    2    1    2    0    0  0.00000000000E+00  0.00000000000E+00  0.00000000000E+00  0.10000000000E+03  0.10000000000E+03 0.  0.
          5    1    3    3  501    0 -0.11521582857E+02  0.23871188549E+02  0.42134658961E+02  0.50000000000E+02  0.47000000000E+01 0. -1.
         -5    1    3    3    0  501  0.11521582857E+02 -0.23871188549E+02 -0.42134658961E+02  0.50000000000E+02  0.47000000000E+01 0.  1.
</event>
<event>
 5    1  0.9023675E-001  0.1000000E+03  0.7546771E-02  0.1163815E+00
         11   -1    0    0    0    0  0.00000000000E+00  0.00000000000E+00  0.50000000000E+02  0.50000000000E+02  0.00000000000E+00 0. -1.
        -11   -1    0    0    0    0 -0.00000000000E+00 -0.00000000000E+00 -0.50000000000E+02  0.50000000000E+02  0.00000000000E+00 0.  1.
         23    2    1    2    0    0  0.00000000000E+00  0.00000000000E+00  0.00000000000E+00  0.10000000000E+03  0.10000000000E+03 0.  0.
          5    1    3    3  501    0  0.11232507866E+02 -0.20598759361E+02  0.43902527033E+02  0.50000000000E+02  0.47000000000E+01 0. -1.
         -5    1    3    3    0  501 -0.11232507866E+02  0.20598759361E+02 -0.43902527033E+02  0.50000000000E+02  0.47000000000E+01 0.  1.
</event>
<event>
 5    1  0.9023675E-001  0.1000000E+03  0.7546771E-02  0.1163815E+00
         11   -1    0    0    0    0  0.00000000000E+00  0.00000000000E+00  0.50000000000E+02  0.50000000000E+02  0.00000000000E+00 0. -1.
        -11   -1    0    0    0    0 -0.00000000000E+00 -0.00000000000E+00 -0.50000000000E+02  0.50000000000E+02  0.00000000000E+00 0.  1.
         23    2    1    2    0    0  0.00000000000E+00  0.00000000000E+00  0.00000000000E+00  0.10000000000E+03  0.10000000000E+03 0.  0.
          5    1    3    3  501    0 -0.22909401377E+02 -0.33494016122E+02  0.28830889903E+02  0.50000000000E+02  0.47000000000E+01 0. -1.
         -5    1    3    3    0  501  0.22909401377E+02  0.33494016122E+02 -0.28830889903E+02  0.50000000000E+02  0.47000000000E+01 0.  1.
</event>
<event>
 5    1  0.9023675E-001  0.1000000E+03  0.7546771E-02  0.1163815E+00
         11   -1    0    0    0    0  0.00000000000E+00  0.00000000000E+00  0.50000000000E+02  0.50000000000E+02  0.00000000000E+00 0. -1.
        -11   -1    0    0    0    0 -0.00000000000E+00 -0.00000000000E+00 -0.50000000000E+02  0.50000000000E+02  0.00000000000E+00 0.  1.
         23    2    1    2    0    0  0.00000000000E+00  0.00000000000E+00  0.00000000000E+00  0.10000000000E+03  0.10000000000E+03 0.  0.
          5    1    3    3  501    0  0.19154087049E+01  0.47301370643E+02  0.15389007272E+02  0.50000000000E+02  0.47000000000E+01 0. -1.
         -5    1    3    3    0  501 -0.19154087049E+01 -0.47301370643E+02 -0.15389007272E+02  0.50000000000E+02  0.47000000000E+01 0.  1.
</event>
<event>
 5    1  0.9023675E-001  0.1000000E+03  0.7546771E-02  0.1163815E+00
         11   -1    0    0    0    0  0.00000000000E+00  0.00000000000E+00  0.50000000000E+02  0.50000000000E+02  0.00000000000E+00 0.  1.
        -11   -1    0    0    0    0 -0.00000000000E+00 -0.00000000000E+00 -0.50000000000E+02  0.50000000000E+02  0.00000000000E+00 0. -1.
         23    2    1    2    0    0  0.00000000000E+00  0.00000000000E+00  0.00000000000E+00  0.10000000000E+03  0.10000000000E+03 0.  0.
          5    1    3    3  501    0 -0.39248026819E+02  0.16655238851E+02 -0.25692516607E+02  0.50000000000E+02  0.47000000000E+01 0. -1.
         -5    1    3    3    0  501  0.39248026819E+02 -0.16655238851E+02  0.25692516607E+02  0.50000000000E+02  0.47000000000E+01 0.  1.
</event>
<event>
 5    1  0.9023675E-001  0.1000000E+03  0.7546771E-02  0.1163815E+00
         11   -1    0    0    0    0  0.00000000000E+00  0.00000000000E+00  0.50000000000E+02  0.50000000000E+02  0.00000000000E+00 0. -1.
        -11   -1    0    0    0    0 -0.00000000000E+00 -0.00000000000E+00 -0.50000000000E+02  0.50000000000E+02  0.00000000000E+00 0.  1.
         23    2    1    2    0    0  0.00000000000E+00  0.00000000000E+00  0.00000000000E+00  0.10000000000E+03  0.10000000000E+03 0.  0.
          5    1    3    3  501    0  0.30263452540E+02 -0.23535423930E+02  0.31750862363E+02  0.50000000000E+02  0.47000000000E+01 0. -1.
         -5    1    3    3    0  501 -0.30263452540E+02  0.23535423930E+02 -0.31750862363E+02  0.50000000000E+02  0.47000000000E+01 0.  1.
</event>
<event>
 5    1  0.9023675E-001  0.1000000E+03  0.7546771E-02  0.1163815E+00
         11   -1    0    0    0    0  0.00000000000E+00  0.00000000000E+00  0.50000000000E+02  0.50000000000E+02  0.00000000000E+00 0.  1.
        -11   -1    0    0    0    0 -0.00000000000E+00 -0.00000000000E+00 -0.50000000000E+02  0.50000000000E+02  0.00000000000E+00 0. -1.
         23    2    1    2    0    0  0.00000000000E+00  0.00000000000E+00  0.00000000000E+00  0.10000000000E+03  0.10000000000E+03 0.  0.
          5    1    3    3  501    0 -0.37064711238E+02 -0.29388515118E+02 -0.15505881464E+02  0.50000000000E+02  0.47000000000E+01 0. -1.
         -5    1    3    3    0  501  0.37064711238E+02  0.29388515118E+02  0.15505881464E+02  0.50000000000E+02  0.47000000000E+01 0.  1.
</event>
<event>
 5    1  0.9023675E-001  0.1000000E+03  0.7546771E-02  0.1163815E+00
         11   -1    0    0    0    0  0.00000000000E+00  0.00000000000E+00  0.50000000000E+02  0.50000000000E+02  0.00000000000E+00 0. -1.
        -11   -1    0    0    0    0 -0.00000000000E+00 -0.00000000000E+00 -0.50000000000E+02  0.50000000000E+02  0.00000000000E+00 0.  1.
         23    2    1    2    0    0  0.00000000000E+00  0.00000000000E+00  0.00000000000E+00  0.10000000000E+03  0.10000000000E+03 0.  0.
          5    1    3    3  501    0 -0.74801704836E+01 -0.30998027250E+02 -0.38224067760E+02  0.50000000000E+02  0.47000000000E+01 0. -1.
         -5    1    3    3    0  501  0.74801704836E+01  0.30998027250E+02  0.38224067760E+02  0.50000000000E+02  0.47000000000E+01 0.  1.
</event>
<event>
 5    1  0.9023675E-001  0.1000000E+03  0.7546771E-02  0.1163815E+00
         11   -1    0    0    0    0  0.00000000000E+00  0.00000000000E+00  0.50000000000E+02  0.50000000000E+02  0.00000000000E+00 0. -1.
        -11   -1    0    0    0    0 -0.00000000000E+00 -0.00000000000E+00 -0.50000000000E+02  0.50000000000E+02  0.00000000000E+00 0.  1.
         23    2    1    2    0    0  0.00000000000E+00  0.00000000000E+00  0.00000000000E+00  0.10000000000E+03  0.10000000000E+03 0.  0.
          5    1    3    3  501    0 -0.45534682291E+02  0.28439360442E+01  0.19910166661E+02  0.50000000000E+02  0.47000000000E+01 0. -1.
         -5    1    3    3    0  501  0.45534682291E+02 -0.28439360442E+01 -0.19910166661E+02  0.50000000000E+02  0.47000000000E+01 0.  1.
</event>
<event>
 5    1  0.9023675E-001  0.1000000E+03  0.7546771E-02  0.1163815E+00
         11   -1    0    0    0    0  0.00000000000E+00  0.00000000000E+00  0.50000000000E+02  0.50000000000E+02  0.00000000000E+00 0.  1.
        -11   -1    0    0    0    0 -0.00000000000E+00 -0.00000000000E+00 -0.50000000000E+02  0.50000000000E+02  0.00000000000E+00 0. -1.
         23    2    1    2    0    0  0.00000000000E+00  0.00000000000E+00  0.00000000000E+00  0.10000000000E+03  0.10000000000E+03 0.  0.
          5    1    3    3  501    0  0.20035120464E+02  0.42131061045E+02  0.17363111565E+02  0.50000000000E+02  0.47000000000E+01 0. -1.
         -5    1    3    3    0  501 -0.20035120464E+02 -0.42131061045E+02 -0.17363111565E+02  0.50000000000E+02  0.47000000000E+01 0.  1.
</event>
<event>
 5    1  0.9023675E-001  0.1000000E+03  0.7546771E-02  0.1163815E+00
         11   -1    0    0    0    0  0.00000000000E+00  0.00000000000E+00  0.50000000000E+02  0.50000000000E+02  0.00000000000E+00 0.  1.
        -11   -1    0    0    0    0 -0.00000000000E+00 -0.00000000000E+00 -0.50000000000E+02  0.50000000000E+02  0.00000000000E+00 0. -1.
         23    2    1    2    0    0  0.00000000000E+00  0.00000000000E+00  0.00000000000E+00  0.10000000000E+03  0.10000000000E+03 0.  0.
          5    1    3    3  501    0 -0.35137125747E+00  0.28007986075E+02 -0.41150203575E+02  0.50000000000E+02  0.47000000000E+01 0. -1.
         -5    1    3    3    0  501  0.35137125747E+00 -0.28007986075E+02  0.41150203575E+02  0.50000000000E+02  0.47000000000E+01 0.  1.
</event>
<event>
 5    1  0.9023675E-001  0.1000000E+03  0.7546771E-02  0.1163815E+00
         11   -1    0    0    0    0  0.00000000000E+00  0.00000000000E+00  0.50000000000E+02  0.50000000000E+02  0.00000000000E+00 0. -1.
        -11   -1    0    0    0    0 -0.00000000000E+00 -0.00000000000E+00 -0.50000000000E+02  0.50000000000E+02  0.00000000000E+00 0.  1.
         23    2    1    2    0    0  0.00000000000E+00  0.00000000000E+00  0.00000000000E+00  0.10000000000E+03  0.10000000000E+03 0.  0.
          5    1    3    3  501    0 -0.87973218022E+01 -0.23484697477E+02  0.42999838529E+02  0.50000000000E+02  0.47000000000E+01 0. -1.
         -5    1    3    3    0  501  0.87973218022E+01  0.23484697477E+02 -0.42999838529E+02  0.50000000000E+02  0.47000000000E+01 0.  1.
</event>
<event>
 5    1  0.9023675E-001  0.1000000E+03  0.7546771E-02  0.1163815E+00
         11   -1    0    0    0    0  0.00000000000E+00  0.00000000000E+00  0.50000000000E+02  0.50000000000E+02  0.00000000000E+00 0. -1.
        -11   -1    0    0    0    0 -0.00000000000E+00 -0.00000000000E+00 -0.50000000000E+02  0.50000000000E+02  0.00000000000E+00 0.  1.
         23    2    1    2    0    0  0.00000000000E+00  0.00000000000E+00  0.00000000000E+00  0.10000000000E+03  0.10000000000E+03 0.  0.
          5    1    3    3  501    0  0.38750172616E+02 -0.24598409849E+01 -0.31149370854E+02  0.50000000000E+02  0.47000000000E+01 0. -1.
         -5    1    3    3    0  501 -0.38750172616E+02  0.24598409849E+01  0.31149370854E+02  0.50000000000E+02  0.47000000000E+01 0.  1.
</event>
<event>
 5    1  0.9023675E-001  0.1000000E+03  0.7546771E-02  0.1163815E+00
         11   -1    0    0    0    0  0.00000000000E+00  0.00000000000E+00  0.50000000000E+02  0.50000000000E+02  0.00000000000E+00 0. -1.
        -11   -1    0    0    0    0 -0.00000000000E+00 -0.00000000000E+00 -0.50000000000E+02  0.50000000000E+02  0.00000000000E+00 0.  1.
         23    2    1    2    0    0  0.00000000000E+00  0.00000000000E+00  0.00000000000E+00  0.10000000000E+03  0.10000000000E+03 0.  0.
          5    1    3    3  501    0  0.26140445501E+02 -0.10515864435E+02  0.41036614190E+02  0.50000000000E+02  0.47000000000E+01 0. -1.
         -5    1    3    3    0  501 -0.26140445501E+02  0.10515864435E+02 -0.41036614190E+02  0.50000000000E+02  0.47000000000E+01 0.  1.
</event>
<event>
 5    1  0.9023675E-001  0.1000000E+03  0.7546771E-02  0.1163815E+00
         11   -1    0    0    0    0  0.00000000000E+00  0.00000000000E+00  0.50000000000E+02  0.50000000000E+02  0.00000000000E+00 0. -1.
        -11   -1    0    0    0    0 -0.00000000000E+00 -0.00000000000E+00 -0.50000000000E+02  0.50000000000E+02  0.00000000000E+00 0.  1.
         23    2    1    2    0    0  0.00000000000E+00  0.00000000000E+00  0.00000000000E+00  0.10000000000E+03  0.10000000000E+03 0.  0.
          5    1    3    3  501    0 -0.24339607274E+02  0.31554240335E+02  0.29829908392E+02  0.50000000000E+02  0.47000000000E+01 0. -1.
         -5    1    3    3    0  501  0.24339607274E+02 -0.31554240335E+02 -0.29829908392E+02  0.50000000000E+02  0.47000000000E+01 0.  1.
</event>
<event>
 5    1  0.9023675E-001  0.1000000E+03  0.7546771E-02  0.1163815E+00
         11   -1    0    0    0    0  0.00000000000E+00  0.00000000000E+00  0.50000000000E+02  0.50000000000E+02  0.00000000000E+00 0.  1.
        -11   -1    0    0    0    0 -0.00000000000E+00 -0.00000000000E+00 -0.50000000000E+02  0.50000000000E+02  0.00000000000E+00 0. -1.
         23    2    1    2    0    0  0.00000000000E+00  0.00000000000E+00  0.00000000000E+00  0.10000000000E+03  0.10000000000E+03 0.  0.
          5    1    3    3  501    0 -0.13805170323E+02 -0.86925297314E+00  0.47818110289E+02  0.50000000000E+02  0.47000000000E+01 0.  1.
         -5    1    3    3    0  501  0.13805170323E+02  0.86925297314E+00 -0.47818110289E+02  0.50000000000E+02  0.47000000000E+01 0. -1.
</event>
<event>
 5    1  0.9023675E-001  0.1000000E+03  0.7546771E-02  0.1163815E+00
         11   -1    0    0    0    0  0.00000000000E+00  0.00000000000E+00  0.50000000000E+02  0.50000000000E+02  0.00000000000E+00 0. -1.
        -11   -1    0    0    0    0 -0.00000000000E+00 -0.00000000000E+00 -0.50000000000E+02  0.50000000000E+02  0.00000000000E+00 0.  1.
         23    2    1    2    0    0  0.00000000000E+00  0.00000000000E+00  0.00000000000E+00  0.10000000000E+03  0.10000000000E+03 0.  0.
          5    1    3    3  501    0 -0.45473678487E+02  0.16419593886E+02  0.11851223627E+02  0.50000000000E+02  0.47000000000E+01 0. -1.
         -5    1    3    3    0  501  0.45473678487E+02 -0.16419593886E+02 -0.11851223627E+02  0.50000000000E+02  0.47000000000E+01 0.  1.
</event>
<event>
 5    1  0.9023675E-001  0.1000000E+03  0.7546771E-02  0.1163815E+00
         11   -1    0    0    0    0  0.00000000000E+00  0.00000000000E+00  0.50000000000E+02  0.50000000000E+02  0.00000000000E+00 0.  1.
        -11   -1    0    0    0    0 -0.00000000000E+00 -0.00000000000E+00 -0.50000000000E+02  0.50000000000E+02  0.00000000000E+00 0. -1.
         23    2    1    2    0    0  0.00000000000E+00  0.00000000000E+00  0.00000000000E+00  0.10000000000E+03  0.10000000000E+03 0.  0.
          5    1    3    3  501    0  0.78664633000E+01 -0.45460662049E+02 -0.18691093098E+02  0.50000000000E+02  0.47000000000E+01 0. -1.
         -5    1    3    3    0  501 -0.78664633000E+01  0.45460662049E+02  0.18691093098E+02  0.50000000000E+02  0.47000000000E+01 0.  1.
</event>
<event>
 5    1  0.9023675E-001  0.1000000E+03  0.7546771E-02  0.1163815E+00
         11   -1    0    0    0    0  0.00000000000E+00  0.00000000000E+00  0.50000000000E+02  0.50000000000E+02  0.00000000000E+00 0. -1.
        -11   -1    0    0    0    0 -0.00000000000E+00 -0.00000000000E+00 -0.50000000000E+02  0.50000000000E+02  0.00000000000E+00 0.  1.
         23    2    1    2    0    0  0.00000000000E+00  0.00000000000E+00  0.00000000000E+00  0.10000000000E+03  0.10000000000E+03 0.  0.
          5    1    3    3  501    0  0.48740458550E+02 -0.50888445647E+01  0.87396430923E+01  0.50000000000E+02  0.47000000000E+01 0. -1.
         -5    1    3    3    0  501 -0.48740458550E+02  0.50888445647E+01 -0.87396430923E+01  0.50000000000E+02  0.47000000000E+01 0.  1.
</event>
<event>
 5    1  0.9023675E-001  0.1000000E+03  0.7546771E-02  0.1163815E+00
         11   -1    0    0    0    0  0.00000000000E+00  0.00000000000E+00  0.50000000000E+02  0.50000000000E+02  0.00000000000E+00 0. -1.
        -11   -1    0    0    0    0 -0.00000000000E+00 -0.00000000000E+00 -0.50000000000E+02  0.50000000000E+02  0.00000000000E+00 0.  1.
         23    2    1    2    0    0  0.00000000000E+00  0.00000000000E+00  0.00000000000E+00  0.10000000000E+03  0.10000000000E+03 0.  0.
          5    1    3    3  501    0  0.40488840228E+01  0.30636789864E+02  0.39024398073E+02  0.50000000000E+02  0.47000000000E+01 0. -1.
         -5    1    3    3    0  501 -0.40488840228E+01 -0.30636789864E+02 -0.39024398073E+02  0.50000000000E+02  0.47000000000E+01 0.  1.
</event>
<event>
 5    1  0.9023675E-001  0.1000000E+03  0.7546771E-02  0.1163815E+00
         11   -1    0    0    0    0  0.00000000000E+00  0.00000000000E+00  0.50000000000E+02  0.50000000000E+02  0.00000000000E+00 0. -1.
        -11   -1    0    0    0    0 -0.00000000000E+00 -0.00000000000E+00 -0.50000000000E+02  0.50000000000E+02  0.00000000000E+00 0.  1.
         23    2    1    2    0    0  0.00000000000E+00  0.00000000000E+00  0.00000000000E+00  0.10000000000E+03  0.10000000000E+03 0.  0.
          5    1    3    3  501    0 -0.21485272947E+01 -0.12401589329E+02  0.48161129685E+02  0.50000000000E+02  0.47000000000E+01 0. -1.
         -5    1    3    3    0  501  0.21485272947E+01  0.12401589329E+02 -0.48161129685E+02  0.50000000000E+02  0.47000000000E+01 0.  1.
</event>
<event>
 5    1  0.9023675E-001  0.1000000E+03  0.7546771E-02  0.1163815E+00
         11   -1    0    0    0    0  0.00000000000E+00  0.00000000000E+00  0.50000000000E+02  0.50000000000E+02  0.00000000000E+00 0. -1.
        -11   -1    0    0    0    0 -0.00000000000E+00 -0.00000000000E+00 -0.50000000000E+02  0.50000000000E+02  0.00000000000E+00 0.  1.
         23    2    1    2    0    0  0.00000000000E+00  0.00000000000E+00  0.00000000000E+00  0.10000000000E+03  0.10000000000E+03 0.  0.
          5    1    3    3  501    0  0.40522309825E+02  0.53763956260E+01  0.28406808630E+02  0.50000000000E+02  0.47000000000E+01 0. -1.
         -5    1    3    3    0  501 -0.40522309825E+02 -0.53763956260E+01 -0.28406808630E+02  0.50000000000E+02  0.47000000000E+01 0.  1.
</event>
<event>
 5    1  0.9023675E-001  0.1000000E+03  0.7546771E-02  0.1163815E+00
         11   -1    0    0    0    0  0.00000000000E+00  0.00000000000E+00  0.50000000000E+02  0.50000000000E+02  0.00000000000E+00 0.  1.
        -11   -1    0    0    0    0 -0.00000000000E+00 -0.00000000000E+00 -0.50000000000E+02  0.50000000000E+02  0.00000000000E+00 0. -1.
         23    2    1    2    0    0  0.00000000000E+00  0.00000000000E+00  0.00000000000E+00  0.10000000000E+03  0.10000000000E+03 0.  0.
          5    1    3    3  501    0 -0.35553657532E+02  0.29143490914E+02 -0.19091997628E+02  0.50000000000E+02  0.47000000000E+01 0. -1.
         -5    1    3    3    0  501  0.35553657532E+02 -0.29143490914E+02  0.19091997628E+02  0.50000000000E+02  0.47000000000E+01 0.  1.
</event>
<event>
 5    1  0.9023675E-001  0.1000000E+03  0.7546771E-02  0.1163815E+00
         11   -1    0    0    0    0  0.00000000000E+00  0.00000000000E+00  0.50000000000E+02  0.50000000000E+02  0.00000000000E+00 0.  1.
        -11   -1    0    0    0    0 -0.00000000000E+00 -0.00000000000E+00 -0.50000000000E+02  0.50000000000E+02  0.00000000000E+00 0. -1.
         23    2    1    2    0    0  0.00000000000E+00  0.00000000000E+00  0.00000000000E+00  0.10000000000E+03  0.10000000000E+03 0.  0.
          5    1    3    3  501    0  0.16115317256E+02 -0.13510277431E+02 -0.45118499016E+02  0.50000000000E+02  0.47000000000E+01 0. -1.
         -5    1    3    3    0  501 -0.16115317256E+02  0.13510277431E+02  0.45118499016E+02  0.50000000000E+02  0.47000000000E+01 0.  1.
</event>
<event>
 5    1  0.9023675E-001  0.1000000E+03  0.7546771E-02  0.1163815E+00
         11   -1    0    0    0    0  0.00000000000E+00  0.00000000000E+00  0.50000000000E+02  0.50000000000E+02  0.00000000000E+00 0.  1.
        -11   -1    0    0    0    0 -0.00000000000E+00 -0.00000000000E+00 -0.50000000000E+02  0.50000000000E+02  0.00000000000E+00 0. -1.
         23    2    1    2    0    0  0.00000000000E+00  0.00000000000E+00  0.00000000000E+00  0.10000000000E+03  0.10000000000E+03 0.  0.
          5    1    3    3  501    0  0.45246028152E+02 -0.14760074284E+02 -0.14589281805E+02  0.50000000000E+02  0.47000000000E+01 0. -1.
         -5    1    3    3    0  501 -0.45246028152E+02  0.14760074284E+02  0.14589281805E+02  0.50000000000E+02  0.47000000000E+01 0.  1.
</event>
<event>
 5    1  0.9023675E-001  0.1000000E+03  0.7546771E-02  0.1163815E+00
         11   -1    0    0    0    0  0.00000000000E+00  0.00000000000E+00  0.50000000000E+02  0.50000000000E+02  0.00000000000E+00 0. -1.
        -11   -1    0    0    0    0 -0.00000000000E+00 -0.00000000000E+00 -0.50000000000E+02  0.50000000000E+02  0.00000000000E+00 0.  1.
         23    2    1    2    0    0  0.00000000000E+00  0.00000000000E+00  0.00000000000E+00  0.10000000000E+03  0.10000000000E+03 0.  0.
          5    1    3    3  501    0 -0.11958133762E+02 -0.40202303003E+02  0.26808354484E+02  0.50000000000E+02  0.47000000000E+01 0. -1.
         -5    1    3    3    0  501  0.11958133762E+02  0.40202303003E+02 -0.26808354484E+02  0.50000000000E+02  0.47000000000E+01 0.  1.
</event>
<event>
 5    1  0.9023675E-001  0.1000000E+03  0.7546771E-02  0.1163815E+00
         11   -1    0    0    0    0  0.00000000000E+00  0.00000000000E+00  0.50000000000E+02  0.50000000000E+02  0.00000000000E+00 0. -1.
        -11   -1    0    0    0    0 -0.00000000000E+00 -0.00000000000E+00 -0.50000000000E+02  0.50000000000E+02  0.00000000000E+00 0.  1.
         23    2    1    2    0    0  0.00000000000E+00  0.00000000000E+00  0.00000000000E+00  0.10000000000E+03  0.10000000000E+03 0.  0.
          5    1    3    3  501    0 -0.10176205957E+01 -0.10345686471E+02  0.48681014983E+02  0.50000000000E+02  0.47000000000E+01 0. -1.
         -5    1    3    3    0  501  0.10176205957E+01  0.10345686471E+02 -0.48681014983E+02  0.50000000000E+02  0.47000000000E+01 0.  1.
</event>
<event>
 5    1  0.9023675E-001  0.1000000E+03  0.7546771E-02  0.1163815E+00
         11   -1    0    0    0    0  0.00000000000E+00  0.00000000000E+00  0.50000000000E+02  0.50000000000E+02  0.00000000000E+00 0.  1.
        -11   -1    0    0    0    0 -0.00000000000E+00 -0.00000000000E+00 -0.50000000000E+02  0.50000000000E+02  0.00000000000E+00 0. -1.
         23    2    1    2    0    0  0.00000000000E+00  0.00000000000E+00  0.00000000000E+00  0.10000000000E+03  0.10000000000E+03 0.  0.
          5    1    3    3  501    0 -0.29030339368E+02  0.10842283502E+02  0.38956312514E+02  0.50000000000E+02  0.47000000000E+01 0.  1.
         -5    1    3    3    0  501  0.29030339368E+02 -0.10842283502E+02 -0.38956312514E+02  0.50000000000E+02  0.47000000000E+01 0. -1.
</event>
<event>
 5    1  0.9023675E-001  0.1000000E+03  0.7546771E-02  0.1163815E+00
         11   -1    0    0    0    0  0.00000000000E+00  0.00000000000E+00  0.50000000000E+02  0.50000000000E+02  0.00000000000E+00 0. -1.
        -11   -1    0    0    0    0 -0.00000000000E+00 -0.00000000000E+00 -0.50000000000E+02  0.50000000000E+02  0.00000000000E+00 0.  1.
         23    2    1    2    0    0  0.00000000000E+00  0.00000000000E+00  0.00000000000E+00  0.10000000000E+03  0.10000000000E+03 0.  0.
          5    1    3    3  501    0 -0.30689820688E+01  0.16757137742E+02  0.46772745095E+02  0.50000000000E+02  0.47000000000E+01 0. -1.
         -5    1    3    3    0  501  0.30689820688E+01 -0.16757137742E+02 -0.46772745095E+02  0.50000000000E+02  0.47000000000E+01 0.  1.
</event>
<event>
 5    1  0.9023675E-001  0.1000000E+03  0.7546771E-02  0.1163815E+00
         11   -1    0    0    0    0  0.00000000000E+00  0.00000000000E+00  0.50000000000E+02  0.50000000000E+02  0.00000000000E+00 0. -1.
        -11   -1    0    0    0    0 -0.00000000000E+00 -0.00000000000E+00 -0.50000000000E+02  0.50000000000E+02  0.00000000000E+00 0.  1.
         23    2    1    2    0    0  0.00000000000E+00  0.00000000000E+00  0.00000000000E+00  0.10000000000E+03  0.10000000000E+03 0.  0.
          5    1    3    3  501    0 -0.18165592741E+02  0.27951184282E+01  0.46261307302E+02  0.50000000000E+02  0.47000000000E+01 0. -1.
         -5    1    3    3    0  501  0.18165592741E+02 -0.27951184282E+01 -0.46261307302E+02  0.50000000000E+02  0.47000000000E+01 0.  1.
</event>
<event>
 5    1  0.9023675E-001  0.1000000E+03  0.7546771E-02  0.1163815E+00
         11   -1    0    0    0    0  0.00000000000E+00  0.00000000000E+00  0.50000000000E+02  0.50000000000E+02  0.00000000000E+00 0. -1.
        -11   -1    0    0    0    0 -0.00000000000E+00 -0.00000000000E+00 -0.50000000000E+02  0.50000000000E+02  0.00000000000E+00 0.  1.
         23    2    1    2    0    0  0.00000000000E+00  0.00000000000E+00  0.00000000000E+00  0.10000000000E+03  0.10000000000E+03 0.  0.
          5    1    3    3  501    0 -0.18250977619E+02  0.27997327765E+02  0.36891211067E+02  0.50000000000E+02  0.47000000000E+01 0. -1.
         -5    1    3    3    0  501  0.18250977619E+02 -0.27997327765E+02 -0.36891211067E+02  0.50000000000E+02  0.47000000000E+01 0.  1.
</event>
<event>
 5    1  0.9023675E-001  0.1000000E+03  0.7546771E-02  0.1163815E+00
         11   -1    0    0    0    0  0.00000000000E+00  0.00000000000E+00  0.50000000000E+02  0.50000000000E+02  0.00000000000E+00 0.  1.
        -11   -1    0    0    0    0 -0.00000000000E+00 -0.00000000000E+00 -0.50000000000E+02  0.50000000000E+02  0.00000000000E+00 0. -1.
         23    2    1    2    0    0  0.00000000000E+00  0.00000000000E+00  0.00000000000E+00  0.10000000000E+03  0.10000000000E+03 0.  0.
          5    1    3    3  501    0 -0.35638884196E+01 -0.25749293334E+02 -0.42452121174E+02  0.50000000000E+02  0.47000000000E+01 0. -1.
         -5    1    3    3    0  501  0.35638884196E+01  0.25749293334E+02  0.42452121174E+02  0.50000000000E+02  0.47000000000E+01 0.  1.
</event>
<event>
 5    1  0.9023675E-001  0.1000000E+03  0.7546771E-02  0.1163815E+00
         11   -1    0    0    0    0  0.00000000000E+00  0.00000000000E+00  0.50000000000E+02  0.50000000000E+02  0.00000000000E+00 0.  1.
        -11   -1    0    0    0    0 -0.00000000000E+00 -0.00000000000E+00 -0.50000000000E+02  0.50000000000E+02  0.00000000000E+00 0. -1.
         23    2    1    2    0    0  0.00000000000E+00  0.00000000000E+00  0.00000000000E+00  0.10000000000E+03  0.10000000000E+03 0.  0.
          5    1    3    3  501    0 -0.33379592615E+02 -0.36818717448E+02 -0.28451436505E+01  0.50000000000E+02  0.47000000000E+01 0. -1.
         -5    1    3    3    0  501  0.33379592615E+02  0.36818717448E+02  0.28451436505E+01  0.50000000000E+02  0.47000000000E+01 0.  1.
</event>
<event>
 5    1  0.9023675E-001  0.1000000E+03  0.7546771E-02  0.1163815E+00
         11   -1    0    0    0    0  0.00000000000E+00  0.00000000000E+00  0.50000000000E+02  0.50000000000E+02  0.00000000000E+00 0.  1.
        -11   -1    0    0    0    0 -0.00000000000E+00 -0.00000000000E+00 -0.50000000000E+02  0.50000000000E+02  0.00000000000E+00 0. -1.
         23    2    1    2    0    0  0.00000000000E+00  0.00000000000E+00  0.00000000000E+00  0.10000000000E+03  0.10000000000E+03 0.  0.
          5    1    3    3  501    0  0.44865688173E+01  0.33767601083E+02 -0.36297793560E+02  0.50000000000E+02  0.47000000000E+01 0. -1.
         -5    1    3    3    0  501 -0.44865688173E+01 -0.33767601083E+02  0.36297793560E+02  0.50000000000E+02  0.47000000000E+01 0.  1.
</event>
<event>
 5    1  0.9023675E-001  0.1000000E+03  0.7546771E-02  0.1163815E+00
         11   -1    0    0    0    0  0.00000000000E+00  0.00000000000E+00  0.50000000000E+02  0.50000000000E+02  0.00000000000E+00 0.  1.
        -11   -1    0    0    0    0 -0.00000000000E+00 -0.00000000000E+00 -0.50000000000E+02  0.50000000000E+02  0.00000000000E+00 0. -1.
         23    2    1    2    0    0  0.00000000000E+00  0.00000000000E+00  0.00000000000E+00  0.10000000000E+03  0.10000000000E+03 0.  0.
          5    1    3    3  501    0  0.44105851102E+02 -0.16734741214E+02 -0.15891266000E+02  0.50000000000E+02  0.47000000000E+01 0. -1.
         -5    1    3    3    0  501 -0.44105851102E+02  0.16734741214E+02  0.15891266000E+02  0.50000000000E+02  0.47000000000E+01 0.  1.
</event>
<event>
 5    1  0.9023675E-001  0.1000000E+03  0.7546771E-02  0.1163815E+00
         11   -1    0    0    0    0  0.00000000000E+00  0.00000000000E+00  0.50000000000E+02  0.50000000000E+02  0.00000000000E+00 0. -1.
        -11   -1    0    0    0    0 -0.00000000000E+00 -0.00000000000E+00 -0.50000000000E+02  0.50000000000E+02  0.00000000000E+00 0.  1.
         23    2    1    2    0    0  0.00000000000E+00  0.00000000000E+00  0.00000000000E+00  0.10000000000E+03  0.10000000000E+03 0.  0.
          5    1    3    3  501    0  0.28267265111E+00 -0.45142201228E+02 -0.20976457385E+02  0.50000000000E+02  0.47000000000E+01 0. -1.
         -5    1    3    3    0  501 -0.28267265111E+00  0.45142201228E+02  0.20976457385E+02  0.50000000000E+02  0.47000000000E+01 0.  1.
</event>
<event>
 5    1  0.9023675E-001  0.1000000E+03  0.7546771E-02  0.1163815E+00
         11   -1    0    0    0    0  0.00000000000E+00  0.00000000000E+00  0.50000000000E+02  0.50000000000E+02  0.00000000000E+00 0. -1.
        -11   -1    0    0    0    0 -0.00000000000E+00 -0.00000000000E+00 -0.50000000000E+02  0.50000000000E+02  0.00000000000E+00 0.  1.
         23    2    1    2    0    0  0.00000000000E+00  0.00000000000E+00  0.00000000000E+00  0.10000000000E+03  0.10000000000E+03 0.  0.
          5    1    3    3  501    0  0.36343747914E+02  0.86391396575E+01  0.32899958261E+02  0.50000000000E+02  0.47000000000E+01 0. -1.
         -5    1    3    3    0  501 -0.36343747914E+02 -0.86391396575E+01 -0.32899958261E+02  0.50000000000E+02  0.47000000000E+01 0.  1.
</event>
<event>
 5    1  0.9023675E-001  0.1000000E+03  0.7546771E-02  0.1163815E+00
         11   -1    0    0    0    0  0.00000000000E+00  0.00000000000E+00  0.50000000000E+02  0.50000000000E+02  0.00000000000E+00 0.  1.
        -11   -1    0    0    0    0 -0.00000000000E+00 -0.00000000000E+00 -0.50000000000E+02  0.50000000000E+02  0.00000000000E+00 0. -1.
         23    2    1    2    0    0  0.00000000000E+00  0.00000000000E+00  0.00000000000E+00  0.10000000000E+03  0.10000000000E+03 0.  0.
          5    1    3    3  501    0 -0.43562467047E+01  0.77298783556E+01 -0.48981446439E+02  0.50000000000E+02  0.47000000000E+01 0. -1.
         -5    1    3    3    0  501  0.43562467047E+01 -0.77298783556E+01  0.48981446439E+02  0.50000000000E+02  0.47000000000E+01 0.  1.
</event>
<event>
 5    1  0.9023675E-001  0.1000000E+03  0.7546771E-02  0.1163815E+00
         11   -1    0    0    0    0  0.00000000000E+00  0.00000000000E+00  0.50000000000E+02  0.50000000000E+02  0.00000000000E+00 0. -1.
        -11   -1    0    0    0    0 -0.00000000000E+00 -0.00000000000E+00 -0.50000000000E+02  0.50000000000E+02  0.00000000000E+00 0.  1.
         23    2    1    2    0    0  0.00000000000E+00  0.00000000000E+00  0.00000000000E+00  0.10000000000E+03  0.10000000000E+03 0.  0.
          5    1    3    3  501    0  0.10560030793E+02 -0.34023592949E+02  0.34767669932E+02  0.50000000000E+02  0.47000000000E+01 0. -1.
         -5    1    3    3    0  501 -0.10560030793E+02  0.34023592949E+02 -0.34767669932E+02  0.50000000000E+02  0.47000000000E+01 0.  1.
</event>
<event>
 5    1  0.9023675E-001  0.1000000E+03  0.7546771E-02  0.1163815E+00
         11   -1    0    0    0    0  0.00000000000E+00  0.00000000000E+00  0.50000000000E+02  0.50000000000E+02  0.00000000000E+00 0.  1.
        -11   -1    0    0    0    0 -0.00000000000E+00 -0.00000000000E+00 -0.50000000000E+02  0.50000000000E+02  0.00000000000E+00 0. -1.
         23    2    1    2    0    0  0.00000000000E+00  0.00000000000E+00  0.00000000000E+00  0.10000000000E+03  0.10000000000E+03 0.  0.
          5    1    3    3  501    0  0.34423904401E+02 -0.31368072477E+02  0.17576940429E+02  0.50000000000E+02  0.47000000000E+01 0. -1.
         -5    1    3    3    0  501 -0.34423904401E+02  0.31368072477E+02 -0.17576940429E+02  0.50000000000E+02  0.47000000000E+01 0.  1.
</event>
<event>
 5    1  0.9023675E-001  0.1000000E+03  0.7546771E-02  0.1163815E+00
         11   -1    0    0    0    0  0.00000000000E+00  0.00000000000E+00  0.50000000000E+02  0.50000000000E+02  0.00000000000E+00 0. -1.
        -11   -1    0    0    0    0 -0.00000000000E+00 -0.00000000000E+00 -0.50000000000E+02  0.50000000000E+02  0.00000000000E+00 0.  1.
         23    2    1    2    0    0  0.00000000000E+00  0.00000000000E+00  0.00000000000E+00  0.10000000000E+03  0.10000000000E+03 0.  0.
          5    1    3    3  501    0  0.17666507491E+02  0.23935890334E+02  0.39910871539E+02  0.50000000000E+02  0.47000000000E+01 0. -1.
         -5    1    3    3    0  501 -0.17666507491E+02 -0.23935890334E+02 -0.39910871539E+02  0.50000000000E+02  0.47000000000E+01 0.  1.
</event>
<event>
 5    1  0.9023675E-001  0.1000000E+03  0.7546771E-02  0.1163815E+00
         11   -1    0    0    0    0  0.00000000000E+00  0.00000000000E+00  0.50000000000E+02  0.50000000000E+02  0.00000000000E+00 0. -1.
        -11   -1    0    0    0    0 -0.00000000000E+00 -0.00000000000E+00 -0.50000000000E+02  0.50000000000E+02  0.00000000000E+00 0.  1.
         23    2    1    2    0    0  0.00000000000E+00  0.00000000000E+00  0.00000000000E+00  0.10000000000E+03  0.10000000000E+03 0.  0.
          5    1    3    3  501    0  0.46348854087E+01 -0.26004548800E+02  0.42192313031E+02  0.50000000000E+02  0.47000000000E+01 0. -1.
         -5    1    3    3    0  501 -0.46348854087E+01  0.26004548800E+02 -0.42192313031E+02  0.50000000000E+02  0.47000000000E+01 0.  1.
</event>
<event>
 5    1  0.9023675E-001  0.1000000E+03  0.7546771E-02  0.1163815E+00
         11   -1    0    0    0    0  0.00000000000E+00  0.00000000000E+00  0.50000000000E+02  0.50000000000E+02  0.00000000000E+00 0.  1.
        -11   -1    0    0    0    0 -0.00000000000E+00 -0.00000000000E+00 -0.50000000000E+02  0.50000000000E+02  0.00000000000E+00 0. -1.
         23    2    1    2    0    0  0.00000000000E+00  0.00000000000E+00  0.00000000000E+00  0.10000000000E+03  0.10000000000E+03 0.  0.
          5    1    3    3  501    0 -0.26272979400E+02  0.11453987169E+02 -0.40699468441E+02  0.50000000000E+02  0.47000000000E+01 0. -1.
         -5    1    3    3    0  501  0.26272979400E+02 -0.11453987169E+02  0.40699468441E+02  0.50000000000E+02  0.47000000000E+01 0.  1.
</event>
<event>
 5    1  0.9023675E-001  0.1000000E+03  0.7546771E-02  0.1163815E+00
         11   -1    0    0    0    0  0.00000000000E+00  0.00000000000E+00  0.50000000000E+02  0.50000000000E+02  0.00000000000E+00 0.  1.
        -11   -1    0    0    0    0 -0.00000000000E+00 -0.00000000000E+00 -0.50000000000E+02  0.50000000000E+02  0.00000000000E+00 0. -1.
         23    2    1    2    0    0  0.00000000000E+00  0.00000000000E+00  0.00000000000E+00  0.10000000000E+03  0.10000000000E+03 0.  0.
          5    1    3    3  501    0 -0.48813385450E+02 -0.74866890130E+01 -0.62540297872E+01  0.50000000000E+02  0.47000000000E+01 0. -1.
         -5    1    3    3    0  501  0.48813385450E+02  0.74866890130E+01  0.62540297872E+01  0.50000000000E+02  0.47000000000E+01 0.  1.
</event>
<event>
 5    1  0.9023675E-001  0.1000000E+03  0.7546771E-02  0.1163815E+00
         11   -1    0    0    0    0  0.00000000000E+00  0.00000000000E+00  0.50000000000E+02  0.50000000000E+02  0.00000000000E+00 0. -1.
        -11   -1    0    0    0    0 -0.00000000000E+00 -0.00000000000E+00 -0.50000000000E+02  0.50000000000E+02  0.00000000000E+00 0.  1.
         23    2    1    2    0    0  0.00000000000E+00  0.00000000000E+00  0.00000000000E+00  0.10000000000E+03  0.10000000000E+03 0.  0.
          5    1    3    3  501    0  0.50762473286E+01 -0.45991746093E+02  0.18354863235E+02  0.50000000000E+02  0.47000000000E+01 0. -1.
         -5    1    3    3    0  501 -0.50762473286E+01  0.45991746093E+02 -0.18354863235E+02  0.50000000000E+02  0.47000000000E+01 0.  1.
</event>
<event>
 5    1  0.9023675E-001  0.1000000E+03  0.7546771E-02  0.1163815E+00
         11   -1    0    0    0    0  0.00000000000E+00  0.00000000000E+00  0.50000000000E+02  0.50000000000E+02  0.00000000000E+00 0. -1.
        -11   -1    0    0    0    0 -0.00000000000E+00 -0.00000000000E+00 -0.50000000000E+02  0.50000000000E+02  0.00000000000E+00 0.  1.
         23    2    1    2    0    0  0.00000000000E+00  0.00000000000E+00  0.00000000000E+00  0.10000000000E+03  0.10000000000E+03 0.  0.
          5    1    3    3  501    0 -0.17361387027E+02  0.43556051097E+02  0.16714145306E+02  0.50000000000E+02  0.47000000000E+01 0. -1.
         -5    1    3    3    0  501  0.17361387027E+02 -0.43556051097E+02 -0.16714145306E+02  0.50000000000E+02  0.47000000000E+01 0.  1.
</event>
<event>
 5    1  0.9023675E-001  0.1000000E+03  0.7546771E-02  0.1163815E+00
         11   -1    0    0    0    0  0.00000000000E+00  0.00000000000E+00  0.50000000000E+02  0.50000000000E+02  0.00000000000E+00 0.  1.
        -11   -1    0    0    0    0 -0.00000000000E+00 -0.00000000000E+00 -0.50000000000E+02  0.50000000000E+02  0.00000000000E+00 0. -1.
         23    2    1    2    0    0  0.00000000000E+00  0.00000000000E+00  0.00000000000E+00  0.10000000000E+03  0.10000000000E+03 0.  0.
          5    1    3    3  501    0  0.70370070515E+01  0.34316112997E+01  0.49159074194E+02  0.50000000000E+02  0.47000000000E+01 0.  1.
         -5    1    3    3    0  501 -0.70370070515E+01 -0.34316112997E+01 -0.49159074194E+02  0.50000000000E+02  0.47000000000E+01 0. -1.
</event>
<event>
 5    1  0.9023675E-001  0.1000000E+03  0.7546771E-02  0.1163815E+00
         11   -1    0    0    0    0  0.00000000000E+00  0.00000000000E+00  0.50000000000E+02  0.50000000000E+02  0.00000000000E+00 0. -1.
        -11   -1    0    0    0    0 -0.00000000000E+00 -0.00000000000E+00 -0.50000000000E+02  0.50000000000E+02  0.00000000000E+00 0.  1.
         23    2    1    2    0    0  0.00000000000E+00  0.00000000000E+00  0.00000000000E+00  0.10000000000E+03  0.10000000000E+03 0.  0.
          5    1    3    3  501    0 -0.87214833668E+01 -0.24299117867E+02  0.42560528647E+02  0.50000000000E+02  0.47000000000E+01 0. -1.
         -5    1    3    3    0  501  0.87214833668E+01  0.24299117867E+02 -0.42560528647E+02  0.50000000000E+02  0.47000000000E+01 0.  1.
</event>
<event>
 5    1  0.9023675E-001  0.1000000E+03  0.7546771E-02  0.1163815E+00
         11   -1    0    0    0    0  0.00000000000E+00  0.00000000000E+00  0.50000000000E+02  0.50000000000E+02  0.00000000000E+00 0. -1.
        -11   -1    0    0    0    0 -0.00000000000E+00 -0.00000000000E+00 -0.50000000000E+02  0.50000000000E+02  0.00000000000E+00 0.  1.
         23    2    1    2    0    0  0.00000000000E+00  0.00000000000E+00  0.00000000000E+00  0.10000000000E+03  0.10000000000E+03 0.  0.
          5    1    3    3  501    0  0.19119002906E+02 -0.27303128907E+02  0.36971784915E+02  0.50000000000E+02  0.47000000000E+01 0. -1.
         -5    1    3    3    0  501 -0.19119002906E+02  0.27303128907E+02 -0.36971784915E+02  0.50000000000E+02  0.47000000000E+01 0.  1.
</event>
<event>
 5    1  0.9023675E-001  0.1000000E+03  0.7546771E-02  0.1163815E+00
         11   -1    0    0    0    0  0.00000000000E+00  0.00000000000E+00  0.50000000000E+02  0.50000000000E+02  0.00000000000E+00 0.  1.
        -11   -1    0    0    0    0 -0.00000000000E+00 -0.00000000000E+00 -0.50000000000E+02  0.50000000000E+02  0.00000000000E+00 0. -1.
         23    2    1    2    0    0  0.00000000000E+00  0.00000000000E+00  0.00000000000E+00  0.10000000000E+03  0.10000000000E+03 0.  0.
          5    1    3    3  501    0  0.23792887728E+02 -0.26981619191E+01 -0.43640903013E+02  0.50000000000E+02  0.47000000000E+01 0. -1.
         -5    1    3    3    0  501 -0.23792887728E+02  0.26981619191E+01  0.43640903013E+02  0.50000000000E+02  0.47000000000E+01 0.  1.
</event>
<event>
 5    1  0.9023675E-001  0.1000000E+03  0.7546771E-02  0.1163815E+00
         11   -1    0    0    0    0  0.00000000000E+00  0.00000000000E+00  0.50000000000E+02  0.50000000000E+02  0.00000000000E+00 0. -1.
        -11   -1    0    0    0    0 -0.00000000000E+00 -0.00000000000E+00 -0.50000000000E+02  0.50000000000E+02  0.00000000000E+00 0.  1.
         23    2    1    2    0    0  0.00000000000E+00  0.00000000000E+00  0.00000000000E+00  0.10000000000E+03  0.10000000000E+03 0.  0.
          5    1    3    3  501    0 -0.42519254577E+02 -0.21931064971E+02 -0.13749595611E+02  0.50000000000E+02  0.47000000000E+01 0. -1.
         -5    1    3    3    0  501  0.42519254577E+02  0.21931064971E+02  0.13749595611E+02  0.50000000000E+02  0.47000000000E+01 0.  1.
</event>
<event>
 5    1  0.9023675E-001  0.1000000E+03  0.7546771E-02  0.1163815E+00
         11   -1    0    0    0    0  0.00000000000E+00  0.00000000000E+00  0.50000000000E+02  0.50000000000E+02  0.00000000000E+00 0.  1.
        -11   -1    0    0    0    0 -0.00000000000E+00 -0.00000000000E+00 -0.50000000000E+02  0.50000000000E+02  0.00000000000E+00 0. -1.
         23    2    1    2    0    0  0.00000000000E+00  0.00000000000E+00  0.00000000000E+00  0.10000000000E+03  0.10000000000E+03 0.  0.
          5    1    3    3  501    0  0.29645065147E+02 -0.39984414600E+02 -0.57157814485E+00  0.50000000000E+02  0.47000000000E+01 0. -1.
         -5    1    3    3    0  501 -0.29645065147E+02  0.39984414600E+02  0.57157814485E+00  0.50000000000E+02  0.47000000000E+01 0.  1.
</event>
<event>
 5    1  0.9023675E-001  0.1000000E+03  0.7546771E-02  0.1163815E+00
         11   -1    0    0    0    0  0.00000000000E+00  0.00000000000E+00  0.50000000000E+02  0.50000000000E+02  0.00000000000E+00 0. -1.
        -11   -1    0    0    0    0 -0.00000000000E+00 -0.00000000000E+00 -0.50000000000E+02  0.50000000000E+02  0.00000000000E+00 0.  1.
         23    2    1    2    0    0  0.00000000000E+00  0.00000000000E+00  0.00000000000E+00  0.10000000000E+03  0.10000000000E+03 0.  0.
          5    1    3    3  501    0 -0.17576407304E+02 -0.45867552288E+02 -0.80714034318E+01  0.50000000000E+02  0.47000000000E+01 0. -1.
         -5    1    3    3    0  501  0.17576407304E+02  0.45867552288E+02  0.80714034318E+01  0.50000000000E+02  0.47000000000E+01 0.  1.
</event>
<event>
 5    1  0.9023675E-001  0.1000000E+03  0.7546771E-02  0.1163815E+00
         11   -1    0    0    0    0  0.00000000000E+00  0.00000000000E+00  0.50000000000E+02  0.50000000000E+02  0.00000000000E+00 0.  1.
        -11   -1    0    0    0    0 -0.00000000000E+00 -0.00000000000E+00 -0.50000000000E+02  0.50000000000E+02  0.00000000000E+00 0. -1.
         23    2    1    2    0    0  0.00000000000E+00  0.00000000000E+00  0.00000000000E+00  0.10000000000E+03  0.10000000000E+03 0.  0.
          5    1    3    3  501    0 -0.20901820075E+01 -0.25818859012E+02 -0.42507971705E+02  0.50000000000E+02  0.47000000000E+01 0. -1.
         -5    1    3    3    0  501  0.20901820075E+01  0.25818859012E+02  0.42507971705E+02  0.50000000000E+02  0.47000000000E+01 0.  1.
</event>
<event>
 5    1  0.9023675E-001  0.1000000E+03  0.7546771E-02  0.1163815E+00
         11   -1    0    0    0    0  0.00000000000E+00  0.00000000000E+00  0.50000000000E+02  0.50000000000E+02  0.00000000000E+00 0. -1.
        -11   -1    0    0    0    0 -0.00000000000E+00 -0.00000000000E+00 -0.50000000000E+02  0.50000000000E+02  0.00000000000E+00 0.  1.
         23    2    1    2    0    0  0.00000000000E+00  0.00000000000E+00  0.00000000000E+00  0.10000000000E+03  0.10000000000E+03 0.  0.
          5    1    3    3  501    0  0.36895753065E+01  0.18735447108E+02  0.45970425881E+02  0.50000000000E+02  0.47000000000E+01 0. -1.
         -5    1    3    3    0  501 -0.36895753065E+01 -0.18735447108E+02 -0.45970425881E+02  0.50000000000E+02  0.47000000000E+01 0.  1.
</event>
<event>
 5    1  0.9023675E-001  0.1000000E+03  0.7546771E-02  0.1163815E+00
         11   -1    0    0    0    0  0.00000000000E+00  0.00000000000E+00  0.50000000000E+02  0.50000000000E+02  0.00000000000E+00 0. -1.
        -11   -1    0    0    0    0 -0.00000000000E+00 -0.00000000000E+00 -0.50000000000E+02  0.50000000000E+02  0.00000000000E+00 0.  1.
         23    2    1    2    0    0  0.00000000000E+00  0.00000000000E+00  0.00000000000E+00  0.10000000000E+03  0.10000000000E+03 0.  0.
          5    1    3    3  501    0 -0.57285472683E+01 -0.38411148578E+02  0.31139643721E+02  0.50000000000E+02  0.47000000000E+01 0. -1.
         -5    1    3    3    0  501  0.57285472683E+01  0.38411148578E+02 -0.31139643721E+02  0.50000000000E+02  0.47000000000E+01 0.  1.
</event>
<event>
 5    1  0.9023675E-001  0.1000000E+03  0.7546771E-02  0.1163815E+00
         11   -1    0    0    0    0  0.00000000000E+00  0.00000000000E+00  0.50000000000E+02  0.50000000000E+02  0.00000000000E+00 0. -1.
        -11   -1    0    0    0    0 -0.00000000000E+00 -0.00000000000E+00 -0.50000000000E+02  0.50000000000E+02  0.00000000000E+00 0.  1.
         23    2    1    2    0    0  0.00000000000E+00  0.00000000000E+00  0.00000000000E+00  0.10000000000E+03  0.10000000000E+03 0.  0.
          5    1    3    3  501    0 -0.22240000083E+01  0.28413396627E+02  0.40812286337E+02  0.50000000000E+02  0.47000000000E+01 0. -1.
         -5    1    3    3    0  501  0.22240000083E+01 -0.28413396627E+02 -0.40812286337E+02  0.50000000000E+02  0.47000000000E+01 0.  1.
</event>
<event>
 5    1  0.9023675E-001  0.1000000E+03  0.7546771E-02  0.1163815E+00
         11   -1    0    0    0    0  0.00000000000E+00  0.00000000000E+00  0.50000000000E+02  0.50000000000E+02  0.00000000000E+00 0. -1.
        -11   -1    0    0    0    0 -0.00000000000E+00 -0.00000000000E+00 -0.50000000000E+02  0.50000000000E+02  0.00000000000E+00 0.  1.
         23    2    1    2    0    0  0.00000000000E+00  0.00000000000E+00  0.00000000000E+00  0.10000000000E+03  0.10000000000E+03 0.  0.
          5    1    3    3  501    0  0.56007718224E+01  0.43393553119E+02  0.23739016464E+02  0.50000000000E+02  0.47000000000E+01 0. -1.
         -5    1    3    3    0  501 -0.56007718224E+01 -0.43393553119E+02 -0.23739016464E+02  0.50000000000E+02  0.47000000000E+01 0.  1.
</event>
<event>
 5    1  0.9023675E-001  0.1000000E+03  0.7546771E-02  0.1163815E+00
         11   -1    0    0    0    0  0.00000000000E+00  0.00000000000E+00  0.50000000000E+02  0.50000000000E+02  0.00000000000E+00 0. -1.
        -11   -1    0    0    0    0 -0.00000000000E+00 -0.00000000000E+00 -0.50000000000E+02  0.50000000000E+02  0.00000000000E+00 0.  1.
         23    2    1    2    0    0  0.00000000000E+00  0.00000000000E+00  0.00000000000E+00  0.10000000000E+03  0.10000000000E+03 0.  0.
          5    1    3    3  501    0 -0.19634826130E+01 -0.49080375947E+02  0.80728825653E+01  0.50000000000E+02  0.47000000000E+01 0. -1.
         -5    1    3    3    0  501  0.19634826130E+01  0.49080375947E+02 -0.80728825653E+01  0.50000000000E+02  0.47000000000E+01 0.  1.
</event>
<event>
 5    1  0.9023675E-001  0.1000000E+03  0.7546771E-02  0.1163815E+00
         11   -1    0    0    0    0  0.00000000000E+00  0.00000000000E+00  0.50000000000E+02  0.50000000000E+02  0.00000000000E+00 0. -1.
        -11   -1    0    0    0    0 -0.00000000000E+00 -0.00000000000E+00 -0.50000000000E+02  0.50000000000E+02  0.00000000000E+00 0.  1.
         23    2    1    2    0    0  0.00000000000E+00  0.00000000000E+00  0.00000000000E+00  0.10000000000E+03  0.10000000000E+03 0.  0.
          5    1    3    3  501    0  0.23073827457E+02 -0.22902238444E+02  0.37696100073E+02  0.50000000000E+02  0.47000000000E+01 0. -1.
         -5    1    3    3    0  501 -0.23073827457E+02  0.22902238444E+02 -0.37696100073E+02  0.50000000000E+02  0.47000000000E+01 0.  1.
</event>
<event>
 5    1  0.9023675E-001  0.1000000E+03  0.7546771E-02  0.1163815E+00
         11   -1    0    0    0    0  0.00000000000E+00  0.00000000000E+00  0.50000000000E+02  0.50000000000E+02  0.00000000000E+00 0. -1.
        -11   -1    0    0    0    0 -0.00000000000E+00 -0.00000000000E+00 -0.50000000000E+02  0.50000000000E+02  0.00000000000E+00 0.  1.
         23    2    1    2    0    0  0.00000000000E+00  0.00000000000E+00  0.00000000000E+00  0.10000000000E+03  0.10000000000E+03 0.  0.
          5    1    3    3  501    0  0.12306573242E+02 -0.24342473541E+02  0.41640151740E+02  0.50000000000E+02  0.47000000000E+01 0. -1.
         -5    1    3    3    0  501 -0.12306573242E+02  0.24342473541E+02 -0.41640151740E+02  0.50000000000E+02  0.47000000000E+01 0.  1.
</event>
<event>
 5    1  0.9023675E-001  0.1000000E+03  0.7546771E-02  0.1163815E+00
         11   -1    0    0    0    0  0.00000000000E+00  0.00000000000E+00  0.50000000000E+02  0.50000000000E+02  0.00000000000E+00 0.  1.
        -11   -1    0    0    0    0 -0.00000000000E+00 -0.00000000000E+00 -0.50000000000E+02  0.50000000000E+02  0.00000000000E+00 0. -1.
         23    2    1    2    0    0  0.00000000000E+00  0.00000000000E+00  0.00000000000E+00  0.10000000000E+03  0.10000000000E+03 0.  0.
          5    1    3    3  501    0  0.33007875862E+02  0.23191208132E+02 -0.29164327464E+02  0.50000000000E+02  0.47000000000E+01 0. -1.
         -5    1    3    3    0  501 -0.33007875862E+02 -0.23191208132E+02  0.29164327464E+02  0.50000000000E+02  0.47000000000E+01 0.  1.
</event>
<event>
 5    1  0.9023675E-001  0.1000000E+03  0.7546771E-02  0.1163815E+00
         11   -1    0    0    0    0  0.00000000000E+00  0.00000000000E+00  0.50000000000E+02  0.50000000000E+02  0.00000000000E+00 0. -1.
        -11   -1    0    0    0    0 -0.00000000000E+00 -0.00000000000E+00 -0.50000000000E+02  0.50000000000E+02  0.00000000000E+00 0.  1.
         23    2    1    2    0    0  0.00000000000E+00  0.00000000000E+00  0.00000000000E+00  0.10000000000E+03  0.10000000000E+03 0.  0.
          5    1    3    3  501    0  0.15357324418E+02 -0.41356879011E+02  0.23057995256E+02  0.50000000000E+02  0.47000000000E+01 0. -1.
         -5    1    3    3    0  501 -0.15357324418E+02  0.41356879011E+02 -0.23057995256E+02  0.50000000000E+02  0.47000000000E+01 0.  1.
</event>
<event>
 5    1  0.9023675E-001  0.1000000E+03  0.7546771E-02  0.1163815E+00
         11   -1    0    0    0    0  0.00000000000E+00  0.00000000000E+00  0.50000000000E+02  0.50000000000E+02  0.00000000000E+00 0.  1.
        -11   -1    0    0    0    0 -0.00000000000E+00 -0.00000000000E+00 -0.50000000000E+02  0.50000000000E+02  0.00000000000E+00 0. -1.
         23    2    1    2    0    0  0.00000000000E+00  0.00000000000E+00  0.00000000000E+00  0.10000000000E+03  0.10000000000E+03 0.  0.
          5    1    3    3  501    0  0.37128896874E+01 -0.39746505594E+02 -0.29737850347E+02  0.50000000000E+02  0.47000000000E+01 0. -1.
         -5    1    3    3    0  501 -0.37128896874E+01  0.39746505594E+02  0.29737850347E+02  0.50000000000E+02  0.47000000000E+01 0.  1.
</event>
<event>
 5    1  0.9023675E-001  0.1000000E+03  0.7546771E-02  0.1163815E+00
         11   -1    0    0    0    0  0.00000000000E+00  0.00000000000E+00  0.50000000000E+02  0.50000000000E+02  0.00000000000E+00 0.  1.
        -11   -1    0    0    0    0 -0.00000000000E+00 -0.00000000000E+00 -0.50000000000E+02  0.50000000000E+02  0.00000000000E+00 0. -1.
         23    2    1    2    0    0  0.00000000000E+00  0.00000000000E+00  0.00000000000E+00  0.10000000000E+03  0.10000000000E+03 0.  0.
          5    1    3    3  501    0 -0.48179331378E+02  0.11153446499E+02 -0.56800228137E+01  0.50000000000E+02  0.47000000000E+01 0. -1.
         -5    1    3    3    0  501  0.48179331378E+02 -0.11153446499E+02  0.56800228137E+01  0.50000000000E+02  0.47000000000E+01 0.  1.
</event>
<event>
 5    1  0.9023675E-001  0.1000000E+03  0.7546771E-02  0.1163815E+00
         11   -1    0    0    0    0  0.00000000000E+00  0.00000000000E+00  0.50000000000E+02  0.50000000000E+02  0.00000000000E+00 0. -1.
        -11   -1    0    0    0    0 -0.00000000000E+00 -0.00000000000E+00 -0.50000000000E+02  0.50000000000E+02  0.00000000000E+00 0.  1.
         23    2    1    2    0    0  0.00000000000E+00  0.00000000000E+00  0.00000000000E+00  0.10000000000E+03  0.10000000000E+03 0.  0.
          5    1    3    3  501    0  0.11311800344E+01 -0.34894733296E+02  0.35482221181E+02  0.50000000000E+02  0.47000000000E+01 0. -1.
         -5    1    3    3    0  501 -0.11311800344E+01  0.34894733296E+02 -0.35482221181E+02  0.50000000000E+02  0.47000000000E+01 0.  1.
</event>
<event>
 5    1  0.9023675E-001  0.1000000E+03  0.7546771E-02  0.1163815E+00
         11   -1    0    0    0    0  0.00000000000E+00  0.00000000000E+00  0.50000000000E+02  0.50000000000E+02  0.00000000000E+00 0. -1.
        -11   -1    0    0    0    0 -0.00000000000E+00 -0.00000000000E+00 -0.50000000000E+02  0.50000000000E+02  0.00000000000E+00 0.  1.
         23    2    1    2    0    0  0.00000000000E+00  0.00000000000E+00  0.00000000000E+00  0.10000000000E+03  0.10000000000E+03 0.  0.
          5    1    3    3  501    0  0.45152341485E+02 -0.19680565069E+02  0.72007928024E+01  0.50000000000E+02  0.47000000000E+01 0. -1.
         -5    1    3    3    0  501 -0.45152341485E+02  0.19680565069E+02 -0.72007928024E+01  0.50000000000E+02  0.47000000000E+01 0.  1.
</event>
<event>
 5    1  0.9023675E-001  0.1000000E+03  0.7546771E-02  0.1163815E+00
         11   -1    0    0    0    0  0.00000000000E+00  0.00000000000E+00  0.50000000000E+02  0.50000000000E+02  0.00000000000E+00 0. -1.
        -11   -1    0    0    0    0 -0.00000000000E+00 -0.00000000000E+00 -0.50000000000E+02  0.50000000000E+02  0.00000000000E+00 0.  1.
         23    2    1    2    0    0  0.00000000000E+00  0.00000000000E+00  0.00000000000E+00  0.10000000000E+03  0.10000000000E+03 0.  0.
          5    1    3    3  501    0  0.23127351243E+02 -0.93185537811E+01  0.43083641674E+02  0.50000000000E+02  0.47000000000E+01 0. -1.
         -5    1    3    3    0  501 -0.23127351243E+02  0.93185537811E+01 -0.43083641674E+02  0.50000000000E+02  0.47000000000E+01 0.  1.
</event>
<event>
 5    1  0.9023675E-001  0.1000000E+03  0.7546771E-02  0.1163815E+00
         11   -1    0    0    0    0  0.00000000000E+00  0.00000000000E+00  0.50000000000E+02  0.50000000000E+02  0.00000000000E+00 0.  1.
        -11   -1    0    0    0    0 -0.00000000000E+00 -0.00000000000E+00 -0.50000000000E+02  0.50000000000E+02  0.00000000000E+00 0. -1.
         23    2    1    2    0    0  0.00000000000E+00  0.00000000000E+00  0.00000000000E+00  0.10000000000E+03  0.10000000000E+03 0.  0.
          5    1    3    3  501    0 -0.23777477638E+02 -0.43307887711E+02 -0.60801660470E+01  0.50000000000E+02  0.47000000000E+01 0. -1.
         -5    1    3    3    0  501  0.23777477638E+02  0.43307887711E+02  0.60801660470E+01  0.50000000000E+02  0.47000000000E+01 0.  1.
</event>
<event>
 5    1  0.9023675E-001  0.1000000E+03  0.7546771E-02  0.1163815E+00
         11   -1    0    0    0    0  0.00000000000E+00  0.00000000000E+00  0.50000000000E+02  0.50000000000E+02  0.00000000000E+00 0. -1.
        -11   -1    0    0    0    0 -0.00000000000E+00 -0.00000000000E+00 -0.50000000000E+02  0.50000000000E+02  0.00000000000E+00 0.  1.
         23    2    1    2    0    0  0.00000000000E+00  0.00000000000E+00  0.00000000000E+00  0.10000000000E+03  0.10000000000E+03 0.  0.
          5    1    3    3  501    0  0.15010148497E+02  0.23937230157E+02  0.40983099620E+02  0.50000000000E+02  0.47000000000E+01 0. -1.
         -5    1    3    3    0  501 -0.15010148497E+02 -0.23937230157E+02 -0.40983099620E+02  0.50000000000E+02  0.47000000000E+01 0.  1.
</event>
<event>
 5    1  0.9023675E-001  0.1000000E+03  0.7546771E-02  0.1163815E+00
         11   -1    0    0    0    0  0.00000000000E+00  0.00000000000E+00  0.50000000000E+02  0.50000000000E+02  0.00000000000E+00 0. -1.
        -11   -1    0    0    0    0 -0.00000000000E+00 -0.00000000000E+00 -0.50000000000E+02  0.50000000000E+02  0.00000000000E+00 0.  1.
         23    2    1    2    0    0  0.00000000000E+00  0.00000000000E+00  0.00000000000E+00  0.10000000000E+03  0.10000000000E+03 0.  0.
          5    1    3    3  501    0  0.30727139159E+02 -0.36575382967E+02  0.13999795709E+02  0.50000000000E+02  0.47000000000E+01 0. -1.
         -5    1    3    3    0  501 -0.30727139159E+02  0.36575382967E+02 -0.13999795709E+02  0.50000000000E+02  0.47000000000E+01 0.  1.
</event>
<event>
 5    1  0.9023675E-001  0.1000000E+03  0.7546771E-02  0.1163815E+00
         11   -1    0    0    0    0  0.00000000000E+00  0.00000000000E+00  0.50000000000E+02  0.50000000000E+02  0.00000000000E+00 0. -1.
        -11   -1    0    0    0    0 -0.00000000000E+00 -0.00000000000E+00 -0.50000000000E+02  0.50000000000E+02  0.00000000000E+00 0.  1.
         23    2    1    2    0    0  0.00000000000E+00  0.00000000000E+00  0.00000000000E+00  0.10000000000E+03  0.10000000000E+03 0.  0.
          5    1    3    3  501    0  0.51100401808E+01  0.49192870196E+02  0.56443787313E+01  0.50000000000E+02  0.47000000000E+01 0. -1.
         -5    1    3    3    0  501 -0.51100401808E+01 -0.49192870196E+02 -0.56443787313E+01  0.50000000000E+02  0.47000000000E+01 0.  1.
</event>
<event>
 5    1  0.9023675E-001  0.1000000E+03  0.7546771E-02  0.1163815E+00
         11   -1    0    0    0    0  0.00000000000E+00  0.00000000000E+00  0.50000000000E+02  0.50000000000E+02  0.00000000000E+00 0. -1.
        -11   -1    0    0    0    0 -0.00000000000E+00 -0.00000000000E+00 -0.50000000000E+02  0.50000000000E+02  0.00000000000E+00 0.  1.
         23    2    1    2    0    0  0.00000000000E+00  0.00000000000E+00  0.00000000000E+00  0.10000000000E+03  0.10000000000E+03 0.  0.
          5    1    3    3  501    0  0.51493426429E+01 -0.22321419655E+02  0.44194439638E+02  0.50000000000E+02  0.47000000000E+01 0. -1.
         -5    1    3    3    0  501 -0.51493426429E+01  0.22321419655E+02 -0.44194439638E+02  0.50000000000E+02  0.47000000000E+01 0.  1.
</event>
<event>
 5    1  0.9023675E-001  0.1000000E+03  0.7546771E-02  0.1163815E+00
         11   -1    0    0    0    0  0.00000000000E+00  0.00000000000E+00  0.50000000000E+02  0.50000000000E+02  0.00000000000E+00 0. -1.
        -11   -1    0    0    0    0 -0.00000000000E+00 -0.00000000000E+00 -0.50000000000E+02  0.50000000000E+02  0.00000000000E+00 0.  1.
         23    2    1    2    0    0  0.00000000000E+00  0.00000000000E+00  0.00000000000E+00  0.10000000000E+03  0.10000000000E+03 0.  0.
          5    1    3    3  501    0 -0.48141791493E+02 -0.10544580216E+02  0.70064070597E+01  0.50000000000E+02  0.47000000000E+01 0. -1.
         -5    1    3    3    0  501  0.48141791493E+02  0.10544580216E+02 -0.70064070597E+01  0.50000000000E+02  0.47000000000E+01 0.  1.
</event>
<event>
 5    1  0.9023675E-001  0.1000000E+03  0.7546771E-02  0.1163815E+00
         11   -1    0    0    0    0  0.00000000000E+00  0.00000000000E+00  0.50000000000E+02  0.50000000000E+02  0.00000000000E+00 0. -1.
        -11   -1    0    0    0    0 -0.00000000000E+00 -0.00000000000E+00 -0.50000000000E+02  0.50000000000E+02  0.00000000000E+00 0.  1.
         23    2    1    2    0    0  0.00000000000E+00  0.00000000000E+00  0.00000000000E+00  0.10000000000E+03  0.10000000000E+03 0.  0.
          5    1    3    3  501    0  0.47528174852E+02 -0.13474831150E+02 -0.61164957838E+01  0.50000000000E+02  0.47000000000E+01 0. -1.
         -5    1    3    3    0  501 -0.47528174852E+02  0.13474831150E+02  0.61164957838E+01  0.50000000000E+02  0.47000000000E+01 0.  1.
</event>
<event>
 5    1  0.9023675E-001  0.1000000E+03  0.7546771E-02  0.1163815E+00
         11   -1    0    0    0    0  0.00000000000E+00  0.00000000000E+00  0.50000000000E+02  0.50000000000E+02  0.00000000000E+00 0. -1.
        -11   -1    0    0    0    0 -0.00000000000E+00 -0.00000000000E+00 -0.50000000000E+02  0.50000000000E+02  0.00000000000E+00 0.  1.
         23    2    1    2    0    0  0.00000000000E+00  0.00000000000E+00  0.00000000000E+00  0.10000000000E+03  0.10000000000E+03 0.  0.
          5    1    3    3  501    0  0.23686830793E+02  0.41137299794E+02  0.14985546791E+02  0.50000000000E+02  0.47000000000E+01 0. -1.
         -5    1    3    3    0  501 -0.23686830793E+02 -0.41137299794E+02 -0.14985546791E+02  0.50000000000E+02  0.47000000000E+01 0.  1.
</event>
<event>
 5    1  0.9023675E-001  0.1000000E+03  0.7546771E-02  0.1163815E+00
         11   -1    0    0    0    0  0.00000000000E+00  0.00000000000E+00  0.50000000000E+02  0.50000000000E+02  0.00000000000E+00 0. -1.
        -11   -1    0    0    0    0 -0.00000000000E+00 -0.00000000000E+00 -0.50000000000E+02  0.50000000000E+02  0.00000000000E+00 0.  1.
         23    2    1    2    0    0  0.00000000000E+00  0.00000000000E+00  0.00000000000E+00  0.10000000000E+03  0.10000000000E+03 0.  0.
          5    1    3    3  501    0  0.37600223037E+02 -0.24417918384E+02  0.21630961360E+02  0.50000000000E+02  0.47000000000E+01 0. -1.
         -5    1    3    3    0  501 -0.37600223037E+02  0.24417918384E+02 -0.21630961360E+02  0.50000000000E+02  0.47000000000E+01 0.  1.
</event>
<event>
 5    1  0.9023675E-001  0.1000000E+03  0.7546771E-02  0.1163815E+00
         11   -1    0    0    0    0  0.00000000000E+00  0.00000000000E+00  0.50000000000E+02  0.50000000000E+02  0.00000000000E+00 0. -1.
        -11   -1    0    0    0    0 -0.00000000000E+00 -0.00000000000E+00 -0.50000000000E+02  0.50000000000E+02  0.00000000000E+00 0.  1.
         23    2    1    2    0    0  0.00000000000E+00  0.00000000000E+00  0.00000000000E+00  0.10000000000E+03  0.10000000000E+03 0.  0.
          5    1    3    3  501    0 -0.21892681050E+02 -0.32276207843E+02  0.30933265648E+02  0.50000000000E+02  0.47000000000E+01 0. -1.
         -5    1    3    3    0  501  0.21892681050E+02  0.32276207843E+02 -0.30933265648E+02  0.50000000000E+02  0.47000000000E+01 0.  1.
</event>
<event>
 5    1  0.9023675E-001  0.1000000E+03  0.7546771E-02  0.1163815E+00
         11   -1    0    0    0    0  0.00000000000E+00  0.00000000000E+00  0.50000000000E+02  0.50000000000E+02  0.00000000000E+00 0.  1.
        -11   -1    0    0    0    0 -0.00000000000E+00 -0.00000000000E+00 -0.50000000000E+02  0.50000000000E+02  0.00000000000E+00 0. -1.
         23    2    1    2    0    0  0.00000000000E+00  0.00000000000E+00  0.00000000000E+00  0.10000000000E+03  0.10000000000E+03 0.  0.
          5    1    3    3  501    0 -0.32202504594E+02  0.35199921858E+02 -0.14208244053E+02  0.50000000000E+02  0.47000000000E+01 0. -1.
         -5    1    3    3    0  501  0.32202504594E+02 -0.35199921858E+02  0.14208244053E+02  0.50000000000E+02  0.47000000000E+01 0.  1.
</event>
<event>
 5    1  0.9023675E-001  0.1000000E+03  0.7546771E-02  0.1163815E+00
         11   -1    0    0    0    0  0.00000000000E+00  0.00000000000E+00  0.50000000000E+02  0.50000000000E+02  0.00000000000E+00 0. -1.
        -11   -1    0    0    0    0 -0.00000000000E+00 -0.00000000000E+00 -0.50000000000E+02  0.50000000000E+02  0.00000000000E+00 0.  1.
         23    2    1    2    0    0  0.00000000000E+00  0.00000000000E+00  0.00000000000E+00  0.10000000000E+03  0.10000000000E+03 0.  0.
          5    1    3    3  501    0  0.96798985283E+01 -0.24444771273E+02  0.42268933295E+02  0.50000000000E+02  0.47000000000E+01 0. -1.
         -5    1    3    3    0  501 -0.96798985283E+01  0.24444771273E+02 -0.42268933295E+02  0.50000000000E+02  0.47000000000E+01 0.  1.
</event>
<event>
 5    1  0.9023675E-001  0.1000000E+03  0.7546771E-02  0.1163815E+00
         11   -1    0    0    0    0  0.00000000000E+00  0.00000000000E+00  0.50000000000E+02  0.50000000000E+02  0.00000000000E+00 0. -1.
        -11   -1    0    0    0    0 -0.00000000000E+00 -0.00000000000E+00 -0.50000000000E+02  0.50000000000E+02  0.00000000000E+00 0.  1.
         23    2    1    2    0    0  0.00000000000E+00  0.00000000000E+00  0.00000000000E+00  0.10000000000E+03  0.10000000000E+03 0.  0.
          5    1    3    3  501    0  0.28869557197E+02 -0.34460229187E+02  0.21376418588E+02  0.50000000000E+02  0.47000000000E+01 0. -1.
         -5    1    3    3    0  501 -0.28869557197E+02  0.34460229187E+02 -0.21376418588E+02  0.50000000000E+02  0.47000000000E+01 0.  1.
</event>
<event>
 5    1  0.9023675E-001  0.1000000E+03  0.7546771E-02  0.1163815E+00
         11   -1    0    0    0    0  0.00000000000E+00  0.00000000000E+00  0.50000000000E+02  0.50000000000E+02  0.00000000000E+00 0. -1.
        -11   -1    0    0    0    0 -0.00000000000E+00 -0.00000000000E+00 -0.50000000000E+02  0.50000000000E+02  0.00000000000E+00 0.  1.
         23    2    1    2    0    0  0.00000000000E+00  0.00000000000E+00  0.00000000000E+00  0.10000000000E+03  0.10000000000E+03 0.  0.
          5    1    3    3  501    0 -0.13681772588E+02 -0.36792417768E+02  0.30611061622E+02  0.50000000000E+02  0.47000000000E+01 0. -1.
         -5    1    3    3    0  501  0.13681772588E+02  0.36792417768E+02 -0.30611061622E+02  0.50000000000E+02  0.47000000000E+01 0.  1.
</event>
<event>
 5    1  0.9023675E-001  0.1000000E+03  0.7546771E-02  0.1163815E+00
         11   -1    0    0    0    0  0.00000000000E+00  0.00000000000E+00  0.50000000000E+02  0.50000000000E+02  0.00000000000E+00 0. -1.
        -11   -1    0    0    0    0 -0.00000000000E+00 -0.00000000000E+00 -0.50000000000E+02  0.50000000000E+02  0.00000000000E+00 0.  1.
         23    2    1    2    0    0  0.00000000000E+00  0.00000000000E+00  0.00000000000E+00  0.10000000000E+03  0.10000000000E+03 0.  0.
          5    1    3    3  501    0  0.49482049867E+02  0.45257031905E+01  0.29924491016E+01  0.50000000000E+02  0.47000000000E+01 0. -1.
         -5    1    3    3    0  501 -0.49482049867E+02 -0.45257031905E+01 -0.29924491016E+01  0.50000000000E+02  0.47000000000E+01 0.  1.
</event>
<event>
 5    1  0.9023675E-001  0.1000000E+03  0.7546771E-02  0.1163815E+00
         11   -1    0    0    0    0  0.00000000000E+00  0.00000000000E+00  0.50000000000E+02  0.50000000000E+02  0.00000000000E+00 0.  1.
        -11   -1    0    0    0    0 -0.00000000000E+00 -0.00000000000E+00 -0.50000000000E+02  0.50000000000E+02  0.00000000000E+00 0. -1.
         23    2    1    2    0    0  0.00000000000E+00  0.00000000000E+00  0.00000000000E+00  0.10000000000E+03  0.10000000000E+03 0.  0.
          5    1    3    3  501    0 -0.30633683681E+02 -0.30245807262E+02 -0.24993570518E+02  0.50000000000E+02  0.47000000000E+01 0. -1.
         -5    1    3    3    0  501  0.30633683681E+02  0.30245807262E+02  0.24993570518E+02  0.50000000000E+02  0.47000000000E+01 0.  1.
</event>
<event>
 5    1  0.9023675E-001  0.1000000E+03  0.7546771E-02  0.1163815E+00
         11   -1    0    0    0    0  0.00000000000E+00  0.00000000000E+00  0.50000000000E+02  0.50000000000E+02  0.00000000000E+00 0. -1.
        -11   -1    0    0    0    0 -0.00000000000E+00 -0.00000000000E+00 -0.50000000000E+02  0.50000000000E+02  0.00000000000E+00 0.  1.
         23    2    1    2    0    0  0.00000000000E+00  0.00000000000E+00  0.00000000000E+00  0.10000000000E+03  0.10000000000E+03 0.  0.
          5    1    3    3  501    0 -0.18836019443E+02 -0.30061395686E+02  0.34920292968E+02  0.50000000000E+02  0.47000000000E+01 0. -1.
         -5    1    3    3    0  501  0.18836019443E+02  0.30061395686E+02 -0.34920292968E+02  0.50000000000E+02  0.47000000000E+01 0.  1.
</event>
<event>
 5    1  0.9023675E-001  0.1000000E+03  0.7546771E-02  0.1163815E+00
         11   -1    0    0    0    0  0.00000000000E+00  0.00000000000E+00  0.50000000000E+02  0.50000000000E+02  0.00000000000E+00 0. -1.
        -11   -1    0    0    0    0 -0.00000000000E+00 -0.00000000000E+00 -0.50000000000E+02  0.50000000000E+02  0.00000000000E+00 0.  1.
         23    2    1    2    0    0  0.00000000000E+00  0.00000000000E+00  0.00000000000E+00  0.10000000000E+03  0.10000000000E+03 0.  0.
          5    1    3    3  501    0  0.37737170434E+01 -0.24924418689E+00  0.49634735186E+02  0.50000000000E+02  0.47000000000E+01 0. -1.
         -5    1    3    3    0  501 -0.37737170434E+01  0.24924418689E+00 -0.49634735186E+02  0.50000000000E+02  0.47000000000E+01 0.  1.
</event>
<event>
 5    1  0.9023675E-001  0.1000000E+03  0.7546771E-02  0.1163815E+00
         11   -1    0    0    0    0  0.00000000000E+00  0.00000000000E+00  0.50000000000E+02  0.50000000000E+02  0.00000000000E+00 0.  1.
        -11   -1    0    0    0    0 -0.00000000000E+00 -0.00000000000E+00 -0.50000000000E+02  0.50000000000E+02  0.00000000000E+00 0. -1.
         23    2    1    2    0    0  0.00000000000E+00  0.00000000000E+00  0.00000000000E+00  0.10000000000E+03  0.10000000000E+03 0.  0.
          5    1    3    3  501    0 -0.43192704416E+02 -0.24739637502E+02  0.50062108359E+00  0.50000000000E+02  0.47000000000E+01 0. -1.
         -5    1    3    3    0  501  0.43192704416E+02  0.24739637502E+02 -0.50062108359E+00  0.50000000000E+02  0.47000000000E+01 0.  1.
</event>
<event>
 5    1  0.9023675E-001  0.1000000E+03  0.7546771E-02  0.1163815E+00
         11   -1    0    0    0    0  0.00000000000E+00  0.00000000000E+00  0.50000000000E+02  0.50000000000E+02  0.00000000000E+00 0.  1.
        -11   -1    0    0    0    0 -0.00000000000E+00 -0.00000000000E+00 -0.50000000000E+02  0.50000000000E+02  0.00000000000E+00 0. -1.
         23    2    1    2    0    0  0.00000000000E+00  0.00000000000E+00  0.00000000000E+00  0.10000000000E+03  0.10000000000E+03 0.  0.
          5    1    3    3  501    0  0.15222399123E+02  0.35321036206E+02 -0.31600838063E+02  0.50000000000E+02  0.47000000000E+01 0. -1.
         -5    1    3    3    0  501 -0.15222399123E+02 -0.35321036206E+02  0.31600838063E+02  0.50000000000E+02  0.47000000000E+01 0.  1.
</event>
<event>
 5    1  0.9023675E-001  0.1000000E+03  0.7546771E-02  0.1163815E+00
         11   -1    0    0    0    0  0.00000000000E+00  0.00000000000E+00  0.50000000000E+02  0.50000000000E+02  0.00000000000E+00 0. -1.
        -11   -1    0    0    0    0 -0.00000000000E+00 -0.00000000000E+00 -0.50000000000E+02  0.50000000000E+02  0.00000000000E+00 0.  1.
         23    2    1    2    0    0  0.00000000000E+00  0.00000000000E+00  0.00000000000E+00  0.10000000000E+03  0.10000000000E+03 0.  0.
          5    1    3    3  501    0 -0.47420666259E+02 -0.60674735243E+01  0.13869973921E+02  0.50000000000E+02  0.47000000000E+01 0. -1.
         -5    1    3    3    0  501  0.47420666259E+02  0.60674735243E+01 -0.13869973921E+02  0.50000000000E+02  0.47000000000E+01 0.  1.
</event>
<event>
 5    1  0.9023675E-001  0.1000000E+03  0.7546771E-02  0.1163815E+00
         11   -1    0    0    0    0  0.00000000000E+00  0.00000000000E+00  0.50000000000E+02  0.50000000000E+02  0.00000000000E+00 0.  1.
        -11   -1    0    0    0    0 -0.00000000000E+00 -0.00000000000E+00 -0.50000000000E+02  0.50000000000E+02  0.00000000000E+00 0. -1.
         23    2    1    2    0    0  0.00000000000E+00  0.00000000000E+00  0.00000000000E+00  0.10000000000E+03  0.10000000000E+03 0.  0.
          5    1    3    3  501    0 -0.45755737178E+02 -0.19503442009E+02 -0.19845062553E+01  0.50000000000E+02  0.47000000000E+01 0. -1.
         -5    1    3    3    0  501  0.45755737178E+02  0.19503442009E+02  0.19845062553E+01  0.50000000000E+02  0.47000000000E+01 0.  1.
</event>
<event>
 5    1  0.9023675E-001  0.1000000E+03  0.7546771E-02  0.1163815E+00
         11   -1    0    0    0    0  0.00000000000E+00  0.00000000000E+00  0.50000000000E+02  0.50000000000E+02  0.00000000000E+00 0.  1.
        -11   -1    0    0    0    0 -0.00000000000E+00 -0.00000000000E+00 -0.50000000000E+02  0.50000000000E+02  0.00000000000E+00 0. -1.
         23    2    1    2    0    0  0.00000000000E+00  0.00000000000E+00  0.00000000000E+00  0.10000000000E+03  0.10000000000E+03 0.  0.
          5    1    3    3  501    0 -0.17164957819E+02 -0.30489963028E+02 -0.35406727858E+02  0.50000000000E+02  0.47000000000E+01 0. -1.
         -5    1    3    3    0  501  0.17164957819E+02  0.30489963028E+02  0.35406727858E+02  0.50000000000E+02  0.47000000000E+01 0.  1.
</event>
<event>
 5    1  0.9023675E-001  0.1000000E+03  0.7546771E-02  0.1163815E+00
         11   -1    0    0    0    0  0.00000000000E+00  0.00000000000E+00  0.50000000000E+02  0.50000000000E+02  0.00000000000E+00 0. -1.
        -11   -1    0    0    0    0 -0.00000000000E+00 -0.00000000000E+00 -0.50000000000E+02  0.50000000000E+02  0.00000000000E+00 0.  1.
         23    2    1    2    0    0  0.00000000000E+00  0.00000000000E+00  0.00000000000E+00  0.10000000000E+03  0.10000000000E+03 0.  0.
          5    1    3    3  501    0 -0.19664501689E+02  0.40010148811E+02  0.22145098001E+02  0.50000000000E+02  0.47000000000E+01 0. -1.
         -5    1    3    3    0  501  0.19664501689E+02 -0.40010148811E+02 -0.22145098001E+02  0.50000000000E+02  0.47000000000E+01 0.  1.
</event>
<event>
 5    1  0.9023675E-001  0.1000000E+03  0.7546771E-02  0.1163815E+00
         11   -1    0    0    0    0  0.00000000000E+00  0.00000000000E+00  0.50000000000E+02  0.50000000000E+02  0.00000000000E+00 0. -1.
        -11   -1    0    0    0    0 -0.00000000000E+00 -0.00000000000E+00 -0.50000000000E+02  0.50000000000E+02  0.00000000000E+00 0.  1.
         23    2    1    2    0    0  0.00000000000E+00  0.00000000000E+00  0.00000000000E+00  0.10000000000E+03  0.10000000000E+03 0.  0.
          5    1    3    3  501    0  0.38283595345E+02 -0.10009599188E+02  0.30200732633E+02  0.50000000000E+02  0.47000000000E+01 0. -1.
         -5    1    3    3    0  501 -0.38283595345E+02  0.10009599188E+02 -0.30200732633E+02  0.50000000000E+02  0.47000000000E+01 0.  1.
</event>
<event>
 5    1  0.9023675E-001  0.1000000E+03  0.7546771E-02  0.1163815E+00
         11   -1    0    0    0    0  0.00000000000E+00  0.00000000000E+00  0.50000000000E+02  0.50000000000E+02  0.00000000000E+00 0.  1.
        -11   -1    0    0    0    0 -0.00000000000E+00 -0.00000000000E+00 -0.50000000000E+02  0.50000000000E+02  0.00000000000E+00 0. -1.
         23    2    1    2    0    0  0.00000000000E+00  0.00000000000E+00  0.00000000000E+00  0.10000000000E+03  0.10000000000E+03 0.  0.
          5    1    3    3  501    0  0.12909849284E+02 -0.14820681205E+02 -0.45733939258E+02  0.50000000000E+02  0.47000000000E+01 0. -1.
         -5    1    3    3    0  501 -0.12909849284E+02  0.14820681205E+02  0.45733939258E+02  0.50000000000E+02  0.47000000000E+01 0.  1.
</event>
<event>
 5    1  0.9023675E-001  0.1000000E+03  0.7546771E-02  0.1163815E+00
         11   -1    0    0    0    0  0.00000000000E+00  0.00000000000E+00  0.50000000000E+02  0.50000000000E+02  0.00000000000E+00 0. -1.
        -11   -1    0    0    0    0 -0.00000000000E+00 -0.00000000000E+00 -0.50000000000E+02  0.50000000000E+02  0.00000000000E+00 0.  1.
         23    2    1    2    0    0  0.00000000000E+00  0.00000000000E+00  0.00000000000E+00  0.10000000000E+03  0.10000000000E+03 0.  0.
          5    1    3    3  501    0 -0.26968787784E+02  0.39275165975E+02  0.14424140289E+02  0.50000000000E+02  0.47000000000E+01 0. -1.
         -5    1    3    3    0  501  0.26968787784E+02 -0.39275165975E+02 -0.14424140289E+02  0.50000000000E+02  0.47000000000E+01 0.  1.
</event>
<event>
 5    1  0.9023675E-001  0.1000000E+03  0.7546771E-02  0.1163815E+00
         11   -1    0    0    0    0  0.00000000000E+00  0.00000000000E+00  0.50000000000E+02  0.50000000000E+02  0.00000000000E+00 0. -1.
        -11   -1    0    0    0    0 -0.00000000000E+00 -0.00000000000E+00 -0.50000000000E+02  0.50000000000E+02  0.00000000000E+00 0.  1.
         23    2    1    2    0    0  0.00000000000E+00  0.00000000000E+00  0.00000000000E+00  0.10000000000E+03  0.10000000000E+03 0.  0.
          5    1    3    3  501    0 -0.18910514926E+02  0.38099461189E+02  0.25859881716E+02  0.50000000000E+02  0.47000000000E+01 0. -1.
         -5    1    3    3    0  501  0.18910514926E+02 -0.38099461189E+02 -0.25859881716E+02  0.50000000000E+02  0.47000000000E+01 0.  1.
</event>
<event>
 5    1  0.9023675E-001  0.1000000E+03  0.7546771E-02  0.1163815E+00
         11   -1    0    0    0    0  0.00000000000E+00  0.00000000000E+00  0.50000000000E+02  0.50000000000E+02  0.00000000000E+00 0. -1.
        -11   -1    0    0    0    0 -0.00000000000E+00 -0.00000000000E+00 -0.50000000000E+02  0.50000000000E+02  0.00000000000E+00 0.  1.
         23    2    1    2    0    0  0.00000000000E+00  0.00000000000E+00  0.00000000000E+00  0.10000000000E+03  0.10000000000E+03 0.  0.
          5    1    3    3  501    0 -0.23401836215E+02 -0.85458228177E+01  0.43095625928E+02  0.50000000000E+02  0.47000000000E+01 0. -1.
         -5    1    3    3    0  501  0.23401836215E+02  0.85458228177E+01 -0.43095625928E+02  0.50000000000E+02  0.47000000000E+01 0.  1.
</event>
<event>
 5    1  0.9023675E-001  0.1000000E+03  0.7546771E-02  0.1163815E+00
         11   -1    0    0    0    0  0.00000000000E+00  0.00000000000E+00  0.50000000000E+02  0.50000000000E+02  0.00000000000E+00 0. -1.
        -11   -1    0    0    0    0 -0.00000000000E+00 -0.00000000000E+00 -0.50000000000E+02  0.50000000000E+02  0.00000000000E+00 0.  1.
         23    2    1    2    0    0  0.00000000000E+00  0.00000000000E+00  0.00000000000E+00  0.10000000000E+03  0.10000000000E+03 0.  0.
          5    1    3    3  501    0 -0.40144402715E+02  0.13726886326E+02  0.26036695690E+02  0.50000000000E+02  0.47000000000E+01 0. -1.
         -5    1    3    3    0  501  0.40144402715E+02 -0.13726886326E+02 -0.26036695690E+02  0.50000000000E+02  0.47000000000E+01 0.  1.
</event>
<event>
 5    1  0.9023675E-001  0.1000000E+03  0.7546771E-02  0.1163815E+00
         11   -1    0    0    0    0  0.00000000000E+00  0.00000000000E+00  0.50000000000E+02  0.50000000000E+02  0.00000000000E+00 0. -1.
        -11   -1    0    0    0    0 -0.00000000000E+00 -0.00000000000E+00 -0.50000000000E+02  0.50000000000E+02  0.00000000000E+00 0.  1.
         23    2    1    2    0    0  0.00000000000E+00  0.00000000000E+00  0.00000000000E+00  0.10000000000E+03  0.10000000000E+03 0.  0.
          5    1    3    3  501    0  0.30805548128E+02 -0.36533935669E+02  0.13935557004E+02  0.50000000000E+02  0.47000000000E+01 0. -1.
         -5    1    3    3    0  501 -0.30805548128E+02  0.36533935669E+02 -0.13935557004E+02  0.50000000000E+02  0.47000000000E+01 0.  1.
</event>
<event>
 5    1  0.9023675E-001  0.1000000E+03  0.7546771E-02  0.1163815E+00
         11   -1    0    0    0    0  0.00000000000E+00  0.00000000000E+00  0.50000000000E+02  0.50000000000E+02  0.00000000000E+00 0. -1.
        -11   -1    0    0    0    0 -0.00000000000E+00 -0.00000000000E+00 -0.50000000000E+02  0.50000000000E+02  0.00000000000E+00 0.  1.
         23    2    1    2    0    0  0.00000000000E+00  0.00000000000E+00  0.00000000000E+00  0.10000000000E+03  0.10000000000E+03 0.  0.
          5    1    3    3  501    0 -0.93860990634E+00  0.32917599104E+02  0.37329086256E+02  0.50000000000E+02  0.47000000000E+01 0. -1.
         -5    1    3    3    0  501  0.93860990634E+00 -0.32917599104E+02 -0.37329086256E+02  0.50000000000E+02  0.47000000000E+01 0.  1.
</event>
<event>
 5    1  0.9023675E-001  0.1000000E+03  0.7546771E-02  0.1163815E+00
         11   -1    0    0    0    0  0.00000000000E+00  0.00000000000E+00  0.50000000000E+02  0.50000000000E+02  0.00000000000E+00 0.  1.
        -11   -1    0    0    0    0 -0.00000000000E+00 -0.00000000000E+00 -0.50000000000E+02  0.50000000000E+02  0.00000000000E+00 0. -1.
         23    2    1    2    0    0  0.00000000000E+00  0.00000000000E+00  0.00000000000E+00  0.10000000000E+03  0.10000000000E+03 0.  0.
          5    1    3    3  501    0  0.35427411521E+02  0.33409386924E+02 -0.10325762842E+02  0.50000000000E+02  0.47000000000E+01 0. -1.
         -5    1    3    3    0  501 -0.35427411521E+02 -0.33409386924E+02  0.10325762842E+02  0.50000000000E+02  0.47000000000E+01 0.  1.
</event>
<event>
 5    1  0.9023675E-001  0.1000000E+03  0.7546771E-02  0.1163815E+00
         11   -1    0    0    0    0  0.00000000000E+00  0.00000000000E+00  0.50000000000E+02  0.50000000000E+02  0.00000000000E+00 0. -1.
        -11   -1    0    0    0    0 -0.00000000000E+00 -0.00000000000E+00 -0.50000000000E+02  0.50000000000E+02  0.00000000000E+00 0.  1.
         23    2    1    2    0    0  0.00000000000E+00  0.00000000000E+00  0.00000000000E+00  0.10000000000E+03  0.10000000000E+03 0.  0.
          5    1    3    3  501    0 -0.23877855519E+02 -0.26217874912E+02  0.34933952695E+02  0.50000000000E+02  0.47000000000E+01 0. -1.
         -5    1    3    3    0  501  0.23877855519E+02  0.26217874912E+02 -0.34933952695E+02  0.50000000000E+02  0.47000000000E+01 0.  1.
</event>
<event>
 5    1  0.9023675E-001  0.1000000E+03  0.7546771E-02  0.1163815E+00
         11   -1    0    0    0    0  0.00000000000E+00  0.00000000000E+00  0.50000000000E+02  0.50000000000E+02  0.00000000000E+00 0. -1.
        -11   -1    0    0    0    0 -0.00000000000E+00 -0.00000000000E+00 -0.50000000000E+02  0.50000000000E+02  0.00000000000E+00 0.  1.
         23    2    1    2    0    0  0.00000000000E+00  0.00000000000E+00  0.00000000000E+00  0.10000000000E+03  0.10000000000E+03 0.  0.
          5    1    3    3  501    0 -0.29666079853E+02 -0.45619173813E+01  0.39711744056E+02  0.50000000000E+02  0.47000000000E+01 0. -1.
         -5    1    3    3    0  501  0.29666079853E+02  0.45619173813E+01 -0.39711744056E+02  0.50000000000E+02  0.47000000000E+01 0.  1.
</event>
<event>
 5    1  0.9023675E-001  0.1000000E+03  0.7546771E-02  0.1163815E+00
         11   -1    0    0    0    0  0.00000000000E+00  0.00000000000E+00  0.50000000000E+02  0.50000000000E+02  0.00000000000E+00 0. -1.
        -11   -1    0    0    0    0 -0.00000000000E+00 -0.00000000000E+00 -0.50000000000E+02  0.50000000000E+02  0.00000000000E+00 0.  1.
         23    2    1    2    0    0  0.00000000000E+00  0.00000000000E+00  0.00000000000E+00  0.10000000000E+03  0.10000000000E+03 0.  0.
          5    1    3    3  501    0 -0.27638926846E+02  0.77414406556E+00  0.41393241281E+02  0.50000000000E+02  0.47000000000E+01 0. -1.
         -5    1    3    3    0  501  0.27638926846E+02 -0.77414406556E+00 -0.41393241281E+02  0.50000000000E+02  0.47000000000E+01 0.  1.
</event>
<event>
 5    1  0.9023675E-001  0.1000000E+03  0.7546771E-02  0.1163815E+00
         11   -1    0    0    0    0  0.00000000000E+00  0.00000000000E+00  0.50000000000E+02  0.50000000000E+02  0.00000000000E+00 0. -1.
        -11   -1    0    0    0    0 -0.00000000000E+00 -0.00000000000E+00 -0.50000000000E+02  0.50000000000E+02  0.00000000000E+00 0.  1.
         23    2    1    2    0    0  0.00000000000E+00  0.00000000000E+00  0.00000000000E+00  0.10000000000E+03  0.10000000000E+03 0.  0.
          5    1    3    3  501    0  0.14820142832E+02  0.12898179581E+02  0.45737406244E+02  0.50000000000E+02  0.47000000000E+01 0. -1.
         -5    1    3    3    0  501 -0.14820142832E+02 -0.12898179581E+02 -0.45737406244E+02  0.50000000000E+02  0.47000000000E+01 0.  1.
</event>
<event>
 5    1  0.9023675E-001  0.1000000E+03  0.7546771E-02  0.1163815E+00
         11   -1    0    0    0    0  0.00000000000E+00  0.00000000000E+00  0.50000000000E+02  0.50000000000E+02  0.00000000000E+00 0. -1.
        -11   -1    0    0    0    0 -0.00000000000E+00 -0.00000000000E+00 -0.50000000000E+02  0.50000000000E+02  0.00000000000E+00 0.  1.
         23    2    1    2    0    0  0.00000000000E+00  0.00000000000E+00  0.00000000000E+00  0.10000000000E+03  0.10000000000E+03 0.  0.
          5    1    3    3  501    0 -0.34971292672E+02 -0.10065803224E+02  0.33964662435E+02  0.50000000000E+02  0.47000000000E+01 0. -1.
         -5    1    3    3    0  501  0.34971292672E+02  0.10065803224E+02 -0.33964662435E+02  0.50000000000E+02  0.47000000000E+01 0.  1.
</event>
<event>
 5    1  0.9023675E-001  0.1000000E+03  0.7546771E-02  0.1163815E+00
         11   -1    0    0    0    0  0.00000000000E+00  0.00000000000E+00  0.50000000000E+02  0.50000000000E+02  0.00000000000E+00 0. -1.
        -11   -1    0    0    0    0 -0.00000000000E+00 -0.00000000000E+00 -0.50000000000E+02  0.50000000000E+02  0.00000000000E+00 0.  1.
         23    2    1    2    0    0  0.00000000000E+00  0.00000000000E+00  0.00000000000E+00  0.10000000000E+03  0.10000000000E+03 0.  0.
          5    1    3    3  501    0 -0.42571869558E+02 -0.49676533412E+01  0.25315377592E+02  0.50000000000E+02  0.47000000000E+01 0. -1.
         -5    1    3    3    0  501  0.42571869558E+02  0.49676533412E+01 -0.25315377592E+02  0.50000000000E+02  0.47000000000E+01 0.  1.
</event>
<event>
 5    1  0.9023675E-001  0.1000000E+03  0.7546771E-02  0.1163815E+00
         11   -1    0    0    0    0  0.00000000000E+00  0.00000000000E+00  0.50000000000E+02  0.50000000000E+02  0.00000000000E+00 0. -1.
        -11   -1    0    0    0    0 -0.00000000000E+00 -0.00000000000E+00 -0.50000000000E+02  0.50000000000E+02  0.00000000000E+00 0.  1.
         23    2    1    2    0    0  0.00000000000E+00  0.00000000000E+00  0.00000000000E+00  0.10000000000E+03  0.10000000000E+03 0.  0.
          5    1    3    3  501    0 -0.11904696897E+02 -0.31369094107E+02  0.36771838772E+02  0.50000000000E+02  0.47000000000E+01 0. -1.
         -5    1    3    3    0  501  0.11904696897E+02  0.31369094107E+02 -0.36771838772E+02  0.50000000000E+02  0.47000000000E+01 0.  1.
</event>
<event>
 5    1  0.9023675E-001  0.1000000E+03  0.7546771E-02  0.1163815E+00
         11   -1    0    0    0    0  0.00000000000E+00  0.00000000000E+00  0.50000000000E+02  0.50000000000E+02  0.00000000000E+00 0. -1.
        -11   -1    0    0    0    0 -0.00000000000E+00 -0.00000000000E+00 -0.50000000000E+02  0.50000000000E+02  0.00000000000E+00 0.  1.
         23    2    1    2    0    0  0.00000000000E+00  0.00000000000E+00  0.00000000000E+00  0.10000000000E+03  0.10000000000E+03 0.  0.
          5    1    3    3  501    0 -0.33178347595E+02 -0.81822396655E+01  0.36196107594E+02  0.50000000000E+02  0.47000000000E+01 0. -1.
         -5    1    3    3    0  501  0.33178347595E+02  0.81822396655E+01 -0.36196107594E+02  0.50000000000E+02  0.47000000000E+01 0.  1.
</event>
<event>
 5    1  0.9023675E-001  0.1000000E+03  0.7546771E-02  0.1163815E+00
         11   -1    0    0    0    0  0.00000000000E+00  0.00000000000E+00  0.50000000000E+02  0.50000000000E+02  0.00000000000E+00 0. -1.
        -11   -1    0    0    0    0 -0.00000000000E+00 -0.00000000000E+00 -0.50000000000E+02  0.50000000000E+02  0.00000000000E+00 0.  1.
         23    2    1    2    0    0  0.00000000000E+00  0.00000000000E+00  0.00000000000E+00  0.10000000000E+03  0.10000000000E+03 0.  0.
          5    1    3    3  501    0  0.21649246485E+02 -0.14218524771E+02  0.42509454007E+02  0.50000000000E+02  0.47000000000E+01 0. -1.
         -5    1    3    3    0  501 -0.21649246485E+02  0.14218524771E+02 -0.42509454007E+02  0.50000000000E+02  0.47000000000E+01 0.  1.
</event>
<event>
 5    1  0.9023675E-001  0.1000000E+03  0.7546771E-02  0.1163815E+00
         11   -1    0    0    0    0  0.00000000000E+00  0.00000000000E+00  0.50000000000E+02  0.50000000000E+02  0.00000000000E+00 0.  1.
        -11   -1    0    0    0    0 -0.00000000000E+00 -0.00000000000E+00 -0.50000000000E+02  0.50000000000E+02  0.00000000000E+00 0. -1.
         23    2    1    2    0    0  0.00000000000E+00  0.00000000000E+00  0.00000000000E+00  0.10000000000E+03  0.10000000000E+03 0.  0.
          5    1    3    3  501    0 -0.37535613389E+02  0.17996335603E+02 -0.27296879535E+02  0.50000000000E+02  0.47000000000E+01 0. -1.
         -5    1    3    3    0  501  0.37535613389E+02 -0.17996335603E+02  0.27296879535E+02  0.50000000000E+02  0.47000000000E+01 0.  1.
</event>
<event>
 5    1  0.9023675E-001  0.1000000E+03  0.7546771E-02  0.1163815E+00
         11   -1    0    0    0    0  0.00000000000E+00  0.00000000000E+00  0.50000000000E+02  0.50000000000E+02  0.00000000000E+00 0. -1.
        -11   -1    0    0    0    0 -0.00000000000E+00 -0.00000000000E+00 -0.50000000000E+02  0.50000000000E+02  0.00000000000E+00 0.  1.
         23    2    1    2    0    0  0.00000000000E+00  0.00000000000E+00  0.00000000000E+00  0.10000000000E+03  0.10000000000E+03 0.  0.
          5    1    3    3  501    0  0.23695240197E+02  0.31261689392E+02  0.30645592969E+02  0.50000000000E+02  0.47000000000E+01 0. -1.
         -5    1    3    3    0  501 -0.23695240197E+02 -0.31261689392E+02 -0.30645592969E+02  0.50000000000E+02  0.47000000000E+01 0.  1.
</event>
<event>
 5    1  0.9023675E-001  0.1000000E+03  0.7546771E-02  0.1163815E+00
         11   -1    0    0    0    0  0.00000000000E+00  0.00000000000E+00  0.50000000000E+02  0.50000000000E+02  0.00000000000E+00 0.  1.
        -11   -1    0    0    0    0 -0.00000000000E+00 -0.00000000000E+00 -0.50000000000E+02  0.50000000000E+02  0.00000000000E+00 0. -1.
         23    2    1    2    0    0  0.00000000000E+00  0.00000000000E+00  0.00000000000E+00  0.10000000000E+03  0.10000000000E+03 0.  0.
          5    1    3    3  501    0 -0.20642461418E+02  0.35855295910E+02 -0.27680255450E+02  0.50000000000E+02  0.47000000000E+01 0. -1.
         -5    1    3    3    0  501  0.20642461418E+02 -0.35855295910E+02  0.27680255450E+02  0.50000000000E+02  0.47000000000E+01 0.  1.
</event>
<event>
 5    1  0.9023675E-001  0.1000000E+03  0.7546771E-02  0.1163815E+00
         11   -1    0    0    0    0  0.00000000000E+00  0.00000000000E+00  0.50000000000E+02  0.50000000000E+02  0.00000000000E+00 0.  1.
        -11   -1    0    0    0    0 -0.00000000000E+00 -0.00000000000E+00 -0.50000000000E+02  0.50000000000E+02  0.00000000000E+00 0. -1.
         23    2    1    2    0    0  0.00000000000E+00  0.00000000000E+00  0.00000000000E+00  0.10000000000E+03  0.10000000000E+03 0.  0.
          5    1    3    3  501    0  0.70909445190E+00 -0.44402488167E+02 -0.22490580910E+02  0.50000000000E+02  0.47000000000E+01 0. -1.
         -5    1    3    3    0  501 -0.70909445190E+00  0.44402488167E+02  0.22490580910E+02  0.50000000000E+02  0.47000000000E+01 0.  1.
</event>
<event>
 5    1  0.9023675E-001  0.1000000E+03  0.7546771E-02  0.1163815E+00
         11   -1    0    0    0    0  0.00000000000E+00  0.00000000000E+00  0.50000000000E+02  0.50000000000E+02  0.00000000000E+00 0. -1.
        -11   -1    0    0    0    0 -0.00000000000E+00 -0.00000000000E+00 -0.50000000000E+02  0.50000000000E+02  0.00000000000E+00 0.  1.
         23    2    1    2    0    0  0.00000000000E+00  0.00000000000E+00  0.00000000000E+00  0.10000000000E+03  0.10000000000E+03 0.  0.
          5    1    3    3  501    0 -0.32451776109E+02 -0.35605191229E+02 -0.12532461249E+02  0.50000000000E+02  0.47000000000E+01 0. -1.
         -5    1    3    3    0  501  0.32451776109E+02  0.35605191229E+02  0.12532461249E+02  0.50000000000E+02  0.47000000000E+01 0.  1.
</event>
<event>
 5    1  0.9023675E-001  0.1000000E+03  0.7546771E-02  0.1163815E+00
         11   -1    0    0    0    0  0.00000000000E+00  0.00000000000E+00  0.50000000000E+02  0.50000000000E+02  0.00000000000E+00 0.  1.
        -11   -1    0    0    0    0 -0.00000000000E+00 -0.00000000000E+00 -0.50000000000E+02  0.50000000000E+02  0.00000000000E+00 0. -1.
         23    2    1    2    0    0  0.00000000000E+00  0.00000000000E+00  0.00000000000E+00  0.10000000000E+03  0.10000000000E+03 0.  0.
          5    1    3    3  501    0  0.49080651468E+01 -0.38201761311E+02 -0.31534843098E+02  0.50000000000E+02  0.47000000000E+01 0. -1.
         -5    1    3    3    0  501 -0.49080651468E+01  0.38201761311E+02  0.31534843098E+02  0.50000000000E+02  0.47000000000E+01 0.  1.
</event>
<event>
 5    1  0.9023675E-001  0.1000000E+03  0.7546771E-02  0.1163815E+00
         11   -1    0    0    0    0  0.00000000000E+00  0.00000000000E+00  0.50000000000E+02  0.50000000000E+02  0.00000000000E+00 0. -1.
        -11   -1    0    0    0    0 -0.00000000000E+00 -0.00000000000E+00 -0.50000000000E+02  0.50000000000E+02  0.00000000000E+00 0.  1.
         23    2    1    2    0    0  0.00000000000E+00  0.00000000000E+00  0.00000000000E+00  0.10000000000E+03  0.10000000000E+03 0.  0.
          5    1    3    3  501    0  0.14439763223E+02  0.47042099641E+02 -0.75129288212E+01  0.50000000000E+02  0.47000000000E+01 0. -1.
         -5    1    3    3    0  501 -0.14439763223E+02 -0.47042099641E+02  0.75129288212E+01  0.50000000000E+02  0.47000000000E+01 0.  1.
</event>
<event>
 5    1  0.9023675E-001  0.1000000E+03  0.7546771E-02  0.1163815E+00
         11   -1    0    0    0    0  0.00000000000E+00  0.00000000000E+00  0.50000000000E+02  0.50000000000E+02  0.00000000000E+00 0.  1.
        -11   -1    0    0    0    0 -0.00000000000E+00 -0.00000000000E+00 -0.50000000000E+02  0.50000000000E+02  0.00000000000E+00 0. -1.
         23    2    1    2    0    0  0.00000000000E+00  0.00000000000E+00  0.00000000000E+00  0.10000000000E+03  0.10000000000E+03 0.  0.
          5    1    3    3  501    0  0.75394114143E+01  0.40246832437E+02 -0.28306532008E+02  0.50000000000E+02  0.47000000000E+01 0. -1.
         -5    1    3    3    0  501 -0.75394114143E+01 -0.40246832437E+02  0.28306532008E+02  0.50000000000E+02  0.47000000000E+01 0.  1.
</event>
<event>
 5    1  0.9023675E-001  0.1000000E+03  0.7546771E-02  0.1163815E+00
         11   -1    0    0    0    0  0.00000000000E+00  0.00000000000E+00  0.50000000000E+02  0.50000000000E+02  0.00000000000E+00 0. -1.
        -11   -1    0    0    0    0 -0.00000000000E+00 -0.00000000000E+00 -0.50000000000E+02  0.50000000000E+02  0.00000000000E+00 0.  1.
         23    2    1    2    0    0  0.00000000000E+00  0.00000000000E+00  0.00000000000E+00  0.10000000000E+03  0.10000000000E+03 0.  0.
          5    1    3    3  501    0  0.12254757905E+02  0.21327885879E+02  0.43276462340E+02  0.50000000000E+02  0.47000000000E+01 0. -1.
         -5    1    3    3    0  501 -0.12254757905E+02 -0.21327885879E+02 -0.43276462340E+02  0.50000000000E+02  0.47000000000E+01 0.  1.
</event>
<event>
 5    1  0.9023675E-001  0.1000000E+03  0.7546771E-02  0.1163815E+00
         11   -1    0    0    0    0  0.00000000000E+00  0.00000000000E+00  0.50000000000E+02  0.50000000000E+02  0.00000000000E+00 0.  1.
        -11   -1    0    0    0    0 -0.00000000000E+00 -0.00000000000E+00 -0.50000000000E+02  0.50000000000E+02  0.00000000000E+00 0. -1.
         23    2    1    2    0    0  0.00000000000E+00  0.00000000000E+00  0.00000000000E+00  0.10000000000E+03  0.10000000000E+03 0.  0.
          5    1    3    3  501    0  0.17781714698E+02  0.43026779737E+02 -0.17618650567E+02  0.50000000000E+02  0.47000000000E+01 0. -1.
         -5    1    3    3    0  501 -0.17781714698E+02 -0.43026779737E+02  0.17618650567E+02  0.50000000000E+02  0.47000000000E+01 0.  1.
</event>
<event>
 5    1  0.9023675E-001  0.1000000E+03  0.7546771E-02  0.1163815E+00
         11   -1    0    0    0    0  0.00000000000E+00  0.00000000000E+00  0.50000000000E+02  0.50000000000E+02  0.00000000000E+00 0. -1.
        -11   -1    0    0    0    0 -0.00000000000E+00 -0.00000000000E+00 -0.50000000000E+02  0.50000000000E+02  0.00000000000E+00 0.  1.
         23    2    1    2    0    0  0.00000000000E+00  0.00000000000E+00  0.00000000000E+00  0.10000000000E+03  0.10000000000E+03 0.  0.
          5    1    3    3  501    0 -0.44472429736E+02  0.52009065433E+01  0.21750024472E+02  0.50000000000E+02  0.47000000000E+01 0. -1.
         -5    1    3    3    0  501  0.44472429736E+02 -0.52009065433E+01 -0.21750024472E+02  0.50000000000E+02  0.47000000000E+01 0.  1.
</event>
<event>
 5    1  0.9023675E-001  0.1000000E+03  0.7546771E-02  0.1163815E+00
         11   -1    0    0    0    0  0.00000000000E+00  0.00000000000E+00  0.50000000000E+02  0.50000000000E+02  0.00000000000E+00 0.  1.
        -11   -1    0    0    0    0 -0.00000000000E+00 -0.00000000000E+00 -0.50000000000E+02  0.50000000000E+02  0.00000000000E+00 0. -1.
         23    2    1    2    0    0  0.00000000000E+00  0.00000000000E+00  0.00000000000E+00  0.10000000000E+03  0.10000000000E+03 0.  0.
          5    1    3    3  501    0  0.46045929856E+02 -0.13247440316E+02 -0.13497691237E+02  0.50000000000E+02  0.47000000000E+01 0. -1.
         -5    1    3    3    0  501 -0.46045929856E+02  0.13247440316E+02  0.13497691237E+02  0.50000000000E+02  0.47000000000E+01 0.  1.
</event>
<event>
 5    1  0.9023675E-001  0.1000000E+03  0.7546771E-02  0.1163815E+00
         11   -1    0    0    0    0  0.00000000000E+00  0.00000000000E+00  0.50000000000E+02  0.50000000000E+02  0.00000000000E+00 0. -1.
        -11   -1    0    0    0    0 -0.00000000000E+00 -0.00000000000E+00 -0.50000000000E+02  0.50000000000E+02  0.00000000000E+00 0.  1.
         23    2    1    2    0    0  0.00000000000E+00  0.00000000000E+00  0.00000000000E+00  0.10000000000E+03  0.10000000000E+03 0.  0.
          5    1    3    3  501    0 -0.25351802090E+02 -0.15831544755E+02  0.39806511044E+02  0.50000000000E+02  0.47000000000E+01 0. -1.
         -5    1    3    3    0  501  0.25351802090E+02  0.15831544755E+02 -0.39806511044E+02  0.50000000000E+02  0.47000000000E+01 0.  1.
</event>
<event>
 5    1  0.9023675E-001  0.1000000E+03  0.7546771E-02  0.1163815E+00
         11   -1    0    0    0    0  0.00000000000E+00  0.00000000000E+00  0.50000000000E+02  0.50000000000E+02  0.00000000000E+00 0. -1.
        -11   -1    0    0    0    0 -0.00000000000E+00 -0.00000000000E+00 -0.50000000000E+02  0.50000000000E+02  0.00000000000E+00 0.  1.
         23    2    1    2    0    0  0.00000000000E+00  0.00000000000E+00  0.00000000000E+00  0.10000000000E+03  0.10000000000E+03 0.  0.
          5    1    3    3  501    0  0.21986898397E+02 -0.42516255961E+02  0.13669465167E+02  0.50000000000E+02  0.47000000000E+01 0. -1.
         -5    1    3    3    0  501 -0.21986898397E+02  0.42516255961E+02 -0.13669465167E+02  0.50000000000E+02  0.47000000000E+01 0.  1.
</event>
<event>
 5    1  0.9023675E-001  0.1000000E+03  0.7546771E-02  0.1163815E+00
         11   -1    0    0    0    0  0.00000000000E+00  0.00000000000E+00  0.50000000000E+02  0.50000000000E+02  0.00000000000E+00 0.  1.
        -11   -1    0    0    0    0 -0.00000000000E+00 -0.00000000000E+00 -0.50000000000E+02  0.50000000000E+02  0.00000000000E+00 0. -1.
         23    2    1    2    0    0  0.00000000000E+00  0.00000000000E+00  0.00000000000E+00  0.10000000000E+03  0.10000000000E+03 0.  0.
          5    1    3    3  501    0  0.21795055777E+02 -0.42013675620E+01 -0.44555965418E+02  0.50000000000E+02  0.47000000000E+01 0. -1.
         -5    1    3    3    0  501 -0.21795055777E+02  0.42013675620E+01  0.44555965418E+02  0.50000000000E+02  0.47000000000E+01 0.  1.
</event>
<event>
 5    1  0.9023675E-001  0.1000000E+03  0.7546771E-02  0.1163815E+00
         11   -1    0    0    0    0  0.00000000000E+00  0.00000000000E+00  0.50000000000E+02  0.50000000000E+02  0.00000000000E+00 0. -1.
        -11   -1    0    0    0    0 -0.00000000000E+00 -0.00000000000E+00 -0.50000000000E+02  0.50000000000E+02  0.00000000000E+00 0.  1.
         23    2    1    2    0    0  0.00000000000E+00  0.00000000000E+00  0.00000000000E+00  0.10000000000E+03  0.10000000000E+03 0.  0.
          5    1    3    3  501    0  0.32625830162E+02  0.37354865792E+02 -0.42519651784E+01  0.50000000000E+02  0.47000000000E+01 0. -1.
         -5    1    3    3    0  501 -0.32625830162E+02 -0.37354865792E+02  0.42519651784E+01  0.50000000000E+02  0.47000000000E+01 0.  1.
</event>
<event>
 5    1  0.9023675E-001  0.1000000E+03  0.7546771E-02  0.1163815E+00
         11   -1    0    0    0    0  0.00000000000E+00  0.00000000000E+00  0.50000000000E+02  0.50000000000E+02  0.00000000000E+00 0. -1.
        -11   -1    0    0    0    0 -0.00000000000E+00 -0.00000000000E+00 -0.50000000000E+02  0.50000000000E+02  0.00000000000E+00 0.  1.
         23    2    1    2    0    0  0.00000000000E+00  0.00000000000E+00  0.00000000000E+00  0.10000000000E+03  0.10000000000E+03 0.  0.
          5    1    3    3  501    0 -0.35091833673E+02 -0.30525742936E+02  0.17738439267E+02  0.50000000000E+02  0.47000000000E+01 0. -1.
         -5    1    3    3    0  501  0.35091833673E+02  0.30525742936E+02 -0.17738439267E+02  0.50000000000E+02  0.47000000000E+01 0.  1.
</event>
<event>
 5    1  0.9023675E-001  0.1000000E+03  0.7546771E-02  0.1163815E+00
         11   -1    0    0    0    0  0.00000000000E+00  0.00000000000E+00  0.50000000000E+02  0.50000000000E+02  0.00000000000E+00 0. -1.
        -11   -1    0    0    0    0 -0.00000000000E+00 -0.00000000000E+00 -0.50000000000E+02  0.50000000000E+02  0.00000000000E+00 0.  1.
         23    2    1    2    0    0  0.00000000000E+00  0.00000000000E+00  0.00000000000E+00  0.10000000000E+03  0.10000000000E+03 0.  0.
          5    1    3    3  501    0  0.48857707873E+02  0.42843666678E+01 -0.85134354806E+01  0.50000000000E+02  0.47000000000E+01 0. -1.
         -5    1    3    3    0  501 -0.48857707873E+02 -0.42843666678E+01  0.85134354806E+01  0.50000000000E+02  0.47000000000E+01 0.  1.
</event>
<event>
 5    1  0.9023675E-001  0.1000000E+03  0.7546771E-02  0.1163815E+00
         11   -1    0    0    0    0  0.00000000000E+00  0.00000000000E+00  0.50000000000E+02  0.50000000000E+02  0.00000000000E+00 0. -1.
        -11   -1    0    0    0    0 -0.00000000000E+00 -0.00000000000E+00 -0.50000000000E+02  0.50000000000E+02  0.00000000000E+00 0.  1.
         23    2    1    2    0    0  0.00000000000E+00  0.00000000000E+00  0.00000000000E+00  0.10000000000E+03  0.10000000000E+03 0.  0.
          5    1    3    3  501    0 -0.31012896828E+02  0.34156876642E+02  0.18692726083E+02  0.50000000000E+02  0.47000000000E+01 0. -1.
         -5    1    3    3    0  501  0.31012896828E+02 -0.34156876642E+02 -0.18692726083E+02  0.50000000000E+02  0.47000000000E+01 0.  1.
</event>
<event>
 5    1  0.9023675E-001  0.1000000E+03  0.7546771E-02  0.1163815E+00
         11   -1    0    0    0    0  0.00000000000E+00  0.00000000000E+00  0.50000000000E+02  0.50000000000E+02  0.00000000000E+00 0.  1.
        -11   -1    0    0    0    0 -0.00000000000E+00 -0.00000000000E+00 -0.50000000000E+02  0.50000000000E+02  0.00000000000E+00 0. -1.
         23    2    1    2    0    0  0.00000000000E+00  0.00000000000E+00  0.00000000000E+00  0.10000000000E+03  0.10000000000E+03 0.  0.
          5    1    3    3  501    0 -0.41274143790E+02 -0.21860862731E+02 -0.17217948049E+02  0.50000000000E+02  0.47000000000E+01 0. -1.
         -5    1    3    3    0  501  0.41274143790E+02  0.21860862731E+02  0.17217948049E+02  0.50000000000E+02  0.47000000000E+01 0.  1.
</event>
<event>
 5    1  0.9023675E-001  0.1000000E+03  0.7546771E-02  0.1163815E+00
         11   -1    0    0    0    0  0.00000000000E+00  0.00000000000E+00  0.50000000000E+02  0.50000000000E+02  0.00000000000E+00 0.  1.
        -11   -1    0    0    0    0 -0.00000000000E+00 -0.00000000000E+00 -0.50000000000E+02  0.50000000000E+02  0.00000000000E+00 0. -1.
         23    2    1    2    0    0  0.00000000000E+00  0.00000000000E+00  0.00000000000E+00  0.10000000000E+03  0.10000000000E+03 0.  0.
          5    1    3    3  501    0  0.29243020912E+02 -0.21920808484E+02 -0.33796950800E+02  0.50000000000E+02  0.47000000000E+01 0. -1.
         -5    1    3    3    0  501 -0.29243020912E+02  0.21920808484E+02  0.33796950800E+02  0.50000000000E+02  0.47000000000E+01 0.  1.
</event>
<event>
 5    1  0.9023675E-001  0.1000000E+03  0.7546771E-02  0.1163815E+00
         11   -1    0    0    0    0  0.00000000000E+00  0.00000000000E+00  0.50000000000E+02  0.50000000000E+02  0.00000000000E+00 0. -1.
        -11   -1    0    0    0    0 -0.00000000000E+00 -0.00000000000E+00 -0.50000000000E+02  0.50000000000E+02  0.00000000000E+00 0.  1.
         23    2    1    2    0    0  0.00000000000E+00  0.00000000000E+00  0.00000000000E+00  0.10000000000E+03  0.10000000000E+03 0.  0.
          5    1    3    3  501    0  0.31246108479E+02 -0.27637065454E+02  0.27162167035E+02  0.50000000000E+02  0.47000000000E+01 0. -1.
         -5    1    3    3    0  501 -0.31246108479E+02  0.27637065454E+02 -0.27162167035E+02  0.50000000000E+02  0.47000000000E+01 0.  1.
</event>
<event>
 5    1  0.9023675E-001  0.1000000E+03  0.7546771E-02  0.1163815E+00
         11   -1    0    0    0    0  0.00000000000E+00  0.00000000000E+00  0.50000000000E+02  0.50000000000E+02  0.00000000000E+00 0. -1.
        -11   -1    0    0    0    0 -0.00000000000E+00 -0.00000000000E+00 -0.50000000000E+02  0.50000000000E+02  0.00000000000E+00 0.  1.
         23    2    1    2    0    0  0.00000000000E+00  0.00000000000E+00  0.00000000000E+00  0.10000000000E+03  0.10000000000E+03 0.  0.
          5    1    3    3  501    0 -0.12447068559E+02 -0.14889496574E+02  0.45839757592E+02  0.50000000000E+02  0.47000000000E+01 0. -1.
         -5    1    3    3    0  501  0.12447068559E+02  0.14889496574E+02 -0.45839757592E+02  0.50000000000E+02  0.47000000000E+01 0.  1.
</event>
<event>
 5    1  0.9023675E-001  0.1000000E+03  0.7546771E-02  0.1163815E+00
         11   -1    0    0    0    0  0.00000000000E+00  0.00000000000E+00  0.50000000000E+02  0.50000000000E+02  0.00000000000E+00 0.  1.
        -11   -1    0    0    0    0 -0.00000000000E+00 -0.00000000000E+00 -0.50000000000E+02  0.50000000000E+02  0.00000000000E+00 0. -1.
         23    2    1    2    0    0  0.00000000000E+00  0.00000000000E+00  0.00000000000E+00  0.10000000000E+03  0.10000000000E+03 0.  0.
          5    1    3    3  501    0 -0.18712833382E+02 -0.37299252775E+02 -0.27138636835E+02  0.50000000000E+02  0.47000000000E+01 0. -1.
         -5    1    3    3    0  501  0.18712833382E+02  0.37299252775E+02  0.27138636835E+02  0.50000000000E+02  0.47000000000E+01 0.  1.
</event>
<event>
 5    1  0.9023675E-001  0.1000000E+03  0.7546771E-02  0.1163815E+00
         11   -1    0    0    0    0  0.00000000000E+00  0.00000000000E+00  0.50000000000E+02  0.50000000000E+02  0.00000000000E+00 0.  1.
        -11   -1    0    0    0    0 -0.00000000000E+00 -0.00000000000E+00 -0.50000000000E+02  0.50000000000E+02  0.00000000000E+00 0. -1.
         23    2    1    2    0    0  0.00000000000E+00  0.00000000000E+00  0.00000000000E+00  0.10000000000E+03  0.10000000000E+03 0.  0.
          5    1    3    3  501    0 -0.43027696471E+02  0.10767001981E+02 -0.22596437877E+02  0.50000000000E+02  0.47000000000E+01 0. -1.
         -5    1    3    3    0  501  0.43027696471E+02 -0.10767001981E+02  0.22596437877E+02  0.50000000000E+02  0.47000000000E+01 0.  1.
</event>
<event>
 5    1  0.9023675E-001  0.1000000E+03  0.7546771E-02  0.1163815E+00
         11   -1    0    0    0    0  0.00000000000E+00  0.00000000000E+00  0.50000000000E+02  0.50000000000E+02  0.00000000000E+00 0. -1.
        -11   -1    0    0    0    0 -0.00000000000E+00 -0.00000000000E+00 -0.50000000000E+02  0.50000000000E+02  0.00000000000E+00 0.  1.
         23    2    1    2    0    0  0.00000000000E+00  0.00000000000E+00  0.00000000000E+00  0.10000000000E+03  0.10000000000E+03 0.  0.
          5    1    3    3  501    0 -0.41696446414E+02  0.17448842370E+02  0.20853159387E+02  0.50000000000E+02  0.47000000000E+01 0. -1.
         -5    1    3    3    0  501  0.41696446414E+02 -0.17448842370E+02 -0.20853159387E+02  0.50000000000E+02  0.47000000000E+01 0.  1.
</event>
<event>
 5    1  0.9023675E-001  0.1000000E+03  0.7546771E-02  0.1163815E+00
         11   -1    0    0    0    0  0.00000000000E+00  0.00000000000E+00  0.50000000000E+02  0.50000000000E+02  0.00000000000E+00 0. -1.
        -11   -1    0    0    0    0 -0.00000000000E+00 -0.00000000000E+00 -0.50000000000E+02  0.50000000000E+02  0.00000000000E+00 0.  1.
         23    2    1    2    0    0  0.00000000000E+00  0.00000000000E+00  0.00000000000E+00  0.10000000000E+03  0.10000000000E+03 0.  0.
          5    1    3    3  501    0 -0.40507073342E+02  0.23959779336E+02  0.16217767525E+02  0.50000000000E+02  0.47000000000E+01 0. -1.
         -5    1    3    3    0  501  0.40507073342E+02 -0.23959779336E+02 -0.16217767525E+02  0.50000000000E+02  0.47000000000E+01 0.  1.
</event>
<event>
 5    1  0.9023675E-001  0.1000000E+03  0.7546771E-02  0.1163815E+00
         11   -1    0    0    0    0  0.00000000000E+00  0.00000000000E+00  0.50000000000E+02  0.50000000000E+02  0.00000000000E+00 0. -1.
        -11   -1    0    0    0    0 -0.00000000000E+00 -0.00000000000E+00 -0.50000000000E+02  0.50000000000E+02  0.00000000000E+00 0.  1.
         23    2    1    2    0    0  0.00000000000E+00  0.00000000000E+00  0.00000000000E+00  0.10000000000E+03  0.10000000000E+03 0.  0.
          5    1    3    3  501    0  0.23977812653E+02 -0.50972894285E+01  0.43324267343E+02  0.50000000000E+02  0.47000000000E+01 0. -1.
         -5    1    3    3    0  501 -0.23977812653E+02  0.50972894285E+01 -0.43324267343E+02  0.50000000000E+02  0.47000000000E+01 0.  1.
</event>
<event>
 5    1  0.9023675E-001  0.1000000E+03  0.7546771E-02  0.1163815E+00
         11   -1    0    0    0    0  0.00000000000E+00  0.00000000000E+00  0.50000000000E+02  0.50000000000E+02  0.00000000000E+00 0. -1.
        -11   -1    0    0    0    0 -0.00000000000E+00 -0.00000000000E+00 -0.50000000000E+02  0.50000000000E+02  0.00000000000E+00 0.  1.
         23    2    1    2    0    0  0.00000000000E+00  0.00000000000E+00  0.00000000000E+00  0.10000000000E+03  0.10000000000E+03 0.  0.
          5    1    3    3  501    0  0.15467848463E+02 -0.22275062237E+02  0.41742990624E+02  0.50000000000E+02  0.47000000000E+01 0. -1.
         -5    1    3    3    0  501 -0.15467848463E+02  0.22275062237E+02 -0.41742990624E+02  0.50000000000E+02  0.47000000000E+01 0.  1.
</event>
<event>
 5    1  0.9023675E-001  0.1000000E+03  0.7546771E-02  0.1163815E+00
         11   -1    0    0    0    0  0.00000000000E+00  0.00000000000E+00  0.50000000000E+02  0.50000000000E+02  0.00000000000E+00 0. -1.
        -11   -1    0    0    0    0 -0.00000000000E+00 -0.00000000000E+00 -0.50000000000E+02  0.50000000000E+02  0.00000000000E+00 0.  1.
         23    2    1    2    0    0  0.00000000000E+00  0.00000000000E+00  0.00000000000E+00  0.10000000000E+03  0.10000000000E+03 0.  0.
          5    1    3    3  501    0 -0.72152615095E+01  0.34589110942E+02  0.35063419765E+02  0.50000000000E+02  0.47000000000E+01 0. -1.
         -5    1    3    3    0  501  0.72152615095E+01 -0.34589110942E+02 -0.35063419765E+02  0.50000000000E+02  0.47000000000E+01 0.  1.
</event>
<event>
 5    1  0.9023675E-001  0.1000000E+03  0.7546771E-02  0.1163815E+00
         11   -1    0    0    0    0  0.00000000000E+00  0.00000000000E+00  0.50000000000E+02  0.50000000000E+02  0.00000000000E+00 0. -1.
        -11   -1    0    0    0    0 -0.00000000000E+00 -0.00000000000E+00 -0.50000000000E+02  0.50000000000E+02  0.00000000000E+00 0.  1.
         23    2    1    2    0    0  0.00000000000E+00  0.00000000000E+00  0.00000000000E+00  0.10000000000E+03  0.10000000000E+03 0.  0.
          5    1    3    3  501    0 -0.39122381688E+02 -0.24054261816E+02  0.19202649284E+02  0.50000000000E+02  0.47000000000E+01 0. -1.
         -5    1    3    3    0  501  0.39122381688E+02  0.24054261816E+02 -0.19202649284E+02  0.50000000000E+02  0.47000000000E+01 0.  1.
</event>
<event>
 5    1  0.9023675E-001  0.1000000E+03  0.7546771E-02  0.1163815E+00
         11   -1    0    0    0    0  0.00000000000E+00  0.00000000000E+00  0.50000000000E+02  0.50000000000E+02  0.00000000000E+00 0. -1.
        -11   -1    0    0    0    0 -0.00000000000E+00 -0.00000000000E+00 -0.50000000000E+02  0.50000000000E+02  0.00000000000E+00 0.  1.
         23    2    1    2    0    0  0.00000000000E+00  0.00000000000E+00  0.00000000000E+00  0.10000000000E+03  0.10000000000E+03 0.  0.
          5    1    3    3  501    0 -0.17624229276E+02 -0.26552597214E+02  0.38239457679E+02  0.50000000000E+02  0.47000000000E+01 0. -1.
         -5    1    3    3    0  501  0.17624229276E+02  0.26552597214E+02 -0.38239457679E+02  0.50000000000E+02  0.47000000000E+01 0.  1.
</event>
<event>
 5    1  0.9023675E-001  0.1000000E+03  0.7546771E-02  0.1163815E+00
         11   -1    0    0    0    0  0.00000000000E+00  0.00000000000E+00  0.50000000000E+02  0.50000000000E+02  0.00000000000E+00 0. -1.
        -11   -1    0    0    0    0 -0.00000000000E+00 -0.00000000000E+00 -0.50000000000E+02  0.50000000000E+02  0.00000000000E+00 0.  1.
         23    2    1    2    0    0  0.00000000000E+00  0.00000000000E+00  0.00000000000E+00  0.10000000000E+03  0.10000000000E+03 0.  0.
          5    1    3    3  501    0 -0.15224932800E+01  0.45698644942E+02  0.19678055408E+02  0.50000000000E+02  0.47000000000E+01 0. -1.
         -5    1    3    3    0  501  0.15224932800E+01 -0.45698644942E+02 -0.19678055408E+02  0.50000000000E+02  0.47000000000E+01 0.  1.
</event>
<event>
 5    1  0.9023675E-001  0.1000000E+03  0.7546771E-02  0.1163815E+00
         11   -1    0    0    0    0  0.00000000000E+00  0.00000000000E+00  0.50000000000E+02  0.50000000000E+02  0.00000000000E+00 0. -1.
        -11   -1    0    0    0    0 -0.00000000000E+00 -0.00000000000E+00 -0.50000000000E+02  0.50000000000E+02  0.00000000000E+00 0.  1.
         23    2    1    2    0    0  0.00000000000E+00  0.00000000000E+00  0.00000000000E+00  0.10000000000E+03  0.10000000000E+03 0.  0.
          5    1    3    3  501    0  0.43233347950E+02 -0.13359847928E+02  0.20743724071E+02  0.50000000000E+02  0.47000000000E+01 0. -1.
         -5    1    3    3    0  501 -0.43233347950E+02  0.13359847928E+02 -0.20743724071E+02  0.50000000000E+02  0.47000000000E+01 0.  1.
</event>
<event>
 5    1  0.9023675E-001  0.1000000E+03  0.7546771E-02  0.1163815E+00
         11   -1    0    0    0    0  0.00000000000E+00  0.00000000000E+00  0.50000000000E+02  0.50000000000E+02  0.00000000000E+00 0. -1.
        -11   -1    0    0    0    0 -0.00000000000E+00 -0.00000000000E+00 -0.50000000000E+02  0.50000000000E+02  0.00000000000E+00 0.  1.
         23    2    1    2    0    0  0.00000000000E+00  0.00000000000E+00  0.00000000000E+00  0.10000000000E+03  0.10000000000E+03 0.  0.
          5    1    3    3  501    0  0.44717111272E+02 -0.10074799301E+02  0.19411037544E+02  0.50000000000E+02  0.47000000000E+01 0. -1.
         -5    1    3    3    0  501 -0.44717111272E+02  0.10074799301E+02 -0.19411037544E+02  0.50000000000E+02  0.47000000000E+01 0.  1.
</event>
<event>
 5    1  0.9023675E-001  0.1000000E+03  0.7546771E-02  0.1163815E+00
         11   -1    0    0    0    0  0.00000000000E+00  0.00000000000E+00  0.50000000000E+02  0.50000000000E+02  0.00000000000E+00 0. -1.
        -11   -1    0    0    0    0 -0.00000000000E+00 -0.00000000000E+00 -0.50000000000E+02  0.50000000000E+02  0.00000000000E+00 0.  1.
         23    2    1    2    0    0  0.00000000000E+00  0.00000000000E+00  0.00000000000E+00  0.10000000000E+03  0.10000000000E+03 0.  0.
          5    1    3    3  501    0  0.46640515000E+02 -0.13224862220E+02  0.11299353069E+02  0.50000000000E+02  0.47000000000E+01 0. -1.
         -5    1    3    3    0  501 -0.46640515000E+02  0.13224862220E+02 -0.11299353069E+02  0.50000000000E+02  0.47000000000E+01 0.  1.
</event>
<event>
 5    1  0.9023675E-001  0.1000000E+03  0.7546771E-02  0.1163815E+00
         11   -1    0    0    0    0  0.00000000000E+00  0.00000000000E+00  0.50000000000E+02  0.50000000000E+02  0.00000000000E+00 0.  1.
        -11   -1    0    0    0    0 -0.00000000000E+00 -0.00000000000E+00 -0.50000000000E+02  0.50000000000E+02  0.00000000000E+00 0. -1.
         23    2    1    2    0    0  0.00000000000E+00  0.00000000000E+00  0.00000000000E+00  0.10000000000E+03  0.10000000000E+03 0.  0.
          5    1    3    3  501    0  0.86054677060E+01 -0.48744546929E+02  0.52749474178E+01  0.50000000000E+02  0.47000000000E+01 0.  1.
         -5    1    3    3    0  501 -0.86054677060E+01  0.48744546929E+02 -0.52749474178E+01  0.50000000000E+02  0.47000000000E+01 0. -1.
</event>
<event>
 5    1  0.9023675E-001  0.1000000E+03  0.7546771E-02  0.1163815E+00
         11   -1    0    0    0    0  0.00000000000E+00  0.00000000000E+00  0.50000000000E+02  0.50000000000E+02  0.00000000000E+00 0.  1.
        -11   -1    0    0    0    0 -0.00000000000E+00 -0.00000000000E+00 -0.50000000000E+02  0.50000000000E+02  0.00000000000E+00 0. -1.
         23    2    1    2    0    0  0.00000000000E+00  0.00000000000E+00  0.00000000000E+00  0.10000000000E+03  0.10000000000E+03 0.  0.
          5    1    3    3  501    0  0.17038796638E+01  0.21315222458E+01 -0.49703756468E+02  0.50000000000E+02  0.47000000000E+01 0. -1.
         -5    1    3    3    0  501 -0.17038796638E+01 -0.21315222458E+01  0.49703756468E+02  0.50000000000E+02  0.47000000000E+01 0.  1.
</event>
<event>
 5    1  0.9023675E-001  0.1000000E+03  0.7546771E-02  0.1163815E+00
         11   -1    0    0    0    0  0.00000000000E+00  0.00000000000E+00  0.50000000000E+02  0.50000000000E+02  0.00000000000E+00 0. -1.
        -11   -1    0    0    0    0 -0.00000000000E+00 -0.00000000000E+00 -0.50000000000E+02  0.50000000000E+02  0.00000000000E+00 0.  1.
         23    2    1    2    0    0  0.00000000000E+00  0.00000000000E+00  0.00000000000E+00  0.10000000000E+03  0.10000000000E+03 0.  0.
          5    1    3    3  501    0 -0.33274578284E+02  0.21826972901E+02  0.29904777111E+02  0.50000000000E+02  0.47000000000E+01 0. -1.
         -5    1    3    3    0  501  0.33274578284E+02 -0.21826972901E+02 -0.29904777111E+02  0.50000000000E+02  0.47000000000E+01 0.  1.
</event>
<event>
 5    1  0.9023675E-001  0.1000000E+03  0.7546771E-02  0.1163815E+00
         11   -1    0    0    0    0  0.00000000000E+00  0.00000000000E+00  0.50000000000E+02  0.50000000000E+02  0.00000000000E+00 0. -1.
        -11   -1    0    0    0    0 -0.00000000000E+00 -0.00000000000E+00 -0.50000000000E+02  0.50000000000E+02  0.00000000000E+00 0.  1.
         23    2    1    2    0    0  0.00000000000E+00  0.00000000000E+00  0.00000000000E+00  0.10000000000E+03  0.10000000000E+03 0.  0.
          5    1    3    3  501    0  0.17895318139E+02  0.42530449802E+02  0.18676949119E+02  0.50000000000E+02  0.47000000000E+01 0. -1.
         -5    1    3    3    0  501 -0.17895318139E+02 -0.42530449802E+02 -0.18676949119E+02  0.50000000000E+02  0.47000000000E+01 0.  1.
</event>
<event>
 5    1  0.9023675E-001  0.1000000E+03  0.7546771E-02  0.1163815E+00
         11   -1    0    0    0    0  0.00000000000E+00  0.00000000000E+00  0.50000000000E+02  0.50000000000E+02  0.00000000000E+00 0.  1.
        -11   -1    0    0    0    0 -0.00000000000E+00 -0.00000000000E+00 -0.50000000000E+02  0.50000000000E+02  0.00000000000E+00 0. -1.
         23    2    1    2    0    0  0.00000000000E+00  0.00000000000E+00  0.00000000000E+00  0.10000000000E+03  0.10000000000E+03 0.  0.
          5    1    3    3  501    0 -0.23057947554E+02 -0.43481294664E+02 -0.74577522700E+01  0.50000000000E+02  0.47000000000E+01 0. -1.
         -5    1    3    3    0  501  0.23057947554E+02  0.43481294664E+02  0.74577522700E+01  0.50000000000E+02  0.47000000000E+01 0.  1.
</event>
<event>
 5    1  0.9023675E-001  0.1000000E+03  0.7546771E-02  0.1163815E+00
         11   -1    0    0    0    0  0.00000000000E+00  0.00000000000E+00  0.50000000000E+02  0.50000000000E+02  0.00000000000E+00 0. -1.
        -11   -1    0    0    0    0 -0.00000000000E+00 -0.00000000000E+00 -0.50000000000E+02  0.50000000000E+02  0.00000000000E+00 0.  1.
         23    2    1    2    0    0  0.00000000000E+00  0.00000000000E+00  0.00000000000E+00  0.10000000000E+03  0.10000000000E+03 0.  0.
          5    1    3    3  501    0  0.30746486456E+02  0.16895555173E+02  0.35314356656E+02  0.50000000000E+02  0.47000000000E+01 0. -1.
         -5    1    3    3    0  501 -0.30746486456E+02 -0.16895555173E+02 -0.35314356656E+02  0.50000000000E+02  0.47000000000E+01 0.  1.
</event>
<event>
 5    1  0.9023675E-001  0.1000000E+03  0.7546771E-02  0.1163815E+00
         11   -1    0    0    0    0  0.00000000000E+00  0.00000000000E+00  0.50000000000E+02  0.50000000000E+02  0.00000000000E+00 0. -1.
        -11   -1    0    0    0    0 -0.00000000000E+00 -0.00000000000E+00 -0.50000000000E+02  0.50000000000E+02  0.00000000000E+00 0.  1.
         23    2    1    2    0    0  0.00000000000E+00  0.00000000000E+00  0.00000000000E+00  0.10000000000E+03  0.10000000000E+03 0.  0.
          5    1    3    3  501    0 -0.38027672122E+02 -0.28466891254E+02  0.14880935969E+02  0.50000000000E+02  0.47000000000E+01 0. -1.
         -5    1    3    3    0  501  0.38027672122E+02  0.28466891254E+02 -0.14880935969E+02  0.50000000000E+02  0.47000000000E+01 0.  1.
</event>
<event>
 5    1  0.9023675E-001  0.1000000E+03  0.7546771E-02  0.1163815E+00
         11   -1    0    0    0    0  0.00000000000E+00  0.00000000000E+00  0.50000000000E+02  0.50000000000E+02  0.00000000000E+00 0.  1.
        -11   -1    0    0    0    0 -0.00000000000E+00 -0.00000000000E+00 -0.50000000000E+02  0.50000000000E+02  0.00000000000E+00 0. -1.
         23    2    1    2    0    0  0.00000000000E+00  0.00000000000E+00  0.00000000000E+00  0.10000000000E+03  0.10000000000E+03 0.  0.
          5    1    3    3  501    0 -0.17365256932E+01  0.39269531705E+02  0.30541747792E+02  0.50000000000E+02  0.47000000000E+01 0.  1.
         -5    1    3    3    0  501  0.17365256932E+01 -0.39269531705E+02 -0.30541747792E+02  0.50000000000E+02  0.47000000000E+01 0. -1.
</event>
<event>
 5    1  0.9023675E-001  0.1000000E+03  0.7546771E-02  0.1163815E+00
         11   -1    0    0    0    0  0.00000000000E+00  0.00000000000E+00  0.50000000000E+02  0.50000000000E+02  0.00000000000E+00 0. -1.
        -11   -1    0    0    0    0 -0.00000000000E+00 -0.00000000000E+00 -0.50000000000E+02  0.50000000000E+02  0.00000000000E+00 0.  1.
         23    2    1    2    0    0  0.00000000000E+00  0.00000000000E+00  0.00000000000E+00  0.10000000000E+03  0.10000000000E+03 0.  0.
          5    1    3    3  501    0 -0.16699483142E+02  0.16395915963E+02  0.43934168964E+02  0.50000000000E+02  0.47000000000E+01 0. -1.
         -5    1    3    3    0  501  0.16699483142E+02 -0.16395915963E+02 -0.43934168964E+02  0.50000000000E+02  0.47000000000E+01 0.  1.
</event>
<event>
 5    1  0.9023675E-001  0.1000000E+03  0.7546771E-02  0.1163815E+00
         11   -1    0    0    0    0  0.00000000000E+00  0.00000000000E+00  0.50000000000E+02  0.50000000000E+02  0.00000000000E+00 0. -1.
        -11   -1    0    0    0    0 -0.00000000000E+00 -0.00000000000E+00 -0.50000000000E+02  0.50000000000E+02  0.00000000000E+00 0.  1.
         23    2    1    2    0    0  0.00000000000E+00  0.00000000000E+00  0.00000000000E+00  0.10000000000E+03  0.10000000000E+03 0.  0.
          5    1    3    3  501    0  0.41564767032E+02  0.43121223761E+01  0.27049690242E+02  0.50000000000E+02  0.47000000000E+01 0. -1.
         -5    1    3    3    0  501 -0.41564767032E+02 -0.43121223761E+01 -0.27049690242E+02  0.50000000000E+02  0.47000000000E+01 0.  1.
</event>
<event>
 5    1  0.9023675E-001  0.1000000E+03  0.7546771E-02  0.1163815E+00
         11   -1    0    0    0    0  0.00000000000E+00  0.00000000000E+00  0.50000000000E+02  0.50000000000E+02  0.00000000000E+00 0. -1.
        -11   -1    0    0    0    0 -0.00000000000E+00 -0.00000000000E+00 -0.50000000000E+02  0.50000000000E+02  0.00000000000E+00 0.  1.
         23    2    1    2    0    0  0.00000000000E+00  0.00000000000E+00  0.00000000000E+00  0.10000000000E+03  0.10000000000E+03 0.  0.
          5    1    3    3  501    0 -0.32100864212E+02  0.48995583828E+01  0.37728488500E+02  0.50000000000E+02  0.47000000000E+01 0. -1.
         -5    1    3    3    0  501  0.32100864212E+02 -0.48995583828E+01 -0.37728488500E+02  0.50000000000E+02  0.47000000000E+01 0.  1.
</event>
<event>
 5    1  0.9023675E-001  0.1000000E+03  0.7546771E-02  0.1163815E+00
         11   -1    0    0    0    0  0.00000000000E+00  0.00000000000E+00  0.50000000000E+02  0.50000000000E+02  0.00000000000E+00 0. -1.
        -11   -1    0    0    0    0 -0.00000000000E+00 -0.00000000000E+00 -0.50000000000E+02  0.50000000000E+02  0.00000000000E+00 0.  1.
         23    2    1    2    0    0  0.00000000000E+00  0.00000000000E+00  0.00000000000E+00  0.10000000000E+03  0.10000000000E+03 0.  0.
          5    1    3    3  501    0 -0.13748779501E+02 -0.25860697189E+01  0.47772306891E+02  0.50000000000E+02  0.47000000000E+01 0. -1.
         -5    1    3    3    0  501  0.13748779501E+02  0.25860697189E+01 -0.47772306891E+02  0.50000000000E+02  0.47000000000E+01 0.  1.
</event>
<event>
 5    1  0.9023675E-001  0.1000000E+03  0.7546771E-02  0.1163815E+00
         11   -1    0    0    0    0  0.00000000000E+00  0.00000000000E+00  0.50000000000E+02  0.50000000000E+02  0.00000000000E+00 0. -1.
        -11   -1    0    0    0    0 -0.00000000000E+00 -0.00000000000E+00 -0.50000000000E+02  0.50000000000E+02  0.00000000000E+00 0.  1.
         23    2    1    2    0    0  0.00000000000E+00  0.00000000000E+00  0.00000000000E+00  0.10000000000E+03  0.10000000000E+03 0.  0.
          5    1    3    3  501    0  0.18874268640E+02  0.17524996498E+02  0.42597493836E+02  0.50000000000E+02  0.47000000000E+01 0. -1.
         -5    1    3    3    0  501 -0.18874268640E+02 -0.17524996498E+02 -0.42597493836E+02  0.50000000000E+02  0.47000000000E+01 0.  1.
</event>
<event>
 5    1  0.9023675E-001  0.1000000E+03  0.7546771E-02  0.1163815E+00
         11   -1    0    0    0    0  0.00000000000E+00  0.00000000000E+00  0.50000000000E+02  0.50000000000E+02  0.00000000000E+00 0. -1.
        -11   -1    0    0    0    0 -0.00000000000E+00 -0.00000000000E+00 -0.50000000000E+02  0.50000000000E+02  0.00000000000E+00 0.  1.
         23    2    1    2    0    0  0.00000000000E+00  0.00000000000E+00  0.00000000000E+00  0.10000000000E+03  0.10000000000E+03 0.  0.
          5    1    3    3  501    0 -0.48893319137E+02 -0.93375481045E+01  0.40439974318E+00  0.50000000000E+02  0.47000000000E+01 0. -1.
         -5    1    3    3    0  501  0.48893319137E+02  0.93375481045E+01 -0.40439974318E+00  0.50000000000E+02  0.47000000000E+01 0.  1.
</event>
<event>
 5    1  0.9023675E-001  0.1000000E+03  0.7546771E-02  0.1163815E+00
         11   -1    0    0    0    0  0.00000000000E+00  0.00000000000E+00  0.50000000000E+02  0.50000000000E+02  0.00000000000E+00 0. -1.
        -11   -1    0    0    0    0 -0.00000000000E+00 -0.00000000000E+00 -0.50000000000E+02  0.50000000000E+02  0.00000000000E+00 0.  1.
         23    2    1    2    0    0  0.00000000000E+00  0.00000000000E+00  0.00000000000E+00  0.10000000000E+03  0.10000000000E+03 0.  0.
          5    1    3    3  501    0  0.73867660103E+00  0.14261190609E+02  0.47686295718E+02  0.50000000000E+02  0.47000000000E+01 0. -1.
         -5    1    3    3    0  501 -0.73867660103E+00 -0.14261190609E+02 -0.47686295718E+02  0.50000000000E+02  0.47000000000E+01 0.  1.
</event>
<event>
 5    1  0.9023675E-001  0.1000000E+03  0.7546771E-02  0.1163815E+00
         11   -1    0    0    0    0  0.00000000000E+00  0.00000000000E+00  0.50000000000E+02  0.50000000000E+02  0.00000000000E+00 0.  1.
        -11   -1    0    0    0    0 -0.00000000000E+00 -0.00000000000E+00 -0.50000000000E+02  0.50000000000E+02  0.00000000000E+00 0. -1.
         23    2    1    2    0    0  0.00000000000E+00  0.00000000000E+00  0.00000000000E+00  0.10000000000E+03  0.10000000000E+03 0.  0.
          5    1    3    3  501    0 -0.25868694212E+01  0.10235650015E+02 -0.48646167119E+02  0.50000000000E+02  0.47000000000E+01 0. -1.
         -5    1    3    3    0  501  0.25868694212E+01 -0.10235650015E+02  0.48646167119E+02  0.50000000000E+02  0.47000000000E+01 0.  1.
</event>
<event>
 5    1  0.9023675E-001  0.1000000E+03  0.7546771E-02  0.1163815E+00
         11   -1    0    0    0    0  0.00000000000E+00  0.00000000000E+00  0.50000000000E+02  0.50000000000E+02  0.00000000000E+00 0. -1.
        -11   -1    0    0    0    0 -0.00000000000E+00 -0.00000000000E+00 -0.50000000000E+02  0.50000000000E+02  0.00000000000E+00 0.  1.
         23    2    1    2    0    0  0.00000000000E+00  0.00000000000E+00  0.00000000000E+00  0.10000000000E+03  0.10000000000E+03 0.  0.
          5    1    3    3  501    0 -0.46047310235E+02 -0.87038734678E+01  0.16786834328E+02  0.50000000000E+02  0.47000000000E+01 0. -1.
         -5    1    3    3    0  501  0.46047310235E+02  0.87038734678E+01 -0.16786834328E+02  0.50000000000E+02  0.47000000000E+01 0.  1.
</event>
<event>
 5    1  0.9023675E-001  0.1000000E+03  0.7546771E-02  0.1163815E+00
         11   -1    0    0    0    0  0.00000000000E+00  0.00000000000E+00  0.50000000000E+02  0.50000000000E+02  0.00000000000E+00 0. -1.
        -11   -1    0    0    0    0 -0.00000000000E+00 -0.00000000000E+00 -0.50000000000E+02  0.50000000000E+02  0.00000000000E+00 0.  1.
         23    2    1    2    0    0  0.00000000000E+00  0.00000000000E+00  0.00000000000E+00  0.10000000000E+03  0.10000000000E+03 0.  0.
          5    1    3    3  501    0 -0.25110883686E+02  0.40853631399E+02 -0.13354187433E+02  0.50000000000E+02  0.47000000000E+01 0. -1.
         -5    1    3    3    0  501  0.25110883686E+02 -0.40853631399E+02  0.13354187433E+02  0.50000000000E+02  0.47000000000E+01 0.  1.
</event>
<event>
 5    1  0.9023675E-001  0.1000000E+03  0.7546771E-02  0.1163815E+00
         11   -1    0    0    0    0  0.00000000000E+00  0.00000000000E+00  0.50000000000E+02  0.50000000000E+02  0.00000000000E+00 0.  1.
        -11   -1    0    0    0    0 -0.00000000000E+00 -0.00000000000E+00 -0.50000000000E+02  0.50000000000E+02  0.00000000000E+00 0. -1.
         23    2    1    2    0    0  0.00000000000E+00  0.00000000000E+00  0.00000000000E+00  0.10000000000E+03  0.10000000000E+03 0.  0.
          5    1    3    3  501    0  0.45971655140E+02  0.14565212803E+02 -0.12343885112E+02  0.50000000000E+02  0.47000000000E+01 0.  1.
         -5    1    3    3    0  501 -0.45971655140E+02 -0.14565212803E+02  0.12343885112E+02  0.50000000000E+02  0.47000000000E+01 0. -1.
</event>
<event>
 5    1  0.9023675E-001  0.1000000E+03  0.7546771E-02  0.1163815E+00
         11   -1    0    0    0    0  0.00000000000E+00  0.00000000000E+00  0.50000000000E+02  0.50000000000E+02  0.00000000000E+00 0. -1.
        -11   -1    0    0    0    0 -0.00000000000E+00 -0.00000000000E+00 -0.50000000000E+02  0.50000000000E+02  0.00000000000E+00 0.  1.
         23    2    1    2    0    0  0.00000000000E+00  0.00000000000E+00  0.00000000000E+00  0.10000000000E+03  0.10000000000E+03 0.  0.
          5    1    3    3  501    0 -0.83005999585E+01  0.80498855580E+01  0.48417036081E+02  0.50000000000E+02  0.47000000000E+01 0. -1.
         -5    1    3    3    0  501  0.83005999585E+01 -0.80498855580E+01 -0.48417036081E+02  0.50000000000E+02  0.47000000000E+01 0.  1.
</event>
<event>
 5    1  0.9023675E-001  0.1000000E+03  0.7546771E-02  0.1163815E+00
         11   -1    0    0    0    0  0.00000000000E+00  0.00000000000E+00  0.50000000000E+02  0.50000000000E+02  0.00000000000E+00 0. -1.
        -11   -1    0    0    0    0 -0.00000000000E+00 -0.00000000000E+00 -0.50000000000E+02  0.50000000000E+02  0.00000000000E+00 0.  1.
         23    2    1    2    0    0  0.00000000000E+00  0.00000000000E+00  0.00000000000E+00  0.10000000000E+03  0.10000000000E+03 0.  0.
          5    1    3    3  501    0 -0.43311826943E+02  0.24532775656E+02  0.37224382788E+00  0.50000000000E+02  0.47000000000E+01 0. -1.
         -5    1    3    3    0  501  0.43311826943E+02 -0.24532775656E+02 -0.37224382788E+00  0.50000000000E+02  0.47000000000E+01 0.  1.
</event>
<event>
 5    1  0.9023675E-001  0.1000000E+03  0.7546771E-02  0.1163815E+00
         11   -1    0    0    0    0  0.00000000000E+00  0.00000000000E+00  0.50000000000E+02  0.50000000000E+02  0.00000000000E+00 0.  1.
        -11   -1    0    0    0    0 -0.00000000000E+00 -0.00000000000E+00 -0.50000000000E+02  0.50000000000E+02  0.00000000000E+00 0. -1.
         23    2    1    2    0    0  0.00000000000E+00  0.00000000000E+00  0.00000000000E+00  0.10000000000E+03  0.10000000000E+03 0.  0.
          5    1    3    3  501    0  0.33390505969E+02  0.17313129312E+02 -0.32607355988E+02  0.50000000000E+02  0.47000000000E+01 0. -1.
         -5    1    3    3    0  501 -0.33390505969E+02 -0.17313129312E+02  0.32607355988E+02  0.50000000000E+02  0.47000000000E+01 0.  1.
</event>
<event>
 5    1  0.9023675E-001  0.1000000E+03  0.7546771E-02  0.1163815E+00
         11   -1    0    0    0    0  0.00000000000E+00  0.00000000000E+00  0.50000000000E+02  0.50000000000E+02  0.00000000000E+00 0.  1.
        -11   -1    0    0    0    0 -0.00000000000E+00 -0.00000000000E+00 -0.50000000000E+02  0.50000000000E+02  0.00000000000E+00 0. -1.
         23    2    1    2    0    0  0.00000000000E+00  0.00000000000E+00  0.00000000000E+00  0.10000000000E+03  0.10000000000E+03 0.  0.
          5    1    3    3  501    0  0.10225860127E+02  0.18889170330E+02 -0.44905913073E+02  0.50000000000E+02  0.47000000000E+01 0. -1.
         -5    1    3    3    0  501 -0.10225860127E+02 -0.18889170330E+02  0.44905913073E+02  0.50000000000E+02  0.47000000000E+01 0.  1.
</event>
<event>
 5    1  0.9023675E-001  0.1000000E+03  0.7546771E-02  0.1163815E+00
         11   -1    0    0    0    0  0.00000000000E+00  0.00000000000E+00  0.50000000000E+02  0.50000000000E+02  0.00000000000E+00 0. -1.
        -11   -1    0    0    0    0 -0.00000000000E+00 -0.00000000000E+00 -0.50000000000E+02  0.50000000000E+02  0.00000000000E+00 0.  1.
         23    2    1    2    0    0  0.00000000000E+00  0.00000000000E+00  0.00000000000E+00  0.10000000000E+03  0.10000000000E+03 0.  0.
          5    1    3    3  501    0  0.43016684876E+02  0.21481586786E+02  0.12884729390E+02  0.50000000000E+02  0.47000000000E+01 0. -1.
         -5    1    3    3    0  501 -0.43016684876E+02 -0.21481586786E+02 -0.12884729390E+02  0.50000000000E+02  0.47000000000E+01 0.  1.
</event>
<event>
 5    1  0.9023675E-001  0.1000000E+03  0.7546771E-02  0.1163815E+00
         11   -1    0    0    0    0  0.00000000000E+00  0.00000000000E+00  0.50000000000E+02  0.50000000000E+02  0.00000000000E+00 0. -1.
        -11   -1    0    0    0    0 -0.00000000000E+00 -0.00000000000E+00 -0.50000000000E+02  0.50000000000E+02  0.00000000000E+00 0.  1.
         23    2    1    2    0    0  0.00000000000E+00  0.00000000000E+00  0.00000000000E+00  0.10000000000E+03  0.10000000000E+03 0.  0.
          5    1    3    3  501    0  0.22383237906E+02 -0.40044419983E+02 -0.19322139867E+02  0.50000000000E+02  0.47000000000E+01 0. -1.
         -5    1    3    3    0  501 -0.22383237906E+02  0.40044419983E+02  0.19322139867E+02  0.50000000000E+02  0.47000000000E+01 0.  1.
</event>
<event>
 5    1  0.9023675E-001  0.1000000E+03  0.7546771E-02  0.1163815E+00
         11   -1    0    0    0    0  0.00000000000E+00  0.00000000000E+00  0.50000000000E+02  0.50000000000E+02  0.00000000000E+00 0. -1.
        -11   -1    0    0    0    0 -0.00000000000E+00 -0.00000000000E+00 -0.50000000000E+02  0.50000000000E+02  0.00000000000E+00 0.  1.
         23    2    1    2    0    0  0.00000000000E+00  0.00000000000E+00  0.00000000000E+00  0.10000000000E+03  0.10000000000E+03 0.  0.
          5    1    3    3  501    0 -0.41312518712E+02  0.11834513567E+02 -0.25122302568E+02  0.50000000000E+02  0.47000000000E+01 0. -1.
         -5    1    3    3    0  501  0.41312518712E+02 -0.11834513567E+02  0.25122302568E+02  0.50000000000E+02  0.47000000000E+01 0.  1.
</event>
<event>
 5    1  0.9023675E-001  0.1000000E+03  0.7546771E-02  0.1163815E+00
         11   -1    0    0    0    0  0.00000000000E+00  0.00000000000E+00  0.50000000000E+02  0.50000000000E+02  0.00000000000E+00 0.  1.
        -11   -1    0    0    0    0 -0.00000000000E+00 -0.00000000000E+00 -0.50000000000E+02  0.50000000000E+02  0.00000000000E+00 0. -1.
         23    2    1    2    0    0  0.00000000000E+00  0.00000000000E+00  0.00000000000E+00  0.10000000000E+03  0.10000000000E+03 0.  0.
          5    1    3    3  501    0 -0.15878792172E+02  0.45495659356E+02 -0.12486750536E+02  0.50000000000E+02  0.47000000000E+01 0. -1.
         -5    1    3    3    0  501  0.15878792172E+02 -0.45495659356E+02  0.12486750536E+02  0.50000000000E+02  0.47000000000E+01 0.  1.
</event>
<event>
 5    1  0.9023675E-001  0.1000000E+03  0.7546771E-02  0.1163815E+00
         11   -1    0    0    0    0  0.00000000000E+00  0.00000000000E+00  0.50000000000E+02  0.50000000000E+02  0.00000000000E+00 0. -1.
        -11   -1    0    0    0    0 -0.00000000000E+00 -0.00000000000E+00 -0.50000000000E+02  0.50000000000E+02  0.00000000000E+00 0.  1.
         23    2    1    2    0    0  0.00000000000E+00  0.00000000000E+00  0.00000000000E+00  0.10000000000E+03  0.10000000000E+03 0.  0.
          5    1    3    3  501    0  0.41751649587E+02 -0.25883217748E+02  0.80479062983E+01  0.50000000000E+02  0.47000000000E+01 0. -1.
         -5    1    3    3    0  501 -0.41751649587E+02  0.25883217748E+02 -0.80479062983E+01  0.50000000000E+02  0.47000000000E+01 0.  1.
</event>
<event>
 5    1  0.9023675E-001  0.1000000E+03  0.7546771E-02  0.1163815E+00
         11   -1    0    0    0    0  0.00000000000E+00  0.00000000000E+00  0.50000000000E+02  0.50000000000E+02  0.00000000000E+00 0. -1.
        -11   -1    0    0    0    0 -0.00000000000E+00 -0.00000000000E+00 -0.50000000000E+02  0.50000000000E+02  0.00000000000E+00 0.  1.
         23    2    1    2    0    0  0.00000000000E+00  0.00000000000E+00  0.00000000000E+00  0.10000000000E+03  0.10000000000E+03 0.  0.
          5    1    3    3  501    0  0.18290291743E+02  0.34195853706E+02  0.31209274539E+02  0.50000000000E+02  0.47000000000E+01 0. -1.
         -5    1    3    3    0  501 -0.18290291743E+02 -0.34195853706E+02 -0.31209274539E+02  0.50000000000E+02  0.47000000000E+01 0.  1.
</event>
<event>
 5    1  0.9023675E-001  0.1000000E+03  0.7546771E-02  0.1163815E+00
         11   -1    0    0    0    0  0.00000000000E+00  0.00000000000E+00  0.50000000000E+02  0.50000000000E+02  0.00000000000E+00 0. -1.
        -11   -1    0    0    0    0 -0.00000000000E+00 -0.00000000000E+00 -0.50000000000E+02  0.50000000000E+02  0.00000000000E+00 0.  1.
         23    2    1    2    0    0  0.00000000000E+00  0.00000000000E+00  0.00000000000E+00  0.10000000000E+03  0.10000000000E+03 0.  0.
          5    1    3    3  501    0  0.21366581022E+01  0.49716805368E+02 -0.12585531861E+01  0.50000000000E+02  0.47000000000E+01 0. -1.
         -5    1    3    3    0  501 -0.21366581022E+01 -0.49716805368E+02  0.12585531861E+01  0.50000000000E+02  0.47000000000E+01 0.  1.
</event>
<event>
 5    1  0.9023675E-001  0.1000000E+03  0.7546771E-02  0.1163815E+00
         11   -1    0    0    0    0  0.00000000000E+00  0.00000000000E+00  0.50000000000E+02  0.50000000000E+02  0.00000000000E+00 0. -1.
        -11   -1    0    0    0    0 -0.00000000000E+00 -0.00000000000E+00 -0.50000000000E+02  0.50000000000E+02  0.00000000000E+00 0.  1.
         23    2    1    2    0    0  0.00000000000E+00  0.00000000000E+00  0.00000000000E+00  0.10000000000E+03  0.10000000000E+03 0.  0.
          5    1    3    3  501    0 -0.43165146834E+02  0.12000862321E+02  0.21694686039E+02  0.50000000000E+02  0.47000000000E+01 0. -1.
         -5    1    3    3    0  501  0.43165146834E+02 -0.12000862321E+02 -0.21694686039E+02  0.50000000000E+02  0.47000000000E+01 0.  1.
</event>
<event>
 5    1  0.9023675E-001  0.1000000E+03  0.7546771E-02  0.1163815E+00
         11   -1    0    0    0    0  0.00000000000E+00  0.00000000000E+00  0.50000000000E+02  0.50000000000E+02  0.00000000000E+00 0. -1.
        -11   -1    0    0    0    0 -0.00000000000E+00 -0.00000000000E+00 -0.50000000000E+02  0.50000000000E+02  0.00000000000E+00 0.  1.
         23    2    1    2    0    0  0.00000000000E+00  0.00000000000E+00  0.00000000000E+00  0.10000000000E+03  0.10000000000E+03 0.  0.
          5    1    3    3  501    0 -0.33672729732E+02 -0.29532280786E+02 -0.21723297723E+02  0.50000000000E+02  0.47000000000E+01 0. -1.
         -5    1    3    3    0  501  0.33672729732E+02  0.29532280786E+02  0.21723297723E+02  0.50000000000E+02  0.47000000000E+01 0.  1.
</event>
<event>
 5    1  0.9023675E-001  0.1000000E+03  0.7546771E-02  0.1163815E+00
         11   -1    0    0    0    0  0.00000000000E+00  0.00000000000E+00  0.50000000000E+02  0.50000000000E+02  0.00000000000E+00 0. -1.
        -11   -1    0    0    0    0 -0.00000000000E+00 -0.00000000000E+00 -0.50000000000E+02  0.50000000000E+02  0.00000000000E+00 0.  1.
         23    2    1    2    0    0  0.00000000000E+00  0.00000000000E+00  0.00000000000E+00  0.10000000000E+03  0.10000000000E+03 0.  0.
          5    1    3    3  501    0 -0.44847272629E+02  0.64400195942E+01  0.20619366754E+02  0.50000000000E+02  0.47000000000E+01 0. -1.
         -5    1    3    3    0  501  0.44847272629E+02 -0.64400195942E+01 -0.20619366754E+02  0.50000000000E+02  0.47000000000E+01 0.  1.
</event>
<event>
 5    1  0.9023675E-001  0.1000000E+03  0.7546771E-02  0.1163815E+00
         11   -1    0    0    0    0  0.00000000000E+00  0.00000000000E+00  0.50000000000E+02  0.50000000000E+02  0.00000000000E+00 0. -1.
        -11   -1    0    0    0    0 -0.00000000000E+00 -0.00000000000E+00 -0.50000000000E+02  0.50000000000E+02  0.00000000000E+00 0.  1.
         23    2    1    2    0    0  0.00000000000E+00  0.00000000000E+00  0.00000000000E+00  0.10000000000E+03  0.10000000000E+03 0.  0.
          5    1    3    3  501    0 -0.17211962529E+02 -0.15178659237E+02  0.44173143987E+02  0.50000000000E+02  0.47000000000E+01 0. -1.
         -5    1    3    3    0  501  0.17211962529E+02  0.15178659237E+02 -0.44173143987E+02  0.50000000000E+02  0.47000000000E+01 0.  1.
</event>
<event>
 5    1  0.9023675E-001  0.1000000E+03  0.7546771E-02  0.1163815E+00
         11   -1    0    0    0    0  0.00000000000E+00  0.00000000000E+00  0.50000000000E+02  0.50000000000E+02  0.00000000000E+00 0. -1.
        -11   -1    0    0    0    0 -0.00000000000E+00 -0.00000000000E+00 -0.50000000000E+02  0.50000000000E+02  0.00000000000E+00 0.  1.
         23    2    1    2    0    0  0.00000000000E+00  0.00000000000E+00  0.00000000000E+00  0.10000000000E+03  0.10000000000E+03 0.  0.
          5    1    3    3  501    0 -0.83368366590E+00  0.42214799371E+02  0.26365236309E+02  0.50000000000E+02  0.47000000000E+01 0. -1.
         -5    1    3    3    0  501  0.83368366590E+00 -0.42214799371E+02 -0.26365236309E+02  0.50000000000E+02  0.47000000000E+01 0.  1.
</event>
<event>
 5    1  0.9023675E-001  0.1000000E+03  0.7546771E-02  0.1163815E+00
         11   -1    0    0    0    0  0.00000000000E+00  0.00000000000E+00  0.50000000000E+02  0.50000000000E+02  0.00000000000E+00 0.  1.
        -11   -1    0    0    0    0 -0.00000000000E+00 -0.00000000000E+00 -0.50000000000E+02  0.50000000000E+02  0.00000000000E+00 0. -1.
         23    2    1    2    0    0  0.00000000000E+00  0.00000000000E+00  0.00000000000E+00  0.10000000000E+03  0.10000000000E+03 0.  0.
          5    1    3    3  501    0  0.15149043650E+01 -0.56640198441E+00 -0.49752329127E+02  0.50000000000E+02  0.47000000000E+01 0. -1.
         -5    1    3    3    0  501 -0.15149043650E+01  0.56640198441E+00  0.49752329127E+02  0.50000000000E+02  0.47000000000E+01 0.  1.
</event>
<event>
 5    1  0.9023675E-001  0.1000000E+03  0.7546771E-02  0.1163815E+00
         11   -1    0    0    0    0  0.00000000000E+00  0.00000000000E+00  0.50000000000E+02  0.50000000000E+02  0.00000000000E+00 0. -1.
        -11   -1    0    0    0    0 -0.00000000000E+00 -0.00000000000E+00 -0.50000000000E+02  0.50000000000E+02  0.00000000000E+00 0.  1.
         23    2    1    2    0    0  0.00000000000E+00  0.00000000000E+00  0.00000000000E+00  0.10000000000E+03  0.10000000000E+03 0.  0.
          5    1    3    3  501    0  0.18414816449E+02  0.80900875050E+01  0.45534108307E+02  0.50000000000E+02  0.47000000000E+01 0. -1.
         -5    1    3    3    0  501 -0.18414816449E+02 -0.80900875050E+01 -0.45534108307E+02  0.50000000000E+02  0.47000000000E+01 0.  1.
</event>
<event>
 5    1  0.9023675E-001  0.1000000E+03  0.7546771E-02  0.1163815E+00
         11   -1    0    0    0    0  0.00000000000E+00  0.00000000000E+00  0.50000000000E+02  0.50000000000E+02  0.00000000000E+00 0. -1.
        -11   -1    0    0    0    0 -0.00000000000E+00 -0.00000000000E+00 -0.50000000000E+02  0.50000000000E+02  0.00000000000E+00 0.  1.
         23    2    1    2    0    0  0.00000000000E+00  0.00000000000E+00  0.00000000000E+00  0.10000000000E+03  0.10000000000E+03 0.  0.
          5    1    3    3  501    0 -0.48824578012E+02  0.96850352171E+01 -0.52026420340E+00  0.50000000000E+02  0.47000000000E+01 0. -1.
         -5    1    3    3    0  501  0.48824578012E+02 -0.96850352171E+01  0.52026420340E+00  0.50000000000E+02  0.47000000000E+01 0.  1.
</event>
<event>
 5    1  0.9023675E-001  0.1000000E+03  0.7546771E-02  0.1163815E+00
         11   -1    0    0    0    0  0.00000000000E+00  0.00000000000E+00  0.50000000000E+02  0.50000000000E+02  0.00000000000E+00 0. -1.
        -11   -1    0    0    0    0 -0.00000000000E+00 -0.00000000000E+00 -0.50000000000E+02  0.50000000000E+02  0.00000000000E+00 0.  1.
         23    2    1    2    0    0  0.00000000000E+00  0.00000000000E+00  0.00000000000E+00  0.10000000000E+03  0.10000000000E+03 0.  0.
          5    1    3    3  501    0 -0.39169162671E+02  0.20120879031E+02  0.23212861148E+02  0.50000000000E+02  0.47000000000E+01 0. -1.
         -5    1    3    3    0  501  0.39169162671E+02 -0.20120879031E+02 -0.23212861148E+02  0.50000000000E+02  0.47000000000E+01 0.  1.
</event>
<event>
 5    1  0.9023675E-001  0.1000000E+03  0.7546771E-02  0.1163815E+00
         11   -1    0    0    0    0  0.00000000000E+00  0.00000000000E+00  0.50000000000E+02  0.50000000000E+02  0.00000000000E+00 0. -1.
        -11   -1    0    0    0    0 -0.00000000000E+00 -0.00000000000E+00 -0.50000000000E+02  0.50000000000E+02  0.00000000000E+00 0.  1.
         23    2    1    2    0    0  0.00000000000E+00  0.00000000000E+00  0.00000000000E+00  0.10000000000E+03  0.10000000000E+03 0.  0.
          5    1    3    3  501    0  0.15289544332E+02 -0.22522431689E+02 -0.41675891171E+02  0.50000000000E+02  0.47000000000E+01 0. -1.
         -5    1    3    3    0  501 -0.15289544332E+02  0.22522431689E+02  0.41675891171E+02  0.50000000000E+02  0.47000000000E+01 0.  1.
</event>
<event>
 5    1  0.9023675E-001  0.1000000E+03  0.7546771E-02  0.1163815E+00
         11   -1    0    0    0    0  0.00000000000E+00  0.00000000000E+00  0.50000000000E+02  0.50000000000E+02  0.00000000000E+00 0.  1.
        -11   -1    0    0    0    0 -0.00000000000E+00 -0.00000000000E+00 -0.50000000000E+02  0.50000000000E+02  0.00000000000E+00 0. -1.
         23    2    1    2    0    0  0.00000000000E+00  0.00000000000E+00  0.00000000000E+00  0.10000000000E+03  0.10000000000E+03 0.  0.
          5    1    3    3  501    0 -0.21380881630E+01 -0.11827254152E+02 -0.48305844763E+02  0.50000000000E+02  0.47000000000E+01 0. -1.
         -5    1    3    3    0  501  0.21380881630E+01  0.11827254152E+02  0.48305844763E+02  0.50000000000E+02  0.47000000000E+01 0.  1.
</event>
<event>
 5    1  0.9023675E-001  0.1000000E+03  0.7546771E-02  0.1163815E+00
         11   -1    0    0    0    0  0.00000000000E+00  0.00000000000E+00  0.50000000000E+02  0.50000000000E+02  0.00000000000E+00 0. -1.
        -11   -1    0    0    0    0 -0.00000000000E+00 -0.00000000000E+00 -0.50000000000E+02  0.50000000000E+02  0.00000000000E+00 0.  1.
         23    2    1    2    0    0  0.00000000000E+00  0.00000000000E+00  0.00000000000E+00  0.10000000000E+03  0.10000000000E+03 0.  0.
          5    1    3    3  501    0 -0.44614404371E+02  0.20298140383E+02 -0.86862200986E+01  0.50000000000E+02  0.47000000000E+01 0. -1.
         -5    1    3    3    0  501  0.44614404371E+02 -0.20298140383E+02  0.86862200986E+01  0.50000000000E+02  0.47000000000E+01 0.  1.
</event>
<event>
 5    1  0.9023675E-001  0.1000000E+03  0.7546771E-02  0.1163815E+00
         11   -1    0    0    0    0  0.00000000000E+00  0.00000000000E+00  0.50000000000E+02  0.50000000000E+02  0.00000000000E+00 0. -1.
        -11   -1    0    0    0    0 -0.00000000000E+00 -0.00000000000E+00 -0.50000000000E+02  0.50000000000E+02  0.00000000000E+00 0.  1.
         23    2    1    2    0    0  0.00000000000E+00  0.00000000000E+00  0.00000000000E+00  0.10000000000E+03  0.10000000000E+03 0.  0.
          5    1    3    3  501    0 -0.35469568715E+02  0.32119139453E+02  0.13717892549E+02  0.50000000000E+02  0.47000000000E+01 0. -1.
         -5    1    3    3    0  501  0.35469568715E+02 -0.32119139453E+02 -0.13717892549E+02  0.50000000000E+02  0.47000000000E+01 0.  1.
</event>
<event>
 5    1  0.9023675E-001  0.1000000E+03  0.7546771E-02  0.1163815E+00
         11   -1    0    0    0    0  0.00000000000E+00  0.00000000000E+00  0.50000000000E+02  0.50000000000E+02  0.00000000000E+00 0. -1.
        -11   -1    0    0    0    0 -0.00000000000E+00 -0.00000000000E+00 -0.50000000000E+02  0.50000000000E+02  0.00000000000E+00 0.  1.
         23    2    1    2    0    0  0.00000000000E+00  0.00000000000E+00  0.00000000000E+00  0.10000000000E+03  0.10000000000E+03 0.  0.
          5    1    3    3  501    0  0.42351236860E+02 -0.19818732255E+02  0.17073388306E+02  0.50000000000E+02  0.47000000000E+01 0. -1.
         -5    1    3    3    0  501 -0.42351236860E+02  0.19818732255E+02 -0.17073388306E+02  0.50000000000E+02  0.47000000000E+01 0.  1.
</event>
<event>
 5    1  0.9023675E-001  0.1000000E+03  0.7546771E-02  0.1163815E+00
         11   -1    0    0    0    0  0.00000000000E+00  0.00000000000E+00  0.50000000000E+02  0.50000000000E+02  0.00000000000E+00 0. -1.
        -11   -1    0    0    0    0 -0.00000000000E+00 -0.00000000000E+00 -0.50000000000E+02  0.50000000000E+02  0.00000000000E+00 0.  1.
         23    2    1    2    0    0  0.00000000000E+00  0.00000000000E+00  0.00000000000E+00  0.10000000000E+03  0.10000000000E+03 0.  0.
          5    1    3    3  501    0  0.10317425996E+02 -0.41522302148E+02  0.25443253431E+02  0.50000000000E+02  0.47000000000E+01 0. -1.
         -5    1    3    3    0  501 -0.10317425996E+02  0.41522302148E+02 -0.25443253431E+02  0.50000000000E+02  0.47000000000E+01 0.  1.
</event>
<event>
 5    1  0.9023675E-001  0.1000000E+03  0.7546771E-02  0.1163815E+00
         11   -1    0    0    0    0  0.00000000000E+00  0.00000000000E+00  0.50000000000E+02  0.50000000000E+02  0.00000000000E+00 0.  1.
        -11   -1    0    0    0    0 -0.00000000000E+00 -0.00000000000E+00 -0.50000000000E+02  0.50000000000E+02  0.00000000000E+00 0. -1.
         23    2    1    2    0    0  0.00000000000E+00  0.00000000000E+00  0.00000000000E+00  0.10000000000E+03  0.10000000000E+03 0.  0.
          5    1    3    3  501    0 -0.28132469351E+02 -0.30038561714E+02 -0.28002838756E+02  0.50000000000E+02  0.47000000000E+01 0. -1.
         -5    1    3    3    0  501  0.28132469351E+02  0.30038561714E+02  0.28002838756E+02  0.50000000000E+02  0.47000000000E+01 0.  1.
</event>
<event>
 5    1  0.9023675E-001  0.1000000E+03  0.7546771E-02  0.1163815E+00
         11   -1    0    0    0    0  0.00000000000E+00  0.00000000000E+00  0.50000000000E+02  0.50000000000E+02  0.00000000000E+00 0.  1.
        -11   -1    0    0    0    0 -0.00000000000E+00 -0.00000000000E+00 -0.50000000000E+02  0.50000000000E+02  0.00000000000E+00 0. -1.
         23    2    1    2    0    0  0.00000000000E+00  0.00000000000E+00  0.00000000000E+00  0.10000000000E+03  0.10000000000E+03 0.  0.
          5    1    3    3  501    0  0.48185749955E+02 -0.12010430184E+02  0.34341036766E+01  0.50000000000E+02  0.47000000000E+01 0.  1.
         -5    1    3    3    0  501 -0.48185749955E+02  0.12010430184E+02 -0.34341036766E+01  0.50000000000E+02  0.47000000000E+01 0. -1.
</event>
<event>
 5    1  0.9023675E-001  0.1000000E+03  0.7546771E-02  0.1163815E+00
         11   -1    0    0    0    0  0.00000000000E+00  0.00000000000E+00  0.50000000000E+02  0.50000000000E+02  0.00000000000E+00 0.  1.
        -11   -1    0    0    0    0 -0.00000000000E+00 -0.00000000000E+00 -0.50000000000E+02  0.50000000000E+02  0.00000000000E+00 0. -1.
         23    2    1    2    0    0  0.00000000000E+00  0.00000000000E+00  0.00000000000E+00  0.10000000000E+03  0.10000000000E+03 0.  0.
          5    1    3    3  501    0  0.20541894133E+02 -0.13536718911E+02 -0.43274678815E+02  0.50000000000E+02  0.47000000000E+01 0. -1.
         -5    1    3    3    0  501 -0.20541894133E+02  0.13536718911E+02  0.43274678815E+02  0.50000000000E+02  0.47000000000E+01 0.  1.
</event>
<event>
 5    1  0.9023675E-001  0.1000000E+03  0.7546771E-02  0.1163815E+00
         11   -1    0    0    0    0  0.00000000000E+00  0.00000000000E+00  0.50000000000E+02  0.50000000000E+02  0.00000000000E+00 0. -1.
        -11   -1    0    0    0    0 -0.00000000000E+00 -0.00000000000E+00 -0.50000000000E+02  0.50000000000E+02  0.00000000000E+00 0.  1.
         23    2    1    2    0    0  0.00000000000E+00  0.00000000000E+00  0.00000000000E+00  0.10000000000E+03  0.10000000000E+03 0.  0.
          5    1    3    3  501    0 -0.27944937707E+02  0.34088817948E+02  0.23128833681E+02  0.50000000000E+02  0.47000000000E+01 0. -1.
         -5    1    3    3    0  501  0.27944937707E+02 -0.34088817948E+02 -0.23128833681E+02  0.50000000000E+02  0.47000000000E+01 0.  1.
</event>
<event>
 5    1  0.9023675E-001  0.1000000E+03  0.7546771E-02  0.1163815E+00
         11   -1    0    0    0    0  0.00000000000E+00  0.00000000000E+00  0.50000000000E+02  0.50000000000E+02  0.00000000000E+00 0. -1.
        -11   -1    0    0    0    0 -0.00000000000E+00 -0.00000000000E+00 -0.50000000000E+02  0.50000000000E+02  0.00000000000E+00 0.  1.
         23    2    1    2    0    0  0.00000000000E+00  0.00000000000E+00  0.00000000000E+00  0.10000000000E+03  0.10000000000E+03 0.  0.
          5    1    3    3  501    0  0.26020832194E+02 -0.17518141272E+01  0.42399969802E+02  0.50000000000E+02  0.47000000000E+01 0. -1.
         -5    1    3    3    0  501 -0.26020832194E+02  0.17518141272E+01 -0.42399969802E+02  0.50000000000E+02  0.47000000000E+01 0.  1.
</event>
<event>
 5    1  0.9023675E-001  0.1000000E+03  0.7546771E-02  0.1163815E+00
         11   -1    0    0    0    0  0.00000000000E+00  0.00000000000E+00  0.50000000000E+02  0.50000000000E+02  0.00000000000E+00 0.  1.
        -11   -1    0    0    0    0 -0.00000000000E+00 -0.00000000000E+00 -0.50000000000E+02  0.50000000000E+02  0.00000000000E+00 0. -1.
         23    2    1    2    0    0  0.00000000000E+00  0.00000000000E+00  0.00000000000E+00  0.10000000000E+03  0.10000000000E+03 0.  0.
          5    1    3    3  501    0  0.14578211653E+02 -0.47031110212E+02 -0.73116630967E+01  0.50000000000E+02  0.47000000000E+01 0. -1.
         -5    1    3    3    0  501 -0.14578211653E+02  0.47031110212E+02  0.73116630967E+01  0.50000000000E+02  0.47000000000E+01 0.  1.
</event>
<event>
 5    1  0.9023675E-001  0.1000000E+03  0.7546771E-02  0.1163815E+00
         11   -1    0    0    0    0  0.00000000000E+00  0.00000000000E+00  0.50000000000E+02  0.50000000000E+02  0.00000000000E+00 0.  1.
        -11   -1    0    0    0    0 -0.00000000000E+00 -0.00000000000E+00 -0.50000000000E+02  0.50000000000E+02  0.00000000000E+00 0. -1.
         23    2    1    2    0    0  0.00000000000E+00  0.00000000000E+00  0.00000000000E+00  0.10000000000E+03  0.10000000000E+03 0.  0.
          5    1    3    3  501    0 -0.34037616705E+02  0.13309667455E+02 -0.33796499838E+02  0.50000000000E+02  0.47000000000E+01 0. -1.
         -5    1    3    3    0  501  0.34037616705E+02 -0.13309667455E+02  0.33796499838E+02  0.50000000000E+02  0.47000000000E+01 0.  1.
</event>
<event>
 5    1  0.9023675E-001  0.1000000E+03  0.7546771E-02  0.1163815E+00
         11   -1    0    0    0    0  0.00000000000E+00  0.00000000000E+00  0.50000000000E+02  0.50000000000E+02  0.00000000000E+00 0. -1.
        -11   -1    0    0    0    0 -0.00000000000E+00 -0.00000000000E+00 -0.50000000000E+02  0.50000000000E+02  0.00000000000E+00 0.  1.
         23    2    1    2    0    0  0.00000000000E+00  0.00000000000E+00  0.00000000000E+00  0.10000000000E+03  0.10000000000E+03 0.  0.
          5    1    3    3  501    0 -0.71220012673E+01  0.25383135294E+02  0.42224205624E+02  0.50000000000E+02  0.47000000000E+01 0. -1.
         -5    1    3    3    0  501  0.71220012673E+01 -0.25383135294E+02 -0.42224205624E+02  0.50000000000E+02  0.47000000000E+01 0.  1.
</event>
<event>
 5    1  0.9023675E-001  0.1000000E+03  0.7546771E-02  0.1163815E+00
         11   -1    0    0    0    0  0.00000000000E+00  0.00000000000E+00  0.50000000000E+02  0.50000000000E+02  0.00000000000E+00 0. -1.
        -11   -1    0    0    0    0 -0.00000000000E+00 -0.00000000000E+00 -0.50000000000E+02  0.50000000000E+02  0.00000000000E+00 0.  1.
         23    2    1    2    0    0  0.00000000000E+00  0.00000000000E+00  0.00000000000E+00  0.10000000000E+03  0.10000000000E+03 0.  0.
          5    1    3    3  501    0  0.28329167174E+02 -0.36006771257E+02  0.19464858358E+02  0.50000000000E+02  0.47000000000E+01 0. -1.
         -5    1    3    3    0  501 -0.28329167174E+02  0.36006771257E+02 -0.19464858358E+02  0.50000000000E+02  0.47000000000E+01 0.  1.
</event>
<event>
 5    1  0.9023675E-001  0.1000000E+03  0.7546771E-02  0.1163815E+00
         11   -1    0    0    0    0  0.00000000000E+00  0.00000000000E+00  0.50000000000E+02  0.50000000000E+02  0.00000000000E+00 0.  1.
        -11   -1    0    0    0    0 -0.00000000000E+00 -0.00000000000E+00 -0.50000000000E+02  0.50000000000E+02  0.00000000000E+00 0. -1.
         23    2    1    2    0    0  0.00000000000E+00  0.00000000000E+00  0.00000000000E+00  0.10000000000E+03  0.10000000000E+03 0.  0.
          5    1    3    3  501    0  0.14416376766E+02 -0.51804777727E+01  0.47362862360E+02  0.50000000000E+02  0.47000000000E+01 0.  1.
         -5    1    3    3    0  501 -0.14416376766E+02  0.51804777727E+01 -0.47362862360E+02  0.50000000000E+02  0.47000000000E+01 0. -1.
</event>
<event>
 5    1  0.9023675E-001  0.1000000E+03  0.7546771E-02  0.1163815E+00
         11   -1    0    0    0    0  0.00000000000E+00  0.00000000000E+00  0.50000000000E+02  0.50000000000E+02  0.00000000000E+00 0. -1.
        -11   -1    0    0    0    0 -0.00000000000E+00 -0.00000000000E+00 -0.50000000000E+02  0.50000000000E+02  0.00000000000E+00 0.  1.
         23    2    1    2    0    0  0.00000000000E+00  0.00000000000E+00  0.00000000000E+00  0.10000000000E+03  0.10000000000E+03 0.  0.
          5    1    3    3  501    0  0.29218475563E+00 -0.33182361745E+02  0.37104656003E+02  0.50000000000E+02  0.47000000000E+01 0. -1.
         -5    1    3    3    0  501 -0.29218475563E+00  0.33182361745E+02 -0.37104656003E+02  0.50000000000E+02  0.47000000000E+01 0.  1.
</event>
<event>
 5    1  0.9023675E-001  0.1000000E+03  0.7546771E-02  0.1163815E+00
         11   -1    0    0    0    0  0.00000000000E+00  0.00000000000E+00  0.50000000000E+02  0.50000000000E+02  0.00000000000E+00 0. -1.
        -11   -1    0    0    0    0 -0.00000000000E+00 -0.00000000000E+00 -0.50000000000E+02  0.50000000000E+02  0.00000000000E+00 0.  1.
         23    2    1    2    0    0  0.00000000000E+00  0.00000000000E+00  0.00000000000E+00  0.10000000000E+03  0.10000000000E+03 0.  0.
          5    1    3    3  501    0 -0.24659217532E+02 -0.12333397788E+02  0.41445389246E+02  0.50000000000E+02  0.47000000000E+01 0. -1.
         -5    1    3    3    0  501  0.24659217532E+02  0.12333397788E+02 -0.41445389246E+02  0.50000000000E+02  0.47000000000E+01 0.  1.
</event>
<event>
 5    1  0.9023675E-001  0.1000000E+03  0.7546771E-02  0.1163815E+00
         11   -1    0    0    0    0  0.00000000000E+00  0.00000000000E+00  0.50000000000E+02  0.50000000000E+02  0.00000000000E+00 0. -1.
        -11   -1    0    0    0    0 -0.00000000000E+00 -0.00000000000E+00 -0.50000000000E+02  0.50000000000E+02  0.00000000000E+00 0.  1.
         23    2    1    2    0    0  0.00000000000E+00  0.00000000000E+00  0.00000000000E+00  0.10000000000E+03  0.10000000000E+03 0.  0.
          5    1    3    3  501    0 -0.40762828326E+02 -0.28354070561E+02  0.35140446069E+01  0.50000000000E+02  0.47000000000E+01 0. -1.
         -5    1    3    3    0  501  0.40762828326E+02  0.28354070561E+02 -0.35140446069E+01  0.50000000000E+02  0.47000000000E+01 0.  1.
</event>
<event>
 5    1  0.9023675E-001  0.1000000E+03  0.7546771E-02  0.1163815E+00
         11   -1    0    0    0    0  0.00000000000E+00  0.00000000000E+00  0.50000000000E+02  0.50000000000E+02  0.00000000000E+00 0. -1.
        -11   -1    0    0    0    0 -0.00000000000E+00 -0.00000000000E+00 -0.50000000000E+02  0.50000000000E+02  0.00000000000E+00 0.  1.
         23    2    1    2    0    0  0.00000000000E+00  0.00000000000E+00  0.00000000000E+00  0.10000000000E+03  0.10000000000E+03 0.  0.
          5    1    3    3  501    0 -0.91461009004E+01 -0.48923159092E+02 -0.88506653730E+00  0.50000000000E+02  0.47000000000E+01 0. -1.
         -5    1    3    3    0  501  0.91461009004E+01  0.48923159092E+02  0.88506653730E+00  0.50000000000E+02  0.47000000000E+01 0.  1.
</event>
<event>
 5    1  0.9023675E-001  0.1000000E+03  0.7546771E-02  0.1163815E+00
         11   -1    0    0    0    0  0.00000000000E+00  0.00000000000E+00  0.50000000000E+02  0.50000000000E+02  0.00000000000E+00 0.  1.
        -11   -1    0    0    0    0 -0.00000000000E+00 -0.00000000000E+00 -0.50000000000E+02  0.50000000000E+02  0.00000000000E+00 0. -1.
         23    2    1    2    0    0  0.00000000000E+00  0.00000000000E+00  0.00000000000E+00  0.10000000000E+03  0.10000000000E+03 0.  0.
          5    1    3    3  501    0  0.22607823397E+02  0.10872018190E+02 -0.42995296739E+02  0.50000000000E+02  0.47000000000E+01 0. -1.
         -5    1    3    3    0  501 -0.22607823397E+02 -0.10872018190E+02  0.42995296739E+02  0.50000000000E+02  0.47000000000E+01 0.  1.
</event>
<event>
 5    1  0.9023675E-001  0.1000000E+03  0.7546771E-02  0.1163815E+00
         11   -1    0    0    0    0  0.00000000000E+00  0.00000000000E+00  0.50000000000E+02  0.50000000000E+02  0.00000000000E+00 0. -1.
        -11   -1    0    0    0    0 -0.00000000000E+00 -0.00000000000E+00 -0.50000000000E+02  0.50000000000E+02  0.00000000000E+00 0.  1.
         23    2    1    2    0    0  0.00000000000E+00  0.00000000000E+00  0.00000000000E+00  0.10000000000E+03  0.10000000000E+03 0.  0.
          5    1    3    3  501    0 -0.32094234999E+02  0.22542915569E+02  0.30654315152E+02  0.50000000000E+02  0.47000000000E+01 0. -1.
         -5    1    3    3    0  501  0.32094234999E+02 -0.22542915569E+02 -0.30654315152E+02  0.50000000000E+02  0.47000000000E+01 0.  1.
</event>
<event>
 5    1  0.9023675E-001  0.1000000E+03  0.7546771E-02  0.1163815E+00
         11   -1    0    0    0    0  0.00000000000E+00  0.00000000000E+00  0.50000000000E+02  0.50000000000E+02  0.00000000000E+00 0. -1.
        -11   -1    0    0    0    0 -0.00000000000E+00 -0.00000000000E+00 -0.50000000000E+02  0.50000000000E+02  0.00000000000E+00 0.  1.
         23    2    1    2    0    0  0.00000000000E+00  0.00000000000E+00  0.00000000000E+00  0.10000000000E+03  0.10000000000E+03 0.  0.
          5    1    3    3  501    0 -0.29590612318E+02 -0.14216727274E+01  0.40003556208E+02  0.50000000000E+02  0.47000000000E+01 0. -1.
         -5    1    3    3    0  501  0.29590612318E+02  0.14216727274E+01 -0.40003556208E+02  0.50000000000E+02  0.47000000000E+01 0.  1.
</event>
<event>
 5    1  0.9023675E-001  0.1000000E+03  0.7546771E-02  0.1163815E+00
         11   -1    0    0    0    0  0.00000000000E+00  0.00000000000E+00  0.50000000000E+02  0.50000000000E+02  0.00000000000E+00 0. -1.
        -11   -1    0    0    0    0 -0.00000000000E+00 -0.00000000000E+00 -0.50000000000E+02  0.50000000000E+02  0.00000000000E+00 0.  1.
         23    2    1    2    0    0  0.00000000000E+00  0.00000000000E+00  0.00000000000E+00  0.10000000000E+03  0.10000000000E+03 0.  0.
          5    1    3    3  501    0  0.42918943303E+01 -0.45861385770E+02 -0.18873869193E+02  0.50000000000E+02  0.47000000000E+01 0. -1.
         -5    1    3    3    0  501 -0.42918943303E+01  0.45861385770E+02  0.18873869193E+02  0.50000000000E+02  0.47000000000E+01 0.  1.
</event>
<event>
 5    1  0.9023675E-001  0.1000000E+03  0.7546771E-02  0.1163815E+00
         11   -1    0    0    0    0  0.00000000000E+00  0.00000000000E+00  0.50000000000E+02  0.50000000000E+02  0.00000000000E+00 0. -1.
        -11   -1    0    0    0    0 -0.00000000000E+00 -0.00000000000E+00 -0.50000000000E+02  0.50000000000E+02  0.00000000000E+00 0.  1.
         23    2    1    2    0    0  0.00000000000E+00  0.00000000000E+00  0.00000000000E+00  0.10000000000E+03  0.10000000000E+03 0.  0.
          5    1    3    3  501    0 -0.18149131371E+02  0.11086395911E+02  0.45006786779E+02  0.50000000000E+02  0.47000000000E+01 0. -1.
         -5    1    3    3    0  501  0.18149131371E+02 -0.11086395911E+02 -0.45006786779E+02  0.50000000000E+02  0.47000000000E+01 0.  1.
</event>
<event>
 5    1  0.9023675E-001  0.1000000E+03  0.7546771E-02  0.1163815E+00
         11   -1    0    0    0    0  0.00000000000E+00  0.00000000000E+00  0.50000000000E+02  0.50000000000E+02  0.00000000000E+00 0. -1.
        -11   -1    0    0    0    0 -0.00000000000E+00 -0.00000000000E+00 -0.50000000000E+02  0.50000000000E+02  0.00000000000E+00 0.  1.
         23    2    1    2    0    0  0.00000000000E+00  0.00000000000E+00  0.00000000000E+00  0.10000000000E+03  0.10000000000E+03 0.  0.
          5    1    3    3  501    0 -0.76438986558E+01 -0.45441358966E+02  0.18829862152E+02  0.50000000000E+02  0.47000000000E+01 0. -1.
         -5    1    3    3    0  501  0.76438986558E+01  0.45441358966E+02 -0.18829862152E+02  0.50000000000E+02  0.47000000000E+01 0.  1.
</event>
<event>
 5    1  0.9023675E-001  0.1000000E+03  0.7546771E-02  0.1163815E+00
         11   -1    0    0    0    0  0.00000000000E+00  0.00000000000E+00  0.50000000000E+02  0.50000000000E+02  0.00000000000E+00 0.  1.
        -11   -1    0    0    0    0 -0.00000000000E+00 -0.00000000000E+00 -0.50000000000E+02  0.50000000000E+02  0.00000000000E+00 0. -1.
         23    2    1    2    0    0  0.00000000000E+00  0.00000000000E+00  0.00000000000E+00  0.10000000000E+03  0.10000000000E+03 0.  0.
          5    1    3    3  501    0 -0.22373596257E+02  0.24685511010E+02 -0.36985912680E+02  0.50000000000E+02  0.47000000000E+01 0. -1.
         -5    1    3    3    0  501  0.22373596257E+02 -0.24685511010E+02  0.36985912680E+02  0.50000000000E+02  0.47000000000E+01 0.  1.
</event>
<event>
 5    1  0.9023675E-001  0.1000000E+03  0.7546771E-02  0.1163815E+00
         11   -1    0    0    0    0  0.00000000000E+00  0.00000000000E+00  0.50000000000E+02  0.50000000000E+02  0.00000000000E+00 0. -1.
        -11   -1    0    0    0    0 -0.00000000000E+00 -0.00000000000E+00 -0.50000000000E+02  0.50000000000E+02  0.00000000000E+00 0.  1.
         23    2    1    2    0    0  0.00000000000E+00  0.00000000000E+00  0.00000000000E+00  0.10000000000E+03  0.10000000000E+03 0.  0.
          5    1    3    3  501    0 -0.65622331217E+01 -0.20481361956E+02  0.44892771232E+02  0.50000000000E+02  0.47000000000E+01 0. -1.
         -5    1    3    3    0  501  0.65622331217E+01  0.20481361956E+02 -0.44892771232E+02  0.50000000000E+02  0.47000000000E+01 0.  1.
</event>
<event>
 5    1  0.9023675E-001  0.1000000E+03  0.7546771E-02  0.1163815E+00
         11   -1    0    0    0    0  0.00000000000E+00  0.00000000000E+00  0.50000000000E+02  0.50000000000E+02  0.00000000000E+00 0. -1.
        -11   -1    0    0    0    0 -0.00000000000E+00 -0.00000000000E+00 -0.50000000000E+02  0.50000000000E+02  0.00000000000E+00 0.  1.
         23    2    1    2    0    0  0.00000000000E+00  0.00000000000E+00  0.00000000000E+00  0.10000000000E+03  0.10000000000E+03 0.  0.
          5    1    3    3  501    0 -0.15893642419E+02  0.36480429711E+02  0.29907864832E+02  0.50000000000E+02  0.47000000000E+01 0. -1.
         -5    1    3    3    0  501  0.15893642419E+02 -0.36480429711E+02 -0.29907864832E+02  0.50000000000E+02  0.47000000000E+01 0.  1.
</event>
<event>
 5    1  0.9023675E-001  0.1000000E+03  0.7546771E-02  0.1163815E+00
         11   -1    0    0    0    0  0.00000000000E+00  0.00000000000E+00  0.50000000000E+02  0.50000000000E+02  0.00000000000E+00 0.  1.
        -11   -1    0    0    0    0 -0.00000000000E+00 -0.00000000000E+00 -0.50000000000E+02  0.50000000000E+02  0.00000000000E+00 0. -1.
         23    2    1    2    0    0  0.00000000000E+00  0.00000000000E+00  0.00000000000E+00  0.10000000000E+03  0.10000000000E+03 0.  0.
          5    1    3    3  501    0  0.48484849547E+02  0.66203790159E+01  0.91268804153E+01  0.50000000000E+02  0.47000000000E+01 0. -1.
         -5    1    3    3    0  501 -0.48484849547E+02 -0.66203790159E+01 -0.91268804153E+01  0.50000000000E+02  0.47000000000E+01 0.  1.
</event>
<event>
 5    1  0.9023675E-001  0.1000000E+03  0.7546771E-02  0.1163815E+00
         11   -1    0    0    0    0  0.00000000000E+00  0.00000000000E+00  0.50000000000E+02  0.50000000000E+02  0.00000000000E+00 0.  1.
        -11   -1    0    0    0    0 -0.00000000000E+00 -0.00000000000E+00 -0.50000000000E+02  0.50000000000E+02  0.00000000000E+00 0. -1.
         23    2    1    2    0    0  0.00000000000E+00  0.00000000000E+00  0.00000000000E+00  0.10000000000E+03  0.10000000000E+03 0.  0.
          5    1    3    3  501    0  0.29484310340E+02  0.39975608025E+02  0.32459523687E+01  0.50000000000E+02  0.47000000000E+01 0.  1.
         -5    1    3    3    0  501 -0.29484310340E+02 -0.39975608025E+02 -0.32459523687E+01  0.50000000000E+02  0.47000000000E+01 0. -1.
</event>
<event>
 5    1  0.9023675E-001  0.1000000E+03  0.7546771E-02  0.1163815E+00
         11   -1    0    0    0    0  0.00000000000E+00  0.00000000000E+00  0.50000000000E+02  0.50000000000E+02  0.00000000000E+00 0. -1.
        -11   -1    0    0    0    0 -0.00000000000E+00 -0.00000000000E+00 -0.50000000000E+02  0.50000000000E+02  0.00000000000E+00 0.  1.
         23    2    1    2    0    0  0.00000000000E+00  0.00000000000E+00  0.00000000000E+00  0.10000000000E+03  0.10000000000E+03 0.  0.
          5    1    3    3  501    0 -0.28235707065E+02  0.38865722671E+02  0.13042639601E+02  0.50000000000E+02  0.47000000000E+01 0. -1.
         -5    1    3    3    0  501  0.28235707065E+02 -0.38865722671E+02 -0.13042639601E+02  0.50000000000E+02  0.47000000000E+01 0.  1.
</event>
<event>
 5    1  0.9023675E-001  0.1000000E+03  0.7546771E-02  0.1163815E+00
         11   -1    0    0    0    0  0.00000000000E+00  0.00000000000E+00  0.50000000000E+02  0.50000000000E+02  0.00000000000E+00 0. -1.
        -11   -1    0    0    0    0 -0.00000000000E+00 -0.00000000000E+00 -0.50000000000E+02  0.50000000000E+02  0.00000000000E+00 0.  1.
         23    2    1    2    0    0  0.00000000000E+00  0.00000000000E+00  0.00000000000E+00  0.10000000000E+03  0.10000000000E+03 0.  0.
          5    1    3    3  501    0  0.20085260559E+02 -0.25248068279E+02  0.37908143670E+02  0.50000000000E+02  0.47000000000E+01 0. -1.
         -5    1    3    3    0  501 -0.20085260559E+02  0.25248068279E+02 -0.37908143670E+02  0.50000000000E+02  0.47000000000E+01 0.  1.
</event>
<event>
 5    1  0.9023675E-001  0.1000000E+03  0.7546771E-02  0.1163815E+00
         11   -1    0    0    0    0  0.00000000000E+00  0.00000000000E+00  0.50000000000E+02  0.50000000000E+02  0.00000000000E+00 0. -1.
        -11   -1    0    0    0    0 -0.00000000000E+00 -0.00000000000E+00 -0.50000000000E+02  0.50000000000E+02  0.00000000000E+00 0.  1.
         23    2    1    2    0    0  0.00000000000E+00  0.00000000000E+00  0.00000000000E+00  0.10000000000E+03  0.10000000000E+03 0.  0.
          5    1    3    3  501    0 -0.45331867956E+02  0.15601954769E+02  0.13398162375E+02  0.50000000000E+02  0.47000000000E+01 0. -1.
         -5    1    3    3    0  501  0.45331867956E+02 -0.15601954769E+02 -0.13398162375E+02  0.50000000000E+02  0.47000000000E+01 0.  1.
</event>
<event>
 5    1  0.9023675E-001  0.1000000E+03  0.7546771E-02  0.1163815E+00
         11   -1    0    0    0    0  0.00000000000E+00  0.00000000000E+00  0.50000000000E+02  0.50000000000E+02  0.00000000000E+00 0. -1.
        -11   -1    0    0    0    0 -0.00000000000E+00 -0.00000000000E+00 -0.50000000000E+02  0.50000000000E+02  0.00000000000E+00 0.  1.
         23    2    1    2    0    0  0.00000000000E+00  0.00000000000E+00  0.00000000000E+00  0.10000000000E+03  0.10000000000E+03 0.  0.
          5    1    3    3  501    0 -0.29125734940E+02 -0.14030646271E+02  0.37851585561E+02  0.50000000000E+02  0.47000000000E+01 0. -1.
         -5    1    3    3    0  501  0.29125734940E+02  0.14030646271E+02 -0.37851585561E+02  0.50000000000E+02  0.47000000000E+01 0.  1.
</event>
<event>
 5    1  0.9023675E-001  0.1000000E+03  0.7546771E-02  0.1163815E+00
         11   -1    0    0    0    0  0.00000000000E+00  0.00000000000E+00  0.50000000000E+02  0.50000000000E+02  0.00000000000E+00 0. -1.
        -11   -1    0    0    0    0 -0.00000000000E+00 -0.00000000000E+00 -0.50000000000E+02  0.50000000000E+02  0.00000000000E+00 0.  1.
         23    2    1    2    0    0  0.00000000000E+00  0.00000000000E+00  0.00000000000E+00  0.10000000000E+03  0.10000000000E+03 0.  0.
          5    1    3    3  501    0  0.10326859138E+02  0.70230031597E+00  0.48690581785E+02  0.50000000000E+02  0.47000000000E+01 0. -1.
         -5    1    3    3    0  501 -0.10326859138E+02 -0.70230031597E+00 -0.48690581785E+02  0.50000000000E+02  0.47000000000E+01 0.  1.
</event>
<event>
 5    1  0.9023675E-001  0.1000000E+03  0.7546771E-02  0.1163815E+00
         11   -1    0    0    0    0  0.00000000000E+00  0.00000000000E+00  0.50000000000E+02  0.50000000000E+02  0.00000000000E+00 0. -1.
        -11   -1    0    0    0    0 -0.00000000000E+00 -0.00000000000E+00 -0.50000000000E+02  0.50000000000E+02  0.00000000000E+00 0.  1.
         23    2    1    2    0    0  0.00000000000E+00  0.00000000000E+00  0.00000000000E+00  0.10000000000E+03  0.10000000000E+03 0.  0.
          5    1    3    3  501    0  0.34682846873E+02 -0.18046149909E+01  0.35661653040E+02  0.50000000000E+02  0.47000000000E+01 0. -1.
         -5    1    3    3    0  501 -0.34682846873E+02  0.18046149909E+01 -0.35661653040E+02  0.50000000000E+02  0.47000000000E+01 0.  1.
</event>
<event>
 5    1  0.9023675E-001  0.1000000E+03  0.7546771E-02  0.1163815E+00
         11   -1    0    0    0    0  0.00000000000E+00  0.00000000000E+00  0.50000000000E+02  0.50000000000E+02  0.00000000000E+00 0. -1.
        -11   -1    0    0    0    0 -0.00000000000E+00 -0.00000000000E+00 -0.50000000000E+02  0.50000000000E+02  0.00000000000E+00 0.  1.
         23    2    1    2    0    0  0.00000000000E+00  0.00000000000E+00  0.00000000000E+00  0.10000000000E+03  0.10000000000E+03 0.  0.
          5    1    3    3  501    0  0.53904847619E+01 -0.27675981157E+01  0.49408431211E+02  0.50000000000E+02  0.47000000000E+01 0. -1.
         -5    1    3    3    0  501 -0.53904847619E+01  0.27675981157E+01 -0.49408431211E+02  0.50000000000E+02  0.47000000000E+01 0.  1.
</event>
<event>
 5    1  0.9023675E-001  0.1000000E+03  0.7546771E-02  0.1163815E+00
         11   -1    0    0    0    0  0.00000000000E+00  0.00000000000E+00  0.50000000000E+02  0.50000000000E+02  0.00000000000E+00 0.  1.
        -11   -1    0    0    0    0 -0.00000000000E+00 -0.00000000000E+00 -0.50000000000E+02  0.50000000000E+02  0.00000000000E+00 0. -1.
         23    2    1    2    0    0  0.00000000000E+00  0.00000000000E+00  0.00000000000E+00  0.10000000000E+03  0.10000000000E+03 0.  0.
          5    1    3    3  501    0 -0.28111244235E+02  0.18130176441E+02  0.36864137719E+02  0.50000000000E+02  0.47000000000E+01 0.  1.
         -5    1    3    3    0  501  0.28111244235E+02 -0.18130176441E+02 -0.36864137719E+02  0.50000000000E+02  0.47000000000E+01 0. -1.
</event>
<event>
 5    1  0.9023675E-001  0.1000000E+03  0.7546771E-02  0.1163815E+00
         11   -1    0    0    0    0  0.00000000000E+00  0.00000000000E+00  0.50000000000E+02  0.50000000000E+02  0.00000000000E+00 0. -1.
        -11   -1    0    0    0    0 -0.00000000000E+00 -0.00000000000E+00 -0.50000000000E+02  0.50000000000E+02  0.00000000000E+00 0.  1.
         23    2    1    2    0    0  0.00000000000E+00  0.00000000000E+00  0.00000000000E+00  0.10000000000E+03  0.10000000000E+03 0.  0.
          5    1    3    3  501    0  0.34476958558E+02  0.35904278984E+02 -0.36342711461E+00  0.50000000000E+02  0.47000000000E+01 0. -1.
         -5    1    3    3    0  501 -0.34476958558E+02 -0.35904278984E+02  0.36342711461E+00  0.50000000000E+02  0.47000000000E+01 0. -1.
</event>
<event>
 5    1  0.9023675E-001  0.1000000E+03  0.7546771E-02  0.1163815E+00
         11   -1    0    0    0    0  0.00000000000E+00  0.00000000000E+00  0.50000000000E+02  0.50000000000E+02  0.00000000000E+00 0. -1.
        -11   -1    0    0    0    0 -0.00000000000E+00 -0.00000000000E+00 -0.50000000000E+02  0.50000000000E+02  0.00000000000E+00 0.  1.
         23    2    1    2    0    0  0.00000000000E+00  0.00000000000E+00  0.00000000000E+00  0.10000000000E+03  0.10000000000E+03 0.  0.
          5    1    3    3  501    0 -0.34744989483E+01 -0.87183676355E+01  0.48885866289E+02  0.50000000000E+02  0.47000000000E+01 0. -1.
         -5    1    3    3    0  501  0.34744989483E+01  0.87183676355E+01 -0.48885866289E+02  0.50000000000E+02  0.47000000000E+01 0.  1.
</event>
<event>
 5    1  0.9023675E-001  0.1000000E+03  0.7546771E-02  0.1163815E+00
         11   -1    0    0    0    0  0.00000000000E+00  0.00000000000E+00  0.50000000000E+02  0.50000000000E+02  0.00000000000E+00 0. -1.
        -11   -1    0    0    0    0 -0.00000000000E+00 -0.00000000000E+00 -0.50000000000E+02  0.50000000000E+02  0.00000000000E+00 0.  1.
         23    2    1    2    0    0  0.00000000000E+00  0.00000000000E+00  0.00000000000E+00  0.10000000000E+03  0.10000000000E+03 0.  0.
          5    1    3    3  501    0  0.39319450170E+02  0.50014815129E+01  0.30114382294E+02  0.50000000000E+02  0.47000000000E+01 0. -1.
         -5    1    3    3    0  501 -0.39319450170E+02 -0.50014815129E+01 -0.30114382294E+02  0.50000000000E+02  0.47000000000E+01 0.  1.
</event>
<event>
 5    1  0.9023675E-001  0.1000000E+03  0.7546771E-02  0.1163815E+00
         11   -1    0    0    0    0  0.00000000000E+00  0.00000000000E+00  0.50000000000E+02  0.50000000000E+02  0.00000000000E+00 0. -1.
        -11   -1    0    0    0    0 -0.00000000000E+00 -0.00000000000E+00 -0.50000000000E+02  0.50000000000E+02  0.00000000000E+00 0.  1.
         23    2    1    2    0    0  0.00000000000E+00  0.00000000000E+00  0.00000000000E+00  0.10000000000E+03  0.10000000000E+03 0.  0.
          5    1    3    3  501    0 -0.11537871109E+02 -0.25587122994E+02  0.41110663667E+02  0.50000000000E+02  0.47000000000E+01 0. -1.
         -5    1    3    3    0  501  0.11537871109E+02  0.25587122994E+02 -0.41110663667E+02  0.50000000000E+02  0.47000000000E+01 0.  1.
</event>
<event>
 5    1  0.9023675E-001  0.1000000E+03  0.7546771E-02  0.1163815E+00
         11   -1    0    0    0    0  0.00000000000E+00  0.00000000000E+00  0.50000000000E+02  0.50000000000E+02  0.00000000000E+00 0.  1.
        -11   -1    0    0    0    0 -0.00000000000E+00 -0.00000000000E+00 -0.50000000000E+02  0.50000000000E+02  0.00000000000E+00 0. -1.
         23    2    1    2    0    0  0.00000000000E+00  0.00000000000E+00  0.00000000000E+00  0.10000000000E+03  0.10000000000E+03 0.  0.
          5    1    3    3  501    0 -0.40339512026E+02 -0.22388217629E+02 -0.18692283993E+02  0.50000000000E+02  0.47000000000E+01 0. -1.
         -5    1    3    3    0  501  0.40339512026E+02  0.22388217629E+02  0.18692283993E+02  0.50000000000E+02  0.47000000000E+01 0.  1.
</event>
<event>
 5    1  0.9023675E-001  0.1000000E+03  0.7546771E-02  0.1163815E+00
         11   -1    0    0    0    0  0.00000000000E+00  0.00000000000E+00  0.50000000000E+02  0.50000000000E+02  0.00000000000E+00 0.  1.
        -11   -1    0    0    0    0 -0.00000000000E+00 -0.00000000000E+00 -0.50000000000E+02  0.50000000000E+02  0.00000000000E+00 0. -1.
         23    2    1    2    0    0  0.00000000000E+00  0.00000000000E+00  0.00000000000E+00  0.10000000000E+03  0.10000000000E+03 0.  0.
          5    1    3    3  501    0 -0.80356444272E+01 -0.46996949003E+02 -0.14304726598E+02  0.50000000000E+02  0.47000000000E+01 0. -1.
         -5    1    3    3    0  501  0.80356444272E+01  0.46996949003E+02  0.14304726598E+02  0.50000000000E+02  0.47000000000E+01 0.  1.
</event>
<event>
 5    1  0.9023675E-001  0.1000000E+03  0.7546771E-02  0.1163815E+00
         11   -1    0    0    0    0  0.00000000000E+00  0.00000000000E+00  0.50000000000E+02  0.50000000000E+02  0.00000000000E+00 0.  1.
        -11   -1    0    0    0    0 -0.00000000000E+00 -0.00000000000E+00 -0.50000000000E+02  0.50000000000E+02  0.00000000000E+00 0. -1.
         23    2    1    2    0    0  0.00000000000E+00  0.00000000000E+00  0.00000000000E+00  0.10000000000E+03  0.10000000000E+03 0.  0.
          5    1    3    3  501    0  0.48909579915E+02 -0.87950800238E+01 -0.28999241222E+01  0.50000000000E+02  0.47000000000E+01 0.  1.
         -5    1    3    3    0  501 -0.48909579915E+02  0.87950800238E+01  0.28999241222E+01  0.50000000000E+02  0.47000000000E+01 0. -1.
</event>
<event>
 5    1  0.9023675E-001  0.1000000E+03  0.7546771E-02  0.1163815E+00
         11   -1    0    0    0    0  0.00000000000E+00  0.00000000000E+00  0.50000000000E+02  0.50000000000E+02  0.00000000000E+00 0. -1.
        -11   -1    0    0    0    0 -0.00000000000E+00 -0.00000000000E+00 -0.50000000000E+02  0.50000000000E+02  0.00000000000E+00 0.  1.
         23    2    1    2    0    0  0.00000000000E+00  0.00000000000E+00  0.00000000000E+00  0.10000000000E+03  0.10000000000E+03 0.  0.
          5    1    3    3  501    0  0.20934240474E+02 -0.45149593171E+02  0.10871118950E+01  0.50000000000E+02  0.47000000000E+01 0. -1.
         -5    1    3    3    0  501 -0.20934240474E+02  0.45149593171E+02 -0.10871118950E+01  0.50000000000E+02  0.47000000000E+01 0.  1.
</event>
<event>
 5    1  0.9023675E-001  0.1000000E+03  0.7546771E-02  0.1163815E+00
         11   -1    0    0    0    0  0.00000000000E+00  0.00000000000E+00  0.50000000000E+02  0.50000000000E+02  0.00000000000E+00 0. -1.
        -11   -1    0    0    0    0 -0.00000000000E+00 -0.00000000000E+00 -0.50000000000E+02  0.50000000000E+02  0.00000000000E+00 0.  1.
         23    2    1    2    0    0  0.00000000000E+00  0.00000000000E+00  0.00000000000E+00  0.10000000000E+03  0.10000000000E+03 0.  0.
          5    1    3    3  501    0  0.47331766715E+02  0.90402427480E+01  0.12485506426E+02  0.50000000000E+02  0.47000000000E+01 0. -1.
         -5    1    3    3    0  501 -0.47331766715E+02 -0.90402427480E+01 -0.12485506426E+02  0.50000000000E+02  0.47000000000E+01 0.  1.
</event>
<event>
 5    1  0.9023675E-001  0.1000000E+03  0.7546771E-02  0.1163815E+00
         11   -1    0    0    0    0  0.00000000000E+00  0.00000000000E+00  0.50000000000E+02  0.50000000000E+02  0.00000000000E+00 0. -1.
        -11   -1    0    0    0    0 -0.00000000000E+00 -0.00000000000E+00 -0.50000000000E+02  0.50000000000E+02  0.00000000000E+00 0.  1.
         23    2    1    2    0    0  0.00000000000E+00  0.00000000000E+00  0.00000000000E+00  0.10000000000E+03  0.10000000000E+03 0.  0.
          5    1    3    3  501    0 -0.33075550393E+01  0.48687121127E+01  0.49429401393E+02  0.50000000000E+02  0.47000000000E+01 0. -1.
         -5    1    3    3    0  501  0.33075550393E+01 -0.48687121127E+01 -0.49429401393E+02  0.50000000000E+02  0.47000000000E+01 0.  1.
</event>
<event>
 5    1  0.9023675E-001  0.1000000E+03  0.7546771E-02  0.1163815E+00
         11   -1    0    0    0    0  0.00000000000E+00  0.00000000000E+00  0.50000000000E+02  0.50000000000E+02  0.00000000000E+00 0. -1.
        -11   -1    0    0    0    0 -0.00000000000E+00 -0.00000000000E+00 -0.50000000000E+02  0.50000000000E+02  0.00000000000E+00 0.  1.
         23    2    1    2    0    0  0.00000000000E+00  0.00000000000E+00  0.00000000000E+00  0.10000000000E+03  0.10000000000E+03 0.  0.
          5    1    3    3  501    0 -0.41885831292E+02 -0.17401782240E+02 -0.20510122181E+02  0.50000000000E+02  0.47000000000E+01 0. -1.
         -5    1    3    3    0  501  0.41885831292E+02  0.17401782240E+02  0.20510122181E+02  0.50000000000E+02  0.47000000000E+01 0.  1.
</event>
<event>
 5    1  0.9023675E-001  0.1000000E+03  0.7546771E-02  0.1163815E+00
         11   -1    0    0    0    0  0.00000000000E+00  0.00000000000E+00  0.50000000000E+02  0.50000000000E+02  0.00000000000E+00 0.  1.
        -11   -1    0    0    0    0 -0.00000000000E+00 -0.00000000000E+00 -0.50000000000E+02  0.50000000000E+02  0.00000000000E+00 0. -1.
         23    2    1    2    0    0  0.00000000000E+00  0.00000000000E+00  0.00000000000E+00  0.10000000000E+03  0.10000000000E+03 0.  0.
          5    1    3    3  501    0 -0.44259601710E+02  0.22695019484E+02 -0.19833676151E+01  0.50000000000E+02  0.47000000000E+01 0. -1.
         -5    1    3    3    0  501  0.44259601710E+02 -0.22695019484E+02  0.19833676151E+01  0.50000000000E+02  0.47000000000E+01 0.  1.
</event>
<event>
 5    1  0.9023675E-001  0.1000000E+03  0.7546771E-02  0.1163815E+00
         11   -1    0    0    0    0  0.00000000000E+00  0.00000000000E+00  0.50000000000E+02  0.50000000000E+02  0.00000000000E+00 0. -1.
        -11   -1    0    0    0    0 -0.00000000000E+00 -0.00000000000E+00 -0.50000000000E+02  0.50000000000E+02  0.00000000000E+00 0.  1.
         23    2    1    2    0    0  0.00000000000E+00  0.00000000000E+00  0.00000000000E+00  0.10000000000E+03  0.10000000000E+03 0.  0.
          5    1    3    3  501    0 -0.27226411414E+02 -0.83871490986E+01  0.40820194163E+02  0.50000000000E+02  0.47000000000E+01 0. -1.
         -5    1    3    3    0  501  0.27226411414E+02  0.83871490986E+01 -0.40820194163E+02  0.50000000000E+02  0.47000000000E+01 0.  1.
</event>
<event>
 5    1  0.9023675E-001  0.1000000E+03  0.7546771E-02  0.1163815E+00
         11   -1    0    0    0    0  0.00000000000E+00  0.00000000000E+00  0.50000000000E+02  0.50000000000E+02  0.00000000000E+00 0.  1.
        -11   -1    0    0    0    0 -0.00000000000E+00 -0.00000000000E+00 -0.50000000000E+02  0.50000000000E+02  0.00000000000E+00 0. -1.
         23    2    1    2    0    0  0.00000000000E+00  0.00000000000E+00  0.00000000000E+00  0.10000000000E+03  0.10000000000E+03 0.  0.
          5    1    3    3  501    0  0.39800474616E+02  0.19814568764E+02 -0.22387833416E+02  0.50000000000E+02  0.47000000000E+01 0. -1.
         -5    1    3    3    0  501 -0.39800474616E+02 -0.19814568764E+02  0.22387833416E+02  0.50000000000E+02  0.47000000000E+01 0.  1.
</event>
<event>
 5    1  0.9023675E-001  0.1000000E+03  0.7546771E-02  0.1163815E+00
         11   -1    0    0    0    0  0.00000000000E+00  0.00000000000E+00  0.50000000000E+02  0.50000000000E+02  0.00000000000E+00 0. -1.
        -11   -1    0    0    0    0 -0.00000000000E+00 -0.00000000000E+00 -0.50000000000E+02  0.50000000000E+02  0.00000000000E+00 0.  1.
         23    2    1    2    0    0  0.00000000000E+00  0.00000000000E+00  0.00000000000E+00  0.10000000000E+03  0.10000000000E+03 0.  0.
          5    1    3    3  501    0 -0.22129021048E+02 -0.21326873021E+02  0.39158407968E+02  0.50000000000E+02  0.47000000000E+01 0. -1.
         -5    1    3    3    0  501  0.22129021048E+02  0.21326873021E+02 -0.39158407968E+02  0.50000000000E+02  0.47000000000E+01 0.  1.
</event>
<event>
 5    1  0.9023675E-001  0.1000000E+03  0.7546771E-02  0.1163815E+00
         11   -1    0    0    0    0  0.00000000000E+00  0.00000000000E+00  0.50000000000E+02  0.50000000000E+02  0.00000000000E+00 0. -1.
        -11   -1    0    0    0    0 -0.00000000000E+00 -0.00000000000E+00 -0.50000000000E+02  0.50000000000E+02  0.00000000000E+00 0.  1.
         23    2    1    2    0    0  0.00000000000E+00  0.00000000000E+00  0.00000000000E+00  0.10000000000E+03  0.10000000000E+03 0.  0.
          5    1    3    3  501    0 -0.36251239757E+02 -0.33180031059E+02 -0.79273674740E+01  0.50000000000E+02  0.47000000000E+01 0. -1.
         -5    1    3    3    0  501  0.36251239757E+02  0.33180031059E+02  0.79273674740E+01  0.50000000000E+02  0.47000000000E+01 0.  1.
</event>
<event>
 5    1  0.9023675E-001  0.1000000E+03  0.7546771E-02  0.1163815E+00
         11   -1    0    0    0    0  0.00000000000E+00  0.00000000000E+00  0.50000000000E+02  0.50000000000E+02  0.00000000000E+00 0. -1.
        -11   -1    0    0    0    0 -0.00000000000E+00 -0.00000000000E+00 -0.50000000000E+02  0.50000000000E+02  0.00000000000E+00 0.  1.
         23    2    1    2    0    0  0.00000000000E+00  0.00000000000E+00  0.00000000000E+00  0.10000000000E+03  0.10000000000E+03 0.  0.
          5    1    3    3  501    0  0.19568179153E+02 -0.37621240756E+02  0.26069879336E+02  0.50000000000E+02  0.47000000000E+01 0. -1.
         -5    1    3    3    0  501 -0.19568179153E+02  0.37621240756E+02 -0.26069879336E+02  0.50000000000E+02  0.47000000000E+01 0.  1.
</event>
<event>
 5    1  0.9023675E-001  0.1000000E+03  0.7546771E-02  0.1163815E+00
         11   -1    0    0    0    0  0.00000000000E+00  0.00000000000E+00  0.50000000000E+02  0.50000000000E+02  0.00000000000E+00 0.  1.
        -11   -1    0    0    0    0 -0.00000000000E+00 -0.00000000000E+00 -0.50000000000E+02  0.50000000000E+02  0.00000000000E+00 0. -1.
         23    2    1    2    0    0  0.00000000000E+00  0.00000000000E+00  0.00000000000E+00  0.10000000000E+03  0.10000000000E+03 0.  0.
          5    1    3    3  501    0 -0.22974103675E+02  0.44072158928E+02  0.27830500844E+01  0.50000000000E+02  0.47000000000E+01 0. -1.
         -5    1    3    3    0  501  0.22974103675E+02 -0.44072158928E+02 -0.27830500844E+01  0.50000000000E+02  0.47000000000E+01 0.  1.
</event>
<event>
 5    1  0.9023675E-001  0.1000000E+03  0.7546771E-02  0.1163815E+00
         11   -1    0    0    0    0  0.00000000000E+00  0.00000000000E+00  0.50000000000E+02  0.50000000000E+02  0.00000000000E+00 0.  1.
        -11   -1    0    0    0    0 -0.00000000000E+00 -0.00000000000E+00 -0.50000000000E+02  0.50000000000E+02  0.00000000000E+00 0. -1.
         23    2    1    2    0    0  0.00000000000E+00  0.00000000000E+00  0.00000000000E+00  0.10000000000E+03  0.10000000000E+03 0.  0.
          5    1    3    3  501    0  0.13607244087E+02 -0.44685587847E+02 -0.17203230718E+02  0.50000000000E+02  0.47000000000E+01 0. -1.
         -5    1    3    3    0  501 -0.13607244087E+02  0.44685587847E+02  0.17203230718E+02  0.50000000000E+02  0.47000000000E+01 0.  1.
</event>
<event>
 5    1  0.9023675E-001  0.1000000E+03  0.7546771E-02  0.1163815E+00
         11   -1    0    0    0    0  0.00000000000E+00  0.00000000000E+00  0.50000000000E+02  0.50000000000E+02  0.00000000000E+00 0.  1.
        -11   -1    0    0    0    0 -0.00000000000E+00 -0.00000000000E+00 -0.50000000000E+02  0.50000000000E+02  0.00000000000E+00 0. -1.
         23    2    1    2    0    0  0.00000000000E+00  0.00000000000E+00  0.00000000000E+00  0.10000000000E+03  0.10000000000E+03 0.  0.
          5    1    3    3  501    0 -0.29922288833E+02  0.13523664091E+02 -0.37412259228E+02  0.50000000000E+02  0.47000000000E+01 0. -1.
         -5    1    3    3    0  501  0.29922288833E+02 -0.13523664091E+02  0.37412259228E+02  0.50000000000E+02  0.47000000000E+01 0.  1.
</event>
<event>
 5    1  0.9023675E-001  0.1000000E+03  0.7546771E-02  0.1163815E+00
         11   -1    0    0    0    0  0.00000000000E+00  0.00000000000E+00  0.50000000000E+02  0.50000000000E+02  0.00000000000E+00 0. -1.
        -11   -1    0    0    0    0 -0.00000000000E+00 -0.00000000000E+00 -0.50000000000E+02  0.50000000000E+02  0.00000000000E+00 0.  1.
         23    2    1    2    0    0  0.00000000000E+00  0.00000000000E+00  0.00000000000E+00  0.10000000000E+03  0.10000000000E+03 0.  0.
          5    1    3    3  501    0  0.48946147001E+02 -0.14291462795E+01  0.89522195403E+01  0.50000000000E+02  0.47000000000E+01 0. -1.
         -5    1    3    3    0  501 -0.48946147001E+02  0.14291462795E+01 -0.89522195403E+01  0.50000000000E+02  0.47000000000E+01 0.  1.
</event>
<event>
 5    1  0.9023675E-001  0.1000000E+03  0.7546771E-02  0.1163815E+00
         11   -1    0    0    0    0  0.00000000000E+00  0.00000000000E+00  0.50000000000E+02  0.50000000000E+02  0.00000000000E+00 0. -1.
        -11   -1    0    0    0    0 -0.00000000000E+00 -0.00000000000E+00 -0.50000000000E+02  0.50000000000E+02  0.00000000000E+00 0.  1.
         23    2    1    2    0    0  0.00000000000E+00  0.00000000000E+00  0.00000000000E+00  0.10000000000E+03  0.10000000000E+03 0.  0.
          5    1    3    3  501    0  0.68137508529E+01  0.33680757571E+02  0.36015126944E+02  0.50000000000E+02  0.47000000000E+01 0. -1.
         -5    1    3    3    0  501 -0.68137508529E+01 -0.33680757571E+02 -0.36015126944E+02  0.50000000000E+02  0.47000000000E+01 0.  1.
</event>
<event>
 5    1  0.9023675E-001  0.1000000E+03  0.7546771E-02  0.1163815E+00
         11   -1    0    0    0    0  0.00000000000E+00  0.00000000000E+00  0.50000000000E+02  0.50000000000E+02  0.00000000000E+00 0. -1.
        -11   -1    0    0    0    0 -0.00000000000E+00 -0.00000000000E+00 -0.50000000000E+02  0.50000000000E+02  0.00000000000E+00 0.  1.
         23    2    1    2    0    0  0.00000000000E+00  0.00000000000E+00  0.00000000000E+00  0.10000000000E+03  0.10000000000E+03 0.  0.
          5    1    3    3  501    0 -0.15412636410E+02 -0.16988889097E+02  0.44178482162E+02  0.50000000000E+02  0.47000000000E+01 0. -1.
         -5    1    3    3    0  501  0.15412636410E+02  0.16988889097E+02 -0.44178482162E+02  0.50000000000E+02  0.47000000000E+01 0.  1.
</event>
<event>
 5    1  0.9023675E-001  0.1000000E+03  0.7546771E-02  0.1163815E+00
         11   -1    0    0    0    0  0.00000000000E+00  0.00000000000E+00  0.50000000000E+02  0.50000000000E+02  0.00000000000E+00 0. -1.
        -11   -1    0    0    0    0 -0.00000000000E+00 -0.00000000000E+00 -0.50000000000E+02  0.50000000000E+02  0.00000000000E+00 0.  1.
         23    2    1    2    0    0  0.00000000000E+00  0.00000000000E+00  0.00000000000E+00  0.10000000000E+03  0.10000000000E+03 0.  0.
          5    1    3    3  501    0 -0.24876123848E+02 -0.24084273658E+02  0.35763615934E+02  0.50000000000E+02  0.47000000000E+01 0. -1.
         -5    1    3    3    0  501  0.24876123848E+02  0.24084273658E+02 -0.35763615934E+02  0.50000000000E+02  0.47000000000E+01 0.  1.
</event>
<event>
 5    1  0.9023675E-001  0.1000000E+03  0.7546771E-02  0.1163815E+00
         11   -1    0    0    0    0  0.00000000000E+00  0.00000000000E+00  0.50000000000E+02  0.50000000000E+02  0.00000000000E+00 0.  1.
        -11   -1    0    0    0    0 -0.00000000000E+00 -0.00000000000E+00 -0.50000000000E+02  0.50000000000E+02  0.00000000000E+00 0. -1.
         23    2    1    2    0    0  0.00000000000E+00  0.00000000000E+00  0.00000000000E+00  0.10000000000E+03  0.10000000000E+03 0.  0.
          5    1    3    3  501    0  0.10776586714E+02 -0.29232901442E+02 -0.38822836734E+02  0.50000000000E+02  0.47000000000E+01 0. -1.
         -5    1    3    3    0  501 -0.10776586714E+02  0.29232901442E+02  0.38822836734E+02  0.50000000000E+02  0.47000000000E+01 0.  1.
</event>
<event>
 5    1  0.9023675E-001  0.1000000E+03  0.7546771E-02  0.1163815E+00
         11   -1    0    0    0    0  0.00000000000E+00  0.00000000000E+00  0.50000000000E+02  0.50000000000E+02  0.00000000000E+00 0. -1.
        -11   -1    0    0    0    0 -0.00000000000E+00 -0.00000000000E+00 -0.50000000000E+02  0.50000000000E+02  0.00000000000E+00 0.  1.
         23    2    1    2    0    0  0.00000000000E+00  0.00000000000E+00  0.00000000000E+00  0.10000000000E+03  0.10000000000E+03 0.  0.
          5    1    3    3  501    0 -0.36464777761E+02 -0.28668983280E+02  0.18064312345E+02  0.50000000000E+02  0.47000000000E+01 0. -1.
         -5    1    3    3    0  501  0.36464777761E+02  0.28668983280E+02 -0.18064312345E+02  0.50000000000E+02  0.47000000000E+01 0.  1.
</event>
<event>
 5    1  0.9023675E-001  0.1000000E+03  0.7546771E-02  0.1163815E+00
         11   -1    0    0    0    0  0.00000000000E+00  0.00000000000E+00  0.50000000000E+02  0.50000000000E+02  0.00000000000E+00 0.  1.
        -11   -1    0    0    0    0 -0.00000000000E+00 -0.00000000000E+00 -0.50000000000E+02  0.50000000000E+02  0.00000000000E+00 0. -1.
         23    2    1    2    0    0  0.00000000000E+00  0.00000000000E+00  0.00000000000E+00  0.10000000000E+03  0.10000000000E+03 0.  0.
          5    1    3    3  501    0  0.26811863084E+02  0.37614108180E+01  0.41771830061E+02  0.50000000000E+02  0.47000000000E+01 0.  1.
         -5    1    3    3    0  501 -0.26811863084E+02 -0.37614108180E+01 -0.41771830061E+02  0.50000000000E+02  0.47000000000E+01 0. -1.
</event>
<event>
 5    1  0.9023675E-001  0.1000000E+03  0.7546771E-02  0.1163815E+00
         11   -1    0    0    0    0  0.00000000000E+00  0.00000000000E+00  0.50000000000E+02  0.50000000000E+02  0.00000000000E+00 0.  1.
        -11   -1    0    0    0    0 -0.00000000000E+00 -0.00000000000E+00 -0.50000000000E+02  0.50000000000E+02  0.00000000000E+00 0. -1.
         23    2    1    2    0    0  0.00000000000E+00  0.00000000000E+00  0.00000000000E+00  0.10000000000E+03  0.10000000000E+03 0.  0.
          5    1    3    3  501    0  0.17298422382E+02 -0.35868045230E+02 -0.29869012613E+02  0.50000000000E+02  0.47000000000E+01 0. -1.
         -5    1    3    3    0  501 -0.17298422382E+02  0.35868045230E+02  0.29869012613E+02  0.50000000000E+02  0.47000000000E+01 0.  1.
</event>
<event>
 5    1  0.9023675E-001  0.1000000E+03  0.7546771E-02  0.1163815E+00
         11   -1    0    0    0    0  0.00000000000E+00  0.00000000000E+00  0.50000000000E+02  0.50000000000E+02  0.00000000000E+00 0.  1.
        -11   -1    0    0    0    0 -0.00000000000E+00 -0.00000000000E+00 -0.50000000000E+02  0.50000000000E+02  0.00000000000E+00 0. -1.
         23    2    1    2    0    0  0.00000000000E+00  0.00000000000E+00  0.00000000000E+00  0.10000000000E+03  0.10000000000E+03 0.  0.
          5    1    3    3  501    0  0.33520721684E+02  0.22146294371E+02  0.29390693484E+02  0.50000000000E+02  0.47000000000E+01 0. -1.
         -5    1    3    3    0  501 -0.33520721684E+02 -0.22146294371E+02 -0.29390693484E+02  0.50000000000E+02  0.47000000000E+01 0.  1.
</event>
<event>
 5    1  0.9023675E-001  0.1000000E+03  0.7546771E-02  0.1163815E+00
         11   -1    0    0    0    0  0.00000000000E+00  0.00000000000E+00  0.50000000000E+02  0.50000000000E+02  0.00000000000E+00 0. -1.
        -11   -1    0    0    0    0 -0.00000000000E+00 -0.00000000000E+00 -0.50000000000E+02  0.50000000000E+02  0.00000000000E+00 0.  1.
         23    2    1    2    0    0  0.00000000000E+00  0.00000000000E+00  0.00000000000E+00  0.10000000000E+03  0.10000000000E+03 0.  0.
          5    1    3    3  501    0 -0.34098574850E+02  0.87893803868E+01 -0.35184428170E+02  0.50000000000E+02  0.47000000000E+01 0. -1.
         -5    1    3    3    0  501  0.34098574850E+02 -0.87893803868E+01  0.35184428170E+02  0.50000000000E+02  0.47000000000E+01 0.  1.
</event>
<event>
 5    1  0.9023675E-001  0.1000000E+03  0.7546771E-02  0.1163815E+00
         11   -1    0    0    0    0  0.00000000000E+00  0.00000000000E+00  0.50000000000E+02  0.50000000000E+02  0.00000000000E+00 0. -1.
        -11   -1    0    0    0    0 -0.00000000000E+00 -0.00000000000E+00 -0.50000000000E+02  0.50000000000E+02  0.00000000000E+00 0.  1.
         23    2    1    2    0    0  0.00000000000E+00  0.00000000000E+00  0.00000000000E+00  0.10000000000E+03  0.10000000000E+03 0.  0.
          5    1    3    3  501    0  0.21948826431E+02  0.43217759848E+02  0.11330677475E+02  0.50000000000E+02  0.47000000000E+01 0. -1.
         -5    1    3    3    0  501 -0.21948826431E+02 -0.43217759848E+02 -0.11330677475E+02  0.50000000000E+02  0.47000000000E+01 0.  1.
</event>
<event>
 5    1  0.9023675E-001  0.1000000E+03  0.7546771E-02  0.1163815E+00
         11   -1    0    0    0    0  0.00000000000E+00  0.00000000000E+00  0.50000000000E+02  0.50000000000E+02  0.00000000000E+00 0. -1.
        -11   -1    0    0    0    0 -0.00000000000E+00 -0.00000000000E+00 -0.50000000000E+02  0.50000000000E+02  0.00000000000E+00 0.  1.
         23    2    1    2    0    0  0.00000000000E+00  0.00000000000E+00  0.00000000000E+00  0.10000000000E+03  0.10000000000E+03 0.  0.
          5    1    3    3  501    0 -0.34251861954E+02 -0.19283945595E+02  0.30542583305E+02  0.50000000000E+02  0.47000000000E+01 0. -1.
         -5    1    3    3    0  501  0.34251861954E+02  0.19283945595E+02 -0.30542583305E+02  0.50000000000E+02  0.47000000000E+01 0.  1.
</event>
<event>
 5    1  0.9023675E-001  0.1000000E+03  0.7546771E-02  0.1163815E+00
         11   -1    0    0    0    0  0.00000000000E+00  0.00000000000E+00  0.50000000000E+02  0.50000000000E+02  0.00000000000E+00 0. -1.
        -11   -1    0    0    0    0 -0.00000000000E+00 -0.00000000000E+00 -0.50000000000E+02  0.50000000000E+02  0.00000000000E+00 0.  1.
         23    2    1    2    0    0  0.00000000000E+00  0.00000000000E+00  0.00000000000E+00  0.10000000000E+03  0.10000000000E+03 0.  0.
          5    1    3    3  501    0  0.60453399342E+01 -0.49382412866E+02 -0.16556462925E+01  0.50000000000E+02  0.47000000000E+01 0. -1.
         -5    1    3    3    0  501 -0.60453399342E+01  0.49382412866E+02  0.16556462925E+01  0.50000000000E+02  0.47000000000E+01 0.  1.
</event>
<event>
 5    1  0.9023675E-001  0.1000000E+03  0.7546771E-02  0.1163815E+00
         11   -1    0    0    0    0  0.00000000000E+00  0.00000000000E+00  0.50000000000E+02  0.50000000000E+02  0.00000000000E+00 0. -1.
        -11   -1    0    0    0    0 -0.00000000000E+00 -0.00000000000E+00 -0.50000000000E+02  0.50000000000E+02  0.00000000000E+00 0.  1.
         23    2    1    2    0    0  0.00000000000E+00  0.00000000000E+00  0.00000000000E+00  0.10000000000E+03  0.10000000000E+03 0.  0.
          5    1    3    3  501    0 -0.17552583500E+02 -0.11005489240E+02  0.45262523340E+02  0.50000000000E+02  0.47000000000E+01 0. -1.
         -5    1    3    3    0  501  0.17552583500E+02  0.11005489240E+02 -0.45262523340E+02  0.50000000000E+02  0.47000000000E+01 0.  1.
</event>
<event>
 5    1  0.9023675E-001  0.1000000E+03  0.7546771E-02  0.1163815E+00
         11   -1    0    0    0    0  0.00000000000E+00  0.00000000000E+00  0.50000000000E+02  0.50000000000E+02  0.00000000000E+00 0. -1.
        -11   -1    0    0    0    0 -0.00000000000E+00 -0.00000000000E+00 -0.50000000000E+02  0.50000000000E+02  0.00000000000E+00 0.  1.
         23    2    1    2    0    0  0.00000000000E+00  0.00000000000E+00  0.00000000000E+00  0.10000000000E+03  0.10000000000E+03 0.  0.
          5    1    3    3  501    0  0.23675954042E+02 -0.31052557938E+02  0.30872282807E+02  0.50000000000E+02  0.47000000000E+01 0. -1.
         -5    1    3    3    0  501 -0.23675954042E+02  0.31052557938E+02 -0.30872282807E+02  0.50000000000E+02  0.47000000000E+01 0.  1.
</event>
<event>
 5    1  0.9023675E-001  0.1000000E+03  0.7546771E-02  0.1163815E+00
         11   -1    0    0    0    0  0.00000000000E+00  0.00000000000E+00  0.50000000000E+02  0.50000000000E+02  0.00000000000E+00 0. -1.
        -11   -1    0    0    0    0 -0.00000000000E+00 -0.00000000000E+00 -0.50000000000E+02  0.50000000000E+02  0.00000000000E+00 0.  1.
         23    2    1    2    0    0  0.00000000000E+00  0.00000000000E+00  0.00000000000E+00  0.10000000000E+03  0.10000000000E+03 0.  0.
          5    1    3    3  501    0  0.14320308387E+02 -0.32247467820E+02  0.35113239482E+02  0.50000000000E+02  0.47000000000E+01 0. -1.
         -5    1    3    3    0  501 -0.14320308387E+02  0.32247467820E+02 -0.35113239482E+02  0.50000000000E+02  0.47000000000E+01 0.  1.
</event>
<event>
 5    1  0.9023675E-001  0.1000000E+03  0.7546771E-02  0.1163815E+00
         11   -1    0    0    0    0  0.00000000000E+00  0.00000000000E+00  0.50000000000E+02  0.50000000000E+02  0.00000000000E+00 0.  1.
        -11   -1    0    0    0    0 -0.00000000000E+00 -0.00000000000E+00 -0.50000000000E+02  0.50000000000E+02  0.00000000000E+00 0. -1.
         23    2    1    2    0    0  0.00000000000E+00  0.00000000000E+00  0.00000000000E+00  0.10000000000E+03  0.10000000000E+03 0.  0.
          5    1    3    3  501    0  0.17532975521E+02  0.18821081475E+02 -0.42617738812E+02  0.50000000000E+02  0.47000000000E+01 0. -1.
         -5    1    3    3    0  501 -0.17532975521E+02 -0.18821081475E+02  0.42617738812E+02  0.50000000000E+02  0.47000000000E+01 0.  1.
</event>
<event>
 5    1  0.9023675E-001  0.1000000E+03  0.7546771E-02  0.1163815E+00
         11   -1    0    0    0    0  0.00000000000E+00  0.00000000000E+00  0.50000000000E+02  0.50000000000E+02  0.00000000000E+00 0.  1.
        -11   -1    0    0    0    0 -0.00000000000E+00 -0.00000000000E+00 -0.50000000000E+02  0.50000000000E+02  0.00000000000E+00 0. -1.
         23    2    1    2    0    0  0.00000000000E+00  0.00000000000E+00  0.00000000000E+00  0.10000000000E+03  0.10000000000E+03 0.  0.
          5    1    3    3  501    0 -0.40154990360E+02  0.25508240005E+02 -0.14656617653E+02  0.50000000000E+02  0.47000000000E+01 0. -1.
         -5    1    3    3    0  501  0.40154990360E+02 -0.25508240005E+02  0.14656617653E+02  0.50000000000E+02  0.47000000000E+01 0.  1.
</event>
<event>
 5    1  0.9023675E-001  0.1000000E+03  0.7546771E-02  0.1163815E+00
         11   -1    0    0    0    0  0.00000000000E+00  0.00000000000E+00  0.50000000000E+02  0.50000000000E+02  0.00000000000E+00 0. -1.
        -11   -1    0    0    0    0 -0.00000000000E+00 -0.00000000000E+00 -0.50000000000E+02  0.50000000000E+02  0.00000000000E+00 0.  1.
         23    2    1    2    0    0  0.00000000000E+00  0.00000000000E+00  0.00000000000E+00  0.10000000000E+03  0.10000000000E+03 0.  0.
          5    1    3    3  501    0 -0.46711866688E+02 -0.12613574373E+02  0.11696548725E+02  0.50000000000E+02  0.47000000000E+01 0. -1.
         -5    1    3    3    0  501  0.46711866688E+02  0.12613574373E+02 -0.11696548725E+02  0.50000000000E+02  0.47000000000E+01 0.  1.
</event>
<event>
 5    1  0.9023675E-001  0.1000000E+03  0.7546771E-02  0.1163815E+00
         11   -1    0    0    0    0  0.00000000000E+00  0.00000000000E+00  0.50000000000E+02  0.50000000000E+02  0.00000000000E+00 0.  1.
        -11   -1    0    0    0    0 -0.00000000000E+00 -0.00000000000E+00 -0.50000000000E+02  0.50000000000E+02  0.00000000000E+00 0. -1.
         23    2    1    2    0    0  0.00000000000E+00  0.00000000000E+00  0.00000000000E+00  0.10000000000E+03  0.10000000000E+03 0.  0.
          5    1    3    3  501    0 -0.13458071824E+02  0.24977441114E+02 -0.40901317071E+02  0.50000000000E+02  0.47000000000E+01 0. -1.
         -5    1    3    3    0  501  0.13458071824E+02 -0.24977441114E+02  0.40901317071E+02  0.50000000000E+02  0.47000000000E+01 0.  1.
</event>
<event>
 5    1  0.9023675E-001  0.1000000E+03  0.7546771E-02  0.1163815E+00
         11   -1    0    0    0    0  0.00000000000E+00  0.00000000000E+00  0.50000000000E+02  0.50000000000E+02  0.00000000000E+00 0. -1.
        -11   -1    0    0    0    0 -0.00000000000E+00 -0.00000000000E+00 -0.50000000000E+02  0.50000000000E+02  0.00000000000E+00 0.  1.
         23    2    1    2    0    0  0.00000000000E+00  0.00000000000E+00  0.00000000000E+00  0.10000000000E+03  0.10000000000E+03 0.  0.
          5    1    3    3  501    0  0.23301803110E+01 -0.34597149507E+02  0.35714387937E+02  0.50000000000E+02  0.47000000000E+01 0. -1.
         -5    1    3    3    0  501 -0.23301803110E+01  0.34597149507E+02 -0.35714387937E+02  0.50000000000E+02  0.47000000000E+01 0.  1.
</event>
<event>
 5    1  0.9023675E-001  0.1000000E+03  0.7546771E-02  0.1163815E+00
         11   -1    0    0    0    0  0.00000000000E+00  0.00000000000E+00  0.50000000000E+02  0.50000000000E+02  0.00000000000E+00 0. -1.
        -11   -1    0    0    0    0 -0.00000000000E+00 -0.00000000000E+00 -0.50000000000E+02  0.50000000000E+02  0.00000000000E+00 0.  1.
         23    2    1    2    0    0  0.00000000000E+00  0.00000000000E+00  0.00000000000E+00  0.10000000000E+03  0.10000000000E+03 0.  0.
          5    1    3    3  501    0  0.50488282261E+01 -0.11044161644E+02  0.48274691373E+02  0.50000000000E+02  0.47000000000E+01 0. -1.
         -5    1    3    3    0  501 -0.50488282261E+01  0.11044161644E+02 -0.48274691373E+02  0.50000000000E+02  0.47000000000E+01 0.  1.
</event>
<event>
 5    1  0.9023675E-001  0.1000000E+03  0.7546771E-02  0.1163815E+00
         11   -1    0    0    0    0  0.00000000000E+00  0.00000000000E+00  0.50000000000E+02  0.50000000000E+02  0.00000000000E+00 0. -1.
        -11   -1    0    0    0    0 -0.00000000000E+00 -0.00000000000E+00 -0.50000000000E+02  0.50000000000E+02  0.00000000000E+00 0.  1.
         23    2    1    2    0    0  0.00000000000E+00  0.00000000000E+00  0.00000000000E+00  0.10000000000E+03  0.10000000000E+03 0.  0.
          5    1    3    3  501    0 -0.35040736559E+01  0.74633695614E+01  0.49091033627E+02  0.50000000000E+02  0.47000000000E+01 0. -1.
         -5    1    3    3    0  501  0.35040736559E+01 -0.74633695614E+01 -0.49091033627E+02  0.50000000000E+02  0.47000000000E+01 0.  1.
</event>
<event>
 5    1  0.9023675E-001  0.1000000E+03  0.7546771E-02  0.1163815E+00
         11   -1    0    0    0    0  0.00000000000E+00  0.00000000000E+00  0.50000000000E+02  0.50000000000E+02  0.00000000000E+00 0.  1.
        -11   -1    0    0    0    0 -0.00000000000E+00 -0.00000000000E+00 -0.50000000000E+02  0.50000000000E+02  0.00000000000E+00 0. -1.
         23    2    1    2    0    0  0.00000000000E+00  0.00000000000E+00  0.00000000000E+00  0.10000000000E+03  0.10000000000E+03 0.  0.
          5    1    3    3  501    0 -0.30086105855E+02 -0.24929854524E+02  0.30842156018E+02  0.50000000000E+02  0.47000000000E+01 0.  1.
         -5    1    3    3    0  501  0.30086105855E+02  0.24929854524E+02 -0.30842156018E+02  0.50000000000E+02  0.47000000000E+01 0. -1.
</event>
<event>
 5    1  0.9023675E-001  0.1000000E+03  0.7546771E-02  0.1163815E+00
         11   -1    0    0    0    0  0.00000000000E+00  0.00000000000E+00  0.50000000000E+02  0.50000000000E+02  0.00000000000E+00 0.  1.
        -11   -1    0    0    0    0 -0.00000000000E+00 -0.00000000000E+00 -0.50000000000E+02  0.50000000000E+02  0.00000000000E+00 0. -1.
         23    2    1    2    0    0  0.00000000000E+00  0.00000000000E+00  0.00000000000E+00  0.10000000000E+03  0.10000000000E+03 0.  0.
          5    1    3    3  501    0  0.28614440204E+02  0.40532336673E+02 -0.40315624256E+01  0.50000000000E+02  0.47000000000E+01 0. -1.
         -5    1    3    3    0  501 -0.28614440204E+02 -0.40532336673E+02  0.40315624256E+01  0.50000000000E+02  0.47000000000E+01 0.  1.
</event>
<event>
 5    1  0.9023675E-001  0.1000000E+03  0.7546771E-02  0.1163815E+00
         11   -1    0    0    0    0  0.00000000000E+00  0.00000000000E+00  0.50000000000E+02  0.50000000000E+02  0.00000000000E+00 0. -1.
        -11   -1    0    0    0    0 -0.00000000000E+00 -0.00000000000E+00 -0.50000000000E+02  0.50000000000E+02  0.00000000000E+00 0.  1.
         23    2    1    2    0    0  0.00000000000E+00  0.00000000000E+00  0.00000000000E+00  0.10000000000E+03  0.10000000000E+03 0.  0.
          5    1    3    3  501    0  0.30042045392E+02 -0.30012023008E+02  0.25974294671E+02  0.50000000000E+02  0.47000000000E+01 0. -1.
         -5    1    3    3    0  501 -0.30042045392E+02  0.30012023008E+02 -0.25974294671E+02  0.50000000000E+02  0.47000000000E+01 0.  1.
</event>
<event>
 5    1  0.9023675E-001  0.1000000E+03  0.7546771E-02  0.1163815E+00
         11   -1    0    0    0    0  0.00000000000E+00  0.00000000000E+00  0.50000000000E+02  0.50000000000E+02  0.00000000000E+00 0. -1.
        -11   -1    0    0    0    0 -0.00000000000E+00 -0.00000000000E+00 -0.50000000000E+02  0.50000000000E+02  0.00000000000E+00 0.  1.
         23    2    1    2    0    0  0.00000000000E+00  0.00000000000E+00  0.00000000000E+00  0.10000000000E+03  0.10000000000E+03 0.  0.
          5    1    3    3  501    0 -0.34964748347E+02 -0.15616696380E+02  0.31804011810E+02  0.50000000000E+02  0.47000000000E+01 0. -1.
         -5    1    3    3    0  501  0.34964748347E+02  0.15616696380E+02 -0.31804011810E+02  0.50000000000E+02  0.47000000000E+01 0.  1.
</event>
<event>
 5    1  0.9023675E-001  0.1000000E+03  0.7546771E-02  0.1163815E+00
         11   -1    0    0    0    0  0.00000000000E+00  0.00000000000E+00  0.50000000000E+02  0.50000000000E+02  0.00000000000E+00 0. -1.
        -11   -1    0    0    0    0 -0.00000000000E+00 -0.00000000000E+00 -0.50000000000E+02  0.50000000000E+02  0.00000000000E+00 0.  1.
         23    2    1    2    0    0  0.00000000000E+00  0.00000000000E+00  0.00000000000E+00  0.10000000000E+03  0.10000000000E+03 0.  0.
          5    1    3    3  501    0  0.11408794866E+02 -0.46649353507E+02 -0.13099130393E+02  0.50000000000E+02  0.47000000000E+01 0. -1.
         -5    1    3    3    0  501 -0.11408794866E+02  0.46649353507E+02  0.13099130393E+02  0.50000000000E+02  0.47000000000E+01 0.  1.
</event>
<event>
 5    1  0.9023675E-001  0.1000000E+03  0.7546771E-02  0.1163815E+00
         11   -1    0    0    0    0  0.00000000000E+00  0.00000000000E+00  0.50000000000E+02  0.50000000000E+02  0.00000000000E+00 0. -1.
        -11   -1    0    0    0    0 -0.00000000000E+00 -0.00000000000E+00 -0.50000000000E+02  0.50000000000E+02  0.00000000000E+00 0.  1.
         23    2    1    2    0    0  0.00000000000E+00  0.00000000000E+00  0.00000000000E+00  0.10000000000E+03  0.10000000000E+03 0.  0.
          5    1    3    3  501    0  0.20208583957E+02  0.39839834592E+02  0.21961573580E+02  0.50000000000E+02  0.47000000000E+01 0. -1.
         -5    1    3    3    0  501 -0.20208583957E+02 -0.39839834592E+02 -0.21961573580E+02  0.50000000000E+02  0.47000000000E+01 0.  1.
</event>
<event>
 5    1  0.9023675E-001  0.1000000E+03  0.7546771E-02  0.1163815E+00
         11   -1    0    0    0    0  0.00000000000E+00  0.00000000000E+00  0.50000000000E+02  0.50000000000E+02  0.00000000000E+00 0. -1.
        -11   -1    0    0    0    0 -0.00000000000E+00 -0.00000000000E+00 -0.50000000000E+02  0.50000000000E+02  0.00000000000E+00 0.  1.
         23    2    1    2    0    0  0.00000000000E+00  0.00000000000E+00  0.00000000000E+00  0.10000000000E+03  0.10000000000E+03 0.  0.
          5    1    3    3  501    0  0.36990703667E+02 -0.10651081002E+02  0.31561880738E+02  0.50000000000E+02  0.47000000000E+01 0. -1.
         -5    1    3    3    0  501 -0.36990703667E+02  0.10651081002E+02 -0.31561880738E+02  0.50000000000E+02  0.47000000000E+01 0.  1.
</event>
<event>
 5    1  0.9023675E-001  0.1000000E+03  0.7546771E-02  0.1163815E+00
         11   -1    0    0    0    0  0.00000000000E+00  0.00000000000E+00  0.50000000000E+02  0.50000000000E+02  0.00000000000E+00 0. -1.
        -11   -1    0    0    0    0 -0.00000000000E+00 -0.00000000000E+00 -0.50000000000E+02  0.50000000000E+02  0.00000000000E+00 0.  1.
         23    2    1    2    0    0  0.00000000000E+00  0.00000000000E+00  0.00000000000E+00  0.10000000000E+03  0.10000000000E+03 0.  0.
          5    1    3    3  501    0 -0.98541306482E+01  0.34316348505E+02  0.34687091756E+02  0.50000000000E+02  0.47000000000E+01 0. -1.
         -5    1    3    3    0  501  0.98541306482E+01 -0.34316348505E+02 -0.34687091756E+02  0.50000000000E+02  0.47000000000E+01 0.  1.
</event>
<event>
 5    1  0.9023675E-001  0.1000000E+03  0.7546771E-02  0.1163815E+00
         11   -1    0    0    0    0  0.00000000000E+00  0.00000000000E+00  0.50000000000E+02  0.50000000000E+02  0.00000000000E+00 0. -1.
        -11   -1    0    0    0    0 -0.00000000000E+00 -0.00000000000E+00 -0.50000000000E+02  0.50000000000E+02  0.00000000000E+00 0.  1.
         23    2    1    2    0    0  0.00000000000E+00  0.00000000000E+00  0.00000000000E+00  0.10000000000E+03  0.10000000000E+03 0.  0.
          5    1    3    3  501    0  0.14164016139E+02  0.46860499467E+02  0.90213212171E+01  0.50000000000E+02  0.47000000000E+01 0. -1.
         -5    1    3    3    0  501 -0.14164016139E+02 -0.46860499467E+02 -0.90213212171E+01  0.50000000000E+02  0.47000000000E+01 0.  1.
</event>
<event>
 5    1  0.9023675E-001  0.1000000E+03  0.7546771E-02  0.1163815E+00
         11   -1    0    0    0    0  0.00000000000E+00  0.00000000000E+00  0.50000000000E+02  0.50000000000E+02  0.00000000000E+00 0. -1.
        -11   -1    0    0    0    0 -0.00000000000E+00 -0.00000000000E+00 -0.50000000000E+02  0.50000000000E+02  0.00000000000E+00 0.  1.
         23    2    1    2    0    0  0.00000000000E+00  0.00000000000E+00  0.00000000000E+00  0.10000000000E+03  0.10000000000E+03 0.  0.
          5    1    3    3  501    0  0.35546507855E+01 -0.28125869174E+02  0.40917110614E+02  0.50000000000E+02  0.47000000000E+01 0. -1.
         -5    1    3    3    0  501 -0.35546507855E+01  0.28125869174E+02 -0.40917110614E+02  0.50000000000E+02  0.47000000000E+01 0.  1.
</event>
<event>
 5    1  0.9023675E-001  0.1000000E+03  0.7546771E-02  0.1163815E+00
         11   -1    0    0    0    0  0.00000000000E+00  0.00000000000E+00  0.50000000000E+02  0.50000000000E+02  0.00000000000E+00 0. -1.
        -11   -1    0    0    0    0 -0.00000000000E+00 -0.00000000000E+00 -0.50000000000E+02  0.50000000000E+02  0.00000000000E+00 0.  1.
         23    2    1    2    0    0  0.00000000000E+00  0.00000000000E+00  0.00000000000E+00  0.10000000000E+03  0.10000000000E+03 0.  0.
          5    1    3    3  501    0  0.20634104923E+02  0.25318714091E+02  0.37564696602E+02  0.50000000000E+02  0.47000000000E+01 0. -1.
         -5    1    3    3    0  501 -0.20634104923E+02 -0.25318714091E+02 -0.37564696602E+02  0.50000000000E+02  0.47000000000E+01 0.  1.
</event>
<event>
 5    1  0.9023675E-001  0.1000000E+03  0.7546771E-02  0.1163815E+00
         11   -1    0    0    0    0  0.00000000000E+00  0.00000000000E+00  0.50000000000E+02  0.50000000000E+02  0.00000000000E+00 0. -1.
        -11   -1    0    0    0    0 -0.00000000000E+00 -0.00000000000E+00 -0.50000000000E+02  0.50000000000E+02  0.00000000000E+00 0.  1.
         23    2    1    2    0    0  0.00000000000E+00  0.00000000000E+00  0.00000000000E+00  0.10000000000E+03  0.10000000000E+03 0.  0.
          5    1    3    3  501    0 -0.77867343967E+01 -0.40004249752E+02  0.28582105752E+02  0.50000000000E+02  0.47000000000E+01 0. -1.
         -5    1    3    3    0  501  0.77867343967E+01  0.40004249752E+02 -0.28582105752E+02  0.50000000000E+02  0.47000000000E+01 0.  1.
</event>
<event>
 5    1  0.9023675E-001  0.1000000E+03  0.7546771E-02  0.1163815E+00
         11   -1    0    0    0    0  0.00000000000E+00  0.00000000000E+00  0.50000000000E+02  0.50000000000E+02  0.00000000000E+00 0.  1.
        -11   -1    0    0    0    0 -0.00000000000E+00 -0.00000000000E+00 -0.50000000000E+02  0.50000000000E+02  0.00000000000E+00 0. -1.
         23    2    1    2    0    0  0.00000000000E+00  0.00000000000E+00  0.00000000000E+00  0.10000000000E+03  0.10000000000E+03 0.  0.
          5    1    3    3  501    0 -0.35019536610E+02 -0.22001819278E+02 -0.27703104592E+02  0.50000000000E+02  0.47000000000E+01 0. -1.
         -5    1    3    3    0  501  0.35019536610E+02  0.22001819278E+02  0.27703104592E+02  0.50000000000E+02  0.47000000000E+01 0.  1.
</event>
<event>
 5    1  0.9023675E-001  0.1000000E+03  0.7546771E-02  0.1163815E+00
         11   -1    0    0    0    0  0.00000000000E+00  0.00000000000E+00  0.50000000000E+02  0.50000000000E+02  0.00000000000E+00 0.  1.
        -11   -1    0    0    0    0 -0.00000000000E+00 -0.00000000000E+00 -0.50000000000E+02  0.50000000000E+02  0.00000000000E+00 0. -1.
         23    2    1    2    0    0  0.00000000000E+00  0.00000000000E+00  0.00000000000E+00  0.10000000000E+03  0.10000000000E+03 0.  0.
          5    1    3    3  501    0  0.27847413903E+02 -0.31032277161E+02 -0.27192449561E+02  0.50000000000E+02  0.47000000000E+01 0. -1.
         -5    1    3    3    0  501 -0.27847413903E+02  0.31032277161E+02  0.27192449561E+02  0.50000000000E+02  0.47000000000E+01 0.  1.
</event>
<event>
 5    1  0.9023675E-001  0.1000000E+03  0.7546771E-02  0.1163815E+00
         11   -1    0    0    0    0  0.00000000000E+00  0.00000000000E+00  0.50000000000E+02  0.50000000000E+02  0.00000000000E+00 0. -1.
        -11   -1    0    0    0    0 -0.00000000000E+00 -0.00000000000E+00 -0.50000000000E+02  0.50000000000E+02  0.00000000000E+00 0.  1.
         23    2    1    2    0    0  0.00000000000E+00  0.00000000000E+00  0.00000000000E+00  0.10000000000E+03  0.10000000000E+03 0.  0.
          5    1    3    3  501    0 -0.10560766491E+01  0.21718000143E+02  0.44778601719E+02  0.50000000000E+02  0.47000000000E+01 0. -1.
         -5    1    3    3    0  501  0.10560766491E+01 -0.21718000143E+02 -0.44778601719E+02  0.50000000000E+02  0.47000000000E+01 0.  1.
</event>
<event>
 5    1  0.9023675E-001  0.1000000E+03  0.7546771E-02  0.1163815E+00
         11   -1    0    0    0    0  0.00000000000E+00  0.00000000000E+00  0.50000000000E+02  0.50000000000E+02  0.00000000000E+00 0. -1.
        -11   -1    0    0    0    0 -0.00000000000E+00 -0.00000000000E+00 -0.50000000000E+02  0.50000000000E+02  0.00000000000E+00 0.  1.
         23    2    1    2    0    0  0.00000000000E+00  0.00000000000E+00  0.00000000000E+00  0.10000000000E+03  0.10000000000E+03 0.  0.
          5    1    3    3  501    0  0.17571596416E+02  0.39657806742E+02 -0.24421452942E+02  0.50000000000E+02  0.47000000000E+01 0. -1.
         -5    1    3    3    0  501 -0.17571596416E+02 -0.39657806742E+02  0.24421452942E+02  0.50000000000E+02  0.47000000000E+01 0.  1.
</event>
<event>
 5    1  0.9023675E-001  0.1000000E+03  0.7546771E-02  0.1163815E+00
         11   -1    0    0    0    0  0.00000000000E+00  0.00000000000E+00  0.50000000000E+02  0.50000000000E+02  0.00000000000E+00 0. -1.
        -11   -1    0    0    0    0 -0.00000000000E+00 -0.00000000000E+00 -0.50000000000E+02  0.50000000000E+02  0.00000000000E+00 0.  1.
         23    2    1    2    0    0  0.00000000000E+00  0.00000000000E+00  0.00000000000E+00  0.10000000000E+03  0.10000000000E+03 0.  0.
          5    1    3    3  501    0  0.63071960130E+01  0.14213008269E+02  0.47287627075E+02  0.50000000000E+02  0.47000000000E+01 0. -1.
         -5    1    3    3    0  501 -0.63071960130E+01 -0.14213008269E+02 -0.47287627075E+02  0.50000000000E+02  0.47000000000E+01 0.  1.
</event>
<event>
 5    1  0.9023675E-001  0.1000000E+03  0.7546771E-02  0.1163815E+00
         11   -1    0    0    0    0  0.00000000000E+00  0.00000000000E+00  0.50000000000E+02  0.50000000000E+02  0.00000000000E+00 0.  1.
        -11   -1    0    0    0    0 -0.00000000000E+00 -0.00000000000E+00 -0.50000000000E+02  0.50000000000E+02  0.00000000000E+00 0. -1.
         23    2    1    2    0    0  0.00000000000E+00  0.00000000000E+00  0.00000000000E+00  0.10000000000E+03  0.10000000000E+03 0.  0.
          5    1    3    3  501    0 -0.35668249808E+02  0.25821376822E+02 -0.23215134172E+02  0.50000000000E+02  0.47000000000E+01 0. -1.
         -5    1    3    3    0  501  0.35668249808E+02 -0.25821376822E+02  0.23215134172E+02  0.50000000000E+02  0.47000000000E+01 0.  1.
</event>
<event>
 5    1  0.9023675E-001  0.1000000E+03  0.7546771E-02  0.1163815E+00
         11   -1    0    0    0    0  0.00000000000E+00  0.00000000000E+00  0.50000000000E+02  0.50000000000E+02  0.00000000000E+00 0. -1.
        -11   -1    0    0    0    0 -0.00000000000E+00 -0.00000000000E+00 -0.50000000000E+02  0.50000000000E+02  0.00000000000E+00 0.  1.
         23    2    1    2    0    0  0.00000000000E+00  0.00000000000E+00  0.00000000000E+00  0.10000000000E+03  0.10000000000E+03 0.  0.
          5    1    3    3  501    0 -0.30337650960E+02 -0.15433769477E+01  0.39435452601E+02  0.50000000000E+02  0.47000000000E+01 0. -1.
         -5    1    3    3    0  501  0.30337650960E+02  0.15433769477E+01 -0.39435452601E+02  0.50000000000E+02  0.47000000000E+01 0.  1.
</event>
<event>
 5    1  0.9023675E-001  0.1000000E+03  0.7546771E-02  0.1163815E+00
         11   -1    0    0    0    0  0.00000000000E+00  0.00000000000E+00  0.50000000000E+02  0.50000000000E+02  0.00000000000E+00 0. -1.
        -11   -1    0    0    0    0 -0.00000000000E+00 -0.00000000000E+00 -0.50000000000E+02  0.50000000000E+02  0.00000000000E+00 0.  1.
         23    2    1    2    0    0  0.00000000000E+00  0.00000000000E+00  0.00000000000E+00  0.10000000000E+03  0.10000000000E+03 0.  0.
          5    1    3    3  501    0 -0.18640192148E+02  0.43665295658E+02 -0.14959785820E+02  0.50000000000E+02  0.47000000000E+01 0.  1.
         -5    1    3    3    0  501  0.18640192148E+02 -0.43665295658E+02  0.14959785820E+02  0.50000000000E+02  0.47000000000E+01 0. -1.
</event>
<event>
 5    1  0.9023675E-001  0.1000000E+03  0.7546771E-02  0.1163815E+00
         11   -1    0    0    0    0  0.00000000000E+00  0.00000000000E+00  0.50000000000E+02  0.50000000000E+02  0.00000000000E+00 0. -1.
        -11   -1    0    0    0    0 -0.00000000000E+00 -0.00000000000E+00 -0.50000000000E+02  0.50000000000E+02  0.00000000000E+00 0.  1.
         23    2    1    2    0    0  0.00000000000E+00  0.00000000000E+00  0.00000000000E+00  0.10000000000E+03  0.10000000000E+03 0.  0.
          5    1    3    3  501    0 -0.40315932694E+02 -0.23608382573E+02  0.17180798682E+02  0.50000000000E+02  0.47000000000E+01 0. -1.
         -5    1    3    3    0  501  0.40315932694E+02  0.23608382573E+02 -0.17180798682E+02  0.50000000000E+02  0.47000000000E+01 0.  1.
</event>
<event>
 5    1  0.9023675E-001  0.1000000E+03  0.7546771E-02  0.1163815E+00
         11   -1    0    0    0    0  0.00000000000E+00  0.00000000000E+00  0.50000000000E+02  0.50000000000E+02  0.00000000000E+00 0. -1.
        -11   -1    0    0    0    0 -0.00000000000E+00 -0.00000000000E+00 -0.50000000000E+02  0.50000000000E+02  0.00000000000E+00 0.  1.
         23    2    1    2    0    0  0.00000000000E+00  0.00000000000E+00  0.00000000000E+00  0.10000000000E+03  0.10000000000E+03 0.  0.
          5    1    3    3  501    0  0.20775222285E+02 -0.13724088944E+02  0.43103938586E+02  0.50000000000E+02  0.47000000000E+01 0. -1.
         -5    1    3    3    0  501 -0.20775222285E+02  0.13724088944E+02 -0.43103938586E+02  0.50000000000E+02  0.47000000000E+01 0.  1.
</event>
<event>
 5    1  0.9023675E-001  0.1000000E+03  0.7546771E-02  0.1163815E+00
         11   -1    0    0    0    0  0.00000000000E+00  0.00000000000E+00  0.50000000000E+02  0.50000000000E+02  0.00000000000E+00 0.  1.
        -11   -1    0    0    0    0 -0.00000000000E+00 -0.00000000000E+00 -0.50000000000E+02  0.50000000000E+02  0.00000000000E+00 0. -1.
         23    2    1    2    0    0  0.00000000000E+00  0.00000000000E+00  0.00000000000E+00  0.10000000000E+03  0.10000000000E+03 0.  0.
          5    1    3    3  501    0  0.67247190233E+01 -0.21732910210E+02 -0.44276051855E+02  0.50000000000E+02  0.47000000000E+01 0. -1.
         -5    1    3    3    0  501 -0.67247190233E+01  0.21732910210E+02  0.44276051855E+02  0.50000000000E+02  0.47000000000E+01 0.  1.
</event>
<event>
 5    1  0.9023675E-001  0.1000000E+03  0.7546771E-02  0.1163815E+00
         11   -1    0    0    0    0  0.00000000000E+00  0.00000000000E+00  0.50000000000E+02  0.50000000000E+02  0.00000000000E+00 0.  1.
        -11   -1    0    0    0    0 -0.00000000000E+00 -0.00000000000E+00 -0.50000000000E+02  0.50000000000E+02  0.00000000000E+00 0. -1.
         23    2    1    2    0    0  0.00000000000E+00  0.00000000000E+00  0.00000000000E+00  0.10000000000E+03  0.10000000000E+03 0.  0.
          5    1    3    3  501    0 -0.13037224935E+02 -0.24556063537E+02 -0.41290925269E+02  0.50000000000E+02  0.47000000000E+01 0. -1.
         -5    1    3    3    0  501  0.13037224935E+02  0.24556063537E+02  0.41290925269E+02  0.50000000000E+02  0.47000000000E+01 0.  1.
</event>
<event>
 5    1  0.9023675E-001  0.1000000E+03  0.7546771E-02  0.1163815E+00
         11   -1    0    0    0    0  0.00000000000E+00  0.00000000000E+00  0.50000000000E+02  0.50000000000E+02  0.00000000000E+00 0. -1.
        -11   -1    0    0    0    0 -0.00000000000E+00 -0.00000000000E+00 -0.50000000000E+02  0.50000000000E+02  0.00000000000E+00 0.  1.
         23    2    1    2    0    0  0.00000000000E+00  0.00000000000E+00  0.00000000000E+00  0.10000000000E+03  0.10000000000E+03 0.  0.
          5    1    3    3  501    0  0.45936050549E+02 -0.41636620136E+01  0.18720394724E+02  0.50000000000E+02  0.47000000000E+01 0. -1.
         -5    1    3    3    0  501 -0.45936050549E+02  0.41636620136E+01 -0.18720394724E+02  0.50000000000E+02  0.47000000000E+01 0.  1.
</event>
<event>
 5    1  0.9023675E-001  0.1000000E+03  0.7546771E-02  0.1163815E+00
         11   -1    0    0    0    0  0.00000000000E+00  0.00000000000E+00  0.50000000000E+02  0.50000000000E+02  0.00000000000E+00 0. -1.
        -11   -1    0    0    0    0 -0.00000000000E+00 -0.00000000000E+00 -0.50000000000E+02  0.50000000000E+02  0.00000000000E+00 0.  1.
         23    2    1    2    0    0  0.00000000000E+00  0.00000000000E+00  0.00000000000E+00  0.10000000000E+03  0.10000000000E+03 0.  0.
          5    1    3    3  501    0 -0.26170353565E+02 -0.94795162422E+01  0.41269375644E+02  0.50000000000E+02  0.47000000000E+01 0. -1.
         -5    1    3    3    0  501  0.26170353565E+02  0.94795162422E+01 -0.41269375644E+02  0.50000000000E+02  0.47000000000E+01 0.  1.
</event>
<event>
 5    1  0.9023675E-001  0.1000000E+03  0.7546771E-02  0.1163815E+00
         11   -1    0    0    0    0  0.00000000000E+00  0.00000000000E+00  0.50000000000E+02  0.50000000000E+02  0.00000000000E+00 0. -1.
        -11   -1    0    0    0    0 -0.00000000000E+00 -0.00000000000E+00 -0.50000000000E+02  0.50000000000E+02  0.00000000000E+00 0.  1.
         23    2    1    2    0    0  0.00000000000E+00  0.00000000000E+00  0.00000000000E+00  0.10000000000E+03  0.10000000000E+03 0.  0.
          5    1    3    3  501    0  0.40704873209E+02  0.12597935892E+02  0.25735487333E+02  0.50000000000E+02  0.47000000000E+01 0. -1.
         -5    1    3    3    0  501 -0.40704873209E+02 -0.12597935892E+02 -0.25735487333E+02  0.50000000000E+02  0.47000000000E+01 0.  1.
</event>
<event>
 5    1  0.9023675E-001  0.1000000E+03  0.7546771E-02  0.1163815E+00
         11   -1    0    0    0    0  0.00000000000E+00  0.00000000000E+00  0.50000000000E+02  0.50000000000E+02  0.00000000000E+00 0. -1.
        -11   -1    0    0    0    0 -0.00000000000E+00 -0.00000000000E+00 -0.50000000000E+02  0.50000000000E+02  0.00000000000E+00 0.  1.
         23    2    1    2    0    0  0.00000000000E+00  0.00000000000E+00  0.00000000000E+00  0.10000000000E+03  0.10000000000E+03 0.  0.
          5    1    3    3  501    0  0.40522362355E+02 -0.24244034700E+02  0.15750394619E+02  0.50000000000E+02  0.47000000000E+01 0. -1.
         -5    1    3    3    0  501 -0.40522362355E+02  0.24244034700E+02 -0.15750394619E+02  0.50000000000E+02  0.47000000000E+01 0.  1.
</event>
<event>
 5    1  0.9023675E-001  0.1000000E+03  0.7546771E-02  0.1163815E+00
         11   -1    0    0    0    0  0.00000000000E+00  0.00000000000E+00  0.50000000000E+02  0.50000000000E+02  0.00000000000E+00 0. -1.
        -11   -1    0    0    0    0 -0.00000000000E+00 -0.00000000000E+00 -0.50000000000E+02  0.50000000000E+02  0.00000000000E+00 0.  1.
         23    2    1    2    0    0  0.00000000000E+00  0.00000000000E+00  0.00000000000E+00  0.10000000000E+03  0.10000000000E+03 0.  0.
          5    1    3    3  501    0  0.12669308742E+01  0.40645506758E+02  0.28709713801E+02  0.50000000000E+02  0.47000000000E+01 0. -1.
         -5    1    3    3    0  501 -0.12669308742E+01 -0.40645506758E+02 -0.28709713801E+02  0.50000000000E+02  0.47000000000E+01 0.  1.
</event>
<event>
 5    1  0.9023675E-001  0.1000000E+03  0.7546771E-02  0.1163815E+00
         11   -1    0    0    0    0  0.00000000000E+00  0.00000000000E+00  0.50000000000E+02  0.50000000000E+02  0.00000000000E+00 0. -1.
        -11   -1    0    0    0    0 -0.00000000000E+00 -0.00000000000E+00 -0.50000000000E+02  0.50000000000E+02  0.00000000000E+00 0.  1.
         23    2    1    2    0    0  0.00000000000E+00  0.00000000000E+00  0.00000000000E+00  0.10000000000E+03  0.10000000000E+03 0.  0.
          5    1    3    3  501    0 -0.79613169351E+01  0.22811077045E+02  0.43522203491E+02  0.50000000000E+02  0.47000000000E+01 0. -1.
         -5    1    3    3    0  501  0.79613169351E+01 -0.22811077045E+02 -0.43522203491E+02  0.50000000000E+02  0.47000000000E+01 0.  1.
</event>
<event>
 5    1  0.9023675E-001  0.1000000E+03  0.7546771E-02  0.1163815E+00
         11   -1    0    0    0    0  0.00000000000E+00  0.00000000000E+00  0.50000000000E+02  0.50000000000E+02  0.00000000000E+00 0. -1.
        -11   -1    0    0    0    0 -0.00000000000E+00 -0.00000000000E+00 -0.50000000000E+02  0.50000000000E+02  0.00000000000E+00 0.  1.
         23    2    1    2    0    0  0.00000000000E+00  0.00000000000E+00  0.00000000000E+00  0.10000000000E+03  0.10000000000E+03 0.  0.
          5    1    3    3  501    0 -0.23406361371E+02 -0.39445670156E+02 -0.19341441346E+02  0.50000000000E+02  0.47000000000E+01 0. -1.
         -5    1    3    3    0  501  0.23406361371E+02  0.39445670156E+02  0.19341441346E+02  0.50000000000E+02  0.47000000000E+01 0.  1.
</event>
<event>
 5    1  0.9023675E-001  0.1000000E+03  0.7546771E-02  0.1163815E+00
         11   -1    0    0    0    0  0.00000000000E+00  0.00000000000E+00  0.50000000000E+02  0.50000000000E+02  0.00000000000E+00 0. -1.
        -11   -1    0    0    0    0 -0.00000000000E+00 -0.00000000000E+00 -0.50000000000E+02  0.50000000000E+02  0.00000000000E+00 0.  1.
         23    2    1    2    0    0  0.00000000000E+00  0.00000000000E+00  0.00000000000E+00  0.10000000000E+03  0.10000000000E+03 0.  0.
          5    1    3    3  501    0 -0.37346227789E+02 -0.32642953047E+02  0.41960560471E+01  0.50000000000E+02  0.47000000000E+01 0. -1.
         -5    1    3    3    0  501  0.37346227789E+02  0.32642953047E+02 -0.41960560471E+01  0.50000000000E+02  0.47000000000E+01 0.  1.
</event>
<event>
 5    1  0.9023675E-001  0.1000000E+03  0.7546771E-02  0.1163815E+00
         11   -1    0    0    0    0  0.00000000000E+00  0.00000000000E+00  0.50000000000E+02  0.50000000000E+02  0.00000000000E+00 0. -1.
        -11   -1    0    0    0    0 -0.00000000000E+00 -0.00000000000E+00 -0.50000000000E+02  0.50000000000E+02  0.00000000000E+00 0.  1.
         23    2    1    2    0    0  0.00000000000E+00  0.00000000000E+00  0.00000000000E+00  0.10000000000E+03  0.10000000000E+03 0.  0.
          5    1    3    3  501    0 -0.35829501641E+02  0.18856955657E+02  0.28958108286E+02  0.50000000000E+02  0.47000000000E+01 0. -1.
         -5    1    3    3    0  501  0.35829501641E+02 -0.18856955657E+02 -0.28958108286E+02  0.50000000000E+02  0.47000000000E+01 0.  1.
</event>
<event>
 5    1  0.9023675E-001  0.1000000E+03  0.7546771E-02  0.1163815E+00
         11   -1    0    0    0    0  0.00000000000E+00  0.00000000000E+00  0.50000000000E+02  0.50000000000E+02  0.00000000000E+00 0. -1.
        -11   -1    0    0    0    0 -0.00000000000E+00 -0.00000000000E+00 -0.50000000000E+02  0.50000000000E+02  0.00000000000E+00 0.  1.
         23    2    1    2    0    0  0.00000000000E+00  0.00000000000E+00  0.00000000000E+00  0.10000000000E+03  0.10000000000E+03 0.  0.
          5    1    3    3  501    0 -0.22394972222E+02  0.67898770295E+01  0.43934869854E+02  0.50000000000E+02  0.47000000000E+01 0. -1.
         -5    1    3    3    0  501  0.22394972222E+02 -0.67898770295E+01 -0.43934869854E+02  0.50000000000E+02  0.47000000000E+01 0.  1.
</event>
<event>
 5    1  0.9023675E-001  0.1000000E+03  0.7546771E-02  0.1163815E+00
         11   -1    0    0    0    0  0.00000000000E+00  0.00000000000E+00  0.50000000000E+02  0.50000000000E+02  0.00000000000E+00 0. -1.
        -11   -1    0    0    0    0 -0.00000000000E+00 -0.00000000000E+00 -0.50000000000E+02  0.50000000000E+02  0.00000000000E+00 0.  1.
         23    2    1    2    0    0  0.00000000000E+00  0.00000000000E+00  0.00000000000E+00  0.10000000000E+03  0.10000000000E+03 0.  0.
          5    1    3    3  501    0  0.15459841018E+02 -0.36729672708E+02  0.29830093169E+02  0.50000000000E+02  0.47000000000E+01 0. -1.
         -5    1    3    3    0  501 -0.15459841018E+02  0.36729672708E+02 -0.29830093169E+02  0.50000000000E+02  0.47000000000E+01 0.  1.
</event>
<event>
 5    1  0.9023675E-001  0.1000000E+03  0.7546771E-02  0.1163815E+00
         11   -1    0    0    0    0  0.00000000000E+00  0.00000000000E+00  0.50000000000E+02  0.50000000000E+02  0.00000000000E+00 0. -1.
        -11   -1    0    0    0    0 -0.00000000000E+00 -0.00000000000E+00 -0.50000000000E+02  0.50000000000E+02  0.00000000000E+00 0.  1.
         23    2    1    2    0    0  0.00000000000E+00  0.00000000000E+00  0.00000000000E+00  0.10000000000E+03  0.10000000000E+03 0.  0.
          5    1    3    3  501    0  0.16982990079E+02 -0.21084067431E+02  0.41772600452E+02  0.50000000000E+02  0.47000000000E+01 0. -1.
         -5    1    3    3    0  501 -0.16982990079E+02  0.21084067431E+02 -0.41772600452E+02  0.50000000000E+02  0.47000000000E+01 0.  1.
</event>
<event>
 5    1  0.9023675E-001  0.1000000E+03  0.7546771E-02  0.1163815E+00
         11   -1    0    0    0    0  0.00000000000E+00  0.00000000000E+00  0.50000000000E+02  0.50000000000E+02  0.00000000000E+00 0.  1.
        -11   -1    0    0    0    0 -0.00000000000E+00 -0.00000000000E+00 -0.50000000000E+02  0.50000000000E+02  0.00000000000E+00 0. -1.
         23    2    1    2    0    0  0.00000000000E+00  0.00000000000E+00  0.00000000000E+00  0.10000000000E+03  0.10000000000E+03 0.  0.
          5    1    3    3  501    0 -0.19069988979E+02  0.33867183482E+02 -0.31100794255E+02  0.50000000000E+02  0.47000000000E+01 0. -1.
         -5    1    3    3    0  501  0.19069988979E+02 -0.33867183482E+02  0.31100794255E+02  0.50000000000E+02  0.47000000000E+01 0.  1.
</event>
<event>
 5    1  0.9023675E-001  0.1000000E+03  0.7546771E-02  0.1163815E+00
         11   -1    0    0    0    0  0.00000000000E+00  0.00000000000E+00  0.50000000000E+02  0.50000000000E+02  0.00000000000E+00 0. -1.
        -11   -1    0    0    0    0 -0.00000000000E+00 -0.00000000000E+00 -0.50000000000E+02  0.50000000000E+02  0.00000000000E+00 0.  1.
         23    2    1    2    0    0  0.00000000000E+00  0.00000000000E+00  0.00000000000E+00  0.10000000000E+03  0.10000000000E+03 0.  0.
          5    1    3    3  501    0  0.17620573961E+02 -0.83315318992E+01  0.45804049488E+02  0.50000000000E+02  0.47000000000E+01 0. -1.
         -5    1    3    3    0  501 -0.17620573961E+02  0.83315318992E+01 -0.45804049488E+02  0.50000000000E+02  0.47000000000E+01 0.  1.
</event>
<event>
 5    1  0.9023675E-001  0.1000000E+03  0.7546771E-02  0.1163815E+00
         11   -1    0    0    0    0  0.00000000000E+00  0.00000000000E+00  0.50000000000E+02  0.50000000000E+02  0.00000000000E+00 0. -1.
        -11   -1    0    0    0    0 -0.00000000000E+00 -0.00000000000E+00 -0.50000000000E+02  0.50000000000E+02  0.00000000000E+00 0.  1.
         23    2    1    2    0    0  0.00000000000E+00  0.00000000000E+00  0.00000000000E+00  0.10000000000E+03  0.10000000000E+03 0.  0.
          5    1    3    3  501    0 -0.20950402326E+01  0.18346197223E+02  0.46227025146E+02  0.50000000000E+02  0.47000000000E+01 0. -1.
         -5    1    3    3    0  501  0.20950402326E+01 -0.18346197223E+02 -0.46227025146E+02  0.50000000000E+02  0.47000000000E+01 0.  1.
</event>
<event>
 5    1  0.9023675E-001  0.1000000E+03  0.7546771E-02  0.1163815E+00
         11   -1    0    0    0    0  0.00000000000E+00  0.00000000000E+00  0.50000000000E+02  0.50000000000E+02  0.00000000000E+00 0. -1.
        -11   -1    0    0    0    0 -0.00000000000E+00 -0.00000000000E+00 -0.50000000000E+02  0.50000000000E+02  0.00000000000E+00 0.  1.
         23    2    1    2    0    0  0.00000000000E+00  0.00000000000E+00  0.00000000000E+00  0.10000000000E+03  0.10000000000E+03 0.  0.
          5    1    3    3  501    0  0.14158570778E+01  0.51819720708E+01  0.49487902706E+02  0.50000000000E+02  0.47000000000E+01 0. -1.
         -5    1    3    3    0  501 -0.14158570778E+01 -0.51819720708E+01 -0.49487902706E+02  0.50000000000E+02  0.47000000000E+01 0.  1.
</event>
<event>
 5    1  0.9023675E-001  0.1000000E+03  0.7546771E-02  0.1163815E+00
         11   -1    0    0    0    0  0.00000000000E+00  0.00000000000E+00  0.50000000000E+02  0.50000000000E+02  0.00000000000E+00 0. -1.
        -11   -1    0    0    0    0 -0.00000000000E+00 -0.00000000000E+00 -0.50000000000E+02  0.50000000000E+02  0.00000000000E+00 0.  1.
         23    2    1    2    0    0  0.00000000000E+00  0.00000000000E+00  0.00000000000E+00  0.10000000000E+03  0.10000000000E+03 0.  0.
          5    1    3    3  501    0 -0.17421308960E+02  0.15935375641E+02  0.43823187895E+02  0.50000000000E+02  0.47000000000E+01 0. -1.
         -5    1    3    3    0  501  0.17421308960E+02 -0.15935375641E+02 -0.43823187895E+02  0.50000000000E+02  0.47000000000E+01 0.  1.
</event>
<event>
 5    1  0.9023675E-001  0.1000000E+03  0.7546771E-02  0.1163815E+00
         11   -1    0    0    0    0  0.00000000000E+00  0.00000000000E+00  0.50000000000E+02  0.50000000000E+02  0.00000000000E+00 0. -1.
        -11   -1    0    0    0    0 -0.00000000000E+00 -0.00000000000E+00 -0.50000000000E+02  0.50000000000E+02  0.00000000000E+00 0.  1.
         23    2    1    2    0    0  0.00000000000E+00  0.00000000000E+00  0.00000000000E+00  0.10000000000E+03  0.10000000000E+03 0.  0.
          5    1    3    3  501    0  0.10754421459E+02  0.48222757114E+02 -0.60677932913E+01  0.50000000000E+02  0.47000000000E+01 0. -1.
         -5    1    3    3    0  501 -0.10754421459E+02 -0.48222757114E+02  0.60677932913E+01  0.50000000000E+02  0.47000000000E+01 0.  1.
</event>
<event>
 5    1  0.9023675E-001  0.1000000E+03  0.7546771E-02  0.1163815E+00
         11   -1    0    0    0    0  0.00000000000E+00  0.00000000000E+00  0.50000000000E+02  0.50000000000E+02  0.00000000000E+00 0. -1.
        -11   -1    0    0    0    0 -0.00000000000E+00 -0.00000000000E+00 -0.50000000000E+02  0.50000000000E+02  0.00000000000E+00 0.  1.
         23    2    1    2    0    0  0.00000000000E+00  0.00000000000E+00  0.00000000000E+00  0.10000000000E+03  0.10000000000E+03 0.  0.
          5    1    3    3  501    0 -0.26275365294E+02  0.65910969176E+01  0.41762095495E+02  0.50000000000E+02  0.47000000000E+01 0. -1.
         -5    1    3    3    0  501  0.26275365294E+02 -0.65910969176E+01 -0.41762095495E+02  0.50000000000E+02  0.47000000000E+01 0.  1.
</event>
<event>
 5    1  0.9023675E-001  0.1000000E+03  0.7546771E-02  0.1163815E+00
         11   -1    0    0    0    0  0.00000000000E+00  0.00000000000E+00  0.50000000000E+02  0.50000000000E+02  0.00000000000E+00 0. -1.
        -11   -1    0    0    0    0 -0.00000000000E+00 -0.00000000000E+00 -0.50000000000E+02  0.50000000000E+02  0.00000000000E+00 0.  1.
         23    2    1    2    0    0  0.00000000000E+00  0.00000000000E+00  0.00000000000E+00  0.10000000000E+03  0.10000000000E+03 0.  0.
          5    1    3    3  501    0  0.41751351388E+02  0.15622931856E+01  0.27060929350E+02  0.50000000000E+02  0.47000000000E+01 0. -1.
         -5    1    3    3    0  501 -0.41751351388E+02 -0.15622931856E+01 -0.27060929350E+02  0.50000000000E+02  0.47000000000E+01 0.  1.
</event>
<event>
 5    1  0.9023675E-001  0.1000000E+03  0.7546771E-02  0.1163815E+00
         11   -1    0    0    0    0  0.00000000000E+00  0.00000000000E+00  0.50000000000E+02  0.50000000000E+02  0.00000000000E+00 0.  1.
        -11   -1    0    0    0    0 -0.00000000000E+00 -0.00000000000E+00 -0.50000000000E+02  0.50000000000E+02  0.00000000000E+00 0. -1.
         23    2    1    2    0    0  0.00000000000E+00  0.00000000000E+00  0.00000000000E+00  0.10000000000E+03  0.10000000000E+03 0.  0.
          5    1    3    3  501    0  0.37079764631E+02 -0.29199758549E+02 -0.15823247314E+02  0.50000000000E+02  0.47000000000E+01 0. -1.
         -5    1    3    3    0  501 -0.37079764631E+02  0.29199758549E+02  0.15823247314E+02  0.50000000000E+02  0.47000000000E+01 0.  1.
</event>
<event>
 5    1  0.9023675E-001  0.1000000E+03  0.7546771E-02  0.1163815E+00
         11   -1    0    0    0    0  0.00000000000E+00  0.00000000000E+00  0.50000000000E+02  0.50000000000E+02  0.00000000000E+00 0. -1.
        -11   -1    0    0    0    0 -0.00000000000E+00 -0.00000000000E+00 -0.50000000000E+02  0.50000000000E+02  0.00000000000E+00 0.  1.
         23    2    1    2    0    0  0.00000000000E+00  0.00000000000E+00  0.00000000000E+00  0.10000000000E+03  0.10000000000E+03 0.  0.
          5    1    3    3  501    0 -0.43503515119E+02 -0.19210797022E+02  0.14707122425E+02  0.50000000000E+02  0.47000000000E+01 0. -1.
         -5    1    3    3    0  501  0.43503515119E+02  0.19210797022E+02 -0.14707122425E+02  0.50000000000E+02  0.47000000000E+01 0.  1.
</event>
<event>
 5    1  0.9023675E-001  0.1000000E+03  0.7546771E-02  0.1163815E+00
         11   -1    0    0    0    0  0.00000000000E+00  0.00000000000E+00  0.50000000000E+02  0.50000000000E+02  0.00000000000E+00 0. -1.
        -11   -1    0    0    0    0 -0.00000000000E+00 -0.00000000000E+00 -0.50000000000E+02  0.50000000000E+02  0.00000000000E+00 0.  1.
         23    2    1    2    0    0  0.00000000000E+00  0.00000000000E+00  0.00000000000E+00  0.10000000000E+03  0.10000000000E+03 0.  0.
          5    1    3    3  501    0 -0.44409739972E+02  0.10437416312E+02  0.19918467218E+02  0.50000000000E+02  0.47000000000E+01 0. -1.
         -5    1    3    3    0  501  0.44409739972E+02 -0.10437416312E+02 -0.19918467218E+02  0.50000000000E+02  0.47000000000E+01 0.  1.
</event>
<event>
 5    1  0.9023675E-001  0.1000000E+03  0.7546771E-02  0.1163815E+00
         11   -1    0    0    0    0  0.00000000000E+00  0.00000000000E+00  0.50000000000E+02  0.50000000000E+02  0.00000000000E+00 0. -1.
        -11   -1    0    0    0    0 -0.00000000000E+00 -0.00000000000E+00 -0.50000000000E+02  0.50000000000E+02  0.00000000000E+00 0.  1.
         23    2    1    2    0    0  0.00000000000E+00  0.00000000000E+00  0.00000000000E+00  0.10000000000E+03  0.10000000000E+03 0.  0.
          5    1    3    3  501    0 -0.40449149519E+01  0.17709434048E+02  0.46345707555E+02  0.50000000000E+02  0.47000000000E+01 0. -1.
         -5    1    3    3    0  501  0.40449149519E+01 -0.17709434048E+02 -0.46345707555E+02  0.50000000000E+02  0.47000000000E+01 0.  1.
</event>
<event>
 5    1  0.9023675E-001  0.1000000E+03  0.7546771E-02  0.1163815E+00
         11   -1    0    0    0    0  0.00000000000E+00  0.00000000000E+00  0.50000000000E+02  0.50000000000E+02  0.00000000000E+00 0. -1.
        -11   -1    0    0    0    0 -0.00000000000E+00 -0.00000000000E+00 -0.50000000000E+02  0.50000000000E+02  0.00000000000E+00 0.  1.
         23    2    1    2    0    0  0.00000000000E+00  0.00000000000E+00  0.00000000000E+00  0.10000000000E+03  0.10000000000E+03 0.  0.
          5    1    3    3  501    0  0.87027451829E+00  0.20834101070E+02  0.45200584674E+02  0.50000000000E+02  0.47000000000E+01 0. -1.
         -5    1    3    3    0  501 -0.87027451829E+00 -0.20834101070E+02 -0.45200584674E+02  0.50000000000E+02  0.47000000000E+01 0.  1.
</event>
<event>
 5    1  0.9023675E-001  0.1000000E+03  0.7546771E-02  0.1163815E+00
         11   -1    0    0    0    0  0.00000000000E+00  0.00000000000E+00  0.50000000000E+02  0.50000000000E+02  0.00000000000E+00 0.  1.
        -11   -1    0    0    0    0 -0.00000000000E+00 -0.00000000000E+00 -0.50000000000E+02  0.50000000000E+02  0.00000000000E+00 0. -1.
         23    2    1    2    0    0  0.00000000000E+00  0.00000000000E+00  0.00000000000E+00  0.10000000000E+03  0.10000000000E+03 0.  0.
          5    1    3    3  501    0 -0.53562397822E+00 -0.29877710441E+01 -0.49685977208E+02  0.50000000000E+02  0.47000000000E+01 0. -1.
         -5    1    3    3    0  501  0.53562397822E+00  0.29877710441E+01  0.49685977208E+02  0.50000000000E+02  0.47000000000E+01 0.  1.
</event>
<event>
 5    1  0.9023675E-001  0.1000000E+03  0.7546771E-02  0.1163815E+00
         11   -1    0    0    0    0  0.00000000000E+00  0.00000000000E+00  0.50000000000E+02  0.50000000000E+02  0.00000000000E+00 0.  1.
        -11   -1    0    0    0    0 -0.00000000000E+00 -0.00000000000E+00 -0.50000000000E+02  0.50000000000E+02  0.00000000000E+00 0. -1.
         23    2    1    2    0    0  0.00000000000E+00  0.00000000000E+00  0.00000000000E+00  0.10000000000E+03  0.10000000000E+03 0.  0.
          5    1    3    3  501    0  0.28163420232E+02 -0.12228887274E+02 -0.39181450674E+02  0.50000000000E+02  0.47000000000E+01 0. -1.
         -5    1    3    3    0  501 -0.28163420232E+02  0.12228887274E+02  0.39181450674E+02  0.50000000000E+02  0.47000000000E+01 0.  1.
</event>
<event>
 5    1  0.9023675E-001  0.1000000E+03  0.7546771E-02  0.1163815E+00
         11   -1    0    0    0    0  0.00000000000E+00  0.00000000000E+00  0.50000000000E+02  0.50000000000E+02  0.00000000000E+00 0. -1.
        -11   -1    0    0    0    0 -0.00000000000E+00 -0.00000000000E+00 -0.50000000000E+02  0.50000000000E+02  0.00000000000E+00 0.  1.
         23    2    1    2    0    0  0.00000000000E+00  0.00000000000E+00  0.00000000000E+00  0.10000000000E+03  0.10000000000E+03 0.  0.
          5    1    3    3  501    0  0.42012393500E+01 -0.26597664534E+02  0.41866738937E+02  0.50000000000E+02  0.47000000000E+01 0. -1.
         -5    1    3    3    0  501 -0.42012393500E+01  0.26597664534E+02 -0.41866738937E+02  0.50000000000E+02  0.47000000000E+01 0.  1.
</event>
<event>
 5    1  0.9023675E-001  0.1000000E+03  0.7546771E-02  0.1163815E+00
         11   -1    0    0    0    0  0.00000000000E+00  0.00000000000E+00  0.50000000000E+02  0.50000000000E+02  0.00000000000E+00 0. -1.
        -11   -1    0    0    0    0 -0.00000000000E+00 -0.00000000000E+00 -0.50000000000E+02  0.50000000000E+02  0.00000000000E+00 0.  1.
         23    2    1    2    0    0  0.00000000000E+00  0.00000000000E+00  0.00000000000E+00  0.10000000000E+03  0.10000000000E+03 0.  0.
          5    1    3    3  501    0  0.16059970102E+02 -0.46905398924E+02 -0.44576801281E+01  0.50000000000E+02  0.47000000000E+01 0. -1.
         -5    1    3    3    0  501 -0.16059970102E+02  0.46905398924E+02  0.44576801281E+01  0.50000000000E+02  0.47000000000E+01 0.  1.
</event>
<event>
 5    1  0.9023675E-001  0.1000000E+03  0.7546771E-02  0.1163815E+00
         11   -1    0    0    0    0  0.00000000000E+00  0.00000000000E+00  0.50000000000E+02  0.50000000000E+02  0.00000000000E+00 0. -1.
        -11   -1    0    0    0    0 -0.00000000000E+00 -0.00000000000E+00 -0.50000000000E+02  0.50000000000E+02  0.00000000000E+00 0.  1.
         23    2    1    2    0    0  0.00000000000E+00  0.00000000000E+00  0.00000000000E+00  0.10000000000E+03  0.10000000000E+03 0.  0.
          5    1    3    3  501    0  0.48142486915E+02 -0.98269812575E+01 -0.79775555792E+01  0.50000000000E+02  0.47000000000E+01 0. -1.
         -5    1    3    3    0  501 -0.48142486915E+02  0.98269812575E+01  0.79775555792E+01  0.50000000000E+02  0.47000000000E+01 0.  1.
</event>
<event>
 5    1  0.9023675E-001  0.1000000E+03  0.7546771E-02  0.1163815E+00
         11   -1    0    0    0    0  0.00000000000E+00  0.00000000000E+00  0.50000000000E+02  0.50000000000E+02  0.00000000000E+00 0. -1.
        -11   -1    0    0    0    0 -0.00000000000E+00 -0.00000000000E+00 -0.50000000000E+02  0.50000000000E+02  0.00000000000E+00 0.  1.
         23    2    1    2    0    0  0.00000000000E+00  0.00000000000E+00  0.00000000000E+00  0.10000000000E+03  0.10000000000E+03 0.  0.
          5    1    3    3  501    0 -0.31779245479E+02  0.36188414265E+02 -0.12585238568E+02  0.50000000000E+02  0.47000000000E+01 0. -1.
         -5    1    3    3    0  501  0.31779245479E+02 -0.36188414265E+02  0.12585238568E+02  0.50000000000E+02  0.47000000000E+01 0.  1.
</event>
<event>
 5    1  0.9023675E-001  0.1000000E+03  0.7546771E-02  0.1163815E+00
         11   -1    0    0    0    0  0.00000000000E+00  0.00000000000E+00  0.50000000000E+02  0.50000000000E+02  0.00000000000E+00 0. -1.
        -11   -1    0    0    0    0 -0.00000000000E+00 -0.00000000000E+00 -0.50000000000E+02  0.50000000000E+02  0.00000000000E+00 0.  1.
         23    2    1    2    0    0  0.00000000000E+00  0.00000000000E+00  0.00000000000E+00  0.10000000000E+03  0.10000000000E+03 0.  0.
          5    1    3    3  501    0 -0.18373327376E+02 -0.46074678927E+02  0.41778945574E+01  0.50000000000E+02  0.47000000000E+01 0. -1.
         -5    1    3    3    0  501  0.18373327376E+02  0.46074678927E+02 -0.41778945574E+01  0.50000000000E+02  0.47000000000E+01 0.  1.
</event>
<event>
 5    1  0.9023675E-001  0.1000000E+03  0.7546771E-02  0.1163815E+00
         11   -1    0    0    0    0  0.00000000000E+00  0.00000000000E+00  0.50000000000E+02  0.50000000000E+02  0.00000000000E+00 0.  1.
        -11   -1    0    0    0    0 -0.00000000000E+00 -0.00000000000E+00 -0.50000000000E+02  0.50000000000E+02  0.00000000000E+00 0. -1.
         23    2    1    2    0    0  0.00000000000E+00  0.00000000000E+00  0.00000000000E+00  0.10000000000E+03  0.10000000000E+03 0.  0.
          5    1    3    3  501    0  0.70996780312E+01 -0.95195753774E+01 -0.48341310041E+02  0.50000000000E+02  0.47000000000E+01 0. -1.
         -5    1    3    3    0  501 -0.70996780312E+01  0.95195753774E+01  0.48341310041E+02  0.50000000000E+02  0.47000000000E+01 0.  1.
</event>
<event>
 5    1  0.9023675E-001  0.1000000E+03  0.7546771E-02  0.1163815E+00
         11   -1    0    0    0    0  0.00000000000E+00  0.00000000000E+00  0.50000000000E+02  0.50000000000E+02  0.00000000000E+00 0. -1.
        -11   -1    0    0    0    0 -0.00000000000E+00 -0.00000000000E+00 -0.50000000000E+02  0.50000000000E+02  0.00000000000E+00 0.  1.
         23    2    1    2    0    0  0.00000000000E+00  0.00000000000E+00  0.00000000000E+00  0.10000000000E+03  0.10000000000E+03 0.  0.
          5    1    3    3  501    0 -0.20073935767E+02  0.25562180311E+00  0.45550870028E+02  0.50000000000E+02  0.47000000000E+01 0. -1.
         -5    1    3    3    0  501  0.20073935767E+02 -0.25562180311E+00 -0.45550870028E+02  0.50000000000E+02  0.47000000000E+01 0.  1.
</event>
<event>
 5    1  0.9023675E-001  0.1000000E+03  0.7546771E-02  0.1163815E+00
         11   -1    0    0    0    0  0.00000000000E+00  0.00000000000E+00  0.50000000000E+02  0.50000000000E+02  0.00000000000E+00 0.  1.
        -11   -1    0    0    0    0 -0.00000000000E+00 -0.00000000000E+00 -0.50000000000E+02  0.50000000000E+02  0.00000000000E+00 0. -1.
         23    2    1    2    0    0  0.00000000000E+00  0.00000000000E+00  0.00000000000E+00  0.10000000000E+03  0.10000000000E+03 0.  0.
          5    1    3    3  501    0 -0.41714982962E+02 -0.26116546869E+02  0.74629870800E+01  0.50000000000E+02  0.47000000000E+01 0. -1.
         -5    1    3    3    0  501  0.41714982962E+02  0.26116546869E+02 -0.74629870800E+01  0.50000000000E+02  0.47000000000E+01 0.  1.
</event>
<event>
 5    1  0.9023675E-001  0.1000000E+03  0.7546771E-02  0.1163815E+00
         11   -1    0    0    0    0  0.00000000000E+00  0.00000000000E+00  0.50000000000E+02  0.50000000000E+02  0.00000000000E+00 0.  1.
        -11   -1    0    0    0    0 -0.00000000000E+00 -0.00000000000E+00 -0.50000000000E+02  0.50000000000E+02  0.00000000000E+00 0. -1.
         23    2    1    2    0    0  0.00000000000E+00  0.00000000000E+00  0.00000000000E+00  0.10000000000E+03  0.10000000000E+03 0.  0.
          5    1    3    3  501    0 -0.10123428494E+02  0.34291604261E+02 -0.34633972812E+02  0.50000000000E+02  0.47000000000E+01 0. -1.
         -5    1    3    3    0  501  0.10123428494E+02 -0.34291604261E+02  0.34633972812E+02  0.50000000000E+02  0.47000000000E+01 0.  1.
</event>
<event>
 5    1  0.9023675E-001  0.1000000E+03  0.7546771E-02  0.1163815E+00
         11   -1    0    0    0    0  0.00000000000E+00  0.00000000000E+00  0.50000000000E+02  0.50000000000E+02  0.00000000000E+00 0.  1.
        -11   -1    0    0    0    0 -0.00000000000E+00 -0.00000000000E+00 -0.50000000000E+02  0.50000000000E+02  0.00000000000E+00 0. -1.
         23    2    1    2    0    0  0.00000000000E+00  0.00000000000E+00  0.00000000000E+00  0.10000000000E+03  0.10000000000E+03 0.  0.
          5    1    3    3  501    0 -0.22019312778E+02 -0.14328816616E+02 -0.42281732216E+02  0.50000000000E+02  0.47000000000E+01 0. -1.
         -5    1    3    3    0  501  0.22019312778E+02  0.14328816616E+02  0.42281732216E+02  0.50000000000E+02  0.47000000000E+01 0.  1.
</event>
<event>
 5    1  0.9023675E-001  0.1000000E+03  0.7546771E-02  0.1163815E+00
         11   -1    0    0    0    0  0.00000000000E+00  0.00000000000E+00  0.50000000000E+02  0.50000000000E+02  0.00000000000E+00 0. -1.
        -11   -1    0    0    0    0 -0.00000000000E+00 -0.00000000000E+00 -0.50000000000E+02  0.50000000000E+02  0.00000000000E+00 0.  1.
         23    2    1    2    0    0  0.00000000000E+00  0.00000000000E+00  0.00000000000E+00  0.10000000000E+03  0.10000000000E+03 0.  0.
          5    1    3    3  501    0  0.12842936299E+01 -0.33536490660E+02  0.36763628549E+02  0.50000000000E+02  0.47000000000E+01 0. -1.
         -5    1    3    3    0  501 -0.12842936299E+01  0.33536490660E+02 -0.36763628549E+02  0.50000000000E+02  0.47000000000E+01 0.  1.
</event>
<event>
 5    1  0.9023675E-001  0.1000000E+03  0.7546771E-02  0.1163815E+00
         11   -1    0    0    0    0  0.00000000000E+00  0.00000000000E+00  0.50000000000E+02  0.50000000000E+02  0.00000000000E+00 0.  1.
        -11   -1    0    0    0    0 -0.00000000000E+00 -0.00000000000E+00 -0.50000000000E+02  0.50000000000E+02  0.00000000000E+00 0. -1.
         23    2    1    2    0    0  0.00000000000E+00  0.00000000000E+00  0.00000000000E+00  0.10000000000E+03  0.10000000000E+03 0.  0.
          5    1    3    3  501    0  0.33846473672E+02 -0.35302010958E+02 -0.92786983066E+01  0.50000000000E+02  0.47000000000E+01 0. -1.
         -5    1    3    3    0  501 -0.33846473672E+02  0.35302010958E+02  0.92786983066E+01  0.50000000000E+02  0.47000000000E+01 0.  1.
</event>
<event>
 5    1  0.9023675E-001  0.1000000E+03  0.7546771E-02  0.1163815E+00
         11   -1    0    0    0    0  0.00000000000E+00  0.00000000000E+00  0.50000000000E+02  0.50000000000E+02  0.00000000000E+00 0. -1.
        -11   -1    0    0    0    0 -0.00000000000E+00 -0.00000000000E+00 -0.50000000000E+02  0.50000000000E+02  0.00000000000E+00 0.  1.
         23    2    1    2    0    0  0.00000000000E+00  0.00000000000E+00  0.00000000000E+00  0.10000000000E+03  0.10000000000E+03 0.  0.
          5    1    3    3  501    0 -0.14829100143E+02 -0.44103139851E+02  0.17689568798E+02  0.50000000000E+02  0.47000000000E+01 0. -1.
         -5    1    3    3    0  501  0.14829100143E+02  0.44103139851E+02 -0.17689568798E+02  0.50000000000E+02  0.47000000000E+01 0.  1.
</event>
<event>
 5    1  0.9023675E-001  0.1000000E+03  0.7546771E-02  0.1163815E+00
         11   -1    0    0    0    0  0.00000000000E+00  0.00000000000E+00  0.50000000000E+02  0.50000000000E+02  0.00000000000E+00 0. -1.
        -11   -1    0    0    0    0 -0.00000000000E+00 -0.00000000000E+00 -0.50000000000E+02  0.50000000000E+02  0.00000000000E+00 0.  1.
         23    2    1    2    0    0  0.00000000000E+00  0.00000000000E+00  0.00000000000E+00  0.10000000000E+03  0.10000000000E+03 0.  0.
          5    1    3    3  501    0 -0.10928028493E+01  0.10304999994E+02  0.48688014511E+02  0.50000000000E+02  0.47000000000E+01 0. -1.
         -5    1    3    3    0  501  0.10928028493E+01 -0.10304999994E+02 -0.48688014511E+02  0.50000000000E+02  0.47000000000E+01 0.  1.
</event>
<event>
 5    1  0.9023675E-001  0.1000000E+03  0.7546771E-02  0.1163815E+00
         11   -1    0    0    0    0  0.00000000000E+00  0.00000000000E+00  0.50000000000E+02  0.50000000000E+02  0.00000000000E+00 0.  1.
        -11   -1    0    0    0    0 -0.00000000000E+00 -0.00000000000E+00 -0.50000000000E+02  0.50000000000E+02  0.00000000000E+00 0. -1.
         23    2    1    2    0    0  0.00000000000E+00  0.00000000000E+00  0.00000000000E+00  0.10000000000E+03  0.10000000000E+03 0.  0.
          5    1    3    3  501    0 -0.81829710978E+01 -0.38688554970E+02 -0.30234825919E+02  0.50000000000E+02  0.47000000000E+01 0. -1.
         -5    1    3    3    0  501  0.81829710978E+01  0.38688554970E+02  0.30234825919E+02  0.50000000000E+02  0.47000000000E+01 0.  1.
</event>
<event>
 5    1  0.9023675E-001  0.1000000E+03  0.7546771E-02  0.1163815E+00
         11   -1    0    0    0    0  0.00000000000E+00  0.00000000000E+00  0.50000000000E+02  0.50000000000E+02  0.00000000000E+00 0. -1.
        -11   -1    0    0    0    0 -0.00000000000E+00 -0.00000000000E+00 -0.50000000000E+02  0.50000000000E+02  0.00000000000E+00 0.  1.
         23    2    1    2    0    0  0.00000000000E+00  0.00000000000E+00  0.00000000000E+00  0.10000000000E+03  0.10000000000E+03 0.  0.
          5    1    3    3  501    0  0.56053756110E+01  0.13394982884E+02  0.47613697586E+02  0.50000000000E+02  0.47000000000E+01 0. -1.
         -5    1    3    3    0  501 -0.56053756110E+01 -0.13394982884E+02 -0.47613697586E+02  0.50000000000E+02  0.47000000000E+01 0.  1.
</event>
<event>
 5    1  0.9023675E-001  0.1000000E+03  0.7546771E-02  0.1163815E+00
         11   -1    0    0    0    0  0.00000000000E+00  0.00000000000E+00  0.50000000000E+02  0.50000000000E+02  0.00000000000E+00 0. -1.
        -11   -1    0    0    0    0 -0.00000000000E+00 -0.00000000000E+00 -0.50000000000E+02  0.50000000000E+02  0.00000000000E+00 0.  1.
         23    2    1    2    0    0  0.00000000000E+00  0.00000000000E+00  0.00000000000E+00  0.10000000000E+03  0.10000000000E+03 0.  0.
          5    1    3    3  501    0  0.13939123000E+02 -0.10830311720E+02 -0.46543691281E+02  0.50000000000E+02  0.47000000000E+01 0.  1.
         -5    1    3    3    0  501 -0.13939123000E+02  0.10830311720E+02  0.46543691281E+02  0.50000000000E+02  0.47000000000E+01 0. -1.
</event>
<event>
 5    1  0.9023675E-001  0.1000000E+03  0.7546771E-02  0.1163815E+00
         11   -1    0    0    0    0  0.00000000000E+00  0.00000000000E+00  0.50000000000E+02  0.50000000000E+02  0.00000000000E+00 0.  1.
        -11   -1    0    0    0    0 -0.00000000000E+00 -0.00000000000E+00 -0.50000000000E+02  0.50000000000E+02  0.00000000000E+00 0. -1.
         23    2    1    2    0    0  0.00000000000E+00  0.00000000000E+00  0.00000000000E+00  0.10000000000E+03  0.10000000000E+03 0.  0.
          5    1    3    3  501    0 -0.28608316743E+02 -0.28051559911E+02  0.29539536213E+02  0.50000000000E+02  0.47000000000E+01 0. -1.
         -5    1    3    3    0  501  0.28608316743E+02  0.28051559911E+02 -0.29539536213E+02  0.50000000000E+02  0.47000000000E+01 0.  1.
</event>
<event>
 5    1  0.9023675E-001  0.1000000E+03  0.7546771E-02  0.1163815E+00
         11   -1    0    0    0    0  0.00000000000E+00  0.00000000000E+00  0.50000000000E+02  0.50000000000E+02  0.00000000000E+00 0. -1.
        -11   -1    0    0    0    0 -0.00000000000E+00 -0.00000000000E+00 -0.50000000000E+02  0.50000000000E+02  0.00000000000E+00 0.  1.
         23    2    1    2    0    0  0.00000000000E+00  0.00000000000E+00  0.00000000000E+00  0.10000000000E+03  0.10000000000E+03 0.  0.
          5    1    3    3  501    0  0.24704980732E+02  0.27665726501E+02  0.33199119028E+02  0.50000000000E+02  0.47000000000E+01 0. -1.
         -5    1    3    3    0  501 -0.24704980732E+02 -0.27665726501E+02 -0.33199119028E+02  0.50000000000E+02  0.47000000000E+01 0.  1.
</event>
<event>
 5    1  0.9023675E-001  0.1000000E+03  0.7546771E-02  0.1163815E+00
         11   -1    0    0    0    0  0.00000000000E+00  0.00000000000E+00  0.50000000000E+02  0.50000000000E+02  0.00000000000E+00 0. -1.
        -11   -1    0    0    0    0 -0.00000000000E+00 -0.00000000000E+00 -0.50000000000E+02  0.50000000000E+02  0.00000000000E+00 0.  1.
         23    2    1    2    0    0  0.00000000000E+00  0.00000000000E+00  0.00000000000E+00  0.10000000000E+03  0.10000000000E+03 0.  0.
          5    1    3    3  501    0 -0.23674648857E+01 -0.16941865886E+02  0.46746960226E+02  0.50000000000E+02  0.47000000000E+01 0. -1.
         -5    1    3    3    0  501  0.23674648857E+01  0.16941865886E+02 -0.46746960226E+02  0.50000000000E+02  0.47000000000E+01 0.  1.
</event>
<event>
 5    1  0.9023675E-001  0.1000000E+03  0.7546771E-02  0.1163815E+00
         11   -1    0    0    0    0  0.00000000000E+00  0.00000000000E+00  0.50000000000E+02  0.50000000000E+02  0.00000000000E+00 0. -1.
        -11   -1    0    0    0    0 -0.00000000000E+00 -0.00000000000E+00 -0.50000000000E+02  0.50000000000E+02  0.00000000000E+00 0.  1.
         23    2    1    2    0    0  0.00000000000E+00  0.00000000000E+00  0.00000000000E+00  0.10000000000E+03  0.10000000000E+03 0.  0.
          5    1    3    3  501    0  0.34057587950E+01 -0.31570079073E+02  0.38335895898E+02  0.50000000000E+02  0.47000000000E+01 0. -1.
         -5    1    3    3    0  501 -0.34057587950E+01  0.31570079073E+02 -0.38335895898E+02  0.50000000000E+02  0.47000000000E+01 0.  1.
</event>
<event>
 5    1  0.9023675E-001  0.1000000E+03  0.7546771E-02  0.1163815E+00
         11   -1    0    0    0    0  0.00000000000E+00  0.00000000000E+00  0.50000000000E+02  0.50000000000E+02  0.00000000000E+00 0. -1.
        -11   -1    0    0    0    0 -0.00000000000E+00 -0.00000000000E+00 -0.50000000000E+02  0.50000000000E+02  0.00000000000E+00 0.  1.
         23    2    1    2    0    0  0.00000000000E+00  0.00000000000E+00  0.00000000000E+00  0.10000000000E+03  0.10000000000E+03 0.  0.
          5    1    3    3  501    0  0.30911624008E+02  0.13391964647E+02  0.36647466271E+02  0.50000000000E+02  0.47000000000E+01 0. -1.
         -5    1    3    3    0  501 -0.30911624008E+02 -0.13391964647E+02 -0.36647466271E+02  0.50000000000E+02  0.47000000000E+01 0.  1.
</event>
<event>
 5    1  0.9023675E-001  0.1000000E+03  0.7546771E-02  0.1163815E+00
         11   -1    0    0    0    0  0.00000000000E+00  0.00000000000E+00  0.50000000000E+02  0.50000000000E+02  0.00000000000E+00 0. -1.
        -11   -1    0    0    0    0 -0.00000000000E+00 -0.00000000000E+00 -0.50000000000E+02  0.50000000000E+02  0.00000000000E+00 0.  1.
         23    2    1    2    0    0  0.00000000000E+00  0.00000000000E+00  0.00000000000E+00  0.10000000000E+03  0.10000000000E+03 0.  0.
          5    1    3    3  501    0  0.16691258200E+02  0.38127832838E+02  0.27305315650E+02  0.50000000000E+02  0.47000000000E+01 0. -1.
         -5    1    3    3    0  501 -0.16691258200E+02 -0.38127832838E+02 -0.27305315650E+02  0.50000000000E+02  0.47000000000E+01 0.  1.
</event>
<event>
 5    1  0.9023675E-001  0.1000000E+03  0.7546771E-02  0.1163815E+00
         11   -1    0    0    0    0  0.00000000000E+00  0.00000000000E+00  0.50000000000E+02  0.50000000000E+02  0.00000000000E+00 0.  1.
        -11   -1    0    0    0    0 -0.00000000000E+00 -0.00000000000E+00 -0.50000000000E+02  0.50000000000E+02  0.00000000000E+00 0. -1.
         23    2    1    2    0    0  0.00000000000E+00  0.00000000000E+00  0.00000000000E+00  0.10000000000E+03  0.10000000000E+03 0.  0.
          5    1    3    3  501    0  0.11037333610E+02 -0.43034779284E+02 -0.22452060902E+02  0.50000000000E+02  0.47000000000E+01 0. -1.
         -5    1    3    3    0  501 -0.11037333610E+02  0.43034779284E+02  0.22452060902E+02  0.50000000000E+02  0.47000000000E+01 0.  1.
</event>
<event>
 5    1  0.9023675E-001  0.1000000E+03  0.7546771E-02  0.1163815E+00
         11   -1    0    0    0    0  0.00000000000E+00  0.00000000000E+00  0.50000000000E+02  0.50000000000E+02  0.00000000000E+00 0.  1.
        -11   -1    0    0    0    0 -0.00000000000E+00 -0.00000000000E+00 -0.50000000000E+02  0.50000000000E+02  0.00000000000E+00 0. -1.
         23    2    1    2    0    0  0.00000000000E+00  0.00000000000E+00  0.00000000000E+00  0.10000000000E+03  0.10000000000E+03 0.  0.
          5    1    3    3  501    0  0.13931668454E+02  0.12031005348E+02 -0.46250119183E+02  0.50000000000E+02  0.47000000000E+01 0. -1.
         -5    1    3    3    0  501 -0.13931668454E+02 -0.12031005348E+02  0.46250119183E+02  0.50000000000E+02  0.47000000000E+01 0.  1.
</event>
<event>
 5    1  0.9023675E-001  0.1000000E+03  0.7546771E-02  0.1163815E+00
         11   -1    0    0    0    0  0.00000000000E+00  0.00000000000E+00  0.50000000000E+02  0.50000000000E+02  0.00000000000E+00 0. -1.
        -11   -1    0    0    0    0 -0.00000000000E+00 -0.00000000000E+00 -0.50000000000E+02  0.50000000000E+02  0.00000000000E+00 0.  1.
         23    2    1    2    0    0  0.00000000000E+00  0.00000000000E+00  0.00000000000E+00  0.10000000000E+03  0.10000000000E+03 0.  0.
          5    1    3    3  501    0  0.30028905934E+02 -0.11042046151E+02  0.38134604039E+02  0.50000000000E+02  0.47000000000E+01 0. -1.
         -5    1    3    3    0  501 -0.30028905934E+02  0.11042046151E+02 -0.38134604039E+02  0.50000000000E+02  0.47000000000E+01 0.  1.
</event>
<event>
 5    1  0.9023675E-001  0.1000000E+03  0.7546771E-02  0.1163815E+00
         11   -1    0    0    0    0  0.00000000000E+00  0.00000000000E+00  0.50000000000E+02  0.50000000000E+02  0.00000000000E+00 0. -1.
        -11   -1    0    0    0    0 -0.00000000000E+00 -0.00000000000E+00 -0.50000000000E+02  0.50000000000E+02  0.00000000000E+00 0.  1.
         23    2    1    2    0    0  0.00000000000E+00  0.00000000000E+00  0.00000000000E+00  0.10000000000E+03  0.10000000000E+03 0.  0.
          5    1    3    3  501    0 -0.13194289025E+02 -0.12520307673E+02  0.46336407208E+02  0.50000000000E+02  0.47000000000E+01 0. -1.
         -5    1    3    3    0  501  0.13194289025E+02  0.12520307673E+02 -0.46336407208E+02  0.50000000000E+02  0.47000000000E+01 0.  1.
</event>
<event>
 5    1  0.9023675E-001  0.1000000E+03  0.7546771E-02  0.1163815E+00
         11   -1    0    0    0    0  0.00000000000E+00  0.00000000000E+00  0.50000000000E+02  0.50000000000E+02  0.00000000000E+00 0. -1.
        -11   -1    0    0    0    0 -0.00000000000E+00 -0.00000000000E+00 -0.50000000000E+02  0.50000000000E+02  0.00000000000E+00 0.  1.
         23    2    1    2    0    0  0.00000000000E+00  0.00000000000E+00  0.00000000000E+00  0.10000000000E+03  0.10000000000E+03 0.  0.
          5    1    3    3  501    0  0.75726229574E+01 -0.49052850701E+02  0.37925215400E+01  0.50000000000E+02  0.47000000000E+01 0. -1.
         -5    1    3    3    0  501 -0.75726229574E+01  0.49052850701E+02 -0.37925215400E+01  0.50000000000E+02  0.47000000000E+01 0.  1.
</event>
<event>
 5    1  0.9023675E-001  0.1000000E+03  0.7546771E-02  0.1163815E+00
         11   -1    0    0    0    0  0.00000000000E+00  0.00000000000E+00  0.50000000000E+02  0.50000000000E+02  0.00000000000E+00 0. -1.
        -11   -1    0    0    0    0 -0.00000000000E+00 -0.00000000000E+00 -0.50000000000E+02  0.50000000000E+02  0.00000000000E+00 0.  1.
         23    2    1    2    0    0  0.00000000000E+00  0.00000000000E+00  0.00000000000E+00  0.10000000000E+03  0.10000000000E+03 0.  0.
          5    1    3    3  501    0 -0.32892342988E+02  0.21217396155E+02  0.30754282193E+02  0.50000000000E+02  0.47000000000E+01 0. -1.
         -5    1    3    3    0  501  0.32892342988E+02 -0.21217396155E+02 -0.30754282193E+02  0.50000000000E+02  0.47000000000E+01 0.  1.
</event>
<event>
 5    1  0.9023675E-001  0.1000000E+03  0.7546771E-02  0.1163815E+00
         11   -1    0    0    0    0  0.00000000000E+00  0.00000000000E+00  0.50000000000E+02  0.50000000000E+02  0.00000000000E+00 0. -1.
        -11   -1    0    0    0    0 -0.00000000000E+00 -0.00000000000E+00 -0.50000000000E+02  0.50000000000E+02  0.00000000000E+00 0.  1.
         23    2    1    2    0    0  0.00000000000E+00  0.00000000000E+00  0.00000000000E+00  0.10000000000E+03  0.10000000000E+03 0.  0.
          5    1    3    3  501    0  0.36683009147E+02 -0.32737883156E+02  0.77780361521E+01  0.50000000000E+02  0.47000000000E+01 0. -1.
         -5    1    3    3    0  501 -0.36683009147E+02  0.32737883156E+02 -0.77780361521E+01  0.50000000000E+02  0.47000000000E+01 0.  1.
</event>
<event>
 5    1  0.9023675E-001  0.1000000E+03  0.7546771E-02  0.1163815E+00
         11   -1    0    0    0    0  0.00000000000E+00  0.00000000000E+00  0.50000000000E+02  0.50000000000E+02  0.00000000000E+00 0.  1.
        -11   -1    0    0    0    0 -0.00000000000E+00 -0.00000000000E+00 -0.50000000000E+02  0.50000000000E+02  0.00000000000E+00 0. -1.
         23    2    1    2    0    0  0.00000000000E+00  0.00000000000E+00  0.00000000000E+00  0.10000000000E+03  0.10000000000E+03 0.  0.
          5    1    3    3  501    0  0.10020390024E+02 -0.47526051092E+02  0.10898451787E+02  0.50000000000E+02  0.47000000000E+01 0. -1.
         -5    1    3    3    0  501 -0.10020390024E+02  0.47526051092E+02 -0.10898451787E+02  0.50000000000E+02  0.47000000000E+01 0.  1.
</event>
<event>
 5    1  0.9023675E-001  0.1000000E+03  0.7546771E-02  0.1163815E+00
         11   -1    0    0    0    0  0.00000000000E+00  0.00000000000E+00  0.50000000000E+02  0.50000000000E+02  0.00000000000E+00 0. -1.
        -11   -1    0    0    0    0 -0.00000000000E+00 -0.00000000000E+00 -0.50000000000E+02  0.50000000000E+02  0.00000000000E+00 0.  1.
         23    2    1    2    0    0  0.00000000000E+00  0.00000000000E+00  0.00000000000E+00  0.10000000000E+03  0.10000000000E+03 0.  0.
          5    1    3    3  501    0  0.32529578809E+02 -0.47873826108E+01  0.37374021328E+02  0.50000000000E+02  0.47000000000E+01 0. -1.
         -5    1    3    3    0  501 -0.32529578809E+02  0.47873826108E+01 -0.37374021328E+02  0.50000000000E+02  0.47000000000E+01 0.  1.
</event>
<event>
 5    1  0.9023675E-001  0.1000000E+03  0.7546771E-02  0.1163815E+00
         11   -1    0    0    0    0  0.00000000000E+00  0.00000000000E+00  0.50000000000E+02  0.50000000000E+02  0.00000000000E+00 0.  1.
        -11   -1    0    0    0    0 -0.00000000000E+00 -0.00000000000E+00 -0.50000000000E+02  0.50000000000E+02  0.00000000000E+00 0. -1.
         23    2    1    2    0    0  0.00000000000E+00  0.00000000000E+00  0.00000000000E+00  0.10000000000E+03  0.10000000000E+03 0.  0.
          5    1    3    3  501    0  0.22093929559E+02 -0.30607668036E+02 -0.32449020540E+02  0.50000000000E+02  0.47000000000E+01 0. -1.
         -5    1    3    3    0  501 -0.22093929559E+02  0.30607668036E+02  0.32449020540E+02  0.50000000000E+02  0.47000000000E+01 0.  1.
</event>
<event>
 5    1  0.9023675E-001  0.1000000E+03  0.7546771E-02  0.1163815E+00
         11   -1    0    0    0    0  0.00000000000E+00  0.00000000000E+00  0.50000000000E+02  0.50000000000E+02  0.00000000000E+00 0. -1.
        -11   -1    0    0    0    0 -0.00000000000E+00 -0.00000000000E+00 -0.50000000000E+02  0.50000000000E+02  0.00000000000E+00 0.  1.
         23    2    1    2    0    0  0.00000000000E+00  0.00000000000E+00  0.00000000000E+00  0.10000000000E+03  0.10000000000E+03 0.  0.
          5    1    3    3  501    0 -0.10122981962E+02 -0.25007184219E+02  0.41833909376E+02  0.50000000000E+02  0.47000000000E+01 0. -1.
         -5    1    3    3    0  501  0.10122981962E+02  0.25007184219E+02 -0.41833909376E+02  0.50000000000E+02  0.47000000000E+01 0.  1.
</event>
<event>
 5    1  0.9023675E-001  0.1000000E+03  0.7546771E-02  0.1163815E+00
         11   -1    0    0    0    0  0.00000000000E+00  0.00000000000E+00  0.50000000000E+02  0.50000000000E+02  0.00000000000E+00 0.  1.
        -11   -1    0    0    0    0 -0.00000000000E+00 -0.00000000000E+00 -0.50000000000E+02  0.50000000000E+02  0.00000000000E+00 0. -1.
         23    2    1    2    0    0  0.00000000000E+00  0.00000000000E+00  0.00000000000E+00  0.10000000000E+03  0.10000000000E+03 0.  0.
          5    1    3    3  501    0 -0.24693856251E+02  0.41774912943E+02 -0.11089639853E+02  0.50000000000E+02  0.47000000000E+01 0. -1.
         -5    1    3    3    0  501  0.24693856251E+02 -0.41774912943E+02  0.11089639853E+02  0.50000000000E+02  0.47000000000E+01 0.  1.
</event>
<event>
 5    1  0.9023675E-001  0.1000000E+03  0.7546771E-02  0.1163815E+00
         11   -1    0    0    0    0  0.00000000000E+00  0.00000000000E+00  0.50000000000E+02  0.50000000000E+02  0.00000000000E+00 0.  1.
        -11   -1    0    0    0    0 -0.00000000000E+00 -0.00000000000E+00 -0.50000000000E+02  0.50000000000E+02  0.00000000000E+00 0. -1.
         23    2    1    2    0    0  0.00000000000E+00  0.00000000000E+00  0.00000000000E+00  0.10000000000E+03  0.10000000000E+03 0.  0.
          5    1    3    3  501    0  0.17782918255E+02 -0.36337448342E+02 -0.29004614569E+02  0.50000000000E+02  0.47000000000E+01 0. -1.
         -5    1    3    3    0  501 -0.17782918255E+02  0.36337448342E+02  0.29004614569E+02  0.50000000000E+02  0.47000000000E+01 0.  1.
</event>
<event>
 5    1  0.9023675E-001  0.1000000E+03  0.7546771E-02  0.1163815E+00
         11   -1    0    0    0    0  0.00000000000E+00  0.00000000000E+00  0.50000000000E+02  0.50000000000E+02  0.00000000000E+00 0. -1.
        -11   -1    0    0    0    0 -0.00000000000E+00 -0.00000000000E+00 -0.50000000000E+02  0.50000000000E+02  0.00000000000E+00 0.  1.
         23    2    1    2    0    0  0.00000000000E+00  0.00000000000E+00  0.00000000000E+00  0.10000000000E+03  0.10000000000E+03 0.  0.
          5    1    3    3  501    0 -0.10082947247E+01  0.64272529288E+00  0.49764246663E+02  0.50000000000E+02  0.47000000000E+01 0. -1.
         -5    1    3    3    0  501  0.10082947247E+01 -0.64272529288E+00 -0.49764246663E+02  0.50000000000E+02  0.47000000000E+01 0.  1.
</event>
<event>
 5    1  0.9023675E-001  0.1000000E+03  0.7546771E-02  0.1163815E+00
         11   -1    0    0    0    0  0.00000000000E+00  0.00000000000E+00  0.50000000000E+02  0.50000000000E+02  0.00000000000E+00 0. -1.
        -11   -1    0    0    0    0 -0.00000000000E+00 -0.00000000000E+00 -0.50000000000E+02  0.50000000000E+02  0.00000000000E+00 0.  1.
         23    2    1    2    0    0  0.00000000000E+00  0.00000000000E+00  0.00000000000E+00  0.10000000000E+03  0.10000000000E+03 0.  0.
          5    1    3    3  501    0  0.45615633770E+02  0.68888705515E+01  0.18699396202E+02  0.50000000000E+02  0.47000000000E+01 0. -1.
         -5    1    3    3    0  501 -0.45615633770E+02 -0.68888705515E+01 -0.18699396202E+02  0.50000000000E+02  0.47000000000E+01 0.  1.
</event>
<event>
 5    1  0.9023675E-001  0.1000000E+03  0.7546771E-02  0.1163815E+00
         11   -1    0    0    0    0  0.00000000000E+00  0.00000000000E+00  0.50000000000E+02  0.50000000000E+02  0.00000000000E+00 0. -1.
        -11   -1    0    0    0    0 -0.00000000000E+00 -0.00000000000E+00 -0.50000000000E+02  0.50000000000E+02  0.00000000000E+00 0.  1.
         23    2    1    2    0    0  0.00000000000E+00  0.00000000000E+00  0.00000000000E+00  0.10000000000E+03  0.10000000000E+03 0.  0.
          5    1    3    3  501    0  0.33169823624E+02  0.26967723623E+01  0.37018917050E+02  0.50000000000E+02  0.47000000000E+01 0. -1.
         -5    1    3    3    0  501 -0.33169823624E+02 -0.26967723623E+01 -0.37018917050E+02  0.50000000000E+02  0.47000000000E+01 0.  1.
</event>
<event>
 5    1  0.9023675E-001  0.1000000E+03  0.7546771E-02  0.1163815E+00
         11   -1    0    0    0    0  0.00000000000E+00  0.00000000000E+00  0.50000000000E+02  0.50000000000E+02  0.00000000000E+00 0. -1.
        -11   -1    0    0    0    0 -0.00000000000E+00 -0.00000000000E+00 -0.50000000000E+02  0.50000000000E+02  0.00000000000E+00 0.  1.
         23    2    1    2    0    0  0.00000000000E+00  0.00000000000E+00  0.00000000000E+00  0.10000000000E+03  0.10000000000E+03 0.  0.
          5    1    3    3  501    0  0.89809950257E+01 -0.15998130453E+00  0.48961476023E+02  0.50000000000E+02  0.47000000000E+01 0. -1.
         -5    1    3    3    0  501 -0.89809950257E+01  0.15998130453E+00 -0.48961476023E+02  0.50000000000E+02  0.47000000000E+01 0.  1.
</event>
<event>
 5    1  0.9023675E-001  0.1000000E+03  0.7546771E-02  0.1163815E+00
         11   -1    0    0    0    0  0.00000000000E+00  0.00000000000E+00  0.50000000000E+02  0.50000000000E+02  0.00000000000E+00 0. -1.
        -11   -1    0    0    0    0 -0.00000000000E+00 -0.00000000000E+00 -0.50000000000E+02  0.50000000000E+02  0.00000000000E+00 0.  1.
         23    2    1    2    0    0  0.00000000000E+00  0.00000000000E+00  0.00000000000E+00  0.10000000000E+03  0.10000000000E+03 0.  0.
          5    1    3    3  501    0  0.49449548327E+01 -0.23503549295E+02  0.43600924213E+02  0.50000000000E+02  0.47000000000E+01 0. -1.
         -5    1    3    3    0  501 -0.49449548327E+01  0.23503549295E+02 -0.43600924213E+02  0.50000000000E+02  0.47000000000E+01 0.  1.
</event>
<event>
 5    1  0.9023675E-001  0.1000000E+03  0.7546771E-02  0.1163815E+00
         11   -1    0    0    0    0  0.00000000000E+00  0.00000000000E+00  0.50000000000E+02  0.50000000000E+02  0.00000000000E+00 0. -1.
        -11   -1    0    0    0    0 -0.00000000000E+00 -0.00000000000E+00 -0.50000000000E+02  0.50000000000E+02  0.00000000000E+00 0.  1.
         23    2    1    2    0    0  0.00000000000E+00  0.00000000000E+00  0.00000000000E+00  0.10000000000E+03  0.10000000000E+03 0.  0.
          5    1    3    3  501    0  0.71474407846E+01 -0.82377713044E+01  0.48569159084E+02  0.50000000000E+02  0.47000000000E+01 0. -1.
         -5    1    3    3    0  501 -0.71474407846E+01  0.82377713044E+01 -0.48569159084E+02  0.50000000000E+02  0.47000000000E+01 0.  1.
</event>
<event>
 5    1  0.9023675E-001  0.1000000E+03  0.7546771E-02  0.1163815E+00
         11   -1    0    0    0    0  0.00000000000E+00  0.00000000000E+00  0.50000000000E+02  0.50000000000E+02  0.00000000000E+00 0.  1.
        -11   -1    0    0    0    0 -0.00000000000E+00 -0.00000000000E+00 -0.50000000000E+02  0.50000000000E+02  0.00000000000E+00 0. -1.
         23    2    1    2    0    0  0.00000000000E+00  0.00000000000E+00  0.00000000000E+00  0.10000000000E+03  0.10000000000E+03 0.  0.
          5    1    3    3  501    0  0.48359747305E+02 -0.21421246220E+00 -0.11798260619E+02  0.50000000000E+02  0.47000000000E+01 0. -1.
         -5    1    3    3    0  501 -0.48359747305E+02  0.21421246220E+00  0.11798260619E+02  0.50000000000E+02  0.47000000000E+01 0.  1.
</event>
<event>
 5    1  0.9023675E-001  0.1000000E+03  0.7546771E-02  0.1163815E+00
         11   -1    0    0    0    0  0.00000000000E+00  0.00000000000E+00  0.50000000000E+02  0.50000000000E+02  0.00000000000E+00 0. -1.
        -11   -1    0    0    0    0 -0.00000000000E+00 -0.00000000000E+00 -0.50000000000E+02  0.50000000000E+02  0.00000000000E+00 0.  1.
         23    2    1    2    0    0  0.00000000000E+00  0.00000000000E+00  0.00000000000E+00  0.10000000000E+03  0.10000000000E+03 0.  0.
          5    1    3    3  501    0  0.21077501386E+02  0.14240832600E+02  0.42788405231E+02  0.50000000000E+02  0.47000000000E+01 0. -1.
         -5    1    3    3    0  501 -0.21077501386E+02 -0.14240832600E+02 -0.42788405231E+02  0.50000000000E+02  0.47000000000E+01 0.  1.
</event>
<event>
 5    1  0.9023675E-001  0.1000000E+03  0.7546771E-02  0.1163815E+00
         11   -1    0    0    0    0  0.00000000000E+00  0.00000000000E+00  0.50000000000E+02  0.50000000000E+02  0.00000000000E+00 0.  1.
        -11   -1    0    0    0    0 -0.00000000000E+00 -0.00000000000E+00 -0.50000000000E+02  0.50000000000E+02  0.00000000000E+00 0. -1.
         23    2    1    2    0    0  0.00000000000E+00  0.00000000000E+00  0.00000000000E+00  0.10000000000E+03  0.10000000000E+03 0.  0.
          5    1    3    3  501    0  0.42902405176E+02 -0.19952169819E+01 -0.25165705620E+02  0.50000000000E+02  0.47000000000E+01 0. -1.
         -5    1    3    3    0  501 -0.42902405176E+02  0.19952169819E+01  0.25165705620E+02  0.50000000000E+02  0.47000000000E+01 0.  1.
</event>
<event>
 5    1  0.9023675E-001  0.1000000E+03  0.7546771E-02  0.1163815E+00
         11   -1    0    0    0    0  0.00000000000E+00  0.00000000000E+00  0.50000000000E+02  0.50000000000E+02  0.00000000000E+00 0.  1.
        -11   -1    0    0    0    0 -0.00000000000E+00 -0.00000000000E+00 -0.50000000000E+02  0.50000000000E+02  0.00000000000E+00 0. -1.
         23    2    1    2    0    0  0.00000000000E+00  0.00000000000E+00  0.00000000000E+00  0.10000000000E+03  0.10000000000E+03 0.  0.
          5    1    3    3  501    0 -0.28231753158E+02  0.33023631265E+02 -0.24296458419E+02  0.50000000000E+02  0.47000000000E+01 0. -1.
         -5    1    3    3    0  501  0.28231753158E+02 -0.33023631265E+02  0.24296458419E+02  0.50000000000E+02  0.47000000000E+01 0.  1.
</event>
<event>
 5    1  0.9023675E-001  0.1000000E+03  0.7546771E-02  0.1163815E+00
         11   -1    0    0    0    0  0.00000000000E+00  0.00000000000E+00  0.50000000000E+02  0.50000000000E+02  0.00000000000E+00 0. -1.
        -11   -1    0    0    0    0 -0.00000000000E+00 -0.00000000000E+00 -0.50000000000E+02  0.50000000000E+02  0.00000000000E+00 0.  1.
         23    2    1    2    0    0  0.00000000000E+00  0.00000000000E+00  0.00000000000E+00  0.10000000000E+03  0.10000000000E+03 0.  0.
          5    1    3    3  501    0  0.35725460899E+02 -0.13261365802E+02 -0.32027138814E+02  0.50000000000E+02  0.47000000000E+01 0. -1.
         -5    1    3    3    0  501 -0.35725460899E+02  0.13261365802E+02  0.32027138814E+02  0.50000000000E+02  0.47000000000E+01 0.  1.
</event>
<event>
 5    1  0.9023675E-001  0.1000000E+03  0.7546771E-02  0.1163815E+00
         11   -1    0    0    0    0  0.00000000000E+00  0.00000000000E+00  0.50000000000E+02  0.50000000000E+02  0.00000000000E+00 0. -1.
        -11   -1    0    0    0    0 -0.00000000000E+00 -0.00000000000E+00 -0.50000000000E+02  0.50000000000E+02  0.00000000000E+00 0.  1.
         23    2    1    2    0    0  0.00000000000E+00  0.00000000000E+00  0.00000000000E+00  0.10000000000E+03  0.10000000000E+03 0.  0.
          5    1    3    3  501    0  0.41336917636E+02  0.16330280787E+02  0.22416314813E+02  0.50000000000E+02  0.47000000000E+01 0. -1.
         -5    1    3    3    0  501 -0.41336917636E+02 -0.16330280787E+02 -0.22416314813E+02  0.50000000000E+02  0.47000000000E+01 0.  1.
</event>
<event>
 5    1  0.9023675E-001  0.1000000E+03  0.7546771E-02  0.1163815E+00
         11   -1    0    0    0    0  0.00000000000E+00  0.00000000000E+00  0.50000000000E+02  0.50000000000E+02  0.00000000000E+00 0. -1.
        -11   -1    0    0    0    0 -0.00000000000E+00 -0.00000000000E+00 -0.50000000000E+02  0.50000000000E+02  0.00000000000E+00 0.  1.
         23    2    1    2    0    0  0.00000000000E+00  0.00000000000E+00  0.00000000000E+00  0.10000000000E+03  0.10000000000E+03 0.  0.
          5    1    3    3  501    0 -0.12139086413E+02 -0.44034385356E+02  0.19787002990E+02  0.50000000000E+02  0.47000000000E+01 0. -1.
         -5    1    3    3    0  501  0.12139086413E+02  0.44034385356E+02 -0.19787002990E+02  0.50000000000E+02  0.47000000000E+01 0.  1.
</event>
<event>
 5    1  0.9023675E-001  0.1000000E+03  0.7546771E-02  0.1163815E+00
         11   -1    0    0    0    0  0.00000000000E+00  0.00000000000E+00  0.50000000000E+02  0.50000000000E+02  0.00000000000E+00 0.  1.
        -11   -1    0    0    0    0 -0.00000000000E+00 -0.00000000000E+00 -0.50000000000E+02  0.50000000000E+02  0.00000000000E+00 0. -1.
         23    2    1    2    0    0  0.00000000000E+00  0.00000000000E+00  0.00000000000E+00  0.10000000000E+03  0.10000000000E+03 0.  0.
          5    1    3    3  501    0 -0.71973635112E+01 -0.34182617565E+01 -0.49136783015E+02  0.50000000000E+02  0.47000000000E+01 0. -1.
         -5    1    3    3    0  501  0.71973635112E+01  0.34182617565E+01  0.49136783015E+02  0.50000000000E+02  0.47000000000E+01 0.  1.
</event>
<event>
 5    1  0.9023675E-001  0.1000000E+03  0.7546771E-02  0.1163815E+00
         11   -1    0    0    0    0  0.00000000000E+00  0.00000000000E+00  0.50000000000E+02  0.50000000000E+02  0.00000000000E+00 0. -1.
        -11   -1    0    0    0    0 -0.00000000000E+00 -0.00000000000E+00 -0.50000000000E+02  0.50000000000E+02  0.00000000000E+00 0.  1.
         23    2    1    2    0    0  0.00000000000E+00  0.00000000000E+00  0.00000000000E+00  0.10000000000E+03  0.10000000000E+03 0.  0.
          5    1    3    3  501    0  0.29622024645E-01  0.46294939100E+02  0.18294472833E+02  0.50000000000E+02  0.47000000000E+01 0. -1.
         -5    1    3    3    0  501 -0.29622024645E-01 -0.46294939100E+02 -0.18294472833E+02  0.50000000000E+02  0.47000000000E+01 0.  1.
</event>
<event>
 5    1  0.9023675E-001  0.1000000E+03  0.7546771E-02  0.1163815E+00
         11   -1    0    0    0    0  0.00000000000E+00  0.00000000000E+00  0.50000000000E+02  0.50000000000E+02  0.00000000000E+00 0.  1.
        -11   -1    0    0    0    0 -0.00000000000E+00 -0.00000000000E+00 -0.50000000000E+02  0.50000000000E+02  0.00000000000E+00 0. -1.
         23    2    1    2    0    0  0.00000000000E+00  0.00000000000E+00  0.00000000000E+00  0.10000000000E+03  0.10000000000E+03 0.  0.
          5    1    3    3  501    0 -0.19432679895E+02 -0.32036818048E+02 -0.32770768094E+02  0.50000000000E+02  0.47000000000E+01 0. -1.
         -5    1    3    3    0  501  0.19432679895E+02  0.32036818048E+02  0.32770768094E+02  0.50000000000E+02  0.47000000000E+01 0.  1.
</event>
<event>
 5    1  0.9023675E-001  0.1000000E+03  0.7546771E-02  0.1163815E+00
         11   -1    0    0    0    0  0.00000000000E+00  0.00000000000E+00  0.50000000000E+02  0.50000000000E+02  0.00000000000E+00 0. -1.
        -11   -1    0    0    0    0 -0.00000000000E+00 -0.00000000000E+00 -0.50000000000E+02  0.50000000000E+02  0.00000000000E+00 0.  1.
         23    2    1    2    0    0  0.00000000000E+00  0.00000000000E+00  0.00000000000E+00  0.10000000000E+03  0.10000000000E+03 0.  0.
          5    1    3    3  501    0  0.23409822202E+02 -0.51184185350E+01  0.43631319212E+02  0.50000000000E+02  0.47000000000E+01 0. -1.
         -5    1    3    3    0  501 -0.23409822202E+02  0.51184185350E+01 -0.43631319212E+02  0.50000000000E+02  0.47000000000E+01 0.  1.
</event>
<event>
 5    1  0.9023675E-001  0.1000000E+03  0.7546771E-02  0.1163815E+00
         11   -1    0    0    0    0  0.00000000000E+00  0.00000000000E+00  0.50000000000E+02  0.50000000000E+02  0.00000000000E+00 0.  1.
        -11   -1    0    0    0    0 -0.00000000000E+00 -0.00000000000E+00 -0.50000000000E+02  0.50000000000E+02  0.00000000000E+00 0. -1.
         23    2    1    2    0    0  0.00000000000E+00  0.00000000000E+00  0.00000000000E+00  0.10000000000E+03  0.10000000000E+03 0.  0.
          5    1    3    3  501    0 -0.48759222881E+02  0.10003463222E+02 -0.61555467865E+00  0.50000000000E+02  0.47000000000E+01 0. -1.
         -5    1    3    3    0  501  0.48759222881E+02 -0.10003463222E+02  0.61555467865E+00  0.50000000000E+02  0.47000000000E+01 0.  1.
</event>
<event>
 5    1  0.9023675E-001  0.1000000E+03  0.7546771E-02  0.1163815E+00
         11   -1    0    0    0    0  0.00000000000E+00  0.00000000000E+00  0.50000000000E+02  0.50000000000E+02  0.00000000000E+00 0. -1.
        -11   -1    0    0    0    0 -0.00000000000E+00 -0.00000000000E+00 -0.50000000000E+02  0.50000000000E+02  0.00000000000E+00 0.  1.
         23    2    1    2    0    0  0.00000000000E+00  0.00000000000E+00  0.00000000000E+00  0.10000000000E+03  0.10000000000E+03 0.  0.
          5    1    3    3  501    0 -0.31741354521E+02 -0.33454826351E+02  0.18739557279E+02  0.50000000000E+02  0.47000000000E+01 0. -1.
         -5    1    3    3    0  501  0.31741354521E+02  0.33454826351E+02 -0.18739557279E+02  0.50000000000E+02  0.47000000000E+01 0.  1.
</event>
<event>
 5    1  0.9023675E-001  0.1000000E+03  0.7546771E-02  0.1163815E+00
         11   -1    0    0    0    0  0.00000000000E+00  0.00000000000E+00  0.50000000000E+02  0.50000000000E+02  0.00000000000E+00 0. -1.
        -11   -1    0    0    0    0 -0.00000000000E+00 -0.00000000000E+00 -0.50000000000E+02  0.50000000000E+02  0.00000000000E+00 0.  1.
         23    2    1    2    0    0  0.00000000000E+00  0.00000000000E+00  0.00000000000E+00  0.10000000000E+03  0.10000000000E+03 0.  0.
          5    1    3    3  501    0 -0.72294949678E+01  0.22465920059E+02  0.43828379373E+02  0.50000000000E+02  0.47000000000E+01 0. -1.
         -5    1    3    3    0  501  0.72294949678E+01 -0.22465920059E+02 -0.43828379373E+02  0.50000000000E+02  0.47000000000E+01 0.  1.
</event>
<event>
 5    1  0.9023675E-001  0.1000000E+03  0.7546771E-02  0.1163815E+00
         11   -1    0    0    0    0  0.00000000000E+00  0.00000000000E+00  0.50000000000E+02  0.50000000000E+02  0.00000000000E+00 0.  1.
        -11   -1    0    0    0    0 -0.00000000000E+00 -0.00000000000E+00 -0.50000000000E+02  0.50000000000E+02  0.00000000000E+00 0. -1.
         23    2    1    2    0    0  0.00000000000E+00  0.00000000000E+00  0.00000000000E+00  0.10000000000E+03  0.10000000000E+03 0.  0.
          5    1    3    3  501    0  0.22250791454E+02 -0.31563280265E+02 -0.31409737639E+02  0.50000000000E+02  0.47000000000E+01 0. -1.
         -5    1    3    3    0  501 -0.22250791454E+02  0.31563280265E+02  0.31409737639E+02  0.50000000000E+02  0.47000000000E+01 0.  1.
</event>
<event>
 5    1  0.9023675E-001  0.1000000E+03  0.7546771E-02  0.1163815E+00
         11   -1    0    0    0    0  0.00000000000E+00  0.00000000000E+00  0.50000000000E+02  0.50000000000E+02  0.00000000000E+00 0. -1.
        -11   -1    0    0    0    0 -0.00000000000E+00 -0.00000000000E+00 -0.50000000000E+02  0.50000000000E+02  0.00000000000E+00 0.  1.
         23    2    1    2    0    0  0.00000000000E+00  0.00000000000E+00  0.00000000000E+00  0.10000000000E+03  0.10000000000E+03 0.  0.
          5    1    3    3  501    0  0.31870645155E+02  0.10813026191E+02  0.36677655895E+02  0.50000000000E+02  0.47000000000E+01 0. -1.
         -5    1    3    3    0  501 -0.31870645155E+02 -0.10813026191E+02 -0.36677655895E+02  0.50000000000E+02  0.47000000000E+01 0.  1.
</event>
<event>
 5    1  0.9023675E-001  0.1000000E+03  0.7546771E-02  0.1163815E+00
         11   -1    0    0    0    0  0.00000000000E+00  0.00000000000E+00  0.50000000000E+02  0.50000000000E+02  0.00000000000E+00 0. -1.
        -11   -1    0    0    0    0 -0.00000000000E+00 -0.00000000000E+00 -0.50000000000E+02  0.50000000000E+02  0.00000000000E+00 0.  1.
         23    2    1    2    0    0  0.00000000000E+00  0.00000000000E+00  0.00000000000E+00  0.10000000000E+03  0.10000000000E+03 0.  0.
          5    1    3    3  501    0  0.41112741453E+02 -0.13593533890E+02  0.24553377092E+02  0.50000000000E+02  0.47000000000E+01 0. -1.
         -5    1    3    3    0  501 -0.41112741453E+02  0.13593533890E+02 -0.24553377092E+02  0.50000000000E+02  0.47000000000E+01 0.  1.
</event>
<event>
 5    1  0.9023675E-001  0.1000000E+03  0.7546771E-02  0.1163815E+00
         11   -1    0    0    0    0  0.00000000000E+00  0.00000000000E+00  0.50000000000E+02  0.50000000000E+02  0.00000000000E+00 0.  1.
        -11   -1    0    0    0    0 -0.00000000000E+00 -0.00000000000E+00 -0.50000000000E+02  0.50000000000E+02  0.00000000000E+00 0. -1.
         23    2    1    2    0    0  0.00000000000E+00  0.00000000000E+00  0.00000000000E+00  0.10000000000E+03  0.10000000000E+03 0.  0.
          5    1    3    3  501    0  0.10989877075E+02  0.11174359587E+02 -0.47246865395E+02  0.50000000000E+02  0.47000000000E+01 0. -1.
         -5    1    3    3    0  501 -0.10989877075E+02 -0.11174359587E+02  0.47246865395E+02  0.50000000000E+02  0.47000000000E+01 0.  1.
</event>
<event>
 5    1  0.9023675E-001  0.1000000E+03  0.7546771E-02  0.1163815E+00
         11   -1    0    0    0    0  0.00000000000E+00  0.00000000000E+00  0.50000000000E+02  0.50000000000E+02  0.00000000000E+00 0. -1.
        -11   -1    0    0    0    0 -0.00000000000E+00 -0.00000000000E+00 -0.50000000000E+02  0.50000000000E+02  0.00000000000E+00 0.  1.
         23    2    1    2    0    0  0.00000000000E+00  0.00000000000E+00  0.00000000000E+00  0.10000000000E+03  0.10000000000E+03 0.  0.
          5    1    3    3  501    0 -0.17505020451E+01  0.22457470116E+02  0.44390401875E+02  0.50000000000E+02  0.47000000000E+01 0. -1.
         -5    1    3    3    0  501  0.17505020451E+01 -0.22457470116E+02 -0.44390401875E+02  0.50000000000E+02  0.47000000000E+01 0.  1.
</event>
<event>
 5    1  0.9023675E-001  0.1000000E+03  0.7546771E-02  0.1163815E+00
         11   -1    0    0    0    0  0.00000000000E+00  0.00000000000E+00  0.50000000000E+02  0.50000000000E+02  0.00000000000E+00 0.  1.
        -11   -1    0    0    0    0 -0.00000000000E+00 -0.00000000000E+00 -0.50000000000E+02  0.50000000000E+02  0.00000000000E+00 0. -1.
         23    2    1    2    0    0  0.00000000000E+00  0.00000000000E+00  0.00000000000E+00  0.10000000000E+03  0.10000000000E+03 0.  0.
          5    1    3    3  501    0  0.68861002005E+01  0.45223375066E+02 -0.19630027296E+02  0.50000000000E+02  0.47000000000E+01 0. -1.
         -5    1    3    3    0  501 -0.68861002005E+01 -0.45223375066E+02  0.19630027296E+02  0.50000000000E+02  0.47000000000E+01 0.  1.
</event>
<event>
 5    1  0.9023675E-001  0.1000000E+03  0.7546771E-02  0.1163815E+00
         11   -1    0    0    0    0  0.00000000000E+00  0.00000000000E+00  0.50000000000E+02  0.50000000000E+02  0.00000000000E+00 0. -1.
        -11   -1    0    0    0    0 -0.00000000000E+00 -0.00000000000E+00 -0.50000000000E+02  0.50000000000E+02  0.00000000000E+00 0.  1.
         23    2    1    2    0    0  0.00000000000E+00  0.00000000000E+00  0.00000000000E+00  0.10000000000E+03  0.10000000000E+03 0.  0.
          5    1    3    3  501    0 -0.37090724066E+02  0.31410189641E+02  0.10751194118E+02  0.50000000000E+02  0.47000000000E+01 0. -1.
         -5    1    3    3    0  501  0.37090724066E+02 -0.31410189641E+02 -0.10751194118E+02  0.50000000000E+02  0.47000000000E+01 0.  1.
</event>
<event>
 5    1  0.9023675E-001  0.1000000E+03  0.7546771E-02  0.1163815E+00
         11   -1    0    0    0    0  0.00000000000E+00  0.00000000000E+00  0.50000000000E+02  0.50000000000E+02  0.00000000000E+00 0. -1.
        -11   -1    0    0    0    0 -0.00000000000E+00 -0.00000000000E+00 -0.50000000000E+02  0.50000000000E+02  0.00000000000E+00 0.  1.
         23    2    1    2    0    0  0.00000000000E+00  0.00000000000E+00  0.00000000000E+00  0.10000000000E+03  0.10000000000E+03 0.  0.
          5    1    3    3  501    0  0.27492162016E+02 -0.72450025338E+01  0.40860750923E+02  0.50000000000E+02  0.47000000000E+01 0. -1.
         -5    1    3    3    0  501 -0.27492162016E+02  0.72450025338E+01 -0.40860750923E+02  0.50000000000E+02  0.47000000000E+01 0.  1.
</event>
<event>
 5    1  0.9023675E-001  0.1000000E+03  0.7546771E-02  0.1163815E+00
         11   -1    0    0    0    0  0.00000000000E+00  0.00000000000E+00  0.50000000000E+02  0.50000000000E+02  0.00000000000E+00 0. -1.
        -11   -1    0    0    0    0 -0.00000000000E+00 -0.00000000000E+00 -0.50000000000E+02  0.50000000000E+02  0.00000000000E+00 0.  1.
         23    2    1    2    0    0  0.00000000000E+00  0.00000000000E+00  0.00000000000E+00  0.10000000000E+03  0.10000000000E+03 0.  0.
          5    1    3    3  501    0 -0.16491723691E+02 -0.20778671389E+01  0.46921375916E+02  0.50000000000E+02  0.47000000000E+01 0. -1.
         -5    1    3    3    0  501  0.16491723691E+02  0.20778671389E+01 -0.46921375916E+02  0.50000000000E+02  0.47000000000E+01 0.  1.
</event>
<event>
 5    1  0.9023675E-001  0.1000000E+03  0.7546771E-02  0.1163815E+00
         11   -1    0    0    0    0  0.00000000000E+00  0.00000000000E+00  0.50000000000E+02  0.50000000000E+02  0.00000000000E+00 0.  1.
        -11   -1    0    0    0    0 -0.00000000000E+00 -0.00000000000E+00 -0.50000000000E+02  0.50000000000E+02  0.00000000000E+00 0. -1.
         23    2    1    2    0    0  0.00000000000E+00  0.00000000000E+00  0.00000000000E+00  0.10000000000E+03  0.10000000000E+03 0.  0.
          5    1    3    3  501    0 -0.14810342644E+02  0.38924768615E+02 -0.27265841982E+02  0.50000000000E+02  0.47000000000E+01 0. -1.
         -5    1    3    3    0  501  0.14810342644E+02 -0.38924768615E+02  0.27265841982E+02  0.50000000000E+02  0.47000000000E+01 0.  1.
</event>
<event>
 5    1  0.9023675E-001  0.1000000E+03  0.7546771E-02  0.1163815E+00
         11   -1    0    0    0    0  0.00000000000E+00  0.00000000000E+00  0.50000000000E+02  0.50000000000E+02  0.00000000000E+00 0.  1.
        -11   -1    0    0    0    0 -0.00000000000E+00 -0.00000000000E+00 -0.50000000000E+02  0.50000000000E+02  0.00000000000E+00 0. -1.
         23    2    1    2    0    0  0.00000000000E+00  0.00000000000E+00  0.00000000000E+00  0.10000000000E+03  0.10000000000E+03 0.  0.
          5    1    3    3  501    0  0.49345388944E+02  0.40267587902E+01  0.51698939680E+01  0.50000000000E+02  0.47000000000E+01 0. -1.
         -5    1    3    3    0  501 -0.49345388944E+02 -0.40267587902E+01 -0.51698939680E+01  0.50000000000E+02  0.47000000000E+01 0.  1.
</event>
<event>
 5    1  0.9023675E-001  0.1000000E+03  0.7546771E-02  0.1163815E+00
         11   -1    0    0    0    0  0.00000000000E+00  0.00000000000E+00  0.50000000000E+02  0.50000000000E+02  0.00000000000E+00 0. -1.
        -11   -1    0    0    0    0 -0.00000000000E+00 -0.00000000000E+00 -0.50000000000E+02  0.50000000000E+02  0.00000000000E+00 0.  1.
         23    2    1    2    0    0  0.00000000000E+00  0.00000000000E+00  0.00000000000E+00  0.10000000000E+03  0.10000000000E+03 0.  0.
          5    1    3    3  501    0 -0.37679572633E+02  0.13487535415E+02  0.29601455955E+02  0.50000000000E+02  0.47000000000E+01 0. -1.
         -5    1    3    3    0  501  0.37679572633E+02 -0.13487535415E+02 -0.29601455955E+02  0.50000000000E+02  0.47000000000E+01 0.  1.
</event>
<event>
 5    1  0.9023675E-001  0.1000000E+03  0.7546771E-02  0.1163815E+00
         11   -1    0    0    0    0  0.00000000000E+00  0.00000000000E+00  0.50000000000E+02  0.50000000000E+02  0.00000000000E+00 0.  1.
        -11   -1    0    0    0    0 -0.00000000000E+00 -0.00000000000E+00 -0.50000000000E+02  0.50000000000E+02  0.00000000000E+00 0. -1.
         23    2    1    2    0    0  0.00000000000E+00  0.00000000000E+00  0.00000000000E+00  0.10000000000E+03  0.10000000000E+03 0.  0.
          5    1    3    3  501    0  0.10192423033E+02  0.37426331346E+02 -0.31197663931E+02  0.50000000000E+02  0.47000000000E+01 0. -1.
         -5    1    3    3    0  501 -0.10192423033E+02 -0.37426331346E+02  0.31197663931E+02  0.50000000000E+02  0.47000000000E+01 0.  1.
</event>
<event>
 5    1  0.9023675E-001  0.1000000E+03  0.7546771E-02  0.1163815E+00
         11   -1    0    0    0    0  0.00000000000E+00  0.00000000000E+00  0.50000000000E+02  0.50000000000E+02  0.00000000000E+00 0. -1.
        -11   -1    0    0    0    0 -0.00000000000E+00 -0.00000000000E+00 -0.50000000000E+02  0.50000000000E+02  0.00000000000E+00 0.  1.
         23    2    1    2    0    0  0.00000000000E+00  0.00000000000E+00  0.00000000000E+00  0.10000000000E+03  0.10000000000E+03 0.  0.
          5    1    3    3  501    0 -0.28690546137E+02  0.20567502995E+02  0.35096159091E+02  0.50000000000E+02  0.47000000000E+01 0. -1.
         -5    1    3    3    0  501  0.28690546137E+02 -0.20567502995E+02 -0.35096159091E+02  0.50000000000E+02  0.47000000000E+01 0.  1.
</event>
<event>
 5    1  0.9023675E-001  0.1000000E+03  0.7546771E-02  0.1163815E+00
         11   -1    0    0    0    0  0.00000000000E+00  0.00000000000E+00  0.50000000000E+02  0.50000000000E+02  0.00000000000E+00 0. -1.
        -11   -1    0    0    0    0 -0.00000000000E+00 -0.00000000000E+00 -0.50000000000E+02  0.50000000000E+02  0.00000000000E+00 0.  1.
         23    2    1    2    0    0  0.00000000000E+00  0.00000000000E+00  0.00000000000E+00  0.10000000000E+03  0.10000000000E+03 0.  0.
          5    1    3    3  501    0 -0.19146633200E+02 -0.26404122315E+02  0.37605036389E+02  0.50000000000E+02  0.47000000000E+01 0. -1.
         -5    1    3    3    0  501  0.19146633200E+02  0.26404122315E+02 -0.37605036389E+02  0.50000000000E+02  0.47000000000E+01 0.  1.
</event>
<event>
 5    1  0.9023675E-001  0.1000000E+03  0.7546771E-02  0.1163815E+00
         11   -1    0    0    0    0  0.00000000000E+00  0.00000000000E+00  0.50000000000E+02  0.50000000000E+02  0.00000000000E+00 0.  1.
        -11   -1    0    0    0    0 -0.00000000000E+00 -0.00000000000E+00 -0.50000000000E+02  0.50000000000E+02  0.00000000000E+00 0. -1.
         23    2    1    2    0    0  0.00000000000E+00  0.00000000000E+00  0.00000000000E+00  0.10000000000E+03  0.10000000000E+03 0.  0.
          5    1    3    3  501    0  0.27854749647E+02  0.30196788353E+02 -0.28110085294E+02  0.50000000000E+02  0.47000000000E+01 0. -1.
         -5    1    3    3    0  501 -0.27854749647E+02 -0.30196788353E+02  0.28110085294E+02  0.50000000000E+02  0.47000000000E+01 0.  1.
</event>
<event>
 5    1  0.9023675E-001  0.1000000E+03  0.7546771E-02  0.1163815E+00
         11   -1    0    0    0    0  0.00000000000E+00  0.00000000000E+00  0.50000000000E+02  0.50000000000E+02  0.00000000000E+00 0. -1.
        -11   -1    0    0    0    0 -0.00000000000E+00 -0.00000000000E+00 -0.50000000000E+02  0.50000000000E+02  0.00000000000E+00 0.  1.
         23    2    1    2    0    0  0.00000000000E+00  0.00000000000E+00  0.00000000000E+00  0.10000000000E+03  0.10000000000E+03 0.  0.
          5    1    3    3  501    0  0.36691618482E+02 -0.17566540731E+02  0.28688879028E+02  0.50000000000E+02  0.47000000000E+01 0. -1.
         -5    1    3    3    0  501 -0.36691618482E+02  0.17566540731E+02 -0.28688879028E+02  0.50000000000E+02  0.47000000000E+01 0.  1.
</event>
<event>
 5    1  0.9023675E-001  0.1000000E+03  0.7546771E-02  0.1163815E+00
         11   -1    0    0    0    0  0.00000000000E+00  0.00000000000E+00  0.50000000000E+02  0.50000000000E+02  0.00000000000E+00 0. -1.
        -11   -1    0    0    0    0 -0.00000000000E+00 -0.00000000000E+00 -0.50000000000E+02  0.50000000000E+02  0.00000000000E+00 0.  1.
         23    2    1    2    0    0  0.00000000000E+00  0.00000000000E+00  0.00000000000E+00  0.10000000000E+03  0.10000000000E+03 0.  0.
          5    1    3    3  501    0 -0.42797520618E+02 -0.24811787406E+02 -0.55369156328E+01  0.50000000000E+02  0.47000000000E+01 0. -1.
         -5    1    3    3    0  501  0.42797520618E+02  0.24811787406E+02  0.55369156328E+01  0.50000000000E+02  0.47000000000E+01 0.  1.
</event>
<event>
 5    1  0.9023675E-001  0.1000000E+03  0.7546771E-02  0.1163815E+00
         11   -1    0    0    0    0  0.00000000000E+00  0.00000000000E+00  0.50000000000E+02  0.50000000000E+02  0.00000000000E+00 0. -1.
        -11   -1    0    0    0    0 -0.00000000000E+00 -0.00000000000E+00 -0.50000000000E+02  0.50000000000E+02  0.00000000000E+00 0.  1.
         23    2    1    2    0    0  0.00000000000E+00  0.00000000000E+00  0.00000000000E+00  0.10000000000E+03  0.10000000000E+03 0.  0.
          5    1    3    3  501    0 -0.88934908533E+01 -0.32890754005E+02  0.36290689183E+02  0.50000000000E+02  0.47000000000E+01 0. -1.
         -5    1    3    3    0  501  0.88934908533E+01  0.32890754005E+02 -0.36290689183E+02  0.50000000000E+02  0.47000000000E+01 0.  1.
</event>
<event>
 5    1  0.9023675E-001  0.1000000E+03  0.7546771E-02  0.1163815E+00
         11   -1    0    0    0    0  0.00000000000E+00  0.00000000000E+00  0.50000000000E+02  0.50000000000E+02  0.00000000000E+00 0.  1.
        -11   -1    0    0    0    0 -0.00000000000E+00 -0.00000000000E+00 -0.50000000000E+02  0.50000000000E+02  0.00000000000E+00 0. -1.
         23    2    1    2    0    0  0.00000000000E+00  0.00000000000E+00  0.00000000000E+00  0.10000000000E+03  0.10000000000E+03 0.  0.
          5    1    3    3  501    0 -0.11175704998E+02 -0.19157820437E+02 -0.44564464923E+02  0.50000000000E+02  0.47000000000E+01 0. -1.
         -5    1    3    3    0  501  0.11175704998E+02  0.19157820437E+02  0.44564464923E+02  0.50000000000E+02  0.47000000000E+01 0.  1.
</event>
<event>
 5    1  0.9023675E-001  0.1000000E+03  0.7546771E-02  0.1163815E+00
         11   -1    0    0    0    0  0.00000000000E+00  0.00000000000E+00  0.50000000000E+02  0.50000000000E+02  0.00000000000E+00 0.  1.
        -11   -1    0    0    0    0 -0.00000000000E+00 -0.00000000000E+00 -0.50000000000E+02  0.50000000000E+02  0.00000000000E+00 0. -1.
         23    2    1    2    0    0  0.00000000000E+00  0.00000000000E+00  0.00000000000E+00  0.10000000000E+03  0.10000000000E+03 0.  0.
          5    1    3    3  501    0  0.32253187346E+02 -0.34093883091E+02 -0.16590631143E+02  0.50000000000E+02  0.47000000000E+01 0. -1.
         -5    1    3    3    0  501 -0.32253187346E+02  0.34093883091E+02  0.16590631143E+02  0.50000000000E+02  0.47000000000E+01 0.  1.
</event>
<event>
 5    1  0.9023675E-001  0.1000000E+03  0.7546771E-02  0.1163815E+00
         11   -1    0    0    0    0  0.00000000000E+00  0.00000000000E+00  0.50000000000E+02  0.50000000000E+02  0.00000000000E+00 0. -1.
        -11   -1    0    0    0    0 -0.00000000000E+00 -0.00000000000E+00 -0.50000000000E+02  0.50000000000E+02  0.00000000000E+00 0.  1.
         23    2    1    2    0    0  0.00000000000E+00  0.00000000000E+00  0.00000000000E+00  0.10000000000E+03  0.10000000000E+03 0.  0.
          5    1    3    3  501    0 -0.65121325055E+01 -0.45919642130E+02 -0.18080060754E+02  0.50000000000E+02  0.47000000000E+01 0. -1.
         -5    1    3    3    0  501  0.65121325055E+01  0.45919642130E+02  0.18080060754E+02  0.50000000000E+02  0.47000000000E+01 0.  1.
</event>
<event>
 5    1  0.9023675E-001  0.1000000E+03  0.7546771E-02  0.1163815E+00
         11   -1    0    0    0    0  0.00000000000E+00  0.00000000000E+00  0.50000000000E+02  0.50000000000E+02  0.00000000000E+00 0. -1.
        -11   -1    0    0    0    0 -0.00000000000E+00 -0.00000000000E+00 -0.50000000000E+02  0.50000000000E+02  0.00000000000E+00 0.  1.
         23    2    1    2    0    0  0.00000000000E+00  0.00000000000E+00  0.00000000000E+00  0.10000000000E+03  0.10000000000E+03 0.  0.
          5    1    3    3  501    0  0.37446579379E+02 -0.27621278773E+02  0.17684135595E+02  0.50000000000E+02  0.47000000000E+01 0. -1.
         -5    1    3    3    0  501 -0.37446579379E+02  0.27621278773E+02 -0.17684135595E+02  0.50000000000E+02  0.47000000000E+01 0.  1.
</event>
<event>
 5    1  0.9023675E-001  0.1000000E+03  0.7546771E-02  0.1163815E+00
         11   -1    0    0    0    0  0.00000000000E+00  0.00000000000E+00  0.50000000000E+02  0.50000000000E+02  0.00000000000E+00 0. -1.
        -11   -1    0    0    0    0 -0.00000000000E+00 -0.00000000000E+00 -0.50000000000E+02  0.50000000000E+02  0.00000000000E+00 0.  1.
         23    2    1    2    0    0  0.00000000000E+00  0.00000000000E+00  0.00000000000E+00  0.10000000000E+03  0.10000000000E+03 0.  0.
          5    1    3    3  501    0 -0.33969771361E+02 -0.12262367868E+02  0.34257830754E+02  0.50000000000E+02  0.47000000000E+01 0. -1.
         -5    1    3    3    0  501  0.33969771361E+02  0.12262367868E+02 -0.34257830754E+02  0.50000000000E+02  0.47000000000E+01 0.  1.
</event>
<event>
 5    1  0.9023675E-001  0.1000000E+03  0.7546771E-02  0.1163815E+00
         11   -1    0    0    0    0  0.00000000000E+00  0.00000000000E+00  0.50000000000E+02  0.50000000000E+02  0.00000000000E+00 0.  1.
        -11   -1    0    0    0    0 -0.00000000000E+00 -0.00000000000E+00 -0.50000000000E+02  0.50000000000E+02  0.00000000000E+00 0. -1.
         23    2    1    2    0    0  0.00000000000E+00  0.00000000000E+00  0.00000000000E+00  0.10000000000E+03  0.10000000000E+03 0.  0.
          5    1    3    3  501    0  0.19156731898E+01  0.45327086052E+02 -0.20486470321E+02  0.50000000000E+02  0.47000000000E+01 0. -1.
         -5    1    3    3    0  501 -0.19156731898E+01 -0.45327086052E+02  0.20486470321E+02  0.50000000000E+02  0.47000000000E+01 0.  1.
</event>
<event>
 5    1  0.9023675E-001  0.1000000E+03  0.7546771E-02  0.1163815E+00
         11   -1    0    0    0    0  0.00000000000E+00  0.00000000000E+00  0.50000000000E+02  0.50000000000E+02  0.00000000000E+00 0. -1.
        -11   -1    0    0    0    0 -0.00000000000E+00 -0.00000000000E+00 -0.50000000000E+02  0.50000000000E+02  0.00000000000E+00 0.  1.
         23    2    1    2    0    0  0.00000000000E+00  0.00000000000E+00  0.00000000000E+00  0.10000000000E+03  0.10000000000E+03 0.  0.
          5    1    3    3  501    0  0.46626589923E+02 -0.14891271443E+02  0.90620718904E+01  0.50000000000E+02  0.47000000000E+01 0. -1.
         -5    1    3    3    0  501 -0.46626589923E+02  0.14891271443E+02 -0.90620718904E+01  0.50000000000E+02  0.47000000000E+01 0.  1.
</event>
<event>
 5    1  0.9023675E-001  0.1000000E+03  0.7546771E-02  0.1163815E+00
         11   -1    0    0    0    0  0.00000000000E+00  0.00000000000E+00  0.50000000000E+02  0.50000000000E+02  0.00000000000E+00 0. -1.
        -11   -1    0    0    0    0 -0.00000000000E+00 -0.00000000000E+00 -0.50000000000E+02  0.50000000000E+02  0.00000000000E+00 0.  1.
         23    2    1    2    0    0  0.00000000000E+00  0.00000000000E+00  0.00000000000E+00  0.10000000000E+03  0.10000000000E+03 0.  0.
          5    1    3    3  501    0 -0.22524020166E+02 -0.41690763535E+02  0.15246598027E+02  0.50000000000E+02  0.47000000000E+01 0. -1.
         -5    1    3    3    0  501  0.22524020166E+02  0.41690763535E+02 -0.15246598027E+02  0.50000000000E+02  0.47000000000E+01 0.  1.
</event>
<event>
 5    1  0.9023675E-001  0.1000000E+03  0.7546771E-02  0.1163815E+00
         11   -1    0    0    0    0  0.00000000000E+00  0.00000000000E+00  0.50000000000E+02  0.50000000000E+02  0.00000000000E+00 0. -1.
        -11   -1    0    0    0    0 -0.00000000000E+00 -0.00000000000E+00 -0.50000000000E+02  0.50000000000E+02  0.00000000000E+00 0.  1.
         23    2    1    2    0    0  0.00000000000E+00  0.00000000000E+00  0.00000000000E+00  0.10000000000E+03  0.10000000000E+03 0.  0.
          5    1    3    3  501    0  0.10431007121E+02  0.44633840439E+02  0.19414540380E+02  0.50000000000E+02  0.47000000000E+01 0. -1.
         -5    1    3    3    0  501 -0.10431007121E+02 -0.44633840439E+02 -0.19414540380E+02  0.50000000000E+02  0.47000000000E+01 0.  1.
</event>
<event>
 5    1  0.9023675E-001  0.1000000E+03  0.7546771E-02  0.1163815E+00
         11   -1    0    0    0    0  0.00000000000E+00  0.00000000000E+00  0.50000000000E+02  0.50000000000E+02  0.00000000000E+00 0. -1.
        -11   -1    0    0    0    0 -0.00000000000E+00 -0.00000000000E+00 -0.50000000000E+02  0.50000000000E+02  0.00000000000E+00 0.  1.
         23    2    1    2    0    0  0.00000000000E+00  0.00000000000E+00  0.00000000000E+00  0.10000000000E+03  0.10000000000E+03 0.  0.
          5    1    3    3  501    0  0.17194052085E+02 -0.41655682400E+02  0.21144235542E+02  0.50000000000E+02  0.47000000000E+01 0. -1.
         -5    1    3    3    0  501 -0.17194052085E+02  0.41655682400E+02 -0.21144235542E+02  0.50000000000E+02  0.47000000000E+01 0.  1.
</event>
<event>
 5    1  0.9023675E-001  0.1000000E+03  0.7546771E-02  0.1163815E+00
         11   -1    0    0    0    0  0.00000000000E+00  0.00000000000E+00  0.50000000000E+02  0.50000000000E+02  0.00000000000E+00 0. -1.
        -11   -1    0    0    0    0 -0.00000000000E+00 -0.00000000000E+00 -0.50000000000E+02  0.50000000000E+02  0.00000000000E+00 0.  1.
         23    2    1    2    0    0  0.00000000000E+00  0.00000000000E+00  0.00000000000E+00  0.10000000000E+03  0.10000000000E+03 0.  0.
          5    1    3    3  501    0 -0.18874410898E+02  0.71851821201E-01  0.46061496399E+02  0.50000000000E+02  0.47000000000E+01 0. -1.
         -5    1    3    3    0  501  0.18874410898E+02 -0.71851821201E-01 -0.46061496399E+02  0.50000000000E+02  0.47000000000E+01 0.  1.
</event>
<event>
 5    1  0.9023675E-001  0.1000000E+03  0.7546771E-02  0.1163815E+00
         11   -1    0    0    0    0  0.00000000000E+00  0.00000000000E+00  0.50000000000E+02  0.50000000000E+02  0.00000000000E+00 0. -1.
        -11   -1    0    0    0    0 -0.00000000000E+00 -0.00000000000E+00 -0.50000000000E+02  0.50000000000E+02  0.00000000000E+00 0.  1.
         23    2    1    2    0    0  0.00000000000E+00  0.00000000000E+00  0.00000000000E+00  0.10000000000E+03  0.10000000000E+03 0.  0.
          5    1    3    3  501    0  0.38861225881E+02 -0.18796575806E+02  0.24787171299E+02  0.50000000000E+02  0.47000000000E+01 0. -1.
         -5    1    3    3    0  501 -0.38861225881E+02  0.18796575806E+02 -0.24787171299E+02  0.50000000000E+02  0.47000000000E+01 0.  1.
</event>
<event>
 5    1  0.9023675E-001  0.1000000E+03  0.7546771E-02  0.1163815E+00
         11   -1    0    0    0    0  0.00000000000E+00  0.00000000000E+00  0.50000000000E+02  0.50000000000E+02  0.00000000000E+00 0. -1.
        -11   -1    0    0    0    0 -0.00000000000E+00 -0.00000000000E+00 -0.50000000000E+02  0.50000000000E+02  0.00000000000E+00 0.  1.
         23    2    1    2    0    0  0.00000000000E+00  0.00000000000E+00  0.00000000000E+00  0.10000000000E+03  0.10000000000E+03 0.  0.
          5    1    3    3  501    0  0.42863109583E+01 -0.24314014755E+02  0.43224602079E+02  0.50000000000E+02  0.47000000000E+01 0. -1.
         -5    1    3    3    0  501 -0.42863109583E+01  0.24314014755E+02 -0.43224602079E+02  0.50000000000E+02  0.47000000000E+01 0.  1.
</event>
<event>
 5    1  0.9023675E-001  0.1000000E+03  0.7546771E-02  0.1163815E+00
         11   -1    0    0    0    0  0.00000000000E+00  0.00000000000E+00  0.50000000000E+02  0.50000000000E+02  0.00000000000E+00 0. -1.
        -11   -1    0    0    0    0 -0.00000000000E+00 -0.00000000000E+00 -0.50000000000E+02  0.50000000000E+02  0.00000000000E+00 0.  1.
         23    2    1    2    0    0  0.00000000000E+00  0.00000000000E+00  0.00000000000E+00  0.10000000000E+03  0.10000000000E+03 0.  0.
          5    1    3    3  501    0  0.15357259103E+02  0.34448260570E+02  0.32486642432E+02  0.50000000000E+02  0.47000000000E+01 0. -1.
         -5    1    3    3    0  501 -0.15357259103E+02 -0.34448260570E+02 -0.32486642432E+02  0.50000000000E+02  0.47000000000E+01 0.  1.
</event>
<event>
 5    1  0.9023675E-001  0.1000000E+03  0.7546771E-02  0.1163815E+00
         11   -1    0    0    0    0  0.00000000000E+00  0.00000000000E+00  0.50000000000E+02  0.50000000000E+02  0.00000000000E+00 0. -1.
        -11   -1    0    0    0    0 -0.00000000000E+00 -0.00000000000E+00 -0.50000000000E+02  0.50000000000E+02  0.00000000000E+00 0.  1.
         23    2    1    2    0    0  0.00000000000E+00  0.00000000000E+00  0.00000000000E+00  0.10000000000E+03  0.10000000000E+03 0.  0.
          5    1    3    3  501    0  0.31053426543E+02  0.30405257668E+02  0.24271691456E+02  0.50000000000E+02  0.47000000000E+01 0. -1.
         -5    1    3    3    0  501 -0.31053426543E+02 -0.30405257668E+02 -0.24271691456E+02  0.50000000000E+02  0.47000000000E+01 0.  1.
</event>
<event>
 5    1  0.9023675E-001  0.1000000E+03  0.7546771E-02  0.1163815E+00
         11   -1    0    0    0    0  0.00000000000E+00  0.00000000000E+00  0.50000000000E+02  0.50000000000E+02  0.00000000000E+00 0.  1.
        -11   -1    0    0    0    0 -0.00000000000E+00 -0.00000000000E+00 -0.50000000000E+02  0.50000000000E+02  0.00000000000E+00 0. -1.
         23    2    1    2    0    0  0.00000000000E+00  0.00000000000E+00  0.00000000000E+00  0.10000000000E+03  0.10000000000E+03 0.  0.
          5    1    3    3  501    0  0.32099959059E+02  0.29249385334E+02 -0.24330558686E+02  0.50000000000E+02  0.47000000000E+01 0. -1.
         -5    1    3    3    0  501 -0.32099959059E+02 -0.29249385334E+02  0.24330558686E+02  0.50000000000E+02  0.47000000000E+01 0.  1.
</event>
<event>
 5    1  0.9023675E-001  0.1000000E+03  0.7546771E-02  0.1163815E+00
         11   -1    0    0    0    0  0.00000000000E+00  0.00000000000E+00  0.50000000000E+02  0.50000000000E+02  0.00000000000E+00 0. -1.
        -11   -1    0    0    0    0 -0.00000000000E+00 -0.00000000000E+00 -0.50000000000E+02  0.50000000000E+02  0.00000000000E+00 0.  1.
         23    2    1    2    0    0  0.00000000000E+00  0.00000000000E+00  0.00000000000E+00  0.10000000000E+03  0.10000000000E+03 0.  0.
          5    1    3    3  501    0  0.35729625464E+02 -0.27403627535E+02  0.21221335069E+02  0.50000000000E+02  0.47000000000E+01 0. -1.
         -5    1    3    3    0  501 -0.35729625464E+02  0.27403627535E+02 -0.21221335069E+02  0.50000000000E+02  0.47000000000E+01 0.  1.
</event>
<event>
 5    1  0.9023675E-001  0.1000000E+03  0.7546771E-02  0.1163815E+00
         11   -1    0    0    0    0  0.00000000000E+00  0.00000000000E+00  0.50000000000E+02  0.50000000000E+02  0.00000000000E+00 0.  1.
        -11   -1    0    0    0    0 -0.00000000000E+00 -0.00000000000E+00 -0.50000000000E+02  0.50000000000E+02  0.00000000000E+00 0. -1.
         23    2    1    2    0    0  0.00000000000E+00  0.00000000000E+00  0.00000000000E+00  0.10000000000E+03  0.10000000000E+03 0.  0.
          5    1    3    3  501    0  0.12374159635E+02 -0.20321595499E+02 -0.43724397420E+02  0.50000000000E+02  0.47000000000E+01 0. -1.
         -5    1    3    3    0  501 -0.12374159635E+02  0.20321595499E+02  0.43724397420E+02  0.50000000000E+02  0.47000000000E+01 0.  1.
</event>
<event>
 5    1  0.9023675E-001  0.1000000E+03  0.7546771E-02  0.1163815E+00
         11   -1    0    0    0    0  0.00000000000E+00  0.00000000000E+00  0.50000000000E+02  0.50000000000E+02  0.00000000000E+00 0. -1.
        -11   -1    0    0    0    0 -0.00000000000E+00 -0.00000000000E+00 -0.50000000000E+02  0.50000000000E+02  0.00000000000E+00 0.  1.
         23    2    1    2    0    0  0.00000000000E+00  0.00000000000E+00  0.00000000000E+00  0.10000000000E+03  0.10000000000E+03 0.  0.
          5    1    3    3  501    0 -0.89089327059E+01  0.26374349807E+02  0.41266628046E+02  0.50000000000E+02  0.47000000000E+01 0. -1.
         -5    1    3    3    0  501  0.89089327059E+01 -0.26374349807E+02 -0.41266628046E+02  0.50000000000E+02  0.47000000000E+01 0.  1.
</event>
<event>
 5    1  0.9023675E-001  0.1000000E+03  0.7546771E-02  0.1163815E+00
         11   -1    0    0    0    0  0.00000000000E+00  0.00000000000E+00  0.50000000000E+02  0.50000000000E+02  0.00000000000E+00 0. -1.
        -11   -1    0    0    0    0 -0.00000000000E+00 -0.00000000000E+00 -0.50000000000E+02  0.50000000000E+02  0.00000000000E+00 0.  1.
         23    2    1    2    0    0  0.00000000000E+00  0.00000000000E+00  0.00000000000E+00  0.10000000000E+03  0.10000000000E+03 0.  0.
          5    1    3    3  501    0  0.38256868138E+02 -0.16468095043E+02  0.27260298714E+02  0.50000000000E+02  0.47000000000E+01 0. -1.
         -5    1    3    3    0  501 -0.38256868138E+02  0.16468095043E+02 -0.27260298714E+02  0.50000000000E+02  0.47000000000E+01 0.  1.
</event>
<event>
 5    1  0.9023675E-001  0.1000000E+03  0.7546771E-02  0.1163815E+00
         11   -1    0    0    0    0  0.00000000000E+00  0.00000000000E+00  0.50000000000E+02  0.50000000000E+02  0.00000000000E+00 0.  1.
        -11   -1    0    0    0    0 -0.00000000000E+00 -0.00000000000E+00 -0.50000000000E+02  0.50000000000E+02  0.00000000000E+00 0. -1.
         23    2    1    2    0    0  0.00000000000E+00  0.00000000000E+00  0.00000000000E+00  0.10000000000E+03  0.10000000000E+03 0.  0.
          5    1    3    3  501    0  0.43110290755E+02  0.11084113399E+02 -0.22283519947E+02  0.50000000000E+02  0.47000000000E+01 0. -1.
         -5    1    3    3    0  501 -0.43110290755E+02 -0.11084113399E+02  0.22283519947E+02  0.50000000000E+02  0.47000000000E+01 0.  1.
</event>
<event>
 5    1  0.9023675E-001  0.1000000E+03  0.7546771E-02  0.1163815E+00
         11   -1    0    0    0    0  0.00000000000E+00  0.00000000000E+00  0.50000000000E+02  0.50000000000E+02  0.00000000000E+00 0. -1.
        -11   -1    0    0    0    0 -0.00000000000E+00 -0.00000000000E+00 -0.50000000000E+02  0.50000000000E+02  0.00000000000E+00 0.  1.
         23    2    1    2    0    0  0.00000000000E+00  0.00000000000E+00  0.00000000000E+00  0.10000000000E+03  0.10000000000E+03 0.  0.
          5    1    3    3  501    0 -0.41472228482E+02  0.78274333174E+01  0.26394991047E+02  0.50000000000E+02  0.47000000000E+01 0. -1.
         -5    1    3    3    0  501  0.41472228482E+02 -0.78274333174E+01 -0.26394991047E+02  0.50000000000E+02  0.47000000000E+01 0.  1.
</event>
<event>
 5    1  0.9023675E-001  0.1000000E+03  0.7546771E-02  0.1163815E+00
         11   -1    0    0    0    0  0.00000000000E+00  0.00000000000E+00  0.50000000000E+02  0.50000000000E+02  0.00000000000E+00 0. -1.
        -11   -1    0    0    0    0 -0.00000000000E+00 -0.00000000000E+00 -0.50000000000E+02  0.50000000000E+02  0.00000000000E+00 0.  1.
         23    2    1    2    0    0  0.00000000000E+00  0.00000000000E+00  0.00000000000E+00  0.10000000000E+03  0.10000000000E+03 0.  0.
          5    1    3    3  501    0  0.42154951861E+02  0.99277165671E+01  0.24542014533E+02  0.50000000000E+02  0.47000000000E+01 0. -1.
         -5    1    3    3    0  501 -0.42154951861E+02 -0.99277165671E+01 -0.24542014533E+02  0.50000000000E+02  0.47000000000E+01 0.  1.
</event>
<event>
 5    1  0.9023675E-001  0.1000000E+03  0.7546771E-02  0.1163815E+00
         11   -1    0    0    0    0  0.00000000000E+00  0.00000000000E+00  0.50000000000E+02  0.50000000000E+02  0.00000000000E+00 0. -1.
        -11   -1    0    0    0    0 -0.00000000000E+00 -0.00000000000E+00 -0.50000000000E+02  0.50000000000E+02  0.00000000000E+00 0.  1.
         23    2    1    2    0    0  0.00000000000E+00  0.00000000000E+00  0.00000000000E+00  0.10000000000E+03  0.10000000000E+03 0.  0.
          5    1    3    3  501    0  0.45667068553E+02  0.14518991504E+02  0.13476933459E+02  0.50000000000E+02  0.47000000000E+01 0. -1.
         -5    1    3    3    0  501 -0.45667068553E+02 -0.14518991504E+02 -0.13476933459E+02  0.50000000000E+02  0.47000000000E+01 0.  1.
</event>
<event>
 5    1  0.9023675E-001  0.1000000E+03  0.7546771E-02  0.1163815E+00
         11   -1    0    0    0    0  0.00000000000E+00  0.00000000000E+00  0.50000000000E+02  0.50000000000E+02  0.00000000000E+00 0.  1.
        -11   -1    0    0    0    0 -0.00000000000E+00 -0.00000000000E+00 -0.50000000000E+02  0.50000000000E+02  0.00000000000E+00 0. -1.
         23    2    1    2    0    0  0.00000000000E+00  0.00000000000E+00  0.00000000000E+00  0.10000000000E+03  0.10000000000E+03 0.  0.
          5    1    3    3  501    0  0.66773178070E+01  0.14912952086E+02 -0.47020498583E+02  0.50000000000E+02  0.47000000000E+01 0. -1.
         -5    1    3    3    0  501 -0.66773178070E+01 -0.14912952086E+02  0.47020498583E+02  0.50000000000E+02  0.47000000000E+01 0.  1.
</event>
<event>
 5    1  0.9023675E-001  0.1000000E+03  0.7546771E-02  0.1163815E+00
         11   -1    0    0    0    0  0.00000000000E+00  0.00000000000E+00  0.50000000000E+02  0.50000000000E+02  0.00000000000E+00 0. -1.
        -11   -1    0    0    0    0 -0.00000000000E+00 -0.00000000000E+00 -0.50000000000E+02  0.50000000000E+02  0.00000000000E+00 0.  1.
         23    2    1    2    0    0  0.00000000000E+00  0.00000000000E+00  0.00000000000E+00  0.10000000000E+03  0.10000000000E+03 0.  0.
          5    1    3    3  501    0 -0.17385450358E+02 -0.45839010906E+02  0.86279310963E+01  0.50000000000E+02  0.47000000000E+01 0. -1.
         -5    1    3    3    0  501  0.17385450358E+02  0.45839010906E+02 -0.86279310963E+01  0.50000000000E+02  0.47000000000E+01 0.  1.
</event>
<event>
 5    1  0.9023675E-001  0.1000000E+03  0.7546771E-02  0.1163815E+00
         11   -1    0    0    0    0  0.00000000000E+00  0.00000000000E+00  0.50000000000E+02  0.50000000000E+02  0.00000000000E+00 0.  1.
        -11   -1    0    0    0    0 -0.00000000000E+00 -0.00000000000E+00 -0.50000000000E+02  0.50000000000E+02  0.00000000000E+00 0. -1.
         23    2    1    2    0    0  0.00000000000E+00  0.00000000000E+00  0.00000000000E+00  0.10000000000E+03  0.10000000000E+03 0.  0.
          5    1    3    3  501    0 -0.33831410394E+02  0.18871135477E+02 -0.31260612863E+02  0.50000000000E+02  0.47000000000E+01 0. -1.
         -5    1    3    3    0  501  0.33831410394E+02 -0.18871135477E+02  0.31260612863E+02  0.50000000000E+02  0.47000000000E+01 0.  1.
</event>
<event>
 5    1  0.9023675E-001  0.1000000E+03  0.7546771E-02  0.1163815E+00
         11   -1    0    0    0    0  0.00000000000E+00  0.00000000000E+00  0.50000000000E+02  0.50000000000E+02  0.00000000000E+00 0.  1.
        -11   -1    0    0    0    0 -0.00000000000E+00 -0.00000000000E+00 -0.50000000000E+02  0.50000000000E+02  0.00000000000E+00 0. -1.
         23    2    1    2    0    0  0.00000000000E+00  0.00000000000E+00  0.00000000000E+00  0.10000000000E+03  0.10000000000E+03 0.  0.
          5    1    3    3  501    0 -0.23184904074E+02  0.29334218546E+02 -0.32861434013E+02  0.50000000000E+02  0.47000000000E+01 0. -1.
         -5    1    3    3    0  501  0.23184904074E+02 -0.29334218546E+02  0.32861434013E+02  0.50000000000E+02  0.47000000000E+01 0.  1.
</event>
<event>
 5    1  0.9023675E-001  0.1000000E+03  0.7546771E-02  0.1163815E+00
         11   -1    0    0    0    0  0.00000000000E+00  0.00000000000E+00  0.50000000000E+02  0.50000000000E+02  0.00000000000E+00 0. -1.
        -11   -1    0    0    0    0 -0.00000000000E+00 -0.00000000000E+00 -0.50000000000E+02  0.50000000000E+02  0.00000000000E+00 0.  1.
         23    2    1    2    0    0  0.00000000000E+00  0.00000000000E+00  0.00000000000E+00  0.10000000000E+03  0.10000000000E+03 0.  0.
          5    1    3    3  501    0 -0.15576910694E+02 -0.85943753938E+01  0.46490929920E+02  0.50000000000E+02  0.47000000000E+01 0. -1.
         -5    1    3    3    0  501  0.15576910694E+02  0.85943753938E+01 -0.46490929920E+02  0.50000000000E+02  0.47000000000E+01 0.  1.
</event>
<event>
 5    1  0.9023675E-001  0.1000000E+03  0.7546771E-02  0.1163815E+00
         11   -1    0    0    0    0  0.00000000000E+00  0.00000000000E+00  0.50000000000E+02  0.50000000000E+02  0.00000000000E+00 0. -1.
        -11   -1    0    0    0    0 -0.00000000000E+00 -0.00000000000E+00 -0.50000000000E+02  0.50000000000E+02  0.00000000000E+00 0.  1.
         23    2    1    2    0    0  0.00000000000E+00  0.00000000000E+00  0.00000000000E+00  0.10000000000E+03  0.10000000000E+03 0.  0.
          5    1    3    3  501    0  0.44255310179E+02  0.22374048353E+02  0.43335298884E+01  0.50000000000E+02  0.47000000000E+01 0. -1.
         -5    1    3    3    0  501 -0.44255310179E+02 -0.22374048353E+02 -0.43335298884E+01  0.50000000000E+02  0.47000000000E+01 0.  1.
</event>
<event>
 5    1  0.9023675E-001  0.1000000E+03  0.7546771E-02  0.1163815E+00
         11   -1    0    0    0    0  0.00000000000E+00  0.00000000000E+00  0.50000000000E+02  0.50000000000E+02  0.00000000000E+00 0. -1.
        -11   -1    0    0    0    0 -0.00000000000E+00 -0.00000000000E+00 -0.50000000000E+02  0.50000000000E+02  0.00000000000E+00 0.  1.
         23    2    1    2    0    0  0.00000000000E+00  0.00000000000E+00  0.00000000000E+00  0.10000000000E+03  0.10000000000E+03 0.  0.
          5    1    3    3  501    0  0.13762639707E+02  0.20797786686E+01  0.47793035779E+02  0.50000000000E+02  0.47000000000E+01 0. -1.
         -5    1    3    3    0  501 -0.13762639707E+02 -0.20797786686E+01 -0.47793035779E+02  0.50000000000E+02  0.47000000000E+01 0.  1.
</event>
<event>
 5    1  0.9023675E-001  0.1000000E+03  0.7546771E-02  0.1163815E+00
         11   -1    0    0    0    0  0.00000000000E+00  0.00000000000E+00  0.50000000000E+02  0.50000000000E+02  0.00000000000E+00 0.  1.
        -11   -1    0    0    0    0 -0.00000000000E+00 -0.00000000000E+00 -0.50000000000E+02  0.50000000000E+02  0.00000000000E+00 0. -1.
         23    2    1    2    0    0  0.00000000000E+00  0.00000000000E+00  0.00000000000E+00  0.10000000000E+03  0.10000000000E+03 0.  0.
          5    1    3    3  501    0  0.41609389081E+01 -0.45332593940E+02 -0.20138334441E+02  0.50000000000E+02  0.47000000000E+01 0. -1.
         -5    1    3    3    0  501 -0.41609389081E+01  0.45332593940E+02  0.20138334441E+02  0.50000000000E+02  0.47000000000E+01 0.  1.
</event>
<event>
 5    1  0.9023675E-001  0.1000000E+03  0.7546771E-02  0.1163815E+00
         11   -1    0    0    0    0  0.00000000000E+00  0.00000000000E+00  0.50000000000E+02  0.50000000000E+02  0.00000000000E+00 0. -1.
        -11   -1    0    0    0    0 -0.00000000000E+00 -0.00000000000E+00 -0.50000000000E+02  0.50000000000E+02  0.00000000000E+00 0.  1.
         23    2    1    2    0    0  0.00000000000E+00  0.00000000000E+00  0.00000000000E+00  0.10000000000E+03  0.10000000000E+03 0.  0.
          5    1    3    3  501    0 -0.25223813650E+02 -0.13565246928E+02  0.40714288655E+02  0.50000000000E+02  0.47000000000E+01 0. -1.
         -5    1    3    3    0  501  0.25223813650E+02  0.13565246928E+02 -0.40714288655E+02  0.50000000000E+02  0.47000000000E+01 0.  1.
</event>
<event>
 5    1  0.9023675E-001  0.1000000E+03  0.7546771E-02  0.1163815E+00
         11   -1    0    0    0    0  0.00000000000E+00  0.00000000000E+00  0.50000000000E+02  0.50000000000E+02  0.00000000000E+00 0. -1.
        -11   -1    0    0    0    0 -0.00000000000E+00 -0.00000000000E+00 -0.50000000000E+02  0.50000000000E+02  0.00000000000E+00 0.  1.
         23    2    1    2    0    0  0.00000000000E+00  0.00000000000E+00  0.00000000000E+00  0.10000000000E+03  0.10000000000E+03 0.  0.
          5    1    3    3  501    0 -0.36823858767E+01 -0.43573885383E+02  0.23783745434E+02  0.50000000000E+02  0.47000000000E+01 0. -1.
         -5    1    3    3    0  501  0.36823858767E+01  0.43573885383E+02 -0.23783745434E+02  0.50000000000E+02  0.47000000000E+01 0.  1.
</event>
<event>
 5    1  0.9023675E-001  0.1000000E+03  0.7546771E-02  0.1163815E+00
         11   -1    0    0    0    0  0.00000000000E+00  0.00000000000E+00  0.50000000000E+02  0.50000000000E+02  0.00000000000E+00 0. -1.
        -11   -1    0    0    0    0 -0.00000000000E+00 -0.00000000000E+00 -0.50000000000E+02  0.50000000000E+02  0.00000000000E+00 0.  1.
         23    2    1    2    0    0  0.00000000000E+00  0.00000000000E+00  0.00000000000E+00  0.10000000000E+03  0.10000000000E+03 0.  0.
          5    1    3    3  501    0 -0.35781449027E+02 -0.28342538468E+02 -0.19856948877E+02  0.50000000000E+02  0.47000000000E+01 0. -1.
         -5    1    3    3    0  501  0.35781449027E+02  0.28342538468E+02  0.19856948877E+02  0.50000000000E+02  0.47000000000E+01 0.  1.
</event>
<event>
 5    1  0.9023675E-001  0.1000000E+03  0.7546771E-02  0.1163815E+00
         11   -1    0    0    0    0  0.00000000000E+00  0.00000000000E+00  0.50000000000E+02  0.50000000000E+02  0.00000000000E+00 0. -1.
        -11   -1    0    0    0    0 -0.00000000000E+00 -0.00000000000E+00 -0.50000000000E+02  0.50000000000E+02  0.00000000000E+00 0.  1.
         23    2    1    2    0    0  0.00000000000E+00  0.00000000000E+00  0.00000000000E+00  0.10000000000E+03  0.10000000000E+03 0.  0.
          5    1    3    3  501    0 -0.25475710110E+02 -0.16713746623E+02  0.39364309574E+02  0.50000000000E+02  0.47000000000E+01 0. -1.
         -5    1    3    3    0  501  0.25475710110E+02  0.16713746623E+02 -0.39364309574E+02  0.50000000000E+02  0.47000000000E+01 0.  1.
</event>
<event>
 5    1  0.9023675E-001  0.1000000E+03  0.7546771E-02  0.1163815E+00
         11   -1    0    0    0    0  0.00000000000E+00  0.00000000000E+00  0.50000000000E+02  0.50000000000E+02  0.00000000000E+00 0. -1.
        -11   -1    0    0    0    0 -0.00000000000E+00 -0.00000000000E+00 -0.50000000000E+02  0.50000000000E+02  0.00000000000E+00 0.  1.
         23    2    1    2    0    0  0.00000000000E+00  0.00000000000E+00  0.00000000000E+00  0.10000000000E+03  0.10000000000E+03 0.  0.
          5    1    3    3  501    0  0.75257353705E+01  0.44469361466E+02  0.21065355396E+02  0.50000000000E+02  0.47000000000E+01 0. -1.
         -5    1    3    3    0  501 -0.75257353705E+01 -0.44469361466E+02 -0.21065355396E+02  0.50000000000E+02  0.47000000000E+01 0.  1.
</event>
<event>
 5    1  0.9023675E-001  0.1000000E+03  0.7546771E-02  0.1163815E+00
         11   -1    0    0    0    0  0.00000000000E+00  0.00000000000E+00  0.50000000000E+02  0.50000000000E+02  0.00000000000E+00 0. -1.
        -11   -1    0    0    0    0 -0.00000000000E+00 -0.00000000000E+00 -0.50000000000E+02  0.50000000000E+02  0.00000000000E+00 0.  1.
         23    2    1    2    0    0  0.00000000000E+00  0.00000000000E+00  0.00000000000E+00  0.10000000000E+03  0.10000000000E+03 0.  0.
          5    1    3    3  501    0 -0.87314656225E+01 -0.26011589524E+02  0.41533946580E+02  0.50000000000E+02  0.47000000000E+01 0. -1.
         -5    1    3    3    0  501  0.87314656225E+01  0.26011589524E+02 -0.41533946580E+02  0.50000000000E+02  0.47000000000E+01 0.  1.
</event>
<event>
 5    1  0.9023675E-001  0.1000000E+03  0.7546771E-02  0.1163815E+00
         11   -1    0    0    0    0  0.00000000000E+00  0.00000000000E+00  0.50000000000E+02  0.50000000000E+02  0.00000000000E+00 0. -1.
        -11   -1    0    0    0    0 -0.00000000000E+00 -0.00000000000E+00 -0.50000000000E+02  0.50000000000E+02  0.00000000000E+00 0.  1.
         23    2    1    2    0    0  0.00000000000E+00  0.00000000000E+00  0.00000000000E+00  0.10000000000E+03  0.10000000000E+03 0.  0.
          5    1    3    3  501    0 -0.26322869426E+02  0.33701084867E+02  0.25480451801E+02  0.50000000000E+02  0.47000000000E+01 0. -1.
         -5    1    3    3    0  501  0.26322869426E+02 -0.33701084867E+02 -0.25480451801E+02  0.50000000000E+02  0.47000000000E+01 0.  1.
</event>
<event>
 5    1  0.9023675E-001  0.1000000E+03  0.7546771E-02  0.1163815E+00
         11   -1    0    0    0    0  0.00000000000E+00  0.00000000000E+00  0.50000000000E+02  0.50000000000E+02  0.00000000000E+00 0. -1.
        -11   -1    0    0    0    0 -0.00000000000E+00 -0.00000000000E+00 -0.50000000000E+02  0.50000000000E+02  0.00000000000E+00 0.  1.
         23    2    1    2    0    0  0.00000000000E+00  0.00000000000E+00  0.00000000000E+00  0.10000000000E+03  0.10000000000E+03 0.  0.
          5    1    3    3  501    0  0.15324507288E+02 -0.56677936817E+01  0.47020693223E+02  0.50000000000E+02  0.47000000000E+01 0. -1.
         -5    1    3    3    0  501 -0.15324507288E+02  0.56677936817E+01 -0.47020693223E+02  0.50000000000E+02  0.47000000000E+01 0.  1.
</event>
<event>
 5    1  0.9023675E-001  0.1000000E+03  0.7546771E-02  0.1163815E+00
         11   -1    0    0    0    0  0.00000000000E+00  0.00000000000E+00  0.50000000000E+02  0.50000000000E+02  0.00000000000E+00 0.  1.
        -11   -1    0    0    0    0 -0.00000000000E+00 -0.00000000000E+00 -0.50000000000E+02  0.50000000000E+02  0.00000000000E+00 0. -1.
         23    2    1    2    0    0  0.00000000000E+00  0.00000000000E+00  0.00000000000E+00  0.10000000000E+03  0.10000000000E+03 0.  0.
          5    1    3    3  501    0  0.80542501439E+01 -0.20160385668E+02 -0.44795065625E+02  0.50000000000E+02  0.47000000000E+01 0. -1.
         -5    1    3    3    0  501 -0.80542501439E+01  0.20160385668E+02  0.44795065625E+02  0.50000000000E+02  0.47000000000E+01 0.  1.
</event>
<event>
 5    1  0.9023675E-001  0.1000000E+03  0.7546771E-02  0.1163815E+00
         11   -1    0    0    0    0  0.00000000000E+00  0.00000000000E+00  0.50000000000E+02  0.50000000000E+02  0.00000000000E+00 0. -1.
        -11   -1    0    0    0    0 -0.00000000000E+00 -0.00000000000E+00 -0.50000000000E+02  0.50000000000E+02  0.00000000000E+00 0.  1.
         23    2    1    2    0    0  0.00000000000E+00  0.00000000000E+00  0.00000000000E+00  0.10000000000E+03  0.10000000000E+03 0.  0.
          5    1    3    3  501    0  0.69701514195E+01 -0.42609836484E+02  0.24773550896E+02  0.50000000000E+02  0.47000000000E+01 0. -1.
         -5    1    3    3    0  501 -0.69701514195E+01  0.42609836484E+02 -0.24773550896E+02  0.50000000000E+02  0.47000000000E+01 0.  1.
</event>
<event>
 5    1  0.9023675E-001  0.1000000E+03  0.7546771E-02  0.1163815E+00
         11   -1    0    0    0    0  0.00000000000E+00  0.00000000000E+00  0.50000000000E+02  0.50000000000E+02  0.00000000000E+00 0.  1.
        -11   -1    0    0    0    0 -0.00000000000E+00 -0.00000000000E+00 -0.50000000000E+02  0.50000000000E+02  0.00000000000E+00 0. -1.
         23    2    1    2    0    0  0.00000000000E+00  0.00000000000E+00  0.00000000000E+00  0.10000000000E+03  0.10000000000E+03 0.  0.
          5    1    3    3  501    0  0.48589852427E+02  0.61565889383E+01 -0.88900311469E+01  0.50000000000E+02  0.47000000000E+01 0. -1.
         -5    1    3    3    0  501 -0.48589852427E+02 -0.61565889383E+01  0.88900311469E+01  0.50000000000E+02  0.47000000000E+01 0.  1.
</event>
<event>
 5    1  0.9023675E-001  0.1000000E+03  0.7546771E-02  0.1163815E+00
         11   -1    0    0    0    0  0.00000000000E+00  0.00000000000E+00  0.50000000000E+02  0.50000000000E+02  0.00000000000E+00 0.  1.
        -11   -1    0    0    0    0 -0.00000000000E+00 -0.00000000000E+00 -0.50000000000E+02  0.50000000000E+02  0.00000000000E+00 0. -1.
         23    2    1    2    0    0  0.00000000000E+00  0.00000000000E+00  0.00000000000E+00  0.10000000000E+03  0.10000000000E+03 0.  0.
          5    1    3    3  501    0 -0.46534089658E+02  0.15654903520E+02  0.82105112814E+01  0.50000000000E+02  0.47000000000E+01 0.  1.
         -5    1    3    3    0  501  0.46534089658E+02 -0.15654903520E+02 -0.82105112814E+01  0.50000000000E+02  0.47000000000E+01 0. -1.
</event>
<event>
 5    1  0.9023675E-001  0.1000000E+03  0.7546771E-02  0.1163815E+00
         11   -1    0    0    0    0  0.00000000000E+00  0.00000000000E+00  0.50000000000E+02  0.50000000000E+02  0.00000000000E+00 0. -1.
        -11   -1    0    0    0    0 -0.00000000000E+00 -0.00000000000E+00 -0.50000000000E+02  0.50000000000E+02  0.00000000000E+00 0.  1.
         23    2    1    2    0    0  0.00000000000E+00  0.00000000000E+00  0.00000000000E+00  0.10000000000E+03  0.10000000000E+03 0.  0.
          5    1    3    3  501    0  0.44705317070E+02  0.14819999421E+02 -0.16115590056E+02  0.50000000000E+02  0.47000000000E+01 0. -1.
         -5    1    3    3    0  501 -0.44705317070E+02 -0.14819999421E+02  0.16115590056E+02  0.50000000000E+02  0.47000000000E+01 0.  1.
</event>
<event>
 5    1  0.9023675E-001  0.1000000E+03  0.7546771E-02  0.1163815E+00
         11   -1    0    0    0    0  0.00000000000E+00  0.00000000000E+00  0.50000000000E+02  0.50000000000E+02  0.00000000000E+00 0.  1.
        -11   -1    0    0    0    0 -0.00000000000E+00 -0.00000000000E+00 -0.50000000000E+02  0.50000000000E+02  0.00000000000E+00 0. -1.
         23    2    1    2    0    0  0.00000000000E+00  0.00000000000E+00  0.00000000000E+00  0.10000000000E+03  0.10000000000E+03 0.  0.
          5    1    3    3  501    0 -0.20920280363E+02  0.45058671316E+02 -0.31572153510E+01  0.50000000000E+02  0.47000000000E+01 0. -1.
         -5    1    3    3    0  501  0.20920280363E+02 -0.45058671316E+02  0.31572153510E+01  0.50000000000E+02  0.47000000000E+01 0.  1.
</event>
<event>
 5    1  0.9023675E-001  0.1000000E+03  0.7546771E-02  0.1163815E+00
         11   -1    0    0    0    0  0.00000000000E+00  0.00000000000E+00  0.50000000000E+02  0.50000000000E+02  0.00000000000E+00 0. -1.
        -11   -1    0    0    0    0 -0.00000000000E+00 -0.00000000000E+00 -0.50000000000E+02  0.50000000000E+02  0.00000000000E+00 0.  1.
         23    2    1    2    0    0  0.00000000000E+00  0.00000000000E+00  0.00000000000E+00  0.10000000000E+03  0.10000000000E+03 0.  0.
          5    1    3    3  501    0 -0.13052685255E+02  0.29222896018E+02  0.38125578762E+02  0.50000000000E+02  0.47000000000E+01 0. -1.
         -5    1    3    3    0  501  0.13052685255E+02 -0.29222896018E+02 -0.38125578762E+02  0.50000000000E+02  0.47000000000E+01 0.  1.
</event>
<event>
 5    1  0.9023675E-001  0.1000000E+03  0.7546771E-02  0.1163815E+00
         11   -1    0    0    0    0  0.00000000000E+00  0.00000000000E+00  0.50000000000E+02  0.50000000000E+02  0.00000000000E+00 0. -1.
        -11   -1    0    0    0    0 -0.00000000000E+00 -0.00000000000E+00 -0.50000000000E+02  0.50000000000E+02  0.00000000000E+00 0.  1.
         23    2    1    2    0    0  0.00000000000E+00  0.00000000000E+00  0.00000000000E+00  0.10000000000E+03  0.10000000000E+03 0.  0.
          5    1    3    3  501    0 -0.32781456718E+02 -0.22698044944E+02  0.29800752527E+02  0.50000000000E+02  0.47000000000E+01 0. -1.
         -5    1    3    3    0  501  0.32781456718E+02  0.22698044944E+02 -0.29800752527E+02  0.50000000000E+02  0.47000000000E+01 0.  1.
</event>
<event>
 5    1  0.9023675E-001  0.1000000E+03  0.7546771E-02  0.1163815E+00
         11   -1    0    0    0    0  0.00000000000E+00  0.00000000000E+00  0.50000000000E+02  0.50000000000E+02  0.00000000000E+00 0.  1.
        -11   -1    0    0    0    0 -0.00000000000E+00 -0.00000000000E+00 -0.50000000000E+02  0.50000000000E+02  0.00000000000E+00 0. -1.
         23    2    1    2    0    0  0.00000000000E+00  0.00000000000E+00  0.00000000000E+00  0.10000000000E+03  0.10000000000E+03 0.  0.
          5    1    3    3  501    0  0.33461999506E+02  0.25063724519E+02 -0.27018776847E+02  0.50000000000E+02  0.47000000000E+01 0. -1.
         -5    1    3    3    0  501 -0.33461999506E+02 -0.25063724519E+02  0.27018776847E+02  0.50000000000E+02  0.47000000000E+01 0.  1.
</event>
<event>
 5    1  0.9023675E-001  0.1000000E+03  0.7546771E-02  0.1163815E+00
         11   -1    0    0    0    0  0.00000000000E+00  0.00000000000E+00  0.50000000000E+02  0.50000000000E+02  0.00000000000E+00 0. -1.
        -11   -1    0    0    0    0 -0.00000000000E+00 -0.00000000000E+00 -0.50000000000E+02  0.50000000000E+02  0.00000000000E+00 0.  1.
         23    2    1    2    0    0  0.00000000000E+00  0.00000000000E+00  0.00000000000E+00  0.10000000000E+03  0.10000000000E+03 0.  0.
          5    1    3    3  501    0  0.32355267126E+02 -0.61294470423E+00  0.37824211664E+02  0.50000000000E+02  0.47000000000E+01 0. -1.
         -5    1    3    3    0  501 -0.32355267126E+02  0.61294470423E+00 -0.37824211664E+02  0.50000000000E+02  0.47000000000E+01 0.  1.
</event>
<event>
 5    1  0.9023675E-001  0.1000000E+03  0.7546771E-02  0.1163815E+00
         11   -1    0    0    0    0  0.00000000000E+00  0.00000000000E+00  0.50000000000E+02  0.50000000000E+02  0.00000000000E+00 0. -1.
        -11   -1    0    0    0    0 -0.00000000000E+00 -0.00000000000E+00 -0.50000000000E+02  0.50000000000E+02  0.00000000000E+00 0.  1.
         23    2    1    2    0    0  0.00000000000E+00  0.00000000000E+00  0.00000000000E+00  0.10000000000E+03  0.10000000000E+03 0.  0.
          5    1    3    3  501    0  0.38363619214E+02 -0.62830365705E+01  0.31091255559E+02  0.50000000000E+02  0.47000000000E+01 0. -1.
         -5    1    3    3    0  501 -0.38363619214E+02  0.62830365705E+01 -0.31091255559E+02  0.50000000000E+02  0.47000000000E+01 0.  1.
</event>
<event>
 5    1  0.9023675E-001  0.1000000E+03  0.7546771E-02  0.1163815E+00
         11   -1    0    0    0    0  0.00000000000E+00  0.00000000000E+00  0.50000000000E+02  0.50000000000E+02  0.00000000000E+00 0.  1.
        -11   -1    0    0    0    0 -0.00000000000E+00 -0.00000000000E+00 -0.50000000000E+02  0.50000000000E+02  0.00000000000E+00 0. -1.
         23    2    1    2    0    0  0.00000000000E+00  0.00000000000E+00  0.00000000000E+00  0.10000000000E+03  0.10000000000E+03 0.  0.
          5    1    3    3  501    0 -0.24920116142E+02  0.40805022546E+02 -0.13850918616E+02  0.50000000000E+02  0.47000000000E+01 0. -1.
         -5    1    3    3    0  501  0.24920116142E+02 -0.40805022546E+02  0.13850918616E+02  0.50000000000E+02  0.47000000000E+01 0.  1.
</event>
<event>
 5    1  0.9023675E-001  0.1000000E+03  0.7546771E-02  0.1163815E+00
         11   -1    0    0    0    0  0.00000000000E+00  0.00000000000E+00  0.50000000000E+02  0.50000000000E+02  0.00000000000E+00 0. -1.
        -11   -1    0    0    0    0 -0.00000000000E+00 -0.00000000000E+00 -0.50000000000E+02  0.50000000000E+02  0.00000000000E+00 0.  1.
         23    2    1    2    0    0  0.00000000000E+00  0.00000000000E+00  0.00000000000E+00  0.10000000000E+03  0.10000000000E+03 0.  0.
          5    1    3    3  501    0  0.21829870987E+02  0.10575722707E+02  0.43468618818E+02  0.50000000000E+02  0.47000000000E+01 0. -1.
         -5    1    3    3    0  501 -0.21829870987E+02 -0.10575722707E+02 -0.43468618818E+02  0.50000000000E+02  0.47000000000E+01 0.  1.
</event>
<event>
 5    1  0.9023675E-001  0.1000000E+03  0.7546771E-02  0.1163815E+00
         11   -1    0    0    0    0  0.00000000000E+00  0.00000000000E+00  0.50000000000E+02  0.50000000000E+02  0.00000000000E+00 0. -1.
        -11   -1    0    0    0    0 -0.00000000000E+00 -0.00000000000E+00 -0.50000000000E+02  0.50000000000E+02  0.00000000000E+00 0.  1.
         23    2    1    2    0    0  0.00000000000E+00  0.00000000000E+00  0.00000000000E+00  0.10000000000E+03  0.10000000000E+03 0.  0.
          5    1    3    3  501    0  0.38060060677E+02  0.93695795479E+01  0.30684731714E+02  0.50000000000E+02  0.47000000000E+01 0. -1.
         -5    1    3    3    0  501 -0.38060060677E+02 -0.93695795479E+01 -0.30684731714E+02  0.50000000000E+02  0.47000000000E+01 0.  1.
</event>
<event>
 5    1  0.9023675E-001  0.1000000E+03  0.7546771E-02  0.1163815E+00
         11   -1    0    0    0    0  0.00000000000E+00  0.00000000000E+00  0.50000000000E+02  0.50000000000E+02  0.00000000000E+00 0. -1.
        -11   -1    0    0    0    0 -0.00000000000E+00 -0.00000000000E+00 -0.50000000000E+02  0.50000000000E+02  0.00000000000E+00 0.  1.
         23    2    1    2    0    0  0.00000000000E+00  0.00000000000E+00  0.00000000000E+00  0.10000000000E+03  0.10000000000E+03 0.  0.
          5    1    3    3  501    0  0.55655070860E+01  0.15562726157E+02  0.46954623685E+02  0.50000000000E+02  0.47000000000E+01 0. -1.
         -5    1    3    3    0  501 -0.55655070860E+01 -0.15562726157E+02 -0.46954623685E+02  0.50000000000E+02  0.47000000000E+01 0.  1.
</event>
<event>
 5    1  0.9023675E-001  0.1000000E+03  0.7546771E-02  0.1163815E+00
         11   -1    0    0    0    0  0.00000000000E+00  0.00000000000E+00  0.50000000000E+02  0.50000000000E+02  0.00000000000E+00 0.  1.
        -11   -1    0    0    0    0 -0.00000000000E+00 -0.00000000000E+00 -0.50000000000E+02  0.50000000000E+02  0.00000000000E+00 0. -1.
         23    2    1    2    0    0  0.00000000000E+00  0.00000000000E+00  0.00000000000E+00  0.10000000000E+03  0.10000000000E+03 0.  0.
          5    1    3    3  501    0 -0.40572062941E+01 -0.40163178072E+02 -0.29126760964E+02  0.50000000000E+02  0.47000000000E+01 0. -1.
         -5    1    3    3    0  501  0.40572062941E+01  0.40163178072E+02  0.29126760964E+02  0.50000000000E+02  0.47000000000E+01 0.  1.
</event>
<event>
 5    1  0.9023675E-001  0.1000000E+03  0.7546771E-02  0.1163815E+00
         11   -1    0    0    0    0  0.00000000000E+00  0.00000000000E+00  0.50000000000E+02  0.50000000000E+02  0.00000000000E+00 0.  1.
        -11   -1    0    0    0    0 -0.00000000000E+00 -0.00000000000E+00 -0.50000000000E+02  0.50000000000E+02  0.00000000000E+00 0. -1.
         23    2    1    2    0    0  0.00000000000E+00  0.00000000000E+00  0.00000000000E+00  0.10000000000E+03  0.10000000000E+03 0.  0.
          5    1    3    3  501    0  0.23451547938E+02 -0.40328283459E+02 -0.17365611206E+02  0.50000000000E+02  0.47000000000E+01 0. -1.
         -5    1    3    3    0  501 -0.23451547938E+02  0.40328283459E+02  0.17365611206E+02  0.50000000000E+02  0.47000000000E+01 0.  1.
</event>
<event>
 5    1  0.9023675E-001  0.1000000E+03  0.7546771E-02  0.1163815E+00
         11   -1    0    0    0    0  0.00000000000E+00  0.00000000000E+00  0.50000000000E+02  0.50000000000E+02  0.00000000000E+00 0.  1.
        -11   -1    0    0    0    0 -0.00000000000E+00 -0.00000000000E+00 -0.50000000000E+02  0.50000000000E+02  0.00000000000E+00 0. -1.
         23    2    1    2    0    0  0.00000000000E+00  0.00000000000E+00  0.00000000000E+00  0.10000000000E+03  0.10000000000E+03 0.  0.
          5    1    3    3  501    0 -0.31483113848E+02  0.35207375706E+02 -0.15721457896E+02  0.50000000000E+02  0.47000000000E+01 0. -1.
         -5    1    3    3    0  501  0.31483113848E+02 -0.35207375706E+02  0.15721457896E+02  0.50000000000E+02  0.47000000000E+01 0.  1.
</event>
<event>
 5    1  0.9023675E-001  0.1000000E+03  0.7546771E-02  0.1163815E+00
         11   -1    0    0    0    0  0.00000000000E+00  0.00000000000E+00  0.50000000000E+02  0.50000000000E+02  0.00000000000E+00 0. -1.
        -11   -1    0    0    0    0 -0.00000000000E+00 -0.00000000000E+00 -0.50000000000E+02  0.50000000000E+02  0.00000000000E+00 0.  1.
         23    2    1    2    0    0  0.00000000000E+00  0.00000000000E+00  0.00000000000E+00  0.10000000000E+03  0.10000000000E+03 0.  0.
          5    1    3    3  501    0 -0.30243819102E+02  0.35036976038E+02 -0.18320254262E+02  0.50000000000E+02  0.47000000000E+01 0. -1.
         -5    1    3    3    0  501  0.30243819102E+02 -0.35036976038E+02  0.18320254262E+02  0.50000000000E+02  0.47000000000E+01 0.  1.
</event>
<event>
 5    1  0.9023675E-001  0.1000000E+03  0.7546771E-02  0.1163815E+00
         11   -1    0    0    0    0  0.00000000000E+00  0.00000000000E+00  0.50000000000E+02  0.50000000000E+02  0.00000000000E+00 0. -1.
        -11   -1    0    0    0    0 -0.00000000000E+00 -0.00000000000E+00 -0.50000000000E+02  0.50000000000E+02  0.00000000000E+00 0.  1.
         23    2    1    2    0    0  0.00000000000E+00  0.00000000000E+00  0.00000000000E+00  0.10000000000E+03  0.10000000000E+03 0.  0.
          5    1    3    3  501    0  0.26043290920E+02 -0.42002057092E+02 -0.59568614294E+01  0.50000000000E+02  0.47000000000E+01 0. -1.
         -5    1    3    3    0  501 -0.26043290920E+02  0.42002057092E+02  0.59568614294E+01  0.50000000000E+02  0.47000000000E+01 0.  1.
</event>
<event>
 5    1  0.9023675E-001  0.1000000E+03  0.7546771E-02  0.1163815E+00
         11   -1    0    0    0    0  0.00000000000E+00  0.00000000000E+00  0.50000000000E+02  0.50000000000E+02  0.00000000000E+00 0. -1.
        -11   -1    0    0    0    0 -0.00000000000E+00 -0.00000000000E+00 -0.50000000000E+02  0.50000000000E+02  0.00000000000E+00 0.  1.
         23    2    1    2    0    0  0.00000000000E+00  0.00000000000E+00  0.00000000000E+00  0.10000000000E+03  0.10000000000E+03 0.  0.
          5    1    3    3  501    0 -0.14994612384E+01  0.20409178395E+02  0.45377605195E+02  0.50000000000E+02  0.47000000000E+01 0. -1.
         -5    1    3    3    0  501  0.14994612384E+01 -0.20409178395E+02 -0.45377605195E+02  0.50000000000E+02  0.47000000000E+01 0.  1.
</event>
<event>
 5    1  0.9023675E-001  0.1000000E+03  0.7546771E-02  0.1163815E+00
         11   -1    0    0    0    0  0.00000000000E+00  0.00000000000E+00  0.50000000000E+02  0.50000000000E+02  0.00000000000E+00 0.  1.
        -11   -1    0    0    0    0 -0.00000000000E+00 -0.00000000000E+00 -0.50000000000E+02  0.50000000000E+02  0.00000000000E+00 0. -1.
         23    2    1    2    0    0  0.00000000000E+00  0.00000000000E+00  0.00000000000E+00  0.10000000000E+03  0.10000000000E+03 0.  0.
          5    1    3    3  501    0  0.12323520645E+02 -0.27490697006E+02 -0.39627041488E+02  0.50000000000E+02  0.47000000000E+01 0. -1.
         -5    1    3    3    0  501 -0.12323520645E+02  0.27490697006E+02  0.39627041488E+02  0.50000000000E+02  0.47000000000E+01 0.  1.
</event>
<event>
 5    1  0.9023675E-001  0.1000000E+03  0.7546771E-02  0.1163815E+00
         11   -1    0    0    0    0  0.00000000000E+00  0.00000000000E+00  0.50000000000E+02  0.50000000000E+02  0.00000000000E+00 0. -1.
        -11   -1    0    0    0    0 -0.00000000000E+00 -0.00000000000E+00 -0.50000000000E+02  0.50000000000E+02  0.00000000000E+00 0.  1.
         23    2    1    2    0    0  0.00000000000E+00  0.00000000000E+00  0.00000000000E+00  0.10000000000E+03  0.10000000000E+03 0.  0.
          5    1    3    3  501    0  0.42122001229E+02 -0.25683197919E+02  0.66347838802E+01  0.50000000000E+02  0.47000000000E+01 0. -1.
         -5    1    3    3    0  501 -0.42122001229E+02  0.25683197919E+02 -0.66347838802E+01  0.50000000000E+02  0.47000000000E+01 0.  1.
</event>
<event>
 5    1  0.9023675E-001  0.1000000E+03  0.7546771E-02  0.1163815E+00
         11   -1    0    0    0    0  0.00000000000E+00  0.00000000000E+00  0.50000000000E+02  0.50000000000E+02  0.00000000000E+00 0. -1.
        -11   -1    0    0    0    0 -0.00000000000E+00 -0.00000000000E+00 -0.50000000000E+02  0.50000000000E+02  0.00000000000E+00 0.  1.
         23    2    1    2    0    0  0.00000000000E+00  0.00000000000E+00  0.00000000000E+00  0.10000000000E+03  0.10000000000E+03 0.  0.
          5    1    3    3  501    0  0.15307387541E+02 -0.33805588976E+01  0.47245800959E+02  0.50000000000E+02  0.47000000000E+01 0. -1.
         -5    1    3    3    0  501 -0.15307387541E+02  0.33805588976E+01 -0.47245800959E+02  0.50000000000E+02  0.47000000000E+01 0.  1.
</event>
<event>
 5    1  0.9023675E-001  0.1000000E+03  0.7546771E-02  0.1163815E+00
         11   -1    0    0    0    0  0.00000000000E+00  0.00000000000E+00  0.50000000000E+02  0.50000000000E+02  0.00000000000E+00 0.  1.
        -11   -1    0    0    0    0 -0.00000000000E+00 -0.00000000000E+00 -0.50000000000E+02  0.50000000000E+02  0.00000000000E+00 0. -1.
         23    2    1    2    0    0  0.00000000000E+00  0.00000000000E+00  0.00000000000E+00  0.10000000000E+03  0.10000000000E+03 0.  0.
          5    1    3    3  501    0  0.19852289675E+02  0.41191844105E+02 -0.19673041807E+02  0.50000000000E+02  0.47000000000E+01 0. -1.
         -5    1    3    3    0  501 -0.19852289675E+02 -0.41191844105E+02  0.19673041807E+02  0.50000000000E+02  0.47000000000E+01 0.  1.
</event>
<event>
 5    1  0.9023675E-001  0.1000000E+03  0.7546771E-02  0.1163815E+00
         11   -1    0    0    0    0  0.00000000000E+00  0.00000000000E+00  0.50000000000E+02  0.50000000000E+02  0.00000000000E+00 0. -1.
        -11   -1    0    0    0    0 -0.00000000000E+00 -0.00000000000E+00 -0.50000000000E+02  0.50000000000E+02  0.00000000000E+00 0.  1.
         23    2    1    2    0    0  0.00000000000E+00  0.00000000000E+00  0.00000000000E+00  0.10000000000E+03  0.10000000000E+03 0.  0.
          5    1    3    3  501    0  0.17370512809E+02  0.44246458854E+02 -0.14779247736E+02  0.50000000000E+02  0.47000000000E+01 0. -1.
         -5    1    3    3    0  501 -0.17370512809E+02 -0.44246458854E+02  0.14779247736E+02  0.50000000000E+02  0.47000000000E+01 0.  1.
</event>
<event>
 5    1  0.9023675E-001  0.1000000E+03  0.7546771E-02  0.1163815E+00
         11   -1    0    0    0    0  0.00000000000E+00  0.00000000000E+00  0.50000000000E+02  0.50000000000E+02  0.00000000000E+00 0. -1.
        -11   -1    0    0    0    0 -0.00000000000E+00 -0.00000000000E+00 -0.50000000000E+02  0.50000000000E+02  0.00000000000E+00 0.  1.
         23    2    1    2    0    0  0.00000000000E+00  0.00000000000E+00  0.00000000000E+00  0.10000000000E+03  0.10000000000E+03 0.  0.
          5    1    3    3  501    0  0.45489985102E+02  0.14414842430E+02  0.14169812038E+02  0.50000000000E+02  0.47000000000E+01 0. -1.
         -5    1    3    3    0  501 -0.45489985102E+02 -0.14414842430E+02 -0.14169812038E+02  0.50000000000E+02  0.47000000000E+01 0.  1.
</event>
<event>
 5    1  0.9023675E-001  0.1000000E+03  0.7546771E-02  0.1163815E+00
         11   -1    0    0    0    0  0.00000000000E+00  0.00000000000E+00  0.50000000000E+02  0.50000000000E+02  0.00000000000E+00 0.  1.
        -11   -1    0    0    0    0 -0.00000000000E+00 -0.00000000000E+00 -0.50000000000E+02  0.50000000000E+02  0.00000000000E+00 0. -1.
         23    2    1    2    0    0  0.00000000000E+00  0.00000000000E+00  0.00000000000E+00  0.10000000000E+03  0.10000000000E+03 0.  0.
          5    1    3    3  501    0  0.18733425824E+02 -0.12697374121E+02 -0.44336727972E+02  0.50000000000E+02  0.47000000000E+01 0. -1.
         -5    1    3    3    0  501 -0.18733425824E+02  0.12697374121E+02  0.44336727972E+02  0.50000000000E+02  0.47000000000E+01 0.  1.
</event>
<event>
 5    1  0.9023675E-001  0.1000000E+03  0.7546771E-02  0.1163815E+00
         11   -1    0    0    0    0  0.00000000000E+00  0.00000000000E+00  0.50000000000E+02  0.50000000000E+02  0.00000000000E+00 0. -1.
        -11   -1    0    0    0    0 -0.00000000000E+00 -0.00000000000E+00 -0.50000000000E+02  0.50000000000E+02  0.00000000000E+00 0.  1.
         23    2    1    2    0    0  0.00000000000E+00  0.00000000000E+00  0.00000000000E+00  0.10000000000E+03  0.10000000000E+03 0.  0.
          5    1    3    3  501    0  0.16376447637E+02 -0.31304300560E+01  0.46903330057E+02  0.50000000000E+02  0.47000000000E+01 0. -1.
         -5    1    3    3    0  501 -0.16376447637E+02  0.31304300560E+01 -0.46903330057E+02  0.50000000000E+02  0.47000000000E+01 0.  1.
</event>
<event>
 5    1  0.9023675E-001  0.1000000E+03  0.7546771E-02  0.1163815E+00
         11   -1    0    0    0    0  0.00000000000E+00  0.00000000000E+00  0.50000000000E+02  0.50000000000E+02  0.00000000000E+00 0. -1.
        -11   -1    0    0    0    0 -0.00000000000E+00 -0.00000000000E+00 -0.50000000000E+02  0.50000000000E+02  0.00000000000E+00 0.  1.
         23    2    1    2    0    0  0.00000000000E+00  0.00000000000E+00  0.00000000000E+00  0.10000000000E+03  0.10000000000E+03 0.  0.
          5    1    3    3  501    0 -0.97819299928E+01  0.27637806744E+02  0.40229037821E+02  0.50000000000E+02  0.47000000000E+01 0. -1.
         -5    1    3    3    0  501  0.97819299928E+01 -0.27637806744E+02 -0.40229037821E+02  0.50000000000E+02  0.47000000000E+01 0.  1.
</event>
<event>
 5    1  0.9023675E-001  0.1000000E+03  0.7546771E-02  0.1163815E+00
         11   -1    0    0    0    0  0.00000000000E+00  0.00000000000E+00  0.50000000000E+02  0.50000000000E+02  0.00000000000E+00 0.  1.
        -11   -1    0    0    0    0 -0.00000000000E+00 -0.00000000000E+00 -0.50000000000E+02  0.50000000000E+02  0.00000000000E+00 0. -1.
         23    2    1    2    0    0  0.00000000000E+00  0.00000000000E+00  0.00000000000E+00  0.10000000000E+03  0.10000000000E+03 0.  0.
          5    1    3    3  501    0  0.47490732615E+02 -0.13630490850E+02  0.60621807038E+01  0.50000000000E+02  0.47000000000E+01 0. -1.
         -5    1    3    3    0  501 -0.47490732615E+02  0.13630490850E+02 -0.60621807038E+01  0.50000000000E+02  0.47000000000E+01 0.  1.
</event>
<event>
 5    1  0.9023675E-001  0.1000000E+03  0.7546771E-02  0.1163815E+00
         11   -1    0    0    0    0  0.00000000000E+00  0.00000000000E+00  0.50000000000E+02  0.50000000000E+02  0.00000000000E+00 0.  1.
        -11   -1    0    0    0    0 -0.00000000000E+00 -0.00000000000E+00 -0.50000000000E+02  0.50000000000E+02  0.00000000000E+00 0. -1.
         23    2    1    2    0    0  0.00000000000E+00  0.00000000000E+00  0.00000000000E+00  0.10000000000E+03  0.10000000000E+03 0.  0.
          5    1    3    3  501    0 -0.17578176149E+02 -0.21397397725E+02  0.41365070940E+02  0.50000000000E+02  0.47000000000E+01 0.  1.
         -5    1    3    3    0  501  0.17578176149E+02  0.21397397725E+02 -0.41365070940E+02  0.50000000000E+02  0.47000000000E+01 0. -1.
</event>
<event>
 5    1  0.9023675E-001  0.1000000E+03  0.7546771E-02  0.1163815E+00
         11   -1    0    0    0    0  0.00000000000E+00  0.00000000000E+00  0.50000000000E+02  0.50000000000E+02  0.00000000000E+00 0.  1.
        -11   -1    0    0    0    0 -0.00000000000E+00 -0.00000000000E+00 -0.50000000000E+02  0.50000000000E+02  0.00000000000E+00 0. -1.
         23    2    1    2    0    0  0.00000000000E+00  0.00000000000E+00  0.00000000000E+00  0.10000000000E+03  0.10000000000E+03 0.  0.
          5    1    3    3  501    0 -0.79856181493E+01  0.13284372590E+02 -0.47303967568E+02  0.50000000000E+02  0.47000000000E+01 0. -1.
         -5    1    3    3    0  501  0.79856181493E+01 -0.13284372590E+02  0.47303967568E+02  0.50000000000E+02  0.47000000000E+01 0.  1.
</event>
<event>
 5    1  0.9023675E-001  0.1000000E+03  0.7546771E-02  0.1163815E+00
         11   -1    0    0    0    0  0.00000000000E+00  0.00000000000E+00  0.50000000000E+02  0.50000000000E+02  0.00000000000E+00 0.  1.
        -11   -1    0    0    0    0 -0.00000000000E+00 -0.00000000000E+00 -0.50000000000E+02  0.50000000000E+02  0.00000000000E+00 0. -1.
         23    2    1    2    0    0  0.00000000000E+00  0.00000000000E+00  0.00000000000E+00  0.10000000000E+03  0.10000000000E+03 0.  0.
          5    1    3    3  501    0  0.33298365976E+02 -0.32590083172E+01 -0.36857939282E+02  0.50000000000E+02  0.47000000000E+01 0. -1.
         -5    1    3    3    0  501 -0.33298365976E+02  0.32590083172E+01  0.36857939282E+02  0.50000000000E+02  0.47000000000E+01 0.  1.
</event>
<event>
 5    1  0.9023675E-001  0.1000000E+03  0.7546771E-02  0.1163815E+00
         11   -1    0    0    0    0  0.00000000000E+00  0.00000000000E+00  0.50000000000E+02  0.50000000000E+02  0.00000000000E+00 0. -1.
        -11   -1    0    0    0    0 -0.00000000000E+00 -0.00000000000E+00 -0.50000000000E+02  0.50000000000E+02  0.00000000000E+00 0.  1.
         23    2    1    2    0    0  0.00000000000E+00  0.00000000000E+00  0.00000000000E+00  0.10000000000E+03  0.10000000000E+03 0.  0.
          5    1    3    3  501    0  0.14962084065E+02  0.15362654169E+02  0.44922543309E+02  0.50000000000E+02  0.47000000000E+01 0. -1.
         -5    1    3    3    0  501 -0.14962084065E+02 -0.15362654169E+02 -0.44922543309E+02  0.50000000000E+02  0.47000000000E+01 0.  1.
</event>
<event>
 5    1  0.9023675E-001  0.1000000E+03  0.7546771E-02  0.1163815E+00
         11   -1    0    0    0    0  0.00000000000E+00  0.00000000000E+00  0.50000000000E+02  0.50000000000E+02  0.00000000000E+00 0. -1.
        -11   -1    0    0    0    0 -0.00000000000E+00 -0.00000000000E+00 -0.50000000000E+02  0.50000000000E+02  0.00000000000E+00 0.  1.
         23    2    1    2    0    0  0.00000000000E+00  0.00000000000E+00  0.00000000000E+00  0.10000000000E+03  0.10000000000E+03 0.  0.
          5    1    3    3  501    0  0.19231425182E+02 -0.43715235287E+02  0.14037111145E+02  0.50000000000E+02  0.47000000000E+01 0. -1.
         -5    1    3    3    0  501 -0.19231425182E+02  0.43715235287E+02 -0.14037111145E+02  0.50000000000E+02  0.47000000000E+01 0.  1.
</event>
<event>
 5    1  0.9023675E-001  0.1000000E+03  0.7546771E-02  0.1163815E+00
         11   -1    0    0    0    0  0.00000000000E+00  0.00000000000E+00  0.50000000000E+02  0.50000000000E+02  0.00000000000E+00 0.  1.
        -11   -1    0    0    0    0 -0.00000000000E+00 -0.00000000000E+00 -0.50000000000E+02  0.50000000000E+02  0.00000000000E+00 0. -1.
         23    2    1    2    0    0  0.00000000000E+00  0.00000000000E+00  0.00000000000E+00  0.10000000000E+03  0.10000000000E+03 0.  0.
          5    1    3    3  501    0  0.25037100130E+02  0.25552316247E+02 -0.34614054249E+02  0.50000000000E+02  0.47000000000E+01 0. -1.
         -5    1    3    3    0  501 -0.25037100130E+02 -0.25552316247E+02  0.34614054249E+02  0.50000000000E+02  0.47000000000E+01 0.  1.
</event>
<event>
 5    1  0.9023675E-001  0.1000000E+03  0.7546771E-02  0.1163815E+00
         11   -1    0    0    0    0  0.00000000000E+00  0.00000000000E+00  0.50000000000E+02  0.50000000000E+02  0.00000000000E+00 0. -1.
        -11   -1    0    0    0    0 -0.00000000000E+00 -0.00000000000E+00 -0.50000000000E+02  0.50000000000E+02  0.00000000000E+00 0.  1.
         23    2    1    2    0    0  0.00000000000E+00  0.00000000000E+00  0.00000000000E+00  0.10000000000E+03  0.10000000000E+03 0.  0.
          5    1    3    3  501    0 -0.22244666373E+01  0.19882080315E+02  0.45581406632E+02  0.50000000000E+02  0.47000000000E+01 0. -1.
         -5    1    3    3    0  501  0.22244666373E+01 -0.19882080315E+02 -0.45581406632E+02  0.50000000000E+02  0.47000000000E+01 0.  1.
</event>
<event>
 5    1  0.9023675E-001  0.1000000E+03  0.7546771E-02  0.1163815E+00
         11   -1    0    0    0    0  0.00000000000E+00  0.00000000000E+00  0.50000000000E+02  0.50000000000E+02  0.00000000000E+00 0.  1.
        -11   -1    0    0    0    0 -0.00000000000E+00 -0.00000000000E+00 -0.50000000000E+02  0.50000000000E+02  0.00000000000E+00 0. -1.
         23    2    1    2    0    0  0.00000000000E+00  0.00000000000E+00  0.00000000000E+00  0.10000000000E+03  0.10000000000E+03 0.  0.
          5    1    3    3  501    0  0.26113633266E+02  0.43964524062E+01 -0.42150437292E+02  0.50000000000E+02  0.47000000000E+01 0. -1.
         -5    1    3    3    0  501 -0.26113633266E+02 -0.43964524062E+01  0.42150437292E+02  0.50000000000E+02  0.47000000000E+01 0.  1.
</event>
<event>
 5    1  0.9023675E-001  0.1000000E+03  0.7546771E-02  0.1163815E+00
         11   -1    0    0    0    0  0.00000000000E+00  0.00000000000E+00  0.50000000000E+02  0.50000000000E+02  0.00000000000E+00 0. -1.
        -11   -1    0    0    0    0 -0.00000000000E+00 -0.00000000000E+00 -0.50000000000E+02  0.50000000000E+02  0.00000000000E+00 0.  1.
         23    2    1    2    0    0  0.00000000000E+00  0.00000000000E+00  0.00000000000E+00  0.10000000000E+03  0.10000000000E+03 0.  0.
          5    1    3    3  501    0 -0.24345050635E+00 -0.32146729841E+02  0.38005769199E+02  0.50000000000E+02  0.47000000000E+01 0. -1.
         -5    1    3    3    0  501  0.24345050635E+00  0.32146729841E+02 -0.38005769199E+02  0.50000000000E+02  0.47000000000E+01 0.  1.
</event>
<event>
 5    1  0.9023675E-001  0.1000000E+03  0.7546771E-02  0.1163815E+00
         11   -1    0    0    0    0  0.00000000000E+00  0.00000000000E+00  0.50000000000E+02  0.50000000000E+02  0.00000000000E+00 0.  1.
        -11   -1    0    0    0    0 -0.00000000000E+00 -0.00000000000E+00 -0.50000000000E+02  0.50000000000E+02  0.00000000000E+00 0. -1.
         23    2    1    2    0    0  0.00000000000E+00  0.00000000000E+00  0.00000000000E+00  0.10000000000E+03  0.10000000000E+03 0.  0.
          5    1    3    3  501    0 -0.38092396108E+02  0.23707598154E+02 -0.21559896765E+02  0.50000000000E+02  0.47000000000E+01 0. -1.
         -5    1    3    3    0  501  0.38092396108E+02 -0.23707598154E+02  0.21559896765E+02  0.50000000000E+02  0.47000000000E+01 0.  1.
</event>
<event>
 5    1  0.9023675E-001  0.1000000E+03  0.7546771E-02  0.1163815E+00
         11   -1    0    0    0    0  0.00000000000E+00  0.00000000000E+00  0.50000000000E+02  0.50000000000E+02  0.00000000000E+00 0. -1.
        -11   -1    0    0    0    0 -0.00000000000E+00 -0.00000000000E+00 -0.50000000000E+02  0.50000000000E+02  0.00000000000E+00 0.  1.
         23    2    1    2    0    0  0.00000000000E+00  0.00000000000E+00  0.00000000000E+00  0.10000000000E+03  0.10000000000E+03 0.  0.
          5    1    3    3  501    0  0.14458478192E+01 -0.32000620110E+02  0.38102228762E+02  0.50000000000E+02  0.47000000000E+01 0. -1.
         -5    1    3    3    0  501 -0.14458478192E+01  0.32000620110E+02 -0.38102228762E+02  0.50000000000E+02  0.47000000000E+01 0.  1.
</event>
<event>
 5    1  0.9023675E-001  0.1000000E+03  0.7546771E-02  0.1163815E+00
         11   -1    0    0    0    0  0.00000000000E+00  0.00000000000E+00  0.50000000000E+02  0.50000000000E+02  0.00000000000E+00 0. -1.
        -11   -1    0    0    0    0 -0.00000000000E+00 -0.00000000000E+00 -0.50000000000E+02  0.50000000000E+02  0.00000000000E+00 0.  1.
         23    2    1    2    0    0  0.00000000000E+00  0.00000000000E+00  0.00000000000E+00  0.10000000000E+03  0.10000000000E+03 0.  0.
          5    1    3    3  501    0  0.49191163356E+02  0.58588587262E+01  0.48798793146E+01  0.50000000000E+02  0.47000000000E+01 0. -1.
         -5    1    3    3    0  501 -0.49191163356E+02 -0.58588587262E+01 -0.48798793146E+01  0.50000000000E+02  0.47000000000E+01 0.  1.
</event>
<event>
 5    1  0.9023675E-001  0.1000000E+03  0.7546771E-02  0.1163815E+00
         11   -1    0    0    0    0  0.00000000000E+00  0.00000000000E+00  0.50000000000E+02  0.50000000000E+02  0.00000000000E+00 0. -1.
        -11   -1    0    0    0    0 -0.00000000000E+00 -0.00000000000E+00 -0.50000000000E+02  0.50000000000E+02  0.00000000000E+00 0.  1.
         23    2    1    2    0    0  0.00000000000E+00  0.00000000000E+00  0.00000000000E+00  0.10000000000E+03  0.10000000000E+03 0.  0.
          5    1    3    3  501    0 -0.39456168938E+02  0.30127120765E+02  0.36711479317E+01  0.50000000000E+02  0.47000000000E+01 0. -1.
         -5    1    3    3    0  501  0.39456168938E+02 -0.30127120765E+02 -0.36711479317E+01  0.50000000000E+02  0.47000000000E+01 0.  1.
</event>
<event>
 5    1  0.9023675E-001  0.1000000E+03  0.7546771E-02  0.1163815E+00
         11   -1    0    0    0    0  0.00000000000E+00  0.00000000000E+00  0.50000000000E+02  0.50000000000E+02  0.00000000000E+00 0. -1.
        -11   -1    0    0    0    0 -0.00000000000E+00 -0.00000000000E+00 -0.50000000000E+02  0.50000000000E+02  0.00000000000E+00 0.  1.
         23    2    1    2    0    0  0.00000000000E+00  0.00000000000E+00  0.00000000000E+00  0.10000000000E+03  0.10000000000E+03 0.  0.
          5    1    3    3  501    0 -0.23359026081E+02  0.18585845721E+02  0.39835062940E+02  0.50000000000E+02  0.47000000000E+01 0. -1.
         -5    1    3    3    0  501  0.23359026081E+02 -0.18585845721E+02 -0.39835062940E+02  0.50000000000E+02  0.47000000000E+01 0.  1.
</event>
<event>
 5    1  0.9023675E-001  0.1000000E+03  0.7546771E-02  0.1163815E+00
         11   -1    0    0    0    0  0.00000000000E+00  0.00000000000E+00  0.50000000000E+02  0.50000000000E+02  0.00000000000E+00 0. -1.
        -11   -1    0    0    0    0 -0.00000000000E+00 -0.00000000000E+00 -0.50000000000E+02  0.50000000000E+02  0.00000000000E+00 0.  1.
         23    2    1    2    0    0  0.00000000000E+00  0.00000000000E+00  0.00000000000E+00  0.10000000000E+03  0.10000000000E+03 0.  0.
          5    1    3    3  501    0 -0.11539413635E+02 -0.43978552793E+02 -0.20264225305E+02  0.50000000000E+02  0.47000000000E+01 0. -1.
         -5    1    3    3    0  501  0.11539413635E+02  0.43978552793E+02  0.20264225305E+02  0.50000000000E+02  0.47000000000E+01 0.  1.
</event>
<event>
 5    1  0.9023675E-001  0.1000000E+03  0.7546771E-02  0.1163815E+00
         11   -1    0    0    0    0  0.00000000000E+00  0.00000000000E+00  0.50000000000E+02  0.50000000000E+02  0.00000000000E+00 0. -1.
        -11   -1    0    0    0    0 -0.00000000000E+00 -0.00000000000E+00 -0.50000000000E+02  0.50000000000E+02  0.00000000000E+00 0.  1.
         23    2    1    2    0    0  0.00000000000E+00  0.00000000000E+00  0.00000000000E+00  0.10000000000E+03  0.10000000000E+03 0.  0.
          5    1    3    3  501    0 -0.43251351771E+02  0.39812847551E+01  0.24318304663E+02  0.50000000000E+02  0.47000000000E+01 0. -1.
         -5    1    3    3    0  501  0.43251351771E+02 -0.39812847551E+01 -0.24318304663E+02  0.50000000000E+02  0.47000000000E+01 0.  1.
</event>
<event>
 5    1  0.9023675E-001  0.1000000E+03  0.7546771E-02  0.1163815E+00
         11   -1    0    0    0    0  0.00000000000E+00  0.00000000000E+00  0.50000000000E+02  0.50000000000E+02  0.00000000000E+00 0.  1.
        -11   -1    0    0    0    0 -0.00000000000E+00 -0.00000000000E+00 -0.50000000000E+02  0.50000000000E+02  0.00000000000E+00 0. -1.
         23    2    1    2    0    0  0.00000000000E+00  0.00000000000E+00  0.00000000000E+00  0.10000000000E+03  0.10000000000E+03 0.  0.
          5    1    3    3  501    0  0.17415146554E+02 -0.23578606617E+02 -0.40232722758E+02  0.50000000000E+02  0.47000000000E+01 0. -1.
         -5    1    3    3    0  501 -0.17415146554E+02  0.23578606617E+02  0.40232722758E+02  0.50000000000E+02  0.47000000000E+01 0.  1.
</event>
<event>
 5    1  0.9023675E-001  0.1000000E+03  0.7546771E-02  0.1163815E+00
         11   -1    0    0    0    0  0.00000000000E+00  0.00000000000E+00  0.50000000000E+02  0.50000000000E+02  0.00000000000E+00 0. -1.
        -11   -1    0    0    0    0 -0.00000000000E+00 -0.00000000000E+00 -0.50000000000E+02  0.50000000000E+02  0.00000000000E+00 0.  1.
         23    2    1    2    0    0  0.00000000000E+00  0.00000000000E+00  0.00000000000E+00  0.10000000000E+03  0.10000000000E+03 0.  0.
          5    1    3    3  501    0 -0.22281697414E+01  0.72080411948E+01  0.49203550703E+02  0.50000000000E+02  0.47000000000E+01 0. -1.
         -5    1    3    3    0  501  0.22281697414E+01 -0.72080411948E+01 -0.49203550703E+02  0.50000000000E+02  0.47000000000E+01 0.  1.
</event>
<event>
 5    1  0.9023675E-001  0.1000000E+03  0.7546771E-02  0.1163815E+00
         11   -1    0    0    0    0  0.00000000000E+00  0.00000000000E+00  0.50000000000E+02  0.50000000000E+02  0.00000000000E+00 0. -1.
        -11   -1    0    0    0    0 -0.00000000000E+00 -0.00000000000E+00 -0.50000000000E+02  0.50000000000E+02  0.00000000000E+00 0.  1.
         23    2    1    2    0    0  0.00000000000E+00  0.00000000000E+00  0.00000000000E+00  0.10000000000E+03  0.10000000000E+03 0.  0.
          5    1    3    3  501    0 -0.36502272511E+02  0.44005732513E+01  0.33557846424E+02  0.50000000000E+02  0.47000000000E+01 0. -1.
         -5    1    3    3    0  501  0.36502272511E+02 -0.44005732513E+01 -0.33557846424E+02  0.50000000000E+02  0.47000000000E+01 0.  1.
</event>
<event>
 5    1  0.9023675E-001  0.1000000E+03  0.7546771E-02  0.1163815E+00
         11   -1    0    0    0    0  0.00000000000E+00  0.00000000000E+00  0.50000000000E+02  0.50000000000E+02  0.00000000000E+00 0. -1.
        -11   -1    0    0    0    0 -0.00000000000E+00 -0.00000000000E+00 -0.50000000000E+02  0.50000000000E+02  0.00000000000E+00 0.  1.
         23    2    1    2    0    0  0.00000000000E+00  0.00000000000E+00  0.00000000000E+00  0.10000000000E+03  0.10000000000E+03 0.  0.
          5    1    3    3  501    0  0.37812258717E+02  0.22573857277E+02  0.23206982965E+02  0.50000000000E+02  0.47000000000E+01 0. -1.
         -5    1    3    3    0  501 -0.37812258717E+02 -0.22573857277E+02 -0.23206982965E+02  0.50000000000E+02  0.47000000000E+01 0.  1.
</event>
<event>
 5    1  0.9023675E-001  0.1000000E+03  0.7546771E-02  0.1163815E+00
         11   -1    0    0    0    0  0.00000000000E+00  0.00000000000E+00  0.50000000000E+02  0.50000000000E+02  0.00000000000E+00 0. -1.
        -11   -1    0    0    0    0 -0.00000000000E+00 -0.00000000000E+00 -0.50000000000E+02  0.50000000000E+02  0.00000000000E+00 0.  1.
         23    2    1    2    0    0  0.00000000000E+00  0.00000000000E+00  0.00000000000E+00  0.10000000000E+03  0.10000000000E+03 0.  0.
          5    1    3    3  501    0 -0.39866922602E+02 -0.15974352370E+02 -0.25166615756E+02  0.50000000000E+02  0.47000000000E+01 0. -1.
         -5    1    3    3    0  501  0.39866922602E+02  0.15974352370E+02  0.25166615756E+02  0.50000000000E+02  0.47000000000E+01 0.  1.
</event>
<event>
 5    1  0.9023675E-001  0.1000000E+03  0.7546771E-02  0.1163815E+00
         11   -1    0    0    0    0  0.00000000000E+00  0.00000000000E+00  0.50000000000E+02  0.50000000000E+02  0.00000000000E+00 0. -1.
        -11   -1    0    0    0    0 -0.00000000000E+00 -0.00000000000E+00 -0.50000000000E+02  0.50000000000E+02  0.00000000000E+00 0.  1.
         23    2    1    2    0    0  0.00000000000E+00  0.00000000000E+00  0.00000000000E+00  0.10000000000E+03  0.10000000000E+03 0.  0.
          5    1    3    3  501    0  0.19179005476E+02 -0.32163706548E+02  0.32795910264E+02  0.50000000000E+02  0.47000000000E+01 0. -1.
         -5    1    3    3    0  501 -0.19179005476E+02  0.32163706548E+02 -0.32795910264E+02  0.50000000000E+02  0.47000000000E+01 0.  1.
</event>
<event>
 5    1  0.9023675E-001  0.1000000E+03  0.7546771E-02  0.1163815E+00
         11   -1    0    0    0    0  0.00000000000E+00  0.00000000000E+00  0.50000000000E+02  0.50000000000E+02  0.00000000000E+00 0.  1.
        -11   -1    0    0    0    0 -0.00000000000E+00 -0.00000000000E+00 -0.50000000000E+02  0.50000000000E+02  0.00000000000E+00 0. -1.
         23    2    1    2    0    0  0.00000000000E+00  0.00000000000E+00  0.00000000000E+00  0.10000000000E+03  0.10000000000E+03 0.  0.
          5    1    3    3  501    0 -0.45357384354E+02  0.89784338619E+01 -0.18439235613E+02  0.50000000000E+02  0.47000000000E+01 0. -1.
         -5    1    3    3    0  501  0.45357384354E+02 -0.89784338619E+01  0.18439235613E+02  0.50000000000E+02  0.47000000000E+01 0.  1.
</event>
<event>
 5    1  0.9023675E-001  0.1000000E+03  0.7546771E-02  0.1163815E+00
         11   -1    0    0    0    0  0.00000000000E+00  0.00000000000E+00  0.50000000000E+02  0.50000000000E+02  0.00000000000E+00 0.  1.
        -11   -1    0    0    0    0 -0.00000000000E+00 -0.00000000000E+00 -0.50000000000E+02  0.50000000000E+02  0.00000000000E+00 0. -1.
         23    2    1    2    0    0  0.00000000000E+00  0.00000000000E+00  0.00000000000E+00  0.10000000000E+03  0.10000000000E+03 0.  0.
          5    1    3    3  501    0 -0.28034313897E+02 -0.22444330782E+02 -0.34470846524E+02  0.50000000000E+02  0.47000000000E+01 0. -1.
         -5    1    3    3    0  501  0.28034313897E+02  0.22444330782E+02  0.34470846524E+02  0.50000000000E+02  0.47000000000E+01 0.  1.
</event>
<event>
 5    1  0.9023675E-001  0.1000000E+03  0.7546771E-02  0.1163815E+00
         11   -1    0    0    0    0  0.00000000000E+00  0.00000000000E+00  0.50000000000E+02  0.50000000000E+02  0.00000000000E+00 0.  1.
        -11   -1    0    0    0    0 -0.00000000000E+00 -0.00000000000E+00 -0.50000000000E+02  0.50000000000E+02  0.00000000000E+00 0. -1.
         23    2    1    2    0    0  0.00000000000E+00  0.00000000000E+00  0.00000000000E+00  0.10000000000E+03  0.10000000000E+03 0.  0.
          5    1    3    3  501    0  0.38892700255E+02 -0.15156764633E+02 -0.27120847198E+02  0.50000000000E+02  0.47000000000E+01 0. -1.
         -5    1    3    3    0  501 -0.38892700255E+02  0.15156764633E+02  0.27120847198E+02  0.50000000000E+02  0.47000000000E+01 0.  1.
</event>
<event>
 5    1  0.9023675E-001  0.1000000E+03  0.7546771E-02  0.1163815E+00
         11   -1    0    0    0    0  0.00000000000E+00  0.00000000000E+00  0.50000000000E+02  0.50000000000E+02  0.00000000000E+00 0. -1.
        -11   -1    0    0    0    0 -0.00000000000E+00 -0.00000000000E+00 -0.50000000000E+02  0.50000000000E+02  0.00000000000E+00 0.  1.
         23    2    1    2    0    0  0.00000000000E+00  0.00000000000E+00  0.00000000000E+00  0.10000000000E+03  0.10000000000E+03 0.  0.
          5    1    3    3  501    0  0.24300224969E+02  0.59887523264E+01  0.43029570205E+02  0.50000000000E+02  0.47000000000E+01 0. -1.
         -5    1    3    3    0  501 -0.24300224969E+02 -0.59887523264E+01 -0.43029570205E+02  0.50000000000E+02  0.47000000000E+01 0.  1.
</event>
<event>
 5    1  0.9023675E-001  0.1000000E+03  0.7546771E-02  0.1163815E+00
         11   -1    0    0    0    0  0.00000000000E+00  0.00000000000E+00  0.50000000000E+02  0.50000000000E+02  0.00000000000E+00 0. -1.
        -11   -1    0    0    0    0 -0.00000000000E+00 -0.00000000000E+00 -0.50000000000E+02  0.50000000000E+02  0.00000000000E+00 0.  1.
         23    2    1    2    0    0  0.00000000000E+00  0.00000000000E+00  0.00000000000E+00  0.10000000000E+03  0.10000000000E+03 0.  0.
          5    1    3    3  501    0  0.17442964131E+02 -0.23814534890E+02  0.40081428746E+02  0.50000000000E+02  0.47000000000E+01 0. -1.
         -5    1    3    3    0  501 -0.17442964131E+02  0.23814534890E+02 -0.40081428746E+02  0.50000000000E+02  0.47000000000E+01 0.  1.
</event>
<event>
 5    1  0.9023675E-001  0.1000000E+03  0.7546771E-02  0.1163815E+00
         11   -1    0    0    0    0  0.00000000000E+00  0.00000000000E+00  0.50000000000E+02  0.50000000000E+02  0.00000000000E+00 0.  1.
        -11   -1    0    0    0    0 -0.00000000000E+00 -0.00000000000E+00 -0.50000000000E+02  0.50000000000E+02  0.00000000000E+00 0. -1.
         23    2    1    2    0    0  0.00000000000E+00  0.00000000000E+00  0.00000000000E+00  0.10000000000E+03  0.10000000000E+03 0.  0.
          5    1    3    3  501    0 -0.20897184644E+02  0.18031877520E+02 -0.41425463993E+02  0.50000000000E+02  0.47000000000E+01 0. -1.
         -5    1    3    3    0  501  0.20897184644E+02 -0.18031877520E+02  0.41425463993E+02  0.50000000000E+02  0.47000000000E+01 0.  1.
</event>
<event>
 5    1  0.9023675E-001  0.1000000E+03  0.7546771E-02  0.1163815E+00
         11   -1    0    0    0    0  0.00000000000E+00  0.00000000000E+00  0.50000000000E+02  0.50000000000E+02  0.00000000000E+00 0. -1.
        -11   -1    0    0    0    0 -0.00000000000E+00 -0.00000000000E+00 -0.50000000000E+02  0.50000000000E+02  0.00000000000E+00 0.  1.
         23    2    1    2    0    0  0.00000000000E+00  0.00000000000E+00  0.00000000000E+00  0.10000000000E+03  0.10000000000E+03 0.  0.
          5    1    3    3  501    0 -0.17011246737E+02 -0.15762761660E+02  0.44046144318E+02  0.50000000000E+02  0.47000000000E+01 0. -1.
         -5    1    3    3    0  501  0.17011246737E+02  0.15762761660E+02 -0.44046144318E+02  0.50000000000E+02  0.47000000000E+01 0.  1.
</event>
<event>
 5    1  0.9023675E-001  0.1000000E+03  0.7546771E-02  0.1163815E+00
         11   -1    0    0    0    0  0.00000000000E+00  0.00000000000E+00  0.50000000000E+02  0.50000000000E+02  0.00000000000E+00 0. -1.
        -11   -1    0    0    0    0 -0.00000000000E+00 -0.00000000000E+00 -0.50000000000E+02  0.50000000000E+02  0.00000000000E+00 0.  1.
         23    2    1    2    0    0  0.00000000000E+00  0.00000000000E+00  0.00000000000E+00  0.10000000000E+03  0.10000000000E+03 0.  0.
          5    1    3    3  501    0 -0.48506244926E+02 -0.10428072691E+02 -0.40385025819E+01  0.50000000000E+02  0.47000000000E+01 0. -1.
         -5    1    3    3    0  501  0.48506244926E+02  0.10428072691E+02  0.40385025819E+01  0.50000000000E+02  0.47000000000E+01 0.  1.
</event>
<event>
 5    1  0.9023675E-001  0.1000000E+03  0.7546771E-02  0.1163815E+00
         11   -1    0    0    0    0  0.00000000000E+00  0.00000000000E+00  0.50000000000E+02  0.50000000000E+02  0.00000000000E+00 0.  1.
        -11   -1    0    0    0    0 -0.00000000000E+00 -0.00000000000E+00 -0.50000000000E+02  0.50000000000E+02  0.00000000000E+00 0. -1.
         23    2    1    2    0    0  0.00000000000E+00  0.00000000000E+00  0.00000000000E+00  0.10000000000E+03  0.10000000000E+03 0.  0.
          5    1    3    3  501    0 -0.89119824052E+01  0.30138866379E+02 -0.38602270697E+02  0.50000000000E+02  0.47000000000E+01 0. -1.
         -5    1    3    3    0  501  0.89119824052E+01 -0.30138866379E+02  0.38602270697E+02  0.50000000000E+02  0.47000000000E+01 0.  1.
</event>
<event>
 5    1  0.9023675E-001  0.1000000E+03  0.7546771E-02  0.1163815E+00
         11   -1    0    0    0    0  0.00000000000E+00  0.00000000000E+00  0.50000000000E+02  0.50000000000E+02  0.00000000000E+00 0.  1.
        -11   -1    0    0    0    0 -0.00000000000E+00 -0.00000000000E+00 -0.50000000000E+02  0.50000000000E+02  0.00000000000E+00 0. -1.
         23    2    1    2    0    0  0.00000000000E+00  0.00000000000E+00  0.00000000000E+00  0.10000000000E+03  0.10000000000E+03 0.  0.
          5    1    3    3  501    0  0.30480726986E+02 -0.17410870442E+02 -0.35294431188E+02  0.50000000000E+02  0.47000000000E+01 0. -1.
         -5    1    3    3    0  501 -0.30480726986E+02  0.17410870442E+02  0.35294431188E+02  0.50000000000E+02  0.47000000000E+01 0.  1.
</event>
<event>
 5    1  0.9023675E-001  0.1000000E+03  0.7546771E-02  0.1163815E+00
         11   -1    0    0    0    0  0.00000000000E+00  0.00000000000E+00  0.50000000000E+02  0.50000000000E+02  0.00000000000E+00 0. -1.
        -11   -1    0    0    0    0 -0.00000000000E+00 -0.00000000000E+00 -0.50000000000E+02  0.50000000000E+02  0.00000000000E+00 0.  1.
         23    2    1    2    0    0  0.00000000000E+00  0.00000000000E+00  0.00000000000E+00  0.10000000000E+03  0.10000000000E+03 0.  0.
          5    1    3    3  501    0  0.11658066300E+02  0.10646348730E+02  0.47208630025E+02  0.50000000000E+02  0.47000000000E+01 0. -1.
         -5    1    3    3    0  501 -0.11658066300E+02 -0.10646348730E+02 -0.47208630025E+02  0.50000000000E+02  0.47000000000E+01 0.  1.
</event>
<event>
 5    1  0.9023675E-001  0.1000000E+03  0.7546771E-02  0.1163815E+00
         11   -1    0    0    0    0  0.00000000000E+00  0.00000000000E+00  0.50000000000E+02  0.50000000000E+02  0.00000000000E+00 0.  1.
        -11   -1    0    0    0    0 -0.00000000000E+00 -0.00000000000E+00 -0.50000000000E+02  0.50000000000E+02  0.00000000000E+00 0. -1.
         23    2    1    2    0    0  0.00000000000E+00  0.00000000000E+00  0.00000000000E+00  0.10000000000E+03  0.10000000000E+03 0.  0.
          5    1    3    3  501    0  0.44789575880E+02  0.20951818523E+02 -0.57293274564E+01  0.50000000000E+02  0.47000000000E+01 0. -1.
         -5    1    3    3    0  501 -0.44789575880E+02 -0.20951818523E+02  0.57293274564E+01  0.50000000000E+02  0.47000000000E+01 0.  1.
</event>
<event>
 5    1  0.9023675E-001  0.1000000E+03  0.7546771E-02  0.1163815E+00
         11   -1    0    0    0    0  0.00000000000E+00  0.00000000000E+00  0.50000000000E+02  0.50000000000E+02  0.00000000000E+00 0. -1.
        -11   -1    0    0    0    0 -0.00000000000E+00 -0.00000000000E+00 -0.50000000000E+02  0.50000000000E+02  0.00000000000E+00 0.  1.
         23    2    1    2    0    0  0.00000000000E+00  0.00000000000E+00  0.00000000000E+00  0.10000000000E+03  0.10000000000E+03 0.  0.
          5    1    3    3  501    0  0.17452395048E+02  0.45112767435E+02  0.11754238447E+02  0.50000000000E+02  0.47000000000E+01 0. -1.
         -5    1    3    3    0  501 -0.17452395048E+02 -0.45112767435E+02 -0.11754238447E+02  0.50000000000E+02  0.47000000000E+01 0.  1.
</event>
<event>
 5    1  0.9023675E-001  0.1000000E+03  0.7546771E-02  0.1163815E+00
         11   -1    0    0    0    0  0.00000000000E+00  0.00000000000E+00  0.50000000000E+02  0.50000000000E+02  0.00000000000E+00 0. -1.
        -11   -1    0    0    0    0 -0.00000000000E+00 -0.00000000000E+00 -0.50000000000E+02  0.50000000000E+02  0.00000000000E+00 0.  1.
         23    2    1    2    0    0  0.00000000000E+00  0.00000000000E+00  0.00000000000E+00  0.10000000000E+03  0.10000000000E+03 0.  0.
          5    1    3    3  501    0 -0.94633945744E+01 -0.47102811439E+02 -0.13026101399E+02  0.50000000000E+02  0.47000000000E+01 0. -1.
         -5    1    3    3    0  501  0.94633945744E+01  0.47102811439E+02  0.13026101399E+02  0.50000000000E+02  0.47000000000E+01 0.  1.
</event>
<event>
 5    1  0.9023675E-001  0.1000000E+03  0.7546771E-02  0.1163815E+00
         11   -1    0    0    0    0  0.00000000000E+00  0.00000000000E+00  0.50000000000E+02  0.50000000000E+02  0.00000000000E+00 0. -1.
        -11   -1    0    0    0    0 -0.00000000000E+00 -0.00000000000E+00 -0.50000000000E+02  0.50000000000E+02  0.00000000000E+00 0.  1.
         23    2    1    2    0    0  0.00000000000E+00  0.00000000000E+00  0.00000000000E+00  0.10000000000E+03  0.10000000000E+03 0.  0.
          5    1    3    3  501    0  0.40117300826E+02 -0.15700119017E+02  0.24940297457E+02  0.50000000000E+02  0.47000000000E+01 0. -1.
         -5    1    3    3    0  501 -0.40117300826E+02  0.15700119017E+02 -0.24940297457E+02  0.50000000000E+02  0.47000000000E+01 0.  1.
</event>
<event>
 5    1  0.9023675E-001  0.1000000E+03  0.7546771E-02  0.1163815E+00
         11   -1    0    0    0    0  0.00000000000E+00  0.00000000000E+00  0.50000000000E+02  0.50000000000E+02  0.00000000000E+00 0. -1.
        -11   -1    0    0    0    0 -0.00000000000E+00 -0.00000000000E+00 -0.50000000000E+02  0.50000000000E+02  0.00000000000E+00 0.  1.
         23    2    1    2    0    0  0.00000000000E+00  0.00000000000E+00  0.00000000000E+00  0.10000000000E+03  0.10000000000E+03 0.  0.
          5    1    3    3  501    0  0.17506981175E+02 -0.41997249107E+02  0.20190261949E+02  0.50000000000E+02  0.47000000000E+01 0. -1.
         -5    1    3    3    0  501 -0.17506981175E+02  0.41997249107E+02 -0.20190261949E+02  0.50000000000E+02  0.47000000000E+01 0.  1.
</event>
<event>
 5    1  0.9023675E-001  0.1000000E+03  0.7546771E-02  0.1163815E+00
         11   -1    0    0    0    0  0.00000000000E+00  0.00000000000E+00  0.50000000000E+02  0.50000000000E+02  0.00000000000E+00 0. -1.
        -11   -1    0    0    0    0 -0.00000000000E+00 -0.00000000000E+00 -0.50000000000E+02  0.50000000000E+02  0.00000000000E+00 0.  1.
         23    2    1    2    0    0  0.00000000000E+00  0.00000000000E+00  0.00000000000E+00  0.10000000000E+03  0.10000000000E+03 0.  0.
          5    1    3    3  501    0  0.23576491792E+02  0.12628231993E+02  0.41983172718E+02  0.50000000000E+02  0.47000000000E+01 0. -1.
         -5    1    3    3    0  501 -0.23576491792E+02 -0.12628231993E+02 -0.41983172718E+02  0.50000000000E+02  0.47000000000E+01 0.  1.
</event>
<event>
 5    1  0.9023675E-001  0.1000000E+03  0.7546771E-02  0.1163815E+00
         11   -1    0    0    0    0  0.00000000000E+00  0.00000000000E+00  0.50000000000E+02  0.50000000000E+02  0.00000000000E+00 0. -1.
        -11   -1    0    0    0    0 -0.00000000000E+00 -0.00000000000E+00 -0.50000000000E+02  0.50000000000E+02  0.00000000000E+00 0.  1.
         23    2    1    2    0    0  0.00000000000E+00  0.00000000000E+00  0.00000000000E+00  0.10000000000E+03  0.10000000000E+03 0.  0.
          5    1    3    3  501    0 -0.13767937355E+02  0.19795705187E+02  0.43548638981E+02  0.50000000000E+02  0.47000000000E+01 0. -1.
         -5    1    3    3    0  501  0.13767937355E+02 -0.19795705187E+02 -0.43548638981E+02  0.50000000000E+02  0.47000000000E+01 0.  1.
</event>
<event>
 5    1  0.9023675E-001  0.1000000E+03  0.7546771E-02  0.1163815E+00
         11   -1    0    0    0    0  0.00000000000E+00  0.00000000000E+00  0.50000000000E+02  0.50000000000E+02  0.00000000000E+00 0. -1.
        -11   -1    0    0    0    0 -0.00000000000E+00 -0.00000000000E+00 -0.50000000000E+02  0.50000000000E+02  0.00000000000E+00 0.  1.
         23    2    1    2    0    0  0.00000000000E+00  0.00000000000E+00  0.00000000000E+00  0.10000000000E+03  0.10000000000E+03 0.  0.
          5    1    3    3  501    0 -0.26240334694E+02  0.42298214610E+02 -0.46462447682E+00  0.50000000000E+02  0.47000000000E+01 0. -1.
         -5    1    3    3    0  501  0.26240334694E+02 -0.42298214610E+02  0.46462447682E+00  0.50000000000E+02  0.47000000000E+01 0.  1.
</event>
<event>
 5    1  0.9023675E-001  0.1000000E+03  0.7546771E-02  0.1163815E+00
         11   -1    0    0    0    0  0.00000000000E+00  0.00000000000E+00  0.50000000000E+02  0.50000000000E+02  0.00000000000E+00 0. -1.
        -11   -1    0    0    0    0 -0.00000000000E+00 -0.00000000000E+00 -0.50000000000E+02  0.50000000000E+02  0.00000000000E+00 0.  1.
         23    2    1    2    0    0  0.00000000000E+00  0.00000000000E+00  0.00000000000E+00  0.10000000000E+03  0.10000000000E+03 0.  0.
          5    1    3    3  501    0  0.19620373554E+02 -0.45148941270E+02  0.73840398018E+01  0.50000000000E+02  0.47000000000E+01 0. -1.
         -5    1    3    3    0  501 -0.19620373554E+02  0.45148941270E+02 -0.73840398018E+01  0.50000000000E+02  0.47000000000E+01 0.  1.
</event>
<event>
 5    1  0.9023675E-001  0.1000000E+03  0.7546771E-02  0.1163815E+00
         11   -1    0    0    0    0  0.00000000000E+00  0.00000000000E+00  0.50000000000E+02  0.50000000000E+02  0.00000000000E+00 0. -1.
        -11   -1    0    0    0    0 -0.00000000000E+00 -0.00000000000E+00 -0.50000000000E+02  0.50000000000E+02  0.00000000000E+00 0.  1.
         23    2    1    2    0    0  0.00000000000E+00  0.00000000000E+00  0.00000000000E+00  0.10000000000E+03  0.10000000000E+03 0.  0.
          5    1    3    3  501    0  0.23957422519E+02 -0.41429398194E+02 -0.13695140434E+02  0.50000000000E+02  0.47000000000E+01 0. -1.
         -5    1    3    3    0  501 -0.23957422519E+02  0.41429398194E+02  0.13695140434E+02  0.50000000000E+02  0.47000000000E+01 0.  1.
</event>
<event>
 5    1  0.9023675E-001  0.1000000E+03  0.7546771E-02  0.1163815E+00
         11   -1    0    0    0    0  0.00000000000E+00  0.00000000000E+00  0.50000000000E+02  0.50000000000E+02  0.00000000000E+00 0. -1.
        -11   -1    0    0    0    0 -0.00000000000E+00 -0.00000000000E+00 -0.50000000000E+02  0.50000000000E+02  0.00000000000E+00 0.  1.
         23    2    1    2    0    0  0.00000000000E+00  0.00000000000E+00  0.00000000000E+00  0.10000000000E+03  0.10000000000E+03 0.  0.
          5    1    3    3  501    0  0.47746180380E+02  0.97738152393E+01  0.10133350620E+02  0.50000000000E+02  0.47000000000E+01 0. -1.
         -5    1    3    3    0  501 -0.47746180380E+02 -0.97738152393E+01 -0.10133350620E+02  0.50000000000E+02  0.47000000000E+01 0.  1.
</event>
<event>
 5    1  0.9023675E-001  0.1000000E+03  0.7546771E-02  0.1163815E+00
         11   -1    0    0    0    0  0.00000000000E+00  0.00000000000E+00  0.50000000000E+02  0.50000000000E+02  0.00000000000E+00 0. -1.
        -11   -1    0    0    0    0 -0.00000000000E+00 -0.00000000000E+00 -0.50000000000E+02  0.50000000000E+02  0.00000000000E+00 0.  1.
         23    2    1    2    0    0  0.00000000000E+00  0.00000000000E+00  0.00000000000E+00  0.10000000000E+03  0.10000000000E+03 0.  0.
          5    1    3    3  501    0  0.21056013003E+02  0.45095569248E+02  0.97157119425E+00  0.50000000000E+02  0.47000000000E+01 0. -1.
         -5    1    3    3    0  501 -0.21056013003E+02 -0.45095569248E+02 -0.97157119425E+00  0.50000000000E+02  0.47000000000E+01 0.  1.
</event>
<event>
 5    1  0.9023675E-001  0.1000000E+03  0.7546771E-02  0.1163815E+00
         11   -1    0    0    0    0  0.00000000000E+00  0.00000000000E+00  0.50000000000E+02  0.50000000000E+02  0.00000000000E+00 0.  1.
        -11   -1    0    0    0    0 -0.00000000000E+00 -0.00000000000E+00 -0.50000000000E+02  0.50000000000E+02  0.00000000000E+00 0. -1.
         23    2    1    2    0    0  0.00000000000E+00  0.00000000000E+00  0.00000000000E+00  0.10000000000E+03  0.10000000000E+03 0.  0.
          5    1    3    3  501    0 -0.52002432383E+01  0.39375899995E+01 -0.49349395693E+02  0.50000000000E+02  0.47000000000E+01 0. -1.
         -5    1    3    3    0  501  0.52002432383E+01 -0.39375899995E+01  0.49349395693E+02  0.50000000000E+02  0.47000000000E+01 0.  1.
</event>
<event>
 5    1  0.9023675E-001  0.1000000E+03  0.7546771E-02  0.1163815E+00
         11   -1    0    0    0    0  0.00000000000E+00  0.00000000000E+00  0.50000000000E+02  0.50000000000E+02  0.00000000000E+00 0. -1.
        -11   -1    0    0    0    0 -0.00000000000E+00 -0.00000000000E+00 -0.50000000000E+02  0.50000000000E+02  0.00000000000E+00 0.  1.
         23    2    1    2    0    0  0.00000000000E+00  0.00000000000E+00  0.00000000000E+00  0.10000000000E+03  0.10000000000E+03 0.  0.
          5    1    3    3  501    0  0.11627350634E+01 -0.28895911580E+02  0.40516469998E+02  0.50000000000E+02  0.47000000000E+01 0. -1.
         -5    1    3    3    0  501 -0.11627350634E+01  0.28895911580E+02 -0.40516469998E+02  0.50000000000E+02  0.47000000000E+01 0.  1.
</event>
<event>
 5    1  0.9023675E-001  0.1000000E+03  0.7546771E-02  0.1163815E+00
         11   -1    0    0    0    0  0.00000000000E+00  0.00000000000E+00  0.50000000000E+02  0.50000000000E+02  0.00000000000E+00 0.  1.
        -11   -1    0    0    0    0 -0.00000000000E+00 -0.00000000000E+00 -0.50000000000E+02  0.50000000000E+02  0.00000000000E+00 0. -1.
         23    2    1    2    0    0  0.00000000000E+00  0.00000000000E+00  0.00000000000E+00  0.10000000000E+03  0.10000000000E+03 0.  0.
          5    1    3    3  501    0 -0.19434506536E+02 -0.32341890119E+02  0.32468632543E+02  0.50000000000E+02  0.47000000000E+01 0. -1.
         -5    1    3    3    0  501  0.19434506536E+02  0.32341890119E+02 -0.32468632543E+02  0.50000000000E+02  0.47000000000E+01 0.  1.
</event>
<event>
 5    1  0.9023675E-001  0.1000000E+03  0.7546771E-02  0.1163815E+00
         11   -1    0    0    0    0  0.00000000000E+00  0.00000000000E+00  0.50000000000E+02  0.50000000000E+02  0.00000000000E+00 0. -1.
        -11   -1    0    0    0    0 -0.00000000000E+00 -0.00000000000E+00 -0.50000000000E+02  0.50000000000E+02  0.00000000000E+00 0.  1.
         23    2    1    2    0    0  0.00000000000E+00  0.00000000000E+00  0.00000000000E+00  0.10000000000E+03  0.10000000000E+03 0.  0.
          5    1    3    3  501    0  0.45611643725E+02 -0.72944508561E+00 -0.19923751318E+02  0.50000000000E+02  0.47000000000E+01 0. -1.
         -5    1    3    3    0  501 -0.45611643725E+02  0.72944508561E+00  0.19923751318E+02  0.50000000000E+02  0.47000000000E+01 0.  1.
</event>
<event>
 5    1  0.9023675E-001  0.1000000E+03  0.7546771E-02  0.1163815E+00
         11   -1    0    0    0    0  0.00000000000E+00  0.00000000000E+00  0.50000000000E+02  0.50000000000E+02  0.00000000000E+00 0.  1.
        -11   -1    0    0    0    0 -0.00000000000E+00 -0.00000000000E+00 -0.50000000000E+02  0.50000000000E+02  0.00000000000E+00 0. -1.
         23    2    1    2    0    0  0.00000000000E+00  0.00000000000E+00  0.00000000000E+00  0.10000000000E+03  0.10000000000E+03 0.  0.
          5    1    3    3  501    0  0.94095839596E+01  0.74710531601E+01 -0.48306863843E+02  0.50000000000E+02  0.47000000000E+01 0. -1.
         -5    1    3    3    0  501 -0.94095839596E+01 -0.74710531601E+01  0.48306863843E+02  0.50000000000E+02  0.47000000000E+01 0.  1.
</event>
<event>
 5    1  0.9023675E-001  0.1000000E+03  0.7546771E-02  0.1163815E+00
         11   -1    0    0    0    0  0.00000000000E+00  0.00000000000E+00  0.50000000000E+02  0.50000000000E+02  0.00000000000E+00 0.  1.
        -11   -1    0    0    0    0 -0.00000000000E+00 -0.00000000000E+00 -0.50000000000E+02  0.50000000000E+02  0.00000000000E+00 0. -1.
         23    2    1    2    0    0  0.00000000000E+00  0.00000000000E+00  0.00000000000E+00  0.10000000000E+03  0.10000000000E+03 0.  0.
          5    1    3    3  501    0 -0.11188016406E+02  0.65276093200E+01 -0.48063797243E+02  0.50000000000E+02  0.47000000000E+01 0. -1.
         -5    1    3    3    0  501  0.11188016406E+02 -0.65276093200E+01  0.48063797243E+02  0.50000000000E+02  0.47000000000E+01 0.  1.
</event>
<event>
 5    1  0.9023675E-001  0.1000000E+03  0.7546771E-02  0.1163815E+00
         11   -1    0    0    0    0  0.00000000000E+00  0.00000000000E+00  0.50000000000E+02  0.50000000000E+02  0.00000000000E+00 0. -1.
        -11   -1    0    0    0    0 -0.00000000000E+00 -0.00000000000E+00 -0.50000000000E+02  0.50000000000E+02  0.00000000000E+00 0.  1.
         23    2    1    2    0    0  0.00000000000E+00  0.00000000000E+00  0.00000000000E+00  0.10000000000E+03  0.10000000000E+03 0.  0.
          5    1    3    3  501    0 -0.27042191863E+02  0.38177207328E+02  0.17003843681E+02  0.50000000000E+02  0.47000000000E+01 0. -1.
         -5    1    3    3    0  501  0.27042191863E+02 -0.38177207328E+02 -0.17003843681E+02  0.50000000000E+02  0.47000000000E+01 0.  1.
</event>
<event>
 5    1  0.9023675E-001  0.1000000E+03  0.7546771E-02  0.1163815E+00
         11   -1    0    0    0    0  0.00000000000E+00  0.00000000000E+00  0.50000000000E+02  0.50000000000E+02  0.00000000000E+00 0. -1.
        -11   -1    0    0    0    0 -0.00000000000E+00 -0.00000000000E+00 -0.50000000000E+02  0.50000000000E+02  0.00000000000E+00 0.  1.
         23    2    1    2    0    0  0.00000000000E+00  0.00000000000E+00  0.00000000000E+00  0.10000000000E+03  0.10000000000E+03 0.  0.
          5    1    3    3  501    0  0.25262160985E+02  0.33114805871E+02  0.27260646627E+02  0.50000000000E+02  0.47000000000E+01 0. -1.
         -5    1    3    3    0  501 -0.25262160985E+02 -0.33114805871E+02 -0.27260646627E+02  0.50000000000E+02  0.47000000000E+01 0.  1.
</event>
<event>
 5    1  0.9023675E-001  0.1000000E+03  0.7546771E-02  0.1163815E+00
         11   -1    0    0    0    0  0.00000000000E+00  0.00000000000E+00  0.50000000000E+02  0.50000000000E+02  0.00000000000E+00 0. -1.
        -11   -1    0    0    0    0 -0.00000000000E+00 -0.00000000000E+00 -0.50000000000E+02  0.50000000000E+02  0.00000000000E+00 0.  1.
         23    2    1    2    0    0  0.00000000000E+00  0.00000000000E+00  0.00000000000E+00  0.10000000000E+03  0.10000000000E+03 0.  0.
          5    1    3    3  501    0 -0.36437986180E+02 -0.33029443462E+02  0.76966893988E+01  0.50000000000E+02  0.47000000000E+01 0. -1.
         -5    1    3    3    0  501  0.36437986180E+02  0.33029443462E+02 -0.76966893988E+01  0.50000000000E+02  0.47000000000E+01 0.  1.
</event>
<event>
 5    1  0.9023675E-001  0.1000000E+03  0.7546771E-02  0.1163815E+00
         11   -1    0    0    0    0  0.00000000000E+00  0.00000000000E+00  0.50000000000E+02  0.50000000000E+02  0.00000000000E+00 0. -1.
        -11   -1    0    0    0    0 -0.00000000000E+00 -0.00000000000E+00 -0.50000000000E+02  0.50000000000E+02  0.00000000000E+00 0.  1.
         23    2    1    2    0    0  0.00000000000E+00  0.00000000000E+00  0.00000000000E+00  0.10000000000E+03  0.10000000000E+03 0.  0.
          5    1    3    3  501    0  0.22240917219E+01 -0.17039234022E+02  0.46718603574E+02  0.50000000000E+02  0.47000000000E+01 0. -1.
         -5    1    3    3    0  501 -0.22240917219E+01  0.17039234022E+02 -0.46718603574E+02  0.50000000000E+02  0.47000000000E+01 0.  1.
</event>
<event>
 5    1  0.9023675E-001  0.1000000E+03  0.7546771E-02  0.1163815E+00
         11   -1    0    0    0    0  0.00000000000E+00  0.00000000000E+00  0.50000000000E+02  0.50000000000E+02  0.00000000000E+00 0.  1.
        -11   -1    0    0    0    0 -0.00000000000E+00 -0.00000000000E+00 -0.50000000000E+02  0.50000000000E+02  0.00000000000E+00 0. -1.
         23    2    1    2    0    0  0.00000000000E+00  0.00000000000E+00  0.00000000000E+00  0.10000000000E+03  0.10000000000E+03 0.  0.
          5    1    3    3  501    0 -0.49198609187E+02  0.48085776329E-01 -0.75765785011E+01  0.50000000000E+02  0.47000000000E+01 0. -1.
         -5    1    3    3    0  501  0.49198609187E+02 -0.48085776329E-01  0.75765785011E+01  0.50000000000E+02  0.47000000000E+01 0.  1.
</event>
<event>
 5    1  0.9023675E-001  0.1000000E+03  0.7546771E-02  0.1163815E+00
         11   -1    0    0    0    0  0.00000000000E+00  0.00000000000E+00  0.50000000000E+02  0.50000000000E+02  0.00000000000E+00 0.  1.
        -11   -1    0    0    0    0 -0.00000000000E+00 -0.00000000000E+00 -0.50000000000E+02  0.50000000000E+02  0.00000000000E+00 0. -1.
         23    2    1    2    0    0  0.00000000000E+00  0.00000000000E+00  0.00000000000E+00  0.10000000000E+03  0.10000000000E+03 0.  0.
          5    1    3    3  501    0 -0.42251715769E+02 -0.19808797515E+01 -0.26244592395E+02  0.50000000000E+02  0.47000000000E+01 0. -1.
         -5    1    3    3    0  501  0.42251715769E+02  0.19808797515E+01  0.26244592395E+02  0.50000000000E+02  0.47000000000E+01 0.  1.
</event>
<event>
 5    1  0.9023675E-001  0.1000000E+03  0.7546771E-02  0.1163815E+00
         11   -1    0    0    0    0  0.00000000000E+00  0.00000000000E+00  0.50000000000E+02  0.50000000000E+02  0.00000000000E+00 0. -1.
        -11   -1    0    0    0    0 -0.00000000000E+00 -0.00000000000E+00 -0.50000000000E+02  0.50000000000E+02  0.00000000000E+00 0.  1.
         23    2    1    2    0    0  0.00000000000E+00  0.00000000000E+00  0.00000000000E+00  0.10000000000E+03  0.10000000000E+03 0.  0.
          5    1    3    3  501    0  0.22848286156E+02  0.43835263489E+01  0.44007391612E+02  0.50000000000E+02  0.47000000000E+01 0. -1.
         -5    1    3    3    0  501 -0.22848286156E+02 -0.43835263489E+01 -0.44007391612E+02  0.50000000000E+02  0.47000000000E+01 0.  1.
</event>
<event>
 5    1  0.9023675E-001  0.1000000E+03  0.7546771E-02  0.1163815E+00
         11   -1    0    0    0    0  0.00000000000E+00  0.00000000000E+00  0.50000000000E+02  0.50000000000E+02  0.00000000000E+00 0. -1.
        -11   -1    0    0    0    0 -0.00000000000E+00 -0.00000000000E+00 -0.50000000000E+02  0.50000000000E+02  0.00000000000E+00 0.  1.
         23    2    1    2    0    0  0.00000000000E+00  0.00000000000E+00  0.00000000000E+00  0.10000000000E+03  0.10000000000E+03 0.  0.
          5    1    3    3  501    0  0.48425572966E+02  0.31109409676E+01 -0.11099366164E+02  0.50000000000E+02  0.47000000000E+01 0. -1.
         -5    1    3    3    0  501 -0.48425572966E+02 -0.31109409676E+01  0.11099366164E+02  0.50000000000E+02  0.47000000000E+01 0.  1.
</event>
<event>
 5    1  0.9023675E-001  0.1000000E+03  0.7546771E-02  0.1163815E+00
         11   -1    0    0    0    0  0.00000000000E+00  0.00000000000E+00  0.50000000000E+02  0.50000000000E+02  0.00000000000E+00 0. -1.
        -11   -1    0    0    0    0 -0.00000000000E+00 -0.00000000000E+00 -0.50000000000E+02  0.50000000000E+02  0.00000000000E+00 0.  1.
         23    2    1    2    0    0  0.00000000000E+00  0.00000000000E+00  0.00000000000E+00  0.10000000000E+03  0.10000000000E+03 0.  0.
          5    1    3    3  501    0 -0.40104122272E+02  0.16406161898E+02 -0.24503208536E+02  0.50000000000E+02  0.47000000000E+01 0. -1.
         -5    1    3    3    0  501  0.40104122272E+02 -0.16406161898E+02  0.24503208536E+02  0.50000000000E+02  0.47000000000E+01 0.  1.
</event>
<event>
 5    1  0.9023675E-001  0.1000000E+03  0.7546771E-02  0.1163815E+00
         11   -1    0    0    0    0  0.00000000000E+00  0.00000000000E+00  0.50000000000E+02  0.50000000000E+02  0.00000000000E+00 0.  1.
        -11   -1    0    0    0    0 -0.00000000000E+00 -0.00000000000E+00 -0.50000000000E+02  0.50000000000E+02  0.00000000000E+00 0. -1.
         23    2    1    2    0    0  0.00000000000E+00  0.00000000000E+00  0.00000000000E+00  0.10000000000E+03  0.10000000000E+03 0.  0.
          5    1    3    3  501    0 -0.46690947121E+02 -0.14913861125E+02 -0.86857471348E+01  0.50000000000E+02  0.47000000000E+01 0. -1.
         -5    1    3    3    0  501  0.46690947121E+02  0.14913861125E+02  0.86857471348E+01  0.50000000000E+02  0.47000000000E+01 0.  1.
</event>
<event>
 5    1  0.9023675E-001  0.1000000E+03  0.7546771E-02  0.1163815E+00
         11   -1    0    0    0    0  0.00000000000E+00  0.00000000000E+00  0.50000000000E+02  0.50000000000E+02  0.00000000000E+00 0. -1.
        -11   -1    0    0    0    0 -0.00000000000E+00 -0.00000000000E+00 -0.50000000000E+02  0.50000000000E+02  0.00000000000E+00 0.  1.
         23    2    1    2    0    0  0.00000000000E+00  0.00000000000E+00  0.00000000000E+00  0.10000000000E+03  0.10000000000E+03 0.  0.
          5    1    3    3  501    0  0.21345582837E+02 -0.41773516169E+02  0.16650808996E+02  0.50000000000E+02  0.47000000000E+01 0. -1.
         -5    1    3    3    0  501 -0.21345582837E+02  0.41773516169E+02 -0.16650808996E+02  0.50000000000E+02  0.47000000000E+01 0.  1.
</event>
<event>
 5    1  0.9023675E-001  0.1000000E+03  0.7546771E-02  0.1163815E+00
         11   -1    0    0    0    0  0.00000000000E+00  0.00000000000E+00  0.50000000000E+02  0.50000000000E+02  0.00000000000E+00 0. -1.
        -11   -1    0    0    0    0 -0.00000000000E+00 -0.00000000000E+00 -0.50000000000E+02  0.50000000000E+02  0.00000000000E+00 0.  1.
         23    2    1    2    0    0  0.00000000000E+00  0.00000000000E+00  0.00000000000E+00  0.10000000000E+03  0.10000000000E+03 0.  0.
          5    1    3    3  501    0  0.28044689978E+02 -0.63180121834E+01  0.40638504969E+02  0.50000000000E+02  0.47000000000E+01 0. -1.
         -5    1    3    3    0  501 -0.28044689978E+02  0.63180121834E+01 -0.40638504969E+02  0.50000000000E+02  0.47000000000E+01 0.  1.
</event>
<event>
 5    1  0.9023675E-001  0.1000000E+03  0.7546771E-02  0.1163815E+00
         11   -1    0    0    0    0  0.00000000000E+00  0.00000000000E+00  0.50000000000E+02  0.50000000000E+02  0.00000000000E+00 0.  1.
        -11   -1    0    0    0    0 -0.00000000000E+00 -0.00000000000E+00 -0.50000000000E+02  0.50000000000E+02  0.00000000000E+00 0. -1.
         23    2    1    2    0    0  0.00000000000E+00  0.00000000000E+00  0.00000000000E+00  0.10000000000E+03  0.10000000000E+03 0.  0.
          5    1    3    3  501    0  0.95854544115E+01  0.47417991354E+02 -0.11728732226E+02  0.50000000000E+02  0.47000000000E+01 0. -1.
         -5    1    3    3    0  501 -0.95854544115E+01 -0.47417991354E+02  0.11728732226E+02  0.50000000000E+02  0.47000000000E+01 0.  1.
</event>
<event>
 5    1  0.9023675E-001  0.1000000E+03  0.7546771E-02  0.1163815E+00
         11   -1    0    0    0    0  0.00000000000E+00  0.00000000000E+00  0.50000000000E+02  0.50000000000E+02  0.00000000000E+00 0. -1.
        -11   -1    0    0    0    0 -0.00000000000E+00 -0.00000000000E+00 -0.50000000000E+02  0.50000000000E+02  0.00000000000E+00 0.  1.
         23    2    1    2    0    0  0.00000000000E+00  0.00000000000E+00  0.00000000000E+00  0.10000000000E+03  0.10000000000E+03 0.  0.
          5    1    3    3  501    0  0.16798272193E+02 -0.33252748450E+02  0.33014887125E+02  0.50000000000E+02  0.47000000000E+01 0. -1.
         -5    1    3    3    0  501 -0.16798272193E+02  0.33252748450E+02 -0.33014887125E+02  0.50000000000E+02  0.47000000000E+01 0.  1.
</event>
<event>
 5    1  0.9023675E-001  0.1000000E+03  0.7546771E-02  0.1163815E+00
         11   -1    0    0    0    0  0.00000000000E+00  0.00000000000E+00  0.50000000000E+02  0.50000000000E+02  0.00000000000E+00 0. -1.
        -11   -1    0    0    0    0 -0.00000000000E+00 -0.00000000000E+00 -0.50000000000E+02  0.50000000000E+02  0.00000000000E+00 0.  1.
         23    2    1    2    0    0  0.00000000000E+00  0.00000000000E+00  0.00000000000E+00  0.10000000000E+03  0.10000000000E+03 0.  0.
          5    1    3    3  501    0  0.30363000041E+02 -0.29337700610E+01  0.39336893901E+02  0.50000000000E+02  0.47000000000E+01 0. -1.
         -5    1    3    3    0  501 -0.30363000041E+02  0.29337700610E+01 -0.39336893901E+02  0.50000000000E+02  0.47000000000E+01 0.  1.
</event>
<event>
 5    1  0.9023675E-001  0.1000000E+03  0.7546771E-02  0.1163815E+00
         11   -1    0    0    0    0  0.00000000000E+00  0.00000000000E+00  0.50000000000E+02  0.50000000000E+02  0.00000000000E+00 0.  1.
        -11   -1    0    0    0    0 -0.00000000000E+00 -0.00000000000E+00 -0.50000000000E+02  0.50000000000E+02  0.00000000000E+00 0. -1.
         23    2    1    2    0    0  0.00000000000E+00  0.00000000000E+00  0.00000000000E+00  0.10000000000E+03  0.10000000000E+03 0.  0.
          5    1    3    3  501    0 -0.39233936331E+02 -0.96541370614E+01 -0.29075864176E+02  0.50000000000E+02  0.47000000000E+01 0. -1.
         -5    1    3    3    0  501  0.39233936331E+02  0.96541370614E+01  0.29075864176E+02  0.50000000000E+02  0.47000000000E+01 0.  1.
</event>
<event>
 5    1  0.9023675E-001  0.1000000E+03  0.7546771E-02  0.1163815E+00
         11   -1    0    0    0    0  0.00000000000E+00  0.00000000000E+00  0.50000000000E+02  0.50000000000E+02  0.00000000000E+00 0.  1.
        -11   -1    0    0    0    0 -0.00000000000E+00 -0.00000000000E+00 -0.50000000000E+02  0.50000000000E+02  0.00000000000E+00 0. -1.
         23    2    1    2    0    0  0.00000000000E+00  0.00000000000E+00  0.00000000000E+00  0.10000000000E+03  0.10000000000E+03 0.  0.
          5    1    3    3  501    0  0.37852899317E+02 -0.27841833504E+02  0.16428643292E+02  0.50000000000E+02  0.47000000000E+01 0. -1.
         -5    1    3    3    0  501 -0.37852899317E+02  0.27841833504E+02 -0.16428643292E+02  0.50000000000E+02  0.47000000000E+01 0.  1.
</event>
<event>
 5    1  0.9023675E-001  0.1000000E+03  0.7546771E-02  0.1163815E+00
         11   -1    0    0    0    0  0.00000000000E+00  0.00000000000E+00  0.50000000000E+02  0.50000000000E+02  0.00000000000E+00 0. -1.
        -11   -1    0    0    0    0 -0.00000000000E+00 -0.00000000000E+00 -0.50000000000E+02  0.50000000000E+02  0.00000000000E+00 0.  1.
         23    2    1    2    0    0  0.00000000000E+00  0.00000000000E+00  0.00000000000E+00  0.10000000000E+03  0.10000000000E+03 0.  0.
          5    1    3    3  501    0  0.11056037242E+02  0.12699836214E+02  0.46844297418E+02  0.50000000000E+02  0.47000000000E+01 0. -1.
         -5    1    3    3    0  501 -0.11056037242E+02 -0.12699836214E+02 -0.46844297418E+02  0.50000000000E+02  0.47000000000E+01 0.  1.
</event>
<event>
 5    1  0.9023675E-001  0.1000000E+03  0.7546771E-02  0.1163815E+00
         11   -1    0    0    0    0  0.00000000000E+00  0.00000000000E+00  0.50000000000E+02  0.50000000000E+02  0.00000000000E+00 0. -1.
        -11   -1    0    0    0    0 -0.00000000000E+00 -0.00000000000E+00 -0.50000000000E+02  0.50000000000E+02  0.00000000000E+00 0.  1.
         23    2    1    2    0    0  0.00000000000E+00  0.00000000000E+00  0.00000000000E+00  0.10000000000E+03  0.10000000000E+03 0.  0.
          5    1    3    3  501    0  0.37360690541E+01 -0.47118086366E+02  0.15615304199E+02  0.50000000000E+02  0.47000000000E+01 0. -1.
         -5    1    3    3    0  501 -0.37360690541E+01  0.47118086366E+02 -0.15615304199E+02  0.50000000000E+02  0.47000000000E+01 0.  1.
</event>
<event>
 5    1  0.9023675E-001  0.1000000E+03  0.7546771E-02  0.1163815E+00
         11   -1    0    0    0    0  0.00000000000E+00  0.00000000000E+00  0.50000000000E+02  0.50000000000E+02  0.00000000000E+00 0. -1.
        -11   -1    0    0    0    0 -0.00000000000E+00 -0.00000000000E+00 -0.50000000000E+02  0.50000000000E+02  0.00000000000E+00 0.  1.
         23    2    1    2    0    0  0.00000000000E+00  0.00000000000E+00  0.00000000000E+00  0.10000000000E+03  0.10000000000E+03 0.  0.
          5    1    3    3  501    0 -0.22846091776E+02  0.23460882945E+02  0.37490706342E+02  0.50000000000E+02  0.47000000000E+01 0. -1.
         -5    1    3    3    0  501  0.22846091776E+02 -0.23460882945E+02 -0.37490706342E+02  0.50000000000E+02  0.47000000000E+01 0.  1.
</event>
<event>
 5    1  0.9023675E-001  0.1000000E+03  0.7546771E-02  0.1163815E+00
         11   -1    0    0    0    0  0.00000000000E+00  0.00000000000E+00  0.50000000000E+02  0.50000000000E+02  0.00000000000E+00 0. -1.
        -11   -1    0    0    0    0 -0.00000000000E+00 -0.00000000000E+00 -0.50000000000E+02  0.50000000000E+02  0.00000000000E+00 0.  1.
         23    2    1    2    0    0  0.00000000000E+00  0.00000000000E+00  0.00000000000E+00  0.10000000000E+03  0.10000000000E+03 0.  0.
          5    1    3    3  501    0 -0.32569630404E+02 -0.27743288643E+02  0.25444824830E+02  0.50000000000E+02  0.47000000000E+01 0. -1.
         -5    1    3    3    0  501  0.32569630404E+02  0.27743288643E+02 -0.25444824830E+02  0.50000000000E+02  0.47000000000E+01 0.  1.
</event>
<event>
 5    1  0.9023675E-001  0.1000000E+03  0.7546771E-02  0.1163815E+00
         11   -1    0    0    0    0  0.00000000000E+00  0.00000000000E+00  0.50000000000E+02  0.50000000000E+02  0.00000000000E+00 0. -1.
        -11   -1    0    0    0    0 -0.00000000000E+00 -0.00000000000E+00 -0.50000000000E+02  0.50000000000E+02  0.00000000000E+00 0.  1.
         23    2    1    2    0    0  0.00000000000E+00  0.00000000000E+00  0.00000000000E+00  0.10000000000E+03  0.10000000000E+03 0.  0.
          5    1    3    3  501    0 -0.15318727807E+02  0.34391902188E+02  0.32564453661E+02  0.50000000000E+02  0.47000000000E+01 0. -1.
         -5    1    3    3    0  501  0.15318727807E+02 -0.34391902188E+02 -0.32564453661E+02  0.50000000000E+02  0.47000000000E+01 0.  1.
</event>
<event>
 5    1  0.9023675E-001  0.1000000E+03  0.7546771E-02  0.1163815E+00
         11   -1    0    0    0    0  0.00000000000E+00  0.00000000000E+00  0.50000000000E+02  0.50000000000E+02  0.00000000000E+00 0. -1.
        -11   -1    0    0    0    0 -0.00000000000E+00 -0.00000000000E+00 -0.50000000000E+02  0.50000000000E+02  0.00000000000E+00 0.  1.
         23    2    1    2    0    0  0.00000000000E+00  0.00000000000E+00  0.00000000000E+00  0.10000000000E+03  0.10000000000E+03 0.  0.
          5    1    3    3  501    0 -0.10081292999E+02 -0.14591115020E+02  0.46512115561E+02  0.50000000000E+02  0.47000000000E+01 0. -1.
         -5    1    3    3    0  501  0.10081292999E+02  0.14591115020E+02 -0.46512115561E+02  0.50000000000E+02  0.47000000000E+01 0.  1.
</event>
<event>
 5    1  0.9023675E-001  0.1000000E+03  0.7546771E-02  0.1163815E+00
         11   -1    0    0    0    0  0.00000000000E+00  0.00000000000E+00  0.50000000000E+02  0.50000000000E+02  0.00000000000E+00 0. -1.
        -11   -1    0    0    0    0 -0.00000000000E+00 -0.00000000000E+00 -0.50000000000E+02  0.50000000000E+02  0.00000000000E+00 0.  1.
         23    2    1    2    0    0  0.00000000000E+00  0.00000000000E+00  0.00000000000E+00  0.10000000000E+03  0.10000000000E+03 0.  0.
          5    1    3    3  501    0  0.13791277139E+02  0.69445373822E+01  0.47323187503E+02  0.50000000000E+02  0.47000000000E+01 0. -1.
         -5    1    3    3    0  501 -0.13791277139E+02 -0.69445373822E+01 -0.47323187503E+02  0.50000000000E+02  0.47000000000E+01 0.  1.
</event>
<event>
 5    1  0.9023675E-001  0.1000000E+03  0.7546771E-02  0.1163815E+00
         11   -1    0    0    0    0  0.00000000000E+00  0.00000000000E+00  0.50000000000E+02  0.50000000000E+02  0.00000000000E+00 0.  1.
        -11   -1    0    0    0    0 -0.00000000000E+00 -0.00000000000E+00 -0.50000000000E+02  0.50000000000E+02  0.00000000000E+00 0. -1.
         23    2    1    2    0    0  0.00000000000E+00  0.00000000000E+00  0.00000000000E+00  0.10000000000E+03  0.10000000000E+03 0.  0.
          5    1    3    3  501    0 -0.53550896658E+01  0.13980552620E+01 -0.49469975300E+02  0.50000000000E+02  0.47000000000E+01 0. -1.
         -5    1    3    3    0  501  0.53550896658E+01 -0.13980552620E+01  0.49469975300E+02  0.50000000000E+02  0.47000000000E+01 0.  1.
</event>
<event>
 5    1  0.9023675E-001  0.1000000E+03  0.7546771E-02  0.1163815E+00
         11   -1    0    0    0    0  0.00000000000E+00  0.00000000000E+00  0.50000000000E+02  0.50000000000E+02  0.00000000000E+00 0. -1.
        -11   -1    0    0    0    0 -0.00000000000E+00 -0.00000000000E+00 -0.50000000000E+02  0.50000000000E+02  0.00000000000E+00 0.  1.
         23    2    1    2    0    0  0.00000000000E+00  0.00000000000E+00  0.00000000000E+00  0.10000000000E+03  0.10000000000E+03 0.  0.
          5    1    3    3  501    0  0.13305889491E+02 -0.55164578496E+01  0.47649050333E+02  0.50000000000E+02  0.47000000000E+01 0. -1.
         -5    1    3    3    0  501 -0.13305889491E+02  0.55164578496E+01 -0.47649050333E+02  0.50000000000E+02  0.47000000000E+01 0.  1.
</event>
<event>
 5    1  0.9023675E-001  0.1000000E+03  0.7546771E-02  0.1163815E+00
         11   -1    0    0    0    0  0.00000000000E+00  0.00000000000E+00  0.50000000000E+02  0.50000000000E+02  0.00000000000E+00 0. -1.
        -11   -1    0    0    0    0 -0.00000000000E+00 -0.00000000000E+00 -0.50000000000E+02  0.50000000000E+02  0.00000000000E+00 0.  1.
         23    2    1    2    0    0  0.00000000000E+00  0.00000000000E+00  0.00000000000E+00  0.10000000000E+03  0.10000000000E+03 0.  0.
          5    1    3    3  501    0 -0.47046189534E+02  0.15500571896E+02  0.49293327371E+01  0.50000000000E+02  0.47000000000E+01 0. -1.
         -5    1    3    3    0  501  0.47046189534E+02 -0.15500571896E+02 -0.49293327371E+01  0.50000000000E+02  0.47000000000E+01 0.  1.
</event>
<event>
 5    1  0.9023675E-001  0.1000000E+03  0.7546771E-02  0.1163815E+00
         11   -1    0    0    0    0  0.00000000000E+00  0.00000000000E+00  0.50000000000E+02  0.50000000000E+02  0.00000000000E+00 0.  1.
        -11   -1    0    0    0    0 -0.00000000000E+00 -0.00000000000E+00 -0.50000000000E+02  0.50000000000E+02  0.00000000000E+00 0. -1.
         23    2    1    2    0    0  0.00000000000E+00  0.00000000000E+00  0.00000000000E+00  0.10000000000E+03  0.10000000000E+03 0.  0.
          5    1    3    3  501    0  0.91036481785E+01 -0.47057717186E+02 -0.13438930130E+02  0.50000000000E+02  0.47000000000E+01 0. -1.
         -5    1    3    3    0  501 -0.91036481785E+01  0.47057717186E+02  0.13438930130E+02  0.50000000000E+02  0.47000000000E+01 0.  1.
</event>
<event>
 5    1  0.9023675E-001  0.1000000E+03  0.7546771E-02  0.1163815E+00
         11   -1    0    0    0    0  0.00000000000E+00  0.00000000000E+00  0.50000000000E+02  0.50000000000E+02  0.00000000000E+00 0.  1.
        -11   -1    0    0    0    0 -0.00000000000E+00 -0.00000000000E+00 -0.50000000000E+02  0.50000000000E+02  0.00000000000E+00 0. -1.
         23    2    1    2    0    0  0.00000000000E+00  0.00000000000E+00  0.00000000000E+00  0.10000000000E+03  0.10000000000E+03 0.  0.
          5    1    3    3  501    0  0.41221710467E+02 -0.99252082944E+00 -0.27887192196E+02  0.50000000000E+02  0.47000000000E+01 0. -1.
         -5    1    3    3    0  501 -0.41221710467E+02  0.99252082944E+00  0.27887192196E+02  0.50000000000E+02  0.47000000000E+01 0.  1.
</event>
<event>
 5    1  0.9023675E-001  0.1000000E+03  0.7546771E-02  0.1163815E+00
         11   -1    0    0    0    0  0.00000000000E+00  0.00000000000E+00  0.50000000000E+02  0.50000000000E+02  0.00000000000E+00 0. -1.
        -11   -1    0    0    0    0 -0.00000000000E+00 -0.00000000000E+00 -0.50000000000E+02  0.50000000000E+02  0.00000000000E+00 0.  1.
         23    2    1    2    0    0  0.00000000000E+00  0.00000000000E+00  0.00000000000E+00  0.10000000000E+03  0.10000000000E+03 0.  0.
          5    1    3    3  501    0  0.25345147083E+02 -0.39632839265E+02 -0.16271802948E+02  0.50000000000E+02  0.47000000000E+01 0. -1.
         -5    1    3    3    0  501 -0.25345147083E+02  0.39632839265E+02  0.16271802948E+02  0.50000000000E+02  0.47000000000E+01 0.  1.
</event>
<event>
 5    1  0.9023675E-001  0.1000000E+03  0.7546771E-02  0.1163815E+00
         11   -1    0    0    0    0  0.00000000000E+00  0.00000000000E+00  0.50000000000E+02  0.50000000000E+02  0.00000000000E+00 0. -1.
        -11   -1    0    0    0    0 -0.00000000000E+00 -0.00000000000E+00 -0.50000000000E+02  0.50000000000E+02  0.00000000000E+00 0.  1.
         23    2    1    2    0    0  0.00000000000E+00  0.00000000000E+00  0.00000000000E+00  0.10000000000E+03  0.10000000000E+03 0.  0.
          5    1    3    3  501    0 -0.40503799839E+02  0.16252728614E+02  0.23941616720E+02  0.50000000000E+02  0.47000000000E+01 0. -1.
         -5    1    3    3    0  501  0.40503799839E+02 -0.16252728614E+02 -0.23941616720E+02  0.50000000000E+02  0.47000000000E+01 0.  1.
</event>
<event>
 5    1  0.9023675E-001  0.1000000E+03  0.7546771E-02  0.1163815E+00
         11   -1    0    0    0    0  0.00000000000E+00  0.00000000000E+00  0.50000000000E+02  0.50000000000E+02  0.00000000000E+00 0.  1.
        -11   -1    0    0    0    0 -0.00000000000E+00 -0.00000000000E+00 -0.50000000000E+02  0.50000000000E+02  0.00000000000E+00 0. -1.
         23    2    1    2    0    0  0.00000000000E+00  0.00000000000E+00  0.00000000000E+00  0.10000000000E+03  0.10000000000E+03 0.  0.
          5    1    3    3  501    0  0.18820059588E+02  0.43795149027E+02 -0.14342255011E+02  0.50000000000E+02  0.47000000000E+01 0. -1.
         -5    1    3    3    0  501 -0.18820059588E+02 -0.43795149027E+02  0.14342255011E+02  0.50000000000E+02  0.47000000000E+01 0.  1.
</event>
<event>
 5    1  0.9023675E-001  0.1000000E+03  0.7546771E-02  0.1163815E+00
         11   -1    0    0    0    0  0.00000000000E+00  0.00000000000E+00  0.50000000000E+02  0.50000000000E+02  0.00000000000E+00 0.  1.
        -11   -1    0    0    0    0 -0.00000000000E+00 -0.00000000000E+00 -0.50000000000E+02  0.50000000000E+02  0.00000000000E+00 0. -1.
         23    2    1    2    0    0  0.00000000000E+00  0.00000000000E+00  0.00000000000E+00  0.10000000000E+03  0.10000000000E+03 0.  0.
          5    1    3    3  501    0  0.48931256119E+01 -0.17373613504E+02 -0.46390999941E+02  0.50000000000E+02  0.47000000000E+01 0. -1.
         -5    1    3    3    0  501 -0.48931256119E+01  0.17373613504E+02  0.46390999941E+02  0.50000000000E+02  0.47000000000E+01 0.  1.
</event>
<event>
 5    1  0.9023675E-001  0.1000000E+03  0.7546771E-02  0.1163815E+00
         11   -1    0    0    0    0  0.00000000000E+00  0.00000000000E+00  0.50000000000E+02  0.50000000000E+02  0.00000000000E+00 0. -1.
        -11   -1    0    0    0    0 -0.00000000000E+00 -0.00000000000E+00 -0.50000000000E+02  0.50000000000E+02  0.00000000000E+00 0.  1.
         23    2    1    2    0    0  0.00000000000E+00  0.00000000000E+00  0.00000000000E+00  0.10000000000E+03  0.10000000000E+03 0.  0.
          5    1    3    3  501    0 -0.23211206332E+02  0.40901360175E+02  0.16316514225E+02  0.50000000000E+02  0.47000000000E+01 0. -1.
         -5    1    3    3    0  501  0.23211206332E+02 -0.40901360175E+02 -0.16316514225E+02  0.50000000000E+02  0.47000000000E+01 0.  1.
</event>
<event>
 5    1  0.9023675E-001  0.1000000E+03  0.7546771E-02  0.1163815E+00
         11   -1    0    0    0    0  0.00000000000E+00  0.00000000000E+00  0.50000000000E+02  0.50000000000E+02  0.00000000000E+00 0. -1.
        -11   -1    0    0    0    0 -0.00000000000E+00 -0.00000000000E+00 -0.50000000000E+02  0.50000000000E+02  0.00000000000E+00 0.  1.
         23    2    1    2    0    0  0.00000000000E+00  0.00000000000E+00  0.00000000000E+00  0.10000000000E+03  0.10000000000E+03 0.  0.
          5    1    3    3  501    0 -0.47488030964E+02  0.10482723682E+00 -0.14926015087E+02  0.50000000000E+02  0.47000000000E+01 0. -1.
         -5    1    3    3    0  501  0.47488030964E+02 -0.10482723682E+00  0.14926015087E+02  0.50000000000E+02  0.47000000000E+01 0.  1.
</event>
<event>
 5    1  0.9023675E-001  0.1000000E+03  0.7546771E-02  0.1163815E+00
         11   -1    0    0    0    0  0.00000000000E+00  0.00000000000E+00  0.50000000000E+02  0.50000000000E+02  0.00000000000E+00 0. -1.
        -11   -1    0    0    0    0 -0.00000000000E+00 -0.00000000000E+00 -0.50000000000E+02  0.50000000000E+02  0.00000000000E+00 0.  1.
         23    2    1    2    0    0  0.00000000000E+00  0.00000000000E+00  0.00000000000E+00  0.10000000000E+03  0.10000000000E+03 0.  0.
          5    1    3    3  501    0 -0.47523366530E+02 -0.23547369868E-01  0.14813476269E+02  0.50000000000E+02  0.47000000000E+01 0. -1.
         -5    1    3    3    0  501  0.47523366530E+02  0.23547369868E-01 -0.14813476269E+02  0.50000000000E+02  0.47000000000E+01 0.  1.
</event>
<event>
 5    1  0.9023675E-001  0.1000000E+03  0.7546771E-02  0.1163815E+00
         11   -1    0    0    0    0  0.00000000000E+00  0.00000000000E+00  0.50000000000E+02  0.50000000000E+02  0.00000000000E+00 0. -1.
        -11   -1    0    0    0    0 -0.00000000000E+00 -0.00000000000E+00 -0.50000000000E+02  0.50000000000E+02  0.00000000000E+00 0.  1.
         23    2    1    2    0    0  0.00000000000E+00  0.00000000000E+00  0.00000000000E+00  0.10000000000E+03  0.10000000000E+03 0.  0.
          5    1    3    3  501    0 -0.34736125139E+02 -0.33561935352E+02  0.12037778273E+02  0.50000000000E+02  0.47000000000E+01 0. -1.
         -5    1    3    3    0  501  0.34736125139E+02  0.33561935352E+02 -0.12037778273E+02  0.50000000000E+02  0.47000000000E+01 0.  1.
</event>
<event>
 5    1  0.9023675E-001  0.1000000E+03  0.7546771E-02  0.1163815E+00
         11   -1    0    0    0    0  0.00000000000E+00  0.00000000000E+00  0.50000000000E+02  0.50000000000E+02  0.00000000000E+00 0. -1.
        -11   -1    0    0    0    0 -0.00000000000E+00 -0.00000000000E+00 -0.50000000000E+02  0.50000000000E+02  0.00000000000E+00 0.  1.
         23    2    1    2    0    0  0.00000000000E+00  0.00000000000E+00  0.00000000000E+00  0.10000000000E+03  0.10000000000E+03 0.  0.
          5    1    3    3  501    0  0.48419318135E+02  0.11552594906E+02  0.13108130776E+00  0.50000000000E+02  0.47000000000E+01 0. -1.
         -5    1    3    3    0  501 -0.48419318135E+02 -0.11552594906E+02 -0.13108130776E+00  0.50000000000E+02  0.47000000000E+01 0.  1.
</event>
<event>
 5    1  0.9023675E-001  0.1000000E+03  0.7546771E-02  0.1163815E+00
         11   -1    0    0    0    0  0.00000000000E+00  0.00000000000E+00  0.50000000000E+02  0.50000000000E+02  0.00000000000E+00 0.  1.
        -11   -1    0    0    0    0 -0.00000000000E+00 -0.00000000000E+00 -0.50000000000E+02  0.50000000000E+02  0.00000000000E+00 0. -1.
         23    2    1    2    0    0  0.00000000000E+00  0.00000000000E+00  0.00000000000E+00  0.10000000000E+03  0.10000000000E+03 0.  0.
          5    1    3    3  501    0  0.64109063757E+01 -0.40129910842E+02 -0.28747183084E+02  0.50000000000E+02  0.47000000000E+01 0. -1.
         -5    1    3    3    0  501 -0.64109063757E+01  0.40129910842E+02  0.28747183084E+02  0.50000000000E+02  0.47000000000E+01 0.  1.
</event>
<event>
 5    1  0.9023675E-001  0.1000000E+03  0.7546771E-02  0.1163815E+00
         11   -1    0    0    0    0  0.00000000000E+00  0.00000000000E+00  0.50000000000E+02  0.50000000000E+02  0.00000000000E+00 0.  1.
        -11   -1    0    0    0    0 -0.00000000000E+00 -0.00000000000E+00 -0.50000000000E+02  0.50000000000E+02  0.00000000000E+00 0. -1.
         23    2    1    2    0    0  0.00000000000E+00  0.00000000000E+00  0.00000000000E+00  0.10000000000E+03  0.10000000000E+03 0.  0.
          5    1    3    3  501    0  0.10144004294E+02  0.79364519685E+01 -0.48083488923E+02  0.50000000000E+02  0.47000000000E+01 0. -1.
         -5    1    3    3    0  501 -0.10144004294E+02 -0.79364519685E+01  0.48083488923E+02  0.50000000000E+02  0.47000000000E+01 0.  1.
</event>
<event>
 5    1  0.9023675E-001  0.1000000E+03  0.7546771E-02  0.1163815E+00
         11   -1    0    0    0    0  0.00000000000E+00  0.00000000000E+00  0.50000000000E+02  0.50000000000E+02  0.00000000000E+00 0. -1.
        -11   -1    0    0    0    0 -0.00000000000E+00 -0.00000000000E+00 -0.50000000000E+02  0.50000000000E+02  0.00000000000E+00 0.  1.
         23    2    1    2    0    0  0.00000000000E+00  0.00000000000E+00  0.00000000000E+00  0.10000000000E+03  0.10000000000E+03 0.  0.
          5    1    3    3  501    0  0.49449188488E+02  0.11957378329E+01  0.55908826615E+01  0.50000000000E+02  0.47000000000E+01 0. -1.
         -5    1    3    3    0  501 -0.49449188488E+02 -0.11957378329E+01 -0.55908826615E+01  0.50000000000E+02  0.47000000000E+01 0.  1.
</event>
<event>
 5    1  0.9023675E-001  0.1000000E+03  0.7546771E-02  0.1163815E+00
         11   -1    0    0    0    0  0.00000000000E+00  0.00000000000E+00  0.50000000000E+02  0.50000000000E+02  0.00000000000E+00 0.  1.
        -11   -1    0    0    0    0 -0.00000000000E+00 -0.00000000000E+00 -0.50000000000E+02  0.50000000000E+02  0.00000000000E+00 0. -1.
         23    2    1    2    0    0  0.00000000000E+00  0.00000000000E+00  0.00000000000E+00  0.10000000000E+03  0.10000000000E+03 0.  0.
          5    1    3    3  501    0 -0.31970086483E+02  0.15978648442E+02 -0.34648324119E+02  0.50000000000E+02  0.47000000000E+01 0. -1.
         -5    1    3    3    0  501  0.31970086483E+02 -0.15978648442E+02  0.34648324119E+02  0.50000000000E+02  0.47000000000E+01 0.  1.
</event>
<event>
 5    1  0.9023675E-001  0.1000000E+03  0.7546771E-02  0.1163815E+00
         11   -1    0    0    0    0  0.00000000000E+00  0.00000000000E+00  0.50000000000E+02  0.50000000000E+02  0.00000000000E+00 0.  1.
        -11   -1    0    0    0    0 -0.00000000000E+00 -0.00000000000E+00 -0.50000000000E+02  0.50000000000E+02  0.00000000000E+00 0. -1.
         23    2    1    2    0    0  0.00000000000E+00  0.00000000000E+00  0.00000000000E+00  0.10000000000E+03  0.10000000000E+03 0.  0.
          5    1    3    3  501    0  0.19562289855E+01 -0.12738812632E+02 -0.48081241882E+02  0.50000000000E+02  0.47000000000E+01 0. -1.
         -5    1    3    3    0  501 -0.19562289855E+01  0.12738812632E+02  0.48081241882E+02  0.50000000000E+02  0.47000000000E+01 0.  1.
</event>
<event>
 5    1  0.9023675E-001  0.1000000E+03  0.7546771E-02  0.1163815E+00
         11   -1    0    0    0    0  0.00000000000E+00  0.00000000000E+00  0.50000000000E+02  0.50000000000E+02  0.00000000000E+00 0.  1.
        -11   -1    0    0    0    0 -0.00000000000E+00 -0.00000000000E+00 -0.50000000000E+02  0.50000000000E+02  0.00000000000E+00 0. -1.
         23    2    1    2    0    0  0.00000000000E+00  0.00000000000E+00  0.00000000000E+00  0.10000000000E+03  0.10000000000E+03 0.  0.
          5    1    3    3  501    0  0.37164660891E+02  0.24465991257E+02 -0.22318450947E+02  0.50000000000E+02  0.47000000000E+01 0. -1.
         -5    1    3    3    0  501 -0.37164660891E+02 -0.24465991257E+02  0.22318450947E+02  0.50000000000E+02  0.47000000000E+01 0.  1.
</event>
<event>
 5    1  0.9023675E-001  0.1000000E+03  0.7546771E-02  0.1163815E+00
         11   -1    0    0    0    0  0.00000000000E+00  0.00000000000E+00  0.50000000000E+02  0.50000000000E+02  0.00000000000E+00 0.  1.
        -11   -1    0    0    0    0 -0.00000000000E+00 -0.00000000000E+00 -0.50000000000E+02  0.50000000000E+02  0.00000000000E+00 0. -1.
         23    2    1    2    0    0  0.00000000000E+00  0.00000000000E+00  0.00000000000E+00  0.10000000000E+03  0.10000000000E+03 0.  0.
          5    1    3    3  501    0  0.43124435562E+02  0.12382061424E+02 -0.21561020671E+02  0.50000000000E+02  0.47000000000E+01 0. -1.
         -5    1    3    3    0  501 -0.43124435562E+02 -0.12382061424E+02  0.21561020671E+02  0.50000000000E+02  0.47000000000E+01 0.  1.
</event>
<event>
 5    1  0.9023675E-001  0.1000000E+03  0.7546771E-02  0.1163815E+00
         11   -1    0    0    0    0  0.00000000000E+00  0.00000000000E+00  0.50000000000E+02  0.50000000000E+02  0.00000000000E+00 0.  1.
        -11   -1    0    0    0    0 -0.00000000000E+00 -0.00000000000E+00 -0.50000000000E+02  0.50000000000E+02  0.00000000000E+00 0. -1.
         23    2    1    2    0    0  0.00000000000E+00  0.00000000000E+00  0.00000000000E+00  0.10000000000E+03  0.10000000000E+03 0.  0.
          5    1    3    3  501    0 -0.41325766340E+02  0.22180603367E+02 -0.16676686442E+02  0.50000000000E+02  0.47000000000E+01 0. -1.
         -5    1    3    3    0  501  0.41325766340E+02 -0.22180603367E+02  0.16676686442E+02  0.50000000000E+02  0.47000000000E+01 0.  1.
</event>
<event>
 5    1  0.9023675E-001  0.1000000E+03  0.7546771E-02  0.1163815E+00
         11   -1    0    0    0    0  0.00000000000E+00  0.00000000000E+00  0.50000000000E+02  0.50000000000E+02  0.00000000000E+00 0. -1.
        -11   -1    0    0    0    0 -0.00000000000E+00 -0.00000000000E+00 -0.50000000000E+02  0.50000000000E+02  0.00000000000E+00 0.  1.
         23    2    1    2    0    0  0.00000000000E+00  0.00000000000E+00  0.00000000000E+00  0.10000000000E+03  0.10000000000E+03 0.  0.
          5    1    3    3  501    0 -0.33935867052E+02  0.63774900946E+00  0.36412363335E+02  0.50000000000E+02  0.47000000000E+01 0. -1.
         -5    1    3    3    0  501  0.33935867052E+02 -0.63774900946E+00 -0.36412363335E+02  0.50000000000E+02  0.47000000000E+01 0.  1.
</event>
<event>
 5    1  0.9023675E-001  0.1000000E+03  0.7546771E-02  0.1163815E+00
         11   -1    0    0    0    0  0.00000000000E+00  0.00000000000E+00  0.50000000000E+02  0.50000000000E+02  0.00000000000E+00 0.  1.
        -11   -1    0    0    0    0 -0.00000000000E+00 -0.00000000000E+00 -0.50000000000E+02  0.50000000000E+02  0.00000000000E+00 0. -1.
         23    2    1    2    0    0  0.00000000000E+00  0.00000000000E+00  0.00000000000E+00  0.10000000000E+03  0.10000000000E+03 0.  0.
          5    1    3    3  501    0  0.37594050738E+02 -0.28170542839E+02 -0.16462620245E+02  0.50000000000E+02  0.47000000000E+01 0. -1.
         -5    1    3    3    0  501 -0.37594050738E+02  0.28170542839E+02  0.16462620245E+02  0.50000000000E+02  0.47000000000E+01 0.  1.
</event>
