<event>
 4    1  0.4924477E-004  0.1000000E+04  0.7546771E-02  0.8684367E-01
         11   -1    0    0    0    0  0.00000000000E+00  0.00000000000E+00  0.50000000000E+03  0.50000000000E+03  0.00000000000E+00 0. -1.
        -11   -1    0    0    0    0 -0.00000000000E+00 -0.00000000000E+00 -0.50000000000E+03  0.50000000000E+03  0.00000000000E+00 0.  1.
          5    1    1    2  501    0  0.28182674780E+03 -0.26101086597E+03 -0.32003893837E+03  0.50000000000E+03  0.47000000000E+01 0.  1.
         -5    1    1    2    0  501 -0.28182674780E+03  0.26101086597E+03  0.32003893837E+03  0.50000000000E+03  0.47000000000E+01 0. -1.
</event>
<event>
 4    1  0.4924477E-004  0.1000000E+04  0.7546771E-02  0.8684367E-01
         11   -1    0    0    0    0  0.00000000000E+00  0.00000000000E+00  0.50000000000E+03  0.50000000000E+03  0.00000000000E+00 0. -1.
        -11   -1    0    0    0    0 -0.00000000000E+00 -0.00000000000E+00 -0.50000000000E+03  0.50000000000E+03  0.00000000000E+00 0.  1.
          5    1    1    2  501    0  0.46560613361E+03 -0.18084895835E+03 -0.21965714346E+02  0.50000000000E+03  0.47000000000E+01 0. -1.
         -5    1    1    2    0  501 -0.46560613361E+03  0.18084895835E+03  0.21965714346E+02  0.50000000000E+03  0.47000000000E+01 0.  1.
</event>
<event>
 4    1  0.4924477E-004  0.1000000E+04  0.7546771E-02  0.8684367E-01
         11   -1    0    0    0    0  0.00000000000E+00  0.00000000000E+00  0.50000000000E+03  0.50000000000E+03  0.00000000000E+00 0. -1.
        -11   -1    0    0    0    0 -0.00000000000E+00 -0.00000000000E+00 -0.50000000000E+03  0.50000000000E+03  0.00000000000E+00 0.  1.
          5    1    1    2  501    0  0.19005972216E+03  0.33601574762E+03  0.31772414035E+03  0.50000000000E+03  0.47000000000E+01 0. -1.
         -5    1    1    2    0  501 -0.19005972216E+03 -0.33601574762E+03 -0.31772414035E+03  0.50000000000E+03  0.47000000000E+01 0.  1.
</event>
<event>
 4    1  0.4924477E-004  0.1000000E+04  0.7546771E-02  0.8684367E-01
         11   -1    0    0    0    0  0.00000000000E+00  0.00000000000E+00  0.50000000000E+03  0.50000000000E+03  0.00000000000E+00 0. -1.
        -11   -1    0    0    0    0 -0.00000000000E+00 -0.00000000000E+00 -0.50000000000E+03  0.50000000000E+03  0.00000000000E+00 0.  1.
          5    1    1    2  501    0  0.48680764965E+02 -0.24954205175E+03  0.43050767418E+03  0.50000000000E+03  0.47000000000E+01 0. -1.
         -5    1    1    2    0  501 -0.48680764965E+02  0.24954205175E+03 -0.43050767418E+03  0.50000000000E+03  0.47000000000E+01 0.  1.
</event>
<event>
 4    1  0.4924477E-004  0.1000000E+04  0.7546771E-02  0.8684367E-01
         11   -1    0    0    0    0  0.00000000000E+00  0.00000000000E+00  0.50000000000E+03  0.50000000000E+03  0.00000000000E+00 0. -1.
        -11   -1    0    0    0    0 -0.00000000000E+00 -0.00000000000E+00 -0.50000000000E+03  0.50000000000E+03  0.00000000000E+00 0.  1.
          5    1    1    2  501    0  0.30884378409E+03  0.28051497758E+03  0.27550821110E+03  0.50000000000E+03  0.47000000000E+01 0. -1.
         -5    1    1    2    0  501 -0.30884378409E+03 -0.28051497758E+03 -0.27550821110E+03  0.50000000000E+03  0.47000000000E+01 0.  1.
</event>
<event>
 4    1  0.4924477E-004  0.1000000E+04  0.7546771E-02  0.8684367E-01
         11   -1    0    0    0    0  0.00000000000E+00  0.00000000000E+00  0.50000000000E+03  0.50000000000E+03  0.00000000000E+00 0.  1.
        -11   -1    0    0    0    0 -0.00000000000E+00 -0.00000000000E+00 -0.50000000000E+03  0.50000000000E+03  0.00000000000E+00 0. -1.
          5    1    1    2  501    0  0.39392054854E+03  0.26966310099E+03 -0.14861468098E+03  0.50000000000E+03  0.47000000000E+01 0. -1.
         -5    1    1    2    0  501 -0.39392054854E+03 -0.26966310099E+03  0.14861468098E+03  0.50000000000E+03  0.47000000000E+01 0.  1.
</event>
<event>
 4    1  0.4924477E-004  0.1000000E+04  0.7546771E-02  0.8684367E-01
         11   -1    0    0    0    0  0.00000000000E+00  0.00000000000E+00  0.50000000000E+03  0.50000000000E+03  0.00000000000E+00 0. -1.
        -11   -1    0    0    0    0 -0.00000000000E+00 -0.00000000000E+00 -0.50000000000E+03  0.50000000000E+03  0.00000000000E+00 0.  1.
          5    1    1    2  501    0 -0.18257862835E+03 -0.26370876461E+03  0.38353701508E+03  0.50000000000E+03  0.47000000000E+01 0. -1.
         -5    1    1    2    0  501  0.18257862835E+03  0.26370876461E+03 -0.38353701508E+03  0.50000000000E+03  0.47000000000E+01 0.  1.
</event>
<event>
 4    1  0.4924477E-004  0.1000000E+04  0.7546771E-02  0.8684367E-01
         11   -1    0    0    0    0  0.00000000000E+00  0.00000000000E+00  0.50000000000E+03  0.50000000000E+03  0.00000000000E+00 0.  1.
        -11   -1    0    0    0    0 -0.00000000000E+00 -0.00000000000E+00 -0.50000000000E+03  0.50000000000E+03  0.00000000000E+00 0. -1.
          5    1    1    2  501    0 -0.30406706054E+03  0.14522199699E+03  0.36936662584E+03  0.50000000000E+03  0.47000000000E+01 0.  1.
         -5    1    1    2    0  501  0.30406706054E+03 -0.14522199699E+03 -0.36936662584E+03  0.50000000000E+03  0.47000000000E+01 0. -1.
</event>
<event>
 4    1  0.4924477E-004  0.1000000E+04  0.7546771E-02  0.8684367E-01
         11   -1    0    0    0    0  0.00000000000E+00  0.00000000000E+00  0.50000000000E+03  0.50000000000E+03  0.00000000000E+00 0. -1.
        -11   -1    0    0    0    0 -0.00000000000E+00 -0.00000000000E+00 -0.50000000000E+03  0.50000000000E+03  0.00000000000E+00 0.  1.
          5    1    1    2  501    0  0.62353762281E+02 -0.43354336459E+03  0.24110178213E+03  0.50000000000E+03  0.47000000000E+01 0. -1.
         -5    1    1    2    0  501 -0.62353762281E+02  0.43354336459E+03 -0.24110178213E+03  0.50000000000E+03  0.47000000000E+01 0.  1.
</event>
<event>
 4    1  0.4924477E-004  0.1000000E+04  0.7546771E-02  0.8684367E-01
         11   -1    0    0    0    0  0.00000000000E+00  0.00000000000E+00  0.50000000000E+03  0.50000000000E+03  0.00000000000E+00 0. -1.
        -11   -1    0    0    0    0 -0.00000000000E+00 -0.00000000000E+00 -0.50000000000E+03  0.50000000000E+03  0.00000000000E+00 0.  1.
          5    1    1    2  501    0 -0.36022832841E+02 -0.41553159845E+03  0.27570592341E+03  0.50000000000E+03  0.47000000000E+01 0. -1.
         -5    1    1    2    0  501  0.36022832841E+02  0.41553159845E+03 -0.27570592341E+03  0.50000000000E+03  0.47000000000E+01 0.  1.
</event>
<event>
 4    1  0.4924477E-004  0.1000000E+04  0.7546771E-02  0.8684367E-01
         11   -1    0    0    0    0  0.00000000000E+00  0.00000000000E+00  0.50000000000E+03  0.50000000000E+03  0.00000000000E+00 0. -1.
        -11   -1    0    0    0    0 -0.00000000000E+00 -0.00000000000E+00 -0.50000000000E+03  0.50000000000E+03  0.00000000000E+00 0.  1.
          5    1    1    2  501    0 -0.28718154772E+03  0.40748785415E+03  0.38187921742E+02  0.50000000000E+03  0.47000000000E+01 0. -1.
         -5    1    1    2    0  501  0.28718154772E+03 -0.40748785415E+03 -0.38187921742E+02  0.50000000000E+03  0.47000000000E+01 0.  1.
</event>
<event>
 4    1  0.4924477E-004  0.1000000E+04  0.7546771E-02  0.8684367E-01
         11   -1    0    0    0    0  0.00000000000E+00  0.00000000000E+00  0.50000000000E+03  0.50000000000E+03  0.00000000000E+00 0. -1.
        -11   -1    0    0    0    0 -0.00000000000E+00 -0.00000000000E+00 -0.50000000000E+03  0.50000000000E+03  0.00000000000E+00 0.  1.
          5    1    1    2  501    0 -0.26356251633E+03 -0.88315918553E+02  0.41558754615E+03  0.50000000000E+03  0.47000000000E+01 0. -1.
         -5    1    1    2    0  501  0.26356251633E+03  0.88315918553E+02 -0.41558754615E+03  0.50000000000E+03  0.47000000000E+01 0.  1.
</event>
<event>
 4    1  0.4924477E-004  0.1000000E+04  0.7546771E-02  0.8684367E-01
         11   -1    0    0    0    0  0.00000000000E+00  0.00000000000E+00  0.50000000000E+03  0.50000000000E+03  0.00000000000E+00 0. -1.
        -11   -1    0    0    0    0 -0.00000000000E+00 -0.00000000000E+00 -0.50000000000E+03  0.50000000000E+03  0.00000000000E+00 0.  1.
          5    1    1    2  501    0 -0.21671184370E+03  0.26700362067E+03  0.36293656932E+03  0.50000000000E+03  0.47000000000E+01 0. -1.
         -5    1    1    2    0  501  0.21671184370E+03 -0.26700362067E+03 -0.36293656932E+03  0.50000000000E+03  0.47000000000E+01 0.  1.
</event>
<event>
 4    1  0.4924477E-004  0.1000000E+04  0.7546771E-02  0.8684367E-01
         11   -1    0    0    0    0  0.00000000000E+00  0.00000000000E+00  0.50000000000E+03  0.50000000000E+03  0.00000000000E+00 0. -1.
        -11   -1    0    0    0    0 -0.00000000000E+00 -0.00000000000E+00 -0.50000000000E+03  0.50000000000E+03  0.00000000000E+00 0.  1.
          5    1    1    2  501    0 -0.42474557636E+02  0.65202061429E+02  0.49388512140E+03  0.50000000000E+03  0.47000000000E+01 0. -1.
         -5    1    1    2    0  501  0.42474557636E+02 -0.65202061429E+02 -0.49388512140E+03  0.50000000000E+03  0.47000000000E+01 0.  1.
</event>
<event>
 4    1  0.4924477E-004  0.1000000E+04  0.7546771E-02  0.8684367E-01
         11   -1    0    0    0    0  0.00000000000E+00  0.00000000000E+00  0.50000000000E+03  0.50000000000E+03  0.00000000000E+00 0. -1.
        -11   -1    0    0    0    0 -0.00000000000E+00 -0.00000000000E+00 -0.50000000000E+03  0.50000000000E+03  0.00000000000E+00 0.  1.
          5    1    1    2  501    0  0.41446470873E+03  0.30099236022E+02 -0.27801250188E+03  0.50000000000E+03  0.47000000000E+01 0. -1.
         -5    1    1    2    0  501 -0.41446470873E+03 -0.30099236022E+02  0.27801250188E+03  0.50000000000E+03  0.47000000000E+01 0.  1.
</event>
<event>
 4    1  0.4924477E-004  0.1000000E+04  0.7546771E-02  0.8684367E-01
         11   -1    0    0    0    0  0.00000000000E+00  0.00000000000E+00  0.50000000000E+03  0.50000000000E+03  0.00000000000E+00 0.  1.
        -11   -1    0    0    0    0 -0.00000000000E+00 -0.00000000000E+00 -0.50000000000E+03  0.50000000000E+03  0.00000000000E+00 0. -1.
          5    1    1    2  501    0  0.46752047470E+03  0.11111393524E+03  0.13804422891E+03  0.50000000000E+03  0.47000000000E+01 0.  1.
         -5    1    1    2    0  501 -0.46752047470E+03 -0.11111393524E+03 -0.13804422891E+03  0.50000000000E+03  0.47000000000E+01 0. -1.
</event>
<event>
 4    1  0.4924477E-004  0.1000000E+04  0.7546771E-02  0.8684367E-01
         11   -1    0    0    0    0  0.00000000000E+00  0.00000000000E+00  0.50000000000E+03  0.50000000000E+03  0.00000000000E+00 0. -1.
        -11   -1    0    0    0    0 -0.00000000000E+00 -0.00000000000E+00 -0.50000000000E+03  0.50000000000E+03  0.00000000000E+00 0.  1.
          5    1    1    2  501    0 -0.49702738143E+02 -0.25279968704E+03  0.42848554941E+03  0.50000000000E+03  0.47000000000E+01 0. -1.
         -5    1    1    2    0  501  0.49702738143E+02  0.25279968704E+03 -0.42848554941E+03  0.50000000000E+03  0.47000000000E+01 0.  1.
</event>
<event>
 4    1  0.4924477E-004  0.1000000E+04  0.7546771E-02  0.8684367E-01
         11   -1    0    0    0    0  0.00000000000E+00  0.00000000000E+00  0.50000000000E+03  0.50000000000E+03  0.00000000000E+00 0. -1.
        -11   -1    0    0    0    0 -0.00000000000E+00 -0.00000000000E+00 -0.50000000000E+03  0.50000000000E+03  0.00000000000E+00 0.  1.
          5    1    1    2  501    0  0.21985464034E+03 -0.32878263266E+01  0.44903344789E+03  0.50000000000E+03  0.47000000000E+01 0. -1.
         -5    1    1    2    0  501 -0.21985464034E+03  0.32878263266E+01 -0.44903344789E+03  0.50000000000E+03  0.47000000000E+01 0.  1.
</event>
<event>
 4    1  0.4924477E-004  0.1000000E+04  0.7546771E-02  0.8684367E-01
         11   -1    0    0    0    0  0.00000000000E+00  0.00000000000E+00  0.50000000000E+03  0.50000000000E+03  0.00000000000E+00 0. -1.
        -11   -1    0    0    0    0 -0.00000000000E+00 -0.00000000000E+00 -0.50000000000E+03  0.50000000000E+03  0.00000000000E+00 0.  1.
          5    1    1    2  501    0 -0.28838400825E+03 -0.34600549512E+03 -0.21700868907E+03  0.50000000000E+03  0.47000000000E+01 0. -1.
         -5    1    1    2    0  501  0.28838400825E+03  0.34600549512E+03  0.21700868907E+03  0.50000000000E+03  0.47000000000E+01 0.  1.
</event>
<event>
 4    1  0.4924477E-004  0.1000000E+04  0.7546771E-02  0.8684367E-01
         11   -1    0    0    0    0  0.00000000000E+00  0.00000000000E+00  0.50000000000E+03  0.50000000000E+03  0.00000000000E+00 0. -1.
        -11   -1    0    0    0    0 -0.00000000000E+00 -0.00000000000E+00 -0.50000000000E+03  0.50000000000E+03  0.00000000000E+00 0.  1.
          5    1    1    2  501    0 -0.56316325663E+02  0.96460189247E+02  0.48734157770E+03  0.50000000000E+03  0.47000000000E+01 0. -1.
         -5    1    1    2    0  501  0.56316325663E+02 -0.96460189247E+02 -0.48734157770E+03  0.50000000000E+03  0.47000000000E+01 0.  1.
</event>
<event>
 4    1  0.4924477E-004  0.1000000E+04  0.7546771E-02  0.8684367E-01
         11   -1    0    0    0    0  0.00000000000E+00  0.00000000000E+00  0.50000000000E+03  0.50000000000E+03  0.00000000000E+00 0. -1.
        -11   -1    0    0    0    0 -0.00000000000E+00 -0.00000000000E+00 -0.50000000000E+03  0.50000000000E+03  0.00000000000E+00 0.  1.
          5    1    1    2  501    0  0.34942373933E+03  0.12400477697E+03  0.33541582503E+03  0.50000000000E+03  0.47000000000E+01 0. -1.
         -5    1    1    2    0  501 -0.34942373933E+03 -0.12400477697E+03 -0.33541582503E+03  0.50000000000E+03  0.47000000000E+01 0.  1.
</event>
<event>
 4    1  0.4924477E-004  0.1000000E+04  0.7546771E-02  0.8684367E-01
         11   -1    0    0    0    0  0.00000000000E+00  0.00000000000E+00  0.50000000000E+03  0.50000000000E+03  0.00000000000E+00 0. -1.
        -11   -1    0    0    0    0 -0.00000000000E+00 -0.00000000000E+00 -0.50000000000E+03  0.50000000000E+03  0.00000000000E+00 0.  1.
          5    1    1    2  501    0 -0.34670285062E+03  0.32568591516E+03  0.15396015080E+03  0.50000000000E+03  0.47000000000E+01 0. -1.
         -5    1    1    2    0  501  0.34670285062E+03 -0.32568591516E+03 -0.15396015080E+03  0.50000000000E+03  0.47000000000E+01 0.  1.
</event>
<event>
 4    1  0.4924477E-004  0.1000000E+04  0.7546771E-02  0.8684367E-01
         11   -1    0    0    0    0  0.00000000000E+00  0.00000000000E+00  0.50000000000E+03  0.50000000000E+03  0.00000000000E+00 0. -1.
        -11   -1    0    0    0    0 -0.00000000000E+00 -0.00000000000E+00 -0.50000000000E+03  0.50000000000E+03  0.00000000000E+00 0.  1.
          5    1    1    2  501    0 -0.10471532722E+03  0.43233958074E+03  0.22824350411E+03  0.50000000000E+03  0.47000000000E+01 0. -1.
         -5    1    1    2    0  501  0.10471532722E+03 -0.43233958074E+03 -0.22824350411E+03  0.50000000000E+03  0.47000000000E+01 0.  1.
</event>
<event>
 4    1  0.4924477E-004  0.1000000E+04  0.7546771E-02  0.8684367E-01
         11   -1    0    0    0    0  0.00000000000E+00  0.00000000000E+00  0.50000000000E+03  0.50000000000E+03  0.00000000000E+00 0. -1.
        -11   -1    0    0    0    0 -0.00000000000E+00 -0.00000000000E+00 -0.50000000000E+03  0.50000000000E+03  0.00000000000E+00 0.  1.
          5    1    1    2  501    0  0.42659210008E+03  0.20251267325E+03  0.16427327025E+03  0.50000000000E+03  0.47000000000E+01 0.  1.
         -5    1    1    2    0  501 -0.42659210008E+03 -0.20251267325E+03 -0.16427327025E+03  0.50000000000E+03  0.47000000000E+01 0. -1.
</event>
<event>
 4    1  0.4924477E-004  0.1000000E+04  0.7546771E-02  0.8684367E-01
         11   -1    0    0    0    0  0.00000000000E+00  0.00000000000E+00  0.50000000000E+03  0.50000000000E+03  0.00000000000E+00 0. -1.
        -11   -1    0    0    0    0 -0.00000000000E+00 -0.00000000000E+00 -0.50000000000E+03  0.50000000000E+03  0.00000000000E+00 0.  1.
          5    1    1    2  501    0  0.39052023007E+03  0.28573063143E+03  0.12581679605E+03  0.50000000000E+03  0.47000000000E+01 0. -1.
         -5    1    1    2    0  501 -0.39052023007E+03 -0.28573063143E+03 -0.12581679605E+03  0.50000000000E+03  0.47000000000E+01 0.  1.
</event>
<event>
 4    1  0.4924477E-004  0.1000000E+04  0.7546771E-02  0.8684367E-01
         11   -1    0    0    0    0  0.00000000000E+00  0.00000000000E+00  0.50000000000E+03  0.50000000000E+03  0.00000000000E+00 0. -1.
        -11   -1    0    0    0    0 -0.00000000000E+00 -0.00000000000E+00 -0.50000000000E+03  0.50000000000E+03  0.00000000000E+00 0.  1.
          5    1    1    2  501    0  0.53969896204E+02 -0.21339907886E+03  0.44891646600E+03  0.50000000000E+03  0.47000000000E+01 0. -1.
         -5    1    1    2    0  501 -0.53969896204E+02  0.21339907886E+03 -0.44891646600E+03  0.50000000000E+03  0.47000000000E+01 0.  1.
</event>
<event>
 4    1  0.4924477E-004  0.1000000E+04  0.7546771E-02  0.8684367E-01
         11   -1    0    0    0    0  0.00000000000E+00  0.00000000000E+00  0.50000000000E+03  0.50000000000E+03  0.00000000000E+00 0. -1.
        -11   -1    0    0    0    0 -0.00000000000E+00 -0.00000000000E+00 -0.50000000000E+03  0.50000000000E+03  0.00000000000E+00 0.  1.
          5    1    1    2  501    0  0.32330160283E+03 -0.28391311823E+03  0.25465137915E+03  0.50000000000E+03  0.47000000000E+01 0. -1.
         -5    1    1    2    0  501 -0.32330160283E+03  0.28391311823E+03 -0.25465137915E+03  0.50000000000E+03  0.47000000000E+01 0.  1.
</event>
<event>
 4    1  0.4924477E-004  0.1000000E+04  0.7546771E-02  0.8684367E-01
         11   -1    0    0    0    0  0.00000000000E+00  0.00000000000E+00  0.50000000000E+03  0.50000000000E+03  0.00000000000E+00 0. -1.
        -11   -1    0    0    0    0 -0.00000000000E+00 -0.00000000000E+00 -0.50000000000E+03  0.50000000000E+03  0.00000000000E+00 0.  1.
          5    1    1    2  501    0 -0.40136569416E+03  0.29711521240E+03  0.24617881843E+02  0.50000000000E+03  0.47000000000E+01 0. -1.
         -5    1    1    2    0  501  0.40136569416E+03 -0.29711521240E+03 -0.24617881843E+02  0.50000000000E+03  0.47000000000E+01 0.  1.
</event>
<event>
 4    1  0.4924477E-004  0.1000000E+04  0.7546771E-02  0.8684367E-01
         11   -1    0    0    0    0  0.00000000000E+00  0.00000000000E+00  0.50000000000E+03  0.50000000000E+03  0.00000000000E+00 0. -1.
        -11   -1    0    0    0    0 -0.00000000000E+00 -0.00000000000E+00 -0.50000000000E+03  0.50000000000E+03  0.00000000000E+00 0.  1.
          5    1    1    2  501    0  0.10364757542E+03  0.36507407089E+03  0.32550885222E+03  0.50000000000E+03  0.47000000000E+01 0. -1.
         -5    1    1    2    0  501 -0.10364757542E+03 -0.36507407089E+03 -0.32550885222E+03  0.50000000000E+03  0.47000000000E+01 0.  1.
</event>
<event>
 4    1  0.4924477E-004  0.1000000E+04  0.7546771E-02  0.8684367E-01
         11   -1    0    0    0    0  0.00000000000E+00  0.00000000000E+00  0.50000000000E+03  0.50000000000E+03  0.00000000000E+00 0. -1.
        -11   -1    0    0    0    0 -0.00000000000E+00 -0.00000000000E+00 -0.50000000000E+03  0.50000000000E+03  0.00000000000E+00 0.  1.
          5    1    1    2  501    0  0.44700299740E+03 -0.78129904124E+02  0.20990938139E+03  0.50000000000E+03  0.47000000000E+01 0. -1.
         -5    1    1    2    0  501 -0.44700299740E+03  0.78129904124E+02 -0.20990938139E+03  0.50000000000E+03  0.47000000000E+01 0.  1.
</event>
<event>
 4    1  0.4924477E-004  0.1000000E+04  0.7546771E-02  0.8684367E-01
         11   -1    0    0    0    0  0.00000000000E+00  0.00000000000E+00  0.50000000000E+03  0.50000000000E+03  0.00000000000E+00 0. -1.
        -11   -1    0    0    0    0 -0.00000000000E+00 -0.00000000000E+00 -0.50000000000E+03  0.50000000000E+03  0.00000000000E+00 0.  1.
          5    1    1    2  501    0 -0.12597737468E+03 -0.48278341956E+03 -0.32059021681E+02  0.50000000000E+03  0.47000000000E+01 0. -1.
         -5    1    1    2    0  501  0.12597737468E+03  0.48278341956E+03  0.32059021681E+02  0.50000000000E+03  0.47000000000E+01 0.  1.
</event>
<event>
 4    1  0.4924477E-004  0.1000000E+04  0.7546771E-02  0.8684367E-01
         11   -1    0    0    0    0  0.00000000000E+00  0.00000000000E+00  0.50000000000E+03  0.50000000000E+03  0.00000000000E+00 0.  1.
        -11   -1    0    0    0    0 -0.00000000000E+00 -0.00000000000E+00 -0.50000000000E+03  0.50000000000E+03  0.00000000000E+00 0. -1.
          5    1    1    2  501    0  0.16999313264E+03  0.10973425453E+03  0.45720743458E+03  0.50000000000E+03  0.47000000000E+01 0.  1.
         -5    1    1    2    0  501 -0.16999313264E+03 -0.10973425453E+03 -0.45720743458E+03  0.50000000000E+03  0.47000000000E+01 0. -1.
</event>
<event>
 4    1  0.4924477E-004  0.1000000E+04  0.7546771E-02  0.8684367E-01
         11   -1    0    0    0    0  0.00000000000E+00  0.00000000000E+00  0.50000000000E+03  0.50000000000E+03  0.00000000000E+00 0. -1.
        -11   -1    0    0    0    0 -0.00000000000E+00 -0.00000000000E+00 -0.50000000000E+03  0.50000000000E+03  0.00000000000E+00 0.  1.
          5    1    1    2  501    0  0.18062369199E+03  0.34884693959E+03  0.30928757594E+03  0.50000000000E+03  0.47000000000E+01 0. -1.
         -5    1    1    2    0  501 -0.18062369199E+03 -0.34884693959E+03 -0.30928757594E+03  0.50000000000E+03  0.47000000000E+01 0.  1.
</event>
<event>
 4    1  0.4924477E-004  0.1000000E+04  0.7546771E-02  0.8684367E-01
         11   -1    0    0    0    0  0.00000000000E+00  0.00000000000E+00  0.50000000000E+03  0.50000000000E+03  0.00000000000E+00 0. -1.
        -11   -1    0    0    0    0 -0.00000000000E+00 -0.00000000000E+00 -0.50000000000E+03  0.50000000000E+03  0.00000000000E+00 0.  1.
          5    1    1    2  501    0 -0.11663844520E+03 -0.16092269901E+03  0.45877801608E+03  0.50000000000E+03  0.47000000000E+01 0. -1.
         -5    1    1    2    0  501  0.11663844520E+03  0.16092269901E+03 -0.45877801608E+03  0.50000000000E+03  0.47000000000E+01 0.  1.
</event>
<event>
 4    1  0.4924477E-004  0.1000000E+04  0.7546771E-02  0.8684367E-01
         11   -1    0    0    0    0  0.00000000000E+00  0.00000000000E+00  0.50000000000E+03  0.50000000000E+03  0.00000000000E+00 0.  1.
        -11   -1    0    0    0    0 -0.00000000000E+00 -0.00000000000E+00 -0.50000000000E+03  0.50000000000E+03  0.00000000000E+00 0. -1.
          5    1    1    2  501    0 -0.32390774889E+03  0.11633793048E+03  0.36266674253E+03  0.50000000000E+03  0.47000000000E+01 0.  1.
         -5    1    1    2    0  501  0.32390774889E+03 -0.11633793048E+03 -0.36266674253E+03  0.50000000000E+03  0.47000000000E+01 0. -1.
</event>
<event>
 4    1  0.4924477E-004  0.1000000E+04  0.7546771E-02  0.8684367E-01
         11   -1    0    0    0    0  0.00000000000E+00  0.00000000000E+00  0.50000000000E+03  0.50000000000E+03  0.00000000000E+00 0. -1.
        -11   -1    0    0    0    0 -0.00000000000E+00 -0.00000000000E+00 -0.50000000000E+03  0.50000000000E+03  0.00000000000E+00 0.  1.
          5    1    1    2  501    0  0.30832216067E+03  0.36867391890E+03  0.13782197488E+03  0.50000000000E+03  0.47000000000E+01 0. -1.
         -5    1    1    2    0  501 -0.30832216067E+03 -0.36867391890E+03 -0.13782197488E+03  0.50000000000E+03  0.47000000000E+01 0.  1.
</event>
<event>
 4    1  0.4924477E-004  0.1000000E+04  0.7546771E-02  0.8684367E-01
         11   -1    0    0    0    0  0.00000000000E+00  0.00000000000E+00  0.50000000000E+03  0.50000000000E+03  0.00000000000E+00 0. -1.
        -11   -1    0    0    0    0 -0.00000000000E+00 -0.00000000000E+00 -0.50000000000E+03  0.50000000000E+03  0.00000000000E+00 0.  1.
          5    1    1    2  501    0 -0.24814635377E+03 -0.16476980025E+03  0.40156221191E+03  0.50000000000E+03  0.47000000000E+01 0. -1.
         -5    1    1    2    0  501  0.24814635377E+03  0.16476980025E+03 -0.40156221191E+03  0.50000000000E+03  0.47000000000E+01 0.  1.
</event>
<event>
 4    1  0.4924477E-004  0.1000000E+04  0.7546771E-02  0.8684367E-01
         11   -1    0    0    0    0  0.00000000000E+00  0.00000000000E+00  0.50000000000E+03  0.50000000000E+03  0.00000000000E+00 0. -1.
        -11   -1    0    0    0    0 -0.00000000000E+00 -0.00000000000E+00 -0.50000000000E+03  0.50000000000E+03  0.00000000000E+00 0.  1.
          5    1    1    2  501    0 -0.29932705220E+03  0.55046726702E+02  0.39667503539E+03  0.50000000000E+03  0.47000000000E+01 0. -1.
         -5    1    1    2    0  501  0.29932705220E+03 -0.55046726702E+02 -0.39667503539E+03  0.50000000000E+03  0.47000000000E+01 0.  1.
</event>
<event>
 4    1  0.4924477E-004  0.1000000E+04  0.7546771E-02  0.8684367E-01
         11   -1    0    0    0    0  0.00000000000E+00  0.00000000000E+00  0.50000000000E+03  0.50000000000E+03  0.00000000000E+00 0. -1.
        -11   -1    0    0    0    0 -0.00000000000E+00 -0.00000000000E+00 -0.50000000000E+03  0.50000000000E+03  0.00000000000E+00 0.  1.
          5    1    1    2  501    0 -0.26205489918E+03 -0.35928468272E+03  0.22851620638E+03  0.50000000000E+03  0.47000000000E+01 0. -1.
         -5    1    1    2    0  501  0.26205489918E+03  0.35928468272E+03 -0.22851620638E+03  0.50000000000E+03  0.47000000000E+01 0.  1.
</event>
<event>
 4    1  0.4924477E-004  0.1000000E+04  0.7546771E-02  0.8684367E-01
         11   -1    0    0    0    0  0.00000000000E+00  0.00000000000E+00  0.50000000000E+03  0.50000000000E+03  0.00000000000E+00 0.  1.
        -11   -1    0    0    0    0 -0.00000000000E+00 -0.00000000000E+00 -0.50000000000E+03  0.50000000000E+03  0.00000000000E+00 0. -1.
          5    1    1    2  501    0  0.25257102234E+03  0.38483610194E+02  0.42977296381E+03  0.50000000000E+03  0.47000000000E+01 0.  1.
         -5    1    1    2    0  501 -0.25257102234E+03 -0.38483610194E+02 -0.42977296381E+03  0.50000000000E+03  0.47000000000E+01 0. -1.
</event>
<event>
 4    1  0.4924477E-004  0.1000000E+04  0.7546771E-02  0.8684367E-01
         11   -1    0    0    0    0  0.00000000000E+00  0.00000000000E+00  0.50000000000E+03  0.50000000000E+03  0.00000000000E+00 0. -1.
        -11   -1    0    0    0    0 -0.00000000000E+00 -0.00000000000E+00 -0.50000000000E+03  0.50000000000E+03  0.00000000000E+00 0.  1.
          5    1    1    2  501    0  0.27202433628E+03  0.27579151146E+03  0.31610079512E+03  0.50000000000E+03  0.47000000000E+01 0. -1.
         -5    1    1    2    0  501 -0.27202433628E+03 -0.27579151146E+03 -0.31610079512E+03  0.50000000000E+03  0.47000000000E+01 0.  1.
</event>
<event>
 4    1  0.4924477E-004  0.1000000E+04  0.7546771E-02  0.8684367E-01
         11   -1    0    0    0    0  0.00000000000E+00  0.00000000000E+00  0.50000000000E+03  0.50000000000E+03  0.00000000000E+00 0. -1.
        -11   -1    0    0    0    0 -0.00000000000E+00 -0.00000000000E+00 -0.50000000000E+03  0.50000000000E+03  0.00000000000E+00 0.  1.
          5    1    1    2  501    0 -0.34153462670E+03  0.36188971555E+03  0.48660482340E+02  0.50000000000E+03  0.47000000000E+01 0. -1.
         -5    1    1    2    0  501  0.34153462670E+03 -0.36188971555E+03 -0.48660482340E+02  0.50000000000E+03  0.47000000000E+01 0.  1.
</event>
<event>
 4    1  0.4924477E-004  0.1000000E+04  0.7546771E-02  0.8684367E-01
         11   -1    0    0    0    0  0.00000000000E+00  0.00000000000E+00  0.50000000000E+03  0.50000000000E+03  0.00000000000E+00 0. -1.
        -11   -1    0    0    0    0 -0.00000000000E+00 -0.00000000000E+00 -0.50000000000E+03  0.50000000000E+03  0.00000000000E+00 0.  1.
          5    1    1    2  501    0  0.13080277221E+03 -0.25794733437E+03  0.40783785684E+03  0.50000000000E+03  0.47000000000E+01 0. -1.
         -5    1    1    2    0  501 -0.13080277221E+03  0.25794733437E+03 -0.40783785684E+03  0.50000000000E+03  0.47000000000E+01 0.  1.
</event>
<event>
 4    1  0.4924477E-004  0.1000000E+04  0.7546771E-02  0.8684367E-01
         11   -1    0    0    0    0  0.00000000000E+00  0.00000000000E+00  0.50000000000E+03  0.50000000000E+03  0.00000000000E+00 0. -1.
        -11   -1    0    0    0    0 -0.00000000000E+00 -0.00000000000E+00 -0.50000000000E+03  0.50000000000E+03  0.00000000000E+00 0.  1.
          5    1    1    2  501    0 -0.15378126296E+03 -0.27756992413E+03  0.38637309738E+03  0.50000000000E+03  0.47000000000E+01 0. -1.
         -5    1    1    2    0  501  0.15378126296E+03  0.27756992413E+03 -0.38637309738E+03  0.50000000000E+03  0.47000000000E+01 0.  1.
</event>
<event>
 4    1  0.4924477E-004  0.1000000E+04  0.7546771E-02  0.8684367E-01
         11   -1    0    0    0    0  0.00000000000E+00  0.00000000000E+00  0.50000000000E+03  0.50000000000E+03  0.00000000000E+00 0. -1.
        -11   -1    0    0    0    0 -0.00000000000E+00 -0.00000000000E+00 -0.50000000000E+03  0.50000000000E+03  0.00000000000E+00 0.  1.
          5    1    1    2  501    0  0.30921783539E+03 -0.18613196446E+03  0.34600163595E+03  0.50000000000E+03  0.47000000000E+01 0. -1.
         -5    1    1    2    0  501 -0.30921783539E+03  0.18613196446E+03 -0.34600163595E+03  0.50000000000E+03  0.47000000000E+01 0.  1.
</event>
<event>
 4    1  0.4924477E-004  0.1000000E+04  0.7546771E-02  0.8684367E-01
         11   -1    0    0    0    0  0.00000000000E+00  0.00000000000E+00  0.50000000000E+03  0.50000000000E+03  0.00000000000E+00 0.  1.
        -11   -1    0    0    0    0 -0.00000000000E+00 -0.00000000000E+00 -0.50000000000E+03  0.50000000000E+03  0.00000000000E+00 0. -1.
          5    1    1    2  501    0  0.33493208878E+03  0.14118629542E+03 -0.34331448540E+03  0.50000000000E+03  0.47000000000E+01 0. -1.
         -5    1    1    2    0  501 -0.33493208878E+03 -0.14118629542E+03  0.34331448540E+03  0.50000000000E+03  0.47000000000E+01 0.  1.
</event>
<event>
 4    1  0.4924477E-004  0.1000000E+04  0.7546771E-02  0.8684367E-01
         11   -1    0    0    0    0  0.00000000000E+00  0.00000000000E+00  0.50000000000E+03  0.50000000000E+03  0.00000000000E+00 0. -1.
        -11   -1    0    0    0    0 -0.00000000000E+00 -0.00000000000E+00 -0.50000000000E+03  0.50000000000E+03  0.00000000000E+00 0.  1.
          5    1    1    2  501    0  0.15537517784E+03  0.26833887165E+03  0.39221258786E+03  0.50000000000E+03  0.47000000000E+01 0. -1.
         -5    1    1    2    0  501 -0.15537517784E+03 -0.26833887165E+03 -0.39221258786E+03  0.50000000000E+03  0.47000000000E+01 0.  1.
</event>
<event>
 4    1  0.4924477E-004  0.1000000E+04  0.7546771E-02  0.8684367E-01
         11   -1    0    0    0    0  0.00000000000E+00  0.00000000000E+00  0.50000000000E+03  0.50000000000E+03  0.00000000000E+00 0. -1.
        -11   -1    0    0    0    0 -0.00000000000E+00 -0.00000000000E+00 -0.50000000000E+03  0.50000000000E+03  0.00000000000E+00 0.  1.
          5    1    1    2  501    0 -0.10223572279E+03 -0.15348726196E+03  0.46472295769E+03  0.50000000000E+03  0.47000000000E+01 0. -1.
         -5    1    1    2    0  501  0.10223572279E+03  0.15348726196E+03 -0.46472295769E+03  0.50000000000E+03  0.47000000000E+01 0.  1.
</event>
<event>
 4    1  0.4924477E-004  0.1000000E+04  0.7546771E-02  0.8684367E-01
         11   -1    0    0    0    0  0.00000000000E+00  0.00000000000E+00  0.50000000000E+03  0.50000000000E+03  0.00000000000E+00 0. -1.
        -11   -1    0    0    0    0 -0.00000000000E+00 -0.00000000000E+00 -0.50000000000E+03  0.50000000000E+03  0.00000000000E+00 0.  1.
          5    1    1    2  501    0 -0.16109519169E+03  0.34857396140E+03  0.32019125948E+03  0.50000000000E+03  0.47000000000E+01 0. -1.
         -5    1    1    2    0  501  0.16109519169E+03 -0.34857396140E+03 -0.32019125948E+03  0.50000000000E+03  0.47000000000E+01 0.  1.
</event>
<event>
 4    1  0.4924477E-004  0.1000000E+04  0.7546771E-02  0.8684367E-01
         11   -1    0    0    0    0  0.00000000000E+00  0.00000000000E+00  0.50000000000E+03  0.50000000000E+03  0.00000000000E+00 0. -1.
        -11   -1    0    0    0    0 -0.00000000000E+00 -0.00000000000E+00 -0.50000000000E+03  0.50000000000E+03  0.00000000000E+00 0.  1.
          5    1    1    2  501    0 -0.17745394424E+03 -0.26850005986E+03  0.38261694360E+03  0.50000000000E+03  0.47000000000E+01 0. -1.
         -5    1    1    2    0  501  0.17745394424E+03  0.26850005986E+03 -0.38261694360E+03  0.50000000000E+03  0.47000000000E+01 0.  1.
</event>
<event>
 4    1  0.4924477E-004  0.1000000E+04  0.7546771E-02  0.8684367E-01
         11   -1    0    0    0    0  0.00000000000E+00  0.00000000000E+00  0.50000000000E+03  0.50000000000E+03  0.00000000000E+00 0.  1.
        -11   -1    0    0    0    0 -0.00000000000E+00 -0.00000000000E+00 -0.50000000000E+03  0.50000000000E+03  0.00000000000E+00 0. -1.
          5    1    1    2  501    0 -0.38110230301E+03 -0.21555478585E+02  0.32291532324E+03  0.50000000000E+03  0.47000000000E+01 0.  1.
         -5    1    1    2    0  501  0.38110230301E+03  0.21555478585E+02 -0.32291532324E+03  0.50000000000E+03  0.47000000000E+01 0. -1.
</event>
<event>
 4    1  0.4924477E-004  0.1000000E+04  0.7546771E-02  0.8684367E-01
         11   -1    0    0    0    0  0.00000000000E+00  0.00000000000E+00  0.50000000000E+03  0.50000000000E+03  0.00000000000E+00 0. -1.
        -11   -1    0    0    0    0 -0.00000000000E+00 -0.00000000000E+00 -0.50000000000E+03  0.50000000000E+03  0.00000000000E+00 0.  1.
          5    1    1    2  501    0  0.22705404075E+03 -0.16634079575E+03  0.41322525607E+03  0.50000000000E+03  0.47000000000E+01 0. -1.
         -5    1    1    2    0  501 -0.22705404075E+03  0.16634079575E+03 -0.41322525607E+03  0.50000000000E+03  0.47000000000E+01 0.  1.
</event>
<event>
 4    1  0.4924477E-004  0.1000000E+04  0.7546771E-02  0.8684367E-01
         11   -1    0    0    0    0  0.00000000000E+00  0.00000000000E+00  0.50000000000E+03  0.50000000000E+03  0.00000000000E+00 0. -1.
        -11   -1    0    0    0    0 -0.00000000000E+00 -0.00000000000E+00 -0.50000000000E+03  0.50000000000E+03  0.00000000000E+00 0.  1.
          5    1    1    2  501    0  0.41008258979E+03 -0.26092265833E+03  0.11717314504E+03  0.50000000000E+03  0.47000000000E+01 0. -1.
         -5    1    1    2    0  501 -0.41008258979E+03  0.26092265833E+03 -0.11717314504E+03  0.50000000000E+03  0.47000000000E+01 0.  1.
</event>
<event>
 4    1  0.4924477E-004  0.1000000E+04  0.7546771E-02  0.8684367E-01
         11   -1    0    0    0    0  0.00000000000E+00  0.00000000000E+00  0.50000000000E+03  0.50000000000E+03  0.00000000000E+00 0. -1.
        -11   -1    0    0    0    0 -0.00000000000E+00 -0.00000000000E+00 -0.50000000000E+03  0.50000000000E+03  0.00000000000E+00 0.  1.
          5    1    1    2  501    0 -0.21294982913E+03  0.87507751242E+02  0.44381603593E+03  0.50000000000E+03  0.47000000000E+01 0. -1.
         -5    1    1    2    0  501  0.21294982913E+03 -0.87507751242E+02 -0.44381603593E+03  0.50000000000E+03  0.47000000000E+01 0.  1.
</event>
<event>
 4    1  0.4924477E-004  0.1000000E+04  0.7546771E-02  0.8684367E-01
         11   -1    0    0    0    0  0.00000000000E+00  0.00000000000E+00  0.50000000000E+03  0.50000000000E+03  0.00000000000E+00 0. -1.
        -11   -1    0    0    0    0 -0.00000000000E+00 -0.00000000000E+00 -0.50000000000E+03  0.50000000000E+03  0.00000000000E+00 0.  1.
          5    1    1    2  501    0  0.36366695340E+03 -0.15301293166E+02  0.34276832910E+03  0.50000000000E+03  0.47000000000E+01 0. -1.
         -5    1    1    2    0  501 -0.36366695340E+03  0.15301293166E+02 -0.34276832910E+03  0.50000000000E+03  0.47000000000E+01 0.  1.
</event>
<event>
 4    1  0.4924477E-004  0.1000000E+04  0.7546771E-02  0.8684367E-01
         11   -1    0    0    0    0  0.00000000000E+00  0.00000000000E+00  0.50000000000E+03  0.50000000000E+03  0.00000000000E+00 0.  1.
        -11   -1    0    0    0    0 -0.00000000000E+00 -0.00000000000E+00 -0.50000000000E+03  0.50000000000E+03  0.00000000000E+00 0. -1.
          5    1    1    2  501    0 -0.43836101277E+03 -0.55213026767E+02  0.23402789185E+03  0.50000000000E+03  0.47000000000E+01 0.  1.
         -5    1    1    2    0  501  0.43836101277E+03  0.55213026767E+02 -0.23402789185E+03  0.50000000000E+03  0.47000000000E+01 0. -1.
</event>
<event>
 4    1  0.4924477E-004  0.1000000E+04  0.7546771E-02  0.8684367E-01
         11   -1    0    0    0    0  0.00000000000E+00  0.00000000000E+00  0.50000000000E+03  0.50000000000E+03  0.00000000000E+00 0. -1.
        -11   -1    0    0    0    0 -0.00000000000E+00 -0.00000000000E+00 -0.50000000000E+03  0.50000000000E+03  0.00000000000E+00 0.  1.
          5    1    1    2  501    0  0.11394894810E+03  0.10462751193E+03  0.47544361493E+03  0.50000000000E+03  0.47000000000E+01 0. -1.
         -5    1    1    2    0  501 -0.11394894810E+03 -0.10462751193E+03 -0.47544361493E+03  0.50000000000E+03  0.47000000000E+01 0.  1.
</event>
<event>
 4    1  0.4924477E-004  0.1000000E+04  0.7546771E-02  0.8684367E-01
         11   -1    0    0    0    0  0.00000000000E+00  0.00000000000E+00  0.50000000000E+03  0.50000000000E+03  0.00000000000E+00 0. -1.
        -11   -1    0    0    0    0 -0.00000000000E+00 -0.00000000000E+00 -0.50000000000E+03  0.50000000000E+03  0.00000000000E+00 0.  1.
          5    1    1    2  501    0 -0.44125490928E+02  0.38199470965E+03  0.31954795079E+03  0.50000000000E+03  0.47000000000E+01 0. -1.
         -5    1    1    2    0  501  0.44125490928E+02 -0.38199470965E+03 -0.31954795079E+03  0.50000000000E+03  0.47000000000E+01 0.  1.
</event>
<event>
 4    1  0.4924477E-004  0.1000000E+04  0.7546771E-02  0.8684367E-01
         11   -1    0    0    0    0  0.00000000000E+00  0.00000000000E+00  0.50000000000E+03  0.50000000000E+03  0.00000000000E+00 0. -1.
        -11   -1    0    0    0    0 -0.00000000000E+00 -0.00000000000E+00 -0.50000000000E+03  0.50000000000E+03  0.00000000000E+00 0.  1.
          5    1    1    2  501    0 -0.21346236525E+03 -0.44421616148E+03 -0.84164900666E+02  0.50000000000E+03  0.47000000000E+01 0. -1.
         -5    1    1    2    0  501  0.21346236525E+03  0.44421616148E+03  0.84164900666E+02  0.50000000000E+03  0.47000000000E+01 0.  1.
</event>
<event>
 4    1  0.4924477E-004  0.1000000E+04  0.7546771E-02  0.8684367E-01
         11   -1    0    0    0    0  0.00000000000E+00  0.00000000000E+00  0.50000000000E+03  0.50000000000E+03  0.00000000000E+00 0.  1.
        -11   -1    0    0    0    0 -0.00000000000E+00 -0.00000000000E+00 -0.50000000000E+03  0.50000000000E+03  0.00000000000E+00 0. -1.
          5    1    1    2  501    0 -0.12307429380E+03  0.10824022445E+03  0.47235016885E+03  0.50000000000E+03  0.47000000000E+01 0.  1.
         -5    1    1    2    0  501  0.12307429380E+03 -0.10824022445E+03 -0.47235016885E+03  0.50000000000E+03  0.47000000000E+01 0. -1.
</event>
<event>
 4    1  0.4924477E-004  0.1000000E+04  0.7546771E-02  0.8684367E-01
         11   -1    0    0    0    0  0.00000000000E+00  0.00000000000E+00  0.50000000000E+03  0.50000000000E+03  0.00000000000E+00 0.  1.
        -11   -1    0    0    0    0 -0.00000000000E+00 -0.00000000000E+00 -0.50000000000E+03  0.50000000000E+03  0.00000000000E+00 0. -1.
          5    1    1    2  501    0  0.32098946751E+03 -0.11866953088E+03  0.36450132261E+03  0.50000000000E+03  0.47000000000E+01 0.  1.
         -5    1    1    2    0  501 -0.32098946751E+03  0.11866953088E+03 -0.36450132261E+03  0.50000000000E+03  0.47000000000E+01 0. -1.
</event>
<event>
 4    1  0.4924477E-004  0.1000000E+04  0.7546771E-02  0.8684367E-01
         11   -1    0    0    0    0  0.00000000000E+00  0.00000000000E+00  0.50000000000E+03  0.50000000000E+03  0.00000000000E+00 0. -1.
        -11   -1    0    0    0    0 -0.00000000000E+00 -0.00000000000E+00 -0.50000000000E+03  0.50000000000E+03  0.00000000000E+00 0.  1.
          5    1    1    2  501    0  0.12797944222E+02  0.32336874072E+03 -0.38111255575E+03  0.50000000000E+03  0.47000000000E+01 0.  1.
         -5    1    1    2    0  501 -0.12797944222E+02 -0.32336874072E+03  0.38111255575E+03  0.50000000000E+03  0.47000000000E+01 0. -1.
</event>
<event>
 4    1  0.4924477E-004  0.1000000E+04  0.7546771E-02  0.8684367E-01
         11   -1    0    0    0    0  0.00000000000E+00  0.00000000000E+00  0.50000000000E+03  0.50000000000E+03  0.00000000000E+00 0.  1.
        -11   -1    0    0    0    0 -0.00000000000E+00 -0.00000000000E+00 -0.50000000000E+03  0.50000000000E+03  0.00000000000E+00 0. -1.
          5    1    1    2  501    0  0.30862504555E+03  0.29528509623E+02  0.39224553328E+03  0.50000000000E+03  0.47000000000E+01 0.  1.
         -5    1    1    2    0  501 -0.30862504555E+03 -0.29528509623E+02 -0.39224553328E+03  0.50000000000E+03  0.47000000000E+01 0. -1.
</event>
<event>
 4    1  0.4924477E-004  0.1000000E+04  0.7546771E-02  0.8684367E-01
         11   -1    0    0    0    0  0.00000000000E+00  0.00000000000E+00  0.50000000000E+03  0.50000000000E+03  0.00000000000E+00 0. -1.
        -11   -1    0    0    0    0 -0.00000000000E+00 -0.00000000000E+00 -0.50000000000E+03  0.50000000000E+03  0.00000000000E+00 0.  1.
          5    1    1    2  501    0  0.45306811905E+03 -0.18118288965E+03  0.10899518339E+03  0.50000000000E+03  0.47000000000E+01 0. -1.
         -5    1    1    2    0  501 -0.45306811905E+03  0.18118288965E+03 -0.10899518339E+03  0.50000000000E+03  0.47000000000E+01 0.  1.
</event>
<event>
 4    1  0.4924477E-004  0.1000000E+04  0.7546771E-02  0.8684367E-01
         11   -1    0    0    0    0  0.00000000000E+00  0.00000000000E+00  0.50000000000E+03  0.50000000000E+03  0.00000000000E+00 0. -1.
        -11   -1    0    0    0    0 -0.00000000000E+00 -0.00000000000E+00 -0.50000000000E+03  0.50000000000E+03  0.00000000000E+00 0.  1.
          5    1    1    2  501    0  0.30903146435E+03 -0.15830056198E+03  0.35974768397E+03  0.50000000000E+03  0.47000000000E+01 0. -1.
         -5    1    1    2    0  501 -0.30903146435E+03  0.15830056198E+03 -0.35974768397E+03  0.50000000000E+03  0.47000000000E+01 0.  1.
</event>
<event>
 4    1  0.4924477E-004  0.1000000E+04  0.7546771E-02  0.8684367E-01
         11   -1    0    0    0    0  0.00000000000E+00  0.00000000000E+00  0.50000000000E+03  0.50000000000E+03  0.00000000000E+00 0.  1.
        -11   -1    0    0    0    0 -0.00000000000E+00 -0.00000000000E+00 -0.50000000000E+03  0.50000000000E+03  0.00000000000E+00 0. -1.
          5    1    1    2  501    0  0.47960018345E+03 -0.10406004071E+03 -0.95567159445E+02  0.50000000000E+03  0.47000000000E+01 0.  1.
         -5    1    1    2    0  501 -0.47960018345E+03  0.10406004071E+03  0.95567159445E+02  0.50000000000E+03  0.47000000000E+01 0. -1.
</event>
<event>
 4    1  0.4924477E-004  0.1000000E+04  0.7546771E-02  0.8684367E-01
         11   -1    0    0    0    0  0.00000000000E+00  0.00000000000E+00  0.50000000000E+03  0.50000000000E+03  0.00000000000E+00 0. -1.
        -11   -1    0    0    0    0 -0.00000000000E+00 -0.00000000000E+00 -0.50000000000E+03  0.50000000000E+03  0.00000000000E+00 0.  1.
          5    1    1    2  501    0 -0.26912846220E+03 -0.33894832047E+03 -0.25032342457E+03  0.50000000000E+03  0.47000000000E+01 0. -1.
         -5    1    1    2    0  501  0.26912846220E+03  0.33894832047E+03  0.25032342457E+03  0.50000000000E+03  0.47000000000E+01 0.  1.
</event>
<event>
 4    1  0.4924477E-004  0.1000000E+04  0.7546771E-02  0.8684367E-01
         11   -1    0    0    0    0  0.00000000000E+00  0.00000000000E+00  0.50000000000E+03  0.50000000000E+03  0.00000000000E+00 0. -1.
        -11   -1    0    0    0    0 -0.00000000000E+00 -0.00000000000E+00 -0.50000000000E+03  0.50000000000E+03  0.00000000000E+00 0.  1.
          5    1    1    2  501    0 -0.22747025946E+03  0.39782161329E+03  0.19993287638E+03  0.50000000000E+03  0.47000000000E+01 0. -1.
         -5    1    1    2    0  501  0.22747025946E+03 -0.39782161329E+03 -0.19993287638E+03  0.50000000000E+03  0.47000000000E+01 0.  1.
</event>
<event>
 4    1  0.4924477E-004  0.1000000E+04  0.7546771E-02  0.8684367E-01
         11   -1    0    0    0    0  0.00000000000E+00  0.00000000000E+00  0.50000000000E+03  0.50000000000E+03  0.00000000000E+00 0. -1.
        -11   -1    0    0    0    0 -0.00000000000E+00 -0.00000000000E+00 -0.50000000000E+03  0.50000000000E+03  0.00000000000E+00 0.  1.
          5    1    1    2  501    0 -0.49766093430E+03  0.44426024864E+02  0.18380228183E+02  0.50000000000E+03  0.47000000000E+01 0. -1.
         -5    1    1    2    0  501  0.49766093430E+03 -0.44426024864E+02 -0.18380228183E+02  0.50000000000E+03  0.47000000000E+01 0.  1.
</event>
<event>
 4    1  0.4924477E-004  0.1000000E+04  0.7546771E-02  0.8684367E-01
         11   -1    0    0    0    0  0.00000000000E+00  0.00000000000E+00  0.50000000000E+03  0.50000000000E+03  0.00000000000E+00 0. -1.
        -11   -1    0    0    0    0 -0.00000000000E+00 -0.00000000000E+00 -0.50000000000E+03  0.50000000000E+03  0.00000000000E+00 0.  1.
          5    1    1    2  501    0  0.20858609249E+03  0.26180050398E+03  0.37138961770E+03  0.50000000000E+03  0.47000000000E+01 0. -1.
         -5    1    1    2    0  501 -0.20858609249E+03 -0.26180050398E+03 -0.37138961770E+03  0.50000000000E+03  0.47000000000E+01 0.  1.
</event>
<event>
 4    1  0.4924477E-004  0.1000000E+04  0.7546771E-02  0.8684367E-01
         11   -1    0    0    0    0  0.00000000000E+00  0.00000000000E+00  0.50000000000E+03  0.50000000000E+03  0.00000000000E+00 0.  1.
        -11   -1    0    0    0    0 -0.00000000000E+00 -0.00000000000E+00 -0.50000000000E+03  0.50000000000E+03  0.00000000000E+00 0. -1.
          5    1    1    2  501    0  0.42806930971E+03 -0.18684953749E+03 -0.17838673276E+03  0.50000000000E+03  0.47000000000E+01 0. -1.
         -5    1    1    2    0  501 -0.42806930971E+03  0.18684953749E+03  0.17838673276E+03  0.50000000000E+03  0.47000000000E+01 0.  1.
</event>
<event>
 4    1  0.4924477E-004  0.1000000E+04  0.7546771E-02  0.8684367E-01
         11   -1    0    0    0    0  0.00000000000E+00  0.00000000000E+00  0.50000000000E+03  0.50000000000E+03  0.00000000000E+00 0. -1.
        -11   -1    0    0    0    0 -0.00000000000E+00 -0.00000000000E+00 -0.50000000000E+03  0.50000000000E+03  0.00000000000E+00 0.  1.
          5    1    1    2  501    0  0.18729374695E+03  0.12228281476E+03  0.44715307845E+03  0.50000000000E+03  0.47000000000E+01 0. -1.
         -5    1    1    2    0  501 -0.18729374695E+03 -0.12228281476E+03 -0.44715307845E+03  0.50000000000E+03  0.47000000000E+01 0.  1.
</event>
<event>
 4    1  0.4924477E-004  0.1000000E+04  0.7546771E-02  0.8684367E-01
         11   -1    0    0    0    0  0.00000000000E+00  0.00000000000E+00  0.50000000000E+03  0.50000000000E+03  0.00000000000E+00 0. -1.
        -11   -1    0    0    0    0 -0.00000000000E+00 -0.00000000000E+00 -0.50000000000E+03  0.50000000000E+03  0.00000000000E+00 0.  1.
          5    1    1    2  501    0  0.12225360709E+03  0.19475271399E+03  0.44396322589E+03  0.50000000000E+03  0.47000000000E+01 0. -1.
         -5    1    1    2    0  501 -0.12225360709E+03 -0.19475271399E+03 -0.44396322589E+03  0.50000000000E+03  0.47000000000E+01 0.  1.
</event>
<event>
 4    1  0.4924477E-004  0.1000000E+04  0.7546771E-02  0.8684367E-01
         11   -1    0    0    0    0  0.00000000000E+00  0.00000000000E+00  0.50000000000E+03  0.50000000000E+03  0.00000000000E+00 0. -1.
        -11   -1    0    0    0    0 -0.00000000000E+00 -0.00000000000E+00 -0.50000000000E+03  0.50000000000E+03  0.00000000000E+00 0.  1.
          5    1    1    2  501    0  0.38435987463E+03  0.31486741644E+03  0.55712717046E+02  0.50000000000E+03  0.47000000000E+01 0. -1.
         -5    1    1    2    0  501 -0.38435987463E+03 -0.31486741644E+03 -0.55712717046E+02  0.50000000000E+03  0.47000000000E+01 0.  1.
</event>
<event>
 4    1  0.4924477E-004  0.1000000E+04  0.7546771E-02  0.8684367E-01
         11   -1    0    0    0    0  0.00000000000E+00  0.00000000000E+00  0.50000000000E+03  0.50000000000E+03  0.00000000000E+00 0. -1.
        -11   -1    0    0    0    0 -0.00000000000E+00 -0.00000000000E+00 -0.50000000000E+03  0.50000000000E+03  0.00000000000E+00 0.  1.
          5    1    1    2  501    0 -0.15499768681E+03  0.45101482357E+03  0.15013079633E+03  0.50000000000E+03  0.47000000000E+01 0. -1.
         -5    1    1    2    0  501  0.15499768681E+03 -0.45101482357E+03 -0.15013079633E+03  0.50000000000E+03  0.47000000000E+01 0.  1.
</event>
<event>
 4    1  0.4924477E-004  0.1000000E+04  0.7546771E-02  0.8684367E-01
         11   -1    0    0    0    0  0.00000000000E+00  0.00000000000E+00  0.50000000000E+03  0.50000000000E+03  0.00000000000E+00 0. -1.
        -11   -1    0    0    0    0 -0.00000000000E+00 -0.00000000000E+00 -0.50000000000E+03  0.50000000000E+03  0.00000000000E+00 0.  1.
          5    1    1    2  501    0  0.17138795516E+03 -0.38672074600E+03  0.26655420356E+03  0.50000000000E+03  0.47000000000E+01 0. -1.
         -5    1    1    2    0  501 -0.17138795516E+03  0.38672074600E+03 -0.26655420356E+03  0.50000000000E+03  0.47000000000E+01 0.  1.
</event>
<event>
 4    1  0.4924477E-004  0.1000000E+04  0.7546771E-02  0.8684367E-01
         11   -1    0    0    0    0  0.00000000000E+00  0.00000000000E+00  0.50000000000E+03  0.50000000000E+03  0.00000000000E+00 0. -1.
        -11   -1    0    0    0    0 -0.00000000000E+00 -0.00000000000E+00 -0.50000000000E+03  0.50000000000E+03  0.00000000000E+00 0.  1.
          5    1    1    2  501    0  0.20097036679E+03 -0.35010686203E+03  0.29498136692E+03  0.50000000000E+03  0.47000000000E+01 0. -1.
         -5    1    1    2    0  501 -0.20097036679E+03  0.35010686203E+03 -0.29498136692E+03  0.50000000000E+03  0.47000000000E+01 0.  1.
</event>
<event>
 4    1  0.4924477E-004  0.1000000E+04  0.7546771E-02  0.8684367E-01
         11   -1    0    0    0    0  0.00000000000E+00  0.00000000000E+00  0.50000000000E+03  0.50000000000E+03  0.00000000000E+00 0. -1.
        -11   -1    0    0    0    0 -0.00000000000E+00 -0.00000000000E+00 -0.50000000000E+03  0.50000000000E+03  0.00000000000E+00 0.  1.
          5    1    1    2  501    0 -0.75352603286E+02 -0.31818552857E+03  0.37822990969E+03  0.50000000000E+03  0.47000000000E+01 0. -1.
         -5    1    1    2    0  501  0.75352603286E+02  0.31818552857E+03 -0.37822990969E+03  0.50000000000E+03  0.47000000000E+01 0.  1.
</event>
<event>
 4    1  0.4924477E-004  0.1000000E+04  0.7546771E-02  0.8684367E-01
         11   -1    0    0    0    0  0.00000000000E+00  0.00000000000E+00  0.50000000000E+03  0.50000000000E+03  0.00000000000E+00 0. -1.
        -11   -1    0    0    0    0 -0.00000000000E+00 -0.00000000000E+00 -0.50000000000E+03  0.50000000000E+03  0.00000000000E+00 0.  1.
          5    1    1    2  501    0  0.36663397192E+03 -0.24187235756E+03  0.23886231031E+03  0.50000000000E+03  0.47000000000E+01 0. -1.
         -5    1    1    2    0  501 -0.36663397192E+03  0.24187235756E+03 -0.23886231031E+03  0.50000000000E+03  0.47000000000E+01 0.  1.
</event>
<event>
 4    1  0.4924477E-004  0.1000000E+04  0.7546771E-02  0.8684367E-01
         11   -1    0    0    0    0  0.00000000000E+00  0.00000000000E+00  0.50000000000E+03  0.50000000000E+03  0.00000000000E+00 0. -1.
        -11   -1    0    0    0    0 -0.00000000000E+00 -0.00000000000E+00 -0.50000000000E+03  0.50000000000E+03  0.00000000000E+00 0.  1.
          5    1    1    2  501    0 -0.81311830660E+02 -0.41173159572E+03  0.27174140148E+03  0.50000000000E+03  0.47000000000E+01 0. -1.
         -5    1    1    2    0  501  0.81311830660E+02  0.41173159572E+03 -0.27174140148E+03  0.50000000000E+03  0.47000000000E+01 0.  1.
</event>
<event>
 4    1  0.4924477E-004  0.1000000E+04  0.7546771E-02  0.8684367E-01
         11   -1    0    0    0    0  0.00000000000E+00  0.00000000000E+00  0.50000000000E+03  0.50000000000E+03  0.00000000000E+00 0.  1.
        -11   -1    0    0    0    0 -0.00000000000E+00 -0.00000000000E+00 -0.50000000000E+03  0.50000000000E+03  0.00000000000E+00 0. -1.
          5    1    1    2  501    0 -0.13818301126E+03 -0.13081377902E+02  0.48032514295E+03  0.50000000000E+03  0.47000000000E+01 0.  1.
         -5    1    1    2    0  501  0.13818301126E+03  0.13081377902E+02 -0.48032514295E+03  0.50000000000E+03  0.47000000000E+01 0. -1.
</event>
<event>
 4    1  0.4924477E-004  0.1000000E+04  0.7546771E-02  0.8684367E-01
         11   -1    0    0    0    0  0.00000000000E+00  0.00000000000E+00  0.50000000000E+03  0.50000000000E+03  0.00000000000E+00 0. -1.
        -11   -1    0    0    0    0 -0.00000000000E+00 -0.00000000000E+00 -0.50000000000E+03  0.50000000000E+03  0.00000000000E+00 0.  1.
          5    1    1    2  501    0  0.40109561850E+03  0.29467645538E+03  0.47602536363E+02  0.50000000000E+03  0.47000000000E+01 0. -1.
         -5    1    1    2    0  501 -0.40109561850E+03 -0.29467645538E+03 -0.47602536363E+02  0.50000000000E+03  0.47000000000E+01 0.  1.
</event>
<event>
 4    1  0.4924477E-004  0.1000000E+04  0.7546771E-02  0.8684367E-01
         11   -1    0    0    0    0  0.00000000000E+00  0.00000000000E+00  0.50000000000E+03  0.50000000000E+03  0.00000000000E+00 0. -1.
        -11   -1    0    0    0    0 -0.00000000000E+00 -0.00000000000E+00 -0.50000000000E+03  0.50000000000E+03  0.00000000000E+00 0.  1.
          5    1    1    2  501    0  0.19742970256E+03  0.37324225523E+03 -0.26774921374E+03  0.50000000000E+03  0.47000000000E+01 0. -1.
         -5    1    1    2    0  501 -0.19742970256E+03 -0.37324225523E+03  0.26774921374E+03  0.50000000000E+03  0.47000000000E+01 0.  1.
</event>
<event>
 4    1  0.4924477E-004  0.1000000E+04  0.7546771E-02  0.8684367E-01
         11   -1    0    0    0    0  0.00000000000E+00  0.00000000000E+00  0.50000000000E+03  0.50000000000E+03  0.00000000000E+00 0. -1.
        -11   -1    0    0    0    0 -0.00000000000E+00 -0.00000000000E+00 -0.50000000000E+03  0.50000000000E+03  0.00000000000E+00 0.  1.
          5    1    1    2  501    0 -0.59362830441E+02 -0.16605808225E+03  0.46784471535E+03  0.50000000000E+03  0.47000000000E+01 0. -1.
         -5    1    1    2    0  501  0.59362830441E+02  0.16605808225E+03 -0.46784471535E+03  0.50000000000E+03  0.47000000000E+01 0.  1.
</event>
<event>
 4    1  0.4924477E-004  0.1000000E+04  0.7546771E-02  0.8684367E-01
         11   -1    0    0    0    0  0.00000000000E+00  0.00000000000E+00  0.50000000000E+03  0.50000000000E+03  0.00000000000E+00 0.  1.
        -11   -1    0    0    0    0 -0.00000000000E+00 -0.00000000000E+00 -0.50000000000E+03  0.50000000000E+03  0.00000000000E+00 0. -1.
          5    1    1    2  501    0  0.37367680684E+03  0.31093986728E+03 -0.11687580145E+03  0.50000000000E+03  0.47000000000E+01 0.  1.
         -5    1    1    2    0  501 -0.37367680684E+03 -0.31093986728E+03  0.11687580145E+03  0.50000000000E+03  0.47000000000E+01 0. -1.
</event>
<event>
 4    1  0.4924477E-004  0.1000000E+04  0.7546771E-02  0.8684367E-01
         11   -1    0    0    0    0  0.00000000000E+00  0.00000000000E+00  0.50000000000E+03  0.50000000000E+03  0.00000000000E+00 0. -1.
        -11   -1    0    0    0    0 -0.00000000000E+00 -0.00000000000E+00 -0.50000000000E+03  0.50000000000E+03  0.00000000000E+00 0.  1.
          5    1    1    2  501    0 -0.21109476081E+02 -0.24732001663E+03  0.43401049457E+03  0.50000000000E+03  0.47000000000E+01 0. -1.
         -5    1    1    2    0  501  0.21109476081E+02  0.24732001663E+03 -0.43401049457E+03  0.50000000000E+03  0.47000000000E+01 0.  1.
</event>
<event>
 4    1  0.4924477E-004  0.1000000E+04  0.7546771E-02  0.8684367E-01
         11   -1    0    0    0    0  0.00000000000E+00  0.00000000000E+00  0.50000000000E+03  0.50000000000E+03  0.00000000000E+00 0. -1.
        -11   -1    0    0    0    0 -0.00000000000E+00 -0.00000000000E+00 -0.50000000000E+03  0.50000000000E+03  0.00000000000E+00 0.  1.
          5    1    1    2  501    0 -0.90690968504E+02  0.35619736626E+03  0.33893435132E+03  0.50000000000E+03  0.47000000000E+01 0. -1.
         -5    1    1    2    0  501  0.90690968504E+02 -0.35619736626E+03 -0.33893435132E+03  0.50000000000E+03  0.47000000000E+01 0.  1.
</event>
<event>
 4    1  0.4924477E-004  0.1000000E+04  0.7546771E-02  0.8684367E-01
         11   -1    0    0    0    0  0.00000000000E+00  0.00000000000E+00  0.50000000000E+03  0.50000000000E+03  0.00000000000E+00 0. -1.
        -11   -1    0    0    0    0 -0.00000000000E+00 -0.00000000000E+00 -0.50000000000E+03  0.50000000000E+03  0.00000000000E+00 0.  1.
          5    1    1    2  501    0 -0.15387781728E+03  0.11169821917E+03  0.46241002928E+03  0.50000000000E+03  0.47000000000E+01 0. -1.
         -5    1    1    2    0  501  0.15387781728E+03 -0.11169821917E+03 -0.46241002928E+03  0.50000000000E+03  0.47000000000E+01 0.  1.
</event>
<event>
 4    1  0.4924477E-004  0.1000000E+04  0.7546771E-02  0.8684367E-01
         11   -1    0    0    0    0  0.00000000000E+00  0.00000000000E+00  0.50000000000E+03  0.50000000000E+03  0.00000000000E+00 0.  1.
        -11   -1    0    0    0    0 -0.00000000000E+00 -0.00000000000E+00 -0.50000000000E+03  0.50000000000E+03  0.00000000000E+00 0. -1.
          5    1    1    2  501    0 -0.30349745304E+03  0.26885177475E+03  0.29255072930E+03  0.50000000000E+03  0.47000000000E+01 0.  1.
         -5    1    1    2    0  501  0.30349745304E+03 -0.26885177475E+03 -0.29255072930E+03  0.50000000000E+03  0.47000000000E+01 0. -1.
</event>
<event>
 4    1  0.4924477E-004  0.1000000E+04  0.7546771E-02  0.8684367E-01
         11   -1    0    0    0    0  0.00000000000E+00  0.00000000000E+00  0.50000000000E+03  0.50000000000E+03  0.00000000000E+00 0.  1.
        -11   -1    0    0    0    0 -0.00000000000E+00 -0.00000000000E+00 -0.50000000000E+03  0.50000000000E+03  0.00000000000E+00 0. -1.
          5    1    1    2  501    0  0.28822251462E+02  0.38573600860E+02  0.49765376030E+03  0.50000000000E+03  0.47000000000E+01 0.  1.
         -5    1    1    2    0  501 -0.28822251462E+02 -0.38573600860E+02 -0.49765376030E+03  0.50000000000E+03  0.47000000000E+01 0. -1.
</event>
<event>
 4    1  0.4924477E-004  0.1000000E+04  0.7546771E-02  0.8684367E-01
         11   -1    0    0    0    0  0.00000000000E+00  0.00000000000E+00  0.50000000000E+03  0.50000000000E+03  0.00000000000E+00 0. -1.
        -11   -1    0    0    0    0 -0.00000000000E+00 -0.00000000000E+00 -0.50000000000E+03  0.50000000000E+03  0.00000000000E+00 0.  1.
          5    1    1    2  501    0 -0.19793828437E+03  0.45597360883E+03 -0.53725353685E+02  0.50000000000E+03  0.47000000000E+01 0. -1.
         -5    1    1    2    0  501  0.19793828437E+03 -0.45597360883E+03  0.53725353685E+02  0.50000000000E+03  0.47000000000E+01 0.  1.
</event>
<event>
 4    1  0.4924477E-004  0.1000000E+04  0.7546771E-02  0.8684367E-01
         11   -1    0    0    0    0  0.00000000000E+00  0.00000000000E+00  0.50000000000E+03  0.50000000000E+03  0.00000000000E+00 0. -1.
        -11   -1    0    0    0    0 -0.00000000000E+00 -0.00000000000E+00 -0.50000000000E+03  0.50000000000E+03  0.00000000000E+00 0.  1.
          5    1    1    2  501    0 -0.20249698811E+02  0.26175508454E+03  0.42550221552E+03  0.50000000000E+03  0.47000000000E+01 0. -1.
         -5    1    1    2    0  501  0.20249698811E+02 -0.26175508454E+03 -0.42550221552E+03  0.50000000000E+03  0.47000000000E+01 0.  1.
</event>
<event>
 4    1  0.4924477E-004  0.1000000E+04  0.7546771E-02  0.8684367E-01
         11   -1    0    0    0    0  0.00000000000E+00  0.00000000000E+00  0.50000000000E+03  0.50000000000E+03  0.00000000000E+00 0. -1.
        -11   -1    0    0    0    0 -0.00000000000E+00 -0.00000000000E+00 -0.50000000000E+03  0.50000000000E+03  0.00000000000E+00 0.  1.
          5    1    1    2  501    0 -0.40446907098E+03  0.29221152372E+03  0.31545301104E+02  0.50000000000E+03  0.47000000000E+01 0. -1.
         -5    1    1    2    0  501  0.40446907098E+03 -0.29221152372E+03 -0.31545301104E+02  0.50000000000E+03  0.47000000000E+01 0.  1.
</event>
<event>
 4    1  0.4924477E-004  0.1000000E+04  0.7546771E-02  0.8684367E-01
         11   -1    0    0    0    0  0.00000000000E+00  0.00000000000E+00  0.50000000000E+03  0.50000000000E+03  0.00000000000E+00 0. -1.
        -11   -1    0    0    0    0 -0.00000000000E+00 -0.00000000000E+00 -0.50000000000E+03  0.50000000000E+03  0.00000000000E+00 0.  1.
          5    1    1    2  501    0 -0.75497113405E+02  0.36310942083E+03  0.33530530025E+03  0.50000000000E+03  0.47000000000E+01 0. -1.
         -5    1    1    2    0  501  0.75497113405E+02 -0.36310942083E+03 -0.33530530025E+03  0.50000000000E+03  0.47000000000E+01 0.  1.
</event>
<event>
 4    1  0.4924477E-004  0.1000000E+04  0.7546771E-02  0.8684367E-01
         11   -1    0    0    0    0  0.00000000000E+00  0.00000000000E+00  0.50000000000E+03  0.50000000000E+03  0.00000000000E+00 0. -1.
        -11   -1    0    0    0    0 -0.00000000000E+00 -0.00000000000E+00 -0.50000000000E+03  0.50000000000E+03  0.00000000000E+00 0.  1.
          5    1    1    2  501    0  0.68904156729E+02  0.39402221901E+03 -0.29996102766E+03  0.50000000000E+03  0.47000000000E+01 0. -1.
         -5    1    1    2    0  501 -0.68904156729E+02 -0.39402221901E+03  0.29996102766E+03  0.50000000000E+03  0.47000000000E+01 0.  1.
</event>
<event>
 4    1  0.4924477E-004  0.1000000E+04  0.7546771E-02  0.8684367E-01
         11   -1    0    0    0    0  0.00000000000E+00  0.00000000000E+00  0.50000000000E+03  0.50000000000E+03  0.00000000000E+00 0. -1.
        -11   -1    0    0    0    0 -0.00000000000E+00 -0.00000000000E+00 -0.50000000000E+03  0.50000000000E+03  0.00000000000E+00 0.  1.
          5    1    1    2  501    0  0.25410774985E+03 -0.32247226047E+03  0.28533980215E+03  0.50000000000E+03  0.47000000000E+01 0. -1.
         -5    1    1    2    0  501 -0.25410774985E+03  0.32247226047E+03 -0.28533980215E+03  0.50000000000E+03  0.47000000000E+01 0.  1.
</event>
<event>
 4    1  0.4924477E-004  0.1000000E+04  0.7546771E-02  0.8684367E-01
         11   -1    0    0    0    0  0.00000000000E+00  0.00000000000E+00  0.50000000000E+03  0.50000000000E+03  0.00000000000E+00 0. -1.
        -11   -1    0    0    0    0 -0.00000000000E+00 -0.00000000000E+00 -0.50000000000E+03  0.50000000000E+03  0.00000000000E+00 0.  1.
          5    1    1    2  501    0  0.24781887926E+03  0.36124483485E+03 -0.24096863360E+03  0.50000000000E+03  0.47000000000E+01 0. -1.
         -5    1    1    2    0  501 -0.24781887926E+03 -0.36124483485E+03  0.24096863360E+03  0.50000000000E+03  0.47000000000E+01 0.  1.
</event>
<event>
 4    1  0.4924477E-004  0.1000000E+04  0.7546771E-02  0.8684367E-01
         11   -1    0    0    0    0  0.00000000000E+00  0.00000000000E+00  0.50000000000E+03  0.50000000000E+03  0.00000000000E+00 0. -1.
        -11   -1    0    0    0    0 -0.00000000000E+00 -0.00000000000E+00 -0.50000000000E+03  0.50000000000E+03  0.00000000000E+00 0.  1.
          5    1    1    2  501    0  0.77532027032E+02 -0.25092715606E+03  0.42544360042E+03  0.50000000000E+03  0.47000000000E+01 0. -1.
         -5    1    1    2    0  501 -0.77532027032E+02  0.25092715606E+03 -0.42544360042E+03  0.50000000000E+03  0.47000000000E+01 0.  1.
</event>
<event>
 4    1  0.4924477E-004  0.1000000E+04  0.7546771E-02  0.8684367E-01
         11   -1    0    0    0    0  0.00000000000E+00  0.00000000000E+00  0.50000000000E+03  0.50000000000E+03  0.00000000000E+00 0.  1.
        -11   -1    0    0    0    0 -0.00000000000E+00 -0.00000000000E+00 -0.50000000000E+03  0.50000000000E+03  0.00000000000E+00 0. -1.
          5    1    1    2  501    0 -0.43443907297E+03 -0.21666687248E+03  0.11956616684E+03  0.50000000000E+03  0.47000000000E+01 0.  1.
         -5    1    1    2    0  501  0.43443907297E+03  0.21666687248E+03 -0.11956616684E+03  0.50000000000E+03  0.47000000000E+01 0. -1.
</event>
<event>
 4    1  0.4924477E-004  0.1000000E+04  0.7546771E-02  0.8684367E-01
         11   -1    0    0    0    0  0.00000000000E+00  0.00000000000E+00  0.50000000000E+03  0.50000000000E+03  0.00000000000E+00 0.  1.
        -11   -1    0    0    0    0 -0.00000000000E+00 -0.00000000000E+00 -0.50000000000E+03  0.50000000000E+03  0.00000000000E+00 0. -1.
          5    1    1    2  501    0 -0.43072944279E+03 -0.24689548219E+03 -0.59098883191E+02  0.50000000000E+03  0.47000000000E+01 0. -1.
         -5    1    1    2    0  501  0.43072944279E+03  0.24689548219E+03  0.59098883191E+02  0.50000000000E+03  0.47000000000E+01 0.  1.
</event>
<event>
 4    1  0.4924477E-004  0.1000000E+04  0.7546771E-02  0.8684367E-01
         11   -1    0    0    0    0  0.00000000000E+00  0.00000000000E+00  0.50000000000E+03  0.50000000000E+03  0.00000000000E+00 0. -1.
        -11   -1    0    0    0    0 -0.00000000000E+00 -0.00000000000E+00 -0.50000000000E+03  0.50000000000E+03  0.00000000000E+00 0.  1.
          5    1    1    2  501    0  0.74770407375E+01  0.46521890648E+03  0.18301194746E+03  0.50000000000E+03  0.47000000000E+01 0. -1.
         -5    1    1    2    0  501 -0.74770407375E+01 -0.46521890648E+03 -0.18301194746E+03  0.50000000000E+03  0.47000000000E+01 0.  1.
</event>
<event>
 4    1  0.4924477E-004  0.1000000E+04  0.7546771E-02  0.8684367E-01
         11   -1    0    0    0    0  0.00000000000E+00  0.00000000000E+00  0.50000000000E+03  0.50000000000E+03  0.00000000000E+00 0.  1.
        -11   -1    0    0    0    0 -0.00000000000E+00 -0.00000000000E+00 -0.50000000000E+03  0.50000000000E+03  0.00000000000E+00 0. -1.
          5    1    1    2  501    0 -0.43430005148E+02  0.30402954957E+03  0.39453488774E+03  0.50000000000E+03  0.47000000000E+01 0.  1.
         -5    1    1    2    0  501  0.43430005148E+02 -0.30402954957E+03 -0.39453488774E+03  0.50000000000E+03  0.47000000000E+01 0. -1.
</event>
<event>
 4    1  0.4924477E-004  0.1000000E+04  0.7546771E-02  0.8684367E-01
         11   -1    0    0    0    0  0.00000000000E+00  0.00000000000E+00  0.50000000000E+03  0.50000000000E+03  0.00000000000E+00 0.  1.
        -11   -1    0    0    0    0 -0.00000000000E+00 -0.00000000000E+00 -0.50000000000E+03  0.50000000000E+03  0.00000000000E+00 0. -1.
          5    1    1    2  501    0  0.77232071368E+02  0.10598220337E+03  0.48247371920E+03  0.50000000000E+03  0.47000000000E+01 0.  1.
         -5    1    1    2    0  501 -0.77232071368E+02 -0.10598220337E+03 -0.48247371920E+03  0.50000000000E+03  0.47000000000E+01 0. -1.
</event>
<event>
 4    1  0.4924477E-004  0.1000000E+04  0.7546771E-02  0.8684367E-01
         11   -1    0    0    0    0  0.00000000000E+00  0.00000000000E+00  0.50000000000E+03  0.50000000000E+03  0.00000000000E+00 0. -1.
        -11   -1    0    0    0    0 -0.00000000000E+00 -0.00000000000E+00 -0.50000000000E+03  0.50000000000E+03  0.00000000000E+00 0.  1.
          5    1    1    2  501    0  0.10160372048E+03  0.38147630613E+03  0.30680681518E+03  0.50000000000E+03  0.47000000000E+01 0. -1.
         -5    1    1    2    0  501 -0.10160372048E+03 -0.38147630613E+03 -0.30680681518E+03  0.50000000000E+03  0.47000000000E+01 0.  1.
</event>
<event>
 4    1  0.4924477E-004  0.1000000E+04  0.7546771E-02  0.8684367E-01
         11   -1    0    0    0    0  0.00000000000E+00  0.00000000000E+00  0.50000000000E+03  0.50000000000E+03  0.00000000000E+00 0. -1.
        -11   -1    0    0    0    0 -0.00000000000E+00 -0.00000000000E+00 -0.50000000000E+03  0.50000000000E+03  0.00000000000E+00 0.  1.
          5    1    1    2  501    0  0.47014414123E+03  0.70020316926E+02  0.15504693381E+03  0.50000000000E+03  0.47000000000E+01 0. -1.
         -5    1    1    2    0  501 -0.47014414123E+03 -0.70020316926E+02 -0.15504693381E+03  0.50000000000E+03  0.47000000000E+01 0.  1.
</event>
<event>
 4    1  0.4924477E-004  0.1000000E+04  0.7546771E-02  0.8684367E-01
         11   -1    0    0    0    0  0.00000000000E+00  0.00000000000E+00  0.50000000000E+03  0.50000000000E+03  0.00000000000E+00 0. -1.
        -11   -1    0    0    0    0 -0.00000000000E+00 -0.00000000000E+00 -0.50000000000E+03  0.50000000000E+03  0.00000000000E+00 0.  1.
          5    1    1    2  501    0  0.31233031428E+03 -0.25766018694E+03  0.29332390432E+03  0.50000000000E+03  0.47000000000E+01 0. -1.
         -5    1    1    2    0  501 -0.31233031428E+03  0.25766018694E+03 -0.29332390432E+03  0.50000000000E+03  0.47000000000E+01 0.  1.
</event>
<event>
 4    1  0.4924477E-004  0.1000000E+04  0.7546771E-02  0.8684367E-01
         11   -1    0    0    0    0  0.00000000000E+00  0.00000000000E+00  0.50000000000E+03  0.50000000000E+03  0.00000000000E+00 0.  1.
        -11   -1    0    0    0    0 -0.00000000000E+00 -0.00000000000E+00 -0.50000000000E+03  0.50000000000E+03  0.00000000000E+00 0. -1.
          5    1    1    2  501    0  0.55540342403E+02 -0.11983201906E+03  0.48221724106E+03  0.50000000000E+03  0.47000000000E+01 0.  1.
         -5    1    1    2    0  501 -0.55540342403E+02  0.11983201906E+03 -0.48221724106E+03  0.50000000000E+03  0.47000000000E+01 0. -1.
</event>
<event>
 4    1  0.4924477E-004  0.1000000E+04  0.7546771E-02  0.8684367E-01
         11   -1    0    0    0    0  0.00000000000E+00  0.00000000000E+00  0.50000000000E+03  0.50000000000E+03  0.00000000000E+00 0. -1.
        -11   -1    0    0    0    0 -0.00000000000E+00 -0.00000000000E+00 -0.50000000000E+03  0.50000000000E+03  0.00000000000E+00 0.  1.
          5    1    1    2  501    0  0.38006537852E+03 -0.61624464445E+02  0.31895241562E+03  0.50000000000E+03  0.47000000000E+01 0. -1.
         -5    1    1    2    0  501 -0.38006537852E+03  0.61624464445E+02 -0.31895241562E+03  0.50000000000E+03  0.47000000000E+01 0.  1.
</event>
<event>
 4    1  0.4924477E-004  0.1000000E+04  0.7546771E-02  0.8684367E-01
         11   -1    0    0    0    0  0.00000000000E+00  0.00000000000E+00  0.50000000000E+03  0.50000000000E+03  0.00000000000E+00 0. -1.
        -11   -1    0    0    0    0 -0.00000000000E+00 -0.00000000000E+00 -0.50000000000E+03  0.50000000000E+03  0.00000000000E+00 0.  1.
          5    1    1    2  501    0  0.20075770875E+03 -0.43427807934E+03 -0.14517851834E+03  0.50000000000E+03  0.47000000000E+01 0. -1.
         -5    1    1    2    0  501 -0.20075770875E+03  0.43427807934E+03  0.14517851834E+03  0.50000000000E+03  0.47000000000E+01 0.  1.
</event>
<event>
 4    1  0.4924477E-004  0.1000000E+04  0.7546771E-02  0.8684367E-01
         11   -1    0    0    0    0  0.00000000000E+00  0.00000000000E+00  0.50000000000E+03  0.50000000000E+03  0.00000000000E+00 0. -1.
        -11   -1    0    0    0    0 -0.00000000000E+00 -0.00000000000E+00 -0.50000000000E+03  0.50000000000E+03  0.00000000000E+00 0.  1.
          5    1    1    2  501    0 -0.35235094177E+03 -0.24105026685E+03  0.26023353490E+03  0.50000000000E+03  0.47000000000E+01 0. -1.
         -5    1    1    2    0  501  0.35235094177E+03  0.24105026685E+03 -0.26023353490E+03  0.50000000000E+03  0.47000000000E+01 0.  1.
</event>
<event>
 4    1  0.4924477E-004  0.1000000E+04  0.7546771E-02  0.8684367E-01
         11   -1    0    0    0    0  0.00000000000E+00  0.00000000000E+00  0.50000000000E+03  0.50000000000E+03  0.00000000000E+00 0. -1.
        -11   -1    0    0    0    0 -0.00000000000E+00 -0.00000000000E+00 -0.50000000000E+03  0.50000000000E+03  0.00000000000E+00 0.  1.
          5    1    1    2  501    0  0.17744346372E+02 -0.48818882447E+03  0.10646464123E+03  0.50000000000E+03  0.47000000000E+01 0. -1.
         -5    1    1    2    0  501 -0.17744346372E+02  0.48818882447E+03 -0.10646464123E+03  0.50000000000E+03  0.47000000000E+01 0.  1.
</event>
<event>
 4    1  0.4924477E-004  0.1000000E+04  0.7546771E-02  0.8684367E-01
         11   -1    0    0    0    0  0.00000000000E+00  0.00000000000E+00  0.50000000000E+03  0.50000000000E+03  0.00000000000E+00 0. -1.
        -11   -1    0    0    0    0 -0.00000000000E+00 -0.00000000000E+00 -0.50000000000E+03  0.50000000000E+03  0.00000000000E+00 0.  1.
          5    1    1    2  501    0  0.25119298245E+03  0.43098472609E+03  0.33647606787E+02  0.50000000000E+03  0.47000000000E+01 0. -1.
         -5    1    1    2    0  501 -0.25119298245E+03 -0.43098472609E+03 -0.33647606787E+02  0.50000000000E+03  0.47000000000E+01 0.  1.
</event>
<event>
 4    1  0.4924477E-004  0.1000000E+04  0.7546771E-02  0.8684367E-01
         11   -1    0    0    0    0  0.00000000000E+00  0.00000000000E+00  0.50000000000E+03  0.50000000000E+03  0.00000000000E+00 0. -1.
        -11   -1    0    0    0    0 -0.00000000000E+00 -0.00000000000E+00 -0.50000000000E+03  0.50000000000E+03  0.00000000000E+00 0.  1.
          5    1    1    2  501    0  0.46921524238E+03  0.11139457441E+03  0.13193261580E+03  0.50000000000E+03  0.47000000000E+01 0. -1.
         -5    1    1    2    0  501 -0.46921524238E+03 -0.11139457441E+03 -0.13193261580E+03  0.50000000000E+03  0.47000000000E+01 0.  1.
</event>
<event>
 4    1  0.4924477E-004  0.1000000E+04  0.7546771E-02  0.8684367E-01
         11   -1    0    0    0    0  0.00000000000E+00  0.00000000000E+00  0.50000000000E+03  0.50000000000E+03  0.00000000000E+00 0. -1.
        -11   -1    0    0    0    0 -0.00000000000E+00 -0.00000000000E+00 -0.50000000000E+03  0.50000000000E+03  0.00000000000E+00 0.  1.
          5    1    1    2  501    0  0.11309676642E+03  0.30121051086E+03  0.38269996025E+03  0.50000000000E+03  0.47000000000E+01 0. -1.
         -5    1    1    2    0  501 -0.11309676642E+03 -0.30121051086E+03 -0.38269996025E+03  0.50000000000E+03  0.47000000000E+01 0.  1.
</event>
<event>
 4    1  0.4924477E-004  0.1000000E+04  0.7546771E-02  0.8684367E-01
         11   -1    0    0    0    0  0.00000000000E+00  0.00000000000E+00  0.50000000000E+03  0.50000000000E+03  0.00000000000E+00 0. -1.
        -11   -1    0    0    0    0 -0.00000000000E+00 -0.00000000000E+00 -0.50000000000E+03  0.50000000000E+03  0.00000000000E+00 0.  1.
          5    1    1    2  501    0 -0.32598612988E+03 -0.37883458547E+03  0.13975334654E+02  0.50000000000E+03  0.47000000000E+01 0. -1.
         -5    1    1    2    0  501  0.32598612988E+03  0.37883458547E+03 -0.13975334654E+02  0.50000000000E+03  0.47000000000E+01 0.  1.
</event>
<event>
 4    1  0.4924477E-004  0.1000000E+04  0.7546771E-02  0.8684367E-01
         11   -1    0    0    0    0  0.00000000000E+00  0.00000000000E+00  0.50000000000E+03  0.50000000000E+03  0.00000000000E+00 0. -1.
        -11   -1    0    0    0    0 -0.00000000000E+00 -0.00000000000E+00 -0.50000000000E+03  0.50000000000E+03  0.00000000000E+00 0.  1.
          5    1    1    2  501    0 -0.47873754511E+03  0.56624558499E+02 -0.13259687885E+03  0.50000000000E+03  0.47000000000E+01 0. -1.
         -5    1    1    2    0  501  0.47873754511E+03 -0.56624558499E+02  0.13259687885E+03  0.50000000000E+03  0.47000000000E+01 0.  1.
</event>
<event>
 4    1  0.4924477E-004  0.1000000E+04  0.7546771E-02  0.8684367E-01
         11   -1    0    0    0    0  0.00000000000E+00  0.00000000000E+00  0.50000000000E+03  0.50000000000E+03  0.00000000000E+00 0. -1.
        -11   -1    0    0    0    0 -0.00000000000E+00 -0.00000000000E+00 -0.50000000000E+03  0.50000000000E+03  0.00000000000E+00 0.  1.
          5    1    1    2  501    0 -0.19671509176E+03  0.31687847573E+03  0.33297014024E+03  0.50000000000E+03  0.47000000000E+01 0. -1.
         -5    1    1    2    0  501  0.19671509176E+03 -0.31687847573E+03 -0.33297014024E+03  0.50000000000E+03  0.47000000000E+01 0.  1.
</event>
<event>
 4    1  0.4924477E-004  0.1000000E+04  0.7546771E-02  0.8684367E-01
         11   -1    0    0    0    0  0.00000000000E+00  0.00000000000E+00  0.50000000000E+03  0.50000000000E+03  0.00000000000E+00 0. -1.
        -11   -1    0    0    0    0 -0.00000000000E+00 -0.00000000000E+00 -0.50000000000E+03  0.50000000000E+03  0.00000000000E+00 0.  1.
          5    1    1    2  501    0  0.26251860995E+03  0.20645270545E+02  0.42501254362E+03  0.50000000000E+03  0.47000000000E+01 0. -1.
         -5    1    1    2    0  501 -0.26251860995E+03 -0.20645270545E+02 -0.42501254362E+03  0.50000000000E+03  0.47000000000E+01 0.  1.
</event>
<event>
 4    1  0.4924477E-004  0.1000000E+04  0.7546771E-02  0.8684367E-01
         11   -1    0    0    0    0  0.00000000000E+00  0.00000000000E+00  0.50000000000E+03  0.50000000000E+03  0.00000000000E+00 0. -1.
        -11   -1    0    0    0    0 -0.00000000000E+00 -0.00000000000E+00 -0.50000000000E+03  0.50000000000E+03  0.00000000000E+00 0.  1.
          5    1    1    2  501    0 -0.42456711551E+03 -0.36970343695E+01  0.26402084457E+03  0.50000000000E+03  0.47000000000E+01 0. -1.
         -5    1    1    2    0  501  0.42456711551E+03  0.36970343695E+01 -0.26402084457E+03  0.50000000000E+03  0.47000000000E+01 0.  1.
</event>
<event>
 4    1  0.4924477E-004  0.1000000E+04  0.7546771E-02  0.8684367E-01
         11   -1    0    0    0    0  0.00000000000E+00  0.00000000000E+00  0.50000000000E+03  0.50000000000E+03  0.00000000000E+00 0. -1.
        -11   -1    0    0    0    0 -0.00000000000E+00 -0.00000000000E+00 -0.50000000000E+03  0.50000000000E+03  0.00000000000E+00 0.  1.
          5    1    1    2  501    0  0.48854142791E+03 -0.48735633686E+02 -0.94498789555E+02  0.50000000000E+03  0.47000000000E+01 0. -1.
         -5    1    1    2    0  501 -0.48854142791E+03  0.48735633686E+02  0.94498789555E+02  0.50000000000E+03  0.47000000000E+01 0.  1.
</event>
<event>
 4    1  0.4924477E-004  0.1000000E+04  0.7546771E-02  0.8684367E-01
         11   -1    0    0    0    0  0.00000000000E+00  0.00000000000E+00  0.50000000000E+03  0.50000000000E+03  0.00000000000E+00 0. -1.
        -11   -1    0    0    0    0 -0.00000000000E+00 -0.00000000000E+00 -0.50000000000E+03  0.50000000000E+03  0.00000000000E+00 0.  1.
          5    1    1    2  501    0 -0.32711442396E+03 -0.37307662496E+03  0.61545881613E+02  0.50000000000E+03  0.47000000000E+01 0. -1.
         -5    1    1    2    0  501  0.32711442396E+03  0.37307662496E+03 -0.61545881613E+02  0.50000000000E+03  0.47000000000E+01 0.  1.
</event>
<event>
 4    1  0.4924477E-004  0.1000000E+04  0.7546771E-02  0.8684367E-01
         11   -1    0    0    0    0  0.00000000000E+00  0.00000000000E+00  0.50000000000E+03  0.50000000000E+03  0.00000000000E+00 0. -1.
        -11   -1    0    0    0    0 -0.00000000000E+00 -0.00000000000E+00 -0.50000000000E+03  0.50000000000E+03  0.00000000000E+00 0.  1.
          5    1    1    2  501    0  0.19357057039E+02  0.49493604063E+03 -0.68128775299E+02  0.50000000000E+03  0.47000000000E+01 0. -1.
         -5    1    1    2    0  501 -0.19357057039E+02 -0.49493604063E+03  0.68128775299E+02  0.50000000000E+03  0.47000000000E+01 0.  1.
</event>
<event>
 4    1  0.4924477E-004  0.1000000E+04  0.7546771E-02  0.8684367E-01
         11   -1    0    0    0    0  0.00000000000E+00  0.00000000000E+00  0.50000000000E+03  0.50000000000E+03  0.00000000000E+00 0. -1.
        -11   -1    0    0    0    0 -0.00000000000E+00 -0.00000000000E+00 -0.50000000000E+03  0.50000000000E+03  0.00000000000E+00 0.  1.
          5    1    1    2  501    0  0.25742585628E+03  0.13159254308E+03  0.40791327648E+03  0.50000000000E+03  0.47000000000E+01 0. -1.
         -5    1    1    2    0  501 -0.25742585628E+03 -0.13159254308E+03 -0.40791327648E+03  0.50000000000E+03  0.47000000000E+01 0.  1.
</event>
<event>
 4    1  0.4924477E-004  0.1000000E+04  0.7546771E-02  0.8684367E-01
         11   -1    0    0    0    0  0.00000000000E+00  0.00000000000E+00  0.50000000000E+03  0.50000000000E+03  0.00000000000E+00 0. -1.
        -11   -1    0    0    0    0 -0.00000000000E+00 -0.00000000000E+00 -0.50000000000E+03  0.50000000000E+03  0.00000000000E+00 0.  1.
          5    1    1    2  501    0  0.42244908615E+03  0.17842992411E+03  0.19919197223E+03  0.50000000000E+03  0.47000000000E+01 0. -1.
         -5    1    1    2    0  501 -0.42244908615E+03 -0.17842992411E+03 -0.19919197223E+03  0.50000000000E+03  0.47000000000E+01 0.  1.
</event>
<event>
 4    1  0.4924477E-004  0.1000000E+04  0.7546771E-02  0.8684367E-01
         11   -1    0    0    0    0  0.00000000000E+00  0.00000000000E+00  0.50000000000E+03  0.50000000000E+03  0.00000000000E+00 0.  1.
        -11   -1    0    0    0    0 -0.00000000000E+00 -0.00000000000E+00 -0.50000000000E+03  0.50000000000E+03  0.00000000000E+00 0. -1.
          5    1    1    2  501    0 -0.17496767783E+03  0.72396072710E+02  0.46273429781E+03  0.50000000000E+03  0.47000000000E+01 0.  1.
         -5    1    1    2    0  501  0.17496767783E+03 -0.72396072710E+02 -0.46273429781E+03  0.50000000000E+03  0.47000000000E+01 0. -1.
</event>
<event>
 4    1  0.4924477E-004  0.1000000E+04  0.7546771E-02  0.8684367E-01
         11   -1    0    0    0    0  0.00000000000E+00  0.00000000000E+00  0.50000000000E+03  0.50000000000E+03  0.00000000000E+00 0. -1.
        -11   -1    0    0    0    0 -0.00000000000E+00 -0.00000000000E+00 -0.50000000000E+03  0.50000000000E+03  0.00000000000E+00 0.  1.
          5    1    1    2  501    0 -0.19093503478E+03 -0.33562447790E+03  0.31761286550E+03  0.50000000000E+03  0.47000000000E+01 0. -1.
         -5    1    1    2    0  501  0.19093503478E+03  0.33562447790E+03 -0.31761286550E+03  0.50000000000E+03  0.47000000000E+01 0.  1.
</event>
<event>
 4    1  0.4924477E-004  0.1000000E+04  0.7546771E-02  0.8684367E-01
         11   -1    0    0    0    0  0.00000000000E+00  0.00000000000E+00  0.50000000000E+03  0.50000000000E+03  0.00000000000E+00 0.  1.
        -11   -1    0    0    0    0 -0.00000000000E+00 -0.00000000000E+00 -0.50000000000E+03  0.50000000000E+03  0.00000000000E+00 0. -1.
          5    1    1    2  501    0 -0.27229468618E+03 -0.58425930941E+02  0.41523478235E+03  0.50000000000E+03  0.47000000000E+01 0.  1.
         -5    1    1    2    0  501  0.27229468618E+03  0.58425930941E+02 -0.41523478235E+03  0.50000000000E+03  0.47000000000E+01 0. -1.
</event>
<event>
 4    1  0.4924477E-004  0.1000000E+04  0.7546771E-02  0.8684367E-01
         11   -1    0    0    0    0  0.00000000000E+00  0.00000000000E+00  0.50000000000E+03  0.50000000000E+03  0.00000000000E+00 0. -1.
        -11   -1    0    0    0    0 -0.00000000000E+00 -0.00000000000E+00 -0.50000000000E+03  0.50000000000E+03  0.00000000000E+00 0.  1.
          5    1    1    2  501    0  0.33914606580E+03  0.33146935002E+03  0.15838537196E+03  0.50000000000E+03  0.47000000000E+01 0. -1.
         -5    1    1    2    0  501 -0.33914606580E+03 -0.33146935002E+03 -0.15838537196E+03  0.50000000000E+03  0.47000000000E+01 0.  1.
</event>
<event>
 4    1  0.4924477E-004  0.1000000E+04  0.7546771E-02  0.8684367E-01
         11   -1    0    0    0    0  0.00000000000E+00  0.00000000000E+00  0.50000000000E+03  0.50000000000E+03  0.00000000000E+00 0. -1.
        -11   -1    0    0    0    0 -0.00000000000E+00 -0.00000000000E+00 -0.50000000000E+03  0.50000000000E+03  0.00000000000E+00 0.  1.
          5    1    1    2  501    0 -0.40115589957E+03 -0.23075984653E+03  0.18921349707E+03  0.50000000000E+03  0.47000000000E+01 0. -1.
         -5    1    1    2    0  501  0.40115589957E+03  0.23075984653E+03 -0.18921349707E+03  0.50000000000E+03  0.47000000000E+01 0.  1.
</event>
<event>
 4    1  0.4924477E-004  0.1000000E+04  0.7546771E-02  0.8684367E-01
         11   -1    0    0    0    0  0.00000000000E+00  0.00000000000E+00  0.50000000000E+03  0.50000000000E+03  0.00000000000E+00 0.  1.
        -11   -1    0    0    0    0 -0.00000000000E+00 -0.00000000000E+00 -0.50000000000E+03  0.50000000000E+03  0.00000000000E+00 0. -1.
          5    1    1    2  501    0  0.23604835042E+03 -0.13722171164E+03 -0.41884279643E+03  0.50000000000E+03  0.47000000000E+01 0. -1.
         -5    1    1    2    0  501 -0.23604835042E+03  0.13722171164E+03  0.41884279643E+03  0.50000000000E+03  0.47000000000E+01 0.  1.
</event>
<event>
 4    1  0.4924477E-004  0.1000000E+04  0.7546771E-02  0.8684367E-01
         11   -1    0    0    0    0  0.00000000000E+00  0.00000000000E+00  0.50000000000E+03  0.50000000000E+03  0.00000000000E+00 0. -1.
        -11   -1    0    0    0    0 -0.00000000000E+00 -0.00000000000E+00 -0.50000000000E+03  0.50000000000E+03  0.00000000000E+00 0.  1.
          5    1    1    2  501    0  0.36690012272E+03 -0.33034633592E+03 -0.78952569903E+02  0.50000000000E+03  0.47000000000E+01 0. -1.
         -5    1    1    2    0  501 -0.36690012272E+03  0.33034633592E+03  0.78952569903E+02  0.50000000000E+03  0.47000000000E+01 0.  1.
</event>
<event>
 4    1  0.4924477E-004  0.1000000E+04  0.7546771E-02  0.8684367E-01
         11   -1    0    0    0    0  0.00000000000E+00  0.00000000000E+00  0.50000000000E+03  0.50000000000E+03  0.00000000000E+00 0. -1.
        -11   -1    0    0    0    0 -0.00000000000E+00 -0.00000000000E+00 -0.50000000000E+03  0.50000000000E+03  0.00000000000E+00 0.  1.
          5    1    1    2  501    0 -0.14103011801E+03  0.25622144866E+03  0.40551077059E+03  0.50000000000E+03  0.47000000000E+01 0. -1.
         -5    1    1    2    0  501  0.14103011801E+03 -0.25622144866E+03 -0.40551077059E+03  0.50000000000E+03  0.47000000000E+01 0.  1.
</event>
<event>
 4    1  0.4924477E-004  0.1000000E+04  0.7546771E-02  0.8684367E-01
         11   -1    0    0    0    0  0.00000000000E+00  0.00000000000E+00  0.50000000000E+03  0.50000000000E+03  0.00000000000E+00 0. -1.
        -11   -1    0    0    0    0 -0.00000000000E+00 -0.00000000000E+00 -0.50000000000E+03  0.50000000000E+03  0.00000000000E+00 0.  1.
          5    1    1    2  501    0  0.88670417721E+02 -0.33328218128E+03  0.36199234061E+03  0.50000000000E+03  0.47000000000E+01 0. -1.
         -5    1    1    2    0  501 -0.88670417721E+02  0.33328218128E+03 -0.36199234061E+03  0.50000000000E+03  0.47000000000E+01 0.  1.
</event>
<event>
 4    1  0.4924477E-004  0.1000000E+04  0.7546771E-02  0.8684367E-01
         11   -1    0    0    0    0  0.00000000000E+00  0.00000000000E+00  0.50000000000E+03  0.50000000000E+03  0.00000000000E+00 0. -1.
        -11   -1    0    0    0    0 -0.00000000000E+00 -0.00000000000E+00 -0.50000000000E+03  0.50000000000E+03  0.00000000000E+00 0.  1.
          5    1    1    2  501    0 -0.18696094068E+03 -0.27538516601E+03  0.37307710598E+03  0.50000000000E+03  0.47000000000E+01 0. -1.
         -5    1    1    2    0  501  0.18696094068E+03  0.27538516601E+03 -0.37307710598E+03  0.50000000000E+03  0.47000000000E+01 0.  1.
</event>
<event>
 4    1  0.4924477E-004  0.1000000E+04  0.7546771E-02  0.8684367E-01
         11   -1    0    0    0    0  0.00000000000E+00  0.00000000000E+00  0.50000000000E+03  0.50000000000E+03  0.00000000000E+00 0. -1.
        -11   -1    0    0    0    0 -0.00000000000E+00 -0.00000000000E+00 -0.50000000000E+03  0.50000000000E+03  0.00000000000E+00 0.  1.
          5    1    1    2  501    0  0.22638393877E+03 -0.56669735808E+02  0.44217277541E+03  0.50000000000E+03  0.47000000000E+01 0. -1.
         -5    1    1    2    0  501 -0.22638393877E+03  0.56669735808E+02 -0.44217277541E+03  0.50000000000E+03  0.47000000000E+01 0.  1.
</event>
<event>
 4    1  0.4924477E-004  0.1000000E+04  0.7546771E-02  0.8684367E-01
         11   -1    0    0    0    0  0.00000000000E+00  0.00000000000E+00  0.50000000000E+03  0.50000000000E+03  0.00000000000E+00 0. -1.
        -11   -1    0    0    0    0 -0.00000000000E+00 -0.00000000000E+00 -0.50000000000E+03  0.50000000000E+03  0.00000000000E+00 0.  1.
          5    1    1    2  501    0  0.11695822464E+03  0.43965371397E+03  0.20737235949E+03  0.50000000000E+03  0.47000000000E+01 0. -1.
         -5    1    1    2    0  501 -0.11695822464E+03 -0.43965371397E+03 -0.20737235949E+03  0.50000000000E+03  0.47000000000E+01 0.  1.
</event>
<event>
 4    1  0.4924477E-004  0.1000000E+04  0.7546771E-02  0.8684367E-01
         11   -1    0    0    0    0  0.00000000000E+00  0.00000000000E+00  0.50000000000E+03  0.50000000000E+03  0.00000000000E+00 0.  1.
        -11   -1    0    0    0    0 -0.00000000000E+00 -0.00000000000E+00 -0.50000000000E+03  0.50000000000E+03  0.00000000000E+00 0. -1.
          5    1    1    2  501    0 -0.18060031836E+03 -0.21170332375E+03  0.41538312161E+03  0.50000000000E+03  0.47000000000E+01 0.  1.
         -5    1    1    2    0  501  0.18060031836E+03  0.21170332375E+03 -0.41538312161E+03  0.50000000000E+03  0.47000000000E+01 0. -1.
</event>
<event>
 4    1  0.4924477E-004  0.1000000E+04  0.7546771E-02  0.8684367E-01
         11   -1    0    0    0    0  0.00000000000E+00  0.00000000000E+00  0.50000000000E+03  0.50000000000E+03  0.00000000000E+00 0. -1.
        -11   -1    0    0    0    0 -0.00000000000E+00 -0.00000000000E+00 -0.50000000000E+03  0.50000000000E+03  0.00000000000E+00 0.  1.
          5    1    1    2  501    0  0.14272952189E+03 -0.34110565239E+03  0.33653102010E+03  0.50000000000E+03  0.47000000000E+01 0. -1.
         -5    1    1    2    0  501 -0.14272952189E+03  0.34110565239E+03 -0.33653102010E+03  0.50000000000E+03  0.47000000000E+01 0.  1.
</event>
<event>
 4    1  0.4924477E-004  0.1000000E+04  0.7546771E-02  0.8684367E-01
         11   -1    0    0    0    0  0.00000000000E+00  0.00000000000E+00  0.50000000000E+03  0.50000000000E+03  0.00000000000E+00 0. -1.
        -11   -1    0    0    0    0 -0.00000000000E+00 -0.00000000000E+00 -0.50000000000E+03  0.50000000000E+03  0.00000000000E+00 0.  1.
          5    1    1    2  501    0 -0.72266222384E+02  0.76520705825E+02  0.48877406302E+03  0.50000000000E+03  0.47000000000E+01 0. -1.
         -5    1    1    2    0  501  0.72266222384E+02 -0.76520705825E+02 -0.48877406302E+03  0.50000000000E+03  0.47000000000E+01 0.  1.
</event>
<event>
 4    1  0.4924477E-004  0.1000000E+04  0.7546771E-02  0.8684367E-01
         11   -1    0    0    0    0  0.00000000000E+00  0.00000000000E+00  0.50000000000E+03  0.50000000000E+03  0.00000000000E+00 0.  1.
        -11   -1    0    0    0    0 -0.00000000000E+00 -0.00000000000E+00 -0.50000000000E+03  0.50000000000E+03  0.00000000000E+00 0. -1.
          5    1    1    2  501    0  0.33883606502E+03 -0.17965715568E+03 -0.32076679606E+03  0.50000000000E+03  0.47000000000E+01 0. -1.
         -5    1    1    2    0  501 -0.33883606502E+03  0.17965715568E+03  0.32076679606E+03  0.50000000000E+03  0.47000000000E+01 0.  1.
</event>
<event>
 4    1  0.4924477E-004  0.1000000E+04  0.7546771E-02  0.8684367E-01
         11   -1    0    0    0    0  0.00000000000E+00  0.00000000000E+00  0.50000000000E+03  0.50000000000E+03  0.00000000000E+00 0. -1.
        -11   -1    0    0    0    0 -0.00000000000E+00 -0.00000000000E+00 -0.50000000000E+03  0.50000000000E+03  0.00000000000E+00 0.  1.
          5    1    1    2  501    0 -0.39735143399E+03 -0.88205894765E+01  0.30333470804E+03  0.50000000000E+03  0.47000000000E+01 0. -1.
         -5    1    1    2    0  501  0.39735143399E+03  0.88205894765E+01 -0.30333470804E+03  0.50000000000E+03  0.47000000000E+01 0.  1.
</event>
<event>
 4    1  0.4924477E-004  0.1000000E+04  0.7546771E-02  0.8684367E-01
         11   -1    0    0    0    0  0.00000000000E+00  0.00000000000E+00  0.50000000000E+03  0.50000000000E+03  0.00000000000E+00 0. -1.
        -11   -1    0    0    0    0 -0.00000000000E+00 -0.00000000000E+00 -0.50000000000E+03  0.50000000000E+03  0.00000000000E+00 0.  1.
          5    1    1    2  501    0 -0.17718255053E+03 -0.22559188871E+03 -0.40950281261E+03  0.50000000000E+03  0.47000000000E+01 0.  1.
         -5    1    1    2    0  501  0.17718255053E+03  0.22559188871E+03  0.40950281261E+03  0.50000000000E+03  0.47000000000E+01 0. -1.
</event>
<event>
 4    1  0.4924477E-004  0.1000000E+04  0.7546771E-02  0.8684367E-01
         11   -1    0    0    0    0  0.00000000000E+00  0.00000000000E+00  0.50000000000E+03  0.50000000000E+03  0.00000000000E+00 0.  1.
        -11   -1    0    0    0    0 -0.00000000000E+00 -0.00000000000E+00 -0.50000000000E+03  0.50000000000E+03  0.00000000000E+00 0. -1.
          5    1    1    2  501    0  0.36753721583E+03  0.31553470654E+03 -0.12382307520E+03  0.50000000000E+03  0.47000000000E+01 0. -1.
         -5    1    1    2    0  501 -0.36753721583E+03 -0.31553470654E+03  0.12382307520E+03  0.50000000000E+03  0.47000000000E+01 0.  1.
</event>
<event>
 4    1  0.4924477E-004  0.1000000E+04  0.7546771E-02  0.8684367E-01
         11   -1    0    0    0    0  0.00000000000E+00  0.00000000000E+00  0.50000000000E+03  0.50000000000E+03  0.00000000000E+00 0.  1.
        -11   -1    0    0    0    0 -0.00000000000E+00 -0.00000000000E+00 -0.50000000000E+03  0.50000000000E+03  0.00000000000E+00 0. -1.
          5    1    1    2  501    0  0.21592947626E+03  0.14162817352E+03  0.42812828889E+03  0.50000000000E+03  0.47000000000E+01 0.  1.
         -5    1    1    2    0  501 -0.21592947626E+03 -0.14162817352E+03 -0.42812828889E+03  0.50000000000E+03  0.47000000000E+01 0. -1.
</event>
<event>
 4    1  0.4924477E-004  0.1000000E+04  0.7546771E-02  0.8684367E-01
         11   -1    0    0    0    0  0.00000000000E+00  0.00000000000E+00  0.50000000000E+03  0.50000000000E+03  0.00000000000E+00 0. -1.
        -11   -1    0    0    0    0 -0.00000000000E+00 -0.00000000000E+00 -0.50000000000E+03  0.50000000000E+03  0.00000000000E+00 0.  1.
          5    1    1    2  501    0  0.13115961610E+03  0.40289208811E+03  0.26542989742E+03  0.50000000000E+03  0.47000000000E+01 0. -1.
         -5    1    1    2    0  501 -0.13115961610E+03 -0.40289208811E+03 -0.26542989742E+03  0.50000000000E+03  0.47000000000E+01 0.  1.
</event>
<event>
 4    1  0.4924477E-004  0.1000000E+04  0.7546771E-02  0.8684367E-01
         11   -1    0    0    0    0  0.00000000000E+00  0.00000000000E+00  0.50000000000E+03  0.50000000000E+03  0.00000000000E+00 0. -1.
        -11   -1    0    0    0    0 -0.00000000000E+00 -0.00000000000E+00 -0.50000000000E+03  0.50000000000E+03  0.00000000000E+00 0.  1.
          5    1    1    2  501    0 -0.78621595793E+02 -0.49368735452E+03  0.83277047274E+01  0.50000000000E+03  0.47000000000E+01 0. -1.
         -5    1    1    2    0  501  0.78621595793E+02  0.49368735452E+03 -0.83277047274E+01  0.50000000000E+03  0.47000000000E+01 0.  1.
</event>
<event>
 4    1  0.4924477E-004  0.1000000E+04  0.7546771E-02  0.8684367E-01
         11   -1    0    0    0    0  0.00000000000E+00  0.00000000000E+00  0.50000000000E+03  0.50000000000E+03  0.00000000000E+00 0. -1.
        -11   -1    0    0    0    0 -0.00000000000E+00 -0.00000000000E+00 -0.50000000000E+03  0.50000000000E+03  0.00000000000E+00 0.  1.
          5    1    1    2  501    0 -0.78831366955E+02  0.31689408491E+03 -0.37860489238E+03  0.50000000000E+03  0.47000000000E+01 0. -1.
         -5    1    1    2    0  501  0.78831366955E+02 -0.31689408491E+03  0.37860489238E+03  0.50000000000E+03  0.47000000000E+01 0.  1.
</event>
<event>
 4    1  0.4924477E-004  0.1000000E+04  0.7546771E-02  0.8684367E-01
         11   -1    0    0    0    0  0.00000000000E+00  0.00000000000E+00  0.50000000000E+03  0.50000000000E+03  0.00000000000E+00 0. -1.
        -11   -1    0    0    0    0 -0.00000000000E+00 -0.00000000000E+00 -0.50000000000E+03  0.50000000000E+03  0.00000000000E+00 0.  1.
          5    1    1    2  501    0 -0.32378890659E+03 -0.23280703766E+03  0.30156182979E+03  0.50000000000E+03  0.47000000000E+01 0. -1.
         -5    1    1    2    0  501  0.32378890659E+03  0.23280703766E+03 -0.30156182979E+03  0.50000000000E+03  0.47000000000E+01 0.  1.
</event>
<event>
 4    1  0.4924477E-004  0.1000000E+04  0.7546771E-02  0.8684367E-01
         11   -1    0    0    0    0  0.00000000000E+00  0.00000000000E+00  0.50000000000E+03  0.50000000000E+03  0.00000000000E+00 0. -1.
        -11   -1    0    0    0    0 -0.00000000000E+00 -0.00000000000E+00 -0.50000000000E+03  0.50000000000E+03  0.00000000000E+00 0.  1.
          5    1    1    2  501    0 -0.48933652924E+03  0.93395955564E+02 -0.42483722027E+02  0.50000000000E+03  0.47000000000E+01 0. -1.
         -5    1    1    2    0  501  0.48933652924E+03 -0.93395955564E+02  0.42483722027E+02  0.50000000000E+03  0.47000000000E+01 0.  1.
</event>
<event>
 4    1  0.4924477E-004  0.1000000E+04  0.7546771E-02  0.8684367E-01
         11   -1    0    0    0    0  0.00000000000E+00  0.00000000000E+00  0.50000000000E+03  0.50000000000E+03  0.00000000000E+00 0. -1.
        -11   -1    0    0    0    0 -0.00000000000E+00 -0.00000000000E+00 -0.50000000000E+03  0.50000000000E+03  0.00000000000E+00 0.  1.
          5    1    1    2  501    0  0.17964632940E+03  0.44829144610E+03  0.12938271014E+03  0.50000000000E+03  0.47000000000E+01 0. -1.
         -5    1    1    2    0  501 -0.17964632940E+03 -0.44829144610E+03 -0.12938271014E+03  0.50000000000E+03  0.47000000000E+01 0.  1.
</event>
<event>
 4    1  0.4924477E-004  0.1000000E+04  0.7546771E-02  0.8684367E-01
         11   -1    0    0    0    0  0.00000000000E+00  0.00000000000E+00  0.50000000000E+03  0.50000000000E+03  0.00000000000E+00 0. -1.
        -11   -1    0    0    0    0 -0.00000000000E+00 -0.00000000000E+00 -0.50000000000E+03  0.50000000000E+03  0.00000000000E+00 0.  1.
          5    1    1    2  501    0 -0.20755737881E+03  0.50924515212E+01  0.45483173970E+03  0.50000000000E+03  0.47000000000E+01 0. -1.
         -5    1    1    2    0  501  0.20755737881E+03 -0.50924515212E+01 -0.45483173970E+03  0.50000000000E+03  0.47000000000E+01 0.  1.
</event>
<event>
 4    1  0.4924477E-004  0.1000000E+04  0.7546771E-02  0.8684367E-01
         11   -1    0    0    0    0  0.00000000000E+00  0.00000000000E+00  0.50000000000E+03  0.50000000000E+03  0.00000000000E+00 0. -1.
        -11   -1    0    0    0    0 -0.00000000000E+00 -0.00000000000E+00 -0.50000000000E+03  0.50000000000E+03  0.00000000000E+00 0.  1.
          5    1    1    2  501    0 -0.32388860954E+03  0.38088486792E+03  0.89218678670E+00  0.50000000000E+03  0.47000000000E+01 0. -1.
         -5    1    1    2    0  501  0.32388860954E+03 -0.38088486792E+03 -0.89218678670E+00  0.50000000000E+03  0.47000000000E+01 0.  1.
</event>
<event>
 4    1  0.4924477E-004  0.1000000E+04  0.7546771E-02  0.8684367E-01
         11   -1    0    0    0    0  0.00000000000E+00  0.00000000000E+00  0.50000000000E+03  0.50000000000E+03  0.00000000000E+00 0.  1.
        -11   -1    0    0    0    0 -0.00000000000E+00 -0.00000000000E+00 -0.50000000000E+03  0.50000000000E+03  0.00000000000E+00 0. -1.
          5    1    1    2  501    0  0.27995408765E+03 -0.40123427160E+03 -0.10302755994E+03  0.50000000000E+03  0.47000000000E+01 0.  1.
         -5    1    1    2    0  501 -0.27995408765E+03  0.40123427160E+03  0.10302755994E+03  0.50000000000E+03  0.47000000000E+01 0. -1.
</event>
<event>
 4    1  0.4924477E-004  0.1000000E+04  0.7546771E-02  0.8684367E-01
         11   -1    0    0    0    0  0.00000000000E+00  0.00000000000E+00  0.50000000000E+03  0.50000000000E+03  0.00000000000E+00 0.  1.
        -11   -1    0    0    0    0 -0.00000000000E+00 -0.00000000000E+00 -0.50000000000E+03  0.50000000000E+03  0.00000000000E+00 0. -1.
          5    1    1    2  501    0 -0.13775603734E+03  0.21997330864E+03  0.42733233866E+03  0.50000000000E+03  0.47000000000E+01 0.  1.
         -5    1    1    2    0  501  0.13775603734E+03 -0.21997330864E+03 -0.42733233866E+03  0.50000000000E+03  0.47000000000E+01 0. -1.
</event>
<event>
 4    1  0.4924477E-004  0.1000000E+04  0.7546771E-02  0.8684367E-01
         11   -1    0    0    0    0  0.00000000000E+00  0.00000000000E+00  0.50000000000E+03  0.50000000000E+03  0.00000000000E+00 0. -1.
        -11   -1    0    0    0    0 -0.00000000000E+00 -0.00000000000E+00 -0.50000000000E+03  0.50000000000E+03  0.00000000000E+00 0.  1.
          5    1    1    2  501    0 -0.14136179149E+03 -0.72200833340E+02  0.47411158346E+03  0.50000000000E+03  0.47000000000E+01 0. -1.
         -5    1    1    2    0  501  0.14136179149E+03  0.72200833340E+02 -0.47411158346E+03  0.50000000000E+03  0.47000000000E+01 0.  1.
</event>
<event>
 4    1  0.4924477E-004  0.1000000E+04  0.7546771E-02  0.8684367E-01
         11   -1    0    0    0    0  0.00000000000E+00  0.00000000000E+00  0.50000000000E+03  0.50000000000E+03  0.00000000000E+00 0.  1.
        -11   -1    0    0    0    0 -0.00000000000E+00 -0.00000000000E+00 -0.50000000000E+03  0.50000000000E+03  0.00000000000E+00 0. -1.
          5    1    1    2  501    0  0.35333265223E+03  0.25077576453E+03  0.24949040620E+03  0.50000000000E+03  0.47000000000E+01 0.  1.
         -5    1    1    2    0  501 -0.35333265223E+03 -0.25077576453E+03 -0.24949040620E+03  0.50000000000E+03  0.47000000000E+01 0. -1.
</event>
<event>
 4    1  0.4924477E-004  0.1000000E+04  0.7546771E-02  0.8684367E-01
         11   -1    0    0    0    0  0.00000000000E+00  0.00000000000E+00  0.50000000000E+03  0.50000000000E+03  0.00000000000E+00 0. -1.
        -11   -1    0    0    0    0 -0.00000000000E+00 -0.00000000000E+00 -0.50000000000E+03  0.50000000000E+03  0.00000000000E+00 0.  1.
          5    1    1    2  501    0 -0.16787770462E+03  0.39256292456E+03 -0.26017174434E+03  0.50000000000E+03  0.47000000000E+01 0.  1.
         -5    1    1    2    0  501  0.16787770462E+03 -0.39256292456E+03  0.26017174434E+03  0.50000000000E+03  0.47000000000E+01 0. -1.
</event>
<event>
 4    1  0.4924477E-004  0.1000000E+04  0.7546771E-02  0.8684367E-01
         11   -1    0    0    0    0  0.00000000000E+00  0.00000000000E+00  0.50000000000E+03  0.50000000000E+03  0.00000000000E+00 0. -1.
        -11   -1    0    0    0    0 -0.00000000000E+00 -0.00000000000E+00 -0.50000000000E+03  0.50000000000E+03  0.00000000000E+00 0.  1.
          5    1    1    2  501    0 -0.29821360372E+03 -0.68005029623E+02  0.39550205120E+03  0.50000000000E+03  0.47000000000E+01 0. -1.
         -5    1    1    2    0  501  0.29821360372E+03  0.68005029623E+02 -0.39550205120E+03  0.50000000000E+03  0.47000000000E+01 0.  1.
</event>
<event>
 4    1  0.4924477E-004  0.1000000E+04  0.7546771E-02  0.8684367E-01
         11   -1    0    0    0    0  0.00000000000E+00  0.00000000000E+00  0.50000000000E+03  0.50000000000E+03  0.00000000000E+00 0. -1.
        -11   -1    0    0    0    0 -0.00000000000E+00 -0.00000000000E+00 -0.50000000000E+03  0.50000000000E+03  0.00000000000E+00 0.  1.
          5    1    1    2  501    0  0.23961827131E+03 -0.85161499309E+02  0.43047475314E+03  0.50000000000E+03  0.47000000000E+01 0. -1.
         -5    1    1    2    0  501 -0.23961827131E+03  0.85161499309E+02 -0.43047475314E+03  0.50000000000E+03  0.47000000000E+01 0.  1.
</event>
<event>
 4    1  0.4924477E-004  0.1000000E+04  0.7546771E-02  0.8684367E-01
         11   -1    0    0    0    0  0.00000000000E+00  0.00000000000E+00  0.50000000000E+03  0.50000000000E+03  0.00000000000E+00 0. -1.
        -11   -1    0    0    0    0 -0.00000000000E+00 -0.00000000000E+00 -0.50000000000E+03  0.50000000000E+03  0.00000000000E+00 0.  1.
          5    1    1    2  501    0  0.44510194449E+03 -0.43468387564E+02  0.22354567384E+03  0.50000000000E+03  0.47000000000E+01 0. -1.
         -5    1    1    2    0  501 -0.44510194449E+03  0.43468387564E+02 -0.22354567384E+03  0.50000000000E+03  0.47000000000E+01 0.  1.
</event>
<event>
 4    1  0.4924477E-004  0.1000000E+04  0.7546771E-02  0.8684367E-01
         11   -1    0    0    0    0  0.00000000000E+00  0.00000000000E+00  0.50000000000E+03  0.50000000000E+03  0.00000000000E+00 0. -1.
        -11   -1    0    0    0    0 -0.00000000000E+00 -0.00000000000E+00 -0.50000000000E+03  0.50000000000E+03  0.00000000000E+00 0.  1.
          5    1    1    2  501    0  0.17052475738E+01  0.11382913178E+03  0.48684487354E+03  0.50000000000E+03  0.47000000000E+01 0. -1.
         -5    1    1    2    0  501 -0.17052475738E+01 -0.11382913178E+03 -0.48684487354E+03  0.50000000000E+03  0.47000000000E+01 0.  1.
</event>
<event>
 4    1  0.4924477E-004  0.1000000E+04  0.7546771E-02  0.8684367E-01
         11   -1    0    0    0    0  0.00000000000E+00  0.00000000000E+00  0.50000000000E+03  0.50000000000E+03  0.00000000000E+00 0.  1.
        -11   -1    0    0    0    0 -0.00000000000E+00 -0.00000000000E+00 -0.50000000000E+03  0.50000000000E+03  0.00000000000E+00 0. -1.
          5    1    1    2  501    0 -0.21095688331E+03  0.24495086032E+03  0.38141077517E+03  0.50000000000E+03  0.47000000000E+01 0.  1.
         -5    1    1    2    0  501  0.21095688331E+03 -0.24495086032E+03 -0.38141077517E+03  0.50000000000E+03  0.47000000000E+01 0. -1.
</event>
<event>
 4    1  0.4924477E-004  0.1000000E+04  0.7546771E-02  0.8684367E-01
         11   -1    0    0    0    0  0.00000000000E+00  0.00000000000E+00  0.50000000000E+03  0.50000000000E+03  0.00000000000E+00 0. -1.
        -11   -1    0    0    0    0 -0.00000000000E+00 -0.00000000000E+00 -0.50000000000E+03  0.50000000000E+03  0.00000000000E+00 0.  1.
          5    1    1    2  501    0 -0.70144862255E+02  0.34582608096E+03  0.35420605589E+03  0.50000000000E+03  0.47000000000E+01 0. -1.
         -5    1    1    2    0  501  0.70144862255E+02 -0.34582608096E+03 -0.35420605589E+03  0.50000000000E+03  0.47000000000E+01 0.  1.
</event>
<event>
 4    1  0.4924477E-004  0.1000000E+04  0.7546771E-02  0.8684367E-01
         11   -1    0    0    0    0  0.00000000000E+00  0.00000000000E+00  0.50000000000E+03  0.50000000000E+03  0.00000000000E+00 0.  1.
        -11   -1    0    0    0    0 -0.00000000000E+00 -0.00000000000E+00 -0.50000000000E+03  0.50000000000E+03  0.00000000000E+00 0. -1.
          5    1    1    2  501    0  0.83843480638E+02 -0.50852624127E+02 -0.49026746922E+03  0.50000000000E+03  0.47000000000E+01 0. -1.
         -5    1    1    2    0  501 -0.83843480638E+02  0.50852624127E+02  0.49026746922E+03  0.50000000000E+03  0.47000000000E+01 0.  1.
</event>
<event>
 4    1  0.4924477E-004  0.1000000E+04  0.7546771E-02  0.8684367E-01
         11   -1    0    0    0    0  0.00000000000E+00  0.00000000000E+00  0.50000000000E+03  0.50000000000E+03  0.00000000000E+00 0. -1.
        -11   -1    0    0    0    0 -0.00000000000E+00 -0.00000000000E+00 -0.50000000000E+03  0.50000000000E+03  0.00000000000E+00 0.  1.
          5    1    1    2  501    0 -0.43986544713E+02  0.18502011939E+03  0.46239663635E+03  0.50000000000E+03  0.47000000000E+01 0. -1.
         -5    1    1    2    0  501  0.43986544713E+02 -0.18502011939E+03 -0.46239663635E+03  0.50000000000E+03  0.47000000000E+01 0.  1.
</event>
<event>
 4    1  0.4924477E-004  0.1000000E+04  0.7546771E-02  0.8684367E-01
         11   -1    0    0    0    0  0.00000000000E+00  0.00000000000E+00  0.50000000000E+03  0.50000000000E+03  0.00000000000E+00 0. -1.
        -11   -1    0    0    0    0 -0.00000000000E+00 -0.00000000000E+00 -0.50000000000E+03  0.50000000000E+03  0.00000000000E+00 0.  1.
          5    1    1    2  501    0 -0.11498370132E+03 -0.34570341682E+03  0.34241174926E+03  0.50000000000E+03  0.47000000000E+01 0. -1.
         -5    1    1    2    0  501  0.11498370132E+03  0.34570341682E+03 -0.34241174926E+03  0.50000000000E+03  0.47000000000E+01 0.  1.
</event>
<event>
 4    1  0.4924477E-004  0.1000000E+04  0.7546771E-02  0.8684367E-01
         11   -1    0    0    0    0  0.00000000000E+00  0.00000000000E+00  0.50000000000E+03  0.50000000000E+03  0.00000000000E+00 0. -1.
        -11   -1    0    0    0    0 -0.00000000000E+00 -0.00000000000E+00 -0.50000000000E+03  0.50000000000E+03  0.00000000000E+00 0.  1.
          5    1    1    2  501    0  0.75221735496E+02 -0.23380091392E+03  0.43549596228E+03  0.50000000000E+03  0.47000000000E+01 0. -1.
         -5    1    1    2    0  501 -0.75221735496E+02  0.23380091392E+03 -0.43549596228E+03  0.50000000000E+03  0.47000000000E+01 0.  1.
</event>
<event>
 4    1  0.4924477E-004  0.1000000E+04  0.7546771E-02  0.8684367E-01
         11   -1    0    0    0    0  0.00000000000E+00  0.00000000000E+00  0.50000000000E+03  0.50000000000E+03  0.00000000000E+00 0. -1.
        -11   -1    0    0    0    0 -0.00000000000E+00 -0.00000000000E+00 -0.50000000000E+03  0.50000000000E+03  0.00000000000E+00 0.  1.
          5    1    1    2  501    0  0.29363782432E+03 -0.21507876113E+03  0.34277669793E+03  0.50000000000E+03  0.47000000000E+01 0. -1.
         -5    1    1    2    0  501 -0.29363782432E+03  0.21507876113E+03 -0.34277669793E+03  0.50000000000E+03  0.47000000000E+01 0.  1.
</event>
<event>
 4    1  0.4924477E-004  0.1000000E+04  0.7546771E-02  0.8684367E-01
         11   -1    0    0    0    0  0.00000000000E+00  0.00000000000E+00  0.50000000000E+03  0.50000000000E+03  0.00000000000E+00 0. -1.
        -11   -1    0    0    0    0 -0.00000000000E+00 -0.00000000000E+00 -0.50000000000E+03  0.50000000000E+03  0.00000000000E+00 0.  1.
          5    1    1    2  501    0  0.57511320787E+02 -0.17646979603E+03  0.46425076098E+03  0.50000000000E+03  0.47000000000E+01 0. -1.
         -5    1    1    2    0  501 -0.57511320787E+02  0.17646979603E+03 -0.46425076098E+03  0.50000000000E+03  0.47000000000E+01 0.  1.
</event>
<event>
 4    1  0.4924477E-004  0.1000000E+04  0.7546771E-02  0.8684367E-01
         11   -1    0    0    0    0  0.00000000000E+00  0.00000000000E+00  0.50000000000E+03  0.50000000000E+03  0.00000000000E+00 0. -1.
        -11   -1    0    0    0    0 -0.00000000000E+00 -0.00000000000E+00 -0.50000000000E+03  0.50000000000E+03  0.00000000000E+00 0.  1.
          5    1    1    2  501    0 -0.48679434512E+03 -0.93057177960E+02 -0.65951021107E+02  0.50000000000E+03  0.47000000000E+01 0. -1.
         -5    1    1    2    0  501  0.48679434512E+03  0.93057177960E+02  0.65951021107E+02  0.50000000000E+03  0.47000000000E+01 0.  1.
</event>
<event>
 4    1  0.4924477E-004  0.1000000E+04  0.7546771E-02  0.8684367E-01
         11   -1    0    0    0    0  0.00000000000E+00  0.00000000000E+00  0.50000000000E+03  0.50000000000E+03  0.00000000000E+00 0. -1.
        -11   -1    0    0    0    0 -0.00000000000E+00 -0.00000000000E+00 -0.50000000000E+03  0.50000000000E+03  0.00000000000E+00 0.  1.
          5    1    1    2  501    0 -0.27957686058E+02 -0.47368487461E+03 -0.15754020869E+03  0.50000000000E+03  0.47000000000E+01 0.  1.
         -5    1    1    2    0  501  0.27957686058E+02  0.47368487461E+03  0.15754020869E+03  0.50000000000E+03  0.47000000000E+01 0. -1.
</event>
<event>
 4    1  0.4924477E-004  0.1000000E+04  0.7546771E-02  0.8684367E-01
         11   -1    0    0    0    0  0.00000000000E+00  0.00000000000E+00  0.50000000000E+03  0.50000000000E+03  0.00000000000E+00 0.  1.
        -11   -1    0    0    0    0 -0.00000000000E+00 -0.00000000000E+00 -0.50000000000E+03  0.50000000000E+03  0.00000000000E+00 0. -1.
          5    1    1    2  501    0 -0.41682500004E+03  0.12487627954E+03  0.24625341450E+03  0.50000000000E+03  0.47000000000E+01 0.  1.
         -5    1    1    2    0  501  0.41682500004E+03 -0.12487627954E+03 -0.24625341450E+03  0.50000000000E+03  0.47000000000E+01 0. -1.
</event>
<event>
 4    1  0.4924477E-004  0.1000000E+04  0.7546771E-02  0.8684367E-01
         11   -1    0    0    0    0  0.00000000000E+00  0.00000000000E+00  0.50000000000E+03  0.50000000000E+03  0.00000000000E+00 0. -1.
        -11   -1    0    0    0    0 -0.00000000000E+00 -0.00000000000E+00 -0.50000000000E+03  0.50000000000E+03  0.00000000000E+00 0.  1.
          5    1    1    2  501    0  0.12429751121E+03 -0.16342525720E+03  0.45587303497E+03  0.50000000000E+03  0.47000000000E+01 0. -1.
         -5    1    1    2    0  501 -0.12429751121E+03  0.16342525720E+03 -0.45587303497E+03  0.50000000000E+03  0.47000000000E+01 0.  1.
</event>
<event>
 4    1  0.4924477E-004  0.1000000E+04  0.7546771E-02  0.8684367E-01
         11   -1    0    0    0    0  0.00000000000E+00  0.00000000000E+00  0.50000000000E+03  0.50000000000E+03  0.00000000000E+00 0. -1.
        -11   -1    0    0    0    0 -0.00000000000E+00 -0.00000000000E+00 -0.50000000000E+03  0.50000000000E+03  0.00000000000E+00 0.  1.
          5    1    1    2  501    0  0.15535374543E+03 -0.45803332375E+03  0.12668306168E+03  0.50000000000E+03  0.47000000000E+01 0. -1.
         -5    1    1    2    0  501 -0.15535374543E+03  0.45803332375E+03 -0.12668306168E+03  0.50000000000E+03  0.47000000000E+01 0.  1.
</event>
<event>
 4    1  0.4924477E-004  0.1000000E+04  0.7546771E-02  0.8684367E-01
         11   -1    0    0    0    0  0.00000000000E+00  0.00000000000E+00  0.50000000000E+03  0.50000000000E+03  0.00000000000E+00 0. -1.
        -11   -1    0    0    0    0 -0.00000000000E+00 -0.00000000000E+00 -0.50000000000E+03  0.50000000000E+03  0.00000000000E+00 0.  1.
          5    1    1    2  501    0  0.11728986617E+03  0.30724709197E+03  0.37659025714E+03  0.50000000000E+03  0.47000000000E+01 0. -1.
         -5    1    1    2    0  501 -0.11728986617E+03 -0.30724709197E+03 -0.37659025714E+03  0.50000000000E+03  0.47000000000E+01 0.  1.
</event>
<event>
 4    1  0.4924477E-004  0.1000000E+04  0.7546771E-02  0.8684367E-01
         11   -1    0    0    0    0  0.00000000000E+00  0.00000000000E+00  0.50000000000E+03  0.50000000000E+03  0.00000000000E+00 0. -1.
        -11   -1    0    0    0    0 -0.00000000000E+00 -0.00000000000E+00 -0.50000000000E+03  0.50000000000E+03  0.00000000000E+00 0.  1.
          5    1    1    2  501    0  0.35035870986E+03  0.35430465029E+03  0.41169153530E+02  0.50000000000E+03  0.47000000000E+01 0. -1.
         -5    1    1    2    0  501 -0.35035870986E+03 -0.35430465029E+03 -0.41169153530E+02  0.50000000000E+03  0.47000000000E+01 0.  1.
</event>
<event>
 4    1  0.4924477E-004  0.1000000E+04  0.7546771E-02  0.8684367E-01
         11   -1    0    0    0    0  0.00000000000E+00  0.00000000000E+00  0.50000000000E+03  0.50000000000E+03  0.00000000000E+00 0. -1.
        -11   -1    0    0    0    0 -0.00000000000E+00 -0.00000000000E+00 -0.50000000000E+03  0.50000000000E+03  0.00000000000E+00 0.  1.
          5    1    1    2  501    0 -0.17174194605E+03  0.12700275436E+03  0.45205410556E+03  0.50000000000E+03  0.47000000000E+01 0. -1.
         -5    1    1    2    0  501  0.17174194605E+03 -0.12700275436E+03 -0.45205410556E+03  0.50000000000E+03  0.47000000000E+01 0.  1.
</event>
<event>
 4    1  0.4924477E-004  0.1000000E+04  0.7546771E-02  0.8684367E-01
         11   -1    0    0    0    0  0.00000000000E+00  0.00000000000E+00  0.50000000000E+03  0.50000000000E+03  0.00000000000E+00 0.  1.
        -11   -1    0    0    0    0 -0.00000000000E+00 -0.00000000000E+00 -0.50000000000E+03  0.50000000000E+03  0.00000000000E+00 0. -1.
          5    1    1    2  501    0  0.35530457974E+03  0.19832585289E+03 -0.29052266984E+03  0.50000000000E+03  0.47000000000E+01 0. -1.
         -5    1    1    2    0  501 -0.35530457974E+03 -0.19832585289E+03  0.29052266984E+03  0.50000000000E+03  0.47000000000E+01 0.  1.
</event>
<event>
 4    1  0.4924477E-004  0.1000000E+04  0.7546771E-02  0.8684367E-01
         11   -1    0    0    0    0  0.00000000000E+00  0.00000000000E+00  0.50000000000E+03  0.50000000000E+03  0.00000000000E+00 0. -1.
        -11   -1    0    0    0    0 -0.00000000000E+00 -0.00000000000E+00 -0.50000000000E+03  0.50000000000E+03  0.00000000000E+00 0.  1.
          5    1    1    2  501    0  0.10584643029E+03 -0.26036584273E+03  0.41350220209E+03  0.50000000000E+03  0.47000000000E+01 0. -1.
         -5    1    1    2    0  501 -0.10584643029E+03  0.26036584273E+03 -0.41350220209E+03  0.50000000000E+03  0.47000000000E+01 0.  1.
</event>
<event>
 4    1  0.4924477E-004  0.1000000E+04  0.7546771E-02  0.8684367E-01
         11   -1    0    0    0    0  0.00000000000E+00  0.00000000000E+00  0.50000000000E+03  0.50000000000E+03  0.00000000000E+00 0. -1.
        -11   -1    0    0    0    0 -0.00000000000E+00 -0.00000000000E+00 -0.50000000000E+03  0.50000000000E+03  0.00000000000E+00 0.  1.
          5    1    1    2  501    0  0.35843371194E+03  0.16338424305E+03  0.30791033316E+03  0.50000000000E+03  0.47000000000E+01 0. -1.
         -5    1    1    2    0  501 -0.35843371194E+03 -0.16338424305E+03 -0.30791033316E+03  0.50000000000E+03  0.47000000000E+01 0.  1.
</event>
<event>
 4    1  0.4924477E-004  0.1000000E+04  0.7546771E-02  0.8684367E-01
         11   -1    0    0    0    0  0.00000000000E+00  0.00000000000E+00  0.50000000000E+03  0.50000000000E+03  0.00000000000E+00 0. -1.
        -11   -1    0    0    0    0 -0.00000000000E+00 -0.00000000000E+00 -0.50000000000E+03  0.50000000000E+03  0.00000000000E+00 0.  1.
          5    1    1    2  501    0  0.17194209387E+03  0.39414183773E+03  0.25508045419E+03  0.50000000000E+03  0.47000000000E+01 0. -1.
         -5    1    1    2    0  501 -0.17194209387E+03 -0.39414183773E+03 -0.25508045419E+03  0.50000000000E+03  0.47000000000E+01 0.  1.
</event>
<event>
 4    1  0.4924477E-004  0.1000000E+04  0.7546771E-02  0.8684367E-01
         11   -1    0    0    0    0  0.00000000000E+00  0.00000000000E+00  0.50000000000E+03  0.50000000000E+03  0.00000000000E+00 0.  1.
        -11   -1    0    0    0    0 -0.00000000000E+00 -0.00000000000E+00 -0.50000000000E+03  0.50000000000E+03  0.00000000000E+00 0. -1.
          5    1    1    2  501    0 -0.29380620582E+03 -0.10600733414E+03  0.39040782335E+03  0.50000000000E+03  0.47000000000E+01 0.  1.
         -5    1    1    2    0  501  0.29380620582E+03  0.10600733414E+03 -0.39040782335E+03  0.50000000000E+03  0.47000000000E+01 0. -1.
</event>
<event>
 4    1  0.4924477E-004  0.1000000E+04  0.7546771E-02  0.8684367E-01
         11   -1    0    0    0    0  0.00000000000E+00  0.00000000000E+00  0.50000000000E+03  0.50000000000E+03  0.00000000000E+00 0. -1.
        -11   -1    0    0    0    0 -0.00000000000E+00 -0.00000000000E+00 -0.50000000000E+03  0.50000000000E+03  0.00000000000E+00 0.  1.
          5    1    1    2  501    0  0.44515157930E+03  0.20929705975E+03  0.89513810265E+02  0.50000000000E+03  0.47000000000E+01 0. -1.
         -5    1    1    2    0  501 -0.44515157930E+03 -0.20929705975E+03 -0.89513810265E+02  0.50000000000E+03  0.47000000000E+01 0.  1.
</event>
<event>
 4    1  0.4924477E-004  0.1000000E+04  0.7546771E-02  0.8684367E-01
         11   -1    0    0    0    0  0.00000000000E+00  0.00000000000E+00  0.50000000000E+03  0.50000000000E+03  0.00000000000E+00 0. -1.
        -11   -1    0    0    0    0 -0.00000000000E+00 -0.00000000000E+00 -0.50000000000E+03  0.50000000000E+03  0.00000000000E+00 0.  1.
          5    1    1    2  501    0 -0.41237014903E+03  0.12767084210E+03 -0.25224774778E+03  0.50000000000E+03  0.47000000000E+01 0. -1.
         -5    1    1    2    0  501  0.41237014903E+03 -0.12767084210E+03  0.25224774778E+03  0.50000000000E+03  0.47000000000E+01 0.  1.
</event>
<event>
 4    1  0.4924477E-004  0.1000000E+04  0.7546771E-02  0.8684367E-01
         11   -1    0    0    0    0  0.00000000000E+00  0.00000000000E+00  0.50000000000E+03  0.50000000000E+03  0.00000000000E+00 0. -1.
        -11   -1    0    0    0    0 -0.00000000000E+00 -0.00000000000E+00 -0.50000000000E+03  0.50000000000E+03  0.00000000000E+00 0.  1.
          5    1    1    2  501    0  0.35338742210E+03 -0.30597040991E+03  0.17741856767E+03  0.50000000000E+03  0.47000000000E+01 0. -1.
         -5    1    1    2    0  501 -0.35338742210E+03  0.30597040991E+03 -0.17741856767E+03  0.50000000000E+03  0.47000000000E+01 0.  1.
</event>
<event>
 4    1  0.4924477E-004  0.1000000E+04  0.7546771E-02  0.8684367E-01
         11   -1    0    0    0    0  0.00000000000E+00  0.00000000000E+00  0.50000000000E+03  0.50000000000E+03  0.00000000000E+00 0. -1.
        -11   -1    0    0    0    0 -0.00000000000E+00 -0.00000000000E+00 -0.50000000000E+03  0.50000000000E+03  0.00000000000E+00 0.  1.
          5    1    1    2  501    0  0.26685840049E+03 -0.26209673026E+03  0.33176770198E+03  0.50000000000E+03  0.47000000000E+01 0. -1.
         -5    1    1    2    0  501 -0.26685840049E+03  0.26209673026E+03 -0.33176770198E+03  0.50000000000E+03  0.47000000000E+01 0.  1.
</event>
<event>
 4    1  0.4924477E-004  0.1000000E+04  0.7546771E-02  0.8684367E-01
         11   -1    0    0    0    0  0.00000000000E+00  0.00000000000E+00  0.50000000000E+03  0.50000000000E+03  0.00000000000E+00 0.  1.
        -11   -1    0    0    0    0 -0.00000000000E+00 -0.00000000000E+00 -0.50000000000E+03  0.50000000000E+03  0.00000000000E+00 0. -1.
          5    1    1    2  501    0 -0.30426557606E+03 -0.15630562697E+03 -0.36464903702E+03  0.50000000000E+03  0.47000000000E+01 0. -1.
         -5    1    1    2    0  501  0.30426557606E+03  0.15630562697E+03  0.36464903702E+03  0.50000000000E+03  0.47000000000E+01 0.  1.
</event>
<event>
 4    1  0.4924477E-004  0.1000000E+04  0.7546771E-02  0.8684367E-01
         11   -1    0    0    0    0  0.00000000000E+00  0.00000000000E+00  0.50000000000E+03  0.50000000000E+03  0.00000000000E+00 0. -1.
        -11   -1    0    0    0    0 -0.00000000000E+00 -0.00000000000E+00 -0.50000000000E+03  0.50000000000E+03  0.00000000000E+00 0.  1.
          5    1    1    2  501    0 -0.21271546661E+03  0.30235394176E+03  0.33661867768E+03  0.50000000000E+03  0.47000000000E+01 0. -1.
         -5    1    1    2    0  501  0.21271546661E+03 -0.30235394176E+03 -0.33661867768E+03  0.50000000000E+03  0.47000000000E+01 0.  1.
</event>
<event>
 4    1  0.4924477E-004  0.1000000E+04  0.7546771E-02  0.8684367E-01
         11   -1    0    0    0    0  0.00000000000E+00  0.00000000000E+00  0.50000000000E+03  0.50000000000E+03  0.00000000000E+00 0. -1.
        -11   -1    0    0    0    0 -0.00000000000E+00 -0.00000000000E+00 -0.50000000000E+03  0.50000000000E+03  0.00000000000E+00 0.  1.
          5    1    1    2  501    0 -0.73132246243E+02  0.44446526733E+03  0.21697974720E+03  0.50000000000E+03  0.47000000000E+01 0. -1.
         -5    1    1    2    0  501  0.73132246243E+02 -0.44446526733E+03 -0.21697974720E+03  0.50000000000E+03  0.47000000000E+01 0.  1.
</event>
<event>
 4    1  0.4924477E-004  0.1000000E+04  0.7546771E-02  0.8684367E-01
         11   -1    0    0    0    0  0.00000000000E+00  0.00000000000E+00  0.50000000000E+03  0.50000000000E+03  0.00000000000E+00 0. -1.
        -11   -1    0    0    0    0 -0.00000000000E+00 -0.00000000000E+00 -0.50000000000E+03  0.50000000000E+03  0.00000000000E+00 0.  1.
          5    1    1    2  501    0  0.10039692952E+03  0.13485522907E+03  0.47086349798E+03  0.50000000000E+03  0.47000000000E+01 0. -1.
         -5    1    1    2    0  501 -0.10039692952E+03 -0.13485522907E+03 -0.47086349798E+03  0.50000000000E+03  0.47000000000E+01 0.  1.
</event>
<event>
 4    1  0.4924477E-004  0.1000000E+04  0.7546771E-02  0.8684367E-01
         11   -1    0    0    0    0  0.00000000000E+00  0.00000000000E+00  0.50000000000E+03  0.50000000000E+03  0.00000000000E+00 0. -1.
        -11   -1    0    0    0    0 -0.00000000000E+00 -0.00000000000E+00 -0.50000000000E+03  0.50000000000E+03  0.00000000000E+00 0.  1.
          5    1    1    2  501    0  0.62502765336E+02  0.68453553184E+02  0.49130990768E+03  0.50000000000E+03  0.47000000000E+01 0. -1.
         -5    1    1    2    0  501 -0.62502765336E+02 -0.68453553184E+02 -0.49130990768E+03  0.50000000000E+03  0.47000000000E+01 0.  1.
</event>
<event>
 4    1  0.4924477E-004  0.1000000E+04  0.7546771E-02  0.8684367E-01
         11   -1    0    0    0    0  0.00000000000E+00  0.00000000000E+00  0.50000000000E+03  0.50000000000E+03  0.00000000000E+00 0. -1.
        -11   -1    0    0    0    0 -0.00000000000E+00 -0.00000000000E+00 -0.50000000000E+03  0.50000000000E+03  0.00000000000E+00 0.  1.
          5    1    1    2  501    0  0.81976176600E+02 -0.12915638931E+03  0.47600046593E+03  0.50000000000E+03  0.47000000000E+01 0. -1.
         -5    1    1    2    0  501 -0.81976176600E+02  0.12915638931E+03 -0.47600046593E+03  0.50000000000E+03  0.47000000000E+01 0.  1.
</event>
<event>
 4    1  0.4924477E-004  0.1000000E+04  0.7546771E-02  0.8684367E-01
         11   -1    0    0    0    0  0.00000000000E+00  0.00000000000E+00  0.50000000000E+03  0.50000000000E+03  0.00000000000E+00 0. -1.
        -11   -1    0    0    0    0 -0.00000000000E+00 -0.00000000000E+00 -0.50000000000E+03  0.50000000000E+03  0.00000000000E+00 0.  1.
          5    1    1    2  501    0  0.36344813748E+03  0.13788989928E+03  0.31443558488E+03  0.50000000000E+03  0.47000000000E+01 0. -1.
         -5    1    1    2    0  501 -0.36344813748E+03 -0.13788989928E+03 -0.31443558488E+03  0.50000000000E+03  0.47000000000E+01 0.  1.
</event>
<event>
 4    1  0.4924477E-004  0.1000000E+04  0.7546771E-02  0.8684367E-01
         11   -1    0    0    0    0  0.00000000000E+00  0.00000000000E+00  0.50000000000E+03  0.50000000000E+03  0.00000000000E+00 0. -1.
        -11   -1    0    0    0    0 -0.00000000000E+00 -0.00000000000E+00 -0.50000000000E+03  0.50000000000E+03  0.00000000000E+00 0.  1.
          5    1    1    2  501    0 -0.23113751806E+03 -0.31773527604E+03  0.30918869984E+03  0.50000000000E+03  0.47000000000E+01 0. -1.
         -5    1    1    2    0  501  0.23113751806E+03  0.31773527604E+03 -0.30918869984E+03  0.50000000000E+03  0.47000000000E+01 0.  1.
</event>
<event>
 4    1  0.4924477E-004  0.1000000E+04  0.7546771E-02  0.8684367E-01
         11   -1    0    0    0    0  0.00000000000E+00  0.00000000000E+00  0.50000000000E+03  0.50000000000E+03  0.00000000000E+00 0. -1.
        -11   -1    0    0    0    0 -0.00000000000E+00 -0.00000000000E+00 -0.50000000000E+03  0.50000000000E+03  0.00000000000E+00 0.  1.
          5    1    1    2  501    0 -0.24488430882E+02 -0.45393020345E+03  0.20814801740E+03  0.50000000000E+03  0.47000000000E+01 0. -1.
         -5    1    1    2    0  501  0.24488430882E+02  0.45393020345E+03 -0.20814801740E+03  0.50000000000E+03  0.47000000000E+01 0.  1.
</event>
<event>
 4    1  0.4924477E-004  0.1000000E+04  0.7546771E-02  0.8684367E-01
         11   -1    0    0    0    0  0.00000000000E+00  0.00000000000E+00  0.50000000000E+03  0.50000000000E+03  0.00000000000E+00 0. -1.
        -11   -1    0    0    0    0 -0.00000000000E+00 -0.00000000000E+00 -0.50000000000E+03  0.50000000000E+03  0.00000000000E+00 0.  1.
          5    1    1    2  501    0 -0.21735379868E+03  0.41117636825E+03  0.18349177201E+03  0.50000000000E+03  0.47000000000E+01 0. -1.
         -5    1    1    2    0  501  0.21735379868E+03 -0.41117636825E+03 -0.18349177201E+03  0.50000000000E+03  0.47000000000E+01 0.  1.
</event>
<event>
 4    1  0.4924477E-004  0.1000000E+04  0.7546771E-02  0.8684367E-01
         11   -1    0    0    0    0  0.00000000000E+00  0.00000000000E+00  0.50000000000E+03  0.50000000000E+03  0.00000000000E+00 0. -1.
        -11   -1    0    0    0    0 -0.00000000000E+00 -0.00000000000E+00 -0.50000000000E+03  0.50000000000E+03  0.00000000000E+00 0.  1.
          5    1    1    2  501    0  0.44052474737E+03  0.77838044354E+02  0.22328702561E+03  0.50000000000E+03  0.47000000000E+01 0. -1.
         -5    1    1    2    0  501 -0.44052474737E+03 -0.77838044354E+02 -0.22328702561E+03  0.50000000000E+03  0.47000000000E+01 0.  1.
</event>
<event>
 4    1  0.4924477E-004  0.1000000E+04  0.7546771E-02  0.8684367E-01
         11   -1    0    0    0    0  0.00000000000E+00  0.00000000000E+00  0.50000000000E+03  0.50000000000E+03  0.00000000000E+00 0. -1.
        -11   -1    0    0    0    0 -0.00000000000E+00 -0.00000000000E+00 -0.50000000000E+03  0.50000000000E+03  0.00000000000E+00 0.  1.
          5    1    1    2  501    0  0.31701720081E+03 -0.36238325031E+03  0.13474562809E+03  0.50000000000E+03  0.47000000000E+01 0. -1.
         -5    1    1    2    0  501 -0.31701720081E+03  0.36238325031E+03 -0.13474562809E+03  0.50000000000E+03  0.47000000000E+01 0.  1.
</event>
<event>
 4    1  0.4924477E-004  0.1000000E+04  0.7546771E-02  0.8684367E-01
         11   -1    0    0    0    0  0.00000000000E+00  0.00000000000E+00  0.50000000000E+03  0.50000000000E+03  0.00000000000E+00 0. -1.
        -11   -1    0    0    0    0 -0.00000000000E+00 -0.00000000000E+00 -0.50000000000E+03  0.50000000000E+03  0.00000000000E+00 0.  1.
          5    1    1    2  501    0 -0.40760349003E+03 -0.22668184041E+03  0.18014618547E+03  0.50000000000E+03  0.47000000000E+01 0. -1.
         -5    1    1    2    0  501  0.40760349003E+03  0.22668184041E+03 -0.18014618547E+03  0.50000000000E+03  0.47000000000E+01 0.  1.
</event>
<event>
 4    1  0.4924477E-004  0.1000000E+04  0.7546771E-02  0.8684367E-01
         11   -1    0    0    0    0  0.00000000000E+00  0.00000000000E+00  0.50000000000E+03  0.50000000000E+03  0.00000000000E+00 0. -1.
        -11   -1    0    0    0    0 -0.00000000000E+00 -0.00000000000E+00 -0.50000000000E+03  0.50000000000E+03  0.00000000000E+00 0.  1.
          5    1    1    2  501    0 -0.61928543626E+02  0.49368798590E+03 -0.49142019327E+02  0.50000000000E+03  0.47000000000E+01 0. -1.
         -5    1    1    2    0  501  0.61928543626E+02 -0.49368798590E+03  0.49142019327E+02  0.50000000000E+03  0.47000000000E+01 0.  1.
</event>
<event>
 4    1  0.4924477E-004  0.1000000E+04  0.7546771E-02  0.8684367E-01
         11   -1    0    0    0    0  0.00000000000E+00  0.00000000000E+00  0.50000000000E+03  0.50000000000E+03  0.00000000000E+00 0. -1.
        -11   -1    0    0    0    0 -0.00000000000E+00 -0.00000000000E+00 -0.50000000000E+03  0.50000000000E+03  0.00000000000E+00 0.  1.
          5    1    1    2  501    0 -0.50058128088E+02  0.21117032835E+03  0.45042112099E+03  0.50000000000E+03  0.47000000000E+01 0. -1.
         -5    1    1    2    0  501  0.50058128088E+02 -0.21117032835E+03 -0.45042112099E+03  0.50000000000E+03  0.47000000000E+01 0.  1.
</event>
<event>
 4    1  0.4924477E-004  0.1000000E+04  0.7546771E-02  0.8684367E-01
         11   -1    0    0    0    0  0.00000000000E+00  0.00000000000E+00  0.50000000000E+03  0.50000000000E+03  0.00000000000E+00 0. -1.
        -11   -1    0    0    0    0 -0.00000000000E+00 -0.00000000000E+00 -0.50000000000E+03  0.50000000000E+03  0.00000000000E+00 0.  1.
          5    1    1    2  501    0 -0.29513746362E+03  0.39586641756E+03  0.78495649676E+02  0.50000000000E+03  0.47000000000E+01 0.  1.
         -5    1    1    2    0  501  0.29513746362E+03 -0.39586641756E+03 -0.78495649676E+02  0.50000000000E+03  0.47000000000E+01 0. -1.
</event>
<event>
 4    1  0.4924477E-004  0.1000000E+04  0.7546771E-02  0.8684367E-01
         11   -1    0    0    0    0  0.00000000000E+00  0.00000000000E+00  0.50000000000E+03  0.50000000000E+03  0.00000000000E+00 0. -1.
        -11   -1    0    0    0    0 -0.00000000000E+00 -0.00000000000E+00 -0.50000000000E+03  0.50000000000E+03  0.00000000000E+00 0.  1.
          5    1    1    2  501    0  0.57278071802E+02  0.13307018713E+03  0.47852842945E+03  0.50000000000E+03  0.47000000000E+01 0. -1.
         -5    1    1    2    0  501 -0.57278071802E+02 -0.13307018713E+03 -0.47852842945E+03  0.50000000000E+03  0.47000000000E+01 0.  1.
</event>
<event>
 4    1  0.4924477E-004  0.1000000E+04  0.7546771E-02  0.8684367E-01
         11   -1    0    0    0    0  0.00000000000E+00  0.00000000000E+00  0.50000000000E+03  0.50000000000E+03  0.00000000000E+00 0. -1.
        -11   -1    0    0    0    0 -0.00000000000E+00 -0.00000000000E+00 -0.50000000000E+03  0.50000000000E+03  0.00000000000E+00 0.  1.
          5    1    1    2  501    0  0.77530669566E+02 -0.46462467897E+03  0.16760314128E+03  0.50000000000E+03  0.47000000000E+01 0. -1.
         -5    1    1    2    0  501 -0.77530669566E+02  0.46462467897E+03 -0.16760314128E+03  0.50000000000E+03  0.47000000000E+01 0.  1.
</event>
<event>
 4    1  0.4924477E-004  0.1000000E+04  0.7546771E-02  0.8684367E-01
         11   -1    0    0    0    0  0.00000000000E+00  0.00000000000E+00  0.50000000000E+03  0.50000000000E+03  0.00000000000E+00 0. -1.
        -11   -1    0    0    0    0 -0.00000000000E+00 -0.00000000000E+00 -0.50000000000E+03  0.50000000000E+03  0.00000000000E+00 0.  1.
          5    1    1    2  501    0  0.10260035241E+03  0.47551851902E+03 -0.11546954472E+03  0.50000000000E+03  0.47000000000E+01 0. -1.
         -5    1    1    2    0  501 -0.10260035241E+03 -0.47551851902E+03  0.11546954472E+03  0.50000000000E+03  0.47000000000E+01 0.  1.
</event>
<event>
 4    1  0.4924477E-004  0.1000000E+04  0.7546771E-02  0.8684367E-01
         11   -1    0    0    0    0  0.00000000000E+00  0.00000000000E+00  0.50000000000E+03  0.50000000000E+03  0.00000000000E+00 0. -1.
        -11   -1    0    0    0    0 -0.00000000000E+00 -0.00000000000E+00 -0.50000000000E+03  0.50000000000E+03  0.00000000000E+00 0.  1.
          5    1    1    2  501    0  0.37105992409E+03 -0.22215618607E+02  0.33436343853E+03  0.50000000000E+03  0.47000000000E+01 0. -1.
         -5    1    1    2    0  501 -0.37105992409E+03  0.22215618607E+02 -0.33436343853E+03  0.50000000000E+03  0.47000000000E+01 0.  1.
</event>
<event>
 4    1  0.4924477E-004  0.1000000E+04  0.7546771E-02  0.8684367E-01
         11   -1    0    0    0    0  0.00000000000E+00  0.00000000000E+00  0.50000000000E+03  0.50000000000E+03  0.00000000000E+00 0. -1.
        -11   -1    0    0    0    0 -0.00000000000E+00 -0.00000000000E+00 -0.50000000000E+03  0.50000000000E+03  0.00000000000E+00 0.  1.
          5    1    1    2  501    0 -0.98371588613E+02  0.77105423693E+02  0.48410297891E+03  0.50000000000E+03  0.47000000000E+01 0. -1.
         -5    1    1    2    0  501  0.98371588613E+02 -0.77105423693E+02 -0.48410297891E+03  0.50000000000E+03  0.47000000000E+01 0.  1.
</event>
<event>
 4    1  0.4924477E-004  0.1000000E+04  0.7546771E-02  0.8684367E-01
         11   -1    0    0    0    0  0.00000000000E+00  0.00000000000E+00  0.50000000000E+03  0.50000000000E+03  0.00000000000E+00 0. -1.
        -11   -1    0    0    0    0 -0.00000000000E+00 -0.00000000000E+00 -0.50000000000E+03  0.50000000000E+03  0.00000000000E+00 0.  1.
          5    1    1    2  501    0 -0.24945184111E+03  0.31613029770E+03 -0.29633312984E+03  0.50000000000E+03  0.47000000000E+01 0. -1.
         -5    1    1    2    0  501  0.24945184111E+03 -0.31613029770E+03  0.29633312984E+03  0.50000000000E+03  0.47000000000E+01 0.  1.
</event>
<event>
 4    1  0.4924477E-004  0.1000000E+04  0.7546771E-02  0.8684367E-01
         11   -1    0    0    0    0  0.00000000000E+00  0.00000000000E+00  0.50000000000E+03  0.50000000000E+03  0.00000000000E+00 0. -1.
        -11   -1    0    0    0    0 -0.00000000000E+00 -0.00000000000E+00 -0.50000000000E+03  0.50000000000E+03  0.00000000000E+00 0.  1.
          5    1    1    2  501    0 -0.11346604081E+03  0.47134334059E+03  0.12222447736E+03  0.50000000000E+03  0.47000000000E+01 0. -1.
         -5    1    1    2    0  501  0.11346604081E+03 -0.47134334059E+03 -0.12222447736E+03  0.50000000000E+03  0.47000000000E+01 0.  1.
</event>
<event>
 4    1  0.4924477E-004  0.1000000E+04  0.7546771E-02  0.8684367E-01
         11   -1    0    0    0    0  0.00000000000E+00  0.00000000000E+00  0.50000000000E+03  0.50000000000E+03  0.00000000000E+00 0. -1.
        -11   -1    0    0    0    0 -0.00000000000E+00 -0.00000000000E+00 -0.50000000000E+03  0.50000000000E+03  0.00000000000E+00 0.  1.
          5    1    1    2  501    0  0.28563077096E+03  0.21702486543E+03  0.34827170495E+03  0.50000000000E+03  0.47000000000E+01 0. -1.
         -5    1    1    2    0  501 -0.28563077096E+03 -0.21702486543E+03 -0.34827170495E+03  0.50000000000E+03  0.47000000000E+01 0.  1.
</event>
<event>
 4    1  0.4924477E-004  0.1000000E+04  0.7546771E-02  0.8684367E-01
         11   -1    0    0    0    0  0.00000000000E+00  0.00000000000E+00  0.50000000000E+03  0.50000000000E+03  0.00000000000E+00 0. -1.
        -11   -1    0    0    0    0 -0.00000000000E+00 -0.00000000000E+00 -0.50000000000E+03  0.50000000000E+03  0.00000000000E+00 0.  1.
          5    1    1    2  501    0  0.22864664555E+03 -0.26799611133E+03  0.35479107344E+03  0.50000000000E+03  0.47000000000E+01 0. -1.
         -5    1    1    2    0  501 -0.22864664555E+03  0.26799611133E+03 -0.35479107344E+03  0.50000000000E+03  0.47000000000E+01 0.  1.
</event>
<event>
 4    1  0.4924477E-004  0.1000000E+04  0.7546771E-02  0.8684367E-01
         11   -1    0    0    0    0  0.00000000000E+00  0.00000000000E+00  0.50000000000E+03  0.50000000000E+03  0.00000000000E+00 0. -1.
        -11   -1    0    0    0    0 -0.00000000000E+00 -0.00000000000E+00 -0.50000000000E+03  0.50000000000E+03  0.00000000000E+00 0.  1.
          5    1    1    2  501    0 -0.23983302227E+03  0.63031810329E+01  0.43865510522E+03  0.50000000000E+03  0.47000000000E+01 0. -1.
         -5    1    1    2    0  501  0.23983302227E+03 -0.63031810329E+01 -0.43865510522E+03  0.50000000000E+03  0.47000000000E+01 0.  1.
</event>
<event>
 4    1  0.4924477E-004  0.1000000E+04  0.7546771E-02  0.8684367E-01
         11   -1    0    0    0    0  0.00000000000E+00  0.00000000000E+00  0.50000000000E+03  0.50000000000E+03  0.00000000000E+00 0. -1.
        -11   -1    0    0    0    0 -0.00000000000E+00 -0.00000000000E+00 -0.50000000000E+03  0.50000000000E+03  0.00000000000E+00 0.  1.
          5    1    1    2  501    0 -0.18177812165E+03 -0.42696671107E+03  0.18610226255E+03  0.50000000000E+03  0.47000000000E+01 0. -1.
         -5    1    1    2    0  501  0.18177812165E+03  0.42696671107E+03 -0.18610226255E+03  0.50000000000E+03  0.47000000000E+01 0.  1.
</event>
<event>
 4    1  0.4924477E-004  0.1000000E+04  0.7546771E-02  0.8684367E-01
         11   -1    0    0    0    0  0.00000000000E+00  0.00000000000E+00  0.50000000000E+03  0.50000000000E+03  0.00000000000E+00 0. -1.
        -11   -1    0    0    0    0 -0.00000000000E+00 -0.00000000000E+00 -0.50000000000E+03  0.50000000000E+03  0.00000000000E+00 0.  1.
          5    1    1    2  501    0 -0.20809985231E+03  0.38785528254E+03  0.23715109376E+03  0.50000000000E+03  0.47000000000E+01 0. -1.
         -5    1    1    2    0  501  0.20809985231E+03 -0.38785528254E+03 -0.23715109376E+03  0.50000000000E+03  0.47000000000E+01 0.  1.
</event>
<event>
 4    1  0.4924477E-004  0.1000000E+04  0.7546771E-02  0.8684367E-01
         11   -1    0    0    0    0  0.00000000000E+00  0.00000000000E+00  0.50000000000E+03  0.50000000000E+03  0.00000000000E+00 0. -1.
        -11   -1    0    0    0    0 -0.00000000000E+00 -0.00000000000E+00 -0.50000000000E+03  0.50000000000E+03  0.00000000000E+00 0.  1.
          5    1    1    2  501    0 -0.13401166446E+03 -0.14494981890E+03  0.45935643436E+03  0.50000000000E+03  0.47000000000E+01 0. -1.
         -5    1    1    2    0  501  0.13401166446E+03  0.14494981890E+03 -0.45935643436E+03  0.50000000000E+03  0.47000000000E+01 0.  1.
</event>
<event>
 4    1  0.4924477E-004  0.1000000E+04  0.7546771E-02  0.8684367E-01
         11   -1    0    0    0    0  0.00000000000E+00  0.00000000000E+00  0.50000000000E+03  0.50000000000E+03  0.00000000000E+00 0. -1.
        -11   -1    0    0    0    0 -0.00000000000E+00 -0.00000000000E+00 -0.50000000000E+03  0.50000000000E+03  0.00000000000E+00 0.  1.
          5    1    1    2  501    0 -0.18762889066E+03  0.15015575837E+03  0.43843649212E+03  0.50000000000E+03  0.47000000000E+01 0. -1.
         -5    1    1    2    0  501  0.18762889066E+03 -0.15015575837E+03 -0.43843649212E+03  0.50000000000E+03  0.47000000000E+01 0.  1.
</event>
<event>
 4    1  0.4924477E-004  0.1000000E+04  0.7546771E-02  0.8684367E-01
         11   -1    0    0    0    0  0.00000000000E+00  0.00000000000E+00  0.50000000000E+03  0.50000000000E+03  0.00000000000E+00 0. -1.
        -11   -1    0    0    0    0 -0.00000000000E+00 -0.00000000000E+00 -0.50000000000E+03  0.50000000000E+03  0.00000000000E+00 0.  1.
          5    1    1    2  501    0  0.26938921144E+03  0.34890406239E+03  0.23595194003E+03  0.50000000000E+03  0.47000000000E+01 0. -1.
         -5    1    1    2    0  501 -0.26938921144E+03 -0.34890406239E+03 -0.23595194003E+03  0.50000000000E+03  0.47000000000E+01 0.  1.
</event>
<event>
 4    1  0.4924477E-004  0.1000000E+04  0.7546771E-02  0.8684367E-01
         11   -1    0    0    0    0  0.00000000000E+00  0.00000000000E+00  0.50000000000E+03  0.50000000000E+03  0.00000000000E+00 0. -1.
        -11   -1    0    0    0    0 -0.00000000000E+00 -0.00000000000E+00 -0.50000000000E+03  0.50000000000E+03  0.00000000000E+00 0.  1.
          5    1    1    2  501    0  0.45520160144E+03 -0.14328188194E+03  0.14912985735E+03  0.50000000000E+03  0.47000000000E+01 0. -1.
         -5    1    1    2    0  501 -0.45520160144E+03  0.14328188194E+03 -0.14912985735E+03  0.50000000000E+03  0.47000000000E+01 0.  1.
</event>
<event>
 4    1  0.4924477E-004  0.1000000E+04  0.7546771E-02  0.8684367E-01
         11   -1    0    0    0    0  0.00000000000E+00  0.00000000000E+00  0.50000000000E+03  0.50000000000E+03  0.00000000000E+00 0. -1.
        -11   -1    0    0    0    0 -0.00000000000E+00 -0.00000000000E+00 -0.50000000000E+03  0.50000000000E+03  0.00000000000E+00 0.  1.
          5    1    1    2  501    0  0.27589385203E+03 -0.41613798564E+03  0.26261555900E+02  0.50000000000E+03  0.47000000000E+01 0. -1.
         -5    1    1    2    0  501 -0.27589385203E+03  0.41613798564E+03 -0.26261555900E+02  0.50000000000E+03  0.47000000000E+01 0.  1.
</event>
<event>
 4    1  0.4924477E-004  0.1000000E+04  0.7546771E-02  0.8684367E-01
         11   -1    0    0    0    0  0.00000000000E+00  0.00000000000E+00  0.50000000000E+03  0.50000000000E+03  0.00000000000E+00 0. -1.
        -11   -1    0    0    0    0 -0.00000000000E+00 -0.00000000000E+00 -0.50000000000E+03  0.50000000000E+03  0.00000000000E+00 0.  1.
          5    1    1    2  501    0  0.43002925982E+03 -0.17435909460E+03  0.18614954156E+03  0.50000000000E+03  0.47000000000E+01 0. -1.
         -5    1    1    2    0  501 -0.43002925982E+03  0.17435909460E+03 -0.18614954156E+03  0.50000000000E+03  0.47000000000E+01 0.  1.
</event>
<event>
 4    1  0.4924477E-004  0.1000000E+04  0.7546771E-02  0.8684367E-01
         11   -1    0    0    0    0  0.00000000000E+00  0.00000000000E+00  0.50000000000E+03  0.50000000000E+03  0.00000000000E+00 0.  1.
        -11   -1    0    0    0    0 -0.00000000000E+00 -0.00000000000E+00 -0.50000000000E+03  0.50000000000E+03  0.00000000000E+00 0. -1.
          5    1    1    2  501    0 -0.47297936489E+03 -0.23832166523E+02  0.16031362459E+03  0.50000000000E+03  0.47000000000E+01 0.  1.
         -5    1    1    2    0  501  0.47297936489E+03  0.23832166523E+02 -0.16031362459E+03  0.50000000000E+03  0.47000000000E+01 0. -1.
</event>
<event>
 4    1  0.4924477E-004  0.1000000E+04  0.7546771E-02  0.8684367E-01
         11   -1    0    0    0    0  0.00000000000E+00  0.00000000000E+00  0.50000000000E+03  0.50000000000E+03  0.00000000000E+00 0. -1.
        -11   -1    0    0    0    0 -0.00000000000E+00 -0.00000000000E+00 -0.50000000000E+03  0.50000000000E+03  0.00000000000E+00 0.  1.
          5    1    1    2  501    0 -0.49305535803E+03 -0.67106532596E+02 -0.48693297239E+02  0.50000000000E+03  0.47000000000E+01 0. -1.
         -5    1    1    2    0  501  0.49305535803E+03  0.67106532596E+02  0.48693297239E+02  0.50000000000E+03  0.47000000000E+01 0.  1.
</event>
<event>
 4    1  0.4924477E-004  0.1000000E+04  0.7546771E-02  0.8684367E-01
         11   -1    0    0    0    0  0.00000000000E+00  0.00000000000E+00  0.50000000000E+03  0.50000000000E+03  0.00000000000E+00 0. -1.
        -11   -1    0    0    0    0 -0.00000000000E+00 -0.00000000000E+00 -0.50000000000E+03  0.50000000000E+03  0.00000000000E+00 0.  1.
          5    1    1    2  501    0  0.72008780171E+02  0.37233407650E+03 -0.32582200824E+03  0.50000000000E+03  0.47000000000E+01 0. -1.
         -5    1    1    2    0  501 -0.72008780171E+02 -0.37233407650E+03  0.32582200824E+03  0.50000000000E+03  0.47000000000E+01 0.  1.
</event>
<event>
 4    1  0.4924477E-004  0.1000000E+04  0.7546771E-02  0.8684367E-01
         11   -1    0    0    0    0  0.00000000000E+00  0.00000000000E+00  0.50000000000E+03  0.50000000000E+03  0.00000000000E+00 0. -1.
        -11   -1    0    0    0    0 -0.00000000000E+00 -0.00000000000E+00 -0.50000000000E+03  0.50000000000E+03  0.00000000000E+00 0.  1.
          5    1    1    2  501    0 -0.15143960938E+03 -0.14485305998E+03  0.45394002437E+03  0.50000000000E+03  0.47000000000E+01 0. -1.
         -5    1    1    2    0  501  0.15143960938E+03  0.14485305998E+03 -0.45394002437E+03  0.50000000000E+03  0.47000000000E+01 0.  1.
</event>
<event>
 4    1  0.4924477E-004  0.1000000E+04  0.7546771E-02  0.8684367E-01
         11   -1    0    0    0    0  0.00000000000E+00  0.00000000000E+00  0.50000000000E+03  0.50000000000E+03  0.00000000000E+00 0. -1.
        -11   -1    0    0    0    0 -0.00000000000E+00 -0.00000000000E+00 -0.50000000000E+03  0.50000000000E+03  0.00000000000E+00 0.  1.
          5    1    1    2  501    0  0.29971052287E+03  0.27253794036E+03  0.29304365468E+03  0.50000000000E+03  0.47000000000E+01 0. -1.
         -5    1    1    2    0  501 -0.29971052287E+03 -0.27253794036E+03 -0.29304365468E+03  0.50000000000E+03  0.47000000000E+01 0.  1.
</event>
<event>
 4    1  0.4924477E-004  0.1000000E+04  0.7546771E-02  0.8684367E-01
         11   -1    0    0    0    0  0.00000000000E+00  0.00000000000E+00  0.50000000000E+03  0.50000000000E+03  0.00000000000E+00 0. -1.
        -11   -1    0    0    0    0 -0.00000000000E+00 -0.00000000000E+00 -0.50000000000E+03  0.50000000000E+03  0.00000000000E+00 0.  1.
          5    1    1    2  501    0  0.27813091772E+03  0.23061540897E+01  0.41547055764E+03  0.50000000000E+03  0.47000000000E+01 0. -1.
         -5    1    1    2    0  501 -0.27813091772E+03 -0.23061540897E+01 -0.41547055764E+03  0.50000000000E+03  0.47000000000E+01 0.  1.
</event>
<event>
 4    1  0.4924477E-004  0.1000000E+04  0.7546771E-02  0.8684367E-01
         11   -1    0    0    0    0  0.00000000000E+00  0.00000000000E+00  0.50000000000E+03  0.50000000000E+03  0.00000000000E+00 0. -1.
        -11   -1    0    0    0    0 -0.00000000000E+00 -0.00000000000E+00 -0.50000000000E+03  0.50000000000E+03  0.00000000000E+00 0.  1.
          5    1    1    2  501    0 -0.39541813973E+03 -0.22325929586E+03  0.20923119172E+03  0.50000000000E+03  0.47000000000E+01 0. -1.
         -5    1    1    2    0  501  0.39541813973E+03  0.22325929586E+03 -0.20923119172E+03  0.50000000000E+03  0.47000000000E+01 0.  1.
</event>
<event>
 4    1  0.4924477E-004  0.1000000E+04  0.7546771E-02  0.8684367E-01
         11   -1    0    0    0    0  0.00000000000E+00  0.00000000000E+00  0.50000000000E+03  0.50000000000E+03  0.00000000000E+00 0. -1.
        -11   -1    0    0    0    0 -0.00000000000E+00 -0.00000000000E+00 -0.50000000000E+03  0.50000000000E+03  0.00000000000E+00 0.  1.
          5    1    1    2  501    0  0.64694034137E+02 -0.30151000476E+03  0.39355343853E+03  0.50000000000E+03  0.47000000000E+01 0. -1.
         -5    1    1    2    0  501 -0.64694034137E+02  0.30151000476E+03 -0.39355343853E+03  0.50000000000E+03  0.47000000000E+01 0.  1.
</event>
<event>
 4    1  0.4924477E-004  0.1000000E+04  0.7546771E-02  0.8684367E-01
         11   -1    0    0    0    0  0.00000000000E+00  0.00000000000E+00  0.50000000000E+03  0.50000000000E+03  0.00000000000E+00 0. -1.
        -11   -1    0    0    0    0 -0.00000000000E+00 -0.00000000000E+00 -0.50000000000E+03  0.50000000000E+03  0.00000000000E+00 0.  1.
          5    1    1    2  501    0  0.13158116522E+03 -0.45174286534E+03  0.16909373311E+03  0.50000000000E+03  0.47000000000E+01 0. -1.
         -5    1    1    2    0  501 -0.13158116522E+03  0.45174286534E+03 -0.16909373311E+03  0.50000000000E+03  0.47000000000E+01 0.  1.
</event>
<event>
 4    1  0.4924477E-004  0.1000000E+04  0.7546771E-02  0.8684367E-01
         11   -1    0    0    0    0  0.00000000000E+00  0.00000000000E+00  0.50000000000E+03  0.50000000000E+03  0.00000000000E+00 0. -1.
        -11   -1    0    0    0    0 -0.00000000000E+00 -0.00000000000E+00 -0.50000000000E+03  0.50000000000E+03  0.00000000000E+00 0.  1.
          5    1    1    2  501    0 -0.35742723720E+03 -0.12986331083E+03  0.32459082027E+03  0.50000000000E+03  0.47000000000E+01 0. -1.
         -5    1    1    2    0  501  0.35742723720E+03  0.12986331083E+03 -0.32459082027E+03  0.50000000000E+03  0.47000000000E+01 0.  1.
</event>
<event>
 4    1  0.4924477E-004  0.1000000E+04  0.7546771E-02  0.8684367E-01
         11   -1    0    0    0    0  0.00000000000E+00  0.00000000000E+00  0.50000000000E+03  0.50000000000E+03  0.00000000000E+00 0. -1.
        -11   -1    0    0    0    0 -0.00000000000E+00 -0.00000000000E+00 -0.50000000000E+03  0.50000000000E+03  0.00000000000E+00 0.  1.
          5    1    1    2  501    0 -0.34108002223E+03  0.39507918791E+02  0.36343012091E+03  0.50000000000E+03  0.47000000000E+01 0. -1.
         -5    1    1    2    0  501  0.34108002223E+03 -0.39507918791E+02 -0.36343012091E+03  0.50000000000E+03  0.47000000000E+01 0.  1.
</event>
<event>
 4    1  0.4924477E-004  0.1000000E+04  0.7546771E-02  0.8684367E-01
         11   -1    0    0    0    0  0.00000000000E+00  0.00000000000E+00  0.50000000000E+03  0.50000000000E+03  0.00000000000E+00 0. -1.
        -11   -1    0    0    0    0 -0.00000000000E+00 -0.00000000000E+00 -0.50000000000E+03  0.50000000000E+03  0.00000000000E+00 0.  1.
          5    1    1    2  501    0  0.11302654760E+03  0.30704109026E+03  0.37805909383E+03  0.50000000000E+03  0.47000000000E+01 0. -1.
         -5    1    1    2    0  501 -0.11302654760E+03 -0.30704109026E+03 -0.37805909383E+03  0.50000000000E+03  0.47000000000E+01 0.  1.
</event>
<event>
 4    1  0.4924477E-004  0.1000000E+04  0.7546771E-02  0.8684367E-01
         11   -1    0    0    0    0  0.00000000000E+00  0.00000000000E+00  0.50000000000E+03  0.50000000000E+03  0.00000000000E+00 0. -1.
        -11   -1    0    0    0    0 -0.00000000000E+00 -0.00000000000E+00 -0.50000000000E+03  0.50000000000E+03  0.00000000000E+00 0.  1.
          5    1    1    2  501    0  0.27256689290E+03 -0.65370561438E+02  0.41401918868E+03  0.50000000000E+03  0.47000000000E+01 0. -1.
         -5    1    1    2    0  501 -0.27256689290E+03  0.65370561438E+02 -0.41401918868E+03  0.50000000000E+03  0.47000000000E+01 0.  1.
</event>
<event>
 4    1  0.4924477E-004  0.1000000E+04  0.7546771E-02  0.8684367E-01
         11   -1    0    0    0    0  0.00000000000E+00  0.00000000000E+00  0.50000000000E+03  0.50000000000E+03  0.00000000000E+00 0. -1.
        -11   -1    0    0    0    0 -0.00000000000E+00 -0.00000000000E+00 -0.50000000000E+03  0.50000000000E+03  0.00000000000E+00 0.  1.
          5    1    1    2  501    0  0.41767845019E+01  0.66206014775E+02  0.49555749220E+03  0.50000000000E+03  0.47000000000E+01 0. -1.
         -5    1    1    2    0  501 -0.41767845019E+01 -0.66206014775E+02 -0.49555749220E+03  0.50000000000E+03  0.47000000000E+01 0.  1.
</event>
<event>
 4    1  0.4924477E-004  0.1000000E+04  0.7546771E-02  0.8684367E-01
         11   -1    0    0    0    0  0.00000000000E+00  0.00000000000E+00  0.50000000000E+03  0.50000000000E+03  0.00000000000E+00 0. -1.
        -11   -1    0    0    0    0 -0.00000000000E+00 -0.00000000000E+00 -0.50000000000E+03  0.50000000000E+03  0.00000000000E+00 0.  1.
          5    1    1    2  501    0  0.10077907023E+03  0.45528107871E+03  0.18039021140E+03  0.50000000000E+03  0.47000000000E+01 0. -1.
         -5    1    1    2    0  501 -0.10077907023E+03 -0.45528107871E+03 -0.18039021140E+03  0.50000000000E+03  0.47000000000E+01 0.  1.
</event>
<event>
 4    1  0.4924477E-004  0.1000000E+04  0.7546771E-02  0.8684367E-01
         11   -1    0    0    0    0  0.00000000000E+00  0.00000000000E+00  0.50000000000E+03  0.50000000000E+03  0.00000000000E+00 0. -1.
        -11   -1    0    0    0    0 -0.00000000000E+00 -0.00000000000E+00 -0.50000000000E+03  0.50000000000E+03  0.00000000000E+00 0.  1.
          5    1    1    2  501    0  0.24019949646E+03 -0.35993382180E+03  0.25045909012E+03  0.50000000000E+03  0.47000000000E+01 0. -1.
         -5    1    1    2    0  501 -0.24019949646E+03  0.35993382180E+03 -0.25045909012E+03  0.50000000000E+03  0.47000000000E+01 0.  1.
</event>
<event>
 4    1  0.4924477E-004  0.1000000E+04  0.7546771E-02  0.8684367E-01
         11   -1    0    0    0    0  0.00000000000E+00  0.00000000000E+00  0.50000000000E+03  0.50000000000E+03  0.00000000000E+00 0.  1.
        -11   -1    0    0    0    0 -0.00000000000E+00 -0.00000000000E+00 -0.50000000000E+03  0.50000000000E+03  0.00000000000E+00 0. -1.
          5    1    1    2  501    0  0.14639851950E+03  0.18022905803E+03  0.44278987130E+03  0.50000000000E+03  0.47000000000E+01 0.  1.
         -5    1    1    2    0  501 -0.14639851950E+03 -0.18022905803E+03 -0.44278987130E+03  0.50000000000E+03  0.47000000000E+01 0. -1.
</event>
<event>
 4    1  0.4924477E-004  0.1000000E+04  0.7546771E-02  0.8684367E-01
         11   -1    0    0    0    0  0.00000000000E+00  0.00000000000E+00  0.50000000000E+03  0.50000000000E+03  0.00000000000E+00 0. -1.
        -11   -1    0    0    0    0 -0.00000000000E+00 -0.00000000000E+00 -0.50000000000E+03  0.50000000000E+03  0.00000000000E+00 0.  1.
          5    1    1    2  501    0 -0.30017585065E+03 -0.32159345164E+03  0.23759213066E+03  0.50000000000E+03  0.47000000000E+01 0. -1.
         -5    1    1    2    0  501  0.30017585065E+03  0.32159345164E+03 -0.23759213066E+03  0.50000000000E+03  0.47000000000E+01 0.  1.
</event>
<event>
 4    1  0.4924477E-004  0.1000000E+04  0.7546771E-02  0.8684367E-01
         11   -1    0    0    0    0  0.00000000000E+00  0.00000000000E+00  0.50000000000E+03  0.50000000000E+03  0.00000000000E+00 0. -1.
        -11   -1    0    0    0    0 -0.00000000000E+00 -0.00000000000E+00 -0.50000000000E+03  0.50000000000E+03  0.00000000000E+00 0.  1.
          5    1    1    2  501    0 -0.31872987113E+03 -0.25058446118E+03  0.29256897830E+03  0.50000000000E+03  0.47000000000E+01 0. -1.
         -5    1    1    2    0  501  0.31872987113E+03  0.25058446118E+03 -0.29256897830E+03  0.50000000000E+03  0.47000000000E+01 0.  1.
</event>
<event>
 4    1  0.4924477E-004  0.1000000E+04  0.7546771E-02  0.8684367E-01
         11   -1    0    0    0    0  0.00000000000E+00  0.00000000000E+00  0.50000000000E+03  0.50000000000E+03  0.00000000000E+00 0. -1.
        -11   -1    0    0    0    0 -0.00000000000E+00 -0.00000000000E+00 -0.50000000000E+03  0.50000000000E+03  0.00000000000E+00 0.  1.
          5    1    1    2  501    0  0.46908223215E+03  0.19345912938E+01  0.17302030760E+03  0.50000000000E+03  0.47000000000E+01 0. -1.
         -5    1    1    2    0  501 -0.46908223215E+03 -0.19345912938E+01 -0.17302030760E+03  0.50000000000E+03  0.47000000000E+01 0.  1.
</event>
<event>
 4    1  0.4924477E-004  0.1000000E+04  0.7546771E-02  0.8684367E-01
         11   -1    0    0    0    0  0.00000000000E+00  0.00000000000E+00  0.50000000000E+03  0.50000000000E+03  0.00000000000E+00 0.  1.
        -11   -1    0    0    0    0 -0.00000000000E+00 -0.00000000000E+00 -0.50000000000E+03  0.50000000000E+03  0.00000000000E+00 0. -1.
          5    1    1    2  501    0  0.25749123731E+03 -0.42037240582E+03 -0.83445869474E+02  0.50000000000E+03  0.47000000000E+01 0.  1.
         -5    1    1    2    0  501 -0.25749123731E+03  0.42037240582E+03  0.83445869474E+02  0.50000000000E+03  0.47000000000E+01 0. -1.
</event>
<event>
 4    1  0.4924477E-004  0.1000000E+04  0.7546771E-02  0.8684367E-01
         11   -1    0    0    0    0  0.00000000000E+00  0.00000000000E+00  0.50000000000E+03  0.50000000000E+03  0.00000000000E+00 0. -1.
        -11   -1    0    0    0    0 -0.00000000000E+00 -0.00000000000E+00 -0.50000000000E+03  0.50000000000E+03  0.00000000000E+00 0.  1.
          5    1    1    2  501    0  0.42987219422E+02  0.11491931604E+03  0.48468913725E+03  0.50000000000E+03  0.47000000000E+01 0. -1.
         -5    1    1    2    0  501 -0.42987219422E+02 -0.11491931604E+03 -0.48468913725E+03  0.50000000000E+03  0.47000000000E+01 0.  1.
</event>
<event>
 4    1  0.4924477E-004  0.1000000E+04  0.7546771E-02  0.8684367E-01
         11   -1    0    0    0    0  0.00000000000E+00  0.00000000000E+00  0.50000000000E+03  0.50000000000E+03  0.00000000000E+00 0. -1.
        -11   -1    0    0    0    0 -0.00000000000E+00 -0.00000000000E+00 -0.50000000000E+03  0.50000000000E+03  0.00000000000E+00 0.  1.
          5    1    1    2  501    0  0.40635010078E+03 -0.88977836594E+02  0.27738141645E+03  0.50000000000E+03  0.47000000000E+01 0. -1.
         -5    1    1    2    0  501 -0.40635010078E+03  0.88977836594E+02 -0.27738141645E+03  0.50000000000E+03  0.47000000000E+01 0.  1.
</event>
<event>
 4    1  0.4924477E-004  0.1000000E+04  0.7546771E-02  0.8684367E-01
         11   -1    0    0    0    0  0.00000000000E+00  0.00000000000E+00  0.50000000000E+03  0.50000000000E+03  0.00000000000E+00 0. -1.
        -11   -1    0    0    0    0 -0.00000000000E+00 -0.00000000000E+00 -0.50000000000E+03  0.50000000000E+03  0.00000000000E+00 0.  1.
          5    1    1    2  501    0  0.41393445816E+03 -0.10080762732E+03  0.26167536495E+03  0.50000000000E+03  0.47000000000E+01 0. -1.
         -5    1    1    2    0  501 -0.41393445816E+03  0.10080762732E+03 -0.26167536495E+03  0.50000000000E+03  0.47000000000E+01 0.  1.
</event>
<event>
 4    1  0.4924477E-004  0.1000000E+04  0.7546771E-02  0.8684367E-01
         11   -1    0    0    0    0  0.00000000000E+00  0.00000000000E+00  0.50000000000E+03  0.50000000000E+03  0.00000000000E+00 0. -1.
        -11   -1    0    0    0    0 -0.00000000000E+00 -0.00000000000E+00 -0.50000000000E+03  0.50000000000E+03  0.00000000000E+00 0.  1.
          5    1    1    2  501    0  0.72901613688E+02  0.47352910927E+03  0.14294560991E+03  0.50000000000E+03  0.47000000000E+01 0. -1.
         -5    1    1    2    0  501 -0.72901613688E+02 -0.47352910927E+03 -0.14294560991E+03  0.50000000000E+03  0.47000000000E+01 0.  1.
</event>
<event>
 4    1  0.4924477E-004  0.1000000E+04  0.7546771E-02  0.8684367E-01
         11   -1    0    0    0    0  0.00000000000E+00  0.00000000000E+00  0.50000000000E+03  0.50000000000E+03  0.00000000000E+00 0.  1.
        -11   -1    0    0    0    0 -0.00000000000E+00 -0.00000000000E+00 -0.50000000000E+03  0.50000000000E+03  0.00000000000E+00 0. -1.
          5    1    1    2  501    0  0.46505128552E+03  0.15973292133E+03  0.90501965071E+02  0.50000000000E+03  0.47000000000E+01 0. -1.
         -5    1    1    2    0  501 -0.46505128552E+03 -0.15973292133E+03 -0.90501965071E+02  0.50000000000E+03  0.47000000000E+01 0.  1.
</event>
<event>
 4    1  0.4924477E-004  0.1000000E+04  0.7546771E-02  0.8684367E-01
         11   -1    0    0    0    0  0.00000000000E+00  0.00000000000E+00  0.50000000000E+03  0.50000000000E+03  0.00000000000E+00 0. -1.
        -11   -1    0    0    0    0 -0.00000000000E+00 -0.00000000000E+00 -0.50000000000E+03  0.50000000000E+03  0.00000000000E+00 0.  1.
          5    1    1    2  501    0  0.11674725259E+03 -0.35867984842E+03  0.32817183815E+03  0.50000000000E+03  0.47000000000E+01 0.  1.
         -5    1    1    2    0  501 -0.11674725259E+03  0.35867984842E+03 -0.32817183815E+03  0.50000000000E+03  0.47000000000E+01 0. -1.
</event>
<event>
 4    1  0.4924477E-004  0.1000000E+04  0.7546771E-02  0.8684367E-01
         11   -1    0    0    0    0  0.00000000000E+00  0.00000000000E+00  0.50000000000E+03  0.50000000000E+03  0.00000000000E+00 0. -1.
        -11   -1    0    0    0    0 -0.00000000000E+00 -0.00000000000E+00 -0.50000000000E+03  0.50000000000E+03  0.00000000000E+00 0.  1.
          5    1    1    2  501    0  0.88644211658E+02  0.48526588356E+03  0.81468619672E+02  0.50000000000E+03  0.47000000000E+01 0. -1.
         -5    1    1    2    0  501 -0.88644211658E+02 -0.48526588356E+03 -0.81468619672E+02  0.50000000000E+03  0.47000000000E+01 0.  1.
</event>
<event>
 4    1  0.4924477E-004  0.1000000E+04  0.7546771E-02  0.8684367E-01
         11   -1    0    0    0    0  0.00000000000E+00  0.00000000000E+00  0.50000000000E+03  0.50000000000E+03  0.00000000000E+00 0.  1.
        -11   -1    0    0    0    0 -0.00000000000E+00 -0.00000000000E+00 -0.50000000000E+03  0.50000000000E+03  0.00000000000E+00 0. -1.
          5    1    1    2  501    0 -0.34359350256E+03 -0.41519820033E+02 -0.36082893391E+03  0.50000000000E+03  0.47000000000E+01 0. -1.
         -5    1    1    2    0  501  0.34359350256E+03  0.41519820033E+02  0.36082893391E+03  0.50000000000E+03  0.47000000000E+01 0.  1.
</event>
<event>
 4    1  0.4924477E-004  0.1000000E+04  0.7546771E-02  0.8684367E-01
         11   -1    0    0    0    0  0.00000000000E+00  0.00000000000E+00  0.50000000000E+03  0.50000000000E+03  0.00000000000E+00 0. -1.
        -11   -1    0    0    0    0 -0.00000000000E+00 -0.00000000000E+00 -0.50000000000E+03  0.50000000000E+03  0.00000000000E+00 0.  1.
          5    1    1    2  501    0 -0.41948685846E+03 -0.20734291927E+03  0.17611814050E+03  0.50000000000E+03  0.47000000000E+01 0. -1.
         -5    1    1    2    0  501  0.41948685846E+03  0.20734291927E+03 -0.17611814050E+03  0.50000000000E+03  0.47000000000E+01 0.  1.
</event>
<event>
 4    1  0.4924477E-004  0.1000000E+04  0.7546771E-02  0.8684367E-01
         11   -1    0    0    0    0  0.00000000000E+00  0.00000000000E+00  0.50000000000E+03  0.50000000000E+03  0.00000000000E+00 0. -1.
        -11   -1    0    0    0    0 -0.00000000000E+00 -0.00000000000E+00 -0.50000000000E+03  0.50000000000E+03  0.00000000000E+00 0.  1.
          5    1    1    2  501    0  0.17397141938E+03 -0.37940337767E+03  0.27525430470E+03  0.50000000000E+03  0.47000000000E+01 0. -1.
         -5    1    1    2    0  501 -0.17397141938E+03  0.37940337767E+03 -0.27525430470E+03  0.50000000000E+03  0.47000000000E+01 0.  1.
</event>
<event>
 4    1  0.4924477E-004  0.1000000E+04  0.7546771E-02  0.8684367E-01
         11   -1    0    0    0    0  0.00000000000E+00  0.00000000000E+00  0.50000000000E+03  0.50000000000E+03  0.00000000000E+00 0.  1.
        -11   -1    0    0    0    0 -0.00000000000E+00 -0.00000000000E+00 -0.50000000000E+03  0.50000000000E+03  0.00000000000E+00 0. -1.
          5    1    1    2  501    0  0.40542656315E+03  0.22201182651E+03  0.19057271783E+03  0.50000000000E+03  0.47000000000E+01 0.  1.
         -5    1    1    2    0  501 -0.40542656315E+03 -0.22201182651E+03 -0.19057271783E+03  0.50000000000E+03  0.47000000000E+01 0. -1.
</event>
<event>
 4    1  0.4924477E-004  0.1000000E+04  0.7546771E-02  0.8684367E-01
         11   -1    0    0    0    0  0.00000000000E+00  0.00000000000E+00  0.50000000000E+03  0.50000000000E+03  0.00000000000E+00 0. -1.
        -11   -1    0    0    0    0 -0.00000000000E+00 -0.00000000000E+00 -0.50000000000E+03  0.50000000000E+03  0.00000000000E+00 0.  1.
          5    1    1    2  501    0  0.31864654437E+03  0.23164724417E+03  0.30786660103E+03  0.50000000000E+03  0.47000000000E+01 0. -1.
         -5    1    1    2    0  501 -0.31864654437E+03 -0.23164724417E+03 -0.30786660103E+03  0.50000000000E+03  0.47000000000E+01 0.  1.
</event>
<event>
 4    1  0.4924477E-004  0.1000000E+04  0.7546771E-02  0.8684367E-01
         11   -1    0    0    0    0  0.00000000000E+00  0.00000000000E+00  0.50000000000E+03  0.50000000000E+03  0.00000000000E+00 0. -1.
        -11   -1    0    0    0    0 -0.00000000000E+00 -0.00000000000E+00 -0.50000000000E+03  0.50000000000E+03  0.00000000000E+00 0.  1.
          5    1    1    2  501    0  0.36749947871E+03  0.13466226839E+03  0.31110788583E+03  0.50000000000E+03  0.47000000000E+01 0. -1.
         -5    1    1    2    0  501 -0.36749947871E+03 -0.13466226839E+03 -0.31110788583E+03  0.50000000000E+03  0.47000000000E+01 0.  1.
</event>
<event>
 4    1  0.4924477E-004  0.1000000E+04  0.7546771E-02  0.8684367E-01
         11   -1    0    0    0    0  0.00000000000E+00  0.00000000000E+00  0.50000000000E+03  0.50000000000E+03  0.00000000000E+00 0. -1.
        -11   -1    0    0    0    0 -0.00000000000E+00 -0.00000000000E+00 -0.50000000000E+03  0.50000000000E+03  0.00000000000E+00 0.  1.
          5    1    1    2  501    0 -0.11508550981E+03  0.62120905194E+02  0.48257043897E+03  0.50000000000E+03  0.47000000000E+01 0. -1.
         -5    1    1    2    0  501  0.11508550981E+03 -0.62120905194E+02 -0.48257043897E+03  0.50000000000E+03  0.47000000000E+01 0.  1.
</event>
<event>
 4    1  0.4924477E-004  0.1000000E+04  0.7546771E-02  0.8684367E-01
         11   -1    0    0    0    0  0.00000000000E+00  0.00000000000E+00  0.50000000000E+03  0.50000000000E+03  0.00000000000E+00 0. -1.
        -11   -1    0    0    0    0 -0.00000000000E+00 -0.00000000000E+00 -0.50000000000E+03  0.50000000000E+03  0.00000000000E+00 0.  1.
          5    1    1    2  501    0 -0.42026328915E+03 -0.20515657262E+03  0.17682606850E+03  0.50000000000E+03  0.47000000000E+01 0. -1.
         -5    1    1    2    0  501  0.42026328915E+03  0.20515657262E+03 -0.17682606850E+03  0.50000000000E+03  0.47000000000E+01 0.  1.
</event>
<event>
 4    1  0.4924477E-004  0.1000000E+04  0.7546771E-02  0.8684367E-01
         11   -1    0    0    0    0  0.00000000000E+00  0.00000000000E+00  0.50000000000E+03  0.50000000000E+03  0.00000000000E+00 0. -1.
        -11   -1    0    0    0    0 -0.00000000000E+00 -0.00000000000E+00 -0.50000000000E+03  0.50000000000E+03  0.00000000000E+00 0.  1.
          5    1    1    2  501    0 -0.32727727717E+03 -0.67590699180E+02  0.37188572335E+03  0.50000000000E+03  0.47000000000E+01 0. -1.
         -5    1    1    2    0  501  0.32727727717E+03  0.67590699180E+02 -0.37188572335E+03  0.50000000000E+03  0.47000000000E+01 0.  1.
</event>
<event>
 4    1  0.4924477E-004  0.1000000E+04  0.7546771E-02  0.8684367E-01
         11   -1    0    0    0    0  0.00000000000E+00  0.00000000000E+00  0.50000000000E+03  0.50000000000E+03  0.00000000000E+00 0. -1.
        -11   -1    0    0    0    0 -0.00000000000E+00 -0.00000000000E+00 -0.50000000000E+03  0.50000000000E+03  0.00000000000E+00 0.  1.
          5    1    1    2  501    0  0.16564100113E+03 -0.45621384863E+03  0.12004121402E+03  0.50000000000E+03  0.47000000000E+01 0. -1.
         -5    1    1    2    0  501 -0.16564100113E+03  0.45621384863E+03 -0.12004121402E+03  0.50000000000E+03  0.47000000000E+01 0.  1.
</event>
<event>
 4    1  0.4924477E-004  0.1000000E+04  0.7546771E-02  0.8684367E-01
         11   -1    0    0    0    0  0.00000000000E+00  0.00000000000E+00  0.50000000000E+03  0.50000000000E+03  0.00000000000E+00 0.  1.
        -11   -1    0    0    0    0 -0.00000000000E+00 -0.00000000000E+00 -0.50000000000E+03  0.50000000000E+03  0.00000000000E+00 0. -1.
          5    1    1    2  501    0 -0.31749503293E+03 -0.15528813392E+03  0.35363881225E+03  0.50000000000E+03  0.47000000000E+01 0.  1.
         -5    1    1    2    0  501  0.31749503293E+03  0.15528813392E+03 -0.35363881225E+03  0.50000000000E+03  0.47000000000E+01 0. -1.
</event>
<event>
 4    1  0.4924477E-004  0.1000000E+04  0.7546771E-02  0.8684367E-01
         11   -1    0    0    0    0  0.00000000000E+00  0.00000000000E+00  0.50000000000E+03  0.50000000000E+03  0.00000000000E+00 0. -1.
        -11   -1    0    0    0    0 -0.00000000000E+00 -0.00000000000E+00 -0.50000000000E+03  0.50000000000E+03  0.00000000000E+00 0.  1.
          5    1    1    2  501    0  0.12359468448E+03 -0.42634400765E+03  0.23007183903E+03  0.50000000000E+03  0.47000000000E+01 0. -1.
         -5    1    1    2    0  501 -0.12359468448E+03  0.42634400765E+03 -0.23007183903E+03  0.50000000000E+03  0.47000000000E+01 0.  1.
</event>
<event>
 4    1  0.4924477E-004  0.1000000E+04  0.7546771E-02  0.8684367E-01
         11   -1    0    0    0    0  0.00000000000E+00  0.00000000000E+00  0.50000000000E+03  0.50000000000E+03  0.00000000000E+00 0. -1.
        -11   -1    0    0    0    0 -0.00000000000E+00 -0.00000000000E+00 -0.50000000000E+03  0.50000000000E+03  0.00000000000E+00 0.  1.
          5    1    1    2  501    0 -0.16453806366E+03  0.26979165243E+02  0.47135682901E+03  0.50000000000E+03  0.47000000000E+01 0. -1.
         -5    1    1    2    0  501  0.16453806366E+03 -0.26979165243E+02 -0.47135682901E+03  0.50000000000E+03  0.47000000000E+01 0.  1.
</event>
<event>
 4    1  0.4924477E-004  0.1000000E+04  0.7546771E-02  0.8684367E-01
         11   -1    0    0    0    0  0.00000000000E+00  0.00000000000E+00  0.50000000000E+03  0.50000000000E+03  0.00000000000E+00 0. -1.
        -11   -1    0    0    0    0 -0.00000000000E+00 -0.00000000000E+00 -0.50000000000E+03  0.50000000000E+03  0.00000000000E+00 0.  1.
          5    1    1    2  501    0 -0.47157182894E+02 -0.42702756078E+03  0.25573731138E+03  0.50000000000E+03  0.47000000000E+01 0. -1.
         -5    1    1    2    0  501  0.47157182894E+02  0.42702756078E+03 -0.25573731138E+03  0.50000000000E+03  0.47000000000E+01 0.  1.
</event>
<event>
 4    1  0.4924477E-004  0.1000000E+04  0.7546771E-02  0.8684367E-01
         11   -1    0    0    0    0  0.00000000000E+00  0.00000000000E+00  0.50000000000E+03  0.50000000000E+03  0.00000000000E+00 0. -1.
        -11   -1    0    0    0    0 -0.00000000000E+00 -0.00000000000E+00 -0.50000000000E+03  0.50000000000E+03  0.00000000000E+00 0.  1.
          5    1    1    2  501    0  0.39406078265E+03  0.28865871173E+03  0.10663094167E+03  0.50000000000E+03  0.47000000000E+01 0. -1.
         -5    1    1    2    0  501 -0.39406078265E+03 -0.28865871173E+03 -0.10663094167E+03  0.50000000000E+03  0.47000000000E+01 0.  1.
</event>
<event>
 4    1  0.4924477E-004  0.1000000E+04  0.7546771E-02  0.8684367E-01
         11   -1    0    0    0    0  0.00000000000E+00  0.00000000000E+00  0.50000000000E+03  0.50000000000E+03  0.00000000000E+00 0. -1.
        -11   -1    0    0    0    0 -0.00000000000E+00 -0.00000000000E+00 -0.50000000000E+03  0.50000000000E+03  0.00000000000E+00 0.  1.
          5    1    1    2  501    0 -0.20406028573E+03  0.44603859268E+03 -0.96885930982E+02  0.50000000000E+03  0.47000000000E+01 0.  1.
         -5    1    1    2    0  501  0.20406028573E+03 -0.44603859268E+03  0.96885930982E+02  0.50000000000E+03  0.47000000000E+01 0. -1.
</event>
<event>
 4    1  0.4924477E-004  0.1000000E+04  0.7546771E-02  0.8684367E-01
         11   -1    0    0    0    0  0.00000000000E+00  0.00000000000E+00  0.50000000000E+03  0.50000000000E+03  0.00000000000E+00 0.  1.
        -11   -1    0    0    0    0 -0.00000000000E+00 -0.00000000000E+00 -0.50000000000E+03  0.50000000000E+03  0.00000000000E+00 0. -1.
          5    1    1    2  501    0 -0.52407839276E+02 -0.22110681868E+03  0.44535727581E+03  0.50000000000E+03  0.47000000000E+01 0.  1.
         -5    1    1    2    0  501  0.52407839276E+02  0.22110681868E+03 -0.44535727581E+03  0.50000000000E+03  0.47000000000E+01 0. -1.
</event>
<event>
 4    1  0.4924477E-004  0.1000000E+04  0.7546771E-02  0.8684367E-01
         11   -1    0    0    0    0  0.00000000000E+00  0.00000000000E+00  0.50000000000E+03  0.50000000000E+03  0.00000000000E+00 0. -1.
        -11   -1    0    0    0    0 -0.00000000000E+00 -0.00000000000E+00 -0.50000000000E+03  0.50000000000E+03  0.00000000000E+00 0.  1.
          5    1    1    2  501    0 -0.92056716920E+02 -0.43404615834E+03  0.23045043566E+03  0.50000000000E+03  0.47000000000E+01 0. -1.
         -5    1    1    2    0  501  0.92056716920E+02  0.43404615834E+03 -0.23045043566E+03  0.50000000000E+03  0.47000000000E+01 0.  1.
</event>
<event>
 4    1  0.4924477E-004  0.1000000E+04  0.7546771E-02  0.8684367E-01
         11   -1    0    0    0    0  0.00000000000E+00  0.00000000000E+00  0.50000000000E+03  0.50000000000E+03  0.00000000000E+00 0.  1.
        -11   -1    0    0    0    0 -0.00000000000E+00 -0.00000000000E+00 -0.50000000000E+03  0.50000000000E+03  0.00000000000E+00 0. -1.
          5    1    1    2  501    0  0.12705575495E+03 -0.15695609613E+03 -0.45738335018E+03  0.50000000000E+03  0.47000000000E+01 0. -1.
         -5    1    1    2    0  501 -0.12705575495E+03  0.15695609613E+03  0.45738335018E+03  0.50000000000E+03  0.47000000000E+01 0.  1.
</event>
<event>
 4    1  0.4924477E-004  0.1000000E+04  0.7546771E-02  0.8684367E-01
         11   -1    0    0    0    0  0.00000000000E+00  0.00000000000E+00  0.50000000000E+03  0.50000000000E+03  0.00000000000E+00 0.  1.
        -11   -1    0    0    0    0 -0.00000000000E+00 -0.00000000000E+00 -0.50000000000E+03  0.50000000000E+03  0.00000000000E+00 0. -1.
          5    1    1    2  501    0  0.17139248988E+03  0.24912374485E+03  0.39817067215E+03  0.50000000000E+03  0.47000000000E+01 0.  1.
         -5    1    1    2    0  501 -0.17139248988E+03 -0.24912374485E+03 -0.39817067215E+03  0.50000000000E+03  0.47000000000E+01 0. -1.
</event>
<event>
 4    1  0.4924477E-004  0.1000000E+04  0.7546771E-02  0.8684367E-01
         11   -1    0    0    0    0  0.00000000000E+00  0.00000000000E+00  0.50000000000E+03  0.50000000000E+03  0.00000000000E+00 0. -1.
        -11   -1    0    0    0    0 -0.00000000000E+00 -0.00000000000E+00 -0.50000000000E+03  0.50000000000E+03  0.00000000000E+00 0.  1.
          5    1    1    2  501    0  0.47121081206E+03  0.90812748339E+02  0.14032578286E+03  0.50000000000E+03  0.47000000000E+01 0. -1.
         -5    1    1    2    0  501 -0.47121081206E+03 -0.90812748339E+02 -0.14032578286E+03  0.50000000000E+03  0.47000000000E+01 0.  1.
</event>
<event>
 4    1  0.4924477E-004  0.1000000E+04  0.7546771E-02  0.8684367E-01
         11   -1    0    0    0    0  0.00000000000E+00  0.00000000000E+00  0.50000000000E+03  0.50000000000E+03  0.00000000000E+00 0.  1.
        -11   -1    0    0    0    0 -0.00000000000E+00 -0.00000000000E+00 -0.50000000000E+03  0.50000000000E+03  0.00000000000E+00 0. -1.
          5    1    1    2  501    0 -0.71183267356E+02 -0.36539142352E+03 -0.33376632554E+03  0.50000000000E+03  0.47000000000E+01 0. -1.
         -5    1    1    2    0  501  0.71183267356E+02  0.36539142352E+03  0.33376632554E+03  0.50000000000E+03  0.47000000000E+01 0.  1.
</event>
<event>
 4    1  0.4924477E-004  0.1000000E+04  0.7546771E-02  0.8684367E-01
         11   -1    0    0    0    0  0.00000000000E+00  0.00000000000E+00  0.50000000000E+03  0.50000000000E+03  0.00000000000E+00 0. -1.
        -11   -1    0    0    0    0 -0.00000000000E+00 -0.00000000000E+00 -0.50000000000E+03  0.50000000000E+03  0.00000000000E+00 0.  1.
          5    1    1    2  501    0 -0.58338384319E+02  0.49174335717E+03 -0.69014589722E+02  0.50000000000E+03  0.47000000000E+01 0. -1.
         -5    1    1    2    0  501  0.58338384319E+02 -0.49174335717E+03  0.69014589722E+02  0.50000000000E+03  0.47000000000E+01 0.  1.
</event>
<event>
 4    1  0.4924477E-004  0.1000000E+04  0.7546771E-02  0.8684367E-01
         11   -1    0    0    0    0  0.00000000000E+00  0.00000000000E+00  0.50000000000E+03  0.50000000000E+03  0.00000000000E+00 0. -1.
        -11   -1    0    0    0    0 -0.00000000000E+00 -0.00000000000E+00 -0.50000000000E+03  0.50000000000E+03  0.00000000000E+00 0.  1.
          5    1    1    2  501    0 -0.30326836807E+02  0.56040608622E+02  0.49590084004E+03  0.50000000000E+03  0.47000000000E+01 0. -1.
         -5    1    1    2    0  501  0.30326836807E+02 -0.56040608622E+02 -0.49590084004E+03  0.50000000000E+03  0.47000000000E+01 0.  1.
</event>
<event>
 4    1  0.4924477E-004  0.1000000E+04  0.7546771E-02  0.8684367E-01
         11   -1    0    0    0    0  0.00000000000E+00  0.00000000000E+00  0.50000000000E+03  0.50000000000E+03  0.00000000000E+00 0. -1.
        -11   -1    0    0    0    0 -0.00000000000E+00 -0.00000000000E+00 -0.50000000000E+03  0.50000000000E+03  0.00000000000E+00 0.  1.
          5    1    1    2  501    0 -0.24209650150E+03  0.12276903635E+03  0.41987493099E+03  0.50000000000E+03  0.47000000000E+01 0. -1.
         -5    1    1    2    0  501  0.24209650150E+03 -0.12276903635E+03 -0.41987493099E+03  0.50000000000E+03  0.47000000000E+01 0.  1.
</event>
<event>
 4    1  0.4924477E-004  0.1000000E+04  0.7546771E-02  0.8684367E-01
         11   -1    0    0    0    0  0.00000000000E+00  0.00000000000E+00  0.50000000000E+03  0.50000000000E+03  0.00000000000E+00 0. -1.
        -11   -1    0    0    0    0 -0.00000000000E+00 -0.00000000000E+00 -0.50000000000E+03  0.50000000000E+03  0.00000000000E+00 0.  1.
          5    1    1    2  501    0 -0.18689709712E+03 -0.24889225105E+03  0.39127999241E+03  0.50000000000E+03  0.47000000000E+01 0. -1.
         -5    1    1    2    0  501  0.18689709712E+03  0.24889225105E+03 -0.39127999241E+03  0.50000000000E+03  0.47000000000E+01 0.  1.
</event>
<event>
 4    1  0.4924477E-004  0.1000000E+04  0.7546771E-02  0.8684367E-01
         11   -1    0    0    0    0  0.00000000000E+00  0.00000000000E+00  0.50000000000E+03  0.50000000000E+03  0.00000000000E+00 0. -1.
        -11   -1    0    0    0    0 -0.00000000000E+00 -0.00000000000E+00 -0.50000000000E+03  0.50000000000E+03  0.00000000000E+00 0.  1.
          5    1    1    2  501    0  0.19552275898E+02  0.49753926472E+03  0.45280222749E+02  0.50000000000E+03  0.47000000000E+01 0. -1.
         -5    1    1    2    0  501 -0.19552275898E+02 -0.49753926472E+03 -0.45280222749E+02  0.50000000000E+03  0.47000000000E+01 0.  1.
</event>
<event>
 4    1  0.4924477E-004  0.1000000E+04  0.7546771E-02  0.8684367E-01
         11   -1    0    0    0    0  0.00000000000E+00  0.00000000000E+00  0.50000000000E+03  0.50000000000E+03  0.00000000000E+00 0. -1.
        -11   -1    0    0    0    0 -0.00000000000E+00 -0.00000000000E+00 -0.50000000000E+03  0.50000000000E+03  0.00000000000E+00 0.  1.
          5    1    1    2  501    0 -0.14864706866E+03  0.20846036224E+03  0.42944875871E+03  0.50000000000E+03  0.47000000000E+01 0. -1.
         -5    1    1    2    0  501  0.14864706866E+03 -0.20846036224E+03 -0.42944875871E+03  0.50000000000E+03  0.47000000000E+01 0.  1.
</event>
<event>
 4    1  0.4924477E-004  0.1000000E+04  0.7546771E-02  0.8684367E-01
         11   -1    0    0    0    0  0.00000000000E+00  0.00000000000E+00  0.50000000000E+03  0.50000000000E+03  0.00000000000E+00 0. -1.
        -11   -1    0    0    0    0 -0.00000000000E+00 -0.00000000000E+00 -0.50000000000E+03  0.50000000000E+03  0.00000000000E+00 0.  1.
          5    1    1    2  501    0 -0.36571519638E+03  0.13836202870E+03 -0.31158667198E+03  0.50000000000E+03  0.47000000000E+01 0. -1.
         -5    1    1    2    0  501  0.36571519638E+03 -0.13836202870E+03  0.31158667198E+03  0.50000000000E+03  0.47000000000E+01 0.  1.
</event>
<event>
 4    1  0.4924477E-004  0.1000000E+04  0.7546771E-02  0.8684367E-01
         11   -1    0    0    0    0  0.00000000000E+00  0.00000000000E+00  0.50000000000E+03  0.50000000000E+03  0.00000000000E+00 0. -1.
        -11   -1    0    0    0    0 -0.00000000000E+00 -0.00000000000E+00 -0.50000000000E+03  0.50000000000E+03  0.00000000000E+00 0.  1.
          5    1    1    2  501    0 -0.23608648011E+03 -0.36598558430E+03  0.24555169719E+03  0.50000000000E+03  0.47000000000E+01 0. -1.
         -5    1    1    2    0  501  0.23608648011E+03  0.36598558430E+03 -0.24555169719E+03  0.50000000000E+03  0.47000000000E+01 0.  1.
</event>
<event>
 4    1  0.4924477E-004  0.1000000E+04  0.7546771E-02  0.8684367E-01
         11   -1    0    0    0    0  0.00000000000E+00  0.00000000000E+00  0.50000000000E+03  0.50000000000E+03  0.00000000000E+00 0. -1.
        -11   -1    0    0    0    0 -0.00000000000E+00 -0.00000000000E+00 -0.50000000000E+03  0.50000000000E+03  0.00000000000E+00 0.  1.
          5    1    1    2  501    0 -0.19631308896E+03 -0.12470115005E+03  0.44259315887E+03  0.50000000000E+03  0.47000000000E+01 0. -1.
         -5    1    1    2    0  501  0.19631308896E+03  0.12470115005E+03 -0.44259315887E+03  0.50000000000E+03  0.47000000000E+01 0.  1.
</event>
<event>
 4    1  0.4924477E-004  0.1000000E+04  0.7546771E-02  0.8684367E-01
         11   -1    0    0    0    0  0.00000000000E+00  0.00000000000E+00  0.50000000000E+03  0.50000000000E+03  0.00000000000E+00 0. -1.
        -11   -1    0    0    0    0 -0.00000000000E+00 -0.00000000000E+00 -0.50000000000E+03  0.50000000000E+03  0.00000000000E+00 0.  1.
          5    1    1    2  501    0  0.19612492636E+03  0.54753017338E+02  0.45663446032E+03  0.50000000000E+03  0.47000000000E+01 0. -1.
         -5    1    1    2    0  501 -0.19612492636E+03 -0.54753017338E+02 -0.45663446032E+03  0.50000000000E+03  0.47000000000E+01 0.  1.
</event>
<event>
 4    1  0.4924477E-004  0.1000000E+04  0.7546771E-02  0.8684367E-01
         11   -1    0    0    0    0  0.00000000000E+00  0.00000000000E+00  0.50000000000E+03  0.50000000000E+03  0.00000000000E+00 0.  1.
        -11   -1    0    0    0    0 -0.00000000000E+00 -0.00000000000E+00 -0.50000000000E+03  0.50000000000E+03  0.00000000000E+00 0. -1.
          5    1    1    2  501    0 -0.14638965925E+03 -0.33455014104E+03  0.34150282692E+03  0.50000000000E+03  0.47000000000E+01 0.  1.
         -5    1    1    2    0  501  0.14638965925E+03  0.33455014104E+03 -0.34150282692E+03  0.50000000000E+03  0.47000000000E+01 0. -1.
</event>
<event>
 4    1  0.4924477E-004  0.1000000E+04  0.7546771E-02  0.8684367E-01
         11   -1    0    0    0    0  0.00000000000E+00  0.00000000000E+00  0.50000000000E+03  0.50000000000E+03  0.00000000000E+00 0. -1.
        -11   -1    0    0    0    0 -0.00000000000E+00 -0.00000000000E+00 -0.50000000000E+03  0.50000000000E+03  0.00000000000E+00 0.  1.
          5    1    1    2  501    0 -0.30428263210E+03  0.17808253996E+03  0.35450895442E+03  0.50000000000E+03  0.47000000000E+01 0. -1.
         -5    1    1    2    0  501  0.30428263210E+03 -0.17808253996E+03 -0.35450895442E+03  0.50000000000E+03  0.47000000000E+01 0.  1.
</event>
<event>
 4    1  0.4924477E-004  0.1000000E+04  0.7546771E-02  0.8684367E-01
         11   -1    0    0    0    0  0.00000000000E+00  0.00000000000E+00  0.50000000000E+03  0.50000000000E+03  0.00000000000E+00 0.  1.
        -11   -1    0    0    0    0 -0.00000000000E+00 -0.00000000000E+00 -0.50000000000E+03  0.50000000000E+03  0.00000000000E+00 0. -1.
          5    1    1    2  501    0 -0.48310780837E+03 -0.12638456869E+03 -0.24732494530E+02  0.50000000000E+03  0.47000000000E+01 0. -1.
         -5    1    1    2    0  501  0.48310780837E+03  0.12638456869E+03  0.24732494530E+02  0.50000000000E+03  0.47000000000E+01 0.  1.
</event>
<event>
 4    1  0.4924477E-004  0.1000000E+04  0.7546771E-02  0.8684367E-01
         11   -1    0    0    0    0  0.00000000000E+00  0.00000000000E+00  0.50000000000E+03  0.50000000000E+03  0.00000000000E+00 0.  1.
        -11   -1    0    0    0    0 -0.00000000000E+00 -0.00000000000E+00 -0.50000000000E+03  0.50000000000E+03  0.00000000000E+00 0. -1.
          5    1    1    2  501    0  0.32506897970E+03  0.34843445680E+03  0.15133240811E+03  0.50000000000E+03  0.47000000000E+01 0.  1.
         -5    1    1    2    0  501 -0.32506897970E+03 -0.34843445680E+03 -0.15133240811E+03  0.50000000000E+03  0.47000000000E+01 0. -1.
</event>
<event>
 4    1  0.4924477E-004  0.1000000E+04  0.7546771E-02  0.8684367E-01
         11   -1    0    0    0    0  0.00000000000E+00  0.00000000000E+00  0.50000000000E+03  0.50000000000E+03  0.00000000000E+00 0. -1.
        -11   -1    0    0    0    0 -0.00000000000E+00 -0.00000000000E+00 -0.50000000000E+03  0.50000000000E+03  0.00000000000E+00 0.  1.
          5    1    1    2  501    0  0.43069264286E+02  0.46224839704E+03 -0.18560540915E+03  0.50000000000E+03  0.47000000000E+01 0. -1.
         -5    1    1    2    0  501 -0.43069264286E+02 -0.46224839704E+03  0.18560540915E+03  0.50000000000E+03  0.47000000000E+01 0.  1.
</event>
<event>
 4    1  0.4924477E-004  0.1000000E+04  0.7546771E-02  0.8684367E-01
         11   -1    0    0    0    0  0.00000000000E+00  0.00000000000E+00  0.50000000000E+03  0.50000000000E+03  0.00000000000E+00 0. -1.
        -11   -1    0    0    0    0 -0.00000000000E+00 -0.00000000000E+00 -0.50000000000E+03  0.50000000000E+03  0.00000000000E+00 0.  1.
          5    1    1    2  501    0  0.18733566291E+03  0.34088941988E+03  0.31413000941E+03  0.50000000000E+03  0.47000000000E+01 0. -1.
         -5    1    1    2    0  501 -0.18733566291E+03 -0.34088941988E+03 -0.31413000941E+03  0.50000000000E+03  0.47000000000E+01 0.  1.
</event>
<event>
 4    1  0.4924477E-004  0.1000000E+04  0.7546771E-02  0.8684367E-01
         11   -1    0    0    0    0  0.00000000000E+00  0.00000000000E+00  0.50000000000E+03  0.50000000000E+03  0.00000000000E+00 0. -1.
        -11   -1    0    0    0    0 -0.00000000000E+00 -0.00000000000E+00 -0.50000000000E+03  0.50000000000E+03  0.00000000000E+00 0.  1.
          5    1    1    2  501    0 -0.37022814290E+03  0.23612561620E+03 -0.23906845375E+03  0.50000000000E+03  0.47000000000E+01 0.  1.
         -5    1    1    2    0  501  0.37022814290E+03 -0.23612561620E+03  0.23906845375E+03  0.50000000000E+03  0.47000000000E+01 0. -1.
</event>
<event>
 4    1  0.4924477E-004  0.1000000E+04  0.7546771E-02  0.8684367E-01
         11   -1    0    0    0    0  0.00000000000E+00  0.00000000000E+00  0.50000000000E+03  0.50000000000E+03  0.00000000000E+00 0. -1.
        -11   -1    0    0    0    0 -0.00000000000E+00 -0.00000000000E+00 -0.50000000000E+03  0.50000000000E+03  0.00000000000E+00 0.  1.
          5    1    1    2  501    0 -0.28218455330E+03  0.12860574564E+03  0.39218662658E+03  0.50000000000E+03  0.47000000000E+01 0. -1.
         -5    1    1    2    0  501  0.28218455330E+03 -0.12860574564E+03 -0.39218662658E+03  0.50000000000E+03  0.47000000000E+01 0.  1.
</event>
<event>
 4    1  0.4924477E-004  0.1000000E+04  0.7546771E-02  0.8684367E-01
         11   -1    0    0    0    0  0.00000000000E+00  0.00000000000E+00  0.50000000000E+03  0.50000000000E+03  0.00000000000E+00 0. -1.
        -11   -1    0    0    0    0 -0.00000000000E+00 -0.00000000000E+00 -0.50000000000E+03  0.50000000000E+03  0.00000000000E+00 0.  1.
          5    1    1    2  501    0  0.18514656434E+03 -0.43167512687E+03  0.17133372277E+03  0.50000000000E+03  0.47000000000E+01 0. -1.
         -5    1    1    2    0  501 -0.18514656434E+03  0.43167512687E+03 -0.17133372277E+03  0.50000000000E+03  0.47000000000E+01 0.  1.
</event>
<event>
 4    1  0.4924477E-004  0.1000000E+04  0.7546771E-02  0.8684367E-01
         11   -1    0    0    0    0  0.00000000000E+00  0.00000000000E+00  0.50000000000E+03  0.50000000000E+03  0.00000000000E+00 0. -1.
        -11   -1    0    0    0    0 -0.00000000000E+00 -0.00000000000E+00 -0.50000000000E+03  0.50000000000E+03  0.00000000000E+00 0.  1.
          5    1    1    2  501    0 -0.44050872518E+02  0.16687792838E+03  0.46924320735E+03  0.50000000000E+03  0.47000000000E+01 0. -1.
         -5    1    1    2    0  501  0.44050872518E+02 -0.16687792838E+03 -0.46924320735E+03  0.50000000000E+03  0.47000000000E+01 0.  1.
</event>
<event>
 4    1  0.4924477E-004  0.1000000E+04  0.7546771E-02  0.8684367E-01
         11   -1    0    0    0    0  0.00000000000E+00  0.00000000000E+00  0.50000000000E+03  0.50000000000E+03  0.00000000000E+00 0. -1.
        -11   -1    0    0    0    0 -0.00000000000E+00 -0.00000000000E+00 -0.50000000000E+03  0.50000000000E+03  0.00000000000E+00 0.  1.
          5    1    1    2  501    0 -0.63267224193E+02 -0.25335049389E+03  0.42636685564E+03  0.50000000000E+03  0.47000000000E+01 0. -1.
         -5    1    1    2    0  501  0.63267224193E+02  0.25335049389E+03 -0.42636685564E+03  0.50000000000E+03  0.47000000000E+01 0.  1.
</event>
<event>
 4    1  0.4924477E-004  0.1000000E+04  0.7546771E-02  0.8684367E-01
         11   -1    0    0    0    0  0.00000000000E+00  0.00000000000E+00  0.50000000000E+03  0.50000000000E+03  0.00000000000E+00 0. -1.
        -11   -1    0    0    0    0 -0.00000000000E+00 -0.00000000000E+00 -0.50000000000E+03  0.50000000000E+03  0.00000000000E+00 0.  1.
          5    1    1    2  501    0 -0.38910684439E+03 -0.23417353307E+03  0.20913280484E+03  0.50000000000E+03  0.47000000000E+01 0. -1.
         -5    1    1    2    0  501  0.38910684439E+03  0.23417353307E+03 -0.20913280484E+03  0.50000000000E+03  0.47000000000E+01 0.  1.
</event>
<event>
 4    1  0.4924477E-004  0.1000000E+04  0.7546771E-02  0.8684367E-01
         11   -1    0    0    0    0  0.00000000000E+00  0.00000000000E+00  0.50000000000E+03  0.50000000000E+03  0.00000000000E+00 0. -1.
        -11   -1    0    0    0    0 -0.00000000000E+00 -0.00000000000E+00 -0.50000000000E+03  0.50000000000E+03  0.00000000000E+00 0.  1.
          5    1    1    2  501    0  0.18481452768E+03  0.15946394943E+03  0.43634017600E+03  0.50000000000E+03  0.47000000000E+01 0. -1.
         -5    1    1    2    0  501 -0.18481452768E+03 -0.15946394943E+03 -0.43634017600E+03  0.50000000000E+03  0.47000000000E+01 0.  1.
</event>
<event>
 4    1  0.4924477E-004  0.1000000E+04  0.7546771E-02  0.8684367E-01
         11   -1    0    0    0    0  0.00000000000E+00  0.00000000000E+00  0.50000000000E+03  0.50000000000E+03  0.00000000000E+00 0. -1.
        -11   -1    0    0    0    0 -0.00000000000E+00 -0.00000000000E+00 -0.50000000000E+03  0.50000000000E+03  0.00000000000E+00 0.  1.
          5    1    1    2  501    0  0.40188862693E+03  0.18362792890E+03  0.23397483897E+03  0.50000000000E+03  0.47000000000E+01 0. -1.
         -5    1    1    2    0  501 -0.40188862693E+03 -0.18362792890E+03 -0.23397483897E+03  0.50000000000E+03  0.47000000000E+01 0.  1.
</event>
<event>
 4    1  0.4924477E-004  0.1000000E+04  0.7546771E-02  0.8684367E-01
         11   -1    0    0    0    0  0.00000000000E+00  0.00000000000E+00  0.50000000000E+03  0.50000000000E+03  0.00000000000E+00 0. -1.
        -11   -1    0    0    0    0 -0.00000000000E+00 -0.00000000000E+00 -0.50000000000E+03  0.50000000000E+03  0.00000000000E+00 0.  1.
          5    1    1    2  501    0 -0.36026728699E+03 -0.32714665303E+03  0.11471904521E+03  0.50000000000E+03  0.47000000000E+01 0. -1.
         -5    1    1    2    0  501  0.36026728699E+03  0.32714665303E+03 -0.11471904521E+03  0.50000000000E+03  0.47000000000E+01 0.  1.
</event>
<event>
 4    1  0.4924477E-004  0.1000000E+04  0.7546771E-02  0.8684367E-01
         11   -1    0    0    0    0  0.00000000000E+00  0.00000000000E+00  0.50000000000E+03  0.50000000000E+03  0.00000000000E+00 0. -1.
        -11   -1    0    0    0    0 -0.00000000000E+00 -0.00000000000E+00 -0.50000000000E+03  0.50000000000E+03  0.00000000000E+00 0.  1.
          5    1    1    2  501    0 -0.16540921354E+03  0.73687217837E+02  0.46603422192E+03  0.50000000000E+03  0.47000000000E+01 0. -1.
         -5    1    1    2    0  501  0.16540921354E+03 -0.73687217837E+02 -0.46603422192E+03  0.50000000000E+03  0.47000000000E+01 0.  1.
</event>
<event>
 4    1  0.4924477E-004  0.1000000E+04  0.7546771E-02  0.8684367E-01
         11   -1    0    0    0    0  0.00000000000E+00  0.00000000000E+00  0.50000000000E+03  0.50000000000E+03  0.00000000000E+00 0. -1.
        -11   -1    0    0    0    0 -0.00000000000E+00 -0.00000000000E+00 -0.50000000000E+03  0.50000000000E+03  0.00000000000E+00 0.  1.
          5    1    1    2  501    0  0.32595965867E+02 -0.34544060526E+03  0.35998083455E+03  0.50000000000E+03  0.47000000000E+01 0. -1.
         -5    1    1    2    0  501 -0.32595965867E+02  0.34544060526E+03 -0.35998083455E+03  0.50000000000E+03  0.47000000000E+01 0.  1.
</event>
<event>
 4    1  0.4924477E-004  0.1000000E+04  0.7546771E-02  0.8684367E-01
         11   -1    0    0    0    0  0.00000000000E+00  0.00000000000E+00  0.50000000000E+03  0.50000000000E+03  0.00000000000E+00 0. -1.
        -11   -1    0    0    0    0 -0.00000000000E+00 -0.00000000000E+00 -0.50000000000E+03  0.50000000000E+03  0.00000000000E+00 0.  1.
          5    1    1    2  501    0  0.18451744487E+03 -0.39597034722E+03  0.24318451156E+03  0.50000000000E+03  0.47000000000E+01 0. -1.
         -5    1    1    2    0  501 -0.18451744487E+03  0.39597034722E+03 -0.24318451156E+03  0.50000000000E+03  0.47000000000E+01 0.  1.
</event>
<event>
 4    1  0.4924477E-004  0.1000000E+04  0.7546771E-02  0.8684367E-01
         11   -1    0    0    0    0  0.00000000000E+00  0.00000000000E+00  0.50000000000E+03  0.50000000000E+03  0.00000000000E+00 0. -1.
        -11   -1    0    0    0    0 -0.00000000000E+00 -0.00000000000E+00 -0.50000000000E+03  0.50000000000E+03  0.00000000000E+00 0.  1.
          5    1    1    2  501    0 -0.16723644454E+03 -0.15311976067E+03  0.44560545386E+03  0.50000000000E+03  0.47000000000E+01 0. -1.
         -5    1    1    2    0  501  0.16723644454E+03  0.15311976067E+03 -0.44560545386E+03  0.50000000000E+03  0.47000000000E+01 0.  1.
</event>
<event>
 4    1  0.4924477E-004  0.1000000E+04  0.7546771E-02  0.8684367E-01
         11   -1    0    0    0    0  0.00000000000E+00  0.00000000000E+00  0.50000000000E+03  0.50000000000E+03  0.00000000000E+00 0. -1.
        -11   -1    0    0    0    0 -0.00000000000E+00 -0.00000000000E+00 -0.50000000000E+03  0.50000000000E+03  0.00000000000E+00 0.  1.
          5    1    1    2  501    0 -0.44193303616E+03  0.18780944040E+03  0.13928645177E+03  0.50000000000E+03  0.47000000000E+01 0. -1.
         -5    1    1    2    0  501  0.44193303616E+03 -0.18780944040E+03 -0.13928645177E+03  0.50000000000E+03  0.47000000000E+01 0.  1.
</event>
<event>
 4    1  0.4924477E-004  0.1000000E+04  0.7546771E-02  0.8684367E-01
         11   -1    0    0    0    0  0.00000000000E+00  0.00000000000E+00  0.50000000000E+03  0.50000000000E+03  0.00000000000E+00 0. -1.
        -11   -1    0    0    0    0 -0.00000000000E+00 -0.00000000000E+00 -0.50000000000E+03  0.50000000000E+03  0.00000000000E+00 0.  1.
          5    1    1    2  501    0 -0.27137886244E+03 -0.12626740251E+03  0.40048466398E+03  0.50000000000E+03  0.47000000000E+01 0. -1.
         -5    1    1    2    0  501  0.27137886244E+03  0.12626740251E+03 -0.40048466398E+03  0.50000000000E+03  0.47000000000E+01 0.  1.
</event>
<event>
 4    1  0.4924477E-004  0.1000000E+04  0.7546771E-02  0.8684367E-01
         11   -1    0    0    0    0  0.00000000000E+00  0.00000000000E+00  0.50000000000E+03  0.50000000000E+03  0.00000000000E+00 0. -1.
        -11   -1    0    0    0    0 -0.00000000000E+00 -0.00000000000E+00 -0.50000000000E+03  0.50000000000E+03  0.00000000000E+00 0.  1.
          5    1    1    2  501    0 -0.28569690038E+03 -0.24469235339E+03  0.32936430181E+03  0.50000000000E+03  0.47000000000E+01 0. -1.
         -5    1    1    2    0  501  0.28569690038E+03  0.24469235339E+03 -0.32936430181E+03  0.50000000000E+03  0.47000000000E+01 0.  1.
</event>
<event>
 4    1  0.4924477E-004  0.1000000E+04  0.7546771E-02  0.8684367E-01
         11   -1    0    0    0    0  0.00000000000E+00  0.00000000000E+00  0.50000000000E+03  0.50000000000E+03  0.00000000000E+00 0. -1.
        -11   -1    0    0    0    0 -0.00000000000E+00 -0.00000000000E+00 -0.50000000000E+03  0.50000000000E+03  0.00000000000E+00 0.  1.
          5    1    1    2  501    0  0.28040092055E+03  0.35140472648E+03  0.21878745842E+03  0.50000000000E+03  0.47000000000E+01 0. -1.
         -5    1    1    2    0  501 -0.28040092055E+03 -0.35140472648E+03 -0.21878745842E+03  0.50000000000E+03  0.47000000000E+01 0.  1.
</event>
<event>
 4    1  0.4924477E-004  0.1000000E+04  0.7546771E-02  0.8684367E-01
         11   -1    0    0    0    0  0.00000000000E+00  0.00000000000E+00  0.50000000000E+03  0.50000000000E+03  0.00000000000E+00 0. -1.
        -11   -1    0    0    0    0 -0.00000000000E+00 -0.00000000000E+00 -0.50000000000E+03  0.50000000000E+03  0.00000000000E+00 0.  1.
          5    1    1    2  501    0  0.28569366466E+03 -0.19942763869E+03  0.35858842271E+03  0.50000000000E+03  0.47000000000E+01 0. -1.
         -5    1    1    2    0  501 -0.28569366466E+03  0.19942763869E+03 -0.35858842271E+03  0.50000000000E+03  0.47000000000E+01 0.  1.
</event>
<event>
 4    1  0.4924477E-004  0.1000000E+04  0.7546771E-02  0.8684367E-01
         11   -1    0    0    0    0  0.00000000000E+00  0.00000000000E+00  0.50000000000E+03  0.50000000000E+03  0.00000000000E+00 0. -1.
        -11   -1    0    0    0    0 -0.00000000000E+00 -0.00000000000E+00 -0.50000000000E+03  0.50000000000E+03  0.00000000000E+00 0.  1.
          5    1    1    2  501    0 -0.98134575513E+02  0.20832406359E+03  0.44378891336E+03  0.50000000000E+03  0.47000000000E+01 0. -1.
         -5    1    1    2    0  501  0.98134575513E+02 -0.20832406359E+03 -0.44378891336E+03  0.50000000000E+03  0.47000000000E+01 0.  1.
</event>
<event>
 4    1  0.4924477E-004  0.1000000E+04  0.7546771E-02  0.8684367E-01
         11   -1    0    0    0    0  0.00000000000E+00  0.00000000000E+00  0.50000000000E+03  0.50000000000E+03  0.00000000000E+00 0. -1.
        -11   -1    0    0    0    0 -0.00000000000E+00 -0.00000000000E+00 -0.50000000000E+03  0.50000000000E+03  0.00000000000E+00 0.  1.
          5    1    1    2  501    0  0.16345358819E+03 -0.18035406472E+03  0.43673017511E+03  0.50000000000E+03  0.47000000000E+01 0. -1.
         -5    1    1    2    0  501 -0.16345358819E+03  0.18035406472E+03 -0.43673017511E+03  0.50000000000E+03  0.47000000000E+01 0.  1.
</event>
<event>
 4    1  0.4924477E-004  0.1000000E+04  0.7546771E-02  0.8684367E-01
         11   -1    0    0    0    0  0.00000000000E+00  0.00000000000E+00  0.50000000000E+03  0.50000000000E+03  0.00000000000E+00 0. -1.
        -11   -1    0    0    0    0 -0.00000000000E+00 -0.00000000000E+00 -0.50000000000E+03  0.50000000000E+03  0.00000000000E+00 0.  1.
          5    1    1    2  501    0 -0.47056740188E+03  0.14827778328E+03 -0.80981042695E+02  0.50000000000E+03  0.47000000000E+01 0. -1.
         -5    1    1    2    0  501  0.47056740188E+03 -0.14827778328E+03  0.80981042695E+02  0.50000000000E+03  0.47000000000E+01 0.  1.
</event>
<event>
 4    1  0.4924477E-004  0.1000000E+04  0.7546771E-02  0.8684367E-01
         11   -1    0    0    0    0  0.00000000000E+00  0.00000000000E+00  0.50000000000E+03  0.50000000000E+03  0.00000000000E+00 0. -1.
        -11   -1    0    0    0    0 -0.00000000000E+00 -0.00000000000E+00 -0.50000000000E+03  0.50000000000E+03  0.00000000000E+00 0.  1.
          5    1    1    2  501    0  0.18905516892E+03  0.15030610872E+03  0.43777177477E+03  0.50000000000E+03  0.47000000000E+01 0. -1.
         -5    1    1    2    0  501 -0.18905516892E+03 -0.15030610872E+03 -0.43777177477E+03  0.50000000000E+03  0.47000000000E+01 0.  1.
</event>
<event>
 4    1  0.4924477E-004  0.1000000E+04  0.7546771E-02  0.8684367E-01
         11   -1    0    0    0    0  0.00000000000E+00  0.00000000000E+00  0.50000000000E+03  0.50000000000E+03  0.00000000000E+00 0. -1.
        -11   -1    0    0    0    0 -0.00000000000E+00 -0.00000000000E+00 -0.50000000000E+03  0.50000000000E+03  0.00000000000E+00 0.  1.
          5    1    1    2  501    0  0.38640460420E+03  0.31723949831E+03 -0.53378428632E+01  0.50000000000E+03  0.47000000000E+01 0. -1.
         -5    1    1    2    0  501 -0.38640460420E+03 -0.31723949831E+03  0.53378428632E+01  0.50000000000E+03  0.47000000000E+01 0.  1.
</event>
<event>
 4    1  0.4924477E-004  0.1000000E+04  0.7546771E-02  0.8684367E-01
         11   -1    0    0    0    0  0.00000000000E+00  0.00000000000E+00  0.50000000000E+03  0.50000000000E+03  0.00000000000E+00 0.  1.
        -11   -1    0    0    0    0 -0.00000000000E+00 -0.00000000000E+00 -0.50000000000E+03  0.50000000000E+03  0.00000000000E+00 0. -1.
          5    1    1    2  501    0 -0.46562909179E+03  0.73070322524E+02 -0.16681782531E+03  0.50000000000E+03  0.47000000000E+01 0.  1.
         -5    1    1    2    0  501  0.46562909179E+03 -0.73070322524E+02  0.16681782531E+03  0.50000000000E+03  0.47000000000E+01 0. -1.
</event>
<event>
 4    1  0.4924477E-004  0.1000000E+04  0.7546771E-02  0.8684367E-01
         11   -1    0    0    0    0  0.00000000000E+00  0.00000000000E+00  0.50000000000E+03  0.50000000000E+03  0.00000000000E+00 0. -1.
        -11   -1    0    0    0    0 -0.00000000000E+00 -0.00000000000E+00 -0.50000000000E+03  0.50000000000E+03  0.00000000000E+00 0.  1.
          5    1    1    2  501    0  0.49166926664E+02  0.49721390384E+03 -0.18408072922E+02  0.50000000000E+03  0.47000000000E+01 0. -1.
         -5    1    1    2    0  501 -0.49166926664E+02 -0.49721390384E+03  0.18408072922E+02  0.50000000000E+03  0.47000000000E+01 0.  1.
</event>
<event>
 4    1  0.4924477E-004  0.1000000E+04  0.7546771E-02  0.8684367E-01
         11   -1    0    0    0    0  0.00000000000E+00  0.00000000000E+00  0.50000000000E+03  0.50000000000E+03  0.00000000000E+00 0. -1.
        -11   -1    0    0    0    0 -0.00000000000E+00 -0.00000000000E+00 -0.50000000000E+03  0.50000000000E+03  0.00000000000E+00 0.  1.
          5    1    1    2  501    0  0.38641594429E+03 -0.15158968552E+03  0.27871346441E+03  0.50000000000E+03  0.47000000000E+01 0. -1.
         -5    1    1    2    0  501 -0.38641594429E+03  0.15158968552E+03 -0.27871346441E+03  0.50000000000E+03  0.47000000000E+01 0.  1.
</event>
<event>
 4    1  0.4924477E-004  0.1000000E+04  0.7546771E-02  0.8684367E-01
         11   -1    0    0    0    0  0.00000000000E+00  0.00000000000E+00  0.50000000000E+03  0.50000000000E+03  0.00000000000E+00 0. -1.
        -11   -1    0    0    0    0 -0.00000000000E+00 -0.00000000000E+00 -0.50000000000E+03  0.50000000000E+03  0.00000000000E+00 0.  1.
          5    1    1    2  501    0  0.13451821129E+03 -0.11667585389E+03  0.46719322122E+03  0.50000000000E+03  0.47000000000E+01 0. -1.
         -5    1    1    2    0  501 -0.13451821129E+03  0.11667585389E+03 -0.46719322122E+03  0.50000000000E+03  0.47000000000E+01 0.  1.
</event>
<event>
 4    1  0.4924477E-004  0.1000000E+04  0.7546771E-02  0.8684367E-01
         11   -1    0    0    0    0  0.00000000000E+00  0.00000000000E+00  0.50000000000E+03  0.50000000000E+03  0.00000000000E+00 0. -1.
        -11   -1    0    0    0    0 -0.00000000000E+00 -0.00000000000E+00 -0.50000000000E+03  0.50000000000E+03  0.00000000000E+00 0.  1.
          5    1    1    2  501    0 -0.30654666107E+03  0.31115106715E+03  0.24329420051E+03  0.50000000000E+03  0.47000000000E+01 0. -1.
         -5    1    1    2    0  501  0.30654666107E+03 -0.31115106715E+03 -0.24329420051E+03  0.50000000000E+03  0.47000000000E+01 0.  1.
</event>
<event>
 4    1  0.4924477E-004  0.1000000E+04  0.7546771E-02  0.8684367E-01
         11   -1    0    0    0    0  0.00000000000E+00  0.00000000000E+00  0.50000000000E+03  0.50000000000E+03  0.00000000000E+00 0. -1.
        -11   -1    0    0    0    0 -0.00000000000E+00 -0.00000000000E+00 -0.50000000000E+03  0.50000000000E+03  0.00000000000E+00 0.  1.
          5    1    1    2  501    0 -0.46747555827E+03  0.16788234202E+03  0.57096686896E+02  0.50000000000E+03  0.47000000000E+01 0. -1.
         -5    1    1    2    0  501  0.46747555827E+03 -0.16788234202E+03 -0.57096686896E+02  0.50000000000E+03  0.47000000000E+01 0.  1.
</event>
<event>
 4    1  0.4924477E-004  0.1000000E+04  0.7546771E-02  0.8684367E-01
         11   -1    0    0    0    0  0.00000000000E+00  0.00000000000E+00  0.50000000000E+03  0.50000000000E+03  0.00000000000E+00 0. -1.
        -11   -1    0    0    0    0 -0.00000000000E+00 -0.00000000000E+00 -0.50000000000E+03  0.50000000000E+03  0.00000000000E+00 0.  1.
          5    1    1    2  501    0 -0.42183946457E+03 -0.12365665913E+03  0.23819825102E+03  0.50000000000E+03  0.47000000000E+01 0. -1.
         -5    1    1    2    0  501  0.42183946457E+03  0.12365665913E+03 -0.23819825102E+03  0.50000000000E+03  0.47000000000E+01 0.  1.
</event>
<event>
 4    1  0.4924477E-004  0.1000000E+04  0.7546771E-02  0.8684367E-01
         11   -1    0    0    0    0  0.00000000000E+00  0.00000000000E+00  0.50000000000E+03  0.50000000000E+03  0.00000000000E+00 0. -1.
        -11   -1    0    0    0    0 -0.00000000000E+00 -0.00000000000E+00 -0.50000000000E+03  0.50000000000E+03  0.00000000000E+00 0.  1.
          5    1    1    2  501    0 -0.26682414346E+02 -0.35014488889E+03  0.35589958632E+03  0.50000000000E+03  0.47000000000E+01 0. -1.
         -5    1    1    2    0  501  0.26682414346E+02  0.35014488889E+03 -0.35589958632E+03  0.50000000000E+03  0.47000000000E+01 0.  1.
</event>
<event>
 4    1  0.4924477E-004  0.1000000E+04  0.7546771E-02  0.8684367E-01
         11   -1    0    0    0    0  0.00000000000E+00  0.00000000000E+00  0.50000000000E+03  0.50000000000E+03  0.00000000000E+00 0. -1.
        -11   -1    0    0    0    0 -0.00000000000E+00 -0.00000000000E+00 -0.50000000000E+03  0.50000000000E+03  0.00000000000E+00 0.  1.
          5    1    1    2  501    0  0.49148439841E+03  0.84777554125E+02 -0.35124954548E+02  0.50000000000E+03  0.47000000000E+01 0. -1.
         -5    1    1    2    0  501 -0.49148439841E+03 -0.84777554125E+02  0.35124954548E+02  0.50000000000E+03  0.47000000000E+01 0.  1.
</event>
<event>
 4    1  0.4924477E-004  0.1000000E+04  0.7546771E-02  0.8684367E-01
         11   -1    0    0    0    0  0.00000000000E+00  0.00000000000E+00  0.50000000000E+03  0.50000000000E+03  0.00000000000E+00 0. -1.
        -11   -1    0    0    0    0 -0.00000000000E+00 -0.00000000000E+00 -0.50000000000E+03  0.50000000000E+03  0.00000000000E+00 0.  1.
          5    1    1    2  501    0  0.10899670887E+03  0.11023427181E+03  0.47533780912E+03  0.50000000000E+03  0.47000000000E+01 0. -1.
         -5    1    1    2    0  501 -0.10899670887E+03 -0.11023427181E+03 -0.47533780912E+03  0.50000000000E+03  0.47000000000E+01 0.  1.
</event>
<event>
 4    1  0.4924477E-004  0.1000000E+04  0.7546771E-02  0.8684367E-01
         11   -1    0    0    0    0  0.00000000000E+00  0.00000000000E+00  0.50000000000E+03  0.50000000000E+03  0.00000000000E+00 0. -1.
        -11   -1    0    0    0    0 -0.00000000000E+00 -0.00000000000E+00 -0.50000000000E+03  0.50000000000E+03  0.00000000000E+00 0.  1.
          5    1    1    2  501    0 -0.89584899769E+02  0.57157469256E+02  0.48855447950E+03  0.50000000000E+03  0.47000000000E+01 0. -1.
         -5    1    1    2    0  501  0.89584899769E+02 -0.57157469256E+02 -0.48855447950E+03  0.50000000000E+03  0.47000000000E+01 0.  1.
</event>
<event>
 4    1  0.4924477E-004  0.1000000E+04  0.7546771E-02  0.8684367E-01
         11   -1    0    0    0    0  0.00000000000E+00  0.00000000000E+00  0.50000000000E+03  0.50000000000E+03  0.00000000000E+00 0.  1.
        -11   -1    0    0    0    0 -0.00000000000E+00 -0.00000000000E+00 -0.50000000000E+03  0.50000000000E+03  0.00000000000E+00 0. -1.
          5    1    1    2  501    0  0.64662708662E+02 -0.71588378752E+02  0.49058306956E+03  0.50000000000E+03  0.47000000000E+01 0.  1.
         -5    1    1    2    0  501 -0.64662708662E+02  0.71588378752E+02 -0.49058306956E+03  0.50000000000E+03  0.47000000000E+01 0. -1.
</event>
<event>
 4    1  0.4924477E-004  0.1000000E+04  0.7546771E-02  0.8684367E-01
         11   -1    0    0    0    0  0.00000000000E+00  0.00000000000E+00  0.50000000000E+03  0.50000000000E+03  0.00000000000E+00 0. -1.
        -11   -1    0    0    0    0 -0.00000000000E+00 -0.00000000000E+00 -0.50000000000E+03  0.50000000000E+03  0.00000000000E+00 0.  1.
          5    1    1    2  501    0  0.14535181477E+03 -0.30311210878E+03  0.37009972907E+03  0.50000000000E+03  0.47000000000E+01 0. -1.
         -5    1    1    2    0  501 -0.14535181477E+03  0.30311210878E+03 -0.37009972907E+03  0.50000000000E+03  0.47000000000E+01 0.  1.
</event>
<event>
 4    1  0.4924477E-004  0.1000000E+04  0.7546771E-02  0.8684367E-01
         11   -1    0    0    0    0  0.00000000000E+00  0.00000000000E+00  0.50000000000E+03  0.50000000000E+03  0.00000000000E+00 0. -1.
        -11   -1    0    0    0    0 -0.00000000000E+00 -0.00000000000E+00 -0.50000000000E+03  0.50000000000E+03  0.00000000000E+00 0.  1.
          5    1    1    2  501    0 -0.67245197827E+02 -0.31268557011E+03  0.38429640594E+03  0.50000000000E+03  0.47000000000E+01 0. -1.
         -5    1    1    2    0  501  0.67245197827E+02  0.31268557011E+03 -0.38429640594E+03  0.50000000000E+03  0.47000000000E+01 0.  1.
</event>
<event>
 4    1  0.4924477E-004  0.1000000E+04  0.7546771E-02  0.8684367E-01
         11   -1    0    0    0    0  0.00000000000E+00  0.00000000000E+00  0.50000000000E+03  0.50000000000E+03  0.00000000000E+00 0. -1.
        -11   -1    0    0    0    0 -0.00000000000E+00 -0.00000000000E+00 -0.50000000000E+03  0.50000000000E+03  0.00000000000E+00 0.  1.
          5    1    1    2  501    0 -0.42616392530E+03  0.97955620940E+02  0.24241888354E+03  0.50000000000E+03  0.47000000000E+01 0. -1.
         -5    1    1    2    0  501  0.42616392530E+03 -0.97955620940E+02 -0.24241888354E+03  0.50000000000E+03  0.47000000000E+01 0.  1.
</event>
<event>
 4    1  0.4924477E-004  0.1000000E+04  0.7546771E-02  0.8684367E-01
         11   -1    0    0    0    0  0.00000000000E+00  0.00000000000E+00  0.50000000000E+03  0.50000000000E+03  0.00000000000E+00 0. -1.
        -11   -1    0    0    0    0 -0.00000000000E+00 -0.00000000000E+00 -0.50000000000E+03  0.50000000000E+03  0.00000000000E+00 0.  1.
          5    1    1    2  501    0  0.76960574001E+01 -0.38135750174E+03  0.32324160711E+03  0.50000000000E+03  0.47000000000E+01 0. -1.
         -5    1    1    2    0  501 -0.76960574001E+01  0.38135750174E+03 -0.32324160711E+03  0.50000000000E+03  0.47000000000E+01 0.  1.
</event>
<event>
 4    1  0.4924477E-004  0.1000000E+04  0.7546771E-02  0.8684367E-01
         11   -1    0    0    0    0  0.00000000000E+00  0.00000000000E+00  0.50000000000E+03  0.50000000000E+03  0.00000000000E+00 0. -1.
        -11   -1    0    0    0    0 -0.00000000000E+00 -0.00000000000E+00 -0.50000000000E+03  0.50000000000E+03  0.00000000000E+00 0.  1.
          5    1    1    2  501    0 -0.30881598303E+03 -0.30807069911E+03  0.24434206141E+03  0.50000000000E+03  0.47000000000E+01 0. -1.
         -5    1    1    2    0  501  0.30881598303E+03  0.30807069911E+03 -0.24434206141E+03  0.50000000000E+03  0.47000000000E+01 0.  1.
</event>
<event>
 4    1  0.4924477E-004  0.1000000E+04  0.7546771E-02  0.8684367E-01
         11   -1    0    0    0    0  0.00000000000E+00  0.00000000000E+00  0.50000000000E+03  0.50000000000E+03  0.00000000000E+00 0.  1.
        -11   -1    0    0    0    0 -0.00000000000E+00 -0.00000000000E+00 -0.50000000000E+03  0.50000000000E+03  0.00000000000E+00 0. -1.
          5    1    1    2  501    0 -0.23775790362E+03  0.39746753884E+03 -0.18833121046E+03  0.50000000000E+03  0.47000000000E+01 0. -1.
         -5    1    1    2    0  501  0.23775790362E+03 -0.39746753884E+03  0.18833121046E+03  0.50000000000E+03  0.47000000000E+01 0.  1.
</event>
<event>
 4    1  0.4924477E-004  0.1000000E+04  0.7546771E-02  0.8684367E-01
         11   -1    0    0    0    0  0.00000000000E+00  0.00000000000E+00  0.50000000000E+03  0.50000000000E+03  0.00000000000E+00 0. -1.
        -11   -1    0    0    0    0 -0.00000000000E+00 -0.00000000000E+00 -0.50000000000E+03  0.50000000000E+03  0.00000000000E+00 0.  1.
          5    1    1    2  501    0  0.30053520662E+03 -0.29669263537E+03  0.26763777704E+03  0.50000000000E+03  0.47000000000E+01 0. -1.
         -5    1    1    2    0  501 -0.30053520662E+03  0.29669263537E+03 -0.26763777704E+03  0.50000000000E+03  0.47000000000E+01 0.  1.
</event>
<event>
 4    1  0.4924477E-004  0.1000000E+04  0.7546771E-02  0.8684367E-01
         11   -1    0    0    0    0  0.00000000000E+00  0.00000000000E+00  0.50000000000E+03  0.50000000000E+03  0.00000000000E+00 0.  1.
        -11   -1    0    0    0    0 -0.00000000000E+00 -0.00000000000E+00 -0.50000000000E+03  0.50000000000E+03  0.00000000000E+00 0. -1.
          5    1    1    2  501    0  0.11039552335E+03 -0.22435739420E+03  0.43296015763E+03  0.50000000000E+03  0.47000000000E+01 0.  1.
         -5    1    1    2    0  501 -0.11039552335E+03  0.22435739420E+03 -0.43296015763E+03  0.50000000000E+03  0.47000000000E+01 0. -1.
</event>
<event>
 4    1  0.4924477E-004  0.1000000E+04  0.7546771E-02  0.8684367E-01
         11   -1    0    0    0    0  0.00000000000E+00  0.00000000000E+00  0.50000000000E+03  0.50000000000E+03  0.00000000000E+00 0. -1.
        -11   -1    0    0    0    0 -0.00000000000E+00 -0.00000000000E+00 -0.50000000000E+03  0.50000000000E+03  0.00000000000E+00 0.  1.
          5    1    1    2  501    0  0.32046047178E+03 -0.36571487276E+03  0.11634271732E+03  0.50000000000E+03  0.47000000000E+01 0. -1.
         -5    1    1    2    0  501 -0.32046047178E+03  0.36571487276E+03 -0.11634271732E+03  0.50000000000E+03  0.47000000000E+01 0.  1.
</event>
<event>
 4    1  0.4924477E-004  0.1000000E+04  0.7546771E-02  0.8684367E-01
         11   -1    0    0    0    0  0.00000000000E+00  0.00000000000E+00  0.50000000000E+03  0.50000000000E+03  0.00000000000E+00 0.  1.
        -11   -1    0    0    0    0 -0.00000000000E+00 -0.00000000000E+00 -0.50000000000E+03  0.50000000000E+03  0.00000000000E+00 0. -1.
          5    1    1    2  501    0 -0.77405433475E+02  0.35044737892E+03  0.34809904262E+03  0.50000000000E+03  0.47000000000E+01 0.  1.
         -5    1    1    2    0  501  0.77405433475E+02 -0.35044737892E+03 -0.34809904262E+03  0.50000000000E+03  0.47000000000E+01 0. -1.
</event>
<event>
 4    1  0.4924477E-004  0.1000000E+04  0.7546771E-02  0.8684367E-01
         11   -1    0    0    0    0  0.00000000000E+00  0.00000000000E+00  0.50000000000E+03  0.50000000000E+03  0.00000000000E+00 0. -1.
        -11   -1    0    0    0    0 -0.00000000000E+00 -0.00000000000E+00 -0.50000000000E+03  0.50000000000E+03  0.00000000000E+00 0.  1.
          5    1    1    2  501    0  0.37807680962E+03 -0.32539172378E+03  0.34000913527E+02  0.50000000000E+03  0.47000000000E+01 0. -1.
         -5    1    1    2    0  501 -0.37807680962E+03  0.32539172378E+03 -0.34000913527E+02  0.50000000000E+03  0.47000000000E+01 0.  1.
</event>
<event>
 4    1  0.4924477E-004  0.1000000E+04  0.7546771E-02  0.8684367E-01
         11   -1    0    0    0    0  0.00000000000E+00  0.00000000000E+00  0.50000000000E+03  0.50000000000E+03  0.00000000000E+00 0. -1.
        -11   -1    0    0    0    0 -0.00000000000E+00 -0.00000000000E+00 -0.50000000000E+03  0.50000000000E+03  0.00000000000E+00 0.  1.
          5    1    1    2  501    0  0.38687730950E+03 -0.20191369819E+03  0.24399736859E+03  0.50000000000E+03  0.47000000000E+01 0. -1.
         -5    1    1    2    0  501 -0.38687730950E+03  0.20191369819E+03 -0.24399736859E+03  0.50000000000E+03  0.47000000000E+01 0.  1.
</event>
<event>
 4    1  0.4924477E-004  0.1000000E+04  0.7546771E-02  0.8684367E-01
         11   -1    0    0    0    0  0.00000000000E+00  0.00000000000E+00  0.50000000000E+03  0.50000000000E+03  0.00000000000E+00 0. -1.
        -11   -1    0    0    0    0 -0.00000000000E+00 -0.00000000000E+00 -0.50000000000E+03  0.50000000000E+03  0.00000000000E+00 0.  1.
          5    1    1    2  501    0  0.47412643033E+03 -0.14686047508E+03  0.60116877188E+02  0.50000000000E+03  0.47000000000E+01 0. -1.
         -5    1    1    2    0  501 -0.47412643033E+03  0.14686047508E+03 -0.60116877188E+02  0.50000000000E+03  0.47000000000E+01 0.  1.
</event>
<event>
 4    1  0.4924477E-004  0.1000000E+04  0.7546771E-02  0.8684367E-01
         11   -1    0    0    0    0  0.00000000000E+00  0.00000000000E+00  0.50000000000E+03  0.50000000000E+03  0.00000000000E+00 0. -1.
        -11   -1    0    0    0    0 -0.00000000000E+00 -0.00000000000E+00 -0.50000000000E+03  0.50000000000E+03  0.00000000000E+00 0.  1.
          5    1    1    2  501    0 -0.29253131901E+02 -0.43713228621E+03  0.24090979354E+03  0.50000000000E+03  0.47000000000E+01 0. -1.
         -5    1    1    2    0  501  0.29253131901E+02  0.43713228621E+03 -0.24090979354E+03  0.50000000000E+03  0.47000000000E+01 0.  1.
</event>
<event>
 4    1  0.4924477E-004  0.1000000E+04  0.7546771E-02  0.8684367E-01
         11   -1    0    0    0    0  0.00000000000E+00  0.00000000000E+00  0.50000000000E+03  0.50000000000E+03  0.00000000000E+00 0. -1.
        -11   -1    0    0    0    0 -0.00000000000E+00 -0.00000000000E+00 -0.50000000000E+03  0.50000000000E+03  0.00000000000E+00 0.  1.
          5    1    1    2  501    0  0.16218791690E+03  0.47038177003E+03 -0.49132270779E+02  0.50000000000E+03  0.47000000000E+01 0. -1.
         -5    1    1    2    0  501 -0.16218791690E+03 -0.47038177003E+03  0.49132270779E+02  0.50000000000E+03  0.47000000000E+01 0.  1.
</event>
<event>
 4    1  0.4924477E-004  0.1000000E+04  0.7546771E-02  0.8684367E-01
         11   -1    0    0    0    0  0.00000000000E+00  0.00000000000E+00  0.50000000000E+03  0.50000000000E+03  0.00000000000E+00 0.  1.
        -11   -1    0    0    0    0 -0.00000000000E+00 -0.00000000000E+00 -0.50000000000E+03  0.50000000000E+03  0.00000000000E+00 0. -1.
          5    1    1    2  501    0 -0.45576481393E+03  0.43382144774E+02  0.20093365546E+03  0.50000000000E+03  0.47000000000E+01 0.  1.
         -5    1    1    2    0  501  0.45576481393E+03 -0.43382144774E+02 -0.20093365546E+03  0.50000000000E+03  0.47000000000E+01 0. -1.
</event>
<event>
 4    1  0.4924477E-004  0.1000000E+04  0.7546771E-02  0.8684367E-01
         11   -1    0    0    0    0  0.00000000000E+00  0.00000000000E+00  0.50000000000E+03  0.50000000000E+03  0.00000000000E+00 0. -1.
        -11   -1    0    0    0    0 -0.00000000000E+00 -0.00000000000E+00 -0.50000000000E+03  0.50000000000E+03  0.00000000000E+00 0.  1.
          5    1    1    2  501    0  0.43095657785E+03  0.92954600817E+02  0.23582574116E+03  0.50000000000E+03  0.47000000000E+01 0. -1.
         -5    1    1    2    0  501 -0.43095657785E+03 -0.92954600817E+02 -0.23582574116E+03  0.50000000000E+03  0.47000000000E+01 0.  1.
</event>
<event>
 4    1  0.4924477E-004  0.1000000E+04  0.7546771E-02  0.8684367E-01
         11   -1    0    0    0    0  0.00000000000E+00  0.00000000000E+00  0.50000000000E+03  0.50000000000E+03  0.00000000000E+00 0. -1.
        -11   -1    0    0    0    0 -0.00000000000E+00 -0.00000000000E+00 -0.50000000000E+03  0.50000000000E+03  0.00000000000E+00 0.  1.
          5    1    1    2  501    0 -0.37633481130E+03 -0.17019201215E+03  0.28175290381E+03  0.50000000000E+03  0.47000000000E+01 0. -1.
         -5    1    1    2    0  501  0.37633481130E+03  0.17019201215E+03 -0.28175290381E+03  0.50000000000E+03  0.47000000000E+01 0.  1.
</event>
<event>
 4    1  0.4924477E-004  0.1000000E+04  0.7546771E-02  0.8684367E-01
         11   -1    0    0    0    0  0.00000000000E+00  0.00000000000E+00  0.50000000000E+03  0.50000000000E+03  0.00000000000E+00 0.  1.
        -11   -1    0    0    0    0 -0.00000000000E+00 -0.00000000000E+00 -0.50000000000E+03  0.50000000000E+03  0.00000000000E+00 0. -1.
          5    1    1    2  501    0 -0.28986376561E+03 -0.28322489192E+03 -0.29281490396E+03  0.50000000000E+03  0.47000000000E+01 0. -1.
         -5    1    1    2    0  501  0.28986376561E+03  0.28322489192E+03  0.29281490396E+03  0.50000000000E+03  0.47000000000E+01 0.  1.
</event>
<event>
 4    1  0.4924477E-004  0.1000000E+04  0.7546771E-02  0.8684367E-01
         11   -1    0    0    0    0  0.00000000000E+00  0.00000000000E+00  0.50000000000E+03  0.50000000000E+03  0.00000000000E+00 0. -1.
        -11   -1    0    0    0    0 -0.00000000000E+00 -0.00000000000E+00 -0.50000000000E+03  0.50000000000E+03  0.00000000000E+00 0.  1.
          5    1    1    2  501    0 -0.19751231054E+03 -0.16957870525E+03  0.42686046890E+03  0.50000000000E+03  0.47000000000E+01 0. -1.
         -5    1    1    2    0  501  0.19751231054E+03  0.16957870525E+03 -0.42686046890E+03  0.50000000000E+03  0.47000000000E+01 0.  1.
</event>
<event>
 4    1  0.4924477E-004  0.1000000E+04  0.7546771E-02  0.8684367E-01
         11   -1    0    0    0    0  0.00000000000E+00  0.00000000000E+00  0.50000000000E+03  0.50000000000E+03  0.00000000000E+00 0. -1.
        -11   -1    0    0    0    0 -0.00000000000E+00 -0.00000000000E+00 -0.50000000000E+03  0.50000000000E+03  0.00000000000E+00 0.  1.
          5    1    1    2  501    0 -0.49770351897E+03 -0.29532703375E+02  0.37375615554E+02  0.50000000000E+03  0.47000000000E+01 0. -1.
         -5    1    1    2    0  501  0.49770351897E+03  0.29532703375E+02 -0.37375615554E+02  0.50000000000E+03  0.47000000000E+01 0.  1.
</event>
<event>
 4    1  0.4924477E-004  0.1000000E+04  0.7546771E-02  0.8684367E-01
         11   -1    0    0    0    0  0.00000000000E+00  0.00000000000E+00  0.50000000000E+03  0.50000000000E+03  0.00000000000E+00 0.  1.
        -11   -1    0    0    0    0 -0.00000000000E+00 -0.00000000000E+00 -0.50000000000E+03  0.50000000000E+03  0.00000000000E+00 0. -1.
          5    1    1    2  501    0 -0.28774286979E+03 -0.38132815289E+03 -0.14754928227E+03  0.50000000000E+03  0.47000000000E+01 0.  1.
         -5    1    1    2    0  501  0.28774286979E+03  0.38132815289E+03  0.14754928227E+03  0.50000000000E+03  0.47000000000E+01 0. -1.
</event>
<event>
 4    1  0.4924477E-004  0.1000000E+04  0.7546771E-02  0.8684367E-01
         11   -1    0    0    0    0  0.00000000000E+00  0.00000000000E+00  0.50000000000E+03  0.50000000000E+03  0.00000000000E+00 0.  1.
        -11   -1    0    0    0    0 -0.00000000000E+00 -0.00000000000E+00 -0.50000000000E+03  0.50000000000E+03  0.00000000000E+00 0. -1.
          5    1    1    2  501    0  0.29615531453E+03 -0.67672942850E+02  0.39710239546E+03  0.50000000000E+03  0.47000000000E+01 0.  1.
         -5    1    1    2    0  501 -0.29615531453E+03  0.67672942850E+02 -0.39710239546E+03  0.50000000000E+03  0.47000000000E+01 0. -1.
</event>
<event>
 4    1  0.4924477E-004  0.1000000E+04  0.7546771E-02  0.8684367E-01
         11   -1    0    0    0    0  0.00000000000E+00  0.00000000000E+00  0.50000000000E+03  0.50000000000E+03  0.00000000000E+00 0. -1.
        -11   -1    0    0    0    0 -0.00000000000E+00 -0.00000000000E+00 -0.50000000000E+03  0.50000000000E+03  0.00000000000E+00 0.  1.
          5    1    1    2  501    0 -0.24491738795E+03  0.44386209732E+02 -0.43361647508E+03  0.50000000000E+03  0.47000000000E+01 0.  1.
         -5    1    1    2    0  501  0.24491738795E+03 -0.44386209732E+02  0.43361647508E+03  0.50000000000E+03  0.47000000000E+01 0. -1.
</event>
<event>
 4    1  0.4924477E-004  0.1000000E+04  0.7546771E-02  0.8684367E-01
         11   -1    0    0    0    0  0.00000000000E+00  0.00000000000E+00  0.50000000000E+03  0.50000000000E+03  0.00000000000E+00 0. -1.
        -11   -1    0    0    0    0 -0.00000000000E+00 -0.00000000000E+00 -0.50000000000E+03  0.50000000000E+03  0.00000000000E+00 0.  1.
          5    1    1    2  501    0  0.31748781017E+03 -0.31717477502E+02  0.38493298380E+03  0.50000000000E+03  0.47000000000E+01 0. -1.
         -5    1    1    2    0  501 -0.31748781017E+03  0.31717477502E+02 -0.38493298380E+03  0.50000000000E+03  0.47000000000E+01 0.  1.
</event>
<event>
 4    1  0.4924477E-004  0.1000000E+04  0.7546771E-02  0.8684367E-01
         11   -1    0    0    0    0  0.00000000000E+00  0.00000000000E+00  0.50000000000E+03  0.50000000000E+03  0.00000000000E+00 0.  1.
        -11   -1    0    0    0    0 -0.00000000000E+00 -0.00000000000E+00 -0.50000000000E+03  0.50000000000E+03  0.00000000000E+00 0. -1.
          5    1    1    2  501    0  0.16322616809E+03  0.46650846636E+03  0.75531310518E+02  0.50000000000E+03  0.47000000000E+01 0. -1.
         -5    1    1    2    0  501 -0.16322616809E+03 -0.46650846636E+03 -0.75531310518E+02  0.50000000000E+03  0.47000000000E+01 0.  1.
</event>
<event>
 4    1  0.4924477E-004  0.1000000E+04  0.7546771E-02  0.8684367E-01
         11   -1    0    0    0    0  0.00000000000E+00  0.00000000000E+00  0.50000000000E+03  0.50000000000E+03  0.00000000000E+00 0.  1.
        -11   -1    0    0    0    0 -0.00000000000E+00 -0.00000000000E+00 -0.50000000000E+03  0.50000000000E+03  0.00000000000E+00 0. -1.
          5    1    1    2  501    0 -0.93624799457E+02 -0.45776555966E+03 -0.17794099955E+03  0.50000000000E+03  0.47000000000E+01 0.  1.
         -5    1    1    2    0  501  0.93624799457E+02  0.45776555966E+03  0.17794099955E+03  0.50000000000E+03  0.47000000000E+01 0. -1.
</event>
<event>
 4    1  0.4924477E-004  0.1000000E+04  0.7546771E-02  0.8684367E-01
         11   -1    0    0    0    0  0.00000000000E+00  0.00000000000E+00  0.50000000000E+03  0.50000000000E+03  0.00000000000E+00 0. -1.
        -11   -1    0    0    0    0 -0.00000000000E+00 -0.00000000000E+00 -0.50000000000E+03  0.50000000000E+03  0.00000000000E+00 0.  1.
          5    1    1    2  501    0  0.29180582511E+03 -0.31716773786E+03  0.25344012408E+03  0.50000000000E+03  0.47000000000E+01 0. -1.
         -5    1    1    2    0  501 -0.29180582511E+03  0.31716773786E+03 -0.25344012408E+03  0.50000000000E+03  0.47000000000E+01 0.  1.
</event>
<event>
 4    1  0.4924477E-004  0.1000000E+04  0.7546771E-02  0.8684367E-01
         11   -1    0    0    0    0  0.00000000000E+00  0.00000000000E+00  0.50000000000E+03  0.50000000000E+03  0.00000000000E+00 0. -1.
        -11   -1    0    0    0    0 -0.00000000000E+00 -0.00000000000E+00 -0.50000000000E+03  0.50000000000E+03  0.00000000000E+00 0.  1.
          5    1    1    2  501    0  0.29060109099E+03  0.37788670166E+03  0.15076656334E+03  0.50000000000E+03  0.47000000000E+01 0. -1.
         -5    1    1    2    0  501 -0.29060109099E+03 -0.37788670166E+03 -0.15076656334E+03  0.50000000000E+03  0.47000000000E+01 0.  1.
</event>
<event>
 4    1  0.4924477E-004  0.1000000E+04  0.7546771E-02  0.8684367E-01
         11   -1    0    0    0    0  0.00000000000E+00  0.00000000000E+00  0.50000000000E+03  0.50000000000E+03  0.00000000000E+00 0. -1.
        -11   -1    0    0    0    0 -0.00000000000E+00 -0.00000000000E+00 -0.50000000000E+03  0.50000000000E+03  0.00000000000E+00 0.  1.
          5    1    1    2  501    0 -0.13847359737E+03  0.28388652532E+02  0.47958008428E+03  0.50000000000E+03  0.47000000000E+01 0. -1.
         -5    1    1    2    0  501  0.13847359737E+03 -0.28388652532E+02 -0.47958008428E+03  0.50000000000E+03  0.47000000000E+01 0.  1.
</event>
<event>
 4    1  0.4924477E-004  0.1000000E+04  0.7546771E-02  0.8684367E-01
         11   -1    0    0    0    0  0.00000000000E+00  0.00000000000E+00  0.50000000000E+03  0.50000000000E+03  0.00000000000E+00 0. -1.
        -11   -1    0    0    0    0 -0.00000000000E+00 -0.00000000000E+00 -0.50000000000E+03  0.50000000000E+03  0.00000000000E+00 0.  1.
          5    1    1    2  501    0  0.18169966392E+03 -0.37828241734E+03  0.27178218275E+03  0.50000000000E+03  0.47000000000E+01 0. -1.
         -5    1    1    2    0  501 -0.18169966392E+03  0.37828241734E+03 -0.27178218275E+03  0.50000000000E+03  0.47000000000E+01 0.  1.
</event>
<event>
 4    1  0.4924477E-004  0.1000000E+04  0.7546771E-02  0.8684367E-01
         11   -1    0    0    0    0  0.00000000000E+00  0.00000000000E+00  0.50000000000E+03  0.50000000000E+03  0.00000000000E+00 0. -1.
        -11   -1    0    0    0    0 -0.00000000000E+00 -0.00000000000E+00 -0.50000000000E+03  0.50000000000E+03  0.00000000000E+00 0.  1.
          5    1    1    2  501    0 -0.33134081713E+03 -0.36392061970E+03 -0.88050868588E+02  0.50000000000E+03  0.47000000000E+01 0. -1.
         -5    1    1    2    0  501  0.33134081713E+03  0.36392061970E+03  0.88050868588E+02  0.50000000000E+03  0.47000000000E+01 0.  1.
</event>
<event>
 4    1  0.4924477E-004  0.1000000E+04  0.7546771E-02  0.8684367E-01
         11   -1    0    0    0    0  0.00000000000E+00  0.00000000000E+00  0.50000000000E+03  0.50000000000E+03  0.00000000000E+00 0. -1.
        -11   -1    0    0    0    0 -0.00000000000E+00 -0.00000000000E+00 -0.50000000000E+03  0.50000000000E+03  0.00000000000E+00 0.  1.
          5    1    1    2  501    0  0.18580752734E+03 -0.26355982697E+03  0.38208597252E+03  0.50000000000E+03  0.47000000000E+01 0. -1.
         -5    1    1    2    0  501 -0.18580752734E+03  0.26355982697E+03 -0.38208597252E+03  0.50000000000E+03  0.47000000000E+01 0.  1.
</event>
<event>
 4    1  0.4924477E-004  0.1000000E+04  0.7546771E-02  0.8684367E-01
         11   -1    0    0    0    0  0.00000000000E+00  0.00000000000E+00  0.50000000000E+03  0.50000000000E+03  0.00000000000E+00 0.  1.
        -11   -1    0    0    0    0 -0.00000000000E+00 -0.00000000000E+00 -0.50000000000E+03  0.50000000000E+03  0.00000000000E+00 0. -1.
          5    1    1    2  501    0 -0.17685784057E+03 -0.42698950421E+03  0.19073326276E+03  0.50000000000E+03  0.47000000000E+01 0.  1.
         -5    1    1    2    0  501  0.17685784057E+03  0.42698950421E+03 -0.19073326276E+03  0.50000000000E+03  0.47000000000E+01 0. -1.
</event>
<event>
 4    1  0.4924477E-004  0.1000000E+04  0.7546771E-02  0.8684367E-01
         11   -1    0    0    0    0  0.00000000000E+00  0.00000000000E+00  0.50000000000E+03  0.50000000000E+03  0.00000000000E+00 0. -1.
        -11   -1    0    0    0    0 -0.00000000000E+00 -0.00000000000E+00 -0.50000000000E+03  0.50000000000E+03  0.00000000000E+00 0.  1.
          5    1    1    2  501    0  0.39580726420E+02  0.17041208540E+03  0.46837057684E+03  0.50000000000E+03  0.47000000000E+01 0. -1.
         -5    1    1    2    0  501 -0.39580726420E+02 -0.17041208540E+03 -0.46837057684E+03  0.50000000000E+03  0.47000000000E+01 0.  1.
</event>
<event>
 4    1  0.4924477E-004  0.1000000E+04  0.7546771E-02  0.8684367E-01
         11   -1    0    0    0    0  0.00000000000E+00  0.00000000000E+00  0.50000000000E+03  0.50000000000E+03  0.00000000000E+00 0.  1.
        -11   -1    0    0    0    0 -0.00000000000E+00 -0.00000000000E+00 -0.50000000000E+03  0.50000000000E+03  0.00000000000E+00 0. -1.
          5    1    1    2  501    0 -0.30967198653E+03  0.26766976029E+02  0.39161805341E+03  0.50000000000E+03  0.47000000000E+01 0.  1.
         -5    1    1    2    0  501  0.30967198653E+03 -0.26766976029E+02 -0.39161805341E+03  0.50000000000E+03  0.47000000000E+01 0. -1.
</event>
<event>
 4    1  0.4924477E-004  0.1000000E+04  0.7546771E-02  0.8684367E-01
         11   -1    0    0    0    0  0.00000000000E+00  0.00000000000E+00  0.50000000000E+03  0.50000000000E+03  0.00000000000E+00 0.  1.
        -11   -1    0    0    0    0 -0.00000000000E+00 -0.00000000000E+00 -0.50000000000E+03  0.50000000000E+03  0.00000000000E+00 0. -1.
          5    1    1    2  501    0 -0.23708947921E+03 -0.28587101918E+03  0.33473011403E+03  0.50000000000E+03  0.47000000000E+01 0.  1.
         -5    1    1    2    0  501  0.23708947921E+03  0.28587101918E+03 -0.33473011403E+03  0.50000000000E+03  0.47000000000E+01 0. -1.
</event>
<event>
 4    1  0.4924477E-004  0.1000000E+04  0.7546771E-02  0.8684367E-01
         11   -1    0    0    0    0  0.00000000000E+00  0.00000000000E+00  0.50000000000E+03  0.50000000000E+03  0.00000000000E+00 0. -1.
        -11   -1    0    0    0    0 -0.00000000000E+00 -0.00000000000E+00 -0.50000000000E+03  0.50000000000E+03  0.00000000000E+00 0.  1.
          5    1    1    2  501    0  0.86548779633E+02 -0.56165126236E+02  0.48921641156E+03  0.50000000000E+03  0.47000000000E+01 0. -1.
         -5    1    1    2    0  501 -0.86548779633E+02  0.56165126236E+02 -0.48921641156E+03  0.50000000000E+03  0.47000000000E+01 0.  1.
</event>
<event>
 4    1  0.4924477E-004  0.1000000E+04  0.7546771E-02  0.8684367E-01
         11   -1    0    0    0    0  0.00000000000E+00  0.00000000000E+00  0.50000000000E+03  0.50000000000E+03  0.00000000000E+00 0. -1.
        -11   -1    0    0    0    0 -0.00000000000E+00 -0.00000000000E+00 -0.50000000000E+03  0.50000000000E+03  0.00000000000E+00 0.  1.
          5    1    1    2  501    0 -0.41511733513E+03 -0.27864902105E+03  0.31986156544E+01  0.50000000000E+03  0.47000000000E+01 0. -1.
         -5    1    1    2    0  501  0.41511733513E+03  0.27864902105E+03 -0.31986156544E+01  0.50000000000E+03  0.47000000000E+01 0.  1.
</event>
<event>
 4    1  0.4924477E-004  0.1000000E+04  0.7546771E-02  0.8684367E-01
         11   -1    0    0    0    0  0.00000000000E+00  0.00000000000E+00  0.50000000000E+03  0.50000000000E+03  0.00000000000E+00 0.  1.
        -11   -1    0    0    0    0 -0.00000000000E+00 -0.00000000000E+00 -0.50000000000E+03  0.50000000000E+03  0.00000000000E+00 0. -1.
          5    1    1    2  501    0  0.86826186885E+02 -0.11362568142E+02  0.49224995207E+03  0.50000000000E+03  0.47000000000E+01 0.  1.
         -5    1    1    2    0  501 -0.86826186885E+02  0.11362568142E+02 -0.49224995207E+03  0.50000000000E+03  0.47000000000E+01 0. -1.
</event>
<event>
 4    1  0.4924477E-004  0.1000000E+04  0.7546771E-02  0.8684367E-01
         11   -1    0    0    0    0  0.00000000000E+00  0.00000000000E+00  0.50000000000E+03  0.50000000000E+03  0.00000000000E+00 0. -1.
        -11   -1    0    0    0    0 -0.00000000000E+00 -0.00000000000E+00 -0.50000000000E+03  0.50000000000E+03  0.00000000000E+00 0.  1.
          5    1    1    2  501    0 -0.41120386295E+03 -0.18210469295E+03  0.21846549819E+03  0.50000000000E+03  0.47000000000E+01 0. -1.
         -5    1    1    2    0  501  0.41120386295E+03  0.18210469295E+03 -0.21846549819E+03  0.50000000000E+03  0.47000000000E+01 0.  1.
</event>
<event>
 4    1  0.4924477E-004  0.1000000E+04  0.7546771E-02  0.8684367E-01
         11   -1    0    0    0    0  0.00000000000E+00  0.00000000000E+00  0.50000000000E+03  0.50000000000E+03  0.00000000000E+00 0.  1.
        -11   -1    0    0    0    0 -0.00000000000E+00 -0.00000000000E+00 -0.50000000000E+03  0.50000000000E+03  0.00000000000E+00 0. -1.
          5    1    1    2  501    0  0.60282791292E+01  0.40782718805E+03  0.28916873022E+03  0.50000000000E+03  0.47000000000E+01 0.  1.
         -5    1    1    2    0  501 -0.60282791292E+01 -0.40782718805E+03 -0.28916873022E+03  0.50000000000E+03  0.47000000000E+01 0. -1.
</event>
<event>
 4    1  0.4924477E-004  0.1000000E+04  0.7546771E-02  0.8684367E-01
         11   -1    0    0    0    0  0.00000000000E+00  0.00000000000E+00  0.50000000000E+03  0.50000000000E+03  0.00000000000E+00 0. -1.
        -11   -1    0    0    0    0 -0.00000000000E+00 -0.00000000000E+00 -0.50000000000E+03  0.50000000000E+03  0.00000000000E+00 0.  1.
          5    1    1    2  501    0  0.80699207511E+02 -0.11803828283E+03  0.47909551416E+03  0.50000000000E+03  0.47000000000E+01 0. -1.
         -5    1    1    2    0  501 -0.80699207511E+02  0.11803828283E+03 -0.47909551416E+03  0.50000000000E+03  0.47000000000E+01 0.  1.
</event>
<event>
 4    1  0.4924477E-004  0.1000000E+04  0.7546771E-02  0.8684367E-01
         11   -1    0    0    0    0  0.00000000000E+00  0.00000000000E+00  0.50000000000E+03  0.50000000000E+03  0.00000000000E+00 0. -1.
        -11   -1    0    0    0    0 -0.00000000000E+00 -0.00000000000E+00 -0.50000000000E+03  0.50000000000E+03  0.00000000000E+00 0.  1.
          5    1    1    2  501    0  0.61787662341E+02 -0.39792726019E+03  0.29633442322E+03  0.50000000000E+03  0.47000000000E+01 0. -1.
         -5    1    1    2    0  501 -0.61787662341E+02  0.39792726019E+03 -0.29633442322E+03  0.50000000000E+03  0.47000000000E+01 0.  1.
</event>
<event>
 4    1  0.4924477E-004  0.1000000E+04  0.7546771E-02  0.8684367E-01
         11   -1    0    0    0    0  0.00000000000E+00  0.00000000000E+00  0.50000000000E+03  0.50000000000E+03  0.00000000000E+00 0. -1.
        -11   -1    0    0    0    0 -0.00000000000E+00 -0.00000000000E+00 -0.50000000000E+03  0.50000000000E+03  0.00000000000E+00 0.  1.
          5    1    1    2  501    0 -0.17001639752E+03 -0.22139980744E+03  0.41479447904E+03  0.50000000000E+03  0.47000000000E+01 0. -1.
         -5    1    1    2    0  501  0.17001639752E+03  0.22139980744E+03 -0.41479447904E+03  0.50000000000E+03  0.47000000000E+01 0.  1.
</event>
<event>
 4    1  0.4924477E-004  0.1000000E+04  0.7546771E-02  0.8684367E-01
         11   -1    0    0    0    0  0.00000000000E+00  0.00000000000E+00  0.50000000000E+03  0.50000000000E+03  0.00000000000E+00 0.  1.
        -11   -1    0    0    0    0 -0.00000000000E+00 -0.00000000000E+00 -0.50000000000E+03  0.50000000000E+03  0.00000000000E+00 0. -1.
          5    1    1    2  501    0  0.28679899302E+02 -0.74244892503E+01  0.49909943933E+03  0.50000000000E+03  0.47000000000E+01 0.  1.
         -5    1    1    2    0  501 -0.28679899302E+02  0.74244892503E+01 -0.49909943933E+03  0.50000000000E+03  0.47000000000E+01 0. -1.
</event>
<event>
 4    1  0.4924477E-004  0.1000000E+04  0.7546771E-02  0.8684367E-01
         11   -1    0    0    0    0  0.00000000000E+00  0.00000000000E+00  0.50000000000E+03  0.50000000000E+03  0.00000000000E+00 0. -1.
        -11   -1    0    0    0    0 -0.00000000000E+00 -0.00000000000E+00 -0.50000000000E+03  0.50000000000E+03  0.00000000000E+00 0.  1.
          5    1    1    2  501    0 -0.12383459175E+03 -0.26254687699E+03  0.40707743891E+03  0.50000000000E+03  0.47000000000E+01 0. -1.
         -5    1    1    2    0  501  0.12383459175E+03  0.26254687699E+03 -0.40707743891E+03  0.50000000000E+03  0.47000000000E+01 0.  1.
</event>
<event>
 4    1  0.4924477E-004  0.1000000E+04  0.7546771E-02  0.8684367E-01
         11   -1    0    0    0    0  0.00000000000E+00  0.00000000000E+00  0.50000000000E+03  0.50000000000E+03  0.00000000000E+00 0. -1.
        -11   -1    0    0    0    0 -0.00000000000E+00 -0.00000000000E+00 -0.50000000000E+03  0.50000000000E+03  0.00000000000E+00 0.  1.
          5    1    1    2  501    0  0.19284551190E+03 -0.15638905193E+03  0.43397117759E+03  0.50000000000E+03  0.47000000000E+01 0. -1.
         -5    1    1    2    0  501 -0.19284551190E+03  0.15638905193E+03 -0.43397117759E+03  0.50000000000E+03  0.47000000000E+01 0.  1.
</event>
<event>
 4    1  0.4924477E-004  0.1000000E+04  0.7546771E-02  0.8684367E-01
         11   -1    0    0    0    0  0.00000000000E+00  0.00000000000E+00  0.50000000000E+03  0.50000000000E+03  0.00000000000E+00 0. -1.
        -11   -1    0    0    0    0 -0.00000000000E+00 -0.00000000000E+00 -0.50000000000E+03  0.50000000000E+03  0.00000000000E+00 0.  1.
          5    1    1    2  501    0 -0.32417683644E+03 -0.29322005796E+03  0.24271235306E+03  0.50000000000E+03  0.47000000000E+01 0. -1.
         -5    1    1    2    0  501  0.32417683644E+03  0.29322005796E+03 -0.24271235306E+03  0.50000000000E+03  0.47000000000E+01 0.  1.
</event>
<event>
 4    1  0.4924477E-004  0.1000000E+04  0.7546771E-02  0.8684367E-01
         11   -1    0    0    0    0  0.00000000000E+00  0.00000000000E+00  0.50000000000E+03  0.50000000000E+03  0.00000000000E+00 0. -1.
        -11   -1    0    0    0    0 -0.00000000000E+00 -0.00000000000E+00 -0.50000000000E+03  0.50000000000E+03  0.00000000000E+00 0.  1.
          5    1    1    2  501    0 -0.24820306860E+03 -0.13349562979E+03  0.41297949533E+03  0.50000000000E+03  0.47000000000E+01 0. -1.
         -5    1    1    2    0  501  0.24820306860E+03  0.13349562979E+03 -0.41297949533E+03  0.50000000000E+03  0.47000000000E+01 0.  1.
</event>
<event>
 4    1  0.4924477E-004  0.1000000E+04  0.7546771E-02  0.8684367E-01
         11   -1    0    0    0    0  0.00000000000E+00  0.00000000000E+00  0.50000000000E+03  0.50000000000E+03  0.00000000000E+00 0. -1.
        -11   -1    0    0    0    0 -0.00000000000E+00 -0.00000000000E+00 -0.50000000000E+03  0.50000000000E+03  0.00000000000E+00 0.  1.
          5    1    1    2  501    0  0.27184769399E+03 -0.55195805449E+02  0.41596894636E+03  0.50000000000E+03  0.47000000000E+01 0. -1.
         -5    1    1    2    0  501 -0.27184769399E+03  0.55195805449E+02 -0.41596894636E+03  0.50000000000E+03  0.47000000000E+01 0.  1.
</event>
<event>
 4    1  0.4924477E-004  0.1000000E+04  0.7546771E-02  0.8684367E-01
         11   -1    0    0    0    0  0.00000000000E+00  0.00000000000E+00  0.50000000000E+03  0.50000000000E+03  0.00000000000E+00 0. -1.
        -11   -1    0    0    0    0 -0.00000000000E+00 -0.00000000000E+00 -0.50000000000E+03  0.50000000000E+03  0.00000000000E+00 0.  1.
          5    1    1    2  501    0 -0.21633570379E+03 -0.42232449785E+03  0.15753981014E+03  0.50000000000E+03  0.47000000000E+01 0. -1.
         -5    1    1    2    0  501  0.21633570379E+03  0.42232449785E+03 -0.15753981014E+03  0.50000000000E+03  0.47000000000E+01 0.  1.
</event>
<event>
 4    1  0.4924477E-004  0.1000000E+04  0.7546771E-02  0.8684367E-01
         11   -1    0    0    0    0  0.00000000000E+00  0.00000000000E+00  0.50000000000E+03  0.50000000000E+03  0.00000000000E+00 0. -1.
        -11   -1    0    0    0    0 -0.00000000000E+00 -0.00000000000E+00 -0.50000000000E+03  0.50000000000E+03  0.00000000000E+00 0.  1.
          5    1    1    2  501    0 -0.43010184083E+03  0.15907019142E+03  0.19921593992E+03  0.50000000000E+03  0.47000000000E+01 0. -1.
         -5    1    1    2    0  501  0.43010184083E+03 -0.15907019142E+03 -0.19921593992E+03  0.50000000000E+03  0.47000000000E+01 0.  1.
</event>
<event>
 4    1  0.4924477E-004  0.1000000E+04  0.7546771E-02  0.8684367E-01
         11   -1    0    0    0    0  0.00000000000E+00  0.00000000000E+00  0.50000000000E+03  0.50000000000E+03  0.00000000000E+00 0. -1.
        -11   -1    0    0    0    0 -0.00000000000E+00 -0.00000000000E+00 -0.50000000000E+03  0.50000000000E+03  0.00000000000E+00 0.  1.
          5    1    1    2  501    0 -0.24418466388E+03 -0.34515761014E+03 -0.26686697826E+03  0.50000000000E+03  0.47000000000E+01 0.  1.
         -5    1    1    2    0  501  0.24418466388E+03  0.34515761014E+03  0.26686697826E+03  0.50000000000E+03  0.47000000000E+01 0. -1.
</event>
<event>
 4    1  0.4924477E-004  0.1000000E+04  0.7546771E-02  0.8684367E-01
         11   -1    0    0    0    0  0.00000000000E+00  0.00000000000E+00  0.50000000000E+03  0.50000000000E+03  0.00000000000E+00 0.  1.
        -11   -1    0    0    0    0 -0.00000000000E+00 -0.00000000000E+00 -0.50000000000E+03  0.50000000000E+03  0.00000000000E+00 0. -1.
          5    1    1    2  501    0  0.39341841752E+02  0.23286301055E+03  0.44068690451E+03  0.50000000000E+03  0.47000000000E+01 0.  1.
         -5    1    1    2    0  501 -0.39341841752E+02 -0.23286301055E+03 -0.44068690451E+03  0.50000000000E+03  0.47000000000E+01 0. -1.
</event>
<event>
 4    1  0.4924477E-004  0.1000000E+04  0.7546771E-02  0.8684367E-01
         11   -1    0    0    0    0  0.00000000000E+00  0.00000000000E+00  0.50000000000E+03  0.50000000000E+03  0.00000000000E+00 0.  1.
        -11   -1    0    0    0    0 -0.00000000000E+00 -0.00000000000E+00 -0.50000000000E+03  0.50000000000E+03  0.00000000000E+00 0. -1.
          5    1    1    2  501    0  0.22867376517E+03  0.27420974650E+03  0.34999319143E+03  0.50000000000E+03  0.47000000000E+01 0.  1.
         -5    1    1    2    0  501 -0.22867376517E+03 -0.27420974650E+03 -0.34999319143E+03  0.50000000000E+03  0.47000000000E+01 0. -1.
</event>
<event>
 4    1  0.4924477E-004  0.1000000E+04  0.7546771E-02  0.8684367E-01
         11   -1    0    0    0    0  0.00000000000E+00  0.00000000000E+00  0.50000000000E+03  0.50000000000E+03  0.00000000000E+00 0. -1.
        -11   -1    0    0    0    0 -0.00000000000E+00 -0.00000000000E+00 -0.50000000000E+03  0.50000000000E+03  0.00000000000E+00 0.  1.
          5    1    1    2  501    0 -0.21915375380E+03  0.11458649993E+03  0.43453363072E+03  0.50000000000E+03  0.47000000000E+01 0. -1.
         -5    1    1    2    0  501  0.21915375380E+03 -0.11458649993E+03 -0.43453363072E+03  0.50000000000E+03  0.47000000000E+01 0.  1.
</event>
<event>
 4    1  0.4924477E-004  0.1000000E+04  0.7546771E-02  0.8684367E-01
         11   -1    0    0    0    0  0.00000000000E+00  0.00000000000E+00  0.50000000000E+03  0.50000000000E+03  0.00000000000E+00 0. -1.
        -11   -1    0    0    0    0 -0.00000000000E+00 -0.00000000000E+00 -0.50000000000E+03  0.50000000000E+03  0.00000000000E+00 0.  1.
          5    1    1    2  501    0  0.76609995272E+02  0.29026639138E+03  0.39981775931E+03  0.50000000000E+03  0.47000000000E+01 0. -1.
         -5    1    1    2    0  501 -0.76609995272E+02 -0.29026639138E+03 -0.39981775931E+03  0.50000000000E+03  0.47000000000E+01 0.  1.
</event>
<event>
 4    1  0.4924477E-004  0.1000000E+04  0.7546771E-02  0.8684367E-01
         11   -1    0    0    0    0  0.00000000000E+00  0.00000000000E+00  0.50000000000E+03  0.50000000000E+03  0.00000000000E+00 0. -1.
        -11   -1    0    0    0    0 -0.00000000000E+00 -0.00000000000E+00 -0.50000000000E+03  0.50000000000E+03  0.00000000000E+00 0.  1.
          5    1    1    2  501    0  0.33875460878E+01 -0.41844135163E+03  0.27362980426E+03  0.50000000000E+03  0.47000000000E+01 0. -1.
         -5    1    1    2    0  501 -0.33875460878E+01  0.41844135163E+03 -0.27362980426E+03  0.50000000000E+03  0.47000000000E+01 0.  1.
</event>
<event>
 4    1  0.4924477E-004  0.1000000E+04  0.7546771E-02  0.8684367E-01
         11   -1    0    0    0    0  0.00000000000E+00  0.00000000000E+00  0.50000000000E+03  0.50000000000E+03  0.00000000000E+00 0. -1.
        -11   -1    0    0    0    0 -0.00000000000E+00 -0.00000000000E+00 -0.50000000000E+03  0.50000000000E+03  0.00000000000E+00 0.  1.
          5    1    1    2  501    0 -0.12192412893E+03 -0.99036915121E+02  0.47466209689E+03  0.50000000000E+03  0.47000000000E+01 0. -1.
         -5    1    1    2    0  501  0.12192412893E+03  0.99036915121E+02 -0.47466209689E+03  0.50000000000E+03  0.47000000000E+01 0.  1.
</event>
<event>
 4    1  0.4924477E-004  0.1000000E+04  0.7546771E-02  0.8684367E-01
         11   -1    0    0    0    0  0.00000000000E+00  0.00000000000E+00  0.50000000000E+03  0.50000000000E+03  0.00000000000E+00 0. -1.
        -11   -1    0    0    0    0 -0.00000000000E+00 -0.00000000000E+00 -0.50000000000E+03  0.50000000000E+03  0.00000000000E+00 0.  1.
          5    1    1    2  501    0  0.28267045148E+03 -0.29076423604E+03  0.29245766343E+03  0.50000000000E+03  0.47000000000E+01 0. -1.
         -5    1    1    2    0  501 -0.28267045148E+03  0.29076423604E+03 -0.29245766343E+03  0.50000000000E+03  0.47000000000E+01 0.  1.
</event>
<event>
 4    1  0.4924477E-004  0.1000000E+04  0.7546771E-02  0.8684367E-01
         11   -1    0    0    0    0  0.00000000000E+00  0.00000000000E+00  0.50000000000E+03  0.50000000000E+03  0.00000000000E+00 0. -1.
        -11   -1    0    0    0    0 -0.00000000000E+00 -0.00000000000E+00 -0.50000000000E+03  0.50000000000E+03  0.00000000000E+00 0.  1.
          5    1    1    2  501    0 -0.15281005714E+03 -0.29368478775E+03  0.37466817570E+03  0.50000000000E+03  0.47000000000E+01 0. -1.
         -5    1    1    2    0  501  0.15281005714E+03  0.29368478775E+03 -0.37466817570E+03  0.50000000000E+03  0.47000000000E+01 0.  1.
</event>
<event>
 4    1  0.4924477E-004  0.1000000E+04  0.7546771E-02  0.8684367E-01
         11   -1    0    0    0    0  0.00000000000E+00  0.00000000000E+00  0.50000000000E+03  0.50000000000E+03  0.00000000000E+00 0. -1.
        -11   -1    0    0    0    0 -0.00000000000E+00 -0.00000000000E+00 -0.50000000000E+03  0.50000000000E+03  0.00000000000E+00 0.  1.
          5    1    1    2  501    0  0.16369514785E+03  0.40479913313E+03 -0.24355588761E+03  0.50000000000E+03  0.47000000000E+01 0. -1.
         -5    1    1    2    0  501 -0.16369514785E+03 -0.40479913313E+03  0.24355588761E+03  0.50000000000E+03  0.47000000000E+01 0.  1.
</event>
<event>
 4    1  0.4924477E-004  0.1000000E+04  0.7546771E-02  0.8684367E-01
         11   -1    0    0    0    0  0.00000000000E+00  0.00000000000E+00  0.50000000000E+03  0.50000000000E+03  0.00000000000E+00 0. -1.
        -11   -1    0    0    0    0 -0.00000000000E+00 -0.00000000000E+00 -0.50000000000E+03  0.50000000000E+03  0.00000000000E+00 0.  1.
          5    1    1    2  501    0 -0.56192187754E+02 -0.48215579555E+02  0.49446496936E+03  0.50000000000E+03  0.47000000000E+01 0. -1.
         -5    1    1    2    0  501  0.56192187754E+02  0.48215579555E+02 -0.49446496936E+03  0.50000000000E+03  0.47000000000E+01 0.  1.
</event>
<event>
 4    1  0.4924477E-004  0.1000000E+04  0.7546771E-02  0.8684367E-01
         11   -1    0    0    0    0  0.00000000000E+00  0.00000000000E+00  0.50000000000E+03  0.50000000000E+03  0.00000000000E+00 0. -1.
        -11   -1    0    0    0    0 -0.00000000000E+00 -0.00000000000E+00 -0.50000000000E+03  0.50000000000E+03  0.00000000000E+00 0.  1.
          5    1    1    2  501    0  0.30708807586E+03  0.11691605271E+03  0.37683611860E+03  0.50000000000E+03  0.47000000000E+01 0. -1.
         -5    1    1    2    0  501 -0.30708807586E+03 -0.11691605271E+03 -0.37683611860E+03  0.50000000000E+03  0.47000000000E+01 0.  1.
</event>
<event>
 4    1  0.4924477E-004  0.1000000E+04  0.7546771E-02  0.8684367E-01
         11   -1    0    0    0    0  0.00000000000E+00  0.00000000000E+00  0.50000000000E+03  0.50000000000E+03  0.00000000000E+00 0. -1.
        -11   -1    0    0    0    0 -0.00000000000E+00 -0.00000000000E+00 -0.50000000000E+03  0.50000000000E+03  0.00000000000E+00 0.  1.
          5    1    1    2  501    0  0.19791005767E+03 -0.41201636146E+03  0.20261302269E+03  0.50000000000E+03  0.47000000000E+01 0. -1.
         -5    1    1    2    0  501 -0.19791005767E+03  0.41201636146E+03 -0.20261302269E+03  0.50000000000E+03  0.47000000000E+01 0.  1.
</event>
<event>
 4    1  0.4924477E-004  0.1000000E+04  0.7546771E-02  0.8684367E-01
         11   -1    0    0    0    0  0.00000000000E+00  0.00000000000E+00  0.50000000000E+03  0.50000000000E+03  0.00000000000E+00 0. -1.
        -11   -1    0    0    0    0 -0.00000000000E+00 -0.00000000000E+00 -0.50000000000E+03  0.50000000000E+03  0.00000000000E+00 0.  1.
          5    1    1    2  501    0 -0.16161624609E+03 -0.14840484196E+03  0.44925950394E+03  0.50000000000E+03  0.47000000000E+01 0. -1.
         -5    1    1    2    0  501  0.16161624609E+03  0.14840484196E+03 -0.44925950394E+03  0.50000000000E+03  0.47000000000E+01 0.  1.
</event>
<event>
 4    1  0.4924477E-004  0.1000000E+04  0.7546771E-02  0.8684367E-01
         11   -1    0    0    0    0  0.00000000000E+00  0.00000000000E+00  0.50000000000E+03  0.50000000000E+03  0.00000000000E+00 0. -1.
        -11   -1    0    0    0    0 -0.00000000000E+00 -0.00000000000E+00 -0.50000000000E+03  0.50000000000E+03  0.00000000000E+00 0.  1.
          5    1    1    2  501    0 -0.34589461378E+03 -0.30463763353E+03  0.19372851724E+03  0.50000000000E+03  0.47000000000E+01 0. -1.
         -5    1    1    2    0  501  0.34589461378E+03  0.30463763353E+03 -0.19372851724E+03  0.50000000000E+03  0.47000000000E+01 0.  1.
</event>
<event>
 4    1  0.4924477E-004  0.1000000E+04  0.7546771E-02  0.8684367E-01
         11   -1    0    0    0    0  0.00000000000E+00  0.00000000000E+00  0.50000000000E+03  0.50000000000E+03  0.00000000000E+00 0.  1.
        -11   -1    0    0    0    0 -0.00000000000E+00 -0.00000000000E+00 -0.50000000000E+03  0.50000000000E+03  0.00000000000E+00 0. -1.
          5    1    1    2  501    0 -0.12364733996E+03 -0.47961257092E+03  0.68271715512E+02  0.50000000000E+03  0.47000000000E+01 0.  1.
         -5    1    1    2    0  501  0.12364733996E+03  0.47961257092E+03 -0.68271715512E+02  0.50000000000E+03  0.47000000000E+01 0. -1.
</event>
<event>
 4    1  0.4924477E-004  0.1000000E+04  0.7546771E-02  0.8684367E-01
         11   -1    0    0    0    0  0.00000000000E+00  0.00000000000E+00  0.50000000000E+03  0.50000000000E+03  0.00000000000E+00 0. -1.
        -11   -1    0    0    0    0 -0.00000000000E+00 -0.00000000000E+00 -0.50000000000E+03  0.50000000000E+03  0.00000000000E+00 0.  1.
          5    1    1    2  501    0  0.49408599348E+03 -0.61792000054E+02 -0.45151852446E+02  0.50000000000E+03  0.47000000000E+01 0. -1.
         -5    1    1    2    0  501 -0.49408599348E+03  0.61792000054E+02  0.45151852446E+02  0.50000000000E+03  0.47000000000E+01 0.  1.
</event>
<event>
 4    1  0.4924477E-004  0.1000000E+04  0.7546771E-02  0.8684367E-01
         11   -1    0    0    0    0  0.00000000000E+00  0.00000000000E+00  0.50000000000E+03  0.50000000000E+03  0.00000000000E+00 0. -1.
        -11   -1    0    0    0    0 -0.00000000000E+00 -0.00000000000E+00 -0.50000000000E+03  0.50000000000E+03  0.00000000000E+00 0.  1.
          5    1    1    2  501    0 -0.71820151710E+02 -0.46167942244E+03  0.17796597065E+03  0.50000000000E+03  0.47000000000E+01 0. -1.
         -5    1    1    2    0  501  0.71820151710E+02  0.46167942244E+03 -0.17796597065E+03  0.50000000000E+03  0.47000000000E+01 0.  1.
</event>
<event>
 4    1  0.4924477E-004  0.1000000E+04  0.7546771E-02  0.8684367E-01
         11   -1    0    0    0    0  0.00000000000E+00  0.00000000000E+00  0.50000000000E+03  0.50000000000E+03  0.00000000000E+00 0. -1.
        -11   -1    0    0    0    0 -0.00000000000E+00 -0.00000000000E+00 -0.50000000000E+03  0.50000000000E+03  0.00000000000E+00 0.  1.
          5    1    1    2  501    0 -0.15628218658E+02  0.15348594603E+03  0.47557936578E+03  0.50000000000E+03  0.47000000000E+01 0. -1.
         -5    1    1    2    0  501  0.15628218658E+02 -0.15348594603E+03 -0.47557936578E+03  0.50000000000E+03  0.47000000000E+01 0.  1.
</event>
<event>
 4    1  0.4924477E-004  0.1000000E+04  0.7546771E-02  0.8684367E-01
         11   -1    0    0    0    0  0.00000000000E+00  0.00000000000E+00  0.50000000000E+03  0.50000000000E+03  0.00000000000E+00 0. -1.
        -11   -1    0    0    0    0 -0.00000000000E+00 -0.00000000000E+00 -0.50000000000E+03  0.50000000000E+03  0.00000000000E+00 0.  1.
          5    1    1    2  501    0 -0.11899079109E+02 -0.39653890388E+03  0.30429134005E+03  0.50000000000E+03  0.47000000000E+01 0. -1.
         -5    1    1    2    0  501  0.11899079109E+02  0.39653890388E+03 -0.30429134005E+03  0.50000000000E+03  0.47000000000E+01 0.  1.
</event>
<event>
 4    1  0.4924477E-004  0.1000000E+04  0.7546771E-02  0.8684367E-01
         11   -1    0    0    0    0  0.00000000000E+00  0.00000000000E+00  0.50000000000E+03  0.50000000000E+03  0.00000000000E+00 0. -1.
        -11   -1    0    0    0    0 -0.00000000000E+00 -0.00000000000E+00 -0.50000000000E+03  0.50000000000E+03  0.00000000000E+00 0.  1.
          5    1    1    2  501    0  0.91182209854E+02  0.12094971913E+03  0.47648177305E+03  0.50000000000E+03  0.47000000000E+01 0. -1.
         -5    1    1    2    0  501 -0.91182209854E+02 -0.12094971913E+03 -0.47648177305E+03  0.50000000000E+03  0.47000000000E+01 0.  1.
</event>
<event>
 4    1  0.4924477E-004  0.1000000E+04  0.7546771E-02  0.8684367E-01
         11   -1    0    0    0    0  0.00000000000E+00  0.00000000000E+00  0.50000000000E+03  0.50000000000E+03  0.00000000000E+00 0.  1.
        -11   -1    0    0    0    0 -0.00000000000E+00 -0.00000000000E+00 -0.50000000000E+03  0.50000000000E+03  0.00000000000E+00 0. -1.
          5    1    1    2  501    0 -0.84417118336E+02  0.34570388330E+03  0.35119864066E+03  0.50000000000E+03  0.47000000000E+01 0.  1.
         -5    1    1    2    0  501  0.84417118336E+02 -0.34570388330E+03 -0.35119864066E+03  0.50000000000E+03  0.47000000000E+01 0. -1.
</event>
<event>
 4    1  0.4924477E-004  0.1000000E+04  0.7546771E-02  0.8684367E-01
         11   -1    0    0    0    0  0.00000000000E+00  0.00000000000E+00  0.50000000000E+03  0.50000000000E+03  0.00000000000E+00 0. -1.
        -11   -1    0    0    0    0 -0.00000000000E+00 -0.00000000000E+00 -0.50000000000E+03  0.50000000000E+03  0.00000000000E+00 0.  1.
          5    1    1    2  501    0 -0.28824145210E+03 -0.37162906428E+03  0.16966618365E+03  0.50000000000E+03  0.47000000000E+01 0. -1.
         -5    1    1    2    0  501  0.28824145210E+03  0.37162906428E+03 -0.16966618365E+03  0.50000000000E+03  0.47000000000E+01 0.  1.
</event>
<event>
 4    1  0.4924477E-004  0.1000000E+04  0.7546771E-02  0.8684367E-01
         11   -1    0    0    0    0  0.00000000000E+00  0.00000000000E+00  0.50000000000E+03  0.50000000000E+03  0.00000000000E+00 0.  1.
        -11   -1    0    0    0    0 -0.00000000000E+00 -0.00000000000E+00 -0.50000000000E+03  0.50000000000E+03  0.00000000000E+00 0. -1.
          5    1    1    2  501    0  0.42998748036E+03  0.10622570684E+03  0.23195856513E+03  0.50000000000E+03  0.47000000000E+01 0.  1.
         -5    1    1    2    0  501 -0.42998748036E+03 -0.10622570684E+03 -0.23195856513E+03  0.50000000000E+03  0.47000000000E+01 0. -1.
</event>
<event>
 4    1  0.4924477E-004  0.1000000E+04  0.7546771E-02  0.8684367E-01
         11   -1    0    0    0    0  0.00000000000E+00  0.00000000000E+00  0.50000000000E+03  0.50000000000E+03  0.00000000000E+00 0. -1.
        -11   -1    0    0    0    0 -0.00000000000E+00 -0.00000000000E+00 -0.50000000000E+03  0.50000000000E+03  0.00000000000E+00 0.  1.
          5    1    1    2  501    0  0.10841048521E+03 -0.30726555327E+03  0.37922678764E+03  0.50000000000E+03  0.47000000000E+01 0. -1.
         -5    1    1    2    0  501 -0.10841048521E+03  0.30726555327E+03 -0.37922678764E+03  0.50000000000E+03  0.47000000000E+01 0.  1.
</event>
<event>
 4    1  0.4924477E-004  0.1000000E+04  0.7546771E-02  0.8684367E-01
         11   -1    0    0    0    0  0.00000000000E+00  0.00000000000E+00  0.50000000000E+03  0.50000000000E+03  0.00000000000E+00 0. -1.
        -11   -1    0    0    0    0 -0.00000000000E+00 -0.00000000000E+00 -0.50000000000E+03  0.50000000000E+03  0.00000000000E+00 0.  1.
          5    1    1    2  501    0 -0.11120448651E+03  0.34009568496E+03  0.34920824339E+03  0.50000000000E+03  0.47000000000E+01 0. -1.
         -5    1    1    2    0  501  0.11120448651E+03 -0.34009568496E+03 -0.34920824339E+03  0.50000000000E+03  0.47000000000E+01 0.  1.
</event>
<event>
 4    1  0.4924477E-004  0.1000000E+04  0.7546771E-02  0.8684367E-01
         11   -1    0    0    0    0  0.00000000000E+00  0.00000000000E+00  0.50000000000E+03  0.50000000000E+03  0.00000000000E+00 0. -1.
        -11   -1    0    0    0    0 -0.00000000000E+00 -0.00000000000E+00 -0.50000000000E+03  0.50000000000E+03  0.00000000000E+00 0.  1.
          5    1    1    2  501    0 -0.35123812758E+03 -0.90217297661E+02  0.34419547780E+03  0.50000000000E+03  0.47000000000E+01 0. -1.
         -5    1    1    2    0  501  0.35123812758E+03  0.90217297661E+02 -0.34419547780E+03  0.50000000000E+03  0.47000000000E+01 0.  1.
</event>
<event>
 4    1  0.4924477E-004  0.1000000E+04  0.7546771E-02  0.8684367E-01
         11   -1    0    0    0    0  0.00000000000E+00  0.00000000000E+00  0.50000000000E+03  0.50000000000E+03  0.00000000000E+00 0.  1.
        -11   -1    0    0    0    0 -0.00000000000E+00 -0.00000000000E+00 -0.50000000000E+03  0.50000000000E+03  0.00000000000E+00 0. -1.
          5    1    1    2  501    0 -0.99036445114E+02 -0.81543178137E+02  0.48323948787E+03  0.50000000000E+03  0.47000000000E+01 0.  1.
         -5    1    1    2    0  501  0.99036445114E+02  0.81543178137E+02 -0.48323948787E+03  0.50000000000E+03  0.47000000000E+01 0. -1.
</event>
<event>
 4    1  0.4924477E-004  0.1000000E+04  0.7546771E-02  0.8684367E-01
         11   -1    0    0    0    0  0.00000000000E+00  0.00000000000E+00  0.50000000000E+03  0.50000000000E+03  0.00000000000E+00 0. -1.
        -11   -1    0    0    0    0 -0.00000000000E+00 -0.00000000000E+00 -0.50000000000E+03  0.50000000000E+03  0.00000000000E+00 0.  1.
          5    1    1    2  501    0  0.84635489433E+02  0.70485804424E+02  0.48769508435E+03  0.50000000000E+03  0.47000000000E+01 0. -1.
         -5    1    1    2    0  501 -0.84635489433E+02 -0.70485804424E+02 -0.48769508435E+03  0.50000000000E+03  0.47000000000E+01 0.  1.
</event>
<event>
 4    1  0.4924477E-004  0.1000000E+04  0.7546771E-02  0.8684367E-01
         11   -1    0    0    0    0  0.00000000000E+00  0.00000000000E+00  0.50000000000E+03  0.50000000000E+03  0.00000000000E+00 0. -1.
        -11   -1    0    0    0    0 -0.00000000000E+00 -0.00000000000E+00 -0.50000000000E+03  0.50000000000E+03  0.00000000000E+00 0.  1.
          5    1    1    2  501    0  0.13453143467E+03 -0.19154198478E+02  0.48115727134E+03  0.50000000000E+03  0.47000000000E+01 0. -1.
         -5    1    1    2    0  501 -0.13453143467E+03  0.19154198478E+02 -0.48115727134E+03  0.50000000000E+03  0.47000000000E+01 0.  1.
</event>
<event>
 4    1  0.4924477E-004  0.1000000E+04  0.7546771E-02  0.8684367E-01
         11   -1    0    0    0    0  0.00000000000E+00  0.00000000000E+00  0.50000000000E+03  0.50000000000E+03  0.00000000000E+00 0. -1.
        -11   -1    0    0    0    0 -0.00000000000E+00 -0.00000000000E+00 -0.50000000000E+03  0.50000000000E+03  0.00000000000E+00 0.  1.
          5    1    1    2  501    0 -0.38665524598E+02 -0.29785657852E+03  0.39970532375E+03  0.50000000000E+03  0.47000000000E+01 0. -1.
         -5    1    1    2    0  501  0.38665524598E+02  0.29785657852E+03 -0.39970532375E+03  0.50000000000E+03  0.47000000000E+01 0.  1.
</event>
<event>
 4    1  0.4924477E-004  0.1000000E+04  0.7546771E-02  0.8684367E-01
         11   -1    0    0    0    0  0.00000000000E+00  0.00000000000E+00  0.50000000000E+03  0.50000000000E+03  0.00000000000E+00 0. -1.
        -11   -1    0    0    0    0 -0.00000000000E+00 -0.00000000000E+00 -0.50000000000E+03  0.50000000000E+03  0.00000000000E+00 0.  1.
          5    1    1    2  501    0 -0.32580463579E+03 -0.37815792946E+03  0.28737252461E+02  0.50000000000E+03  0.47000000000E+01 0. -1.
         -5    1    1    2    0  501  0.32580463579E+03  0.37815792946E+03 -0.28737252461E+02  0.50000000000E+03  0.47000000000E+01 0.  1.
</event>
<event>
 4    1  0.4924477E-004  0.1000000E+04  0.7546771E-02  0.8684367E-01
         11   -1    0    0    0    0  0.00000000000E+00  0.00000000000E+00  0.50000000000E+03  0.50000000000E+03  0.00000000000E+00 0. -1.
        -11   -1    0    0    0    0 -0.00000000000E+00 -0.00000000000E+00 -0.50000000000E+03  0.50000000000E+03  0.00000000000E+00 0.  1.
          5    1    1    2  501    0  0.17283230303E+03  0.38400779787E+03  0.26952720865E+03  0.50000000000E+03  0.47000000000E+01 0. -1.
         -5    1    1    2    0  501 -0.17283230303E+03 -0.38400779787E+03 -0.26952720865E+03  0.50000000000E+03  0.47000000000E+01 0.  1.
</event>
<event>
 4    1  0.4924477E-004  0.1000000E+04  0.7546771E-02  0.8684367E-01
         11   -1    0    0    0    0  0.00000000000E+00  0.00000000000E+00  0.50000000000E+03  0.50000000000E+03  0.00000000000E+00 0. -1.
        -11   -1    0    0    0    0 -0.00000000000E+00 -0.00000000000E+00 -0.50000000000E+03  0.50000000000E+03  0.00000000000E+00 0.  1.
          5    1    1    2  501    0 -0.14402285677E+03  0.30578228255E+03  0.36841894957E+03  0.50000000000E+03  0.47000000000E+01 0. -1.
         -5    1    1    2    0  501  0.14402285677E+03 -0.30578228255E+03 -0.36841894957E+03  0.50000000000E+03  0.47000000000E+01 0.  1.
</event>
<event>
 4    1  0.4924477E-004  0.1000000E+04  0.7546771E-02  0.8684367E-01
         11   -1    0    0    0    0  0.00000000000E+00  0.00000000000E+00  0.50000000000E+03  0.50000000000E+03  0.00000000000E+00 0. -1.
        -11   -1    0    0    0    0 -0.00000000000E+00 -0.00000000000E+00 -0.50000000000E+03  0.50000000000E+03  0.00000000000E+00 0.  1.
          5    1    1    2  501    0 -0.40502832078E+03  0.14852539746E+03  0.25272549471E+03  0.50000000000E+03  0.47000000000E+01 0. -1.
         -5    1    1    2    0  501  0.40502832078E+03 -0.14852539746E+03 -0.25272549471E+03  0.50000000000E+03  0.47000000000E+01 0.  1.
</event>
<event>
 4    1  0.4924477E-004  0.1000000E+04  0.7546771E-02  0.8684367E-01
         11   -1    0    0    0    0  0.00000000000E+00  0.00000000000E+00  0.50000000000E+03  0.50000000000E+03  0.00000000000E+00 0.  1.
        -11   -1    0    0    0    0 -0.00000000000E+00 -0.00000000000E+00 -0.50000000000E+03  0.50000000000E+03  0.00000000000E+00 0. -1.
          5    1    1    2  501    0  0.29993030084E+03 -0.11453823335E+03  0.38327629426E+03  0.50000000000E+03  0.47000000000E+01 0.  1.
         -5    1    1    2    0  501 -0.29993030084E+03  0.11453823335E+03 -0.38327629426E+03  0.50000000000E+03  0.47000000000E+01 0. -1.
</event>
<event>
 4    1  0.4924477E-004  0.1000000E+04  0.7546771E-02  0.8684367E-01
         11   -1    0    0    0    0  0.00000000000E+00  0.00000000000E+00  0.50000000000E+03  0.50000000000E+03  0.00000000000E+00 0. -1.
        -11   -1    0    0    0    0 -0.00000000000E+00 -0.00000000000E+00 -0.50000000000E+03  0.50000000000E+03  0.00000000000E+00 0.  1.
          5    1    1    2  501    0  0.17467169903E+03  0.46844512098E+03 -0.51842253318E+01  0.50000000000E+03  0.47000000000E+01 0. -1.
         -5    1    1    2    0  501 -0.17467169903E+03 -0.46844512098E+03  0.51842253318E+01  0.50000000000E+03  0.47000000000E+01 0.  1.
</event>
<event>
 4    1  0.4924477E-004  0.1000000E+04  0.7546771E-02  0.8684367E-01
         11   -1    0    0    0    0  0.00000000000E+00  0.00000000000E+00  0.50000000000E+03  0.50000000000E+03  0.00000000000E+00 0. -1.
        -11   -1    0    0    0    0 -0.00000000000E+00 -0.00000000000E+00 -0.50000000000E+03  0.50000000000E+03  0.00000000000E+00 0.  1.
          5    1    1    2  501    0  0.90956718800E+02  0.45054122797E+03  0.19676734283E+03  0.50000000000E+03  0.47000000000E+01 0. -1.
         -5    1    1    2    0  501 -0.90956718800E+02 -0.45054122797E+03 -0.19676734283E+03  0.50000000000E+03  0.47000000000E+01 0.  1.
</event>
<event>
 4    1  0.4924477E-004  0.1000000E+04  0.7546771E-02  0.8684367E-01
         11   -1    0    0    0    0  0.00000000000E+00  0.00000000000E+00  0.50000000000E+03  0.50000000000E+03  0.00000000000E+00 0. -1.
        -11   -1    0    0    0    0 -0.00000000000E+00 -0.00000000000E+00 -0.50000000000E+03  0.50000000000E+03  0.00000000000E+00 0.  1.
          5    1    1    2  501    0 -0.94220904324E+02  0.43685030240E+03  0.22419220433E+03  0.50000000000E+03  0.47000000000E+01 0. -1.
         -5    1    1    2    0  501  0.94220904324E+02 -0.43685030240E+03 -0.22419220433E+03  0.50000000000E+03  0.47000000000E+01 0.  1.
</event>
<event>
 4    1  0.4924477E-004  0.1000000E+04  0.7546771E-02  0.8684367E-01
         11   -1    0    0    0    0  0.00000000000E+00  0.00000000000E+00  0.50000000000E+03  0.50000000000E+03  0.00000000000E+00 0.  1.
        -11   -1    0    0    0    0 -0.00000000000E+00 -0.00000000000E+00 -0.50000000000E+03  0.50000000000E+03  0.00000000000E+00 0. -1.
          5    1    1    2  501    0  0.21825608689E+03  0.40951312037E+03  0.18612145170E+03  0.50000000000E+03  0.47000000000E+01 0.  1.
         -5    1    1    2    0  501 -0.21825608689E+03 -0.40951312037E+03 -0.18612145170E+03  0.50000000000E+03  0.47000000000E+01 0. -1.
</event>
<event>
 4    1  0.4924477E-004  0.1000000E+04  0.7546771E-02  0.8684367E-01
         11   -1    0    0    0    0  0.00000000000E+00  0.00000000000E+00  0.50000000000E+03  0.50000000000E+03  0.00000000000E+00 0. -1.
        -11   -1    0    0    0    0 -0.00000000000E+00 -0.00000000000E+00 -0.50000000000E+03  0.50000000000E+03  0.00000000000E+00 0.  1.
          5    1    1    2  501    0  0.37454020979E+03  0.61283500460E+02  0.32548713312E+03  0.50000000000E+03  0.47000000000E+01 0. -1.
         -5    1    1    2    0  501 -0.37454020979E+03 -0.61283500460E+02 -0.32548713312E+03  0.50000000000E+03  0.47000000000E+01 0.  1.
</event>
<event>
 4    1  0.4924477E-004  0.1000000E+04  0.7546771E-02  0.8684367E-01
         11   -1    0    0    0    0  0.00000000000E+00  0.00000000000E+00  0.50000000000E+03  0.50000000000E+03  0.00000000000E+00 0. -1.
        -11   -1    0    0    0    0 -0.00000000000E+00 -0.00000000000E+00 -0.50000000000E+03  0.50000000000E+03  0.00000000000E+00 0.  1.
          5    1    1    2  501    0 -0.41572228256E+03 -0.27005919534E+02  0.27644813997E+03  0.50000000000E+03  0.47000000000E+01 0. -1.
         -5    1    1    2    0  501  0.41572228256E+03  0.27005919534E+02 -0.27644813997E+03  0.50000000000E+03  0.47000000000E+01 0.  1.
</event>
<event>
 4    1  0.4924477E-004  0.1000000E+04  0.7546771E-02  0.8684367E-01
         11   -1    0    0    0    0  0.00000000000E+00  0.00000000000E+00  0.50000000000E+03  0.50000000000E+03  0.00000000000E+00 0. -1.
        -11   -1    0    0    0    0 -0.00000000000E+00 -0.00000000000E+00 -0.50000000000E+03  0.50000000000E+03  0.00000000000E+00 0.  1.
          5    1    1    2  501    0 -0.25748380738E+03 -0.75670498661E+02  0.42184591330E+03  0.50000000000E+03  0.47000000000E+01 0. -1.
         -5    1    1    2    0  501  0.25748380738E+03  0.75670498661E+02 -0.42184591330E+03  0.50000000000E+03  0.47000000000E+01 0.  1.
</event>
<event>
 4    1  0.4924477E-004  0.1000000E+04  0.7546771E-02  0.8684367E-01
         11   -1    0    0    0    0  0.00000000000E+00  0.00000000000E+00  0.50000000000E+03  0.50000000000E+03  0.00000000000E+00 0.  1.
        -11   -1    0    0    0    0 -0.00000000000E+00 -0.00000000000E+00 -0.50000000000E+03  0.50000000000E+03  0.00000000000E+00 0. -1.
          5    1    1    2  501    0  0.36968522210E+03 -0.17515917378E+02 -0.33616058543E+03  0.50000000000E+03  0.47000000000E+01 0. -1.
         -5    1    1    2    0  501 -0.36968522210E+03  0.17515917378E+02  0.33616058543E+03  0.50000000000E+03  0.47000000000E+01 0.  1.
</event>
<event>
 4    1  0.4924477E-004  0.1000000E+04  0.7546771E-02  0.8684367E-01
         11   -1    0    0    0    0  0.00000000000E+00  0.00000000000E+00  0.50000000000E+03  0.50000000000E+03  0.00000000000E+00 0. -1.
        -11   -1    0    0    0    0 -0.00000000000E+00 -0.00000000000E+00 -0.50000000000E+03  0.50000000000E+03  0.00000000000E+00 0.  1.
          5    1    1    2  501    0 -0.24607551565E+03  0.12812905344E+03  0.41594193857E+03  0.50000000000E+03  0.47000000000E+01 0. -1.
         -5    1    1    2    0  501  0.24607551565E+03 -0.12812905344E+03 -0.41594193857E+03  0.50000000000E+03  0.47000000000E+01 0.  1.
</event>
<event>
 4    1  0.4924477E-004  0.1000000E+04  0.7546771E-02  0.8684367E-01
         11   -1    0    0    0    0  0.00000000000E+00  0.00000000000E+00  0.50000000000E+03  0.50000000000E+03  0.00000000000E+00 0. -1.
        -11   -1    0    0    0    0 -0.00000000000E+00 -0.00000000000E+00 -0.50000000000E+03  0.50000000000E+03  0.00000000000E+00 0.  1.
          5    1    1    2  501    0 -0.20843353294E+03  0.27708190839E+02  0.45361396419E+03  0.50000000000E+03  0.47000000000E+01 0. -1.
         -5    1    1    2    0  501  0.20843353294E+03 -0.27708190839E+02 -0.45361396419E+03  0.50000000000E+03  0.47000000000E+01 0.  1.
</event>
<event>
 4    1  0.4924477E-004  0.1000000E+04  0.7546771E-02  0.8684367E-01
         11   -1    0    0    0    0  0.00000000000E+00  0.00000000000E+00  0.50000000000E+03  0.50000000000E+03  0.00000000000E+00 0. -1.
        -11   -1    0    0    0    0 -0.00000000000E+00 -0.00000000000E+00 -0.50000000000E+03  0.50000000000E+03  0.00000000000E+00 0.  1.
          5    1    1    2  501    0  0.18635258876E+03  0.42499992636E+03 -0.18607978197E+03  0.50000000000E+03  0.47000000000E+01 0. -1.
         -5    1    1    2    0  501 -0.18635258876E+03 -0.42499992636E+03  0.18607978197E+03  0.50000000000E+03  0.47000000000E+01 0.  1.
</event>
<event>
 4    1  0.4924477E-004  0.1000000E+04  0.7546771E-02  0.8684367E-01
         11   -1    0    0    0    0  0.00000000000E+00  0.00000000000E+00  0.50000000000E+03  0.50000000000E+03  0.00000000000E+00 0. -1.
        -11   -1    0    0    0    0 -0.00000000000E+00 -0.00000000000E+00 -0.50000000000E+03  0.50000000000E+03  0.00000000000E+00 0.  1.
          5    1    1    2  501    0  0.19947496215E+03 -0.71095768951E+02  0.45291615241E+03  0.50000000000E+03  0.47000000000E+01 0. -1.
         -5    1    1    2    0  501 -0.19947496215E+03  0.71095768951E+02 -0.45291615241E+03  0.50000000000E+03  0.47000000000E+01 0.  1.
</event>
<event>
 4    1  0.4924477E-004  0.1000000E+04  0.7546771E-02  0.8684367E-01
         11   -1    0    0    0    0  0.00000000000E+00  0.00000000000E+00  0.50000000000E+03  0.50000000000E+03  0.00000000000E+00 0. -1.
        -11   -1    0    0    0    0 -0.00000000000E+00 -0.00000000000E+00 -0.50000000000E+03  0.50000000000E+03  0.00000000000E+00 0.  1.
          5    1    1    2  501    0  0.16129793343E+03  0.43729515909E+03 -0.18092493058E+03  0.50000000000E+03  0.47000000000E+01 0. -1.
         -5    1    1    2    0  501 -0.16129793343E+03 -0.43729515909E+03  0.18092493058E+03  0.50000000000E+03  0.47000000000E+01 0.  1.
</event>
<event>
 4    1  0.4924477E-004  0.1000000E+04  0.7546771E-02  0.8684367E-01
         11   -1    0    0    0    0  0.00000000000E+00  0.00000000000E+00  0.50000000000E+03  0.50000000000E+03  0.00000000000E+00 0. -1.
        -11   -1    0    0    0    0 -0.00000000000E+00 -0.00000000000E+00 -0.50000000000E+03  0.50000000000E+03  0.00000000000E+00 0.  1.
          5    1    1    2  501    0 -0.47507849630E+02 -0.41549026650E+03  0.27402327030E+03  0.50000000000E+03  0.47000000000E+01 0. -1.
         -5    1    1    2    0  501  0.47507849630E+02  0.41549026650E+03 -0.27402327030E+03  0.50000000000E+03  0.47000000000E+01 0.  1.
</event>
<event>
 4    1  0.4924477E-004  0.1000000E+04  0.7546771E-02  0.8684367E-01
         11   -1    0    0    0    0  0.00000000000E+00  0.00000000000E+00  0.50000000000E+03  0.50000000000E+03  0.00000000000E+00 0. -1.
        -11   -1    0    0    0    0 -0.00000000000E+00 -0.00000000000E+00 -0.50000000000E+03  0.50000000000E+03  0.00000000000E+00 0.  1.
          5    1    1    2  501    0  0.95804615465E+02 -0.45465771382E+03  0.18462326212E+03  0.50000000000E+03  0.47000000000E+01 0. -1.
         -5    1    1    2    0  501 -0.95804615465E+02  0.45465771382E+03 -0.18462326212E+03  0.50000000000E+03  0.47000000000E+01 0.  1.
</event>
<event>
 4    1  0.4924477E-004  0.1000000E+04  0.7546771E-02  0.8684367E-01
         11   -1    0    0    0    0  0.00000000000E+00  0.00000000000E+00  0.50000000000E+03  0.50000000000E+03  0.00000000000E+00 0. -1.
        -11   -1    0    0    0    0 -0.00000000000E+00 -0.00000000000E+00 -0.50000000000E+03  0.50000000000E+03  0.00000000000E+00 0.  1.
          5    1    1    2  501    0  0.45004587036E+02 -0.19442282280E+03  0.45842367208E+03  0.50000000000E+03  0.47000000000E+01 0. -1.
         -5    1    1    2    0  501 -0.45004587036E+02  0.19442282280E+03 -0.45842367208E+03  0.50000000000E+03  0.47000000000E+01 0.  1.
</event>
<event>
 4    1  0.4924477E-004  0.1000000E+04  0.7546771E-02  0.8684367E-01
         11   -1    0    0    0    0  0.00000000000E+00  0.00000000000E+00  0.50000000000E+03  0.50000000000E+03  0.00000000000E+00 0. -1.
        -11   -1    0    0    0    0 -0.00000000000E+00 -0.00000000000E+00 -0.50000000000E+03  0.50000000000E+03  0.00000000000E+00 0.  1.
          5    1    1    2  501    0  0.21695322610E+03 -0.38677473297E+03  0.23089935821E+03  0.50000000000E+03  0.47000000000E+01 0. -1.
         -5    1    1    2    0  501 -0.21695322610E+03  0.38677473297E+03 -0.23089935821E+03  0.50000000000E+03  0.47000000000E+01 0.  1.
</event>
<event>
 4    1  0.4924477E-004  0.1000000E+04  0.7546771E-02  0.8684367E-01
         11   -1    0    0    0    0  0.00000000000E+00  0.00000000000E+00  0.50000000000E+03  0.50000000000E+03  0.00000000000E+00 0. -1.
        -11   -1    0    0    0    0 -0.00000000000E+00 -0.00000000000E+00 -0.50000000000E+03  0.50000000000E+03  0.00000000000E+00 0.  1.
          5    1    1    2  501    0 -0.73872885828E+02  0.42924976253E+03  0.24549001631E+03  0.50000000000E+03  0.47000000000E+01 0. -1.
         -5    1    1    2    0  501  0.73872885828E+02 -0.42924976253E+03 -0.24549001631E+03  0.50000000000E+03  0.47000000000E+01 0.  1.
</event>
<event>
 4    1  0.4924477E-004  0.1000000E+04  0.7546771E-02  0.8684367E-01
         11   -1    0    0    0    0  0.00000000000E+00  0.00000000000E+00  0.50000000000E+03  0.50000000000E+03  0.00000000000E+00 0. -1.
        -11   -1    0    0    0    0 -0.00000000000E+00 -0.00000000000E+00 -0.50000000000E+03  0.50000000000E+03  0.00000000000E+00 0.  1.
          5    1    1    2  501    0  0.29744418991E+03  0.29126075795E+03  0.27689715558E+03  0.50000000000E+03  0.47000000000E+01 0. -1.
         -5    1    1    2    0  501 -0.29744418991E+03 -0.29126075795E+03 -0.27689715558E+03  0.50000000000E+03  0.47000000000E+01 0.  1.
</event>
<event>
 4    1  0.4924477E-004  0.1000000E+04  0.7546771E-02  0.8684367E-01
         11   -1    0    0    0    0  0.00000000000E+00  0.00000000000E+00  0.50000000000E+03  0.50000000000E+03  0.00000000000E+00 0.  1.
        -11   -1    0    0    0    0 -0.00000000000E+00 -0.00000000000E+00 -0.50000000000E+03  0.50000000000E+03  0.00000000000E+00 0. -1.
          5    1    1    2  501    0 -0.63073502835E+02 -0.24402126628E+03  0.43180234465E+03  0.50000000000E+03  0.47000000000E+01 0.  1.
         -5    1    1    2    0  501  0.63073502835E+02  0.24402126628E+03 -0.43180234465E+03  0.50000000000E+03  0.47000000000E+01 0. -1.
</event>
<event>
 4    1  0.4924477E-004  0.1000000E+04  0.7546771E-02  0.8684367E-01
         11   -1    0    0    0    0  0.00000000000E+00  0.00000000000E+00  0.50000000000E+03  0.50000000000E+03  0.00000000000E+00 0. -1.
        -11   -1    0    0    0    0 -0.00000000000E+00 -0.00000000000E+00 -0.50000000000E+03  0.50000000000E+03  0.00000000000E+00 0.  1.
          5    1    1    2  501    0 -0.17772867045E+03 -0.46647949640E+03 -0.28059029525E+02  0.50000000000E+03  0.47000000000E+01 0. -1.
         -5    1    1    2    0  501  0.17772867045E+03  0.46647949640E+03  0.28059029525E+02  0.50000000000E+03  0.47000000000E+01 0.  1.
</event>
<event>
 4    1  0.4924477E-004  0.1000000E+04  0.7546771E-02  0.8684367E-01
         11   -1    0    0    0    0  0.00000000000E+00  0.00000000000E+00  0.50000000000E+03  0.50000000000E+03  0.00000000000E+00 0. -1.
        -11   -1    0    0    0    0 -0.00000000000E+00 -0.00000000000E+00 -0.50000000000E+03  0.50000000000E+03  0.00000000000E+00 0.  1.
          5    1    1    2  501    0  0.13812927534E+03 -0.21848796081E+03  0.42797339202E+03  0.50000000000E+03  0.47000000000E+01 0. -1.
         -5    1    1    2    0  501 -0.13812927534E+03  0.21848796081E+03 -0.42797339202E+03  0.50000000000E+03  0.47000000000E+01 0.  1.
</event>
<event>
 4    1  0.4924477E-004  0.1000000E+04  0.7546771E-02  0.8684367E-01
         11   -1    0    0    0    0  0.00000000000E+00  0.00000000000E+00  0.50000000000E+03  0.50000000000E+03  0.00000000000E+00 0. -1.
        -11   -1    0    0    0    0 -0.00000000000E+00 -0.00000000000E+00 -0.50000000000E+03  0.50000000000E+03  0.00000000000E+00 0.  1.
          5    1    1    2  501    0 -0.27691916083E+02 -0.29007126045E+03  0.40628774489E+03  0.50000000000E+03  0.47000000000E+01 0. -1.
         -5    1    1    2    0  501  0.27691916083E+02  0.29007126045E+03 -0.40628774489E+03  0.50000000000E+03  0.47000000000E+01 0.  1.
</event>
<event>
 4    1  0.4924477E-004  0.1000000E+04  0.7546771E-02  0.8684367E-01
         11   -1    0    0    0    0  0.00000000000E+00  0.00000000000E+00  0.50000000000E+03  0.50000000000E+03  0.00000000000E+00 0. -1.
        -11   -1    0    0    0    0 -0.00000000000E+00 -0.00000000000E+00 -0.50000000000E+03  0.50000000000E+03  0.00000000000E+00 0.  1.
          5    1    1    2  501    0  0.47714511339E+03  0.11281463957E+03 -0.97894370992E+02  0.50000000000E+03  0.47000000000E+01 0. -1.
         -5    1    1    2    0  501 -0.47714511339E+03 -0.11281463957E+03  0.97894370992E+02  0.50000000000E+03  0.47000000000E+01 0.  1.
</event>
<event>
 4    1  0.4924477E-004  0.1000000E+04  0.7546771E-02  0.8684367E-01
         11   -1    0    0    0    0  0.00000000000E+00  0.00000000000E+00  0.50000000000E+03  0.50000000000E+03  0.00000000000E+00 0. -1.
        -11   -1    0    0    0    0 -0.00000000000E+00 -0.00000000000E+00 -0.50000000000E+03  0.50000000000E+03  0.00000000000E+00 0.  1.
          5    1    1    2  501    0  0.38395448705E+02  0.37297779357E+03  0.33074350337E+03  0.50000000000E+03  0.47000000000E+01 0. -1.
         -5    1    1    2    0  501 -0.38395448705E+02 -0.37297779357E+03 -0.33074350337E+03  0.50000000000E+03  0.47000000000E+01 0.  1.
</event>
<event>
 4    1  0.4924477E-004  0.1000000E+04  0.7546771E-02  0.8684367E-01
         11   -1    0    0    0    0  0.00000000000E+00  0.00000000000E+00  0.50000000000E+03  0.50000000000E+03  0.00000000000E+00 0. -1.
        -11   -1    0    0    0    0 -0.00000000000E+00 -0.00000000000E+00 -0.50000000000E+03  0.50000000000E+03  0.00000000000E+00 0.  1.
          5    1    1    2  501    0 -0.12462381273E+03 -0.38179158509E+03  0.29779523309E+03  0.50000000000E+03  0.47000000000E+01 0. -1.
         -5    1    1    2    0  501  0.12462381273E+03  0.38179158509E+03 -0.29779523309E+03  0.50000000000E+03  0.47000000000E+01 0.  1.
</event>
<event>
 4    1  0.4924477E-004  0.1000000E+04  0.7546771E-02  0.8684367E-01
         11   -1    0    0    0    0  0.00000000000E+00  0.00000000000E+00  0.50000000000E+03  0.50000000000E+03  0.00000000000E+00 0. -1.
        -11   -1    0    0    0    0 -0.00000000000E+00 -0.00000000000E+00 -0.50000000000E+03  0.50000000000E+03  0.00000000000E+00 0.  1.
          5    1    1    2  501    0  0.27951553318E+03  0.62358281620E+02  0.40982974687E+03  0.50000000000E+03  0.47000000000E+01 0. -1.
         -5    1    1    2    0  501 -0.27951553318E+03 -0.62358281620E+02 -0.40982974687E+03  0.50000000000E+03  0.47000000000E+01 0.  1.
</event>
<event>
 4    1  0.4924477E-004  0.1000000E+04  0.7546771E-02  0.8684367E-01
         11   -1    0    0    0    0  0.00000000000E+00  0.00000000000E+00  0.50000000000E+03  0.50000000000E+03  0.00000000000E+00 0. -1.
        -11   -1    0    0    0    0 -0.00000000000E+00 -0.00000000000E+00 -0.50000000000E+03  0.50000000000E+03  0.00000000000E+00 0.  1.
          5    1    1    2  501    0 -0.57480543279E+02  0.18922073630E+03  0.45920519389E+03  0.50000000000E+03  0.47000000000E+01 0. -1.
         -5    1    1    2    0  501  0.57480543279E+02 -0.18922073630E+03 -0.45920519389E+03  0.50000000000E+03  0.47000000000E+01 0.  1.
</event>
<event>
 4    1  0.4924477E-004  0.1000000E+04  0.7546771E-02  0.8684367E-01
         11   -1    0    0    0    0  0.00000000000E+00  0.00000000000E+00  0.50000000000E+03  0.50000000000E+03  0.00000000000E+00 0.  1.
        -11   -1    0    0    0    0 -0.00000000000E+00 -0.00000000000E+00 -0.50000000000E+03  0.50000000000E+03  0.00000000000E+00 0. -1.
          5    1    1    2  501    0 -0.12382927270E+03  0.30837921896E+03  0.37355920353E+03  0.50000000000E+03  0.47000000000E+01 0.  1.
         -5    1    1    2    0  501  0.12382927270E+03 -0.30837921896E+03 -0.37355920353E+03  0.50000000000E+03  0.47000000000E+01 0. -1.
</event>
<event>
 4    1  0.4924477E-004  0.1000000E+04  0.7546771E-02  0.8684367E-01
         11   -1    0    0    0    0  0.00000000000E+00  0.00000000000E+00  0.50000000000E+03  0.50000000000E+03  0.00000000000E+00 0. -1.
        -11   -1    0    0    0    0 -0.00000000000E+00 -0.00000000000E+00 -0.50000000000E+03  0.50000000000E+03  0.00000000000E+00 0.  1.
          5    1    1    2  501    0  0.23873126315E+03 -0.94801080941E+02  0.42894993769E+03  0.50000000000E+03  0.47000000000E+01 0. -1.
         -5    1    1    2    0  501 -0.23873126315E+03  0.94801080941E+02 -0.42894993769E+03  0.50000000000E+03  0.47000000000E+01 0.  1.
</event>
<event>
 4    1  0.4924477E-004  0.1000000E+04  0.7546771E-02  0.8684367E-01
         11   -1    0    0    0    0  0.00000000000E+00  0.00000000000E+00  0.50000000000E+03  0.50000000000E+03  0.00000000000E+00 0.  1.
        -11   -1    0    0    0    0 -0.00000000000E+00 -0.00000000000E+00 -0.50000000000E+03  0.50000000000E+03  0.00000000000E+00 0. -1.
          5    1    1    2  501    0 -0.35969704909E+03  0.29885007747E+03  0.17687445852E+03  0.50000000000E+03  0.47000000000E+01 0.  1.
         -5    1    1    2    0  501  0.35969704909E+03 -0.29885007747E+03 -0.17687445852E+03  0.50000000000E+03  0.47000000000E+01 0. -1.
</event>
<event>
 4    1  0.4924477E-004  0.1000000E+04  0.7546771E-02  0.8684367E-01
         11   -1    0    0    0    0  0.00000000000E+00  0.00000000000E+00  0.50000000000E+03  0.50000000000E+03  0.00000000000E+00 0. -1.
        -11   -1    0    0    0    0 -0.00000000000E+00 -0.00000000000E+00 -0.50000000000E+03  0.50000000000E+03  0.00000000000E+00 0.  1.
          5    1    1    2  501    0  0.49713553975E+03  0.40973136128E+02 -0.33990693279E+02  0.50000000000E+03  0.47000000000E+01 0. -1.
         -5    1    1    2    0  501 -0.49713553975E+03 -0.40973136128E+02  0.33990693279E+02  0.50000000000E+03  0.47000000000E+01 0.  1.
</event>
<event>
 4    1  0.4924477E-004  0.1000000E+04  0.7546771E-02  0.8684367E-01
         11   -1    0    0    0    0  0.00000000000E+00  0.00000000000E+00  0.50000000000E+03  0.50000000000E+03  0.00000000000E+00 0. -1.
        -11   -1    0    0    0    0 -0.00000000000E+00 -0.00000000000E+00 -0.50000000000E+03  0.50000000000E+03  0.00000000000E+00 0.  1.
          5    1    1    2  501    0 -0.40920181298E+03  0.22410343148E+03  0.17974826357E+03  0.50000000000E+03  0.47000000000E+01 0. -1.
         -5    1    1    2    0  501  0.40920181298E+03 -0.22410343148E+03 -0.17974826357E+03  0.50000000000E+03  0.47000000000E+01 0.  1.
</event>
<event>
 4    1  0.4924477E-004  0.1000000E+04  0.7546771E-02  0.8684367E-01
         11   -1    0    0    0    0  0.00000000000E+00  0.00000000000E+00  0.50000000000E+03  0.50000000000E+03  0.00000000000E+00 0. -1.
        -11   -1    0    0    0    0 -0.00000000000E+00 -0.00000000000E+00 -0.50000000000E+03  0.50000000000E+03  0.00000000000E+00 0.  1.
          5    1    1    2  501    0  0.43198646445E+03  0.22593584892E+03 -0.11098917382E+03  0.50000000000E+03  0.47000000000E+01 0. -1.
         -5    1    1    2    0  501 -0.43198646445E+03 -0.22593584892E+03  0.11098917382E+03  0.50000000000E+03  0.47000000000E+01 0.  1.
</event>
<event>
 4    1  0.4924477E-004  0.1000000E+04  0.7546771E-02  0.8684367E-01
         11   -1    0    0    0    0  0.00000000000E+00  0.00000000000E+00  0.50000000000E+03  0.50000000000E+03  0.00000000000E+00 0. -1.
        -11   -1    0    0    0    0 -0.00000000000E+00 -0.00000000000E+00 -0.50000000000E+03  0.50000000000E+03  0.00000000000E+00 0.  1.
          5    1    1    2  501    0 -0.42980509097E+03  0.10370417305E+03  0.23343294169E+03  0.50000000000E+03  0.47000000000E+01 0. -1.
         -5    1    1    2    0  501  0.42980509097E+03 -0.10370417305E+03 -0.23343294169E+03  0.50000000000E+03  0.47000000000E+01 0.  1.
</event>
<event>
 4    1  0.4924477E-004  0.1000000E+04  0.7546771E-02  0.8684367E-01
         11   -1    0    0    0    0  0.00000000000E+00  0.00000000000E+00  0.50000000000E+03  0.50000000000E+03  0.00000000000E+00 0.  1.
        -11   -1    0    0    0    0 -0.00000000000E+00 -0.00000000000E+00 -0.50000000000E+03  0.50000000000E+03  0.00000000000E+00 0. -1.
          5    1    1    2  501    0  0.25280470204E+03  0.34532335623E+03  0.25849462716E+03  0.50000000000E+03  0.47000000000E+01 0.  1.
         -5    1    1    2    0  501 -0.25280470204E+03 -0.34532335623E+03 -0.25849462716E+03  0.50000000000E+03  0.47000000000E+01 0. -1.
</event>
<event>
 4    1  0.4924477E-004  0.1000000E+04  0.7546771E-02  0.8684367E-01
         11   -1    0    0    0    0  0.00000000000E+00  0.00000000000E+00  0.50000000000E+03  0.50000000000E+03  0.00000000000E+00 0. -1.
        -11   -1    0    0    0    0 -0.00000000000E+00 -0.00000000000E+00 -0.50000000000E+03  0.50000000000E+03  0.00000000000E+00 0.  1.
          5    1    1    2  501    0 -0.11917825453E+03 -0.41063621699E+03  0.25913770652E+03  0.50000000000E+03  0.47000000000E+01 0. -1.
         -5    1    1    2    0  501  0.11917825453E+03  0.41063621699E+03 -0.25913770652E+03  0.50000000000E+03  0.47000000000E+01 0.  1.
</event>
<event>
 4    1  0.4924477E-004  0.1000000E+04  0.7546771E-02  0.8684367E-01
         11   -1    0    0    0    0  0.00000000000E+00  0.00000000000E+00  0.50000000000E+03  0.50000000000E+03  0.00000000000E+00 0.  1.
        -11   -1    0    0    0    0 -0.00000000000E+00 -0.00000000000E+00 -0.50000000000E+03  0.50000000000E+03  0.00000000000E+00 0. -1.
          5    1    1    2  501    0  0.38550829228E+03  0.16615164776E+03  0.27157852737E+03  0.50000000000E+03  0.47000000000E+01 0.  1.
         -5    1    1    2    0  501 -0.38550829228E+03 -0.16615164776E+03 -0.27157852737E+03  0.50000000000E+03  0.47000000000E+01 0. -1.
</event>
<event>
 4    1  0.4924477E-004  0.1000000E+04  0.7546771E-02  0.8684367E-01
         11   -1    0    0    0    0  0.00000000000E+00  0.00000000000E+00  0.50000000000E+03  0.50000000000E+03  0.00000000000E+00 0. -1.
        -11   -1    0    0    0    0 -0.00000000000E+00 -0.00000000000E+00 -0.50000000000E+03  0.50000000000E+03  0.00000000000E+00 0.  1.
          5    1    1    2  501    0 -0.29524757064E+03  0.17110851859E+03  0.36541573159E+03  0.50000000000E+03  0.47000000000E+01 0. -1.
         -5    1    1    2    0  501  0.29524757064E+03 -0.17110851859E+03 -0.36541573159E+03  0.50000000000E+03  0.47000000000E+01 0.  1.
</event>
<event>
 4    1  0.4924477E-004  0.1000000E+04  0.7546771E-02  0.8684367E-01
         11   -1    0    0    0    0  0.00000000000E+00  0.00000000000E+00  0.50000000000E+03  0.50000000000E+03  0.00000000000E+00 0.  1.
        -11   -1    0    0    0    0 -0.00000000000E+00 -0.00000000000E+00 -0.50000000000E+03  0.50000000000E+03  0.00000000000E+00 0. -1.
          5    1    1    2  501    0  0.22518551350E+02 -0.17309305131E+03  0.46851853798E+03  0.50000000000E+03  0.47000000000E+01 0.  1.
         -5    1    1    2    0  501 -0.22518551350E+02  0.17309305131E+03 -0.46851853798E+03  0.50000000000E+03  0.47000000000E+01 0. -1.
</event>
<event>
 4    1  0.4924477E-004  0.1000000E+04  0.7546771E-02  0.8684367E-01
         11   -1    0    0    0    0  0.00000000000E+00  0.00000000000E+00  0.50000000000E+03  0.50000000000E+03  0.00000000000E+00 0. -1.
        -11   -1    0    0    0    0 -0.00000000000E+00 -0.00000000000E+00 -0.50000000000E+03  0.50000000000E+03  0.00000000000E+00 0.  1.
          5    1    1    2  501    0 -0.15405668786E+03 -0.15828223754E+03  0.44854339835E+03  0.50000000000E+03  0.47000000000E+01 0. -1.
         -5    1    1    2    0  501  0.15405668786E+03  0.15828223754E+03 -0.44854339835E+03  0.50000000000E+03  0.47000000000E+01 0.  1.
</event>
<event>
 4    1  0.4924477E-004  0.1000000E+04  0.7546771E-02  0.8684367E-01
         11   -1    0    0    0    0  0.00000000000E+00  0.00000000000E+00  0.50000000000E+03  0.50000000000E+03  0.00000000000E+00 0.  1.
        -11   -1    0    0    0    0 -0.00000000000E+00 -0.00000000000E+00 -0.50000000000E+03  0.50000000000E+03  0.00000000000E+00 0. -1.
          5    1    1    2  501    0 -0.34701943772E+03  0.26450942451E+03  0.24411100793E+03  0.50000000000E+03  0.47000000000E+01 0.  1.
         -5    1    1    2    0  501  0.34701943772E+03 -0.26450942451E+03 -0.24411100793E+03  0.50000000000E+03  0.47000000000E+01 0. -1.
</event>
<event>
 4    1  0.4924477E-004  0.1000000E+04  0.7546771E-02  0.8684367E-01
         11   -1    0    0    0    0  0.00000000000E+00  0.00000000000E+00  0.50000000000E+03  0.50000000000E+03  0.00000000000E+00 0. -1.
        -11   -1    0    0    0    0 -0.00000000000E+00 -0.00000000000E+00 -0.50000000000E+03  0.50000000000E+03  0.00000000000E+00 0.  1.
          5    1    1    2  501    0  0.43100713599E+03  0.21968089174E+03  0.12629752383E+03  0.50000000000E+03  0.47000000000E+01 0. -1.
         -5    1    1    2    0  501 -0.43100713599E+03 -0.21968089174E+03 -0.12629752383E+03  0.50000000000E+03  0.47000000000E+01 0.  1.
</event>
<event>
 4    1  0.4924477E-004  0.1000000E+04  0.7546771E-02  0.8684367E-01
         11   -1    0    0    0    0  0.00000000000E+00  0.00000000000E+00  0.50000000000E+03  0.50000000000E+03  0.00000000000E+00 0. -1.
        -11   -1    0    0    0    0 -0.00000000000E+00 -0.00000000000E+00 -0.50000000000E+03  0.50000000000E+03  0.00000000000E+00 0.  1.
          5    1    1    2  501    0 -0.14485976877E+03  0.18340101356E+03  0.44199278910E+03  0.50000000000E+03  0.47000000000E+01 0. -1.
         -5    1    1    2    0  501  0.14485976877E+03 -0.18340101356E+03 -0.44199278910E+03  0.50000000000E+03  0.47000000000E+01 0.  1.
</event>
<event>
 4    1  0.4924477E-004  0.1000000E+04  0.7546771E-02  0.8684367E-01
         11   -1    0    0    0    0  0.00000000000E+00  0.00000000000E+00  0.50000000000E+03  0.50000000000E+03  0.00000000000E+00 0. -1.
        -11   -1    0    0    0    0 -0.00000000000E+00 -0.00000000000E+00 -0.50000000000E+03  0.50000000000E+03  0.00000000000E+00 0.  1.
          5    1    1    2  501    0 -0.98028855940E+02 -0.45490951399E+03  0.18282665967E+03  0.50000000000E+03  0.47000000000E+01 0. -1.
         -5    1    1    2    0  501  0.98028855940E+02  0.45490951399E+03 -0.18282665967E+03  0.50000000000E+03  0.47000000000E+01 0.  1.
</event>
<event>
 4    1  0.4924477E-004  0.1000000E+04  0.7546771E-02  0.8684367E-01
         11   -1    0    0    0    0  0.00000000000E+00  0.00000000000E+00  0.50000000000E+03  0.50000000000E+03  0.00000000000E+00 0. -1.
        -11   -1    0    0    0    0 -0.00000000000E+00 -0.00000000000E+00 -0.50000000000E+03  0.50000000000E+03  0.00000000000E+00 0.  1.
          5    1    1    2  501    0  0.94903842604E+02 -0.35348494489E+03  0.34061644762E+03  0.50000000000E+03  0.47000000000E+01 0. -1.
         -5    1    1    2    0  501 -0.94903842604E+02  0.35348494489E+03 -0.34061644762E+03  0.50000000000E+03  0.47000000000E+01 0.  1.
</event>
<event>
 4    1  0.4924477E-004  0.1000000E+04  0.7546771E-02  0.8684367E-01
         11   -1    0    0    0    0  0.00000000000E+00  0.00000000000E+00  0.50000000000E+03  0.50000000000E+03  0.00000000000E+00 0. -1.
        -11   -1    0    0    0    0 -0.00000000000E+00 -0.00000000000E+00 -0.50000000000E+03  0.50000000000E+03  0.00000000000E+00 0.  1.
          5    1    1    2  501    0  0.36756467033E+03  0.87729971235E+02  0.32737986388E+03  0.50000000000E+03  0.47000000000E+01 0. -1.
         -5    1    1    2    0  501 -0.36756467033E+03 -0.87729971235E+02 -0.32737986388E+03  0.50000000000E+03  0.47000000000E+01 0.  1.
</event>
<event>
 4    1  0.4924477E-004  0.1000000E+04  0.7546771E-02  0.8684367E-01
         11   -1    0    0    0    0  0.00000000000E+00  0.00000000000E+00  0.50000000000E+03  0.50000000000E+03  0.00000000000E+00 0. -1.
        -11   -1    0    0    0    0 -0.00000000000E+00 -0.00000000000E+00 -0.50000000000E+03  0.50000000000E+03  0.00000000000E+00 0.  1.
          5    1    1    2  501    0  0.46734687621E+03 -0.14996998149E+03  0.95256558553E+02  0.50000000000E+03  0.47000000000E+01 0. -1.
         -5    1    1    2    0  501 -0.46734687621E+03  0.14996998149E+03 -0.95256558553E+02  0.50000000000E+03  0.47000000000E+01 0.  1.
</event>
<event>
 4    1  0.4924477E-004  0.1000000E+04  0.7546771E-02  0.8684367E-01
         11   -1    0    0    0    0  0.00000000000E+00  0.00000000000E+00  0.50000000000E+03  0.50000000000E+03  0.00000000000E+00 0. -1.
        -11   -1    0    0    0    0 -0.00000000000E+00 -0.00000000000E+00 -0.50000000000E+03  0.50000000000E+03  0.00000000000E+00 0.  1.
          5    1    1    2  501    0 -0.33035408330E+03 -0.11688920402E+03  0.35662445743E+03  0.50000000000E+03  0.47000000000E+01 0. -1.
         -5    1    1    2    0  501  0.33035408330E+03  0.11688920402E+03 -0.35662445743E+03  0.50000000000E+03  0.47000000000E+01 0.  1.
</event>
<event>
 4    1  0.4924477E-004  0.1000000E+04  0.7546771E-02  0.8684367E-01
         11   -1    0    0    0    0  0.00000000000E+00  0.00000000000E+00  0.50000000000E+03  0.50000000000E+03  0.00000000000E+00 0. -1.
        -11   -1    0    0    0    0 -0.00000000000E+00 -0.00000000000E+00 -0.50000000000E+03  0.50000000000E+03  0.00000000000E+00 0.  1.
          5    1    1    2  501    0  0.35433900049E+03 -0.32101745186E+03  0.14618337228E+03  0.50000000000E+03  0.47000000000E+01 0. -1.
         -5    1    1    2    0  501 -0.35433900049E+03  0.32101745186E+03 -0.14618337228E+03  0.50000000000E+03  0.47000000000E+01 0.  1.
</event>
<event>
 4    1  0.4924477E-004  0.1000000E+04  0.7546771E-02  0.8684367E-01
         11   -1    0    0    0    0  0.00000000000E+00  0.00000000000E+00  0.50000000000E+03  0.50000000000E+03  0.00000000000E+00 0. -1.
        -11   -1    0    0    0    0 -0.00000000000E+00 -0.00000000000E+00 -0.50000000000E+03  0.50000000000E+03  0.00000000000E+00 0.  1.
          5    1    1    2  501    0  0.36319314021E+03 -0.32065577160E+03  0.12348493447E+03  0.50000000000E+03  0.47000000000E+01 0. -1.
         -5    1    1    2    0  501 -0.36319314021E+03  0.32065577160E+03 -0.12348493447E+03  0.50000000000E+03  0.47000000000E+01 0.  1.
</event>
<event>
 4    1  0.4924477E-004  0.1000000E+04  0.7546771E-02  0.8684367E-01
         11   -1    0    0    0    0  0.00000000000E+00  0.00000000000E+00  0.50000000000E+03  0.50000000000E+03  0.00000000000E+00 0. -1.
        -11   -1    0    0    0    0 -0.00000000000E+00 -0.00000000000E+00 -0.50000000000E+03  0.50000000000E+03  0.00000000000E+00 0.  1.
          5    1    1    2  501    0 -0.20422041546E+03 -0.42844366986E+03  0.15718763840E+03  0.50000000000E+03  0.47000000000E+01 0. -1.
         -5    1    1    2    0  501  0.20422041546E+03  0.42844366986E+03 -0.15718763840E+03  0.50000000000E+03  0.47000000000E+01 0.  1.
</event>
<event>
 4    1  0.4924477E-004  0.1000000E+04  0.7546771E-02  0.8684367E-01
         11   -1    0    0    0    0  0.00000000000E+00  0.00000000000E+00  0.50000000000E+03  0.50000000000E+03  0.00000000000E+00 0. -1.
        -11   -1    0    0    0    0 -0.00000000000E+00 -0.00000000000E+00 -0.50000000000E+03  0.50000000000E+03  0.00000000000E+00 0.  1.
          5    1    1    2  501    0 -0.34776800395E+03 -0.16908616880E+03  0.31693089617E+03  0.50000000000E+03  0.47000000000E+01 0. -1.
         -5    1    1    2    0  501  0.34776800395E+03  0.16908616880E+03 -0.31693089617E+03  0.50000000000E+03  0.47000000000E+01 0.  1.
</event>
<event>
 4    1  0.4924477E-004  0.1000000E+04  0.7546771E-02  0.8684367E-01
         11   -1    0    0    0    0  0.00000000000E+00  0.00000000000E+00  0.50000000000E+03  0.50000000000E+03  0.00000000000E+00 0. -1.
        -11   -1    0    0    0    0 -0.00000000000E+00 -0.00000000000E+00 -0.50000000000E+03  0.50000000000E+03  0.00000000000E+00 0.  1.
          5    1    1    2  501    0  0.67251347977E+02 -0.85578822892E+02  0.48798712203E+03  0.50000000000E+03  0.47000000000E+01 0. -1.
         -5    1    1    2    0  501 -0.67251347977E+02  0.85578822892E+02 -0.48798712203E+03  0.50000000000E+03  0.47000000000E+01 0.  1.
</event>
<event>
 4    1  0.4924477E-004  0.1000000E+04  0.7546771E-02  0.8684367E-01
         11   -1    0    0    0    0  0.00000000000E+00  0.00000000000E+00  0.50000000000E+03  0.50000000000E+03  0.00000000000E+00 0. -1.
        -11   -1    0    0    0    0 -0.00000000000E+00 -0.00000000000E+00 -0.50000000000E+03  0.50000000000E+03  0.00000000000E+00 0.  1.
          5    1    1    2  501    0 -0.41777435709E+03  0.23934990446E+03  0.13473722496E+03  0.50000000000E+03  0.47000000000E+01 0. -1.
         -5    1    1    2    0  501  0.41777435709E+03 -0.23934990446E+03 -0.13473722496E+03  0.50000000000E+03  0.47000000000E+01 0.  1.
</event>
<event>
 4    1  0.4924477E-004  0.1000000E+04  0.7546771E-02  0.8684367E-01
         11   -1    0    0    0    0  0.00000000000E+00  0.00000000000E+00  0.50000000000E+03  0.50000000000E+03  0.00000000000E+00 0. -1.
        -11   -1    0    0    0    0 -0.00000000000E+00 -0.00000000000E+00 -0.50000000000E+03  0.50000000000E+03  0.00000000000E+00 0.  1.
          5    1    1    2  501    0 -0.66797974990E+02 -0.10772984131E+03  0.48364265923E+03  0.50000000000E+03  0.47000000000E+01 0. -1.
         -5    1    1    2    0  501  0.66797974990E+02  0.10772984131E+03 -0.48364265923E+03  0.50000000000E+03  0.47000000000E+01 0.  1.
</event>
<event>
 4    1  0.4924477E-004  0.1000000E+04  0.7546771E-02  0.8684367E-01
         11   -1    0    0    0    0  0.00000000000E+00  0.00000000000E+00  0.50000000000E+03  0.50000000000E+03  0.00000000000E+00 0. -1.
        -11   -1    0    0    0    0 -0.00000000000E+00 -0.00000000000E+00 -0.50000000000E+03  0.50000000000E+03  0.00000000000E+00 0.  1.
          5    1    1    2  501    0 -0.32070173865E+03 -0.27205591932E+03  0.27039578693E+03  0.50000000000E+03  0.47000000000E+01 0. -1.
         -5    1    1    2    0  501  0.32070173865E+03  0.27205591932E+03 -0.27039578693E+03  0.50000000000E+03  0.47000000000E+01 0.  1.
</event>
<event>
 4    1  0.4924477E-004  0.1000000E+04  0.7546771E-02  0.8684367E-01
         11   -1    0    0    0    0  0.00000000000E+00  0.00000000000E+00  0.50000000000E+03  0.50000000000E+03  0.00000000000E+00 0. -1.
        -11   -1    0    0    0    0 -0.00000000000E+00 -0.00000000000E+00 -0.50000000000E+03  0.50000000000E+03  0.00000000000E+00 0.  1.
          5    1    1    2  501    0 -0.31530518322E+03  0.33854933363E+02  0.38654158239E+03  0.50000000000E+03  0.47000000000E+01 0. -1.
         -5    1    1    2    0  501  0.31530518322E+03 -0.33854933363E+02 -0.38654158239E+03  0.50000000000E+03  0.47000000000E+01 0.  1.
</event>
<event>
 4    1  0.4924477E-004  0.1000000E+04  0.7546771E-02  0.8684367E-01
         11   -1    0    0    0    0  0.00000000000E+00  0.00000000000E+00  0.50000000000E+03  0.50000000000E+03  0.00000000000E+00 0. -1.
        -11   -1    0    0    0    0 -0.00000000000E+00 -0.00000000000E+00 -0.50000000000E+03  0.50000000000E+03  0.00000000000E+00 0.  1.
          5    1    1    2  501    0  0.19667941178E+03 -0.29388218150E+03  0.35345209347E+03  0.50000000000E+03  0.47000000000E+01 0. -1.
         -5    1    1    2    0  501 -0.19667941178E+03  0.29388218150E+03 -0.35345209347E+03  0.50000000000E+03  0.47000000000E+01 0.  1.
</event>
<event>
 4    1  0.4924477E-004  0.1000000E+04  0.7546771E-02  0.8684367E-01
         11   -1    0    0    0    0  0.00000000000E+00  0.00000000000E+00  0.50000000000E+03  0.50000000000E+03  0.00000000000E+00 0.  1.
        -11   -1    0    0    0    0 -0.00000000000E+00 -0.00000000000E+00 -0.50000000000E+03  0.50000000000E+03  0.00000000000E+00 0. -1.
          5    1    1    2  501    0 -0.49618004111E+02 -0.10161499045E+03  0.48702192700E+03  0.50000000000E+03  0.47000000000E+01 0.  1.
         -5    1    1    2    0  501  0.49618004111E+02  0.10161499045E+03 -0.48702192700E+03  0.50000000000E+03  0.47000000000E+01 0. -1.
</event>
<event>
 4    1  0.4924477E-004  0.1000000E+04  0.7546771E-02  0.8684367E-01
         11   -1    0    0    0    0  0.00000000000E+00  0.00000000000E+00  0.50000000000E+03  0.50000000000E+03  0.00000000000E+00 0.  1.
        -11   -1    0    0    0    0 -0.00000000000E+00 -0.00000000000E+00 -0.50000000000E+03  0.50000000000E+03  0.00000000000E+00 0. -1.
          5    1    1    2  501    0  0.16505467605E+03  0.10266285613E+03  0.46064650426E+03  0.50000000000E+03  0.47000000000E+01 0.  1.
         -5    1    1    2    0  501 -0.16505467605E+03 -0.10266285613E+03 -0.46064650426E+03  0.50000000000E+03  0.47000000000E+01 0. -1.
</event>
<event>
 4    1  0.4924477E-004  0.1000000E+04  0.7546771E-02  0.8684367E-01
         11   -1    0    0    0    0  0.00000000000E+00  0.00000000000E+00  0.50000000000E+03  0.50000000000E+03  0.00000000000E+00 0. -1.
        -11   -1    0    0    0    0 -0.00000000000E+00 -0.00000000000E+00 -0.50000000000E+03  0.50000000000E+03  0.00000000000E+00 0.  1.
          5    1    1    2  501    0  0.26575226513E-01  0.36160307431E+03 -0.34528412350E+03  0.50000000000E+03  0.47000000000E+01 0.  1.
         -5    1    1    2    0  501 -0.26575226513E-01 -0.36160307431E+03  0.34528412350E+03  0.50000000000E+03  0.47000000000E+01 0. -1.
</event>
<event>
 4    1  0.4924477E-004  0.1000000E+04  0.7546771E-02  0.8684367E-01
         11   -1    0    0    0    0  0.00000000000E+00  0.00000000000E+00  0.50000000000E+03  0.50000000000E+03  0.00000000000E+00 0. -1.
        -11   -1    0    0    0    0 -0.00000000000E+00 -0.00000000000E+00 -0.50000000000E+03  0.50000000000E+03  0.00000000000E+00 0.  1.
          5    1    1    2  501    0  0.24552856976E+03 -0.16827454258E+03  0.40171794801E+03  0.50000000000E+03  0.47000000000E+01 0. -1.
         -5    1    1    2    0  501 -0.24552856976E+03  0.16827454258E+03 -0.40171794801E+03  0.50000000000E+03  0.47000000000E+01 0.  1.
</event>
<event>
 4    1  0.4924477E-004  0.1000000E+04  0.7546771E-02  0.8684367E-01
         11   -1    0    0    0    0  0.00000000000E+00  0.00000000000E+00  0.50000000000E+03  0.50000000000E+03  0.00000000000E+00 0. -1.
        -11   -1    0    0    0    0 -0.00000000000E+00 -0.00000000000E+00 -0.50000000000E+03  0.50000000000E+03  0.00000000000E+00 0.  1.
          5    1    1    2  501    0 -0.22589886268E+03  0.14822142060E+02  0.44578909581E+03  0.50000000000E+03  0.47000000000E+01 0. -1.
         -5    1    1    2    0  501  0.22589886268E+03 -0.14822142060E+02 -0.44578909581E+03  0.50000000000E+03  0.47000000000E+01 0.  1.
</event>
<event>
 4    1  0.4924477E-004  0.1000000E+04  0.7546771E-02  0.8684367E-01
         11   -1    0    0    0    0  0.00000000000E+00  0.00000000000E+00  0.50000000000E+03  0.50000000000E+03  0.00000000000E+00 0. -1.
        -11   -1    0    0    0    0 -0.00000000000E+00 -0.00000000000E+00 -0.50000000000E+03  0.50000000000E+03  0.00000000000E+00 0.  1.
          5    1    1    2  501    0 -0.26734884172E+03 -0.32348991896E+03  0.27176603755E+03  0.50000000000E+03  0.47000000000E+01 0. -1.
         -5    1    1    2    0  501  0.26734884172E+03  0.32348991896E+03 -0.27176603755E+03  0.50000000000E+03  0.47000000000E+01 0.  1.
</event>
<event>
 4    1  0.4924477E-004  0.1000000E+04  0.7546771E-02  0.8684367E-01
         11   -1    0    0    0    0  0.00000000000E+00  0.00000000000E+00  0.50000000000E+03  0.50000000000E+03  0.00000000000E+00 0. -1.
        -11   -1    0    0    0    0 -0.00000000000E+00 -0.00000000000E+00 -0.50000000000E+03  0.50000000000E+03  0.00000000000E+00 0.  1.
          5    1    1    2  501    0  0.15733381989E+03  0.14114996716E+03  0.45310116518E+03  0.50000000000E+03  0.47000000000E+01 0. -1.
         -5    1    1    2    0  501 -0.15733381989E+03 -0.14114996716E+03 -0.45310116518E+03  0.50000000000E+03  0.47000000000E+01 0.  1.
</event>
<event>
 4    1  0.4924477E-004  0.1000000E+04  0.7546771E-02  0.8684367E-01
         11   -1    0    0    0    0  0.00000000000E+00  0.00000000000E+00  0.50000000000E+03  0.50000000000E+03  0.00000000000E+00 0.  1.
        -11   -1    0    0    0    0 -0.00000000000E+00 -0.00000000000E+00 -0.50000000000E+03  0.50000000000E+03  0.00000000000E+00 0. -1.
          5    1    1    2  501    0  0.29085439943E+03 -0.70771837118E+02  0.40046594787E+03  0.50000000000E+03  0.47000000000E+01 0.  1.
         -5    1    1    2    0  501 -0.29085439943E+03  0.70771837118E+02 -0.40046594787E+03  0.50000000000E+03  0.47000000000E+01 0. -1.
</event>
<event>
 4    1  0.4924477E-004  0.1000000E+04  0.7546771E-02  0.8684367E-01
         11   -1    0    0    0    0  0.00000000000E+00  0.00000000000E+00  0.50000000000E+03  0.50000000000E+03  0.00000000000E+00 0. -1.
        -11   -1    0    0    0    0 -0.00000000000E+00 -0.00000000000E+00 -0.50000000000E+03  0.50000000000E+03  0.00000000000E+00 0.  1.
          5    1    1    2  501    0 -0.34260563027E+02 -0.26006515934E+03  0.42564097161E+03  0.50000000000E+03  0.47000000000E+01 0. -1.
         -5    1    1    2    0  501  0.34260563027E+02  0.26006515934E+03 -0.42564097161E+03  0.50000000000E+03  0.47000000000E+01 0.  1.
</event>
<event>
 4    1  0.4924477E-004  0.1000000E+04  0.7546771E-02  0.8684367E-01
         11   -1    0    0    0    0  0.00000000000E+00  0.00000000000E+00  0.50000000000E+03  0.50000000000E+03  0.00000000000E+00 0.  1.
        -11   -1    0    0    0    0 -0.00000000000E+00 -0.00000000000E+00 -0.50000000000E+03  0.50000000000E+03  0.00000000000E+00 0. -1.
          5    1    1    2  501    0  0.33347748632E+03  0.29217879100E+02  0.37137177014E+03  0.50000000000E+03  0.47000000000E+01 0.  1.
         -5    1    1    2    0  501 -0.33347748632E+03 -0.29217879100E+02 -0.37137177014E+03  0.50000000000E+03  0.47000000000E+01 0. -1.
</event>
<event>
 4    1  0.4924477E-004  0.1000000E+04  0.7546771E-02  0.8684367E-01
         11   -1    0    0    0    0  0.00000000000E+00  0.00000000000E+00  0.50000000000E+03  0.50000000000E+03  0.00000000000E+00 0. -1.
        -11   -1    0    0    0    0 -0.00000000000E+00 -0.00000000000E+00 -0.50000000000E+03  0.50000000000E+03  0.00000000000E+00 0.  1.
          5    1    1    2  501    0 -0.38220565462E+03 -0.15613916835E+03  0.28198813395E+03  0.50000000000E+03  0.47000000000E+01 0. -1.
         -5    1    1    2    0  501  0.38220565462E+03  0.15613916835E+03 -0.28198813395E+03  0.50000000000E+03  0.47000000000E+01 0.  1.
</event>
<event>
 4    1  0.4924477E-004  0.1000000E+04  0.7546771E-02  0.8684367E-01
         11   -1    0    0    0    0  0.00000000000E+00  0.00000000000E+00  0.50000000000E+03  0.50000000000E+03  0.00000000000E+00 0.  1.
        -11   -1    0    0    0    0 -0.00000000000E+00 -0.00000000000E+00 -0.50000000000E+03  0.50000000000E+03  0.00000000000E+00 0. -1.
          5    1    1    2  501    0  0.27145306065E+03  0.41560525939E+03  0.59694340056E+02  0.50000000000E+03  0.47000000000E+01 0.  1.
         -5    1    1    2    0  501 -0.27145306065E+03 -0.41560525939E+03 -0.59694340056E+02  0.50000000000E+03  0.47000000000E+01 0. -1.
</event>
<event>
 4    1  0.4924477E-004  0.1000000E+04  0.7546771E-02  0.8684367E-01
         11   -1    0    0    0    0  0.00000000000E+00  0.00000000000E+00  0.50000000000E+03  0.50000000000E+03  0.00000000000E+00 0. -1.
        -11   -1    0    0    0    0 -0.00000000000E+00 -0.00000000000E+00 -0.50000000000E+03  0.50000000000E+03  0.00000000000E+00 0.  1.
          5    1    1    2  501    0  0.39134729108E+03 -0.14425463716E+03 -0.27570964333E+03  0.50000000000E+03  0.47000000000E+01 0. -1.
         -5    1    1    2    0  501 -0.39134729108E+03  0.14425463716E+03  0.27570964333E+03  0.50000000000E+03  0.47000000000E+01 0.  1.
</event>
<event>
 4    1  0.4924477E-004  0.1000000E+04  0.7546771E-02  0.8684367E-01
         11   -1    0    0    0    0  0.00000000000E+00  0.00000000000E+00  0.50000000000E+03  0.50000000000E+03  0.00000000000E+00 0. -1.
        -11   -1    0    0    0    0 -0.00000000000E+00 -0.00000000000E+00 -0.50000000000E+03  0.50000000000E+03  0.00000000000E+00 0.  1.
          5    1    1    2  501    0 -0.74218599827E+02 -0.43432877113E+03  0.23627955479E+03  0.50000000000E+03  0.47000000000E+01 0. -1.
         -5    1    1    2    0  501  0.74218599827E+02  0.43432877113E+03 -0.23627955479E+03  0.50000000000E+03  0.47000000000E+01 0.  1.
</event>
<event>
 4    1  0.4924477E-004  0.1000000E+04  0.7546771E-02  0.8684367E-01
         11   -1    0    0    0    0  0.00000000000E+00  0.00000000000E+00  0.50000000000E+03  0.50000000000E+03  0.00000000000E+00 0. -1.
        -11   -1    0    0    0    0 -0.00000000000E+00 -0.00000000000E+00 -0.50000000000E+03  0.50000000000E+03  0.00000000000E+00 0.  1.
          5    1    1    2  501    0  0.40034512857E+03 -0.24966395796E+02  0.29845999247E+03  0.50000000000E+03  0.47000000000E+01 0. -1.
         -5    1    1    2    0  501 -0.40034512857E+03  0.24966395796E+02 -0.29845999247E+03  0.50000000000E+03  0.47000000000E+01 0.  1.
</event>
<event>
 4    1  0.4924477E-004  0.1000000E+04  0.7546771E-02  0.8684367E-01
         11   -1    0    0    0    0  0.00000000000E+00  0.00000000000E+00  0.50000000000E+03  0.50000000000E+03  0.00000000000E+00 0. -1.
        -11   -1    0    0    0    0 -0.00000000000E+00 -0.00000000000E+00 -0.50000000000E+03  0.50000000000E+03  0.00000000000E+00 0.  1.
          5    1    1    2  501    0 -0.10040368613E+03  0.25450073791E+03  0.41848104403E+03  0.50000000000E+03  0.47000000000E+01 0. -1.
         -5    1    1    2    0  501  0.10040368613E+03 -0.25450073791E+03 -0.41848104403E+03  0.50000000000E+03  0.47000000000E+01 0.  1.
</event>
<event>
 4    1  0.4924477E-004  0.1000000E+04  0.7546771E-02  0.8684367E-01
         11   -1    0    0    0    0  0.00000000000E+00  0.00000000000E+00  0.50000000000E+03  0.50000000000E+03  0.00000000000E+00 0. -1.
        -11   -1    0    0    0    0 -0.00000000000E+00 -0.00000000000E+00 -0.50000000000E+03  0.50000000000E+03  0.00000000000E+00 0.  1.
          5    1    1    2  501    0  0.12607255833E+03  0.48164012989E+03  0.45895591490E+02  0.50000000000E+03  0.47000000000E+01 0. -1.
         -5    1    1    2    0  501 -0.12607255833E+03 -0.48164012989E+03 -0.45895591490E+02  0.50000000000E+03  0.47000000000E+01 0.  1.
</event>
<event>
 4    1  0.4924477E-004  0.1000000E+04  0.7546771E-02  0.8684367E-01
         11   -1    0    0    0    0  0.00000000000E+00  0.00000000000E+00  0.50000000000E+03  0.50000000000E+03  0.00000000000E+00 0.  1.
        -11   -1    0    0    0    0 -0.00000000000E+00 -0.00000000000E+00 -0.50000000000E+03  0.50000000000E+03  0.00000000000E+00 0. -1.
          5    1    1    2  501    0 -0.89641002959E+02 -0.34618585915E+03  0.34942488680E+03  0.50000000000E+03  0.47000000000E+01 0.  1.
         -5    1    1    2    0  501  0.89641002959E+02  0.34618585915E+03 -0.34942488680E+03  0.50000000000E+03  0.47000000000E+01 0. -1.
</event>
<event>
 4    1  0.4924477E-004  0.1000000E+04  0.7546771E-02  0.8684367E-01
         11   -1    0    0    0    0  0.00000000000E+00  0.00000000000E+00  0.50000000000E+03  0.50000000000E+03  0.00000000000E+00 0.  1.
        -11   -1    0    0    0    0 -0.00000000000E+00 -0.00000000000E+00 -0.50000000000E+03  0.50000000000E+03  0.00000000000E+00 0. -1.
          5    1    1    2  501    0  0.25355109108E+03 -0.25361443329E+02 -0.43017037486E+03  0.50000000000E+03  0.47000000000E+01 0. -1.
         -5    1    1    2    0  501 -0.25355109108E+03  0.25361443329E+02  0.43017037486E+03  0.50000000000E+03  0.47000000000E+01 0.  1.
</event>
<event>
 4    1  0.4924477E-004  0.1000000E+04  0.7546771E-02  0.8684367E-01
         11   -1    0    0    0    0  0.00000000000E+00  0.00000000000E+00  0.50000000000E+03  0.50000000000E+03  0.00000000000E+00 0. -1.
        -11   -1    0    0    0    0 -0.00000000000E+00 -0.00000000000E+00 -0.50000000000E+03  0.50000000000E+03  0.00000000000E+00 0.  1.
          5    1    1    2  501    0  0.29096533998E+03 -0.73044359110E+02  0.39997700251E+03  0.50000000000E+03  0.47000000000E+01 0. -1.
         -5    1    1    2    0  501 -0.29096533998E+03  0.73044359110E+02 -0.39997700251E+03  0.50000000000E+03  0.47000000000E+01 0.  1.
</event>
<event>
 4    1  0.4924477E-004  0.1000000E+04  0.7546771E-02  0.8684367E-01
         11   -1    0    0    0    0  0.00000000000E+00  0.00000000000E+00  0.50000000000E+03  0.50000000000E+03  0.00000000000E+00 0. -1.
        -11   -1    0    0    0    0 -0.00000000000E+00 -0.00000000000E+00 -0.50000000000E+03  0.50000000000E+03  0.00000000000E+00 0.  1.
          5    1    1    2  501    0 -0.15947346947E+03  0.10787542330E+03  0.46142064928E+03  0.50000000000E+03  0.47000000000E+01 0. -1.
         -5    1    1    2    0  501  0.15947346947E+03 -0.10787542330E+03 -0.46142064928E+03  0.50000000000E+03  0.47000000000E+01 0.  1.
</event>
<event>
 4    1  0.4924477E-004  0.1000000E+04  0.7546771E-02  0.8684367E-01
         11   -1    0    0    0    0  0.00000000000E+00  0.00000000000E+00  0.50000000000E+03  0.50000000000E+03  0.00000000000E+00 0. -1.
        -11   -1    0    0    0    0 -0.00000000000E+00 -0.00000000000E+00 -0.50000000000E+03  0.50000000000E+03  0.00000000000E+00 0.  1.
          5    1    1    2  501    0  0.49191667585E+03  0.22578426810E+02  0.86522301527E+02  0.50000000000E+03  0.47000000000E+01 0. -1.
         -5    1    1    2    0  501 -0.49191667585E+03 -0.22578426810E+02 -0.86522301527E+02  0.50000000000E+03  0.47000000000E+01 0.  1.
</event>
<event>
 4    1  0.4924477E-004  0.1000000E+04  0.7546771E-02  0.8684367E-01
         11   -1    0    0    0    0  0.00000000000E+00  0.00000000000E+00  0.50000000000E+03  0.50000000000E+03  0.00000000000E+00 0.  1.
        -11   -1    0    0    0    0 -0.00000000000E+00 -0.00000000000E+00 -0.50000000000E+03  0.50000000000E+03  0.00000000000E+00 0. -1.
          5    1    1    2  501    0  0.55531963760E+02 -0.10237035652E+03  0.48622466115E+03  0.50000000000E+03  0.47000000000E+01 0.  1.
         -5    1    1    2    0  501 -0.55531963760E+02  0.10237035652E+03 -0.48622466115E+03  0.50000000000E+03  0.47000000000E+01 0. -1.
</event>
<event>
 4    1  0.4924477E-004  0.1000000E+04  0.7546771E-02  0.8684367E-01
         11   -1    0    0    0    0  0.00000000000E+00  0.00000000000E+00  0.50000000000E+03  0.50000000000E+03  0.00000000000E+00 0. -1.
        -11   -1    0    0    0    0 -0.00000000000E+00 -0.00000000000E+00 -0.50000000000E+03  0.50000000000E+03  0.00000000000E+00 0.  1.
          5    1    1    2  501    0  0.48403120755E+02  0.40689229780E+03 -0.28648508842E+03  0.50000000000E+03  0.47000000000E+01 0.  1.
         -5    1    1    2    0  501 -0.48403120755E+02 -0.40689229780E+03  0.28648508842E+03  0.50000000000E+03  0.47000000000E+01 0. -1.
</event>
<event>
 4    1  0.4924477E-004  0.1000000E+04  0.7546771E-02  0.8684367E-01
         11   -1    0    0    0    0  0.00000000000E+00  0.00000000000E+00  0.50000000000E+03  0.50000000000E+03  0.00000000000E+00 0. -1.
        -11   -1    0    0    0    0 -0.00000000000E+00 -0.00000000000E+00 -0.50000000000E+03  0.50000000000E+03  0.00000000000E+00 0.  1.
          5    1    1    2  501    0 -0.57792708855E+02 -0.49621863181E+03 -0.20124170647E+02  0.50000000000E+03  0.47000000000E+01 0. -1.
         -5    1    1    2    0  501  0.57792708855E+02  0.49621863181E+03  0.20124170647E+02  0.50000000000E+03  0.47000000000E+01 0.  1.
</event>
<event>
 4    1  0.4924477E-004  0.1000000E+04  0.7546771E-02  0.8684367E-01
         11   -1    0    0    0    0  0.00000000000E+00  0.00000000000E+00  0.50000000000E+03  0.50000000000E+03  0.00000000000E+00 0. -1.
        -11   -1    0    0    0    0 -0.00000000000E+00 -0.00000000000E+00 -0.50000000000E+03  0.50000000000E+03  0.00000000000E+00 0.  1.
          5    1    1    2  501    0 -0.48078354251E+03 -0.12786891674E+03 -0.49745707236E+02  0.50000000000E+03  0.47000000000E+01 0. -1.
         -5    1    1    2    0  501  0.48078354251E+03  0.12786891674E+03  0.49745707236E+02  0.50000000000E+03  0.47000000000E+01 0.  1.
</event>
<event>
 4    1  0.4924477E-004  0.1000000E+04  0.7546771E-02  0.8684367E-01
         11   -1    0    0    0    0  0.00000000000E+00  0.00000000000E+00  0.50000000000E+03  0.50000000000E+03  0.00000000000E+00 0. -1.
        -11   -1    0    0    0    0 -0.00000000000E+00 -0.00000000000E+00 -0.50000000000E+03  0.50000000000E+03  0.00000000000E+00 0.  1.
          5    1    1    2  501    0 -0.19253442821E+03  0.25246075451E+03  0.38622787495E+03  0.50000000000E+03  0.47000000000E+01 0. -1.
         -5    1    1    2    0  501  0.19253442821E+03 -0.25246075451E+03 -0.38622787495E+03  0.50000000000E+03  0.47000000000E+01 0.  1.
</event>
<event>
 4    1  0.4924477E-004  0.1000000E+04  0.7546771E-02  0.8684367E-01
         11   -1    0    0    0    0  0.00000000000E+00  0.00000000000E+00  0.50000000000E+03  0.50000000000E+03  0.00000000000E+00 0. -1.
        -11   -1    0    0    0    0 -0.00000000000E+00 -0.00000000000E+00 -0.50000000000E+03  0.50000000000E+03  0.00000000000E+00 0.  1.
          5    1    1    2  501    0 -0.20695860112E+03  0.43281266203E+03  0.14078084746E+03  0.50000000000E+03  0.47000000000E+01 0. -1.
         -5    1    1    2    0  501  0.20695860112E+03 -0.43281266203E+03 -0.14078084746E+03  0.50000000000E+03  0.47000000000E+01 0.  1.
</event>
<event>
 4    1  0.4924477E-004  0.1000000E+04  0.7546771E-02  0.8684367E-01
         11   -1    0    0    0    0  0.00000000000E+00  0.00000000000E+00  0.50000000000E+03  0.50000000000E+03  0.00000000000E+00 0. -1.
        -11   -1    0    0    0    0 -0.00000000000E+00 -0.00000000000E+00 -0.50000000000E+03  0.50000000000E+03  0.00000000000E+00 0.  1.
          5    1    1    2  501    0  0.11564478913E+03 -0.36427539859E+03  0.32234705944E+03  0.50000000000E+03  0.47000000000E+01 0. -1.
         -5    1    1    2    0  501 -0.11564478913E+03  0.36427539859E+03 -0.32234705944E+03  0.50000000000E+03  0.47000000000E+01 0.  1.
</event>
<event>
 4    1  0.4924477E-004  0.1000000E+04  0.7546771E-02  0.8684367E-01
         11   -1    0    0    0    0  0.00000000000E+00  0.00000000000E+00  0.50000000000E+03  0.50000000000E+03  0.00000000000E+00 0. -1.
        -11   -1    0    0    0    0 -0.00000000000E+00 -0.00000000000E+00 -0.50000000000E+03  0.50000000000E+03  0.00000000000E+00 0.  1.
          5    1    1    2  501    0  0.14314874104E+03  0.23746646798E+03  0.41604810361E+03  0.50000000000E+03  0.47000000000E+01 0. -1.
         -5    1    1    2    0  501 -0.14314874104E+03 -0.23746646798E+03 -0.41604810361E+03  0.50000000000E+03  0.47000000000E+01 0.  1.
</event>
<event>
 4    1  0.4924477E-004  0.1000000E+04  0.7546771E-02  0.8684367E-01
         11   -1    0    0    0    0  0.00000000000E+00  0.00000000000E+00  0.50000000000E+03  0.50000000000E+03  0.00000000000E+00 0. -1.
        -11   -1    0    0    0    0 -0.00000000000E+00 -0.00000000000E+00 -0.50000000000E+03  0.50000000000E+03  0.00000000000E+00 0.  1.
          5    1    1    2  501    0  0.10742271383E+03 -0.48818902601E+03  0.10475945406E+02  0.50000000000E+03  0.47000000000E+01 0.  1.
         -5    1    1    2    0  501 -0.10742271383E+03  0.48818902601E+03 -0.10475945406E+02  0.50000000000E+03  0.47000000000E+01 0. -1.
</event>
<event>
 4    1  0.4924477E-004  0.1000000E+04  0.7546771E-02  0.8684367E-01
         11   -1    0    0    0    0  0.00000000000E+00  0.00000000000E+00  0.50000000000E+03  0.50000000000E+03  0.00000000000E+00 0. -1.
        -11   -1    0    0    0    0 -0.00000000000E+00 -0.00000000000E+00 -0.50000000000E+03  0.50000000000E+03  0.00000000000E+00 0.  1.
          5    1    1    2  501    0 -0.15119908001E+03  0.43856106990E+03  0.18649647763E+03  0.50000000000E+03  0.47000000000E+01 0. -1.
         -5    1    1    2    0  501  0.15119908001E+03 -0.43856106990E+03 -0.18649647763E+03  0.50000000000E+03  0.47000000000E+01 0.  1.
</event>
<event>
 4    1  0.4924477E-004  0.1000000E+04  0.7546771E-02  0.8684367E-01
         11   -1    0    0    0    0  0.00000000000E+00  0.00000000000E+00  0.50000000000E+03  0.50000000000E+03  0.00000000000E+00 0. -1.
        -11   -1    0    0    0    0 -0.00000000000E+00 -0.00000000000E+00 -0.50000000000E+03  0.50000000000E+03  0.00000000000E+00 0.  1.
          5    1    1    2  501    0  0.41203226191E+03  0.27612662656E+03 -0.62939742991E+02  0.50000000000E+03  0.47000000000E+01 0. -1.
         -5    1    1    2    0  501 -0.41203226191E+03 -0.27612662656E+03  0.62939742991E+02  0.50000000000E+03  0.47000000000E+01 0.  1.
</event>
<event>
 4    1  0.4924477E-004  0.1000000E+04  0.7546771E-02  0.8684367E-01
         11   -1    0    0    0    0  0.00000000000E+00  0.00000000000E+00  0.50000000000E+03  0.50000000000E+03  0.00000000000E+00 0. -1.
        -11   -1    0    0    0    0 -0.00000000000E+00 -0.00000000000E+00 -0.50000000000E+03  0.50000000000E+03  0.00000000000E+00 0.  1.
          5    1    1    2  501    0  0.71388219218E+01 -0.33835761483E+03  0.36802319452E+03  0.50000000000E+03  0.47000000000E+01 0. -1.
         -5    1    1    2    0  501 -0.71388219218E+01  0.33835761483E+03 -0.36802319452E+03  0.50000000000E+03  0.47000000000E+01 0.  1.
</event>
<event>
 4    1  0.4924477E-004  0.1000000E+04  0.7546771E-02  0.8684367E-01
         11   -1    0    0    0    0  0.00000000000E+00  0.00000000000E+00  0.50000000000E+03  0.50000000000E+03  0.00000000000E+00 0. -1.
        -11   -1    0    0    0    0 -0.00000000000E+00 -0.00000000000E+00 -0.50000000000E+03  0.50000000000E+03  0.00000000000E+00 0.  1.
          5    1    1    2  501    0 -0.23319281912E+03  0.36573407128E+02  0.44075095576E+03  0.50000000000E+03  0.47000000000E+01 0. -1.
         -5    1    1    2    0  501  0.23319281912E+03 -0.36573407128E+02 -0.44075095576E+03  0.50000000000E+03  0.47000000000E+01 0.  1.
</event>
<event>
 4    1  0.4924477E-004  0.1000000E+04  0.7546771E-02  0.8684367E-01
         11   -1    0    0    0    0  0.00000000000E+00  0.00000000000E+00  0.50000000000E+03  0.50000000000E+03  0.00000000000E+00 0. -1.
        -11   -1    0    0    0    0 -0.00000000000E+00 -0.00000000000E+00 -0.50000000000E+03  0.50000000000E+03  0.00000000000E+00 0.  1.
          5    1    1    2  501    0  0.74433377308E+02 -0.42184509631E+03  0.25784549068E+03  0.50000000000E+03  0.47000000000E+01 0. -1.
         -5    1    1    2    0  501 -0.74433377308E+02  0.42184509631E+03 -0.25784549068E+03  0.50000000000E+03  0.47000000000E+01 0.  1.
</event>
<event>
 4    1  0.4924477E-004  0.1000000E+04  0.7546771E-02  0.8684367E-01
         11   -1    0    0    0    0  0.00000000000E+00  0.00000000000E+00  0.50000000000E+03  0.50000000000E+03  0.00000000000E+00 0. -1.
        -11   -1    0    0    0    0 -0.00000000000E+00 -0.00000000000E+00 -0.50000000000E+03  0.50000000000E+03  0.00000000000E+00 0.  1.
          5    1    1    2  501    0 -0.33293571229E+03 -0.30922348590E+03  0.20859663768E+03  0.50000000000E+03  0.47000000000E+01 0. -1.
         -5    1    1    2    0  501  0.33293571229E+03  0.30922348590E+03 -0.20859663768E+03  0.50000000000E+03  0.47000000000E+01 0.  1.
</event>
<event>
 4    1  0.4924477E-004  0.1000000E+04  0.7546771E-02  0.8684367E-01
         11   -1    0    0    0    0  0.00000000000E+00  0.00000000000E+00  0.50000000000E+03  0.50000000000E+03  0.00000000000E+00 0. -1.
        -11   -1    0    0    0    0 -0.00000000000E+00 -0.00000000000E+00 -0.50000000000E+03  0.50000000000E+03  0.00000000000E+00 0.  1.
          5    1    1    2  501    0 -0.42518071090E+03  0.10930983926E+03  0.23927104321E+03  0.50000000000E+03  0.47000000000E+01 0. -1.
         -5    1    1    2    0  501  0.42518071090E+03 -0.10930983926E+03 -0.23927104321E+03  0.50000000000E+03  0.47000000000E+01 0.  1.
</event>
<event>
 4    1  0.4924477E-004  0.1000000E+04  0.7546771E-02  0.8684367E-01
         11   -1    0    0    0    0  0.00000000000E+00  0.00000000000E+00  0.50000000000E+03  0.50000000000E+03  0.00000000000E+00 0. -1.
        -11   -1    0    0    0    0 -0.00000000000E+00 -0.00000000000E+00 -0.50000000000E+03  0.50000000000E+03  0.00000000000E+00 0.  1.
          5    1    1    2  501    0  0.47537984878E+03  0.82719491068E+01  0.15467218313E+03  0.50000000000E+03  0.47000000000E+01 0. -1.
         -5    1    1    2    0  501 -0.47537984878E+03 -0.82719491068E+01 -0.15467218313E+03  0.50000000000E+03  0.47000000000E+01 0.  1.
</event>
<event>
 4    1  0.4924477E-004  0.1000000E+04  0.7546771E-02  0.8684367E-01
         11   -1    0    0    0    0  0.00000000000E+00  0.00000000000E+00  0.50000000000E+03  0.50000000000E+03  0.00000000000E+00 0. -1.
        -11   -1    0    0    0    0 -0.00000000000E+00 -0.00000000000E+00 -0.50000000000E+03  0.50000000000E+03  0.00000000000E+00 0.  1.
          5    1    1    2  501    0  0.20561518077E+03 -0.18640857624E+02  0.45536010570E+03  0.50000000000E+03  0.47000000000E+01 0. -1.
         -5    1    1    2    0  501 -0.20561518077E+03  0.18640857624E+02 -0.45536010570E+03  0.50000000000E+03  0.47000000000E+01 0.  1.
</event>
<event>
 4    1  0.4924477E-004  0.1000000E+04  0.7546771E-02  0.8684367E-01
         11   -1    0    0    0    0  0.00000000000E+00  0.00000000000E+00  0.50000000000E+03  0.50000000000E+03  0.00000000000E+00 0. -1.
        -11   -1    0    0    0    0 -0.00000000000E+00 -0.00000000000E+00 -0.50000000000E+03  0.50000000000E+03  0.00000000000E+00 0.  1.
          5    1    1    2  501    0 -0.97466390486E+02 -0.19333447165E+03  0.45066616780E+03  0.50000000000E+03  0.47000000000E+01 0. -1.
         -5    1    1    2    0  501  0.97466390486E+02  0.19333447165E+03 -0.45066616780E+03  0.50000000000E+03  0.47000000000E+01 0.  1.
</event>
<event>
 4    1  0.4924477E-004  0.1000000E+04  0.7546771E-02  0.8684367E-01
         11   -1    0    0    0    0  0.00000000000E+00  0.00000000000E+00  0.50000000000E+03  0.50000000000E+03  0.00000000000E+00 0.  1.
        -11   -1    0    0    0    0 -0.00000000000E+00 -0.00000000000E+00 -0.50000000000E+03  0.50000000000E+03  0.00000000000E+00 0. -1.
          5    1    1    2  501    0  0.32016311631E+03 -0.27845328637E+03 -0.26445653001E+03  0.50000000000E+03  0.47000000000E+01 0. -1.
         -5    1    1    2    0  501 -0.32016311631E+03  0.27845328637E+03  0.26445653001E+03  0.50000000000E+03  0.47000000000E+01 0.  1.
</event>
<event>
 4    1  0.4924477E-004  0.1000000E+04  0.7546771E-02  0.8684367E-01
         11   -1    0    0    0    0  0.00000000000E+00  0.00000000000E+00  0.50000000000E+03  0.50000000000E+03  0.00000000000E+00 0. -1.
        -11   -1    0    0    0    0 -0.00000000000E+00 -0.00000000000E+00 -0.50000000000E+03  0.50000000000E+03  0.00000000000E+00 0.  1.
          5    1    1    2  501    0 -0.47381446378E+03 -0.68616238564E+02 -0.14411653521E+03  0.50000000000E+03  0.47000000000E+01 0. -1.
         -5    1    1    2    0  501  0.47381446378E+03  0.68616238564E+02  0.14411653521E+03  0.50000000000E+03  0.47000000000E+01 0.  1.
</event>
<event>
 4    1  0.4924477E-004  0.1000000E+04  0.7546771E-02  0.8684367E-01
         11   -1    0    0    0    0  0.00000000000E+00  0.00000000000E+00  0.50000000000E+03  0.50000000000E+03  0.00000000000E+00 0. -1.
        -11   -1    0    0    0    0 -0.00000000000E+00 -0.00000000000E+00 -0.50000000000E+03  0.50000000000E+03  0.00000000000E+00 0.  1.
          5    1    1    2  501    0  0.46163628369E+02  0.99627832423E+02  0.48777159042E+03  0.50000000000E+03  0.47000000000E+01 0. -1.
         -5    1    1    2    0  501 -0.46163628369E+02 -0.99627832423E+02 -0.48777159042E+03  0.50000000000E+03  0.47000000000E+01 0.  1.
</event>
<event>
 4    1  0.4924477E-004  0.1000000E+04  0.7546771E-02  0.8684367E-01
         11   -1    0    0    0    0  0.00000000000E+00  0.00000000000E+00  0.50000000000E+03  0.50000000000E+03  0.00000000000E+00 0. -1.
        -11   -1    0    0    0    0 -0.00000000000E+00 -0.00000000000E+00 -0.50000000000E+03  0.50000000000E+03  0.00000000000E+00 0.  1.
          5    1    1    2  501    0  0.30811085097E+03 -0.37100511669E+03  0.13191215601E+03  0.50000000000E+03  0.47000000000E+01 0. -1.
         -5    1    1    2    0  501 -0.30811085097E+03  0.37100511669E+03 -0.13191215601E+03  0.50000000000E+03  0.47000000000E+01 0.  1.
</event>
<event>
 4    1  0.4924477E-004  0.1000000E+04  0.7546771E-02  0.8684367E-01
         11   -1    0    0    0    0  0.00000000000E+00  0.00000000000E+00  0.50000000000E+03  0.50000000000E+03  0.00000000000E+00 0.  1.
        -11   -1    0    0    0    0 -0.00000000000E+00 -0.00000000000E+00 -0.50000000000E+03  0.50000000000E+03  0.00000000000E+00 0. -1.
          5    1    1    2  501    0  0.18841322877E+03 -0.44817908853E+02  0.46094437872E+03  0.50000000000E+03  0.47000000000E+01 0.  1.
         -5    1    1    2    0  501 -0.18841322877E+03  0.44817908853E+02 -0.46094437872E+03  0.50000000000E+03  0.47000000000E+01 0. -1.
</event>
<event>
 4    1  0.4924477E-004  0.1000000E+04  0.7546771E-02  0.8684367E-01
         11   -1    0    0    0    0  0.00000000000E+00  0.00000000000E+00  0.50000000000E+03  0.50000000000E+03  0.00000000000E+00 0. -1.
        -11   -1    0    0    0    0 -0.00000000000E+00 -0.00000000000E+00 -0.50000000000E+03  0.50000000000E+03  0.00000000000E+00 0.  1.
          5    1    1    2  501    0 -0.14274972010E+03  0.43937682049E+03  0.19117645521E+03  0.50000000000E+03  0.47000000000E+01 0. -1.
         -5    1    1    2    0  501  0.14274972010E+03 -0.43937682049E+03 -0.19117645521E+03  0.50000000000E+03  0.47000000000E+01 0.  1.
</event>
<event>
 4    1  0.4924477E-004  0.1000000E+04  0.7546771E-02  0.8684367E-01
         11   -1    0    0    0    0  0.00000000000E+00  0.00000000000E+00  0.50000000000E+03  0.50000000000E+03  0.00000000000E+00 0. -1.
        -11   -1    0    0    0    0 -0.00000000000E+00 -0.00000000000E+00 -0.50000000000E+03  0.50000000000E+03  0.00000000000E+00 0.  1.
          5    1    1    2  501    0  0.10762468620E+03 -0.32661920723E+03 -0.36292524077E+03  0.50000000000E+03  0.47000000000E+01 0.  1.
         -5    1    1    2    0  501 -0.10762468620E+03  0.32661920723E+03  0.36292524077E+03  0.50000000000E+03  0.47000000000E+01 0. -1.
</event>
<event>
 4    1  0.4924477E-004  0.1000000E+04  0.7546771E-02  0.8684367E-01
         11   -1    0    0    0    0  0.00000000000E+00  0.00000000000E+00  0.50000000000E+03  0.50000000000E+03  0.00000000000E+00 0. -1.
        -11   -1    0    0    0    0 -0.00000000000E+00 -0.00000000000E+00 -0.50000000000E+03  0.50000000000E+03  0.00000000000E+00 0.  1.
          5    1    1    2  501    0  0.79454435817E+02 -0.32284706949E+03  0.37340952365E+03  0.50000000000E+03  0.47000000000E+01 0. -1.
         -5    1    1    2    0  501 -0.79454435817E+02  0.32284706949E+03 -0.37340952365E+03  0.50000000000E+03  0.47000000000E+01 0.  1.
</event>
<event>
 4    1  0.4924477E-004  0.1000000E+04  0.7546771E-02  0.8684367E-01
         11   -1    0    0    0    0  0.00000000000E+00  0.00000000000E+00  0.50000000000E+03  0.50000000000E+03  0.00000000000E+00 0. -1.
        -11   -1    0    0    0    0 -0.00000000000E+00 -0.00000000000E+00 -0.50000000000E+03  0.50000000000E+03  0.00000000000E+00 0.  1.
          5    1    1    2  501    0  0.29647659131E+01 -0.40844318002E+03  0.28834578003E+03  0.50000000000E+03  0.47000000000E+01 0. -1.
         -5    1    1    2    0  501 -0.29647659131E+01  0.40844318002E+03 -0.28834578003E+03  0.50000000000E+03  0.47000000000E+01 0.  1.
</event>
<event>
 4    1  0.4924477E-004  0.1000000E+04  0.7546771E-02  0.8684367E-01
         11   -1    0    0    0    0  0.00000000000E+00  0.00000000000E+00  0.50000000000E+03  0.50000000000E+03  0.00000000000E+00 0. -1.
        -11   -1    0    0    0    0 -0.00000000000E+00 -0.00000000000E+00 -0.50000000000E+03  0.50000000000E+03  0.00000000000E+00 0.  1.
          5    1    1    2  501    0  0.67785785150E+02 -0.32452135545E+03  0.37425778173E+03  0.50000000000E+03  0.47000000000E+01 0. -1.
         -5    1    1    2    0  501 -0.67785785150E+02  0.32452135545E+03 -0.37425778173E+03  0.50000000000E+03  0.47000000000E+01 0.  1.
</event>
<event>
 4    1  0.4924477E-004  0.1000000E+04  0.7546771E-02  0.8684367E-01
         11   -1    0    0    0    0  0.00000000000E+00  0.00000000000E+00  0.50000000000E+03  0.50000000000E+03  0.00000000000E+00 0. -1.
        -11   -1    0    0    0    0 -0.00000000000E+00 -0.00000000000E+00 -0.50000000000E+03  0.50000000000E+03  0.00000000000E+00 0.  1.
          5    1    1    2  501    0 -0.46219703137E+03 -0.10038984909E+03  0.16209161727E+03  0.50000000000E+03  0.47000000000E+01 0. -1.
         -5    1    1    2    0  501  0.46219703137E+03  0.10038984909E+03 -0.16209161727E+03  0.50000000000E+03  0.47000000000E+01 0.  1.
</event>
<event>
 4    1  0.4924477E-004  0.1000000E+04  0.7546771E-02  0.8684367E-01
         11   -1    0    0    0    0  0.00000000000E+00  0.00000000000E+00  0.50000000000E+03  0.50000000000E+03  0.00000000000E+00 0. -1.
        -11   -1    0    0    0    0 -0.00000000000E+00 -0.00000000000E+00 -0.50000000000E+03  0.50000000000E+03  0.00000000000E+00 0.  1.
          5    1    1    2  501    0 -0.17680098971E+03  0.11296149553E+03  0.45382708223E+03  0.50000000000E+03  0.47000000000E+01 0. -1.
         -5    1    1    2    0  501  0.17680098971E+03 -0.11296149553E+03 -0.45382708223E+03  0.50000000000E+03  0.47000000000E+01 0.  1.
</event>
<event>
 4    1  0.4924477E-004  0.1000000E+04  0.7546771E-02  0.8684367E-01
         11   -1    0    0    0    0  0.00000000000E+00  0.00000000000E+00  0.50000000000E+03  0.50000000000E+03  0.00000000000E+00 0.  1.
        -11   -1    0    0    0    0 -0.00000000000E+00 -0.00000000000E+00 -0.50000000000E+03  0.50000000000E+03  0.00000000000E+00 0. -1.
          5    1    1    2  501    0  0.15495562017E+03  0.49488764206E+02  0.47277640380E+03  0.50000000000E+03  0.47000000000E+01 0.  1.
         -5    1    1    2    0  501 -0.15495562017E+03 -0.49488764206E+02 -0.47277640380E+03  0.50000000000E+03  0.47000000000E+01 0. -1.
</event>
<event>
 4    1  0.4924477E-004  0.1000000E+04  0.7546771E-02  0.8684367E-01
         11   -1    0    0    0    0  0.00000000000E+00  0.00000000000E+00  0.50000000000E+03  0.50000000000E+03  0.00000000000E+00 0. -1.
        -11   -1    0    0    0    0 -0.00000000000E+00 -0.00000000000E+00 -0.50000000000E+03  0.50000000000E+03  0.00000000000E+00 0.  1.
          5    1    1    2  501    0  0.63624964057E+02 -0.49187554692E+02  0.49346768730E+03  0.50000000000E+03  0.47000000000E+01 0. -1.
         -5    1    1    2    0  501 -0.63624964057E+02  0.49187554692E+02 -0.49346768730E+03  0.50000000000E+03  0.47000000000E+01 0.  1.
</event>
<event>
 4    1  0.4924477E-004  0.1000000E+04  0.7546771E-02  0.8684367E-01
         11   -1    0    0    0    0  0.00000000000E+00  0.00000000000E+00  0.50000000000E+03  0.50000000000E+03  0.00000000000E+00 0.  1.
        -11   -1    0    0    0    0 -0.00000000000E+00 -0.00000000000E+00 -0.50000000000E+03  0.50000000000E+03  0.00000000000E+00 0. -1.
          5    1    1    2  501    0  0.39045944390E+03  0.13385576498E+03  0.28213820523E+03  0.50000000000E+03  0.47000000000E+01 0.  1.
         -5    1    1    2    0  501 -0.39045944390E+03 -0.13385576498E+03 -0.28213820523E+03  0.50000000000E+03  0.47000000000E+01 0. -1.
</event>
<event>
 4    1  0.4924477E-004  0.1000000E+04  0.7546771E-02  0.8684367E-01
         11   -1    0    0    0    0  0.00000000000E+00  0.00000000000E+00  0.50000000000E+03  0.50000000000E+03  0.00000000000E+00 0. -1.
        -11   -1    0    0    0    0 -0.00000000000E+00 -0.00000000000E+00 -0.50000000000E+03  0.50000000000E+03  0.00000000000E+00 0.  1.
          5    1    1    2  501    0 -0.65070966792E+01  0.53812754534E+02  0.49703093982E+03  0.50000000000E+03  0.47000000000E+01 0. -1.
         -5    1    1    2    0  501  0.65070966792E+01 -0.53812754534E+02 -0.49703093982E+03  0.50000000000E+03  0.47000000000E+01 0.  1.
</event>
<event>
 4    1  0.4924477E-004  0.1000000E+04  0.7546771E-02  0.8684367E-01
         11   -1    0    0    0    0  0.00000000000E+00  0.00000000000E+00  0.50000000000E+03  0.50000000000E+03  0.00000000000E+00 0. -1.
        -11   -1    0    0    0    0 -0.00000000000E+00 -0.00000000000E+00 -0.50000000000E+03  0.50000000000E+03  0.00000000000E+00 0.  1.
          5    1    1    2  501    0 -0.44212298681E+03 -0.15840883560E+03  0.17149873276E+03  0.50000000000E+03  0.47000000000E+01 0. -1.
         -5    1    1    2    0  501  0.44212298681E+03  0.15840883560E+03 -0.17149873276E+03  0.50000000000E+03  0.47000000000E+01 0.  1.
</event>
<event>
 4    1  0.4924477E-004  0.1000000E+04  0.7546771E-02  0.8684367E-01
         11   -1    0    0    0    0  0.00000000000E+00  0.00000000000E+00  0.50000000000E+03  0.50000000000E+03  0.00000000000E+00 0. -1.
        -11   -1    0    0    0    0 -0.00000000000E+00 -0.00000000000E+00 -0.50000000000E+03  0.50000000000E+03  0.00000000000E+00 0.  1.
          5    1    1    2  501    0 -0.28886049595E+03  0.13201634384E+03  0.38614661573E+03  0.50000000000E+03  0.47000000000E+01 0. -1.
         -5    1    1    2    0  501  0.28886049595E+03 -0.13201634384E+03 -0.38614661573E+03  0.50000000000E+03  0.47000000000E+01 0.  1.
</event>
<event>
 4    1  0.4924477E-004  0.1000000E+04  0.7546771E-02  0.8684367E-01
         11   -1    0    0    0    0  0.00000000000E+00  0.00000000000E+00  0.50000000000E+03  0.50000000000E+03  0.00000000000E+00 0.  1.
        -11   -1    0    0    0    0 -0.00000000000E+00 -0.00000000000E+00 -0.50000000000E+03  0.50000000000E+03  0.00000000000E+00 0. -1.
          5    1    1    2  501    0 -0.20694963554E+03  0.10745611547E+03  0.44227021333E+03  0.50000000000E+03  0.47000000000E+01 0.  1.
         -5    1    1    2    0  501  0.20694963554E+03 -0.10745611547E+03 -0.44227021333E+03  0.50000000000E+03  0.47000000000E+01 0. -1.
</event>
<event>
 4    1  0.4924477E-004  0.1000000E+04  0.7546771E-02  0.8684367E-01
         11   -1    0    0    0    0  0.00000000000E+00  0.00000000000E+00  0.50000000000E+03  0.50000000000E+03  0.00000000000E+00 0. -1.
        -11   -1    0    0    0    0 -0.00000000000E+00 -0.00000000000E+00 -0.50000000000E+03  0.50000000000E+03  0.00000000000E+00 0.  1.
          5    1    1    2  501    0  0.91429327028E+02 -0.33436383583E+03  0.36030461203E+03  0.50000000000E+03  0.47000000000E+01 0. -1.
         -5    1    1    2    0  501 -0.91429327028E+02  0.33436383583E+03 -0.36030461203E+03  0.50000000000E+03  0.47000000000E+01 0.  1.
</event>
<event>
 4    1  0.4924477E-004  0.1000000E+04  0.7546771E-02  0.8684367E-01
         11   -1    0    0    0    0  0.00000000000E+00  0.00000000000E+00  0.50000000000E+03  0.50000000000E+03  0.00000000000E+00 0. -1.
        -11   -1    0    0    0    0 -0.00000000000E+00 -0.00000000000E+00 -0.50000000000E+03  0.50000000000E+03  0.00000000000E+00 0.  1.
          5    1    1    2  501    0  0.25743371057E+03 -0.25049686186E+02  0.42787651009E+03  0.50000000000E+03  0.47000000000E+01 0. -1.
         -5    1    1    2    0  501 -0.25743371057E+03  0.25049686186E+02 -0.42787651009E+03  0.50000000000E+03  0.47000000000E+01 0.  1.
</event>
<event>
 4    1  0.4924477E-004  0.1000000E+04  0.7546771E-02  0.8684367E-01
         11   -1    0    0    0    0  0.00000000000E+00  0.00000000000E+00  0.50000000000E+03  0.50000000000E+03  0.00000000000E+00 0. -1.
        -11   -1    0    0    0    0 -0.00000000000E+00 -0.00000000000E+00 -0.50000000000E+03  0.50000000000E+03  0.00000000000E+00 0.  1.
          5    1    1    2  501    0 -0.37787798585E+03  0.32716022627E+03 -0.12341967463E+02  0.50000000000E+03  0.47000000000E+01 0. -1.
         -5    1    1    2    0  501  0.37787798585E+03 -0.32716022627E+03  0.12341967463E+02  0.50000000000E+03  0.47000000000E+01 0.  1.
</event>
<event>
 4    1  0.4924477E-004  0.1000000E+04  0.7546771E-02  0.8684367E-01
         11   -1    0    0    0    0  0.00000000000E+00  0.00000000000E+00  0.50000000000E+03  0.50000000000E+03  0.00000000000E+00 0. -1.
        -11   -1    0    0    0    0 -0.00000000000E+00 -0.00000000000E+00 -0.50000000000E+03  0.50000000000E+03  0.00000000000E+00 0.  1.
          5    1    1    2  501    0 -0.24308226172E+03 -0.65879539871E+02  0.43191296608E+03  0.50000000000E+03  0.47000000000E+01 0. -1.
         -5    1    1    2    0  501  0.24308226172E+03  0.65879539871E+02 -0.43191296608E+03  0.50000000000E+03  0.47000000000E+01 0.  1.
</event>
<event>
 4    1  0.4924477E-004  0.1000000E+04  0.7546771E-02  0.8684367E-01
         11   -1    0    0    0    0  0.00000000000E+00  0.00000000000E+00  0.50000000000E+03  0.50000000000E+03  0.00000000000E+00 0.  1.
        -11   -1    0    0    0    0 -0.00000000000E+00 -0.00000000000E+00 -0.50000000000E+03  0.50000000000E+03  0.00000000000E+00 0. -1.
          5    1    1    2  501    0  0.29882200842E+03  0.10251144941E+03  0.38752383156E+03  0.50000000000E+03  0.47000000000E+01 0.  1.
         -5    1    1    2    0  501 -0.29882200842E+03 -0.10251144941E+03 -0.38752383156E+03  0.50000000000E+03  0.47000000000E+01 0. -1.
</event>
<event>
 4    1  0.4924477E-004  0.1000000E+04  0.7546771E-02  0.8684367E-01
         11   -1    0    0    0    0  0.00000000000E+00  0.00000000000E+00  0.50000000000E+03  0.50000000000E+03  0.00000000000E+00 0. -1.
        -11   -1    0    0    0    0 -0.00000000000E+00 -0.00000000000E+00 -0.50000000000E+03  0.50000000000E+03  0.00000000000E+00 0.  1.
          5    1    1    2  501    0  0.16928452123E+03 -0.34842287432E+03  0.31610466862E+03  0.50000000000E+03  0.47000000000E+01 0. -1.
         -5    1    1    2    0  501 -0.16928452123E+03  0.34842287432E+03 -0.31610466862E+03  0.50000000000E+03  0.47000000000E+01 0.  1.
</event>
<event>
 4    1  0.4924477E-004  0.1000000E+04  0.7546771E-02  0.8684367E-01
         11   -1    0    0    0    0  0.00000000000E+00  0.00000000000E+00  0.50000000000E+03  0.50000000000E+03  0.00000000000E+00 0. -1.
        -11   -1    0    0    0    0 -0.00000000000E+00 -0.00000000000E+00 -0.50000000000E+03  0.50000000000E+03  0.00000000000E+00 0.  1.
          5    1    1    2  501    0  0.29769637418E+03 -0.29439199173E+03  0.27329129882E+03  0.50000000000E+03  0.47000000000E+01 0. -1.
         -5    1    1    2    0  501 -0.29769637418E+03  0.29439199173E+03 -0.27329129882E+03  0.50000000000E+03  0.47000000000E+01 0.  1.
</event>
<event>
 4    1  0.4924477E-004  0.1000000E+04  0.7546771E-02  0.8684367E-01
         11   -1    0    0    0    0  0.00000000000E+00  0.00000000000E+00  0.50000000000E+03  0.50000000000E+03  0.00000000000E+00 0. -1.
        -11   -1    0    0    0    0 -0.00000000000E+00 -0.00000000000E+00 -0.50000000000E+03  0.50000000000E+03  0.00000000000E+00 0.  1.
          5    1    1    2  501    0  0.25248398839E+03  0.37188463757E+03  0.21893277953E+03  0.50000000000E+03  0.47000000000E+01 0. -1.
         -5    1    1    2    0  501 -0.25248398839E+03 -0.37188463757E+03 -0.21893277953E+03  0.50000000000E+03  0.47000000000E+01 0.  1.
</event>
<event>
 4    1  0.4924477E-004  0.1000000E+04  0.7546771E-02  0.8684367E-01
         11   -1    0    0    0    0  0.00000000000E+00  0.00000000000E+00  0.50000000000E+03  0.50000000000E+03  0.00000000000E+00 0. -1.
        -11   -1    0    0    0    0 -0.00000000000E+00 -0.00000000000E+00 -0.50000000000E+03  0.50000000000E+03  0.00000000000E+00 0.  1.
          5    1    1    2  501    0  0.42205729426E+03  0.22146688019E+03  0.15098997098E+03  0.50000000000E+03  0.47000000000E+01 0. -1.
         -5    1    1    2    0  501 -0.42205729426E+03 -0.22146688019E+03 -0.15098997098E+03  0.50000000000E+03  0.47000000000E+01 0.  1.
</event>
<event>
 4    1  0.4924477E-004  0.1000000E+04  0.7546771E-02  0.8684367E-01
         11   -1    0    0    0    0  0.00000000000E+00  0.00000000000E+00  0.50000000000E+03  0.50000000000E+03  0.00000000000E+00 0. -1.
        -11   -1    0    0    0    0 -0.00000000000E+00 -0.00000000000E+00 -0.50000000000E+03  0.50000000000E+03  0.00000000000E+00 0.  1.
          5    1    1    2  501    0  0.28496435842E+03 -0.25182577517E+03  0.32458743566E+03  0.50000000000E+03  0.47000000000E+01 0. -1.
         -5    1    1    2    0  501 -0.28496435842E+03  0.25182577517E+03 -0.32458743566E+03  0.50000000000E+03  0.47000000000E+01 0.  1.
</event>
<event>
 4    1  0.4924477E-004  0.1000000E+04  0.7546771E-02  0.8684367E-01
         11   -1    0    0    0    0  0.00000000000E+00  0.00000000000E+00  0.50000000000E+03  0.50000000000E+03  0.00000000000E+00 0. -1.
        -11   -1    0    0    0    0 -0.00000000000E+00 -0.00000000000E+00 -0.50000000000E+03  0.50000000000E+03  0.00000000000E+00 0.  1.
          5    1    1    2  501    0  0.23431469164E+03  0.24253415608E+03  0.36912290422E+03  0.50000000000E+03  0.47000000000E+01 0. -1.
         -5    1    1    2    0  501 -0.23431469164E+03 -0.24253415608E+03 -0.36912290422E+03  0.50000000000E+03  0.47000000000E+01 0.  1.
</event>
<event>
 4    1  0.4924477E-004  0.1000000E+04  0.7546771E-02  0.8684367E-01
         11   -1    0    0    0    0  0.00000000000E+00  0.00000000000E+00  0.50000000000E+03  0.50000000000E+03  0.00000000000E+00 0. -1.
        -11   -1    0    0    0    0 -0.00000000000E+00 -0.00000000000E+00 -0.50000000000E+03  0.50000000000E+03  0.00000000000E+00 0.  1.
          5    1    1    2  501    0 -0.21008277651E+03 -0.13284650705E+03  0.43381441029E+03  0.50000000000E+03  0.47000000000E+01 0. -1.
         -5    1    1    2    0  501  0.21008277651E+03  0.13284650705E+03 -0.43381441029E+03  0.50000000000E+03  0.47000000000E+01 0.  1.
</event>
<event>
 4    1  0.4924477E-004  0.1000000E+04  0.7546771E-02  0.8684367E-01
         11   -1    0    0    0    0  0.00000000000E+00  0.00000000000E+00  0.50000000000E+03  0.50000000000E+03  0.00000000000E+00 0. -1.
        -11   -1    0    0    0    0 -0.00000000000E+00 -0.00000000000E+00 -0.50000000000E+03  0.50000000000E+03  0.00000000000E+00 0.  1.
          5    1    1    2  501    0  0.37757390240E+03  0.13340097367E+03  0.29936606095E+03  0.50000000000E+03  0.47000000000E+01 0. -1.
         -5    1    1    2    0  501 -0.37757390240E+03 -0.13340097367E+03 -0.29936606095E+03  0.50000000000E+03  0.47000000000E+01 0.  1.
</event>
<event>
 4    1  0.4924477E-004  0.1000000E+04  0.7546771E-02  0.8684367E-01
         11   -1    0    0    0    0  0.00000000000E+00  0.00000000000E+00  0.50000000000E+03  0.50000000000E+03  0.00000000000E+00 0. -1.
        -11   -1    0    0    0    0 -0.00000000000E+00 -0.00000000000E+00 -0.50000000000E+03  0.50000000000E+03  0.00000000000E+00 0.  1.
          5    1    1    2  501    0 -0.49595559393E+02 -0.11945037371E+03  0.48295941725E+03  0.50000000000E+03  0.47000000000E+01 0. -1.
         -5    1    1    2    0  501  0.49595559393E+02  0.11945037371E+03 -0.48295941725E+03  0.50000000000E+03  0.47000000000E+01 0.  1.
</event>
<event>
 4    1  0.4924477E-004  0.1000000E+04  0.7546771E-02  0.8684367E-01
         11   -1    0    0    0    0  0.00000000000E+00  0.00000000000E+00  0.50000000000E+03  0.50000000000E+03  0.00000000000E+00 0. -1.
        -11   -1    0    0    0    0 -0.00000000000E+00 -0.00000000000E+00 -0.50000000000E+03  0.50000000000E+03  0.00000000000E+00 0.  1.
          5    1    1    2  501    0 -0.17191361960E+03  0.36282261402E+03  0.29796538079E+03  0.50000000000E+03  0.47000000000E+01 0. -1.
         -5    1    1    2    0  501  0.17191361960E+03 -0.36282261402E+03 -0.29796538079E+03  0.50000000000E+03  0.47000000000E+01 0.  1.
</event>
<event>
 4    1  0.4924477E-004  0.1000000E+04  0.7546771E-02  0.8684367E-01
         11   -1    0    0    0    0  0.00000000000E+00  0.00000000000E+00  0.50000000000E+03  0.50000000000E+03  0.00000000000E+00 0. -1.
        -11   -1    0    0    0    0 -0.00000000000E+00 -0.00000000000E+00 -0.50000000000E+03  0.50000000000E+03  0.00000000000E+00 0.  1.
          5    1    1    2  501    0 -0.41506605735E+02 -0.19676061861E+03  0.45775579804E+03  0.50000000000E+03  0.47000000000E+01 0. -1.
         -5    1    1    2    0  501  0.41506605735E+02  0.19676061861E+03 -0.45775579804E+03  0.50000000000E+03  0.47000000000E+01 0.  1.
</event>
<event>
 4    1  0.4924477E-004  0.1000000E+04  0.7546771E-02  0.8684367E-01
         11   -1    0    0    0    0  0.00000000000E+00  0.00000000000E+00  0.50000000000E+03  0.50000000000E+03  0.00000000000E+00 0. -1.
        -11   -1    0    0    0    0 -0.00000000000E+00 -0.00000000000E+00 -0.50000000000E+03  0.50000000000E+03  0.00000000000E+00 0.  1.
          5    1    1    2  501    0 -0.22069884722E+03  0.56286604604E+02  0.44508622421E+03  0.50000000000E+03  0.47000000000E+01 0. -1.
         -5    1    1    2    0  501  0.22069884722E+03 -0.56286604604E+02 -0.44508622421E+03  0.50000000000E+03  0.47000000000E+01 0.  1.
</event>
<event>
 4    1  0.4924477E-004  0.1000000E+04  0.7546771E-02  0.8684367E-01
         11   -1    0    0    0    0  0.00000000000E+00  0.00000000000E+00  0.50000000000E+03  0.50000000000E+03  0.00000000000E+00 0.  1.
        -11   -1    0    0    0    0 -0.00000000000E+00 -0.00000000000E+00 -0.50000000000E+03  0.50000000000E+03  0.00000000000E+00 0. -1.
          5    1    1    2  501    0  0.60972609466E+02  0.46526650012E+03  0.17259007725E+03  0.50000000000E+03  0.47000000000E+01 0.  1.
         -5    1    1    2    0  501 -0.60972609466E+02 -0.46526650012E+03 -0.17259007725E+03  0.50000000000E+03  0.47000000000E+01 0. -1.
</event>
<event>
 4    1  0.4924477E-004  0.1000000E+04  0.7546771E-02  0.8684367E-01
         11   -1    0    0    0    0  0.00000000000E+00  0.00000000000E+00  0.50000000000E+03  0.50000000000E+03  0.00000000000E+00 0.  1.
        -11   -1    0    0    0    0 -0.00000000000E+00 -0.00000000000E+00 -0.50000000000E+03  0.50000000000E+03  0.00000000000E+00 0. -1.
          5    1    1    2  501    0 -0.20761200901E+03  0.45269193071E+03  0.44104190114E+02  0.50000000000E+03  0.47000000000E+01 0.  1.
         -5    1    1    2    0  501  0.20761200901E+03 -0.45269193071E+03 -0.44104190114E+02  0.50000000000E+03  0.47000000000E+01 0. -1.
</event>
<event>
 4    1  0.4924477E-004  0.1000000E+04  0.7546771E-02  0.8684367E-01
         11   -1    0    0    0    0  0.00000000000E+00  0.00000000000E+00  0.50000000000E+03  0.50000000000E+03  0.00000000000E+00 0. -1.
        -11   -1    0    0    0    0 -0.00000000000E+00 -0.00000000000E+00 -0.50000000000E+03  0.50000000000E+03  0.00000000000E+00 0.  1.
          5    1    1    2  501    0 -0.36816646747E+03  0.83303570410E+02  0.32785953912E+03  0.50000000000E+03  0.47000000000E+01 0. -1.
         -5    1    1    2    0  501  0.36816646747E+03 -0.83303570410E+02 -0.32785953912E+03  0.50000000000E+03  0.47000000000E+01 0.  1.
</event>
<event>
 4    1  0.4924477E-004  0.1000000E+04  0.7546771E-02  0.8684367E-01
         11   -1    0    0    0    0  0.00000000000E+00  0.00000000000E+00  0.50000000000E+03  0.50000000000E+03  0.00000000000E+00 0. -1.
        -11   -1    0    0    0    0 -0.00000000000E+00 -0.00000000000E+00 -0.50000000000E+03  0.50000000000E+03  0.00000000000E+00 0.  1.
          5    1    1    2  501    0  0.43369589969E+03  0.90480131516E+02  0.23173071094E+03  0.50000000000E+03  0.47000000000E+01 0. -1.
         -5    1    1    2    0  501 -0.43369589969E+03 -0.90480131516E+02 -0.23173071094E+03  0.50000000000E+03  0.47000000000E+01 0.  1.
</event>
<event>
 4    1  0.4924477E-004  0.1000000E+04  0.7546771E-02  0.8684367E-01
         11   -1    0    0    0    0  0.00000000000E+00  0.00000000000E+00  0.50000000000E+03  0.50000000000E+03  0.00000000000E+00 0. -1.
        -11   -1    0    0    0    0 -0.00000000000E+00 -0.00000000000E+00 -0.50000000000E+03  0.50000000000E+03  0.00000000000E+00 0.  1.
          5    1    1    2  501    0 -0.33601650260E+02 -0.84898540755E+01  0.49877526149E+03  0.50000000000E+03  0.47000000000E+01 0. -1.
         -5    1    1    2    0  501  0.33601650260E+02  0.84898540755E+01 -0.49877526149E+03  0.50000000000E+03  0.47000000000E+01 0.  1.
</event>
<event>
 4    1  0.4924477E-004  0.1000000E+04  0.7546771E-02  0.8684367E-01
         11   -1    0    0    0    0  0.00000000000E+00  0.00000000000E+00  0.50000000000E+03  0.50000000000E+03  0.00000000000E+00 0. -1.
        -11   -1    0    0    0    0 -0.00000000000E+00 -0.00000000000E+00 -0.50000000000E+03  0.50000000000E+03  0.00000000000E+00 0.  1.
          5    1    1    2  501    0 -0.64032331544E+02  0.23204869267E+02  0.49531737761E+03  0.50000000000E+03  0.47000000000E+01 0. -1.
         -5    1    1    2    0  501  0.64032331544E+02 -0.23204869267E+02 -0.49531737761E+03  0.50000000000E+03  0.47000000000E+01 0.  1.
</event>
<event>
 4    1  0.4924477E-004  0.1000000E+04  0.7546771E-02  0.8684367E-01
         11   -1    0    0    0    0  0.00000000000E+00  0.00000000000E+00  0.50000000000E+03  0.50000000000E+03  0.00000000000E+00 0. -1.
        -11   -1    0    0    0    0 -0.00000000000E+00 -0.00000000000E+00 -0.50000000000E+03  0.50000000000E+03  0.00000000000E+00 0.  1.
          5    1    1    2  501    0  0.37376997770E+03  0.83898852170E+02  0.32130187733E+03  0.50000000000E+03  0.47000000000E+01 0. -1.
         -5    1    1    2    0  501 -0.37376997770E+03 -0.83898852170E+02 -0.32130187733E+03  0.50000000000E+03  0.47000000000E+01 0.  1.
</event>
<event>
 4    1  0.4924477E-004  0.1000000E+04  0.7546771E-02  0.8684367E-01
         11   -1    0    0    0    0  0.00000000000E+00  0.00000000000E+00  0.50000000000E+03  0.50000000000E+03  0.00000000000E+00 0.  1.
        -11   -1    0    0    0    0 -0.00000000000E+00 -0.00000000000E+00 -0.50000000000E+03  0.50000000000E+03  0.00000000000E+00 0. -1.
          5    1    1    2  501    0 -0.35820434846E+03  0.20812516547E+03 -0.27991332631E+03  0.50000000000E+03  0.47000000000E+01 0. -1.
         -5    1    1    2    0  501  0.35820434846E+03 -0.20812516547E+03  0.27991332631E+03  0.50000000000E+03  0.47000000000E+01 0.  1.
</event>
<event>
 4    1  0.4924477E-004  0.1000000E+04  0.7546771E-02  0.8684367E-01
         11   -1    0    0    0    0  0.00000000000E+00  0.00000000000E+00  0.50000000000E+03  0.50000000000E+03  0.00000000000E+00 0.  1.
        -11   -1    0    0    0    0 -0.00000000000E+00 -0.00000000000E+00 -0.50000000000E+03  0.50000000000E+03  0.00000000000E+00 0. -1.
          5    1    1    2  501    0  0.27040133057E+03 -0.33398346389E+03  0.25557010051E+03  0.50000000000E+03  0.47000000000E+01 0.  1.
         -5    1    1    2    0  501 -0.27040133057E+03  0.33398346389E+03 -0.25557010051E+03  0.50000000000E+03  0.47000000000E+01 0. -1.
</event>
<event>
 4    1  0.4924477E-004  0.1000000E+04  0.7546771E-02  0.8684367E-01
         11   -1    0    0    0    0  0.00000000000E+00  0.00000000000E+00  0.50000000000E+03  0.50000000000E+03  0.00000000000E+00 0. -1.
        -11   -1    0    0    0    0 -0.00000000000E+00 -0.00000000000E+00 -0.50000000000E+03  0.50000000000E+03  0.00000000000E+00 0.  1.
          5    1    1    2  501    0  0.30806383248E+03  0.15947273466E+03  0.36005976173E+03  0.50000000000E+03  0.47000000000E+01 0. -1.
         -5    1    1    2    0  501 -0.30806383248E+03 -0.15947273466E+03 -0.36005976173E+03  0.50000000000E+03  0.47000000000E+01 0.  1.
</event>
<event>
 4    1  0.4924477E-004  0.1000000E+04  0.7546771E-02  0.8684367E-01
         11   -1    0    0    0    0  0.00000000000E+00  0.00000000000E+00  0.50000000000E+03  0.50000000000E+03  0.00000000000E+00 0. -1.
        -11   -1    0    0    0    0 -0.00000000000E+00 -0.00000000000E+00 -0.50000000000E+03  0.50000000000E+03  0.00000000000E+00 0.  1.
          5    1    1    2  501    0  0.30650449095E+03  0.33337943832E+03  0.21187509796E+03  0.50000000000E+03  0.47000000000E+01 0. -1.
         -5    1    1    2    0  501 -0.30650449095E+03 -0.33337943832E+03 -0.21187509796E+03  0.50000000000E+03  0.47000000000E+01 0.  1.
</event>
<event>
 4    1  0.4924477E-004  0.1000000E+04  0.7546771E-02  0.8684367E-01
         11   -1    0    0    0    0  0.00000000000E+00  0.00000000000E+00  0.50000000000E+03  0.50000000000E+03  0.00000000000E+00 0. -1.
        -11   -1    0    0    0    0 -0.00000000000E+00 -0.00000000000E+00 -0.50000000000E+03  0.50000000000E+03  0.00000000000E+00 0.  1.
          5    1    1    2  501    0  0.12779421998E+03  0.42988215549E+03  0.22101556445E+03  0.50000000000E+03  0.47000000000E+01 0. -1.
         -5    1    1    2    0  501 -0.12779421998E+03 -0.42988215549E+03 -0.22101556445E+03  0.50000000000E+03  0.47000000000E+01 0.  1.
</event>
<event>
 4    1  0.4924477E-004  0.1000000E+04  0.7546771E-02  0.8684367E-01
         11   -1    0    0    0    0  0.00000000000E+00  0.00000000000E+00  0.50000000000E+03  0.50000000000E+03  0.00000000000E+00 0. -1.
        -11   -1    0    0    0    0 -0.00000000000E+00 -0.00000000000E+00 -0.50000000000E+03  0.50000000000E+03  0.00000000000E+00 0.  1.
          5    1    1    2  501    0 -0.77837937953E+00 -0.34445239771E+03  0.36239460515E+03  0.50000000000E+03  0.47000000000E+01 0. -1.
         -5    1    1    2    0  501  0.77837937953E+00  0.34445239771E+03 -0.36239460515E+03  0.50000000000E+03  0.47000000000E+01 0.  1.
</event>
<event>
 4    1  0.4924477E-004  0.1000000E+04  0.7546771E-02  0.8684367E-01
         11   -1    0    0    0    0  0.00000000000E+00  0.00000000000E+00  0.50000000000E+03  0.50000000000E+03  0.00000000000E+00 0. -1.
        -11   -1    0    0    0    0 -0.00000000000E+00 -0.00000000000E+00 -0.50000000000E+03  0.50000000000E+03  0.00000000000E+00 0.  1.
          5    1    1    2  501    0  0.24964418778E+03 -0.14093815458E+03  0.40962437194E+03  0.50000000000E+03  0.47000000000E+01 0. -1.
         -5    1    1    2    0  501 -0.24964418778E+03  0.14093815458E+03 -0.40962437194E+03  0.50000000000E+03  0.47000000000E+01 0.  1.
</event>
<event>
 4    1  0.4924477E-004  0.1000000E+04  0.7546771E-02  0.8684367E-01
         11   -1    0    0    0    0  0.00000000000E+00  0.00000000000E+00  0.50000000000E+03  0.50000000000E+03  0.00000000000E+00 0. -1.
        -11   -1    0    0    0    0 -0.00000000000E+00 -0.00000000000E+00 -0.50000000000E+03  0.50000000000E+03  0.00000000000E+00 0.  1.
          5    1    1    2  501    0  0.81862434714E+02  0.17785164216E+03  0.46004917690E+03  0.50000000000E+03  0.47000000000E+01 0. -1.
         -5    1    1    2    0  501 -0.81862434714E+02 -0.17785164216E+03 -0.46004917690E+03  0.50000000000E+03  0.47000000000E+01 0.  1.
</event>
<event>
 4    1  0.4924477E-004  0.1000000E+04  0.7546771E-02  0.8684367E-01
         11   -1    0    0    0    0  0.00000000000E+00  0.00000000000E+00  0.50000000000E+03  0.50000000000E+03  0.00000000000E+00 0. -1.
        -11   -1    0    0    0    0 -0.00000000000E+00 -0.00000000000E+00 -0.50000000000E+03  0.50000000000E+03  0.00000000000E+00 0.  1.
          5    1    1    2  501    0  0.74336824487E+01  0.42407492873E+03  0.26473213856E+03  0.50000000000E+03  0.47000000000E+01 0. -1.
         -5    1    1    2    0  501 -0.74336824487E+01 -0.42407492873E+03 -0.26473213856E+03  0.50000000000E+03  0.47000000000E+01 0.  1.
</event>
<event>
 4    1  0.4924477E-004  0.1000000E+04  0.7546771E-02  0.8684367E-01
         11   -1    0    0    0    0  0.00000000000E+00  0.00000000000E+00  0.50000000000E+03  0.50000000000E+03  0.00000000000E+00 0.  1.
        -11   -1    0    0    0    0 -0.00000000000E+00 -0.00000000000E+00 -0.50000000000E+03  0.50000000000E+03  0.00000000000E+00 0. -1.
          5    1    1    2  501    0  0.11687471399E+03  0.30957045567E+03  0.37481241202E+03  0.50000000000E+03  0.47000000000E+01 0. -1.
         -5    1    1    2    0  501 -0.11687471399E+03 -0.30957045567E+03 -0.37481241202E+03  0.50000000000E+03  0.47000000000E+01 0.  1.
</event>
<event>
 4    1  0.4924477E-004  0.1000000E+04  0.7546771E-02  0.8684367E-01
         11   -1    0    0    0    0  0.00000000000E+00  0.00000000000E+00  0.50000000000E+03  0.50000000000E+03  0.00000000000E+00 0. -1.
        -11   -1    0    0    0    0 -0.00000000000E+00 -0.00000000000E+00 -0.50000000000E+03  0.50000000000E+03  0.00000000000E+00 0.  1.
          5    1    1    2  501    0 -0.25282469467E+03 -0.35675400009E+02  0.42986608333E+03  0.50000000000E+03  0.47000000000E+01 0. -1.
         -5    1    1    2    0  501  0.25282469467E+03  0.35675400009E+02 -0.42986608333E+03  0.50000000000E+03  0.47000000000E+01 0.  1.
</event>
<event>
 4    1  0.4924477E-004  0.1000000E+04  0.7546771E-02  0.8684367E-01
         11   -1    0    0    0    0  0.00000000000E+00  0.00000000000E+00  0.50000000000E+03  0.50000000000E+03  0.00000000000E+00 0. -1.
        -11   -1    0    0    0    0 -0.00000000000E+00 -0.00000000000E+00 -0.50000000000E+03  0.50000000000E+03  0.00000000000E+00 0.  1.
          5    1    1    2  501    0  0.18402286595E+03  0.47781350081E+02  0.46241803316E+03  0.50000000000E+03  0.47000000000E+01 0. -1.
         -5    1    1    2    0  501 -0.18402286595E+03 -0.47781350081E+02 -0.46241803316E+03  0.50000000000E+03  0.47000000000E+01 0.  1.
</event>
<event>
 4    1  0.4924477E-004  0.1000000E+04  0.7546771E-02  0.8684367E-01
         11   -1    0    0    0    0  0.00000000000E+00  0.00000000000E+00  0.50000000000E+03  0.50000000000E+03  0.00000000000E+00 0. -1.
        -11   -1    0    0    0    0 -0.00000000000E+00 -0.00000000000E+00 -0.50000000000E+03  0.50000000000E+03  0.00000000000E+00 0.  1.
          5    1    1    2  501    0  0.26156785966E+03  0.39849918517E+03 -0.15085941871E+03  0.50000000000E+03  0.47000000000E+01 0. -1.
         -5    1    1    2    0  501 -0.26156785966E+03 -0.39849918517E+03  0.15085941871E+03  0.50000000000E+03  0.47000000000E+01 0.  1.
</event>
<event>
 4    1  0.4924477E-004  0.1000000E+04  0.7546771E-02  0.8684367E-01
         11   -1    0    0    0    0  0.00000000000E+00  0.00000000000E+00  0.50000000000E+03  0.50000000000E+03  0.00000000000E+00 0. -1.
        -11   -1    0    0    0    0 -0.00000000000E+00 -0.00000000000E+00 -0.50000000000E+03  0.50000000000E+03  0.00000000000E+00 0.  1.
          5    1    1    2  501    0 -0.45298295322E+03 -0.77496137747E+02  0.19692308835E+03  0.50000000000E+03  0.47000000000E+01 0. -1.
         -5    1    1    2    0  501  0.45298295322E+03  0.77496137747E+02 -0.19692308835E+03  0.50000000000E+03  0.47000000000E+01 0.  1.
</event>
<event>
 4    1  0.4924477E-004  0.1000000E+04  0.7546771E-02  0.8684367E-01
         11   -1    0    0    0    0  0.00000000000E+00  0.00000000000E+00  0.50000000000E+03  0.50000000000E+03  0.00000000000E+00 0. -1.
        -11   -1    0    0    0    0 -0.00000000000E+00 -0.00000000000E+00 -0.50000000000E+03  0.50000000000E+03  0.00000000000E+00 0.  1.
          5    1    1    2  501    0 -0.35965234033E+03  0.31959486712E+03  0.13596773516E+03  0.50000000000E+03  0.47000000000E+01 0. -1.
         -5    1    1    2    0  501  0.35965234033E+03 -0.31959486712E+03 -0.13596773516E+03  0.50000000000E+03  0.47000000000E+01 0.  1.
</event>
<event>
 4    1  0.4924477E-004  0.1000000E+04  0.7546771E-02  0.8684367E-01
         11   -1    0    0    0    0  0.00000000000E+00  0.00000000000E+00  0.50000000000E+03  0.50000000000E+03  0.00000000000E+00 0. -1.
        -11   -1    0    0    0    0 -0.00000000000E+00 -0.00000000000E+00 -0.50000000000E+03  0.50000000000E+03  0.00000000000E+00 0.  1.
          5    1    1    2  501    0 -0.27363479291E+03  0.16708959483E+03  0.38364433713E+03  0.50000000000E+03  0.47000000000E+01 0. -1.
         -5    1    1    2    0  501  0.27363479291E+03 -0.16708959483E+03 -0.38364433713E+03  0.50000000000E+03  0.47000000000E+01 0.  1.
</event>
<event>
 4    1  0.4924477E-004  0.1000000E+04  0.7546771E-02  0.8684367E-01
         11   -1    0    0    0    0  0.00000000000E+00  0.00000000000E+00  0.50000000000E+03  0.50000000000E+03  0.00000000000E+00 0. -1.
        -11   -1    0    0    0    0 -0.00000000000E+00 -0.00000000000E+00 -0.50000000000E+03  0.50000000000E+03  0.00000000000E+00 0.  1.
          5    1    1    2  501    0  0.20819159442E+03 -0.39493925887E+03  0.22507143715E+03  0.50000000000E+03  0.47000000000E+01 0. -1.
         -5    1    1    2    0  501 -0.20819159442E+03  0.39493925887E+03 -0.22507143715E+03  0.50000000000E+03  0.47000000000E+01 0.  1.
</event>
<event>
 4    1  0.4924477E-004  0.1000000E+04  0.7546771E-02  0.8684367E-01
         11   -1    0    0    0    0  0.00000000000E+00  0.00000000000E+00  0.50000000000E+03  0.50000000000E+03  0.00000000000E+00 0. -1.
        -11   -1    0    0    0    0 -0.00000000000E+00 -0.00000000000E+00 -0.50000000000E+03  0.50000000000E+03  0.00000000000E+00 0.  1.
          5    1    1    2  501    0 -0.16195368522E+03 -0.15344458077E+03  0.44744125254E+03  0.50000000000E+03  0.47000000000E+01 0. -1.
         -5    1    1    2    0  501  0.16195368522E+03  0.15344458077E+03 -0.44744125254E+03  0.50000000000E+03  0.47000000000E+01 0.  1.
</event>
<event>
 4    1  0.4924477E-004  0.1000000E+04  0.7546771E-02  0.8684367E-01
         11   -1    0    0    0    0  0.00000000000E+00  0.00000000000E+00  0.50000000000E+03  0.50000000000E+03  0.00000000000E+00 0. -1.
        -11   -1    0    0    0    0 -0.00000000000E+00 -0.00000000000E+00 -0.50000000000E+03  0.50000000000E+03  0.00000000000E+00 0.  1.
          5    1    1    2  501    0  0.27503732390E+03  0.36502516589E+03  0.20270423953E+03  0.50000000000E+03  0.47000000000E+01 0. -1.
         -5    1    1    2    0  501 -0.27503732390E+03 -0.36502516589E+03 -0.20270423953E+03  0.50000000000E+03  0.47000000000E+01 0.  1.
</event>
<event>
 4    1  0.4924477E-004  0.1000000E+04  0.7546771E-02  0.8684367E-01
         11   -1    0    0    0    0  0.00000000000E+00  0.00000000000E+00  0.50000000000E+03  0.50000000000E+03  0.00000000000E+00 0. -1.
        -11   -1    0    0    0    0 -0.00000000000E+00 -0.00000000000E+00 -0.50000000000E+03  0.50000000000E+03  0.00000000000E+00 0.  1.
          5    1    1    2  501    0  0.40302379055E+03  0.21502525211E+03  0.20325814916E+03  0.50000000000E+03  0.47000000000E+01 0. -1.
         -5    1    1    2    0  501 -0.40302379055E+03 -0.21502525211E+03 -0.20325814916E+03  0.50000000000E+03  0.47000000000E+01 0.  1.
</event>
<event>
 4    1  0.4924477E-004  0.1000000E+04  0.7546771E-02  0.8684367E-01
         11   -1    0    0    0    0  0.00000000000E+00  0.00000000000E+00  0.50000000000E+03  0.50000000000E+03  0.00000000000E+00 0. -1.
        -11   -1    0    0    0    0 -0.00000000000E+00 -0.00000000000E+00 -0.50000000000E+03  0.50000000000E+03  0.00000000000E+00 0.  1.
          5    1    1    2  501    0 -0.38480971908E+03 -0.31884362717E+03 -0.15431510293E+02  0.50000000000E+03  0.47000000000E+01 0. -1.
         -5    1    1    2    0  501  0.38480971908E+03  0.31884362717E+03  0.15431510293E+02  0.50000000000E+03  0.47000000000E+01 0.  1.
</event>
<event>
 4    1  0.4924477E-004  0.1000000E+04  0.7546771E-02  0.8684367E-01
         11   -1    0    0    0    0  0.00000000000E+00  0.00000000000E+00  0.50000000000E+03  0.50000000000E+03  0.00000000000E+00 0. -1.
        -11   -1    0    0    0    0 -0.00000000000E+00 -0.00000000000E+00 -0.50000000000E+03  0.50000000000E+03  0.00000000000E+00 0.  1.
          5    1    1    2  501    0 -0.48510383810E+03 -0.74472626097E+02 -0.95425385613E+02  0.50000000000E+03  0.47000000000E+01 0. -1.
         -5    1    1    2    0  501  0.48510383810E+03  0.74472626097E+02  0.95425385613E+02  0.50000000000E+03  0.47000000000E+01 0.  1.
</event>
<event>
 4    1  0.4924477E-004  0.1000000E+04  0.7546771E-02  0.8684367E-01
         11   -1    0    0    0    0  0.00000000000E+00  0.00000000000E+00  0.50000000000E+03  0.50000000000E+03  0.00000000000E+00 0. -1.
        -11   -1    0    0    0    0 -0.00000000000E+00 -0.00000000000E+00 -0.50000000000E+03  0.50000000000E+03  0.00000000000E+00 0.  1.
          5    1    1    2  501    0 -0.36550947369E+03  0.40921514408E+02  0.33868298496E+03  0.50000000000E+03  0.47000000000E+01 0. -1.
         -5    1    1    2    0  501  0.36550947369E+03 -0.40921514408E+02 -0.33868298496E+03  0.50000000000E+03  0.47000000000E+01 0.  1.
</event>
<event>
 4    1  0.4924477E-004  0.1000000E+04  0.7546771E-02  0.8684367E-01
         11   -1    0    0    0    0  0.00000000000E+00  0.00000000000E+00  0.50000000000E+03  0.50000000000E+03  0.00000000000E+00 0. -1.
        -11   -1    0    0    0    0 -0.00000000000E+00 -0.00000000000E+00 -0.50000000000E+03  0.50000000000E+03  0.00000000000E+00 0.  1.
          5    1    1    2  501    0  0.35556615095E+03 -0.87419107911E+02  0.34045340631E+03  0.50000000000E+03  0.47000000000E+01 0. -1.
         -5    1    1    2    0  501 -0.35556615095E+03  0.87419107911E+02 -0.34045340631E+03  0.50000000000E+03  0.47000000000E+01 0.  1.
</event>
<event>
 4    1  0.4924477E-004  0.1000000E+04  0.7546771E-02  0.8684367E-01
         11   -1    0    0    0    0  0.00000000000E+00  0.00000000000E+00  0.50000000000E+03  0.50000000000E+03  0.00000000000E+00 0. -1.
        -11   -1    0    0    0    0 -0.00000000000E+00 -0.00000000000E+00 -0.50000000000E+03  0.50000000000E+03  0.00000000000E+00 0.  1.
          5    1    1    2  501    0 -0.44547132110E+03 -0.11796644390E+03  0.19395136037E+03  0.50000000000E+03  0.47000000000E+01 0. -1.
         -5    1    1    2    0  501  0.44547132110E+03  0.11796644390E+03 -0.19395136037E+03  0.50000000000E+03  0.47000000000E+01 0.  1.
</event>
<event>
 4    1  0.4924477E-004  0.1000000E+04  0.7546771E-02  0.8684367E-01
         11   -1    0    0    0    0  0.00000000000E+00  0.00000000000E+00  0.50000000000E+03  0.50000000000E+03  0.00000000000E+00 0. -1.
        -11   -1    0    0    0    0 -0.00000000000E+00 -0.00000000000E+00 -0.50000000000E+03  0.50000000000E+03  0.00000000000E+00 0.  1.
          5    1    1    2  501    0  0.17579548340E+03 -0.44964928740E+03  0.12995913339E+03  0.50000000000E+03  0.47000000000E+01 0. -1.
         -5    1    1    2    0  501 -0.17579548340E+03  0.44964928740E+03 -0.12995913339E+03  0.50000000000E+03  0.47000000000E+01 0.  1.
</event>
<event>
 4    1  0.4924477E-004  0.1000000E+04  0.7546771E-02  0.8684367E-01
         11   -1    0    0    0    0  0.00000000000E+00  0.00000000000E+00  0.50000000000E+03  0.50000000000E+03  0.00000000000E+00 0. -1.
        -11   -1    0    0    0    0 -0.00000000000E+00 -0.00000000000E+00 -0.50000000000E+03  0.50000000000E+03  0.00000000000E+00 0.  1.
          5    1    1    2  501    0  0.12377747099E+03  0.29814867803E+03  0.38179105996E+03  0.50000000000E+03  0.47000000000E+01 0. -1.
         -5    1    1    2    0  501 -0.12377747099E+03 -0.29814867803E+03 -0.38179105996E+03  0.50000000000E+03  0.47000000000E+01 0.  1.
</event>
<event>
 4    1  0.4924477E-004  0.1000000E+04  0.7546771E-02  0.8684367E-01
         11   -1    0    0    0    0  0.00000000000E+00  0.00000000000E+00  0.50000000000E+03  0.50000000000E+03  0.00000000000E+00 0. -1.
        -11   -1    0    0    0    0 -0.00000000000E+00 -0.00000000000E+00 -0.50000000000E+03  0.50000000000E+03  0.00000000000E+00 0.  1.
          5    1    1    2  501    0  0.11342843803E+03 -0.19921761491E+03  0.44432447756E+03  0.50000000000E+03  0.47000000000E+01 0. -1.
         -5    1    1    2    0  501 -0.11342843803E+03  0.19921761491E+03 -0.44432447756E+03  0.50000000000E+03  0.47000000000E+01 0.  1.
</event>
<event>
 4    1  0.4924477E-004  0.1000000E+04  0.7546771E-02  0.8684367E-01
         11   -1    0    0    0    0  0.00000000000E+00  0.00000000000E+00  0.50000000000E+03  0.50000000000E+03  0.00000000000E+00 0. -1.
        -11   -1    0    0    0    0 -0.00000000000E+00 -0.00000000000E+00 -0.50000000000E+03  0.50000000000E+03  0.00000000000E+00 0.  1.
          5    1    1    2  501    0 -0.27599717578E+03  0.27485619666E+03 -0.31346058783E+03  0.50000000000E+03  0.47000000000E+01 0. -1.
         -5    1    1    2    0  501  0.27599717578E+03 -0.27485619666E+03  0.31346058783E+03  0.50000000000E+03  0.47000000000E+01 0.  1.
</event>
<event>
 4    1  0.4924477E-004  0.1000000E+04  0.7546771E-02  0.8684367E-01
         11   -1    0    0    0    0  0.00000000000E+00  0.00000000000E+00  0.50000000000E+03  0.50000000000E+03  0.00000000000E+00 0.  1.
        -11   -1    0    0    0    0 -0.00000000000E+00 -0.00000000000E+00 -0.50000000000E+03  0.50000000000E+03  0.00000000000E+00 0. -1.
          5    1    1    2  501    0  0.30785101431E+03 -0.24380153678E+03  0.30946158672E+03  0.50000000000E+03  0.47000000000E+01 0.  1.
         -5    1    1    2    0  501 -0.30785101431E+03  0.24380153678E+03 -0.30946158672E+03  0.50000000000E+03  0.47000000000E+01 0. -1.
</event>
<event>
 4    1  0.4924477E-004  0.1000000E+04  0.7546771E-02  0.8684367E-01
         11   -1    0    0    0    0  0.00000000000E+00  0.00000000000E+00  0.50000000000E+03  0.50000000000E+03  0.00000000000E+00 0.  1.
        -11   -1    0    0    0    0 -0.00000000000E+00 -0.00000000000E+00 -0.50000000000E+03  0.50000000000E+03  0.00000000000E+00 0. -1.
          5    1    1    2  501    0  0.22802071404E+03  0.31069488200E+03 -0.31851711770E+03  0.50000000000E+03  0.47000000000E+01 0. -1.
         -5    1    1    2    0  501 -0.22802071404E+03 -0.31069488200E+03  0.31851711770E+03  0.50000000000E+03  0.47000000000E+01 0.  1.
</event>
<event>
 4    1  0.4924477E-004  0.1000000E+04  0.7546771E-02  0.8684367E-01
         11   -1    0    0    0    0  0.00000000000E+00  0.00000000000E+00  0.50000000000E+03  0.50000000000E+03  0.00000000000E+00 0.  1.
        -11   -1    0    0    0    0 -0.00000000000E+00 -0.00000000000E+00 -0.50000000000E+03  0.50000000000E+03  0.00000000000E+00 0. -1.
          5    1    1    2  501    0  0.13784736119E+03 -0.13526438019E+03 -0.46117194457E+03  0.50000000000E+03  0.47000000000E+01 0. -1.
         -5    1    1    2    0  501 -0.13784736119E+03  0.13526438019E+03  0.46117194457E+03  0.50000000000E+03  0.47000000000E+01 0.  1.
</event>
<event>
 4    1  0.4924477E-004  0.1000000E+04  0.7546771E-02  0.8684367E-01
         11   -1    0    0    0    0  0.00000000000E+00  0.00000000000E+00  0.50000000000E+03  0.50000000000E+03  0.00000000000E+00 0. -1.
        -11   -1    0    0    0    0 -0.00000000000E+00 -0.00000000000E+00 -0.50000000000E+03  0.50000000000E+03  0.00000000000E+00 0.  1.
          5    1    1    2  501    0 -0.10897670134E+03  0.44293034723E+03  0.20473078924E+03  0.50000000000E+03  0.47000000000E+01 0. -1.
         -5    1    1    2    0  501  0.10897670134E+03 -0.44293034723E+03 -0.20473078924E+03  0.50000000000E+03  0.47000000000E+01 0.  1.
</event>
<event>
 4    1  0.4924477E-004  0.1000000E+04  0.7546771E-02  0.8684367E-01
         11   -1    0    0    0    0  0.00000000000E+00  0.00000000000E+00  0.50000000000E+03  0.50000000000E+03  0.00000000000E+00 0. -1.
        -11   -1    0    0    0    0 -0.00000000000E+00 -0.00000000000E+00 -0.50000000000E+03  0.50000000000E+03  0.00000000000E+00 0.  1.
          5    1    1    2  501    0  0.62657165414E+02 -0.14307863192E+03  0.47495315001E+03  0.50000000000E+03  0.47000000000E+01 0. -1.
         -5    1    1    2    0  501 -0.62657165414E+02  0.14307863192E+03 -0.47495315001E+03  0.50000000000E+03  0.47000000000E+01 0.  1.
</event>
<event>
 4    1  0.4924477E-004  0.1000000E+04  0.7546771E-02  0.8684367E-01
         11   -1    0    0    0    0  0.00000000000E+00  0.00000000000E+00  0.50000000000E+03  0.50000000000E+03  0.00000000000E+00 0. -1.
        -11   -1    0    0    0    0 -0.00000000000E+00 -0.00000000000E+00 -0.50000000000E+03  0.50000000000E+03  0.00000000000E+00 0.  1.
          5    1    1    2  501    0 -0.20675732390E+02  0.57127356200E+02  0.49627299873E+03  0.50000000000E+03  0.47000000000E+01 0. -1.
         -5    1    1    2    0  501  0.20675732390E+02 -0.57127356200E+02 -0.49627299873E+03  0.50000000000E+03  0.47000000000E+01 0.  1.
</event>
<event>
 4    1  0.4924477E-004  0.1000000E+04  0.7546771E-02  0.8684367E-01
         11   -1    0    0    0    0  0.00000000000E+00  0.00000000000E+00  0.50000000000E+03  0.50000000000E+03  0.00000000000E+00 0.  1.
        -11   -1    0    0    0    0 -0.00000000000E+00 -0.00000000000E+00 -0.50000000000E+03  0.50000000000E+03  0.00000000000E+00 0. -1.
          5    1    1    2  501    0  0.24805503179E+02  0.75134490524E+02  0.49367743046E+03  0.50000000000E+03  0.47000000000E+01 0.  1.
         -5    1    1    2    0  501 -0.24805503179E+02 -0.75134490524E+02 -0.49367743046E+03  0.50000000000E+03  0.47000000000E+01 0. -1.
</event>
<event>
 4    1  0.4924477E-004  0.1000000E+04  0.7546771E-02  0.8684367E-01
         11   -1    0    0    0    0  0.00000000000E+00  0.00000000000E+00  0.50000000000E+03  0.50000000000E+03  0.00000000000E+00 0. -1.
        -11   -1    0    0    0    0 -0.00000000000E+00 -0.00000000000E+00 -0.50000000000E+03  0.50000000000E+03  0.00000000000E+00 0.  1.
          5    1    1    2  501    0 -0.91333460449E+01  0.21842450088E+03  0.44965011887E+03  0.50000000000E+03  0.47000000000E+01 0. -1.
         -5    1    1    2    0  501  0.91333460449E+01 -0.21842450088E+03 -0.44965011887E+03  0.50000000000E+03  0.47000000000E+01 0.  1.
</event>
<event>
 4    1  0.4924477E-004  0.1000000E+04  0.7546771E-02  0.8684367E-01
         11   -1    0    0    0    0  0.00000000000E+00  0.00000000000E+00  0.50000000000E+03  0.50000000000E+03  0.00000000000E+00 0. -1.
        -11   -1    0    0    0    0 -0.00000000000E+00 -0.00000000000E+00 -0.50000000000E+03  0.50000000000E+03  0.00000000000E+00 0.  1.
          5    1    1    2  501    0  0.11677870858E+03 -0.47958359758E+03  0.79625474295E+02  0.50000000000E+03  0.47000000000E+01 0. -1.
         -5    1    1    2    0  501 -0.11677870858E+03  0.47958359758E+03 -0.79625474295E+02  0.50000000000E+03  0.47000000000E+01 0.  1.
</event>
<event>
 4    1  0.4924477E-004  0.1000000E+04  0.7546771E-02  0.8684367E-01
         11   -1    0    0    0    0  0.00000000000E+00  0.00000000000E+00  0.50000000000E+03  0.50000000000E+03  0.00000000000E+00 0. -1.
        -11   -1    0    0    0    0 -0.00000000000E+00 -0.00000000000E+00 -0.50000000000E+03  0.50000000000E+03  0.00000000000E+00 0.  1.
          5    1    1    2  501    0  0.42859201409E+03 -0.16279048963E+03  0.19946441273E+03  0.50000000000E+03  0.47000000000E+01 0. -1.
         -5    1    1    2    0  501 -0.42859201409E+03  0.16279048963E+03 -0.19946441273E+03  0.50000000000E+03  0.47000000000E+01 0.  1.
</event>
<event>
 4    1  0.4924477E-004  0.1000000E+04  0.7546771E-02  0.8684367E-01
         11   -1    0    0    0    0  0.00000000000E+00  0.00000000000E+00  0.50000000000E+03  0.50000000000E+03  0.00000000000E+00 0. -1.
        -11   -1    0    0    0    0 -0.00000000000E+00 -0.00000000000E+00 -0.50000000000E+03  0.50000000000E+03  0.00000000000E+00 0.  1.
          5    1    1    2  501    0 -0.33728654580E+03 -0.98666512439E+01  0.36894219766E+03  0.50000000000E+03  0.47000000000E+01 0. -1.
         -5    1    1    2    0  501  0.33728654580E+03  0.98666512439E+01 -0.36894219766E+03  0.50000000000E+03  0.47000000000E+01 0.  1.
</event>
<event>
 4    1  0.4924477E-004  0.1000000E+04  0.7546771E-02  0.8684367E-01
         11   -1    0    0    0    0  0.00000000000E+00  0.00000000000E+00  0.50000000000E+03  0.50000000000E+03  0.00000000000E+00 0. -1.
        -11   -1    0    0    0    0 -0.00000000000E+00 -0.00000000000E+00 -0.50000000000E+03  0.50000000000E+03  0.00000000000E+00 0.  1.
          5    1    1    2  501    0  0.22564589297E+03  0.42175687989E+03 -0.14554372283E+03  0.50000000000E+03  0.47000000000E+01 0. -1.
         -5    1    1    2    0  501 -0.22564589297E+03 -0.42175687989E+03  0.14554372283E+03  0.50000000000E+03  0.47000000000E+01 0.  1.
</event>
<event>
 4    1  0.4924477E-004  0.1000000E+04  0.7546771E-02  0.8684367E-01
         11   -1    0    0    0    0  0.00000000000E+00  0.00000000000E+00  0.50000000000E+03  0.50000000000E+03  0.00000000000E+00 0. -1.
        -11   -1    0    0    0    0 -0.00000000000E+00 -0.00000000000E+00 -0.50000000000E+03  0.50000000000E+03  0.00000000000E+00 0.  1.
          5    1    1    2  501    0  0.30809205191E+03 -0.27325442885E+03  0.28352991846E+03  0.50000000000E+03  0.47000000000E+01 0. -1.
         -5    1    1    2    0  501 -0.30809205191E+03  0.27325442885E+03 -0.28352991846E+03  0.50000000000E+03  0.47000000000E+01 0.  1.
</event>
<event>
 4    1  0.4924477E-004  0.1000000E+04  0.7546771E-02  0.8684367E-01
         11   -1    0    0    0    0  0.00000000000E+00  0.00000000000E+00  0.50000000000E+03  0.50000000000E+03  0.00000000000E+00 0. -1.
        -11   -1    0    0    0    0 -0.00000000000E+00 -0.00000000000E+00 -0.50000000000E+03  0.50000000000E+03  0.00000000000E+00 0.  1.
          5    1    1    2  501    0 -0.24792567928E+03 -0.35094572013E+03  0.25563229272E+03  0.50000000000E+03  0.47000000000E+01 0. -1.
         -5    1    1    2    0  501  0.24792567928E+03  0.35094572013E+03 -0.25563229272E+03  0.50000000000E+03  0.47000000000E+01 0.  1.
</event>
<event>
 4    1  0.4924477E-004  0.1000000E+04  0.7546771E-02  0.8684367E-01
         11   -1    0    0    0    0  0.00000000000E+00  0.00000000000E+00  0.50000000000E+03  0.50000000000E+03  0.00000000000E+00 0. -1.
        -11   -1    0    0    0    0 -0.00000000000E+00 -0.00000000000E+00 -0.50000000000E+03  0.50000000000E+03  0.00000000000E+00 0.  1.
          5    1    1    2  501    0 -0.46667927667E+03 -0.16634571508E+02 -0.17863833227E+03  0.50000000000E+03  0.47000000000E+01 0. -1.
         -5    1    1    2    0  501  0.46667927667E+03  0.16634571508E+02  0.17863833227E+03  0.50000000000E+03  0.47000000000E+01 0.  1.
</event>
<event>
 4    1  0.4924477E-004  0.1000000E+04  0.7546771E-02  0.8684367E-01
         11   -1    0    0    0    0  0.00000000000E+00  0.00000000000E+00  0.50000000000E+03  0.50000000000E+03  0.00000000000E+00 0. -1.
        -11   -1    0    0    0    0 -0.00000000000E+00 -0.00000000000E+00 -0.50000000000E+03  0.50000000000E+03  0.00000000000E+00 0.  1.
          5    1    1    2  501    0 -0.18861498312E+03 -0.44919627920E+03  0.11236102926E+03  0.50000000000E+03  0.47000000000E+01 0. -1.
         -5    1    1    2    0  501  0.18861498312E+03  0.44919627920E+03 -0.11236102926E+03  0.50000000000E+03  0.47000000000E+01 0.  1.
</event>
<event>
 4    1  0.4924477E-004  0.1000000E+04  0.7546771E-02  0.8684367E-01
         11   -1    0    0    0    0  0.00000000000E+00  0.00000000000E+00  0.50000000000E+03  0.50000000000E+03  0.00000000000E+00 0.  1.
        -11   -1    0    0    0    0 -0.00000000000E+00 -0.00000000000E+00 -0.50000000000E+03  0.50000000000E+03  0.00000000000E+00 0. -1.
          5    1    1    2  501    0 -0.13668873856E+03 -0.18896195123E+03  0.44225273288E+03  0.50000000000E+03  0.47000000000E+01 0.  1.
         -5    1    1    2    0  501  0.13668873856E+03  0.18896195123E+03 -0.44225273288E+03  0.50000000000E+03  0.47000000000E+01 0. -1.
</event>
<event>
 4    1  0.4924477E-004  0.1000000E+04  0.7546771E-02  0.8684367E-01
         11   -1    0    0    0    0  0.00000000000E+00  0.00000000000E+00  0.50000000000E+03  0.50000000000E+03  0.00000000000E+00 0. -1.
        -11   -1    0    0    0    0 -0.00000000000E+00 -0.00000000000E+00 -0.50000000000E+03  0.50000000000E+03  0.00000000000E+00 0.  1.
          5    1    1    2  501    0 -0.14837667438E+03 -0.29351626565E+03  0.37657731517E+03  0.50000000000E+03  0.47000000000E+01 0. -1.
         -5    1    1    2    0  501  0.14837667438E+03  0.29351626565E+03 -0.37657731517E+03  0.50000000000E+03  0.47000000000E+01 0.  1.
</event>
<event>
 4    1  0.4924477E-004  0.1000000E+04  0.7546771E-02  0.8684367E-01
         11   -1    0    0    0    0  0.00000000000E+00  0.00000000000E+00  0.50000000000E+03  0.50000000000E+03  0.00000000000E+00 0. -1.
        -11   -1    0    0    0    0 -0.00000000000E+00 -0.00000000000E+00 -0.50000000000E+03  0.50000000000E+03  0.00000000000E+00 0.  1.
          5    1    1    2  501    0  0.16423672435E+03 -0.35923439964E+03  0.30652056128E+03  0.50000000000E+03  0.47000000000E+01 0. -1.
         -5    1    1    2    0  501 -0.16423672435E+03  0.35923439964E+03 -0.30652056128E+03  0.50000000000E+03  0.47000000000E+01 0.  1.
</event>
<event>
 4    1  0.4924477E-004  0.1000000E+04  0.7546771E-02  0.8684367E-01
         11   -1    0    0    0    0  0.00000000000E+00  0.00000000000E+00  0.50000000000E+03  0.50000000000E+03  0.00000000000E+00 0. -1.
        -11   -1    0    0    0    0 -0.00000000000E+00 -0.00000000000E+00 -0.50000000000E+03  0.50000000000E+03  0.00000000000E+00 0.  1.
          5    1    1    2  501    0 -0.77856556237E+02  0.16324350374E+03  0.46611996861E+03  0.50000000000E+03  0.47000000000E+01 0. -1.
         -5    1    1    2    0  501  0.77856556237E+02 -0.16324350374E+03 -0.46611996861E+03  0.50000000000E+03  0.47000000000E+01 0.  1.
</event>
<event>
 4    1  0.4924477E-004  0.1000000E+04  0.7546771E-02  0.8684367E-01
         11   -1    0    0    0    0  0.00000000000E+00  0.00000000000E+00  0.50000000000E+03  0.50000000000E+03  0.00000000000E+00 0. -1.
        -11   -1    0    0    0    0 -0.00000000000E+00 -0.00000000000E+00 -0.50000000000E+03  0.50000000000E+03  0.00000000000E+00 0.  1.
          5    1    1    2  501    0  0.15986968105E+03 -0.35415328975E+03  0.31463477627E+03  0.50000000000E+03  0.47000000000E+01 0. -1.
         -5    1    1    2    0  501 -0.15986968105E+03  0.35415328975E+03 -0.31463477627E+03  0.50000000000E+03  0.47000000000E+01 0.  1.
</event>
<event>
 4    1  0.4924477E-004  0.1000000E+04  0.7546771E-02  0.8684367E-01
         11   -1    0    0    0    0  0.00000000000E+00  0.00000000000E+00  0.50000000000E+03  0.50000000000E+03  0.00000000000E+00 0. -1.
        -11   -1    0    0    0    0 -0.00000000000E+00 -0.00000000000E+00 -0.50000000000E+03  0.50000000000E+03  0.00000000000E+00 0.  1.
          5    1    1    2  501    0  0.38853243366E+03 -0.27885205423E+03  0.14581491639E+03  0.50000000000E+03  0.47000000000E+01 0. -1.
         -5    1    1    2    0  501 -0.38853243366E+03  0.27885205423E+03 -0.14581491639E+03  0.50000000000E+03  0.47000000000E+01 0.  1.
</event>
<event>
 4    1  0.4924477E-004  0.1000000E+04  0.7546771E-02  0.8684367E-01
         11   -1    0    0    0    0  0.00000000000E+00  0.00000000000E+00  0.50000000000E+03  0.50000000000E+03  0.00000000000E+00 0. -1.
        -11   -1    0    0    0    0 -0.00000000000E+00 -0.00000000000E+00 -0.50000000000E+03  0.50000000000E+03  0.00000000000E+00 0.  1.
          5    1    1    2  501    0  0.57009018562E+02  0.12065088200E+03  0.48184151593E+03  0.50000000000E+03  0.47000000000E+01 0. -1.
         -5    1    1    2    0  501 -0.57009018562E+02 -0.12065088200E+03 -0.48184151593E+03  0.50000000000E+03  0.47000000000E+01 0.  1.
</event>
<event>
 4    1  0.4924477E-004  0.1000000E+04  0.7546771E-02  0.8684367E-01
         11   -1    0    0    0    0  0.00000000000E+00  0.00000000000E+00  0.50000000000E+03  0.50000000000E+03  0.00000000000E+00 0.  1.
        -11   -1    0    0    0    0 -0.00000000000E+00 -0.00000000000E+00 -0.50000000000E+03  0.50000000000E+03  0.00000000000E+00 0. -1.
          5    1    1    2  501    0  0.41978356973E+02  0.15496687001E+03  0.47349867660E+03  0.50000000000E+03  0.47000000000E+01 0.  1.
         -5    1    1    2    0  501 -0.41978356973E+02 -0.15496687001E+03 -0.47349867660E+03  0.50000000000E+03  0.47000000000E+01 0. -1.
</event>
<event>
 4    1  0.4924477E-004  0.1000000E+04  0.7546771E-02  0.8684367E-01
         11   -1    0    0    0    0  0.00000000000E+00  0.00000000000E+00  0.50000000000E+03  0.50000000000E+03  0.00000000000E+00 0. -1.
        -11   -1    0    0    0    0 -0.00000000000E+00 -0.00000000000E+00 -0.50000000000E+03  0.50000000000E+03  0.00000000000E+00 0.  1.
          5    1    1    2  501    0  0.70257242541E+02 -0.10194624431E+03  0.48440560808E+03  0.50000000000E+03  0.47000000000E+01 0. -1.
         -5    1    1    2    0  501 -0.70257242541E+02  0.10194624431E+03 -0.48440560808E+03  0.50000000000E+03  0.47000000000E+01 0.  1.
</event>
<event>
 4    1  0.4924477E-004  0.1000000E+04  0.7546771E-02  0.8684367E-01
         11   -1    0    0    0    0  0.00000000000E+00  0.00000000000E+00  0.50000000000E+03  0.50000000000E+03  0.00000000000E+00 0. -1.
        -11   -1    0    0    0    0 -0.00000000000E+00 -0.00000000000E+00 -0.50000000000E+03  0.50000000000E+03  0.00000000000E+00 0.  1.
          5    1    1    2  501    0 -0.13742749044E+03 -0.48000533164E+03 -0.26200695957E+02  0.50000000000E+03  0.47000000000E+01 0. -1.
         -5    1    1    2    0  501  0.13742749044E+03  0.48000533164E+03  0.26200695957E+02  0.50000000000E+03  0.47000000000E+01 0.  1.
</event>
<event>
 4    1  0.4924477E-004  0.1000000E+04  0.7546771E-02  0.8684367E-01
         11   -1    0    0    0    0  0.00000000000E+00  0.00000000000E+00  0.50000000000E+03  0.50000000000E+03  0.00000000000E+00 0. -1.
        -11   -1    0    0    0    0 -0.00000000000E+00 -0.00000000000E+00 -0.50000000000E+03  0.50000000000E+03  0.00000000000E+00 0.  1.
          5    1    1    2  501    0  0.71097060121E+02  0.28903085239E+03  0.40172662895E+03  0.50000000000E+03  0.47000000000E+01 0. -1.
         -5    1    1    2    0  501 -0.71097060121E+02 -0.28903085239E+03 -0.40172662895E+03  0.50000000000E+03  0.47000000000E+01 0.  1.
</event>
<event>
 4    1  0.4924477E-004  0.1000000E+04  0.7546771E-02  0.8684367E-01
         11   -1    0    0    0    0  0.00000000000E+00  0.00000000000E+00  0.50000000000E+03  0.50000000000E+03  0.00000000000E+00 0. -1.
        -11   -1    0    0    0    0 -0.00000000000E+00 -0.00000000000E+00 -0.50000000000E+03  0.50000000000E+03  0.00000000000E+00 0.  1.
          5    1    1    2  501    0 -0.45135659112E+03 -0.54472200421E+02  0.20805748493E+03  0.50000000000E+03  0.47000000000E+01 0. -1.
         -5    1    1    2    0  501  0.45135659112E+03  0.54472200421E+02 -0.20805748493E+03  0.50000000000E+03  0.47000000000E+01 0.  1.
</event>
<event>
 4    1  0.4924477E-004  0.1000000E+04  0.7546771E-02  0.8684367E-01
         11   -1    0    0    0    0  0.00000000000E+00  0.00000000000E+00  0.50000000000E+03  0.50000000000E+03  0.00000000000E+00 0. -1.
        -11   -1    0    0    0    0 -0.00000000000E+00 -0.00000000000E+00 -0.50000000000E+03  0.50000000000E+03  0.00000000000E+00 0.  1.
          5    1    1    2  501    0 -0.27523394080E+03 -0.35267580986E+03  0.22325761124E+03  0.50000000000E+03  0.47000000000E+01 0. -1.
         -5    1    1    2    0  501  0.27523394080E+03  0.35267580986E+03 -0.22325761124E+03  0.50000000000E+03  0.47000000000E+01 0.  1.
</event>
<event>
 4    1  0.4924477E-004  0.1000000E+04  0.7546771E-02  0.8684367E-01
         11   -1    0    0    0    0  0.00000000000E+00  0.00000000000E+00  0.50000000000E+03  0.50000000000E+03  0.00000000000E+00 0. -1.
        -11   -1    0    0    0    0 -0.00000000000E+00 -0.00000000000E+00 -0.50000000000E+03  0.50000000000E+03  0.00000000000E+00 0.  1.
          5    1    1    2  501    0 -0.46370376811E+03  0.18055822525E+03  0.48533006705E+02  0.50000000000E+03  0.47000000000E+01 0. -1.
         -5    1    1    2    0  501  0.46370376811E+03 -0.18055822525E+03 -0.48533006705E+02  0.50000000000E+03  0.47000000000E+01 0.  1.
</event>
<event>
 4    1  0.4924477E-004  0.1000000E+04  0.7546771E-02  0.8684367E-01
         11   -1    0    0    0    0  0.00000000000E+00  0.00000000000E+00  0.50000000000E+03  0.50000000000E+03  0.00000000000E+00 0. -1.
        -11   -1    0    0    0    0 -0.00000000000E+00 -0.00000000000E+00 -0.50000000000E+03  0.50000000000E+03  0.00000000000E+00 0.  1.
          5    1    1    2  501    0  0.15726138400E+03  0.71166789138E+02  0.46923560737E+03  0.50000000000E+03  0.47000000000E+01 0. -1.
         -5    1    1    2    0  501 -0.15726138400E+03 -0.71166789138E+02 -0.46923560737E+03  0.50000000000E+03  0.47000000000E+01 0.  1.
</event>
<event>
 4    1  0.4924477E-004  0.1000000E+04  0.7546771E-02  0.8684367E-01
         11   -1    0    0    0    0  0.00000000000E+00  0.00000000000E+00  0.50000000000E+03  0.50000000000E+03  0.00000000000E+00 0. -1.
        -11   -1    0    0    0    0 -0.00000000000E+00 -0.00000000000E+00 -0.50000000000E+03  0.50000000000E+03  0.00000000000E+00 0.  1.
          5    1    1    2  501    0 -0.42373772315E+03 -0.93535051185E+02  0.24834541706E+03  0.50000000000E+03  0.47000000000E+01 0. -1.
         -5    1    1    2    0  501  0.42373772315E+03  0.93535051185E+02 -0.24834541706E+03  0.50000000000E+03  0.47000000000E+01 0.  1.
</event>
<event>
 4    1  0.4924477E-004  0.1000000E+04  0.7546771E-02  0.8684367E-01
         11   -1    0    0    0    0  0.00000000000E+00  0.00000000000E+00  0.50000000000E+03  0.50000000000E+03  0.00000000000E+00 0. -1.
        -11   -1    0    0    0    0 -0.00000000000E+00 -0.00000000000E+00 -0.50000000000E+03  0.50000000000E+03  0.00000000000E+00 0.  1.
          5    1    1    2  501    0 -0.28234813178E+03  0.10367141863E+03  0.39938662902E+03  0.50000000000E+03  0.47000000000E+01 0. -1.
         -5    1    1    2    0  501  0.28234813178E+03 -0.10367141863E+03 -0.39938662902E+03  0.50000000000E+03  0.47000000000E+01 0.  1.
</event>
<event>
 4    1  0.4924477E-004  0.1000000E+04  0.7546771E-02  0.8684367E-01
         11   -1    0    0    0    0  0.00000000000E+00  0.00000000000E+00  0.50000000000E+03  0.50000000000E+03  0.00000000000E+00 0. -1.
        -11   -1    0    0    0    0 -0.00000000000E+00 -0.00000000000E+00 -0.50000000000E+03  0.50000000000E+03  0.00000000000E+00 0.  1.
          5    1    1    2  501    0  0.41340664537E+03 -0.26764413716E+03  0.86252370424E+02  0.50000000000E+03  0.47000000000E+01 0. -1.
         -5    1    1    2    0  501 -0.41340664537E+03  0.26764413716E+03 -0.86252370424E+02  0.50000000000E+03  0.47000000000E+01 0.  1.
</event>
<event>
 4    1  0.4924477E-004  0.1000000E+04  0.7546771E-02  0.8684367E-01
         11   -1    0    0    0    0  0.00000000000E+00  0.00000000000E+00  0.50000000000E+03  0.50000000000E+03  0.00000000000E+00 0. -1.
        -11   -1    0    0    0    0 -0.00000000000E+00 -0.00000000000E+00 -0.50000000000E+03  0.50000000000E+03  0.00000000000E+00 0.  1.
          5    1    1    2  501    0  0.12971760483E+03  0.43399476278E+03  0.21165962977E+03  0.50000000000E+03  0.47000000000E+01 0. -1.
         -5    1    1    2    0  501 -0.12971760483E+03 -0.43399476278E+03 -0.21165962977E+03  0.50000000000E+03  0.47000000000E+01 0.  1.
</event>
<event>
 4    1  0.4924477E-004  0.1000000E+04  0.7546771E-02  0.8684367E-01
         11   -1    0    0    0    0  0.00000000000E+00  0.00000000000E+00  0.50000000000E+03  0.50000000000E+03  0.00000000000E+00 0. -1.
        -11   -1    0    0    0    0 -0.00000000000E+00 -0.00000000000E+00 -0.50000000000E+03  0.50000000000E+03  0.00000000000E+00 0.  1.
          5    1    1    2  501    0  0.25686830147E+03  0.97624513960E+02 -0.41769132140E+03  0.50000000000E+03  0.47000000000E+01 0.  1.
         -5    1    1    2    0  501 -0.25686830147E+03 -0.97624513960E+02  0.41769132140E+03  0.50000000000E+03  0.47000000000E+01 0. -1.
</event>
<event>
 4    1  0.4924477E-004  0.1000000E+04  0.7546771E-02  0.8684367E-01
         11   -1    0    0    0    0  0.00000000000E+00  0.00000000000E+00  0.50000000000E+03  0.50000000000E+03  0.00000000000E+00 0. -1.
        -11   -1    0    0    0    0 -0.00000000000E+00 -0.00000000000E+00 -0.50000000000E+03  0.50000000000E+03  0.00000000000E+00 0.  1.
          5    1    1    2  501    0  0.98326877172E+02  0.48005549149E+03  0.99279707496E+02  0.50000000000E+03  0.47000000000E+01 0. -1.
         -5    1    1    2    0  501 -0.98326877172E+02 -0.48005549149E+03 -0.99279707496E+02  0.50000000000E+03  0.47000000000E+01 0.  1.
</event>
<event>
 4    1  0.4924477E-004  0.1000000E+04  0.7546771E-02  0.8684367E-01
         11   -1    0    0    0    0  0.00000000000E+00  0.00000000000E+00  0.50000000000E+03  0.50000000000E+03  0.00000000000E+00 0. -1.
        -11   -1    0    0    0    0 -0.00000000000E+00 -0.00000000000E+00 -0.50000000000E+03  0.50000000000E+03  0.00000000000E+00 0.  1.
          5    1    1    2  501    0  0.75966935832E+02  0.18771853632E+03  0.45713092849E+03  0.50000000000E+03  0.47000000000E+01 0. -1.
         -5    1    1    2    0  501 -0.75966935832E+02 -0.18771853632E+03 -0.45713092849E+03  0.50000000000E+03  0.47000000000E+01 0.  1.
</event>
<event>
 4    1  0.4924477E-004  0.1000000E+04  0.7546771E-02  0.8684367E-01
         11   -1    0    0    0    0  0.00000000000E+00  0.00000000000E+00  0.50000000000E+03  0.50000000000E+03  0.00000000000E+00 0.  1.
        -11   -1    0    0    0    0 -0.00000000000E+00 -0.00000000000E+00 -0.50000000000E+03  0.50000000000E+03  0.00000000000E+00 0. -1.
          5    1    1    2  501    0 -0.41598441019E+03  0.97909829501E+02 -0.25951598365E+03  0.50000000000E+03  0.47000000000E+01 0. -1.
         -5    1    1    2    0  501  0.41598441019E+03 -0.97909829501E+02  0.25951598365E+03  0.50000000000E+03  0.47000000000E+01 0.  1.
</event>
<event>
 4    1  0.4924477E-004  0.1000000E+04  0.7546771E-02  0.8684367E-01
         11   -1    0    0    0    0  0.00000000000E+00  0.00000000000E+00  0.50000000000E+03  0.50000000000E+03  0.00000000000E+00 0. -1.
        -11   -1    0    0    0    0 -0.00000000000E+00 -0.00000000000E+00 -0.50000000000E+03  0.50000000000E+03  0.00000000000E+00 0.  1.
          5    1    1    2  501    0  0.37423338539E+03  0.49734193319E+02  0.32780145405E+03  0.50000000000E+03  0.47000000000E+01 0. -1.
         -5    1    1    2    0  501 -0.37423338539E+03 -0.49734193319E+02 -0.32780145405E+03  0.50000000000E+03  0.47000000000E+01 0.  1.
</event>
<event>
 4    1  0.4924477E-004  0.1000000E+04  0.7546771E-02  0.8684367E-01
         11   -1    0    0    0    0  0.00000000000E+00  0.00000000000E+00  0.50000000000E+03  0.50000000000E+03  0.00000000000E+00 0. -1.
        -11   -1    0    0    0    0 -0.00000000000E+00 -0.00000000000E+00 -0.50000000000E+03  0.50000000000E+03  0.00000000000E+00 0.  1.
          5    1    1    2  501    0 -0.39995439907E+03 -0.29823477520E+03  0.32717083139E+02  0.50000000000E+03  0.47000000000E+01 0. -1.
         -5    1    1    2    0  501  0.39995439907E+03  0.29823477520E+03 -0.32717083139E+02  0.50000000000E+03  0.47000000000E+01 0.  1.
</event>
<event>
 4    1  0.4924477E-004  0.1000000E+04  0.7546771E-02  0.8684367E-01
         11   -1    0    0    0    0  0.00000000000E+00  0.00000000000E+00  0.50000000000E+03  0.50000000000E+03  0.00000000000E+00 0. -1.
        -11   -1    0    0    0    0 -0.00000000000E+00 -0.00000000000E+00 -0.50000000000E+03  0.50000000000E+03  0.00000000000E+00 0.  1.
          5    1    1    2  501    0  0.10396951494E+03 -0.33803070743E+03  0.35341687961E+03  0.50000000000E+03  0.47000000000E+01 0. -1.
         -5    1    1    2    0  501 -0.10396951494E+03  0.33803070743E+03 -0.35341687961E+03  0.50000000000E+03  0.47000000000E+01 0.  1.
</event>
<event>
 4    1  0.4924477E-004  0.1000000E+04  0.7546771E-02  0.8684367E-01
         11   -1    0    0    0    0  0.00000000000E+00  0.00000000000E+00  0.50000000000E+03  0.50000000000E+03  0.00000000000E+00 0. -1.
        -11   -1    0    0    0    0 -0.00000000000E+00 -0.00000000000E+00 -0.50000000000E+03  0.50000000000E+03  0.00000000000E+00 0.  1.
          5    1    1    2  501    0  0.12606438233E+03  0.10275881303E+03  0.47278568914E+03  0.50000000000E+03  0.47000000000E+01 0. -1.
         -5    1    1    2    0  501 -0.12606438233E+03 -0.10275881303E+03 -0.47278568914E+03  0.50000000000E+03  0.47000000000E+01 0.  1.
</event>
<event>
 4    1  0.4924477E-004  0.1000000E+04  0.7546771E-02  0.8684367E-01
         11   -1    0    0    0    0  0.00000000000E+00  0.00000000000E+00  0.50000000000E+03  0.50000000000E+03  0.00000000000E+00 0. -1.
        -11   -1    0    0    0    0 -0.00000000000E+00 -0.00000000000E+00 -0.50000000000E+03  0.50000000000E+03  0.00000000000E+00 0.  1.
          5    1    1    2  501    0 -0.26138193490E+03  0.25849247293E+03  0.33887908691E+03  0.50000000000E+03  0.47000000000E+01 0. -1.
         -5    1    1    2    0  501  0.26138193490E+03 -0.25849247293E+03 -0.33887908691E+03  0.50000000000E+03  0.47000000000E+01 0.  1.
</event>
<event>
 4    1  0.4924477E-004  0.1000000E+04  0.7546771E-02  0.8684367E-01
         11   -1    0    0    0    0  0.00000000000E+00  0.00000000000E+00  0.50000000000E+03  0.50000000000E+03  0.00000000000E+00 0. -1.
        -11   -1    0    0    0    0 -0.00000000000E+00 -0.00000000000E+00 -0.50000000000E+03  0.50000000000E+03  0.00000000000E+00 0.  1.
          5    1    1    2  501    0  0.10143143249E+03 -0.11911274472E+03  0.47487022285E+03  0.50000000000E+03  0.47000000000E+01 0. -1.
         -5    1    1    2    0  501 -0.10143143249E+03  0.11911274472E+03 -0.47487022285E+03  0.50000000000E+03  0.47000000000E+01 0.  1.
</event>
<event>
 4    1  0.4924477E-004  0.1000000E+04  0.7546771E-02  0.8684367E-01
         11   -1    0    0    0    0  0.00000000000E+00  0.00000000000E+00  0.50000000000E+03  0.50000000000E+03  0.00000000000E+00 0. -1.
        -11   -1    0    0    0    0 -0.00000000000E+00 -0.00000000000E+00 -0.50000000000E+03  0.50000000000E+03  0.00000000000E+00 0.  1.
          5    1    1    2  501    0  0.39589092720E+03  0.12283619540E+03  0.27957030039E+03  0.50000000000E+03  0.47000000000E+01 0. -1.
         -5    1    1    2    0  501 -0.39589092720E+03 -0.12283619540E+03 -0.27957030039E+03  0.50000000000E+03  0.47000000000E+01 0.  1.
</event>
<event>
 4    1  0.4924477E-004  0.1000000E+04  0.7546771E-02  0.8684367E-01
         11   -1    0    0    0    0  0.00000000000E+00  0.00000000000E+00  0.50000000000E+03  0.50000000000E+03  0.00000000000E+00 0. -1.
        -11   -1    0    0    0    0 -0.00000000000E+00 -0.00000000000E+00 -0.50000000000E+03  0.50000000000E+03  0.00000000000E+00 0.  1.
          5    1    1    2  501    0  0.47383390091E+03 -0.84031042655E+02  0.13563970002E+03  0.50000000000E+03  0.47000000000E+01 0. -1.
         -5    1    1    2    0  501 -0.47383390091E+03  0.84031042655E+02 -0.13563970002E+03  0.50000000000E+03  0.47000000000E+01 0.  1.
</event>
<event>
 4    1  0.4924477E-004  0.1000000E+04  0.7546771E-02  0.8684367E-01
         11   -1    0    0    0    0  0.00000000000E+00  0.00000000000E+00  0.50000000000E+03  0.50000000000E+03  0.00000000000E+00 0. -1.
        -11   -1    0    0    0    0 -0.00000000000E+00 -0.00000000000E+00 -0.50000000000E+03  0.50000000000E+03  0.00000000000E+00 0.  1.
          5    1    1    2  501    0  0.17872868598E+03 -0.43764893607E+03 -0.16278014487E+03  0.50000000000E+03  0.47000000000E+01 0. -1.
         -5    1    1    2    0  501 -0.17872868598E+03  0.43764893607E+03  0.16278014487E+03  0.50000000000E+03  0.47000000000E+01 0.  1.
</event>
<event>
 4    1  0.4924477E-004  0.1000000E+04  0.7546771E-02  0.8684367E-01
         11   -1    0    0    0    0  0.00000000000E+00  0.00000000000E+00  0.50000000000E+03  0.50000000000E+03  0.00000000000E+00 0. -1.
        -11   -1    0    0    0    0 -0.00000000000E+00 -0.00000000000E+00 -0.50000000000E+03  0.50000000000E+03  0.00000000000E+00 0.  1.
          5    1    1    2  501    0 -0.14229337624E+03  0.47925684509E+03 -0.65864641217E+01  0.50000000000E+03  0.47000000000E+01 0. -1.
         -5    1    1    2    0  501  0.14229337624E+03 -0.47925684509E+03  0.65864641217E+01  0.50000000000E+03  0.47000000000E+01 0.  1.
</event>
<event>
 4    1  0.4924477E-004  0.1000000E+04  0.7546771E-02  0.8684367E-01
         11   -1    0    0    0    0  0.00000000000E+00  0.00000000000E+00  0.50000000000E+03  0.50000000000E+03  0.00000000000E+00 0. -1.
        -11   -1    0    0    0    0 -0.00000000000E+00 -0.00000000000E+00 -0.50000000000E+03  0.50000000000E+03  0.00000000000E+00 0.  1.
          5    1    1    2  501    0  0.41621240157E+03 -0.80701326351E+02  0.26501404247E+03  0.50000000000E+03  0.47000000000E+01 0. -1.
         -5    1    1    2    0  501 -0.41621240157E+03  0.80701326351E+02 -0.26501404247E+03  0.50000000000E+03  0.47000000000E+01 0.  1.
</event>
<event>
 4    1  0.4924477E-004  0.1000000E+04  0.7546771E-02  0.8684367E-01
         11   -1    0    0    0    0  0.00000000000E+00  0.00000000000E+00  0.50000000000E+03  0.50000000000E+03  0.00000000000E+00 0. -1.
        -11   -1    0    0    0    0 -0.00000000000E+00 -0.00000000000E+00 -0.50000000000E+03  0.50000000000E+03  0.00000000000E+00 0.  1.
          5    1    1    2  501    0 -0.39871291512E+03  0.29428797492E+03  0.66336333422E+02  0.50000000000E+03  0.47000000000E+01 0. -1.
         -5    1    1    2    0  501  0.39871291512E+03 -0.29428797492E+03 -0.66336333422E+02  0.50000000000E+03  0.47000000000E+01 0.  1.
</event>
<event>
 4    1  0.4924477E-004  0.1000000E+04  0.7546771E-02  0.8684367E-01
         11   -1    0    0    0    0  0.00000000000E+00  0.00000000000E+00  0.50000000000E+03  0.50000000000E+03  0.00000000000E+00 0. -1.
        -11   -1    0    0    0    0 -0.00000000000E+00 -0.00000000000E+00 -0.50000000000E+03  0.50000000000E+03  0.00000000000E+00 0.  1.
          5    1    1    2  501    0  0.20162722918E+03  0.18987234870E+03  0.41626056942E+03  0.50000000000E+03  0.47000000000E+01 0. -1.
         -5    1    1    2    0  501 -0.20162722918E+03 -0.18987234870E+03 -0.41626056942E+03  0.50000000000E+03  0.47000000000E+01 0.  1.
</event>
<event>
 4    1  0.4924477E-004  0.1000000E+04  0.7546771E-02  0.8684367E-01
         11   -1    0    0    0    0  0.00000000000E+00  0.00000000000E+00  0.50000000000E+03  0.50000000000E+03  0.00000000000E+00 0. -1.
        -11   -1    0    0    0    0 -0.00000000000E+00 -0.00000000000E+00 -0.50000000000E+03  0.50000000000E+03  0.00000000000E+00 0.  1.
          5    1    1    2  501    0 -0.27375818236E+03 -0.34598891017E+03  0.23521488395E+03  0.50000000000E+03  0.47000000000E+01 0. -1.
         -5    1    1    2    0  501  0.27375818236E+03  0.34598891017E+03 -0.23521488395E+03  0.50000000000E+03  0.47000000000E+01 0.  1.
</event>
<event>
 4    1  0.4924477E-004  0.1000000E+04  0.7546771E-02  0.8684367E-01
         11   -1    0    0    0    0  0.00000000000E+00  0.00000000000E+00  0.50000000000E+03  0.50000000000E+03  0.00000000000E+00 0. -1.
        -11   -1    0    0    0    0 -0.00000000000E+00 -0.00000000000E+00 -0.50000000000E+03  0.50000000000E+03  0.00000000000E+00 0.  1.
          5    1    1    2  501    0  0.46417075885E+03  0.18568022597E+03 -0.68022287283E+01  0.50000000000E+03  0.47000000000E+01 0. -1.
         -5    1    1    2    0  501 -0.46417075885E+03 -0.18568022597E+03  0.68022287283E+01  0.50000000000E+03  0.47000000000E+01 0.  1.
</event>
<event>
 4    1  0.4924477E-004  0.1000000E+04  0.7546771E-02  0.8684367E-01
         11   -1    0    0    0    0  0.00000000000E+00  0.00000000000E+00  0.50000000000E+03  0.50000000000E+03  0.00000000000E+00 0. -1.
        -11   -1    0    0    0    0 -0.00000000000E+00 -0.00000000000E+00 -0.50000000000E+03  0.50000000000E+03  0.00000000000E+00 0.  1.
          5    1    1    2  501    0 -0.20089763676E+03  0.39633592752E+02  0.45612194408E+03  0.50000000000E+03  0.47000000000E+01 0. -1.
         -5    1    1    2    0  501  0.20089763676E+03 -0.39633592752E+02 -0.45612194408E+03  0.50000000000E+03  0.47000000000E+01 0.  1.
</event>
<event>
 4    1  0.4924477E-004  0.1000000E+04  0.7546771E-02  0.8684367E-01
         11   -1    0    0    0    0  0.00000000000E+00  0.00000000000E+00  0.50000000000E+03  0.50000000000E+03  0.00000000000E+00 0.  1.
        -11   -1    0    0    0    0 -0.00000000000E+00 -0.00000000000E+00 -0.50000000000E+03  0.50000000000E+03  0.00000000000E+00 0. -1.
          5    1    1    2  501    0 -0.25844538367E+03  0.18076894356E+03  0.38795164995E+03  0.50000000000E+03  0.47000000000E+01 0.  1.
         -5    1    1    2    0  501  0.25844538367E+03 -0.18076894356E+03 -0.38795164995E+03  0.50000000000E+03  0.47000000000E+01 0. -1.
</event>
<event>
 4    1  0.4924477E-004  0.1000000E+04  0.7546771E-02  0.8684367E-01
         11   -1    0    0    0    0  0.00000000000E+00  0.00000000000E+00  0.50000000000E+03  0.50000000000E+03  0.00000000000E+00 0.  1.
        -11   -1    0    0    0    0 -0.00000000000E+00 -0.00000000000E+00 -0.50000000000E+03  0.50000000000E+03  0.00000000000E+00 0. -1.
          5    1    1    2  501    0  0.16833338907E+03  0.26496239803E+03  0.38914869620E+03  0.50000000000E+03  0.47000000000E+01 0.  1.
         -5    1    1    2    0  501 -0.16833338907E+03 -0.26496239803E+03 -0.38914869620E+03  0.50000000000E+03  0.47000000000E+01 0. -1.
</event>
<event>
 4    1  0.4924477E-004  0.1000000E+04  0.7546771E-02  0.8684367E-01
         11   -1    0    0    0    0  0.00000000000E+00  0.00000000000E+00  0.50000000000E+03  0.50000000000E+03  0.00000000000E+00 0. -1.
        -11   -1    0    0    0    0 -0.00000000000E+00 -0.00000000000E+00 -0.50000000000E+03  0.50000000000E+03  0.00000000000E+00 0.  1.
          5    1    1    2  501    0 -0.64136274151E+02  0.16095315022E+03  0.46899736862E+03  0.50000000000E+03  0.47000000000E+01 0. -1.
         -5    1    1    2    0  501  0.64136274151E+02 -0.16095315022E+03 -0.46899736862E+03  0.50000000000E+03  0.47000000000E+01 0.  1.
</event>
<event>
 4    1  0.4924477E-004  0.1000000E+04  0.7546771E-02  0.8684367E-01
         11   -1    0    0    0    0  0.00000000000E+00  0.00000000000E+00  0.50000000000E+03  0.50000000000E+03  0.00000000000E+00 0. -1.
        -11   -1    0    0    0    0 -0.00000000000E+00 -0.00000000000E+00 -0.50000000000E+03  0.50000000000E+03  0.00000000000E+00 0.  1.
          5    1    1    2  501    0 -0.15128979186E+03  0.25975104754E+03  0.39952309343E+03  0.50000000000E+03  0.47000000000E+01 0. -1.
         -5    1    1    2    0  501  0.15128979186E+03 -0.25975104754E+03 -0.39952309343E+03  0.50000000000E+03  0.47000000000E+01 0.  1.
</event>
<event>
 4    1  0.4924477E-004  0.1000000E+04  0.7546771E-02  0.8684367E-01
         11   -1    0    0    0    0  0.00000000000E+00  0.00000000000E+00  0.50000000000E+03  0.50000000000E+03  0.00000000000E+00 0. -1.
        -11   -1    0    0    0    0 -0.00000000000E+00 -0.00000000000E+00 -0.50000000000E+03  0.50000000000E+03  0.00000000000E+00 0.  1.
          5    1    1    2  501    0 -0.18017986953E+03  0.30971130299E+03  0.34870049242E+03  0.50000000000E+03  0.47000000000E+01 0. -1.
         -5    1    1    2    0  501  0.18017986953E+03 -0.30971130299E+03 -0.34870049242E+03  0.50000000000E+03  0.47000000000E+01 0.  1.
</event>
<event>
 4    1  0.4924477E-004  0.1000000E+04  0.7546771E-02  0.8684367E-01
         11   -1    0    0    0    0  0.00000000000E+00  0.00000000000E+00  0.50000000000E+03  0.50000000000E+03  0.00000000000E+00 0. -1.
        -11   -1    0    0    0    0 -0.00000000000E+00 -0.00000000000E+00 -0.50000000000E+03  0.50000000000E+03  0.00000000000E+00 0.  1.
          5    1    1    2  501    0  0.42978273005E+03  0.14825482811E+03 -0.20805100551E+03  0.50000000000E+03  0.47000000000E+01 0. -1.
         -5    1    1    2    0  501 -0.42978273005E+03 -0.14825482811E+03  0.20805100551E+03  0.50000000000E+03  0.47000000000E+01 0.  1.
</event>
<event>
 4    1  0.4924477E-004  0.1000000E+04  0.7546771E-02  0.8684367E-01
         11   -1    0    0    0    0  0.00000000000E+00  0.00000000000E+00  0.50000000000E+03  0.50000000000E+03  0.00000000000E+00 0. -1.
        -11   -1    0    0    0    0 -0.00000000000E+00 -0.00000000000E+00 -0.50000000000E+03  0.50000000000E+03  0.00000000000E+00 0.  1.
          5    1    1    2  501    0  0.34179886686E+03 -0.34569714902E+03  0.11681149673E+03  0.50000000000E+03  0.47000000000E+01 0. -1.
         -5    1    1    2    0  501 -0.34179886686E+03  0.34569714902E+03 -0.11681149673E+03  0.50000000000E+03  0.47000000000E+01 0.  1.
</event>
<event>
 4    1  0.4924477E-004  0.1000000E+04  0.7546771E-02  0.8684367E-01
         11   -1    0    0    0    0  0.00000000000E+00  0.00000000000E+00  0.50000000000E+03  0.50000000000E+03  0.00000000000E+00 0.  1.
        -11   -1    0    0    0    0 -0.00000000000E+00 -0.00000000000E+00 -0.50000000000E+03  0.50000000000E+03  0.00000000000E+00 0. -1.
          5    1    1    2  501    0 -0.18030965106E+03 -0.21759110405E+03 -0.41245660520E+03  0.50000000000E+03  0.47000000000E+01 0. -1.
         -5    1    1    2    0  501  0.18030965106E+03  0.21759110405E+03  0.41245660520E+03  0.50000000000E+03  0.47000000000E+01 0.  1.
</event>
<event>
 4    1  0.4924477E-004  0.1000000E+04  0.7546771E-02  0.8684367E-01
         11   -1    0    0    0    0  0.00000000000E+00  0.00000000000E+00  0.50000000000E+03  0.50000000000E+03  0.00000000000E+00 0. -1.
        -11   -1    0    0    0    0 -0.00000000000E+00 -0.00000000000E+00 -0.50000000000E+03  0.50000000000E+03  0.00000000000E+00 0.  1.
          5    1    1    2  501    0  0.13625629166E+03  0.40417548523E+03  0.26087221034E+03  0.50000000000E+03  0.47000000000E+01 0. -1.
         -5    1    1    2    0  501 -0.13625629166E+03 -0.40417548523E+03 -0.26087221034E+03  0.50000000000E+03  0.47000000000E+01 0.  1.
</event>
<event>
 4    1  0.4924477E-004  0.1000000E+04  0.7546771E-02  0.8684367E-01
         11   -1    0    0    0    0  0.00000000000E+00  0.00000000000E+00  0.50000000000E+03  0.50000000000E+03  0.00000000000E+00 0. -1.
        -11   -1    0    0    0    0 -0.00000000000E+00 -0.00000000000E+00 -0.50000000000E+03  0.50000000000E+03  0.00000000000E+00 0.  1.
          5    1    1    2  501    0 -0.37270968726E+03 -0.26688914665E+03  0.19958853280E+03  0.50000000000E+03  0.47000000000E+01 0. -1.
         -5    1    1    2    0  501  0.37270968726E+03  0.26688914665E+03 -0.19958853280E+03  0.50000000000E+03  0.47000000000E+01 0.  1.
</event>
<event>
 4    1  0.4924477E-004  0.1000000E+04  0.7546771E-02  0.8684367E-01
         11   -1    0    0    0    0  0.00000000000E+00  0.00000000000E+00  0.50000000000E+03  0.50000000000E+03  0.00000000000E+00 0. -1.
        -11   -1    0    0    0    0 -0.00000000000E+00 -0.00000000000E+00 -0.50000000000E+03  0.50000000000E+03  0.00000000000E+00 0.  1.
          5    1    1    2  501    0  0.16142477876E+03  0.46734778430E+03  0.74202421224E+02  0.50000000000E+03  0.47000000000E+01 0. -1.
         -5    1    1    2    0  501 -0.16142477876E+03 -0.46734778430E+03 -0.74202421224E+02  0.50000000000E+03  0.47000000000E+01 0.  1.
</event>
<event>
 4    1  0.4924477E-004  0.1000000E+04  0.7546771E-02  0.8684367E-01
         11   -1    0    0    0    0  0.00000000000E+00  0.00000000000E+00  0.50000000000E+03  0.50000000000E+03  0.00000000000E+00 0. -1.
        -11   -1    0    0    0    0 -0.00000000000E+00 -0.00000000000E+00 -0.50000000000E+03  0.50000000000E+03  0.00000000000E+00 0.  1.
          5    1    1    2  501    0  0.33151466902E+03 -0.37166088136E+03  0.44092215831E+02  0.50000000000E+03  0.47000000000E+01 0. -1.
         -5    1    1    2    0  501 -0.33151466902E+03  0.37166088136E+03 -0.44092215831E+02  0.50000000000E+03  0.47000000000E+01 0.  1.
</event>
<event>
 4    1  0.4924477E-004  0.1000000E+04  0.7546771E-02  0.8684367E-01
         11   -1    0    0    0    0  0.00000000000E+00  0.00000000000E+00  0.50000000000E+03  0.50000000000E+03  0.00000000000E+00 0. -1.
        -11   -1    0    0    0    0 -0.00000000000E+00 -0.00000000000E+00 -0.50000000000E+03  0.50000000000E+03  0.00000000000E+00 0.  1.
          5    1    1    2  501    0 -0.30517982573E+03 -0.30954567839E+03  0.24703169222E+03  0.50000000000E+03  0.47000000000E+01 0. -1.
         -5    1    1    2    0  501  0.30517982573E+03  0.30954567839E+03 -0.24703169222E+03  0.50000000000E+03  0.47000000000E+01 0.  1.
</event>
<event>
 4    1  0.4924477E-004  0.1000000E+04  0.7546771E-02  0.8684367E-01
         11   -1    0    0    0    0  0.00000000000E+00  0.00000000000E+00  0.50000000000E+03  0.50000000000E+03  0.00000000000E+00 0. -1.
        -11   -1    0    0    0    0 -0.00000000000E+00 -0.00000000000E+00 -0.50000000000E+03  0.50000000000E+03  0.00000000000E+00 0.  1.
          5    1    1    2  501    0  0.30806391444E+03  0.34173383574E+03  0.19568474680E+03  0.50000000000E+03  0.47000000000E+01 0. -1.
         -5    1    1    2    0  501 -0.30806391444E+03 -0.34173383574E+03 -0.19568474680E+03  0.50000000000E+03  0.47000000000E+01 0.  1.
</event>
<event>
 4    1  0.4924477E-004  0.1000000E+04  0.7546771E-02  0.8684367E-01
         11   -1    0    0    0    0  0.00000000000E+00  0.00000000000E+00  0.50000000000E+03  0.50000000000E+03  0.00000000000E+00 0. -1.
        -11   -1    0    0    0    0 -0.00000000000E+00 -0.00000000000E+00 -0.50000000000E+03  0.50000000000E+03  0.00000000000E+00 0.  1.
          5    1    1    2  501    0  0.37379181391E+03 -0.30199611065E+03  0.13804325050E+03  0.50000000000E+03  0.47000000000E+01 0. -1.
         -5    1    1    2    0  501 -0.37379181391E+03  0.30199611065E+03 -0.13804325050E+03  0.50000000000E+03  0.47000000000E+01 0.  1.
</event>
<event>
 4    1  0.4924477E-004  0.1000000E+04  0.7546771E-02  0.8684367E-01
         11   -1    0    0    0    0  0.00000000000E+00  0.00000000000E+00  0.50000000000E+03  0.50000000000E+03  0.00000000000E+00 0. -1.
        -11   -1    0    0    0    0 -0.00000000000E+00 -0.00000000000E+00 -0.50000000000E+03  0.50000000000E+03  0.00000000000E+00 0.  1.
          5    1    1    2  501    0 -0.18713150416E+03  0.39577848235E+03  0.24149348450E+03  0.50000000000E+03  0.47000000000E+01 0. -1.
         -5    1    1    2    0  501  0.18713150416E+03 -0.39577848235E+03 -0.24149348450E+03  0.50000000000E+03  0.47000000000E+01 0.  1.
</event>
<event>
 4    1  0.4924477E-004  0.1000000E+04  0.7546771E-02  0.8684367E-01
         11   -1    0    0    0    0  0.00000000000E+00  0.00000000000E+00  0.50000000000E+03  0.50000000000E+03  0.00000000000E+00 0. -1.
        -11   -1    0    0    0    0 -0.00000000000E+00 -0.00000000000E+00 -0.50000000000E+03  0.50000000000E+03  0.00000000000E+00 0.  1.
          5    1    1    2  501    0 -0.24195308403E+03  0.16545310897E+03  0.40504553307E+03  0.50000000000E+03  0.47000000000E+01 0. -1.
         -5    1    1    2    0  501  0.24195308403E+03 -0.16545310897E+03 -0.40504553307E+03  0.50000000000E+03  0.47000000000E+01 0.  1.
</event>
<event>
 4    1  0.4924477E-004  0.1000000E+04  0.7546771E-02  0.8684367E-01
         11   -1    0    0    0    0  0.00000000000E+00  0.00000000000E+00  0.50000000000E+03  0.50000000000E+03  0.00000000000E+00 0. -1.
        -11   -1    0    0    0    0 -0.00000000000E+00 -0.00000000000E+00 -0.50000000000E+03  0.50000000000E+03  0.00000000000E+00 0.  1.
          5    1    1    2  501    0  0.18537755375E+03 -0.39098520107E+03  0.25048681623E+03  0.50000000000E+03  0.47000000000E+01 0. -1.
         -5    1    1    2    0  501 -0.18537755375E+03  0.39098520107E+03 -0.25048681623E+03  0.50000000000E+03  0.47000000000E+01 0.  1.
</event>
<event>
 4    1  0.4924477E-004  0.1000000E+04  0.7546771E-02  0.8684367E-01
         11   -1    0    0    0    0  0.00000000000E+00  0.00000000000E+00  0.50000000000E+03  0.50000000000E+03  0.00000000000E+00 0. -1.
        -11   -1    0    0    0    0 -0.00000000000E+00 -0.00000000000E+00 -0.50000000000E+03  0.50000000000E+03  0.00000000000E+00 0.  1.
          5    1    1    2  501    0  0.34513026825E+03  0.30451063645E+03  0.19528512545E+03  0.50000000000E+03  0.47000000000E+01 0. -1.
         -5    1    1    2    0  501 -0.34513026825E+03 -0.30451063645E+03 -0.19528512545E+03  0.50000000000E+03  0.47000000000E+01 0.  1.
</event>
<event>
 4    1  0.4924477E-004  0.1000000E+04  0.7546771E-02  0.8684367E-01
         11   -1    0    0    0    0  0.00000000000E+00  0.00000000000E+00  0.50000000000E+03  0.50000000000E+03  0.00000000000E+00 0. -1.
        -11   -1    0    0    0    0 -0.00000000000E+00 -0.00000000000E+00 -0.50000000000E+03  0.50000000000E+03  0.00000000000E+00 0.  1.
          5    1    1    2  501    0  0.24117673377E+02  0.32367397147E+03  0.38030436235E+03  0.50000000000E+03  0.47000000000E+01 0. -1.
         -5    1    1    2    0  501 -0.24117673377E+02 -0.32367397147E+03 -0.38030436235E+03  0.50000000000E+03  0.47000000000E+01 0.  1.
</event>
<event>
 4    1  0.4924477E-004  0.1000000E+04  0.7546771E-02  0.8684367E-01
         11   -1    0    0    0    0  0.00000000000E+00  0.00000000000E+00  0.50000000000E+03  0.50000000000E+03  0.00000000000E+00 0. -1.
        -11   -1    0    0    0    0 -0.00000000000E+00 -0.00000000000E+00 -0.50000000000E+03  0.50000000000E+03  0.00000000000E+00 0.  1.
          5    1    1    2  501    0 -0.15083890134E+03  0.43103906390E+03 -0.20354572271E+03  0.50000000000E+03  0.47000000000E+01 0. -1.
         -5    1    1    2    0  501  0.15083890134E+03 -0.43103906390E+03  0.20354572271E+03  0.50000000000E+03  0.47000000000E+01 0.  1.
</event>
<event>
 4    1  0.4924477E-004  0.1000000E+04  0.7546771E-02  0.8684367E-01
         11   -1    0    0    0    0  0.00000000000E+00  0.00000000000E+00  0.50000000000E+03  0.50000000000E+03  0.00000000000E+00 0. -1.
        -11   -1    0    0    0    0 -0.00000000000E+00 -0.00000000000E+00 -0.50000000000E+03  0.50000000000E+03  0.00000000000E+00 0.  1.
          5    1    1    2  501    0 -0.29892068587E+02  0.43911510896E+03  0.23719674391E+03  0.50000000000E+03  0.47000000000E+01 0. -1.
         -5    1    1    2    0  501  0.29892068587E+02 -0.43911510896E+03 -0.23719674391E+03  0.50000000000E+03  0.47000000000E+01 0.  1.
</event>
<event>
 4    1  0.4924477E-004  0.1000000E+04  0.7546771E-02  0.8684367E-01
         11   -1    0    0    0    0  0.00000000000E+00  0.00000000000E+00  0.50000000000E+03  0.50000000000E+03  0.00000000000E+00 0. -1.
        -11   -1    0    0    0    0 -0.00000000000E+00 -0.00000000000E+00 -0.50000000000E+03  0.50000000000E+03  0.00000000000E+00 0.  1.
          5    1    1    2  501    0  0.42293155849E+03  0.11024858262E+03  0.24280044659E+03  0.50000000000E+03  0.47000000000E+01 0. -1.
         -5    1    1    2    0  501 -0.42293155849E+03 -0.11024858262E+03 -0.24280044659E+03  0.50000000000E+03  0.47000000000E+01 0.  1.
</event>
<event>
 4    1  0.4924477E-004  0.1000000E+04  0.7546771E-02  0.8684367E-01
         11   -1    0    0    0    0  0.00000000000E+00  0.00000000000E+00  0.50000000000E+03  0.50000000000E+03  0.00000000000E+00 0. -1.
        -11   -1    0    0    0    0 -0.00000000000E+00 -0.00000000000E+00 -0.50000000000E+03  0.50000000000E+03  0.00000000000E+00 0.  1.
          5    1    1    2  501    0  0.33869985962E+03  0.11942184365E+03  0.34784872912E+03  0.50000000000E+03  0.47000000000E+01 0. -1.
         -5    1    1    2    0  501 -0.33869985962E+03 -0.11942184365E+03 -0.34784872912E+03  0.50000000000E+03  0.47000000000E+01 0.  1.
</event>
<event>
 4    1  0.4924477E-004  0.1000000E+04  0.7546771E-02  0.8684367E-01
         11   -1    0    0    0    0  0.00000000000E+00  0.00000000000E+00  0.50000000000E+03  0.50000000000E+03  0.00000000000E+00 0. -1.
        -11   -1    0    0    0    0 -0.00000000000E+00 -0.00000000000E+00 -0.50000000000E+03  0.50000000000E+03  0.00000000000E+00 0.  1.
          5    1    1    2  501    0 -0.17013138687E+03  0.24588959843E+03  0.40071377139E+03  0.50000000000E+03  0.47000000000E+01 0. -1.
         -5    1    1    2    0  501  0.17013138687E+03 -0.24588959843E+03 -0.40071377139E+03  0.50000000000E+03  0.47000000000E+01 0.  1.
</event>
<event>
 4    1  0.4924477E-004  0.1000000E+04  0.7546771E-02  0.8684367E-01
         11   -1    0    0    0    0  0.00000000000E+00  0.00000000000E+00  0.50000000000E+03  0.50000000000E+03  0.00000000000E+00 0. -1.
        -11   -1    0    0    0    0 -0.00000000000E+00 -0.00000000000E+00 -0.50000000000E+03  0.50000000000E+03  0.00000000000E+00 0.  1.
          5    1    1    2  501    0  0.45591316035E+03  0.78713262485E+02 -0.18953976503E+03  0.50000000000E+03  0.47000000000E+01 0. -1.
         -5    1    1    2    0  501 -0.45591316035E+03 -0.78713262485E+02  0.18953976503E+03  0.50000000000E+03  0.47000000000E+01 0.  1.
</event>
<event>
 4    1  0.4924477E-004  0.1000000E+04  0.7546771E-02  0.8684367E-01
         11   -1    0    0    0    0  0.00000000000E+00  0.00000000000E+00  0.50000000000E+03  0.50000000000E+03  0.00000000000E+00 0. -1.
        -11   -1    0    0    0    0 -0.00000000000E+00 -0.00000000000E+00 -0.50000000000E+03  0.50000000000E+03  0.00000000000E+00 0.  1.
          5    1    1    2  501    0  0.30944641343E+03 -0.37295359468E+03  0.12298960700E+03  0.50000000000E+03  0.47000000000E+01 0. -1.
         -5    1    1    2    0  501 -0.30944641343E+03  0.37295359468E+03 -0.12298960700E+03  0.50000000000E+03  0.47000000000E+01 0.  1.
</event>
<event>
 4    1  0.4924477E-004  0.1000000E+04  0.7546771E-02  0.8684367E-01
         11   -1    0    0    0    0  0.00000000000E+00  0.00000000000E+00  0.50000000000E+03  0.50000000000E+03  0.00000000000E+00 0. -1.
        -11   -1    0    0    0    0 -0.00000000000E+00 -0.00000000000E+00 -0.50000000000E+03  0.50000000000E+03  0.00000000000E+00 0.  1.
          5    1    1    2  501    0  0.31218228771E+03 -0.36205598039E+03 -0.14640900350E+03  0.50000000000E+03  0.47000000000E+01 0. -1.
         -5    1    1    2    0  501 -0.31218228771E+03  0.36205598039E+03  0.14640900350E+03  0.50000000000E+03  0.47000000000E+01 0.  1.
</event>
<event>
 4    1  0.4924477E-004  0.1000000E+04  0.7546771E-02  0.8684367E-01
         11   -1    0    0    0    0  0.00000000000E+00  0.00000000000E+00  0.50000000000E+03  0.50000000000E+03  0.00000000000E+00 0. -1.
        -11   -1    0    0    0    0 -0.00000000000E+00 -0.00000000000E+00 -0.50000000000E+03  0.50000000000E+03  0.00000000000E+00 0.  1.
          5    1    1    2  501    0 -0.17315479961E+03  0.43486918712E+03  0.17573877052E+03  0.50000000000E+03  0.47000000000E+01 0. -1.
         -5    1    1    2    0  501  0.17315479961E+03 -0.43486918712E+03 -0.17573877052E+03  0.50000000000E+03  0.47000000000E+01 0.  1.
</event>
<event>
 4    1  0.4924477E-004  0.1000000E+04  0.7546771E-02  0.8684367E-01
         11   -1    0    0    0    0  0.00000000000E+00  0.00000000000E+00  0.50000000000E+03  0.50000000000E+03  0.00000000000E+00 0.  1.
        -11   -1    0    0    0    0 -0.00000000000E+00 -0.00000000000E+00 -0.50000000000E+03  0.50000000000E+03  0.00000000000E+00 0. -1.
          5    1    1    2  501    0  0.39569206786E+02 -0.53628387673E+01  0.49838080605E+03  0.50000000000E+03  0.47000000000E+01 0.  1.
         -5    1    1    2    0  501 -0.39569206786E+02  0.53628387673E+01 -0.49838080605E+03  0.50000000000E+03  0.47000000000E+01 0. -1.
</event>
<event>
 4    1  0.4924477E-004  0.1000000E+04  0.7546771E-02  0.8684367E-01
         11   -1    0    0    0    0  0.00000000000E+00  0.00000000000E+00  0.50000000000E+03  0.50000000000E+03  0.00000000000E+00 0. -1.
        -11   -1    0    0    0    0 -0.00000000000E+00 -0.00000000000E+00 -0.50000000000E+03  0.50000000000E+03  0.00000000000E+00 0.  1.
          5    1    1    2  501    0  0.15605424388E+03  0.55894619519E+02  0.47169987755E+03  0.50000000000E+03  0.47000000000E+01 0. -1.
         -5    1    1    2    0  501 -0.15605424388E+03 -0.55894619519E+02 -0.47169987755E+03  0.50000000000E+03  0.47000000000E+01 0.  1.
</event>
<event>
 4    1  0.4924477E-004  0.1000000E+04  0.7546771E-02  0.8684367E-01
         11   -1    0    0    0    0  0.00000000000E+00  0.00000000000E+00  0.50000000000E+03  0.50000000000E+03  0.00000000000E+00 0. -1.
        -11   -1    0    0    0    0 -0.00000000000E+00 -0.00000000000E+00 -0.50000000000E+03  0.50000000000E+03  0.00000000000E+00 0.  1.
          5    1    1    2  501    0 -0.40751769398E+03 -0.28932024533E+03 -0.14178671891E+02  0.50000000000E+03  0.47000000000E+01 0. -1.
         -5    1    1    2    0  501  0.40751769398E+03  0.28932024533E+03  0.14178671891E+02  0.50000000000E+03  0.47000000000E+01 0.  1.
</event>
<event>
 4    1  0.4924477E-004  0.1000000E+04  0.7546771E-02  0.8684367E-01
         11   -1    0    0    0    0  0.00000000000E+00  0.00000000000E+00  0.50000000000E+03  0.50000000000E+03  0.00000000000E+00 0. -1.
        -11   -1    0    0    0    0 -0.00000000000E+00 -0.00000000000E+00 -0.50000000000E+03  0.50000000000E+03  0.00000000000E+00 0.  1.
          5    1    1    2  501    0  0.16587812960E+03  0.10768802442E+03 -0.45920109486E+03  0.50000000000E+03  0.47000000000E+01 0.  1.
         -5    1    1    2    0  501 -0.16587812960E+03 -0.10768802442E+03  0.45920109486E+03  0.50000000000E+03  0.47000000000E+01 0. -1.
</event>
<event>
 4    1  0.4924477E-004  0.1000000E+04  0.7546771E-02  0.8684367E-01
         11   -1    0    0    0    0  0.00000000000E+00  0.00000000000E+00  0.50000000000E+03  0.50000000000E+03  0.00000000000E+00 0. -1.
        -11   -1    0    0    0    0 -0.00000000000E+00 -0.00000000000E+00 -0.50000000000E+03  0.50000000000E+03  0.00000000000E+00 0.  1.
          5    1    1    2  501    0 -0.40393712234E+03 -0.21366676347E+03  0.20287736538E+03  0.50000000000E+03  0.47000000000E+01 0. -1.
         -5    1    1    2    0  501  0.40393712234E+03  0.21366676347E+03 -0.20287736538E+03  0.50000000000E+03  0.47000000000E+01 0.  1.
</event>
<event>
 4    1  0.4924477E-004  0.1000000E+04  0.7546771E-02  0.8684367E-01
         11   -1    0    0    0    0  0.00000000000E+00  0.00000000000E+00  0.50000000000E+03  0.50000000000E+03  0.00000000000E+00 0. -1.
        -11   -1    0    0    0    0 -0.00000000000E+00 -0.00000000000E+00 -0.50000000000E+03  0.50000000000E+03  0.00000000000E+00 0.  1.
          5    1    1    2  501    0 -0.19466297300E+03  0.46018524422E+03  0.17713778369E+02  0.50000000000E+03  0.47000000000E+01 0. -1.
         -5    1    1    2    0  501  0.19466297300E+03 -0.46018524422E+03 -0.17713778369E+02  0.50000000000E+03  0.47000000000E+01 0.  1.
</event>
<event>
 4    1  0.4924477E-004  0.1000000E+04  0.7546771E-02  0.8684367E-01
         11   -1    0    0    0    0  0.00000000000E+00  0.00000000000E+00  0.50000000000E+03  0.50000000000E+03  0.00000000000E+00 0. -1.
        -11   -1    0    0    0    0 -0.00000000000E+00 -0.00000000000E+00 -0.50000000000E+03  0.50000000000E+03  0.00000000000E+00 0.  1.
          5    1    1    2  501    0 -0.41329516912E+03  0.17425355662E+03 -0.22090883003E+03  0.50000000000E+03  0.47000000000E+01 0. -1.
         -5    1    1    2    0  501  0.41329516912E+03 -0.17425355662E+03  0.22090883003E+03  0.50000000000E+03  0.47000000000E+01 0.  1.
</event>
<event>
 4    1  0.4924477E-004  0.1000000E+04  0.7546771E-02  0.8684367E-01
         11   -1    0    0    0    0  0.00000000000E+00  0.00000000000E+00  0.50000000000E+03  0.50000000000E+03  0.00000000000E+00 0. -1.
        -11   -1    0    0    0    0 -0.00000000000E+00 -0.00000000000E+00 -0.50000000000E+03  0.50000000000E+03  0.00000000000E+00 0.  1.
          5    1    1    2  501    0  0.36243206301E+03 -0.33604256007E+03 -0.75473886364E+02  0.50000000000E+03  0.47000000000E+01 0.  1.
         -5    1    1    2    0  501 -0.36243206301E+03  0.33604256007E+03  0.75473886364E+02  0.50000000000E+03  0.47000000000E+01 0. -1.
</event>
<event>
 4    1  0.4924477E-004  0.1000000E+04  0.7546771E-02  0.8684367E-01
         11   -1    0    0    0    0  0.00000000000E+00  0.00000000000E+00  0.50000000000E+03  0.50000000000E+03  0.00000000000E+00 0. -1.
        -11   -1    0    0    0    0 -0.00000000000E+00 -0.00000000000E+00 -0.50000000000E+03  0.50000000000E+03  0.00000000000E+00 0.  1.
          5    1    1    2  501    0  0.13463370807E+03 -0.36107628914E+03  0.31855233176E+03  0.50000000000E+03  0.47000000000E+01 0. -1.
         -5    1    1    2    0  501 -0.13463370807E+03  0.36107628914E+03 -0.31855233176E+03  0.50000000000E+03  0.47000000000E+01 0.  1.
</event>
<event>
 4    1  0.4924477E-004  0.1000000E+04  0.7546771E-02  0.8684367E-01
         11   -1    0    0    0    0  0.00000000000E+00  0.00000000000E+00  0.50000000000E+03  0.50000000000E+03  0.00000000000E+00 0. -1.
        -11   -1    0    0    0    0 -0.00000000000E+00 -0.00000000000E+00 -0.50000000000E+03  0.50000000000E+03  0.00000000000E+00 0.  1.
          5    1    1    2  501    0  0.11949979934E+03  0.25712611699E+03  0.41180561910E+03  0.50000000000E+03  0.47000000000E+01 0. -1.
         -5    1    1    2    0  501 -0.11949979934E+03 -0.25712611699E+03 -0.41180561910E+03  0.50000000000E+03  0.47000000000E+01 0.  1.
</event>
<event>
 4    1  0.4924477E-004  0.1000000E+04  0.7546771E-02  0.8684367E-01
         11   -1    0    0    0    0  0.00000000000E+00  0.00000000000E+00  0.50000000000E+03  0.50000000000E+03  0.00000000000E+00 0. -1.
        -11   -1    0    0    0    0 -0.00000000000E+00 -0.00000000000E+00 -0.50000000000E+03  0.50000000000E+03  0.00000000000E+00 0.  1.
          5    1    1    2  501    0 -0.11135674628E+03  0.24073078785E+03  0.42382339817E+03  0.50000000000E+03  0.47000000000E+01 0. -1.
         -5    1    1    2    0  501  0.11135674628E+03 -0.24073078785E+03 -0.42382339817E+03  0.50000000000E+03  0.47000000000E+01 0.  1.
</event>
<event>
 4    1  0.4924477E-004  0.1000000E+04  0.7546771E-02  0.8684367E-01
         11   -1    0    0    0    0  0.00000000000E+00  0.00000000000E+00  0.50000000000E+03  0.50000000000E+03  0.00000000000E+00 0. -1.
        -11   -1    0    0    0    0 -0.00000000000E+00 -0.00000000000E+00 -0.50000000000E+03  0.50000000000E+03  0.00000000000E+00 0.  1.
          5    1    1    2  501    0 -0.29318199534E+03  0.34047628609E+03  0.21931285010E+03  0.50000000000E+03  0.47000000000E+01 0. -1.
         -5    1    1    2    0  501  0.29318199534E+03 -0.34047628609E+03 -0.21931285010E+03  0.50000000000E+03  0.47000000000E+01 0.  1.
</event>
<event>
 4    1  0.4924477E-004  0.1000000E+04  0.7546771E-02  0.8684367E-01
         11   -1    0    0    0    0  0.00000000000E+00  0.00000000000E+00  0.50000000000E+03  0.50000000000E+03  0.00000000000E+00 0.  1.
        -11   -1    0    0    0    0 -0.00000000000E+00 -0.00000000000E+00 -0.50000000000E+03  0.50000000000E+03  0.00000000000E+00 0. -1.
          5    1    1    2  501    0  0.24918559304E+03 -0.42606166949E+03  0.79723923743E+02  0.50000000000E+03  0.47000000000E+01 0.  1.
         -5    1    1    2    0  501 -0.24918559304E+03  0.42606166949E+03 -0.79723923743E+02  0.50000000000E+03  0.47000000000E+01 0. -1.
</event>
<event>
 4    1  0.4924477E-004  0.1000000E+04  0.7546771E-02  0.8684367E-01
         11   -1    0    0    0    0  0.00000000000E+00  0.00000000000E+00  0.50000000000E+03  0.50000000000E+03  0.00000000000E+00 0. -1.
        -11   -1    0    0    0    0 -0.00000000000E+00 -0.00000000000E+00 -0.50000000000E+03  0.50000000000E+03  0.00000000000E+00 0.  1.
          5    1    1    2  501    0  0.35002946374E+03  0.42388827045E+02  0.35448620827E+03  0.50000000000E+03  0.47000000000E+01 0. -1.
         -5    1    1    2    0  501 -0.35002946374E+03 -0.42388827045E+02 -0.35448620827E+03  0.50000000000E+03  0.47000000000E+01 0.  1.
</event>
<event>
 4    1  0.4924477E-004  0.1000000E+04  0.7546771E-02  0.8684367E-01
         11   -1    0    0    0    0  0.00000000000E+00  0.00000000000E+00  0.50000000000E+03  0.50000000000E+03  0.00000000000E+00 0. -1.
        -11   -1    0    0    0    0 -0.00000000000E+00 -0.00000000000E+00 -0.50000000000E+03  0.50000000000E+03  0.00000000000E+00 0.  1.
          5    1    1    2  501    0  0.16797715015E+03  0.16625202135E+03  0.44059261504E+03  0.50000000000E+03  0.47000000000E+01 0. -1.
         -5    1    1    2    0  501 -0.16797715015E+03 -0.16625202135E+03 -0.44059261504E+03  0.50000000000E+03  0.47000000000E+01 0.  1.
</event>
<event>
 4    1  0.4924477E-004  0.1000000E+04  0.7546771E-02  0.8684367E-01
         11   -1    0    0    0    0  0.00000000000E+00  0.00000000000E+00  0.50000000000E+03  0.50000000000E+03  0.00000000000E+00 0. -1.
        -11   -1    0    0    0    0 -0.00000000000E+00 -0.00000000000E+00 -0.50000000000E+03  0.50000000000E+03  0.00000000000E+00 0.  1.
          5    1    1    2  501    0  0.44038055004E+03 -0.20790980747E+03  0.11320950976E+03  0.50000000000E+03  0.47000000000E+01 0. -1.
         -5    1    1    2    0  501 -0.44038055004E+03  0.20790980747E+03 -0.11320950976E+03  0.50000000000E+03  0.47000000000E+01 0.  1.
</event>
<event>
 4    1  0.4924477E-004  0.1000000E+04  0.7546771E-02  0.8684367E-01
         11   -1    0    0    0    0  0.00000000000E+00  0.00000000000E+00  0.50000000000E+03  0.50000000000E+03  0.00000000000E+00 0. -1.
        -11   -1    0    0    0    0 -0.00000000000E+00 -0.00000000000E+00 -0.50000000000E+03  0.50000000000E+03  0.00000000000E+00 0.  1.
          5    1    1    2  501    0  0.46317591997E+03 -0.15535885388E+02  0.18762892482E+03  0.50000000000E+03  0.47000000000E+01 0. -1.
         -5    1    1    2    0  501 -0.46317591997E+03  0.15535885388E+02 -0.18762892482E+03  0.50000000000E+03  0.47000000000E+01 0.  1.
</event>
<event>
 4    1  0.4924477E-004  0.1000000E+04  0.7546771E-02  0.8684367E-01
         11   -1    0    0    0    0  0.00000000000E+00  0.00000000000E+00  0.50000000000E+03  0.50000000000E+03  0.00000000000E+00 0. -1.
        -11   -1    0    0    0    0 -0.00000000000E+00 -0.00000000000E+00 -0.50000000000E+03  0.50000000000E+03  0.00000000000E+00 0.  1.
          5    1    1    2  501    0 -0.74081373359E+02 -0.36029639627E+03  0.33863899208E+03  0.50000000000E+03  0.47000000000E+01 0. -1.
         -5    1    1    2    0  501  0.74081373359E+02  0.36029639627E+03 -0.33863899208E+03  0.50000000000E+03  0.47000000000E+01 0.  1.
</event>
<event>
 4    1  0.4924477E-004  0.1000000E+04  0.7546771E-02  0.8684367E-01
         11   -1    0    0    0    0  0.00000000000E+00  0.00000000000E+00  0.50000000000E+03  0.50000000000E+03  0.00000000000E+00 0. -1.
        -11   -1    0    0    0    0 -0.00000000000E+00 -0.00000000000E+00 -0.50000000000E+03  0.50000000000E+03  0.00000000000E+00 0.  1.
          5    1    1    2  501    0  0.98591520370E+02 -0.48226084125E+03  0.87647607525E+02  0.50000000000E+03  0.47000000000E+01 0. -1.
         -5    1    1    2    0  501 -0.98591520370E+02  0.48226084125E+03 -0.87647607525E+02  0.50000000000E+03  0.47000000000E+01 0.  1.
</event>
<event>
 4    1  0.4924477E-004  0.1000000E+04  0.7546771E-02  0.8684367E-01
         11   -1    0    0    0    0  0.00000000000E+00  0.00000000000E+00  0.50000000000E+03  0.50000000000E+03  0.00000000000E+00 0. -1.
        -11   -1    0    0    0    0 -0.00000000000E+00 -0.00000000000E+00 -0.50000000000E+03  0.50000000000E+03  0.00000000000E+00 0.  1.
          5    1    1    2  501    0 -0.26426682769E+03  0.31973455584E+03  0.27912500351E+03  0.50000000000E+03  0.47000000000E+01 0. -1.
         -5    1    1    2    0  501  0.26426682769E+03 -0.31973455584E+03 -0.27912500351E+03  0.50000000000E+03  0.47000000000E+01 0.  1.
</event>
<event>
 4    1  0.4924477E-004  0.1000000E+04  0.7546771E-02  0.8684367E-01
         11   -1    0    0    0    0  0.00000000000E+00  0.00000000000E+00  0.50000000000E+03  0.50000000000E+03  0.00000000000E+00 0. -1.
        -11   -1    0    0    0    0 -0.00000000000E+00 -0.00000000000E+00 -0.50000000000E+03  0.50000000000E+03  0.00000000000E+00 0.  1.
          5    1    1    2  501    0 -0.94259965965E+02  0.23287214782E+03  0.43227714673E+03  0.50000000000E+03  0.47000000000E+01 0. -1.
         -5    1    1    2    0  501  0.94259965965E+02 -0.23287214782E+03 -0.43227714673E+03  0.50000000000E+03  0.47000000000E+01 0.  1.
</event>
<event>
 4    1  0.4924477E-004  0.1000000E+04  0.7546771E-02  0.8684367E-01
         11   -1    0    0    0    0  0.00000000000E+00  0.00000000000E+00  0.50000000000E+03  0.50000000000E+03  0.00000000000E+00 0. -1.
        -11   -1    0    0    0    0 -0.00000000000E+00 -0.00000000000E+00 -0.50000000000E+03  0.50000000000E+03  0.00000000000E+00 0.  1.
          5    1    1    2  501    0  0.20150051396E+03  0.14462435683E+03  0.43411893334E+03  0.50000000000E+03  0.47000000000E+01 0. -1.
         -5    1    1    2    0  501 -0.20150051396E+03 -0.14462435683E+03 -0.43411893334E+03  0.50000000000E+03  0.47000000000E+01 0.  1.
</event>
<event>
 4    1  0.4924477E-004  0.1000000E+04  0.7546771E-02  0.8684367E-01
         11   -1    0    0    0    0  0.00000000000E+00  0.00000000000E+00  0.50000000000E+03  0.50000000000E+03  0.00000000000E+00 0. -1.
        -11   -1    0    0    0    0 -0.00000000000E+00 -0.00000000000E+00 -0.50000000000E+03  0.50000000000E+03  0.00000000000E+00 0.  1.
          5    1    1    2  501    0 -0.22842803146E+03  0.12921724851E+03  0.42556015689E+03  0.50000000000E+03  0.47000000000E+01 0. -1.
         -5    1    1    2    0  501  0.22842803146E+03 -0.12921724851E+03 -0.42556015689E+03  0.50000000000E+03  0.47000000000E+01 0.  1.
</event>
<event>
 4    1  0.4924477E-004  0.1000000E+04  0.7546771E-02  0.8684367E-01
         11   -1    0    0    0    0  0.00000000000E+00  0.00000000000E+00  0.50000000000E+03  0.50000000000E+03  0.00000000000E+00 0.  1.
        -11   -1    0    0    0    0 -0.00000000000E+00 -0.00000000000E+00 -0.50000000000E+03  0.50000000000E+03  0.00000000000E+00 0. -1.
          5    1    1    2  501    0 -0.77325549276E+02 -0.62067415441E+02  0.49004724810E+03  0.50000000000E+03  0.47000000000E+01 0.  1.
         -5    1    1    2    0  501  0.77325549276E+02  0.62067415441E+02 -0.49004724810E+03  0.50000000000E+03  0.47000000000E+01 0. -1.
</event>
<event>
 4    1  0.4924477E-004  0.1000000E+04  0.7546771E-02  0.8684367E-01
         11   -1    0    0    0    0  0.00000000000E+00  0.00000000000E+00  0.50000000000E+03  0.50000000000E+03  0.00000000000E+00 0. -1.
        -11   -1    0    0    0    0 -0.00000000000E+00 -0.00000000000E+00 -0.50000000000E+03  0.50000000000E+03  0.00000000000E+00 0.  1.
          5    1    1    2  501    0  0.12919612534E+03 -0.15662185187E+03  0.45689809226E+03  0.50000000000E+03  0.47000000000E+01 0. -1.
         -5    1    1    2    0  501 -0.12919612534E+03  0.15662185187E+03 -0.45689809226E+03  0.50000000000E+03  0.47000000000E+01 0.  1.
</event>
<event>
 4    1  0.4924477E-004  0.1000000E+04  0.7546771E-02  0.8684367E-01
         11   -1    0    0    0    0  0.00000000000E+00  0.00000000000E+00  0.50000000000E+03  0.50000000000E+03  0.00000000000E+00 0. -1.
        -11   -1    0    0    0    0 -0.00000000000E+00 -0.00000000000E+00 -0.50000000000E+03  0.50000000000E+03  0.00000000000E+00 0.  1.
          5    1    1    2  501    0  0.11378652726E+03 -0.70553095889E+01  0.48680669554E+03  0.50000000000E+03  0.47000000000E+01 0. -1.
         -5    1    1    2    0  501 -0.11378652726E+03  0.70553095889E+01 -0.48680669554E+03  0.50000000000E+03  0.47000000000E+01 0.  1.
</event>
<event>
 4    1  0.4924477E-004  0.1000000E+04  0.7546771E-02  0.8684367E-01
         11   -1    0    0    0    0  0.00000000000E+00  0.00000000000E+00  0.50000000000E+03  0.50000000000E+03  0.00000000000E+00 0. -1.
        -11   -1    0    0    0    0 -0.00000000000E+00 -0.00000000000E+00 -0.50000000000E+03  0.50000000000E+03  0.00000000000E+00 0.  1.
          5    1    1    2  501    0  0.15962099780E+03  0.23856882395E+03  0.40937020324E+03  0.50000000000E+03  0.47000000000E+01 0. -1.
         -5    1    1    2    0  501 -0.15962099780E+03 -0.23856882395E+03 -0.40937020324E+03  0.50000000000E+03  0.47000000000E+01 0.  1.
</event>
<event>
 4    1  0.4924477E-004  0.1000000E+04  0.7546771E-02  0.8684367E-01
         11   -1    0    0    0    0  0.00000000000E+00  0.00000000000E+00  0.50000000000E+03  0.50000000000E+03  0.00000000000E+00 0. -1.
        -11   -1    0    0    0    0 -0.00000000000E+00 -0.00000000000E+00 -0.50000000000E+03  0.50000000000E+03  0.00000000000E+00 0.  1.
          5    1    1    2  501    0  0.21250508406E+03 -0.36039627698E+02  0.45113262405E+03  0.50000000000E+03  0.47000000000E+01 0. -1.
         -5    1    1    2    0  501 -0.21250508406E+03  0.36039627698E+02 -0.45113262405E+03  0.50000000000E+03  0.47000000000E+01 0.  1.
</event>
<event>
 4    1  0.4924477E-004  0.1000000E+04  0.7546771E-02  0.8684367E-01
         11   -1    0    0    0    0  0.00000000000E+00  0.00000000000E+00  0.50000000000E+03  0.50000000000E+03  0.00000000000E+00 0. -1.
        -11   -1    0    0    0    0 -0.00000000000E+00 -0.00000000000E+00 -0.50000000000E+03  0.50000000000E+03  0.00000000000E+00 0.  1.
          5    1    1    2  501    0  0.35477590954E+03 -0.17270291735E+03  0.30705971137E+03  0.50000000000E+03  0.47000000000E+01 0. -1.
         -5    1    1    2    0  501 -0.35477590954E+03  0.17270291735E+03 -0.30705971137E+03  0.50000000000E+03  0.47000000000E+01 0.  1.
</event>
<event>
 4    1  0.4924477E-004  0.1000000E+04  0.7546771E-02  0.8684367E-01
         11   -1    0    0    0    0  0.00000000000E+00  0.00000000000E+00  0.50000000000E+03  0.50000000000E+03  0.00000000000E+00 0. -1.
        -11   -1    0    0    0    0 -0.00000000000E+00 -0.00000000000E+00 -0.50000000000E+03  0.50000000000E+03  0.00000000000E+00 0.  1.
          5    1    1    2  501    0 -0.21087200316E+03  0.79099809893E+02  0.44637890671E+03  0.50000000000E+03  0.47000000000E+01 0. -1.
         -5    1    1    2    0  501  0.21087200316E+03 -0.79099809893E+02 -0.44637890671E+03  0.50000000000E+03  0.47000000000E+01 0.  1.
</event>
<event>
 4    1  0.4924477E-004  0.1000000E+04  0.7546771E-02  0.8684367E-01
         11   -1    0    0    0    0  0.00000000000E+00  0.00000000000E+00  0.50000000000E+03  0.50000000000E+03  0.00000000000E+00 0. -1.
        -11   -1    0    0    0    0 -0.00000000000E+00 -0.00000000000E+00 -0.50000000000E+03  0.50000000000E+03  0.00000000000E+00 0.  1.
          5    1    1    2  501    0  0.64787382409E+02  0.25709265473E+03  0.42389134453E+03  0.50000000000E+03  0.47000000000E+01 0. -1.
         -5    1    1    2    0  501 -0.64787382409E+02 -0.25709265473E+03 -0.42389134453E+03  0.50000000000E+03  0.47000000000E+01 0.  1.
</event>
<event>
 4    1  0.4924477E-004  0.1000000E+04  0.7546771E-02  0.8684367E-01
         11   -1    0    0    0    0  0.00000000000E+00  0.00000000000E+00  0.50000000000E+03  0.50000000000E+03  0.00000000000E+00 0. -1.
        -11   -1    0    0    0    0 -0.00000000000E+00 -0.00000000000E+00 -0.50000000000E+03  0.50000000000E+03  0.00000000000E+00 0.  1.
          5    1    1    2  501    0 -0.18550738093E+03 -0.28536827292E+03  0.36623745089E+03  0.50000000000E+03  0.47000000000E+01 0. -1.
         -5    1    1    2    0  501  0.18550738093E+03  0.28536827292E+03 -0.36623745089E+03  0.50000000000E+03  0.47000000000E+01 0.  1.
</event>
<event>
 4    1  0.4924477E-004  0.1000000E+04  0.7546771E-02  0.8684367E-01
         11   -1    0    0    0    0  0.00000000000E+00  0.00000000000E+00  0.50000000000E+03  0.50000000000E+03  0.00000000000E+00 0. -1.
        -11   -1    0    0    0    0 -0.00000000000E+00 -0.00000000000E+00 -0.50000000000E+03  0.50000000000E+03  0.00000000000E+00 0.  1.
          5    1    1    2  501    0 -0.46709634649E+02  0.34346294624E+03  0.36031836560E+03  0.50000000000E+03  0.47000000000E+01 0. -1.
         -5    1    1    2    0  501  0.46709634649E+02 -0.34346294624E+03 -0.36031836560E+03  0.50000000000E+03  0.47000000000E+01 0.  1.
</event>
<event>
 4    1  0.4924477E-004  0.1000000E+04  0.7546771E-02  0.8684367E-01
         11   -1    0    0    0    0  0.00000000000E+00  0.00000000000E+00  0.50000000000E+03  0.50000000000E+03  0.00000000000E+00 0. -1.
        -11   -1    0    0    0    0 -0.00000000000E+00 -0.00000000000E+00 -0.50000000000E+03  0.50000000000E+03  0.00000000000E+00 0.  1.
          5    1    1    2  501    0  0.27571001321E+03 -0.39692804435E+03  0.12810162459E+03  0.50000000000E+03  0.47000000000E+01 0. -1.
         -5    1    1    2    0  501 -0.27571001321E+03  0.39692804435E+03 -0.12810162459E+03  0.50000000000E+03  0.47000000000E+01 0.  1.
</event>
<event>
 4    1  0.4924477E-004  0.1000000E+04  0.7546771E-02  0.8684367E-01
         11   -1    0    0    0    0  0.00000000000E+00  0.00000000000E+00  0.50000000000E+03  0.50000000000E+03  0.00000000000E+00 0. -1.
        -11   -1    0    0    0    0 -0.00000000000E+00 -0.00000000000E+00 -0.50000000000E+03  0.50000000000E+03  0.00000000000E+00 0.  1.
          5    1    1    2  501    0 -0.37711660326E+03  0.68934232881E+02  0.32095022836E+03  0.50000000000E+03  0.47000000000E+01 0. -1.
         -5    1    1    2    0  501  0.37711660326E+03 -0.68934232881E+02 -0.32095022836E+03  0.50000000000E+03  0.47000000000E+01 0.  1.
</event>
<event>
 4    1  0.4924477E-004  0.1000000E+04  0.7546771E-02  0.8684367E-01
         11   -1    0    0    0    0  0.00000000000E+00  0.00000000000E+00  0.50000000000E+03  0.50000000000E+03  0.00000000000E+00 0. -1.
        -11   -1    0    0    0    0 -0.00000000000E+00 -0.00000000000E+00 -0.50000000000E+03  0.50000000000E+03  0.00000000000E+00 0.  1.
          5    1    1    2  501    0  0.43375709718E+03 -0.20576130135E+03  0.13962441590E+03  0.50000000000E+03  0.47000000000E+01 0. -1.
         -5    1    1    2    0  501 -0.43375709718E+03  0.20576130135E+03 -0.13962441590E+03  0.50000000000E+03  0.47000000000E+01 0.  1.
</event>
<event>
 4    1  0.4924477E-004  0.1000000E+04  0.7546771E-02  0.8684367E-01
         11   -1    0    0    0    0  0.00000000000E+00  0.00000000000E+00  0.50000000000E+03  0.50000000000E+03  0.00000000000E+00 0. -1.
        -11   -1    0    0    0    0 -0.00000000000E+00 -0.00000000000E+00 -0.50000000000E+03  0.50000000000E+03  0.00000000000E+00 0.  1.
          5    1    1    2  501    0 -0.15044778183E+03 -0.42508270335E+03  0.21598164332E+03  0.50000000000E+03  0.47000000000E+01 0. -1.
         -5    1    1    2    0  501  0.15044778183E+03  0.42508270335E+03 -0.21598164332E+03  0.50000000000E+03  0.47000000000E+01 0.  1.
</event>
<event>
 4    1  0.4924477E-004  0.1000000E+04  0.7546771E-02  0.8684367E-01
         11   -1    0    0    0    0  0.00000000000E+00  0.00000000000E+00  0.50000000000E+03  0.50000000000E+03  0.00000000000E+00 0. -1.
        -11   -1    0    0    0    0 -0.00000000000E+00 -0.00000000000E+00 -0.50000000000E+03  0.50000000000E+03  0.00000000000E+00 0.  1.
          5    1    1    2  501    0 -0.43278647238E+03 -0.24453939630E+03  0.53612153305E+02  0.50000000000E+03  0.47000000000E+01 0. -1.
         -5    1    1    2    0  501  0.43278647238E+03  0.24453939630E+03 -0.53612153305E+02  0.50000000000E+03  0.47000000000E+01 0.  1.
</event>
<event>
 4    1  0.4924477E-004  0.1000000E+04  0.7546771E-02  0.8684367E-01
         11   -1    0    0    0    0  0.00000000000E+00  0.00000000000E+00  0.50000000000E+03  0.50000000000E+03  0.00000000000E+00 0. -1.
        -11   -1    0    0    0    0 -0.00000000000E+00 -0.00000000000E+00 -0.50000000000E+03  0.50000000000E+03  0.00000000000E+00 0.  1.
          5    1    1    2  501    0  0.21004556678E+03 -0.14065455333E+03  0.43136419242E+03  0.50000000000E+03  0.47000000000E+01 0. -1.
         -5    1    1    2    0  501 -0.21004556678E+03  0.14065455333E+03 -0.43136419242E+03  0.50000000000E+03  0.47000000000E+01 0.  1.
</event>
<event>
 4    1  0.4924477E-004  0.1000000E+04  0.7546771E-02  0.8684367E-01
         11   -1    0    0    0    0  0.00000000000E+00  0.00000000000E+00  0.50000000000E+03  0.50000000000E+03  0.00000000000E+00 0. -1.
        -11   -1    0    0    0    0 -0.00000000000E+00 -0.00000000000E+00 -0.50000000000E+03  0.50000000000E+03  0.00000000000E+00 0.  1.
          5    1    1    2  501    0 -0.53137797980E+01  0.37651291664E+03  0.32891898295E+03  0.50000000000E+03  0.47000000000E+01 0. -1.
         -5    1    1    2    0  501  0.53137797980E+01 -0.37651291664E+03 -0.32891898295E+03  0.50000000000E+03  0.47000000000E+01 0.  1.
</event>
<event>
 4    1  0.4924477E-004  0.1000000E+04  0.7546771E-02  0.8684367E-01
         11   -1    0    0    0    0  0.00000000000E+00  0.00000000000E+00  0.50000000000E+03  0.50000000000E+03  0.00000000000E+00 0. -1.
        -11   -1    0    0    0    0 -0.00000000000E+00 -0.00000000000E+00 -0.50000000000E+03  0.50000000000E+03  0.00000000000E+00 0.  1.
          5    1    1    2  501    0 -0.27717762842E+03  0.26835103068E+03  0.31802232097E+03  0.50000000000E+03  0.47000000000E+01 0. -1.
         -5    1    1    2    0  501  0.27717762842E+03 -0.26835103068E+03 -0.31802232097E+03  0.50000000000E+03  0.47000000000E+01 0.  1.
</event>
<event>
 4    1  0.4924477E-004  0.1000000E+04  0.7546771E-02  0.8684367E-01
         11   -1    0    0    0    0  0.00000000000E+00  0.00000000000E+00  0.50000000000E+03  0.50000000000E+03  0.00000000000E+00 0.  1.
        -11   -1    0    0    0    0 -0.00000000000E+00 -0.00000000000E+00 -0.50000000000E+03  0.50000000000E+03  0.00000000000E+00 0. -1.
          5    1    1    2  501    0 -0.15328085637E+03 -0.38391597316E+03 -0.28123195875E+03  0.50000000000E+03  0.47000000000E+01 0.  1.
         -5    1    1    2    0  501  0.15328085637E+03  0.38391597316E+03  0.28123195875E+03  0.50000000000E+03  0.47000000000E+01 0. -1.
</event>
<event>
 4    1  0.4924477E-004  0.1000000E+04  0.7546771E-02  0.8684367E-01
         11   -1    0    0    0    0  0.00000000000E+00  0.00000000000E+00  0.50000000000E+03  0.50000000000E+03  0.00000000000E+00 0. -1.
        -11   -1    0    0    0    0 -0.00000000000E+00 -0.00000000000E+00 -0.50000000000E+03  0.50000000000E+03  0.00000000000E+00 0.  1.
          5    1    1    2  501    0  0.26285319537E+03  0.16746690249E+03  0.39094877446E+03  0.50000000000E+03  0.47000000000E+01 0. -1.
         -5    1    1    2    0  501 -0.26285319537E+03 -0.16746690249E+03 -0.39094877446E+03  0.50000000000E+03  0.47000000000E+01 0.  1.
</event>
<event>
 4    1  0.4924477E-004  0.1000000E+04  0.7546771E-02  0.8684367E-01
         11   -1    0    0    0    0  0.00000000000E+00  0.00000000000E+00  0.50000000000E+03  0.50000000000E+03  0.00000000000E+00 0. -1.
        -11   -1    0    0    0    0 -0.00000000000E+00 -0.00000000000E+00 -0.50000000000E+03  0.50000000000E+03  0.00000000000E+00 0.  1.
          5    1    1    2  501    0  0.44967444542E+03  0.20492818169E+03  0.75995022788E+02  0.50000000000E+03  0.47000000000E+01 0. -1.
         -5    1    1    2    0  501 -0.44967444542E+03 -0.20492818169E+03 -0.75995022788E+02  0.50000000000E+03  0.47000000000E+01 0.  1.
</event>
<event>
 4    1  0.4924477E-004  0.1000000E+04  0.7546771E-02  0.8684367E-01
         11   -1    0    0    0    0  0.00000000000E+00  0.00000000000E+00  0.50000000000E+03  0.50000000000E+03  0.00000000000E+00 0. -1.
        -11   -1    0    0    0    0 -0.00000000000E+00 -0.00000000000E+00 -0.50000000000E+03  0.50000000000E+03  0.00000000000E+00 0.  1.
          5    1    1    2  501    0  0.10569230912E+03  0.40406748849E+03  0.27483906298E+03  0.50000000000E+03  0.47000000000E+01 0. -1.
         -5    1    1    2    0  501 -0.10569230912E+03 -0.40406748849E+03 -0.27483906298E+03  0.50000000000E+03  0.47000000000E+01 0.  1.
</event>
<event>
 4    1  0.4924477E-004  0.1000000E+04  0.7546771E-02  0.8684367E-01
         11   -1    0    0    0    0  0.00000000000E+00  0.00000000000E+00  0.50000000000E+03  0.50000000000E+03  0.00000000000E+00 0. -1.
        -11   -1    0    0    0    0 -0.00000000000E+00 -0.00000000000E+00 -0.50000000000E+03  0.50000000000E+03  0.00000000000E+00 0.  1.
          5    1    1    2  501    0  0.33917004269E+03 -0.36681873548E+03  0.19636889753E+02  0.50000000000E+03  0.47000000000E+01 0. -1.
         -5    1    1    2    0  501 -0.33917004269E+03  0.36681873548E+03 -0.19636889753E+02  0.50000000000E+03  0.47000000000E+01 0.  1.
</event>
<event>
 4    1  0.4924477E-004  0.1000000E+04  0.7546771E-02  0.8684367E-01
         11   -1    0    0    0    0  0.00000000000E+00  0.00000000000E+00  0.50000000000E+03  0.50000000000E+03  0.00000000000E+00 0. -1.
        -11   -1    0    0    0    0 -0.00000000000E+00 -0.00000000000E+00 -0.50000000000E+03  0.50000000000E+03  0.00000000000E+00 0.  1.
          5    1    1    2  501    0 -0.15991192807E+03  0.15492974457E+03  0.44766377954E+03  0.50000000000E+03  0.47000000000E+01 0. -1.
         -5    1    1    2    0  501  0.15991192807E+03 -0.15492974457E+03 -0.44766377954E+03  0.50000000000E+03  0.47000000000E+01 0.  1.
</event>
<event>
 4    1  0.4924477E-004  0.1000000E+04  0.7546771E-02  0.8684367E-01
         11   -1    0    0    0    0  0.00000000000E+00  0.00000000000E+00  0.50000000000E+03  0.50000000000E+03  0.00000000000E+00 0. -1.
        -11   -1    0    0    0    0 -0.00000000000E+00 -0.00000000000E+00 -0.50000000000E+03  0.50000000000E+03  0.00000000000E+00 0.  1.
          5    1    1    2  501    0 -0.41425617620E+03  0.25610984925E+03  0.11303749644E+03  0.50000000000E+03  0.47000000000E+01 0. -1.
         -5    1    1    2    0  501  0.41425617620E+03 -0.25610984925E+03 -0.11303749644E+03  0.50000000000E+03  0.47000000000E+01 0.  1.
</event>
<event>
 4    1  0.4924477E-004  0.1000000E+04  0.7546771E-02  0.8684367E-01
         11   -1    0    0    0    0  0.00000000000E+00  0.00000000000E+00  0.50000000000E+03  0.50000000000E+03  0.00000000000E+00 0. -1.
        -11   -1    0    0    0    0 -0.00000000000E+00 -0.00000000000E+00 -0.50000000000E+03  0.50000000000E+03  0.00000000000E+00 0.  1.
          5    1    1    2  501    0 -0.13304776824E+02 -0.24439936587E+03  0.43597000227E+03  0.50000000000E+03  0.47000000000E+01 0. -1.
         -5    1    1    2    0  501  0.13304776824E+02  0.24439936587E+03 -0.43597000227E+03  0.50000000000E+03  0.47000000000E+01 0.  1.
</event>
<event>
 4    1  0.4924477E-004  0.1000000E+04  0.7546771E-02  0.8684367E-01
         11   -1    0    0    0    0  0.00000000000E+00  0.00000000000E+00  0.50000000000E+03  0.50000000000E+03  0.00000000000E+00 0. -1.
        -11   -1    0    0    0    0 -0.00000000000E+00 -0.00000000000E+00 -0.50000000000E+03  0.50000000000E+03  0.00000000000E+00 0.  1.
          5    1    1    2  501    0  0.45780798944E+03 -0.19268458013E+03 -0.57117487595E+02  0.50000000000E+03  0.47000000000E+01 0. -1.
         -5    1    1    2    0  501 -0.45780798944E+03  0.19268458013E+03  0.57117487595E+02  0.50000000000E+03  0.47000000000E+01 0.  1.
</event>
<event>
 4    1  0.4924477E-004  0.1000000E+04  0.7546771E-02  0.8684367E-01
         11   -1    0    0    0    0  0.00000000000E+00  0.00000000000E+00  0.50000000000E+03  0.50000000000E+03  0.00000000000E+00 0. -1.
        -11   -1    0    0    0    0 -0.00000000000E+00 -0.00000000000E+00 -0.50000000000E+03  0.50000000000E+03  0.00000000000E+00 0.  1.
          5    1    1    2  501    0  0.36121801249E+03 -0.28106358823E+03  0.20125286787E+03  0.50000000000E+03  0.47000000000E+01 0. -1.
         -5    1    1    2    0  501 -0.36121801249E+03  0.28106358823E+03 -0.20125286787E+03  0.50000000000E+03  0.47000000000E+01 0.  1.
</event>
<event>
 4    1  0.4924477E-004  0.1000000E+04  0.7546771E-02  0.8684367E-01
         11   -1    0    0    0    0  0.00000000000E+00  0.00000000000E+00  0.50000000000E+03  0.50000000000E+03  0.00000000000E+00 0. -1.
        -11   -1    0    0    0    0 -0.00000000000E+00 -0.00000000000E+00 -0.50000000000E+03  0.50000000000E+03  0.00000000000E+00 0.  1.
          5    1    1    2  501    0 -0.28493423949E+03  0.41075369154E+03  0.84731372577E+01  0.50000000000E+03  0.47000000000E+01 0. -1.
         -5    1    1    2    0  501  0.28493423949E+03 -0.41075369154E+03 -0.84731372577E+01  0.50000000000E+03  0.47000000000E+01 0.  1.
</event>
<event>
 4    1  0.4924477E-004  0.1000000E+04  0.7546771E-02  0.8684367E-01
         11   -1    0    0    0    0  0.00000000000E+00  0.00000000000E+00  0.50000000000E+03  0.50000000000E+03  0.00000000000E+00 0. -1.
        -11   -1    0    0    0    0 -0.00000000000E+00 -0.00000000000E+00 -0.50000000000E+03  0.50000000000E+03  0.00000000000E+00 0.  1.
          5    1    1    2  501    0 -0.91589561154E+02  0.29768956528E+03  0.39111403070E+03  0.50000000000E+03  0.47000000000E+01 0. -1.
         -5    1    1    2    0  501  0.91589561154E+02 -0.29768956528E+03 -0.39111403070E+03  0.50000000000E+03  0.47000000000E+01 0.  1.
</event>
<event>
 4    1  0.4924477E-004  0.1000000E+04  0.7546771E-02  0.8684367E-01
         11   -1    0    0    0    0  0.00000000000E+00  0.00000000000E+00  0.50000000000E+03  0.50000000000E+03  0.00000000000E+00 0. -1.
        -11   -1    0    0    0    0 -0.00000000000E+00 -0.00000000000E+00 -0.50000000000E+03  0.50000000000E+03  0.00000000000E+00 0.  1.
          5    1    1    2  501    0 -0.11096105541E+03  0.15418984481E+03  0.46248356289E+03  0.50000000000E+03  0.47000000000E+01 0. -1.
         -5    1    1    2    0  501  0.11096105541E+03 -0.15418984481E+03 -0.46248356289E+03  0.50000000000E+03  0.47000000000E+01 0.  1.
</event>
<event>
 4    1  0.4924477E-004  0.1000000E+04  0.7546771E-02  0.8684367E-01
         11   -1    0    0    0    0  0.00000000000E+00  0.00000000000E+00  0.50000000000E+03  0.50000000000E+03  0.00000000000E+00 0.  1.
        -11   -1    0    0    0    0 -0.00000000000E+00 -0.00000000000E+00 -0.50000000000E+03  0.50000000000E+03  0.00000000000E+00 0. -1.
          5    1    1    2  501    0 -0.38636114145E+03 -0.15556700693E+03  0.27658974082E+03  0.50000000000E+03  0.47000000000E+01 0.  1.
         -5    1    1    2    0  501  0.38636114145E+03  0.15556700693E+03 -0.27658974082E+03  0.50000000000E+03  0.47000000000E+01 0. -1.
</event>
<event>
 4    1  0.4924477E-004  0.1000000E+04  0.7546771E-02  0.8684367E-01
         11   -1    0    0    0    0  0.00000000000E+00  0.00000000000E+00  0.50000000000E+03  0.50000000000E+03  0.00000000000E+00 0. -1.
        -11   -1    0    0    0    0 -0.00000000000E+00 -0.00000000000E+00 -0.50000000000E+03  0.50000000000E+03  0.00000000000E+00 0.  1.
          5    1    1    2  501    0 -0.65283859012E+02 -0.21661207901E+03  0.44586448051E+03  0.50000000000E+03  0.47000000000E+01 0. -1.
         -5    1    1    2    0  501  0.65283859012E+02  0.21661207901E+03 -0.44586448051E+03  0.50000000000E+03  0.47000000000E+01 0.  1.
</event>
<event>
 4    1  0.4924477E-004  0.1000000E+04  0.7546771E-02  0.8684367E-01
         11   -1    0    0    0    0  0.00000000000E+00  0.00000000000E+00  0.50000000000E+03  0.50000000000E+03  0.00000000000E+00 0. -1.
        -11   -1    0    0    0    0 -0.00000000000E+00 -0.00000000000E+00 -0.50000000000E+03  0.50000000000E+03  0.00000000000E+00 0.  1.
          5    1    1    2  501    0  0.12963906434E+03 -0.19272344443E+03  0.44275195874E+03  0.50000000000E+03  0.47000000000E+01 0. -1.
         -5    1    1    2    0  501 -0.12963906434E+03  0.19272344443E+03 -0.44275195874E+03  0.50000000000E+03  0.47000000000E+01 0.  1.
</event>
<event>
 4    1  0.4924477E-004  0.1000000E+04  0.7546771E-02  0.8684367E-01
         11   -1    0    0    0    0  0.00000000000E+00  0.00000000000E+00  0.50000000000E+03  0.50000000000E+03  0.00000000000E+00 0. -1.
        -11   -1    0    0    0    0 -0.00000000000E+00 -0.00000000000E+00 -0.50000000000E+03  0.50000000000E+03  0.00000000000E+00 0.  1.
          5    1    1    2  501    0  0.39777556277E+03 -0.92313187519E+02  0.28849746458E+03  0.50000000000E+03  0.47000000000E+01 0. -1.
         -5    1    1    2    0  501 -0.39777556277E+03  0.92313187519E+02 -0.28849746458E+03  0.50000000000E+03  0.47000000000E+01 0.  1.
</event>
<event>
 4    1  0.4924477E-004  0.1000000E+04  0.7546771E-02  0.8684367E-01
         11   -1    0    0    0    0  0.00000000000E+00  0.00000000000E+00  0.50000000000E+03  0.50000000000E+03  0.00000000000E+00 0. -1.
        -11   -1    0    0    0    0 -0.00000000000E+00 -0.00000000000E+00 -0.50000000000E+03  0.50000000000E+03  0.00000000000E+00 0.  1.
          5    1    1    2  501    0  0.86679780913E+02  0.46700940328E+03  0.15609850362E+03  0.50000000000E+03  0.47000000000E+01 0. -1.
         -5    1    1    2    0  501 -0.86679780913E+02 -0.46700940328E+03 -0.15609850362E+03  0.50000000000E+03  0.47000000000E+01 0.  1.
</event>
<event>
 4    1  0.4924477E-004  0.1000000E+04  0.7546771E-02  0.8684367E-01
         11   -1    0    0    0    0  0.00000000000E+00  0.00000000000E+00  0.50000000000E+03  0.50000000000E+03  0.00000000000E+00 0. -1.
        -11   -1    0    0    0    0 -0.00000000000E+00 -0.00000000000E+00 -0.50000000000E+03  0.50000000000E+03  0.00000000000E+00 0.  1.
          5    1    1    2  501    0  0.14689694765E+03  0.30547394228E+03  0.36753893312E+03  0.50000000000E+03  0.47000000000E+01 0. -1.
         -5    1    1    2    0  501 -0.14689694765E+03 -0.30547394228E+03 -0.36753893312E+03  0.50000000000E+03  0.47000000000E+01 0.  1.
</event>
<event>
 4    1  0.4924477E-004  0.1000000E+04  0.7546771E-02  0.8684367E-01
         11   -1    0    0    0    0  0.00000000000E+00  0.00000000000E+00  0.50000000000E+03  0.50000000000E+03  0.00000000000E+00 0. -1.
        -11   -1    0    0    0    0 -0.00000000000E+00 -0.00000000000E+00 -0.50000000000E+03  0.50000000000E+03  0.00000000000E+00 0.  1.
          5    1    1    2  501    0 -0.11152994173E+03  0.23415470340E+03  0.42744655452E+03  0.50000000000E+03  0.47000000000E+01 0. -1.
         -5    1    1    2    0  501  0.11152994173E+03 -0.23415470340E+03 -0.42744655452E+03  0.50000000000E+03  0.47000000000E+01 0.  1.
</event>
<event>
 4    1  0.4924477E-004  0.1000000E+04  0.7546771E-02  0.8684367E-01
         11   -1    0    0    0    0  0.00000000000E+00  0.00000000000E+00  0.50000000000E+03  0.50000000000E+03  0.00000000000E+00 0.  1.
        -11   -1    0    0    0    0 -0.00000000000E+00 -0.00000000000E+00 -0.50000000000E+03  0.50000000000E+03  0.00000000000E+00 0. -1.
          5    1    1    2  501    0  0.29373234810E+03 -0.20818633493E+03  0.34692602616E+03  0.50000000000E+03  0.47000000000E+01 0.  1.
         -5    1    1    2    0  501 -0.29373234810E+03  0.20818633493E+03 -0.34692602616E+03  0.50000000000E+03  0.47000000000E+01 0. -1.
</event>
<event>
 4    1  0.4924477E-004  0.1000000E+04  0.7546771E-02  0.8684367E-01
         11   -1    0    0    0    0  0.00000000000E+00  0.00000000000E+00  0.50000000000E+03  0.50000000000E+03  0.00000000000E+00 0. -1.
        -11   -1    0    0    0    0 -0.00000000000E+00 -0.00000000000E+00 -0.50000000000E+03  0.50000000000E+03  0.00000000000E+00 0.  1.
          5    1    1    2  501    0 -0.42689638860E+02  0.56669737723E+02  0.49491822108E+03  0.50000000000E+03  0.47000000000E+01 0. -1.
         -5    1    1    2    0  501  0.42689638860E+02 -0.56669737723E+02 -0.49491822108E+03  0.50000000000E+03  0.47000000000E+01 0.  1.
</event>
<event>
 4    1  0.4924477E-004  0.1000000E+04  0.7546771E-02  0.8684367E-01
         11   -1    0    0    0    0  0.00000000000E+00  0.00000000000E+00  0.50000000000E+03  0.50000000000E+03  0.00000000000E+00 0. -1.
        -11   -1    0    0    0    0 -0.00000000000E+00 -0.00000000000E+00 -0.50000000000E+03  0.50000000000E+03  0.00000000000E+00 0.  1.
          5    1    1    2  501    0  0.12044406589E+03  0.17137047799E+03  0.45398600889E+03  0.50000000000E+03  0.47000000000E+01 0. -1.
         -5    1    1    2    0  501 -0.12044406589E+03 -0.17137047799E+03 -0.45398600889E+03  0.50000000000E+03  0.47000000000E+01 0.  1.
</event>
<event>
 4    1  0.4924477E-004  0.1000000E+04  0.7546771E-02  0.8684367E-01
         11   -1    0    0    0    0  0.00000000000E+00  0.00000000000E+00  0.50000000000E+03  0.50000000000E+03  0.00000000000E+00 0.  1.
        -11   -1    0    0    0    0 -0.00000000000E+00 -0.00000000000E+00 -0.50000000000E+03  0.50000000000E+03  0.00000000000E+00 0. -1.
          5    1    1    2  501    0  0.11123627410E+03  0.10711131761E+02  0.48732912183E+03  0.50000000000E+03  0.47000000000E+01 0.  1.
         -5    1    1    2    0  501 -0.11123627410E+03 -0.10711131761E+02 -0.48732912183E+03  0.50000000000E+03  0.47000000000E+01 0. -1.
</event>
<event>
 4    1  0.4924477E-004  0.1000000E+04  0.7546771E-02  0.8684367E-01
         11   -1    0    0    0    0  0.00000000000E+00  0.00000000000E+00  0.50000000000E+03  0.50000000000E+03  0.00000000000E+00 0.  1.
        -11   -1    0    0    0    0 -0.00000000000E+00 -0.00000000000E+00 -0.50000000000E+03  0.50000000000E+03  0.00000000000E+00 0. -1.
          5    1    1    2  501    0 -0.34168531921E+03 -0.19250320174E+03  0.31011541394E+03  0.50000000000E+03  0.47000000000E+01 0.  1.
         -5    1    1    2    0  501  0.34168531921E+03  0.19250320174E+03 -0.31011541394E+03  0.50000000000E+03  0.47000000000E+01 0. -1.
</event>
<event>
 4    1  0.4924477E-004  0.1000000E+04  0.7546771E-02  0.8684367E-01
         11   -1    0    0    0    0  0.00000000000E+00  0.00000000000E+00  0.50000000000E+03  0.50000000000E+03  0.00000000000E+00 0. -1.
        -11   -1    0    0    0    0 -0.00000000000E+00 -0.00000000000E+00 -0.50000000000E+03  0.50000000000E+03  0.00000000000E+00 0.  1.
          5    1    1    2  501    0  0.62336521155E+02 -0.42908295552E+03  0.24895759761E+03  0.50000000000E+03  0.47000000000E+01 0. -1.
         -5    1    1    2    0  501 -0.62336521155E+02  0.42908295552E+03 -0.24895759761E+03  0.50000000000E+03  0.47000000000E+01 0.  1.
</event>
<event>
 4    1  0.4924477E-004  0.1000000E+04  0.7546771E-02  0.8684367E-01
         11   -1    0    0    0    0  0.00000000000E+00  0.00000000000E+00  0.50000000000E+03  0.50000000000E+03  0.00000000000E+00 0.  1.
        -11   -1    0    0    0    0 -0.00000000000E+00 -0.00000000000E+00 -0.50000000000E+03  0.50000000000E+03  0.00000000000E+00 0. -1.
          5    1    1    2  501    0  0.34139037928E+03 -0.35082060864E+03  0.10176158163E+03  0.50000000000E+03  0.47000000000E+01 0.  1.
         -5    1    1    2    0  501 -0.34139037928E+03  0.35082060864E+03 -0.10176158163E+03  0.50000000000E+03  0.47000000000E+01 0. -1.
</event>
<event>
 4    1  0.4924477E-004  0.1000000E+04  0.7546771E-02  0.8684367E-01
         11   -1    0    0    0    0  0.00000000000E+00  0.00000000000E+00  0.50000000000E+03  0.50000000000E+03  0.00000000000E+00 0. -1.
        -11   -1    0    0    0    0 -0.00000000000E+00 -0.00000000000E+00 -0.50000000000E+03  0.50000000000E+03  0.00000000000E+00 0.  1.
          5    1    1    2  501    0  0.39687886646E+02 -0.48352967868E+03  0.12083803825E+03  0.50000000000E+03  0.47000000000E+01 0. -1.
         -5    1    1    2    0  501 -0.39687886646E+02  0.48352967868E+03 -0.12083803825E+03  0.50000000000E+03  0.47000000000E+01 0.  1.
</event>
<event>
 4    1  0.4924477E-004  0.1000000E+04  0.7546771E-02  0.8684367E-01
         11   -1    0    0    0    0  0.00000000000E+00  0.00000000000E+00  0.50000000000E+03  0.50000000000E+03  0.00000000000E+00 0. -1.
        -11   -1    0    0    0    0 -0.00000000000E+00 -0.00000000000E+00 -0.50000000000E+03  0.50000000000E+03  0.00000000000E+00 0.  1.
          5    1    1    2  501    0  0.84904595278E+01 -0.11514745313E+02  0.49977318129E+03  0.50000000000E+03  0.47000000000E+01 0. -1.
         -5    1    1    2    0  501 -0.84904595278E+01  0.11514745313E+02 -0.49977318129E+03  0.50000000000E+03  0.47000000000E+01 0.  1.
</event>
<event>
 4    1  0.4924477E-004  0.1000000E+04  0.7546771E-02  0.8684367E-01
         11   -1    0    0    0    0  0.00000000000E+00  0.00000000000E+00  0.50000000000E+03  0.50000000000E+03  0.00000000000E+00 0. -1.
        -11   -1    0    0    0    0 -0.00000000000E+00 -0.00000000000E+00 -0.50000000000E+03  0.50000000000E+03  0.00000000000E+00 0.  1.
          5    1    1    2  501    0  0.49712517121E+03 -0.33309579744E+02  0.41652683591E+02  0.50000000000E+03  0.47000000000E+01 0. -1.
         -5    1    1    2    0  501 -0.49712517121E+03  0.33309579744E+02 -0.41652683591E+02  0.50000000000E+03  0.47000000000E+01 0.  1.
</event>
<event>
 4    1  0.4924477E-004  0.1000000E+04  0.7546771E-02  0.8684367E-01
         11   -1    0    0    0    0  0.00000000000E+00  0.00000000000E+00  0.50000000000E+03  0.50000000000E+03  0.00000000000E+00 0.  1.
        -11   -1    0    0    0    0 -0.00000000000E+00 -0.00000000000E+00 -0.50000000000E+03  0.50000000000E+03  0.00000000000E+00 0. -1.
          5    1    1    2  501    0  0.40000165413E+03 -0.19806133095E+03  0.22527382421E+03  0.50000000000E+03  0.47000000000E+01 0.  1.
         -5    1    1    2    0  501 -0.40000165413E+03  0.19806133095E+03 -0.22527382421E+03  0.50000000000E+03  0.47000000000E+01 0. -1.
</event>
<event>
 4    1  0.4924477E-004  0.1000000E+04  0.7546771E-02  0.8684367E-01
         11   -1    0    0    0    0  0.00000000000E+00  0.00000000000E+00  0.50000000000E+03  0.50000000000E+03  0.00000000000E+00 0. -1.
        -11   -1    0    0    0    0 -0.00000000000E+00 -0.00000000000E+00 -0.50000000000E+03  0.50000000000E+03  0.00000000000E+00 0.  1.
          5    1    1    2  501    0 -0.33908910602E+03 -0.13178783850E+03  0.34297004796E+03  0.50000000000E+03  0.47000000000E+01 0. -1.
         -5    1    1    2    0  501  0.33908910602E+03  0.13178783850E+03 -0.34297004796E+03  0.50000000000E+03  0.47000000000E+01 0.  1.
</event>
<event>
 4    1  0.4924477E-004  0.1000000E+04  0.7546771E-02  0.8684367E-01
         11   -1    0    0    0    0  0.00000000000E+00  0.00000000000E+00  0.50000000000E+03  0.50000000000E+03  0.00000000000E+00 0. -1.
        -11   -1    0    0    0    0 -0.00000000000E+00 -0.00000000000E+00 -0.50000000000E+03  0.50000000000E+03  0.00000000000E+00 0.  1.
          5    1    1    2  501    0  0.39115177462E+03  0.39955302091E+02 -0.30883939685E+03  0.50000000000E+03  0.47000000000E+01 0. -1.
         -5    1    1    2    0  501 -0.39115177462E+03 -0.39955302091E+02  0.30883939685E+03  0.50000000000E+03  0.47000000000E+01 0.  1.
</event>
<event>
 4    1  0.4924477E-004  0.1000000E+04  0.7546771E-02  0.8684367E-01
         11   -1    0    0    0    0  0.00000000000E+00  0.00000000000E+00  0.50000000000E+03  0.50000000000E+03  0.00000000000E+00 0. -1.
        -11   -1    0    0    0    0 -0.00000000000E+00 -0.00000000000E+00 -0.50000000000E+03  0.50000000000E+03  0.00000000000E+00 0.  1.
          5    1    1    2  501    0 -0.25971325632E+03 -0.13983179527E+03  0.40370038831E+03  0.50000000000E+03  0.47000000000E+01 0. -1.
         -5    1    1    2    0  501  0.25971325632E+03  0.13983179527E+03 -0.40370038831E+03  0.50000000000E+03  0.47000000000E+01 0.  1.
</event>
<event>
 4    1  0.4924477E-004  0.1000000E+04  0.7546771E-02  0.8684367E-01
         11   -1    0    0    0    0  0.00000000000E+00  0.00000000000E+00  0.50000000000E+03  0.50000000000E+03  0.00000000000E+00 0. -1.
        -11   -1    0    0    0    0 -0.00000000000E+00 -0.00000000000E+00 -0.50000000000E+03  0.50000000000E+03  0.00000000000E+00 0.  1.
          5    1    1    2  501    0 -0.25316415158E+03 -0.39439724180E+03  0.17417416001E+03  0.50000000000E+03  0.47000000000E+01 0. -1.
         -5    1    1    2    0  501  0.25316415158E+03  0.39439724180E+03 -0.17417416001E+03  0.50000000000E+03  0.47000000000E+01 0.  1.
</event>
<event>
 4    1  0.4924477E-004  0.1000000E+04  0.7546771E-02  0.8684367E-01
         11   -1    0    0    0    0  0.00000000000E+00  0.00000000000E+00  0.50000000000E+03  0.50000000000E+03  0.00000000000E+00 0. -1.
        -11   -1    0    0    0    0 -0.00000000000E+00 -0.00000000000E+00 -0.50000000000E+03  0.50000000000E+03  0.00000000000E+00 0.  1.
          5    1    1    2  501    0 -0.13950010269E+03  0.11945694739E+03 -0.46502437471E+03  0.50000000000E+03  0.47000000000E+01 0.  1.
         -5    1    1    2    0  501  0.13950010269E+03 -0.11945694739E+03  0.46502437471E+03  0.50000000000E+03  0.47000000000E+01 0. -1.
</event>
<event>
 4    1  0.4924477E-004  0.1000000E+04  0.7546771E-02  0.8684367E-01
         11   -1    0    0    0    0  0.00000000000E+00  0.00000000000E+00  0.50000000000E+03  0.50000000000E+03  0.00000000000E+00 0. -1.
        -11   -1    0    0    0    0 -0.00000000000E+00 -0.00000000000E+00 -0.50000000000E+03  0.50000000000E+03  0.00000000000E+00 0.  1.
          5    1    1    2  501    0 -0.42203104125E+03  0.17107131806E+03  0.20640328088E+03  0.50000000000E+03  0.47000000000E+01 0. -1.
         -5    1    1    2    0  501  0.42203104125E+03 -0.17107131806E+03 -0.20640328088E+03  0.50000000000E+03  0.47000000000E+01 0.  1.
</event>
<event>
 4    1  0.4924477E-004  0.1000000E+04  0.7546771E-02  0.8684367E-01
         11   -1    0    0    0    0  0.00000000000E+00  0.00000000000E+00  0.50000000000E+03  0.50000000000E+03  0.00000000000E+00 0. -1.
        -11   -1    0    0    0    0 -0.00000000000E+00 -0.00000000000E+00 -0.50000000000E+03  0.50000000000E+03  0.00000000000E+00 0.  1.
          5    1    1    2  501    0 -0.17188075922E+03 -0.45928031681E+03  0.97450013834E+02  0.50000000000E+03  0.47000000000E+01 0. -1.
         -5    1    1    2    0  501  0.17188075922E+03  0.45928031681E+03 -0.97450013834E+02  0.50000000000E+03  0.47000000000E+01 0.  1.
</event>
<event>
 4    1  0.4924477E-004  0.1000000E+04  0.7546771E-02  0.8684367E-01
         11   -1    0    0    0    0  0.00000000000E+00  0.00000000000E+00  0.50000000000E+03  0.50000000000E+03  0.00000000000E+00 0.  1.
        -11   -1    0    0    0    0 -0.00000000000E+00 -0.00000000000E+00 -0.50000000000E+03  0.50000000000E+03  0.00000000000E+00 0. -1.
          5    1    1    2  501    0 -0.11420391194E+03 -0.43931084652E+03  0.20962193737E+03  0.50000000000E+03  0.47000000000E+01 0.  1.
         -5    1    1    2    0  501  0.11420391194E+03  0.43931084652E+03 -0.20962193737E+03  0.50000000000E+03  0.47000000000E+01 0. -1.
</event>
<event>
 4    1  0.4924477E-004  0.1000000E+04  0.7546771E-02  0.8684367E-01
         11   -1    0    0    0    0  0.00000000000E+00  0.00000000000E+00  0.50000000000E+03  0.50000000000E+03  0.00000000000E+00 0. -1.
        -11   -1    0    0    0    0 -0.00000000000E+00 -0.00000000000E+00 -0.50000000000E+03  0.50000000000E+03  0.00000000000E+00 0.  1.
          5    1    1    2  501    0 -0.17603165843E+03 -0.30573076805E+03 -0.35428726014E+03  0.50000000000E+03  0.47000000000E+01 0. -1.
         -5    1    1    2    0  501  0.17603165843E+03  0.30573076805E+03  0.35428726014E+03  0.50000000000E+03  0.47000000000E+01 0.  1.
</event>
<event>
 4    1  0.4924477E-004  0.1000000E+04  0.7546771E-02  0.8684367E-01
         11   -1    0    0    0    0  0.00000000000E+00  0.00000000000E+00  0.50000000000E+03  0.50000000000E+03  0.00000000000E+00 0. -1.
        -11   -1    0    0    0    0 -0.00000000000E+00 -0.00000000000E+00 -0.50000000000E+03  0.50000000000E+03  0.00000000000E+00 0.  1.
          5    1    1    2  501    0  0.26212079501E+03 -0.16988814119E+03  0.39039546399E+03  0.50000000000E+03  0.47000000000E+01 0. -1.
         -5    1    1    2    0  501 -0.26212079501E+03  0.16988814119E+03 -0.39039546399E+03  0.50000000000E+03  0.47000000000E+01 0.  1.
</event>
<event>
 4    1  0.4924477E-004  0.1000000E+04  0.7546771E-02  0.8684367E-01
         11   -1    0    0    0    0  0.00000000000E+00  0.00000000000E+00  0.50000000000E+03  0.50000000000E+03  0.00000000000E+00 0. -1.
        -11   -1    0    0    0    0 -0.00000000000E+00 -0.00000000000E+00 -0.50000000000E+03  0.50000000000E+03  0.00000000000E+00 0.  1.
          5    1    1    2  501    0 -0.46666879785E+02 -0.44683529341E+03  0.21940449607E+03  0.50000000000E+03  0.47000000000E+01 0. -1.
         -5    1    1    2    0  501  0.46666879785E+02  0.44683529341E+03 -0.21940449607E+03  0.50000000000E+03  0.47000000000E+01 0.  1.
</event>
<event>
 4    1  0.4924477E-004  0.1000000E+04  0.7546771E-02  0.8684367E-01
         11   -1    0    0    0    0  0.00000000000E+00  0.00000000000E+00  0.50000000000E+03  0.50000000000E+03  0.00000000000E+00 0. -1.
        -11   -1    0    0    0    0 -0.00000000000E+00 -0.00000000000E+00 -0.50000000000E+03  0.50000000000E+03  0.00000000000E+00 0.  1.
          5    1    1    2  501    0  0.28160967118E+03 -0.12222869160E+03  0.39463153707E+03  0.50000000000E+03  0.47000000000E+01 0. -1.
         -5    1    1    2    0  501 -0.28160967118E+03  0.12222869160E+03 -0.39463153707E+03  0.50000000000E+03  0.47000000000E+01 0.  1.
</event>
<event>
 4    1  0.4924477E-004  0.1000000E+04  0.7546771E-02  0.8684367E-01
         11   -1    0    0    0    0  0.00000000000E+00  0.00000000000E+00  0.50000000000E+03  0.50000000000E+03  0.00000000000E+00 0. -1.
        -11   -1    0    0    0    0 -0.00000000000E+00 -0.00000000000E+00 -0.50000000000E+03  0.50000000000E+03  0.00000000000E+00 0.  1.
          5    1    1    2  501    0  0.50640288643E+02 -0.47447775904E+02  0.49513854599E+03  0.50000000000E+03  0.47000000000E+01 0. -1.
         -5    1    1    2    0  501 -0.50640288643E+02  0.47447775904E+02 -0.49513854599E+03  0.50000000000E+03  0.47000000000E+01 0.  1.
</event>
<event>
 4    1  0.4924477E-004  0.1000000E+04  0.7546771E-02  0.8684367E-01
         11   -1    0    0    0    0  0.00000000000E+00  0.00000000000E+00  0.50000000000E+03  0.50000000000E+03  0.00000000000E+00 0.  1.
        -11   -1    0    0    0    0 -0.00000000000E+00 -0.00000000000E+00 -0.50000000000E+03  0.50000000000E+03  0.00000000000E+00 0. -1.
          5    1    1    2  501    0  0.20350833919E+03 -0.27931183478E+03 -0.36131311191E+03  0.50000000000E+03  0.47000000000E+01 0. -1.
         -5    1    1    2    0  501 -0.20350833919E+03  0.27931183478E+03  0.36131311191E+03  0.50000000000E+03  0.47000000000E+01 0.  1.
</event>
<event>
 4    1  0.4924477E-004  0.1000000E+04  0.7546771E-02  0.8684367E-01
         11   -1    0    0    0    0  0.00000000000E+00  0.00000000000E+00  0.50000000000E+03  0.50000000000E+03  0.00000000000E+00 0. -1.
        -11   -1    0    0    0    0 -0.00000000000E+00 -0.00000000000E+00 -0.50000000000E+03  0.50000000000E+03  0.00000000000E+00 0.  1.
          5    1    1    2  501    0  0.99503118963E+02  0.24620328843E+03  0.42362835137E+03  0.50000000000E+03  0.47000000000E+01 0. -1.
         -5    1    1    2    0  501 -0.99503118963E+02 -0.24620328843E+03 -0.42362835137E+03  0.50000000000E+03  0.47000000000E+01 0.  1.
</event>
<event>
 4    1  0.4924477E-004  0.1000000E+04  0.7546771E-02  0.8684367E-01
         11   -1    0    0    0    0  0.00000000000E+00  0.00000000000E+00  0.50000000000E+03  0.50000000000E+03  0.00000000000E+00 0. -1.
        -11   -1    0    0    0    0 -0.00000000000E+00 -0.00000000000E+00 -0.50000000000E+03  0.50000000000E+03  0.00000000000E+00 0.  1.
          5    1    1    2  501    0  0.34200783336E+02  0.18993788388E+03  0.46122859483E+03  0.50000000000E+03  0.47000000000E+01 0. -1.
         -5    1    1    2    0  501 -0.34200783336E+02 -0.18993788388E+03 -0.46122859483E+03  0.50000000000E+03  0.47000000000E+01 0.  1.
</event>
<event>
 4    1  0.4924477E-004  0.1000000E+04  0.7546771E-02  0.8684367E-01
         11   -1    0    0    0    0  0.00000000000E+00  0.00000000000E+00  0.50000000000E+03  0.50000000000E+03  0.00000000000E+00 0. -1.
        -11   -1    0    0    0    0 -0.00000000000E+00 -0.00000000000E+00 -0.50000000000E+03  0.50000000000E+03  0.00000000000E+00 0.  1.
          5    1    1    2  501    0 -0.85610346711E+02 -0.19054036440E+03  0.45425009419E+03  0.50000000000E+03  0.47000000000E+01 0. -1.
         -5    1    1    2    0  501  0.85610346711E+02  0.19054036440E+03 -0.45425009419E+03  0.50000000000E+03  0.47000000000E+01 0.  1.
</event>
<event>
 4    1  0.4924477E-004  0.1000000E+04  0.7546771E-02  0.8684367E-01
         11   -1    0    0    0    0  0.00000000000E+00  0.00000000000E+00  0.50000000000E+03  0.50000000000E+03  0.00000000000E+00 0. -1.
        -11   -1    0    0    0    0 -0.00000000000E+00 -0.00000000000E+00 -0.50000000000E+03  0.50000000000E+03  0.00000000000E+00 0.  1.
          5    1    1    2  501    0  0.77305317936E+02  0.31521553579E+03  0.38031692549E+03  0.50000000000E+03  0.47000000000E+01 0. -1.
         -5    1    1    2    0  501 -0.77305317936E+02 -0.31521553579E+03 -0.38031692549E+03  0.50000000000E+03  0.47000000000E+01 0.  1.
</event>
<event>
 4    1  0.4924477E-004  0.1000000E+04  0.7546771E-02  0.8684367E-01
         11   -1    0    0    0    0  0.00000000000E+00  0.00000000000E+00  0.50000000000E+03  0.50000000000E+03  0.00000000000E+00 0.  1.
        -11   -1    0    0    0    0 -0.00000000000E+00 -0.00000000000E+00 -0.50000000000E+03  0.50000000000E+03  0.00000000000E+00 0. -1.
          5    1    1    2  501    0  0.18710766937E+03  0.13290546563E+03  0.44419001257E+03  0.50000000000E+03  0.47000000000E+01 0.  1.
         -5    1    1    2    0  501 -0.18710766937E+03 -0.13290546563E+03 -0.44419001257E+03  0.50000000000E+03  0.47000000000E+01 0. -1.
</event>
<event>
 4    1  0.4924477E-004  0.1000000E+04  0.7546771E-02  0.8684367E-01
         11   -1    0    0    0    0  0.00000000000E+00  0.00000000000E+00  0.50000000000E+03  0.50000000000E+03  0.00000000000E+00 0. -1.
        -11   -1    0    0    0    0 -0.00000000000E+00 -0.00000000000E+00 -0.50000000000E+03  0.50000000000E+03  0.00000000000E+00 0.  1.
          5    1    1    2  501    0 -0.29055127565E+02 -0.29584697180E+03  0.40200532190E+03  0.50000000000E+03  0.47000000000E+01 0. -1.
         -5    1    1    2    0  501  0.29055127565E+02  0.29584697180E+03 -0.40200532190E+03  0.50000000000E+03  0.47000000000E+01 0.  1.
</event>
<event>
 4    1  0.4924477E-004  0.1000000E+04  0.7546771E-02  0.8684367E-01
         11   -1    0    0    0    0  0.00000000000E+00  0.00000000000E+00  0.50000000000E+03  0.50000000000E+03  0.00000000000E+00 0. -1.
        -11   -1    0    0    0    0 -0.00000000000E+00 -0.00000000000E+00 -0.50000000000E+03  0.50000000000E+03  0.00000000000E+00 0.  1.
          5    1    1    2  501    0 -0.13151385488E+01 -0.67396826977E+02  0.49541280577E+03  0.50000000000E+03  0.47000000000E+01 0. -1.
         -5    1    1    2    0  501  0.13151385488E+01  0.67396826977E+02 -0.49541280577E+03  0.50000000000E+03  0.47000000000E+01 0.  1.
</event>
<event>
 4    1  0.4924477E-004  0.1000000E+04  0.7546771E-02  0.8684367E-01
         11   -1    0    0    0    0  0.00000000000E+00  0.00000000000E+00  0.50000000000E+03  0.50000000000E+03  0.00000000000E+00 0. -1.
        -11   -1    0    0    0    0 -0.00000000000E+00 -0.00000000000E+00 -0.50000000000E+03  0.50000000000E+03  0.00000000000E+00 0.  1.
          5    1    1    2  501    0 -0.49230674739E+03 -0.82419878526E+02 -0.28617129480E+02  0.50000000000E+03  0.47000000000E+01 0. -1.
         -5    1    1    2    0  501  0.49230674739E+03  0.82419878526E+02  0.28617129480E+02  0.50000000000E+03  0.47000000000E+01 0.  1.
</event>
<event>
 4    1  0.4924477E-004  0.1000000E+04  0.7546771E-02  0.8684367E-01
         11   -1    0    0    0    0  0.00000000000E+00  0.00000000000E+00  0.50000000000E+03  0.50000000000E+03  0.00000000000E+00 0. -1.
        -11   -1    0    0    0    0 -0.00000000000E+00 -0.00000000000E+00 -0.50000000000E+03  0.50000000000E+03  0.00000000000E+00 0.  1.
          5    1    1    2  501    0 -0.20837995154E+03 -0.39231171676E+03 -0.22944982608E+03  0.50000000000E+03  0.47000000000E+01 0. -1.
         -5    1    1    2    0  501  0.20837995154E+03  0.39231171676E+03  0.22944982608E+03  0.50000000000E+03  0.47000000000E+01 0.  1.
</event>
<event>
 4    1  0.4924477E-004  0.1000000E+04  0.7546771E-02  0.8684367E-01
         11   -1    0    0    0    0  0.00000000000E+00  0.00000000000E+00  0.50000000000E+03  0.50000000000E+03  0.00000000000E+00 0.  1.
        -11   -1    0    0    0    0 -0.00000000000E+00 -0.00000000000E+00 -0.50000000000E+03  0.50000000000E+03  0.00000000000E+00 0. -1.
          5    1    1    2  501    0  0.56136828209E+02 -0.83249349252E+02  0.48979190721E+03  0.50000000000E+03  0.47000000000E+01 0.  1.
         -5    1    1    2    0  501 -0.56136828209E+02  0.83249349252E+02 -0.48979190721E+03  0.50000000000E+03  0.47000000000E+01 0. -1.
</event>
<event>
 4    1  0.4924477E-004  0.1000000E+04  0.7546771E-02  0.8684367E-01
         11   -1    0    0    0    0  0.00000000000E+00  0.00000000000E+00  0.50000000000E+03  0.50000000000E+03  0.00000000000E+00 0. -1.
        -11   -1    0    0    0    0 -0.00000000000E+00 -0.00000000000E+00 -0.50000000000E+03  0.50000000000E+03  0.00000000000E+00 0.  1.
          5    1    1    2  501    0 -0.81605795194E+02 -0.43351065227E+03  0.23534425542E+03  0.50000000000E+03  0.47000000000E+01 0. -1.
         -5    1    1    2    0  501  0.81605795194E+02  0.43351065227E+03 -0.23534425542E+03  0.50000000000E+03  0.47000000000E+01 0.  1.
</event>
<event>
 4    1  0.4924477E-004  0.1000000E+04  0.7546771E-02  0.8684367E-01
         11   -1    0    0    0    0  0.00000000000E+00  0.00000000000E+00  0.50000000000E+03  0.50000000000E+03  0.00000000000E+00 0. -1.
        -11   -1    0    0    0    0 -0.00000000000E+00 -0.00000000000E+00 -0.50000000000E+03  0.50000000000E+03  0.00000000000E+00 0.  1.
          5    1    1    2  501    0  0.39467435865E+03 -0.28323894176E+02  0.30562692559E+03  0.50000000000E+03  0.47000000000E+01 0. -1.
         -5    1    1    2    0  501 -0.39467435865E+03  0.28323894176E+02 -0.30562692559E+03  0.50000000000E+03  0.47000000000E+01 0.  1.
</event>
<event>
 4    1  0.4924477E-004  0.1000000E+04  0.7546771E-02  0.8684367E-01
         11   -1    0    0    0    0  0.00000000000E+00  0.00000000000E+00  0.50000000000E+03  0.50000000000E+03  0.00000000000E+00 0. -1.
        -11   -1    0    0    0    0 -0.00000000000E+00 -0.00000000000E+00 -0.50000000000E+03  0.50000000000E+03  0.00000000000E+00 0.  1.
          5    1    1    2  501    0 -0.97803208686E+02 -0.25685287551E+03  0.41765900291E+03  0.50000000000E+03  0.47000000000E+01 0. -1.
         -5    1    1    2    0  501  0.97803208686E+02  0.25685287551E+03 -0.41765900291E+03  0.50000000000E+03  0.47000000000E+01 0.  1.
</event>
<event>
 4    1  0.4924477E-004  0.1000000E+04  0.7546771E-02  0.8684367E-01
         11   -1    0    0    0    0  0.00000000000E+00  0.00000000000E+00  0.50000000000E+03  0.50000000000E+03  0.00000000000E+00 0. -1.
        -11   -1    0    0    0    0 -0.00000000000E+00 -0.00000000000E+00 -0.50000000000E+03  0.50000000000E+03  0.00000000000E+00 0.  1.
          5    1    1    2  501    0  0.39874068672E+03 -0.28044098855E+02  0.30032865876E+03  0.50000000000E+03  0.47000000000E+01 0. -1.
         -5    1    1    2    0  501 -0.39874068672E+03  0.28044098855E+02 -0.30032865876E+03  0.50000000000E+03  0.47000000000E+01 0.  1.
</event>
<event>
 4    1  0.4924477E-004  0.1000000E+04  0.7546771E-02  0.8684367E-01
         11   -1    0    0    0    0  0.00000000000E+00  0.00000000000E+00  0.50000000000E+03  0.50000000000E+03  0.00000000000E+00 0. -1.
        -11   -1    0    0    0    0 -0.00000000000E+00 -0.00000000000E+00 -0.50000000000E+03  0.50000000000E+03  0.00000000000E+00 0.  1.
          5    1    1    2  501    0 -0.42708371185E+03  0.19577192026E+03  0.17102855992E+03  0.50000000000E+03  0.47000000000E+01 0. -1.
         -5    1    1    2    0  501  0.42708371185E+03 -0.19577192026E+03 -0.17102855992E+03  0.50000000000E+03  0.47000000000E+01 0.  1.
</event>
<event>
 4    1  0.4924477E-004  0.1000000E+04  0.7546771E-02  0.8684367E-01
         11   -1    0    0    0    0  0.00000000000E+00  0.00000000000E+00  0.50000000000E+03  0.50000000000E+03  0.00000000000E+00 0. -1.
        -11   -1    0    0    0    0 -0.00000000000E+00 -0.00000000000E+00 -0.50000000000E+03  0.50000000000E+03  0.00000000000E+00 0.  1.
          5    1    1    2  501    0 -0.60113559156E+02  0.45151540298E+03  0.20615069944E+03  0.50000000000E+03  0.47000000000E+01 0. -1.
         -5    1    1    2    0  501  0.60113559156E+02 -0.45151540298E+03 -0.20615069944E+03  0.50000000000E+03  0.47000000000E+01 0.  1.
</event>
<event>
 4    1  0.4924477E-004  0.1000000E+04  0.7546771E-02  0.8684367E-01
         11   -1    0    0    0    0  0.00000000000E+00  0.00000000000E+00  0.50000000000E+03  0.50000000000E+03  0.00000000000E+00 0. -1.
        -11   -1    0    0    0    0 -0.00000000000E+00 -0.00000000000E+00 -0.50000000000E+03  0.50000000000E+03  0.00000000000E+00 0.  1.
          5    1    1    2  501    0 -0.22040553850E+03 -0.33353199472E+03  0.30025941633E+03  0.50000000000E+03  0.47000000000E+01 0. -1.
         -5    1    1    2    0  501  0.22040553850E+03  0.33353199472E+03 -0.30025941633E+03  0.50000000000E+03  0.47000000000E+01 0.  1.
</event>
<event>
 4    1  0.4924477E-004  0.1000000E+04  0.7546771E-02  0.8684367E-01
         11   -1    0    0    0    0  0.00000000000E+00  0.00000000000E+00  0.50000000000E+03  0.50000000000E+03  0.00000000000E+00 0. -1.
        -11   -1    0    0    0    0 -0.00000000000E+00 -0.00000000000E+00 -0.50000000000E+03  0.50000000000E+03  0.00000000000E+00 0.  1.
          5    1    1    2  501    0 -0.23032197973E+03  0.42996455922E+03  0.10981882111E+03  0.50000000000E+03  0.47000000000E+01 0. -1.
         -5    1    1    2    0  501  0.23032197973E+03 -0.42996455922E+03 -0.10981882111E+03  0.50000000000E+03  0.47000000000E+01 0.  1.
</event>
<event>
 4    1  0.4924477E-004  0.1000000E+04  0.7546771E-02  0.8684367E-01
         11   -1    0    0    0    0  0.00000000000E+00  0.00000000000E+00  0.50000000000E+03  0.50000000000E+03  0.00000000000E+00 0. -1.
        -11   -1    0    0    0    0 -0.00000000000E+00 -0.00000000000E+00 -0.50000000000E+03  0.50000000000E+03  0.00000000000E+00 0.  1.
          5    1    1    2  501    0  0.27257670816E+03  0.21085388919E+03  0.36224368259E+03  0.50000000000E+03  0.47000000000E+01 0. -1.
         -5    1    1    2    0  501 -0.27257670816E+03 -0.21085388919E+03 -0.36224368259E+03  0.50000000000E+03  0.47000000000E+01 0.  1.
</event>
<event>
 4    1  0.4924477E-004  0.1000000E+04  0.7546771E-02  0.8684367E-01
         11   -1    0    0    0    0  0.00000000000E+00  0.00000000000E+00  0.50000000000E+03  0.50000000000E+03  0.00000000000E+00 0. -1.
        -11   -1    0    0    0    0 -0.00000000000E+00 -0.00000000000E+00 -0.50000000000E+03  0.50000000000E+03  0.00000000000E+00 0.  1.
          5    1    1    2  501    0  0.34342886094E+03  0.18172892277E+03  0.31465715644E+03  0.50000000000E+03  0.47000000000E+01 0. -1.
         -5    1    1    2    0  501 -0.34342886094E+03 -0.18172892277E+03 -0.31465715644E+03  0.50000000000E+03  0.47000000000E+01 0.  1.
</event>
<event>
 4    1  0.4924477E-004  0.1000000E+04  0.7546771E-02  0.8684367E-01
         11   -1    0    0    0    0  0.00000000000E+00  0.00000000000E+00  0.50000000000E+03  0.50000000000E+03  0.00000000000E+00 0. -1.
        -11   -1    0    0    0    0 -0.00000000000E+00 -0.00000000000E+00 -0.50000000000E+03  0.50000000000E+03  0.00000000000E+00 0.  1.
          5    1    1    2  501    0 -0.73760496508E+02 -0.48621191141E+03  0.90195766845E+02  0.50000000000E+03  0.47000000000E+01 0. -1.
         -5    1    1    2    0  501  0.73760496508E+02  0.48621191141E+03 -0.90195766845E+02  0.50000000000E+03  0.47000000000E+01 0.  1.
</event>
<event>
 4    1  0.4924477E-004  0.1000000E+04  0.7546771E-02  0.8684367E-01
         11   -1    0    0    0    0  0.00000000000E+00  0.00000000000E+00  0.50000000000E+03  0.50000000000E+03  0.00000000000E+00 0. -1.
        -11   -1    0    0    0    0 -0.00000000000E+00 -0.00000000000E+00 -0.50000000000E+03  0.50000000000E+03  0.00000000000E+00 0.  1.
          5    1    1    2  501    0 -0.34021494503E+03 -0.67302943035E+02  0.36014165968E+03  0.50000000000E+03  0.47000000000E+01 0. -1.
         -5    1    1    2    0  501  0.34021494503E+03  0.67302943035E+02 -0.36014165968E+03  0.50000000000E+03  0.47000000000E+01 0.  1.
</event>
<event>
 4    1  0.4924477E-004  0.1000000E+04  0.7546771E-02  0.8684367E-01
         11   -1    0    0    0    0  0.00000000000E+00  0.00000000000E+00  0.50000000000E+03  0.50000000000E+03  0.00000000000E+00 0.  1.
        -11   -1    0    0    0    0 -0.00000000000E+00 -0.00000000000E+00 -0.50000000000E+03  0.50000000000E+03  0.00000000000E+00 0. -1.
          5    1    1    2  501    0  0.15775319835E+03  0.27816072007E+02  0.47362232269E+03  0.50000000000E+03  0.47000000000E+01 0.  1.
         -5    1    1    2    0  501 -0.15775319835E+03 -0.27816072007E+02 -0.47362232269E+03  0.50000000000E+03  0.47000000000E+01 0. -1.
</event>
<event>
 4    1  0.4924477E-004  0.1000000E+04  0.7546771E-02  0.8684367E-01
         11   -1    0    0    0    0  0.00000000000E+00  0.00000000000E+00  0.50000000000E+03  0.50000000000E+03  0.00000000000E+00 0. -1.
        -11   -1    0    0    0    0 -0.00000000000E+00 -0.00000000000E+00 -0.50000000000E+03  0.50000000000E+03  0.00000000000E+00 0.  1.
          5    1    1    2  501    0  0.17814912053E+03 -0.24426962485E+03  0.39821244484E+03  0.50000000000E+03  0.47000000000E+01 0. -1.
         -5    1    1    2    0  501 -0.17814912053E+03  0.24426962485E+03 -0.39821244484E+03  0.50000000000E+03  0.47000000000E+01 0.  1.
</event>
<event>
 4    1  0.4924477E-004  0.1000000E+04  0.7546771E-02  0.8684367E-01
         11   -1    0    0    0    0  0.00000000000E+00  0.00000000000E+00  0.50000000000E+03  0.50000000000E+03  0.00000000000E+00 0. -1.
        -11   -1    0    0    0    0 -0.00000000000E+00 -0.00000000000E+00 -0.50000000000E+03  0.50000000000E+03  0.00000000000E+00 0.  1.
          5    1    1    2  501    0 -0.49796356961E+03  0.13629874345E+02  0.42713228216E+02  0.50000000000E+03  0.47000000000E+01 0. -1.
         -5    1    1    2    0  501  0.49796356961E+03 -0.13629874345E+02 -0.42713228216E+02  0.50000000000E+03  0.47000000000E+01 0.  1.
</event>
<event>
 4    1  0.4924477E-004  0.1000000E+04  0.7546771E-02  0.8684367E-01
         11   -1    0    0    0    0  0.00000000000E+00  0.00000000000E+00  0.50000000000E+03  0.50000000000E+03  0.00000000000E+00 0.  1.
        -11   -1    0    0    0    0 -0.00000000000E+00 -0.00000000000E+00 -0.50000000000E+03  0.50000000000E+03  0.00000000000E+00 0. -1.
          5    1    1    2  501    0  0.37196717518E+03 -0.28037151578E+03  0.18168693880E+03  0.50000000000E+03  0.47000000000E+01 0.  1.
         -5    1    1    2    0  501 -0.37196717518E+03  0.28037151578E+03 -0.18168693880E+03  0.50000000000E+03  0.47000000000E+01 0. -1.
</event>
<event>
 4    1  0.4924477E-004  0.1000000E+04  0.7546771E-02  0.8684367E-01
         11   -1    0    0    0    0  0.00000000000E+00  0.00000000000E+00  0.50000000000E+03  0.50000000000E+03  0.00000000000E+00 0. -1.
        -11   -1    0    0    0    0 -0.00000000000E+00 -0.00000000000E+00 -0.50000000000E+03  0.50000000000E+03  0.00000000000E+00 0.  1.
          5    1    1    2  501    0  0.29690710664E+03 -0.37408029540E+03  0.14794597873E+03  0.50000000000E+03  0.47000000000E+01 0. -1.
         -5    1    1    2    0  501 -0.29690710664E+03  0.37408029540E+03 -0.14794597873E+03  0.50000000000E+03  0.47000000000E+01 0.  1.
</event>
<event>
 4    1  0.4924477E-004  0.1000000E+04  0.7546771E-02  0.8684367E-01
         11   -1    0    0    0    0  0.00000000000E+00  0.00000000000E+00  0.50000000000E+03  0.50000000000E+03  0.00000000000E+00 0. -1.
        -11   -1    0    0    0    0 -0.00000000000E+00 -0.00000000000E+00 -0.50000000000E+03  0.50000000000E+03  0.00000000000E+00 0.  1.
          5    1    1    2  501    0  0.30592744976E+03  0.21876804151E+03  0.32943413529E+03  0.50000000000E+03  0.47000000000E+01 0. -1.
         -5    1    1    2    0  501 -0.30592744976E+03 -0.21876804151E+03 -0.32943413529E+03  0.50000000000E+03  0.47000000000E+01 0.  1.
</event>
<event>
 4    1  0.4924477E-004  0.1000000E+04  0.7546771E-02  0.8684367E-01
         11   -1    0    0    0    0  0.00000000000E+00  0.00000000000E+00  0.50000000000E+03  0.50000000000E+03  0.00000000000E+00 0. -1.
        -11   -1    0    0    0    0 -0.00000000000E+00 -0.00000000000E+00 -0.50000000000E+03  0.50000000000E+03  0.00000000000E+00 0.  1.
          5    1    1    2  501    0  0.14565415655E+03  0.32767926901E+03  0.34840934738E+03  0.50000000000E+03  0.47000000000E+01 0. -1.
         -5    1    1    2    0  501 -0.14565415655E+03 -0.32767926901E+03 -0.34840934738E+03  0.50000000000E+03  0.47000000000E+01 0.  1.
</event>
<event>
 4    1  0.4924477E-004  0.1000000E+04  0.7546771E-02  0.8684367E-01
         11   -1    0    0    0    0  0.00000000000E+00  0.00000000000E+00  0.50000000000E+03  0.50000000000E+03  0.00000000000E+00 0.  1.
        -11   -1    0    0    0    0 -0.00000000000E+00 -0.00000000000E+00 -0.50000000000E+03  0.50000000000E+03  0.00000000000E+00 0. -1.
          5    1    1    2  501    0 -0.27286050216E+03  0.85972234842E+02  0.41004125548E+03  0.50000000000E+03  0.47000000000E+01 0.  1.
         -5    1    1    2    0  501  0.27286050216E+03 -0.85972234842E+02 -0.41004125548E+03  0.50000000000E+03  0.47000000000E+01 0. -1.
</event>
<event>
 4    1  0.4924477E-004  0.1000000E+04  0.7546771E-02  0.8684367E-01
         11   -1    0    0    0    0  0.00000000000E+00  0.00000000000E+00  0.50000000000E+03  0.50000000000E+03  0.00000000000E+00 0.  1.
        -11   -1    0    0    0    0 -0.00000000000E+00 -0.00000000000E+00 -0.50000000000E+03  0.50000000000E+03  0.00000000000E+00 0. -1.
          5    1    1    2  501    0  0.13586890616E+03  0.38178797030E+02  0.47964562939E+03  0.50000000000E+03  0.47000000000E+01 0.  1.
         -5    1    1    2    0  501 -0.13586890616E+03 -0.38178797030E+02 -0.47964562939E+03  0.50000000000E+03  0.47000000000E+01 0. -1.
</event>
<event>
 4    1  0.4924477E-004  0.1000000E+04  0.7546771E-02  0.8684367E-01
         11   -1    0    0    0    0  0.00000000000E+00  0.00000000000E+00  0.50000000000E+03  0.50000000000E+03  0.00000000000E+00 0.  1.
        -11   -1    0    0    0    0 -0.00000000000E+00 -0.00000000000E+00 -0.50000000000E+03  0.50000000000E+03  0.00000000000E+00 0. -1.
          5    1    1    2  501    0 -0.37990267927E+03 -0.32449177385E+03 -0.18893199380E+02  0.50000000000E+03  0.47000000000E+01 0.  1.
         -5    1    1    2    0  501  0.37990267927E+03  0.32449177385E+03  0.18893199380E+02  0.50000000000E+03  0.47000000000E+01 0. -1.
</event>
<event>
 4    1  0.4924477E-004  0.1000000E+04  0.7546771E-02  0.8684367E-01
         11   -1    0    0    0    0  0.00000000000E+00  0.00000000000E+00  0.50000000000E+03  0.50000000000E+03  0.00000000000E+00 0. -1.
        -11   -1    0    0    0    0 -0.00000000000E+00 -0.00000000000E+00 -0.50000000000E+03  0.50000000000E+03  0.00000000000E+00 0.  1.
          5    1    1    2  501    0  0.12476404336E+03  0.31152081810E+03  0.37063003571E+03  0.50000000000E+03  0.47000000000E+01 0. -1.
         -5    1    1    2    0  501 -0.12476404336E+03 -0.31152081810E+03 -0.37063003571E+03  0.50000000000E+03  0.47000000000E+01 0.  1.
</event>
<event>
 4    1  0.4924477E-004  0.1000000E+04  0.7546771E-02  0.8684367E-01
         11   -1    0    0    0    0  0.00000000000E+00  0.00000000000E+00  0.50000000000E+03  0.50000000000E+03  0.00000000000E+00 0. -1.
        -11   -1    0    0    0    0 -0.00000000000E+00 -0.00000000000E+00 -0.50000000000E+03  0.50000000000E+03  0.00000000000E+00 0.  1.
          5    1    1    2  501    0 -0.40940194842E+03  0.12246379347E+03  0.25955842101E+03  0.50000000000E+03  0.47000000000E+01 0. -1.
         -5    1    1    2    0  501  0.40940194842E+03 -0.12246379347E+03 -0.25955842101E+03  0.50000000000E+03  0.47000000000E+01 0.  1.
</event>
<event>
 4    1  0.4924477E-004  0.1000000E+04  0.7546771E-02  0.8684367E-01
         11   -1    0    0    0    0  0.00000000000E+00  0.00000000000E+00  0.50000000000E+03  0.50000000000E+03  0.00000000000E+00 0. -1.
        -11   -1    0    0    0    0 -0.00000000000E+00 -0.00000000000E+00 -0.50000000000E+03  0.50000000000E+03  0.00000000000E+00 0.  1.
          5    1    1    2  501    0  0.37449139488E+03 -0.24475423330E+03 -0.22322515639E+03  0.50000000000E+03  0.47000000000E+01 0. -1.
         -5    1    1    2    0  501 -0.37449139488E+03  0.24475423330E+03  0.22322515639E+03  0.50000000000E+03  0.47000000000E+01 0.  1.
</event>
<event>
 4    1  0.4924477E-004  0.1000000E+04  0.7546771E-02  0.8684367E-01
         11   -1    0    0    0    0  0.00000000000E+00  0.00000000000E+00  0.50000000000E+03  0.50000000000E+03  0.00000000000E+00 0. -1.
        -11   -1    0    0    0    0 -0.00000000000E+00 -0.00000000000E+00 -0.50000000000E+03  0.50000000000E+03  0.00000000000E+00 0.  1.
          5    1    1    2  501    0 -0.10843680326E+03 -0.44956091347E+03  0.19003777198E+03  0.50000000000E+03  0.47000000000E+01 0. -1.
         -5    1    1    2    0  501  0.10843680326E+03  0.44956091347E+03 -0.19003777198E+03  0.50000000000E+03  0.47000000000E+01 0.  1.
</event>
<event>
 4    1  0.4924477E-004  0.1000000E+04  0.7546771E-02  0.8684367E-01
         11   -1    0    0    0    0  0.00000000000E+00  0.00000000000E+00  0.50000000000E+03  0.50000000000E+03  0.00000000000E+00 0. -1.
        -11   -1    0    0    0    0 -0.00000000000E+00 -0.00000000000E+00 -0.50000000000E+03  0.50000000000E+03  0.00000000000E+00 0.  1.
          5    1    1    2  501    0  0.24890601228E+03  0.15371739787E+03  0.40545612419E+03  0.50000000000E+03  0.47000000000E+01 0. -1.
         -5    1    1    2    0  501 -0.24890601228E+03 -0.15371739787E+03 -0.40545612419E+03  0.50000000000E+03  0.47000000000E+01 0.  1.
</event>
<event>
 4    1  0.4924477E-004  0.1000000E+04  0.7546771E-02  0.8684367E-01
         11   -1    0    0    0    0  0.00000000000E+00  0.00000000000E+00  0.50000000000E+03  0.50000000000E+03  0.00000000000E+00 0. -1.
        -11   -1    0    0    0    0 -0.00000000000E+00 -0.00000000000E+00 -0.50000000000E+03  0.50000000000E+03  0.00000000000E+00 0.  1.
          5    1    1    2  501    0 -0.15273209244E+03 -0.47354318041E+03  0.49068057090E+02  0.50000000000E+03  0.47000000000E+01 0. -1.
         -5    1    1    2    0  501  0.15273209244E+03  0.47354318041E+03 -0.49068057090E+02  0.50000000000E+03  0.47000000000E+01 0.  1.
</event>
<event>
 4    1  0.4924477E-004  0.1000000E+04  0.7546771E-02  0.8684367E-01
         11   -1    0    0    0    0  0.00000000000E+00  0.00000000000E+00  0.50000000000E+03  0.50000000000E+03  0.00000000000E+00 0. -1.
        -11   -1    0    0    0    0 -0.00000000000E+00 -0.00000000000E+00 -0.50000000000E+03  0.50000000000E+03  0.00000000000E+00 0.  1.
          5    1    1    2  501    0  0.28292836166E+03 -0.49682356439E+02 -0.40922013102E+03  0.50000000000E+03  0.47000000000E+01 0. -1.
         -5    1    1    2    0  501 -0.28292836166E+03  0.49682356439E+02  0.40922013102E+03  0.50000000000E+03  0.47000000000E+01 0.  1.
</event>
<event>
 4    1  0.4924477E-004  0.1000000E+04  0.7546771E-02  0.8684367E-01
         11   -1    0    0    0    0  0.00000000000E+00  0.00000000000E+00  0.50000000000E+03  0.50000000000E+03  0.00000000000E+00 0. -1.
        -11   -1    0    0    0    0 -0.00000000000E+00 -0.00000000000E+00 -0.50000000000E+03  0.50000000000E+03  0.00000000000E+00 0.  1.
          5    1    1    2  501    0 -0.33316015829E+03  0.17350329670E+03  0.32996791505E+03  0.50000000000E+03  0.47000000000E+01 0. -1.
         -5    1    1    2    0  501  0.33316015829E+03 -0.17350329670E+03 -0.32996791505E+03  0.50000000000E+03  0.47000000000E+01 0.  1.
</event>
<event>
 4    1  0.4924477E-004  0.1000000E+04  0.7546771E-02  0.8684367E-01
         11   -1    0    0    0    0  0.00000000000E+00  0.00000000000E+00  0.50000000000E+03  0.50000000000E+03  0.00000000000E+00 0. -1.
        -11   -1    0    0    0    0 -0.00000000000E+00 -0.00000000000E+00 -0.50000000000E+03  0.50000000000E+03  0.00000000000E+00 0.  1.
          5    1    1    2  501    0 -0.21883734749E+03 -0.44388291573E+03 -0.71106135255E+02  0.50000000000E+03  0.47000000000E+01 0. -1.
         -5    1    1    2    0  501  0.21883734749E+03  0.44388291573E+03  0.71106135255E+02  0.50000000000E+03  0.47000000000E+01 0.  1.
</event>
<event>
 4    1  0.4924477E-004  0.1000000E+04  0.7546771E-02  0.8684367E-01
         11   -1    0    0    0    0  0.00000000000E+00  0.00000000000E+00  0.50000000000E+03  0.50000000000E+03  0.00000000000E+00 0. -1.
        -11   -1    0    0    0    0 -0.00000000000E+00 -0.00000000000E+00 -0.50000000000E+03  0.50000000000E+03  0.00000000000E+00 0.  1.
          5    1    1    2  501    0 -0.16364637117E+03  0.27366339235E+03  0.38510533999E+03  0.50000000000E+03  0.47000000000E+01 0. -1.
         -5    1    1    2    0  501  0.16364637117E+03 -0.27366339235E+03 -0.38510533999E+03  0.50000000000E+03  0.47000000000E+01 0.  1.
</event>
<event>
 4    1  0.4924477E-004  0.1000000E+04  0.7546771E-02  0.8684367E-01
         11   -1    0    0    0    0  0.00000000000E+00  0.00000000000E+00  0.50000000000E+03  0.50000000000E+03  0.00000000000E+00 0. -1.
        -11   -1    0    0    0    0 -0.00000000000E+00 -0.00000000000E+00 -0.50000000000E+03  0.50000000000E+03  0.00000000000E+00 0.  1.
          5    1    1    2  501    0  0.22266754588E+03  0.40869503794E+03  0.18266209234E+03  0.50000000000E+03  0.47000000000E+01 0. -1.
         -5    1    1    2    0  501 -0.22266754588E+03 -0.40869503794E+03 -0.18266209234E+03  0.50000000000E+03  0.47000000000E+01 0.  1.
</event>
<event>
 4    1  0.4924477E-004  0.1000000E+04  0.7546771E-02  0.8684367E-01
         11   -1    0    0    0    0  0.00000000000E+00  0.00000000000E+00  0.50000000000E+03  0.50000000000E+03  0.00000000000E+00 0. -1.
        -11   -1    0    0    0    0 -0.00000000000E+00 -0.00000000000E+00 -0.50000000000E+03  0.50000000000E+03  0.00000000000E+00 0.  1.
          5    1    1    2  501    0 -0.37807869167E+03  0.26086328310E+03  0.19744558853E+03  0.50000000000E+03  0.47000000000E+01 0. -1.
         -5    1    1    2    0  501  0.37807869167E+03 -0.26086328310E+03 -0.19744558853E+03  0.50000000000E+03  0.47000000000E+01 0.  1.
</event>
<event>
 4    1  0.4924477E-004  0.1000000E+04  0.7546771E-02  0.8684367E-01
         11   -1    0    0    0    0  0.00000000000E+00  0.00000000000E+00  0.50000000000E+03  0.50000000000E+03  0.00000000000E+00 0.  1.
        -11   -1    0    0    0    0 -0.00000000000E+00 -0.00000000000E+00 -0.50000000000E+03  0.50000000000E+03  0.00000000000E+00 0. -1.
          5    1    1    2  501    0  0.18714336740E+03  0.46111211627E+03  0.48279252953E+02  0.50000000000E+03  0.47000000000E+01 0. -1.
         -5    1    1    2    0  501 -0.18714336740E+03 -0.46111211627E+03 -0.48279252953E+02  0.50000000000E+03  0.47000000000E+01 0.  1.
</event>
<event>
 4    1  0.4924477E-004  0.1000000E+04  0.7546771E-02  0.8684367E-01
         11   -1    0    0    0    0  0.00000000000E+00  0.00000000000E+00  0.50000000000E+03  0.50000000000E+03  0.00000000000E+00 0. -1.
        -11   -1    0    0    0    0 -0.00000000000E+00 -0.00000000000E+00 -0.50000000000E+03  0.50000000000E+03  0.00000000000E+00 0.  1.
          5    1    1    2  501    0  0.60902127571E+02 -0.40559153409E+03 -0.28594465956E+03  0.50000000000E+03  0.47000000000E+01 0. -1.
         -5    1    1    2    0  501 -0.60902127571E+02  0.40559153409E+03  0.28594465956E+03  0.50000000000E+03  0.47000000000E+01 0.  1.
</event>
<event>
 4    1  0.4924477E-004  0.1000000E+04  0.7546771E-02  0.8684367E-01
         11   -1    0    0    0    0  0.00000000000E+00  0.00000000000E+00  0.50000000000E+03  0.50000000000E+03  0.00000000000E+00 0. -1.
        -11   -1    0    0    0    0 -0.00000000000E+00 -0.00000000000E+00 -0.50000000000E+03  0.50000000000E+03  0.00000000000E+00 0.  1.
          5    1    1    2  501    0  0.16383348833E+03 -0.43092142730E+02  0.47040361960E+03  0.50000000000E+03  0.47000000000E+01 0. -1.
         -5    1    1    2    0  501 -0.16383348833E+03  0.43092142730E+02 -0.47040361960E+03  0.50000000000E+03  0.47000000000E+01 0.  1.
</event>
<event>
 4    1  0.4924477E-004  0.1000000E+04  0.7546771E-02  0.8684367E-01
         11   -1    0    0    0    0  0.00000000000E+00  0.00000000000E+00  0.50000000000E+03  0.50000000000E+03  0.00000000000E+00 0. -1.
        -11   -1    0    0    0    0 -0.00000000000E+00 -0.00000000000E+00 -0.50000000000E+03  0.50000000000E+03  0.00000000000E+00 0.  1.
          5    1    1    2  501    0 -0.33322535190E+03 -0.30893112905E+03  0.20856733291E+03  0.50000000000E+03  0.47000000000E+01 0. -1.
         -5    1    1    2    0  501  0.33322535190E+03  0.30893112905E+03 -0.20856733291E+03  0.50000000000E+03  0.47000000000E+01 0.  1.
</event>
<event>
 4    1  0.4924477E-004  0.1000000E+04  0.7546771E-02  0.8684367E-01
         11   -1    0    0    0    0  0.00000000000E+00  0.00000000000E+00  0.50000000000E+03  0.50000000000E+03  0.00000000000E+00 0. -1.
        -11   -1    0    0    0    0 -0.00000000000E+00 -0.00000000000E+00 -0.50000000000E+03  0.50000000000E+03  0.00000000000E+00 0.  1.
          5    1    1    2  501    0  0.86162498481E+02  0.22907818628E+03  0.43597834628E+03  0.50000000000E+03  0.47000000000E+01 0. -1.
         -5    1    1    2    0  501 -0.86162498481E+02 -0.22907818628E+03 -0.43597834628E+03  0.50000000000E+03  0.47000000000E+01 0.  1.
</event>
<event>
 4    1  0.4924477E-004  0.1000000E+04  0.7546771E-02  0.8684367E-01
         11   -1    0    0    0    0  0.00000000000E+00  0.00000000000E+00  0.50000000000E+03  0.50000000000E+03  0.00000000000E+00 0. -1.
        -11   -1    0    0    0    0 -0.00000000000E+00 -0.00000000000E+00 -0.50000000000E+03  0.50000000000E+03  0.00000000000E+00 0.  1.
          5    1    1    2  501    0  0.41152428934E+03  0.18111436842E+01  0.28394081962E+03  0.50000000000E+03  0.47000000000E+01 0. -1.
         -5    1    1    2    0  501 -0.41152428934E+03 -0.18111436842E+01 -0.28394081962E+03  0.50000000000E+03  0.47000000000E+01 0.  1.
</event>
<event>
 4    1  0.4924477E-004  0.1000000E+04  0.7546771E-02  0.8684367E-01
         11   -1    0    0    0    0  0.00000000000E+00  0.00000000000E+00  0.50000000000E+03  0.50000000000E+03  0.00000000000E+00 0. -1.
        -11   -1    0    0    0    0 -0.00000000000E+00 -0.00000000000E+00 -0.50000000000E+03  0.50000000000E+03  0.00000000000E+00 0.  1.
          5    1    1    2  501    0 -0.44248298968E+03 -0.21361954086E+03  0.92484623647E+02  0.50000000000E+03  0.47000000000E+01 0. -1.
         -5    1    1    2    0  501  0.44248298968E+03  0.21361954086E+03 -0.92484623647E+02  0.50000000000E+03  0.47000000000E+01 0.  1.
</event>
<event>
 4    1  0.4924477E-004  0.1000000E+04  0.7546771E-02  0.8684367E-01
         11   -1    0    0    0    0  0.00000000000E+00  0.00000000000E+00  0.50000000000E+03  0.50000000000E+03  0.00000000000E+00 0. -1.
        -11   -1    0    0    0    0 -0.00000000000E+00 -0.00000000000E+00 -0.50000000000E+03  0.50000000000E+03  0.00000000000E+00 0.  1.
          5    1    1    2  501    0  0.48225689538E+02  0.83471633986E+02  0.49059624865E+03  0.50000000000E+03  0.47000000000E+01 0. -1.
         -5    1    1    2    0  501 -0.48225689538E+02 -0.83471633986E+02 -0.49059624865E+03  0.50000000000E+03  0.47000000000E+01 0.  1.
</event>
<event>
 4    1  0.4924477E-004  0.1000000E+04  0.7546771E-02  0.8684367E-01
         11   -1    0    0    0    0  0.00000000000E+00  0.00000000000E+00  0.50000000000E+03  0.50000000000E+03  0.00000000000E+00 0.  1.
        -11   -1    0    0    0    0 -0.00000000000E+00 -0.00000000000E+00 -0.50000000000E+03  0.50000000000E+03  0.00000000000E+00 0. -1.
          5    1    1    2  501    0  0.26013018192E+03 -0.22667883838E+03  0.36183822723E+03  0.50000000000E+03  0.47000000000E+01 0.  1.
         -5    1    1    2    0  501 -0.26013018192E+03  0.22667883838E+03 -0.36183822723E+03  0.50000000000E+03  0.47000000000E+01 0. -1.
</event>
<event>
 4    1  0.4924477E-004  0.1000000E+04  0.7546771E-02  0.8684367E-01
         11   -1    0    0    0    0  0.00000000000E+00  0.00000000000E+00  0.50000000000E+03  0.50000000000E+03  0.00000000000E+00 0. -1.
        -11   -1    0    0    0    0 -0.00000000000E+00 -0.00000000000E+00 -0.50000000000E+03  0.50000000000E+03  0.00000000000E+00 0.  1.
          5    1    1    2  501    0  0.26131766897E+03 -0.25578574924E+03  0.34097600556E+03  0.50000000000E+03  0.47000000000E+01 0. -1.
         -5    1    1    2    0  501 -0.26131766897E+03  0.25578574924E+03 -0.34097600556E+03  0.50000000000E+03  0.47000000000E+01 0.  1.
</event>
<event>
 4    1  0.4924477E-004  0.1000000E+04  0.7546771E-02  0.8684367E-01
         11   -1    0    0    0    0  0.00000000000E+00  0.00000000000E+00  0.50000000000E+03  0.50000000000E+03  0.00000000000E+00 0. -1.
        -11   -1    0    0    0    0 -0.00000000000E+00 -0.00000000000E+00 -0.50000000000E+03  0.50000000000E+03  0.00000000000E+00 0.  1.
          5    1    1    2  501    0  0.21826030844E+03  0.34858361040E+03  0.28430584645E+03  0.50000000000E+03  0.47000000000E+01 0. -1.
         -5    1    1    2    0  501 -0.21826030844E+03 -0.34858361040E+03 -0.28430584645E+03  0.50000000000E+03  0.47000000000E+01 0.  1.
</event>
<event>
 4    1  0.4924477E-004  0.1000000E+04  0.7546771E-02  0.8684367E-01
         11   -1    0    0    0    0  0.00000000000E+00  0.00000000000E+00  0.50000000000E+03  0.50000000000E+03  0.00000000000E+00 0. -1.
        -11   -1    0    0    0    0 -0.00000000000E+00 -0.00000000000E+00 -0.50000000000E+03  0.50000000000E+03  0.00000000000E+00 0.  1.
          5    1    1    2  501    0  0.14538677897E+03  0.18617689034E+03  0.44065719103E+03  0.50000000000E+03  0.47000000000E+01 0. -1.
         -5    1    1    2    0  501 -0.14538677897E+03 -0.18617689034E+03 -0.44065719103E+03  0.50000000000E+03  0.47000000000E+01 0.  1.
</event>
<event>
 4    1  0.4924477E-004  0.1000000E+04  0.7546771E-02  0.8684367E-01
         11   -1    0    0    0    0  0.00000000000E+00  0.00000000000E+00  0.50000000000E+03  0.50000000000E+03  0.00000000000E+00 0. -1.
        -11   -1    0    0    0    0 -0.00000000000E+00 -0.00000000000E+00 -0.50000000000E+03  0.50000000000E+03  0.00000000000E+00 0.  1.
          5    1    1    2  501    0 -0.19172319654E+02  0.40223280521E+03  0.29634288007E+03  0.50000000000E+03  0.47000000000E+01 0. -1.
         -5    1    1    2    0  501  0.19172319654E+02 -0.40223280521E+03 -0.29634288007E+03  0.50000000000E+03  0.47000000000E+01 0.  1.
</event>
<event>
 4    1  0.4924477E-004  0.1000000E+04  0.7546771E-02  0.8684367E-01
         11   -1    0    0    0    0  0.00000000000E+00  0.00000000000E+00  0.50000000000E+03  0.50000000000E+03  0.00000000000E+00 0. -1.
        -11   -1    0    0    0    0 -0.00000000000E+00 -0.00000000000E+00 -0.50000000000E+03  0.50000000000E+03  0.00000000000E+00 0.  1.
          5    1    1    2  501    0  0.92333738766E+02 -0.80284566794E+02  0.48477497772E+03  0.50000000000E+03  0.47000000000E+01 0. -1.
         -5    1    1    2    0  501 -0.92333738766E+02  0.80284566794E+02 -0.48477497772E+03  0.50000000000E+03  0.47000000000E+01 0.  1.
</event>
<event>
 4    1  0.4924477E-004  0.1000000E+04  0.7546771E-02  0.8684367E-01
         11   -1    0    0    0    0  0.00000000000E+00  0.00000000000E+00  0.50000000000E+03  0.50000000000E+03  0.00000000000E+00 0. -1.
        -11   -1    0    0    0    0 -0.00000000000E+00 -0.00000000000E+00 -0.50000000000E+03  0.50000000000E+03  0.00000000000E+00 0.  1.
          5    1    1    2  501    0 -0.23506348343E+03  0.43861010641E+03  0.48417386485E+02  0.50000000000E+03  0.47000000000E+01 0. -1.
         -5    1    1    2    0  501  0.23506348343E+03 -0.43861010641E+03 -0.48417386485E+02  0.50000000000E+03  0.47000000000E+01 0.  1.
</event>
<event>
 4    1  0.4924477E-004  0.1000000E+04  0.7546771E-02  0.8684367E-01
         11   -1    0    0    0    0  0.00000000000E+00  0.00000000000E+00  0.50000000000E+03  0.50000000000E+03  0.00000000000E+00 0. -1.
        -11   -1    0    0    0    0 -0.00000000000E+00 -0.00000000000E+00 -0.50000000000E+03  0.50000000000E+03  0.00000000000E+00 0.  1.
          5    1    1    2  501    0 -0.10316125959E+03  0.42338832385E+03  0.24510812257E+03  0.50000000000E+03  0.47000000000E+01 0. -1.
         -5    1    1    2    0  501  0.10316125959E+03 -0.42338832385E+03 -0.24510812257E+03  0.50000000000E+03  0.47000000000E+01 0.  1.
</event>
<event>
 4    1  0.4924477E-004  0.1000000E+04  0.7546771E-02  0.8684367E-01
         11   -1    0    0    0    0  0.00000000000E+00  0.00000000000E+00  0.50000000000E+03  0.50000000000E+03  0.00000000000E+00 0.  1.
        -11   -1    0    0    0    0 -0.00000000000E+00 -0.00000000000E+00 -0.50000000000E+03  0.50000000000E+03  0.00000000000E+00 0. -1.
          5    1    1    2  501    0 -0.56426602916E+02 -0.94901801103E+02  0.48763469588E+03  0.50000000000E+03  0.47000000000E+01 0.  1.
         -5    1    1    2    0  501  0.56426602916E+02  0.94901801103E+02 -0.48763469588E+03  0.50000000000E+03  0.47000000000E+01 0. -1.
</event>
<event>
 4    1  0.4924477E-004  0.1000000E+04  0.7546771E-02  0.8684367E-01
         11   -1    0    0    0    0  0.00000000000E+00  0.00000000000E+00  0.50000000000E+03  0.50000000000E+03  0.00000000000E+00 0. -1.
        -11   -1    0    0    0    0 -0.00000000000E+00 -0.00000000000E+00 -0.50000000000E+03  0.50000000000E+03  0.00000000000E+00 0.  1.
          5    1    1    2  501    0 -0.25148326873E+03  0.97677383947E+02  0.42094323158E+03  0.50000000000E+03  0.47000000000E+01 0. -1.
         -5    1    1    2    0  501  0.25148326873E+03 -0.97677383947E+02 -0.42094323158E+03  0.50000000000E+03  0.47000000000E+01 0.  1.
</event>
<event>
 4    1  0.4924477E-004  0.1000000E+04  0.7546771E-02  0.8684367E-01
         11   -1    0    0    0    0  0.00000000000E+00  0.00000000000E+00  0.50000000000E+03  0.50000000000E+03  0.00000000000E+00 0. -1.
        -11   -1    0    0    0    0 -0.00000000000E+00 -0.00000000000E+00 -0.50000000000E+03  0.50000000000E+03  0.00000000000E+00 0.  1.
          5    1    1    2  501    0 -0.25369833662E+03 -0.41259171616E+03  0.12402878598E+03  0.50000000000E+03  0.47000000000E+01 0. -1.
         -5    1    1    2    0  501  0.25369833662E+03  0.41259171616E+03 -0.12402878598E+03  0.50000000000E+03  0.47000000000E+01 0.  1.
</event>
<event>
 4    1  0.4924477E-004  0.1000000E+04  0.7546771E-02  0.8684367E-01
         11   -1    0    0    0    0  0.00000000000E+00  0.00000000000E+00  0.50000000000E+03  0.50000000000E+03  0.00000000000E+00 0. -1.
        -11   -1    0    0    0    0 -0.00000000000E+00 -0.00000000000E+00 -0.50000000000E+03  0.50000000000E+03  0.00000000000E+00 0.  1.
          5    1    1    2  501    0 -0.16090302936E+03 -0.69427305894E+02  0.46826058380E+03  0.50000000000E+03  0.47000000000E+01 0. -1.
         -5    1    1    2    0  501  0.16090302936E+03  0.69427305894E+02 -0.46826058380E+03  0.50000000000E+03  0.47000000000E+01 0.  1.
</event>
<event>
 4    1  0.4924477E-004  0.1000000E+04  0.7546771E-02  0.8684367E-01
         11   -1    0    0    0    0  0.00000000000E+00  0.00000000000E+00  0.50000000000E+03  0.50000000000E+03  0.00000000000E+00 0. -1.
        -11   -1    0    0    0    0 -0.00000000000E+00 -0.00000000000E+00 -0.50000000000E+03  0.50000000000E+03  0.00000000000E+00 0.  1.
          5    1    1    2  501    0  0.16271223959E+03 -0.18131616151E+03  0.43660861955E+03  0.50000000000E+03  0.47000000000E+01 0. -1.
         -5    1    1    2    0  501 -0.16271223959E+03  0.18131616151E+03 -0.43660861955E+03  0.50000000000E+03  0.47000000000E+01 0.  1.
</event>
<event>
 4    1  0.4924477E-004  0.1000000E+04  0.7546771E-02  0.8684367E-01
         11   -1    0    0    0    0  0.00000000000E+00  0.00000000000E+00  0.50000000000E+03  0.50000000000E+03  0.00000000000E+00 0. -1.
        -11   -1    0    0    0    0 -0.00000000000E+00 -0.00000000000E+00 -0.50000000000E+03  0.50000000000E+03  0.00000000000E+00 0.  1.
          5    1    1    2  501    0 -0.19622118895E+03  0.34765817116E+03  0.30101320741E+03  0.50000000000E+03  0.47000000000E+01 0. -1.
         -5    1    1    2    0  501  0.19622118895E+03 -0.34765817116E+03 -0.30101320741E+03  0.50000000000E+03  0.47000000000E+01 0.  1.
</event>
<event>
 4    1  0.4924477E-004  0.1000000E+04  0.7546771E-02  0.8684367E-01
         11   -1    0    0    0    0  0.00000000000E+00  0.00000000000E+00  0.50000000000E+03  0.50000000000E+03  0.00000000000E+00 0. -1.
        -11   -1    0    0    0    0 -0.00000000000E+00 -0.00000000000E+00 -0.50000000000E+03  0.50000000000E+03  0.00000000000E+00 0.  1.
          5    1    1    2  501    0  0.29708215252E+01  0.17910132145E+03  0.46678881828E+03  0.50000000000E+03  0.47000000000E+01 0. -1.
         -5    1    1    2    0  501 -0.29708215252E+01 -0.17910132145E+03 -0.46678881828E+03  0.50000000000E+03  0.47000000000E+01 0.  1.
</event>
<event>
 4    1  0.4924477E-004  0.1000000E+04  0.7546771E-02  0.8684367E-01
         11   -1    0    0    0    0  0.00000000000E+00  0.00000000000E+00  0.50000000000E+03  0.50000000000E+03  0.00000000000E+00 0.  1.
        -11   -1    0    0    0    0 -0.00000000000E+00 -0.00000000000E+00 -0.50000000000E+03  0.50000000000E+03  0.00000000000E+00 0. -1.
          5    1    1    2  501    0  0.31737657666E+03  0.33790201173E+03  0.18727586353E+03  0.50000000000E+03  0.47000000000E+01 0.  1.
         -5    1    1    2    0  501 -0.31737657666E+03 -0.33790201173E+03 -0.18727586353E+03  0.50000000000E+03  0.47000000000E+01 0. -1.
</event>
<event>
 4    1  0.4924477E-004  0.1000000E+04  0.7546771E-02  0.8684367E-01
         11   -1    0    0    0    0  0.00000000000E+00  0.00000000000E+00  0.50000000000E+03  0.50000000000E+03  0.00000000000E+00 0. -1.
        -11   -1    0    0    0    0 -0.00000000000E+00 -0.00000000000E+00 -0.50000000000E+03  0.50000000000E+03  0.00000000000E+00 0.  1.
          5    1    1    2  501    0 -0.31533894912E+03  0.38446881305E+03 -0.52182266734E+02  0.50000000000E+03  0.47000000000E+01 0. -1.
         -5    1    1    2    0  501  0.31533894912E+03 -0.38446881305E+03  0.52182266734E+02  0.50000000000E+03  0.47000000000E+01 0.  1.
</event>
<event>
 4    1  0.4924477E-004  0.1000000E+04  0.7546771E-02  0.8684367E-01
         11   -1    0    0    0    0  0.00000000000E+00  0.00000000000E+00  0.50000000000E+03  0.50000000000E+03  0.00000000000E+00 0. -1.
        -11   -1    0    0    0    0 -0.00000000000E+00 -0.00000000000E+00 -0.50000000000E+03  0.50000000000E+03  0.00000000000E+00 0.  1.
          5    1    1    2  501    0 -0.38384995979E+03  0.19826985076E+03  0.25164694444E+03  0.50000000000E+03  0.47000000000E+01 0. -1.
         -5    1    1    2    0  501  0.38384995979E+03 -0.19826985076E+03 -0.25164694444E+03  0.50000000000E+03  0.47000000000E+01 0.  1.
</event>
<event>
 4    1  0.4924477E-004  0.1000000E+04  0.7546771E-02  0.8684367E-01
         11   -1    0    0    0    0  0.00000000000E+00  0.00000000000E+00  0.50000000000E+03  0.50000000000E+03  0.00000000000E+00 0. -1.
        -11   -1    0    0    0    0 -0.00000000000E+00 -0.00000000000E+00 -0.50000000000E+03  0.50000000000E+03  0.00000000000E+00 0.  1.
          5    1    1    2  501    0  0.75852544277E+02 -0.46658168056E+03  0.16286754401E+03  0.50000000000E+03  0.47000000000E+01 0. -1.
         -5    1    1    2    0  501 -0.75852544277E+02  0.46658168056E+03 -0.16286754401E+03  0.50000000000E+03  0.47000000000E+01 0.  1.
</event>
<event>
 4    1  0.4924477E-004  0.1000000E+04  0.7546771E-02  0.8684367E-01
         11   -1    0    0    0    0  0.00000000000E+00  0.00000000000E+00  0.50000000000E+03  0.50000000000E+03  0.00000000000E+00 0. -1.
        -11   -1    0    0    0    0 -0.00000000000E+00 -0.00000000000E+00 -0.50000000000E+03  0.50000000000E+03  0.00000000000E+00 0.  1.
          5    1    1    2  501    0  0.70674599999E+02 -0.12546686313E+01  0.49495599473E+03  0.50000000000E+03  0.47000000000E+01 0. -1.
         -5    1    1    2    0  501 -0.70674599999E+02  0.12546686313E+01 -0.49495599473E+03  0.50000000000E+03  0.47000000000E+01 0.  1.
</event>
<event>
 4    1  0.4924477E-004  0.1000000E+04  0.7546771E-02  0.8684367E-01
         11   -1    0    0    0    0  0.00000000000E+00  0.00000000000E+00  0.50000000000E+03  0.50000000000E+03  0.00000000000E+00 0. -1.
        -11   -1    0    0    0    0 -0.00000000000E+00 -0.00000000000E+00 -0.50000000000E+03  0.50000000000E+03  0.00000000000E+00 0.  1.
          5    1    1    2  501    0 -0.19192080315E+03  0.35009970340E+03  0.30095599844E+03  0.50000000000E+03  0.47000000000E+01 0. -1.
         -5    1    1    2    0  501  0.19192080315E+03 -0.35009970340E+03 -0.30095599844E+03  0.50000000000E+03  0.47000000000E+01 0.  1.
</event>
<event>
 4    1  0.4924477E-004  0.1000000E+04  0.7546771E-02  0.8684367E-01
         11   -1    0    0    0    0  0.00000000000E+00  0.00000000000E+00  0.50000000000E+03  0.50000000000E+03  0.00000000000E+00 0. -1.
        -11   -1    0    0    0    0 -0.00000000000E+00 -0.00000000000E+00 -0.50000000000E+03  0.50000000000E+03  0.00000000000E+00 0.  1.
          5    1    1    2  501    0  0.64203147059E+01  0.29898832740E+03  0.40067776285E+03  0.50000000000E+03  0.47000000000E+01 0. -1.
         -5    1    1    2    0  501 -0.64203147059E+01 -0.29898832740E+03 -0.40067776285E+03  0.50000000000E+03  0.47000000000E+01 0.  1.
</event>
<event>
 4    1  0.4924477E-004  0.1000000E+04  0.7546771E-02  0.8684367E-01
         11   -1    0    0    0    0  0.00000000000E+00  0.00000000000E+00  0.50000000000E+03  0.50000000000E+03  0.00000000000E+00 0. -1.
        -11   -1    0    0    0    0 -0.00000000000E+00 -0.00000000000E+00 -0.50000000000E+03  0.50000000000E+03  0.00000000000E+00 0.  1.
          5    1    1    2  501    0  0.42842688751E+03  0.11275571705E+03  0.23176380290E+03  0.50000000000E+03  0.47000000000E+01 0. -1.
         -5    1    1    2    0  501 -0.42842688751E+03 -0.11275571705E+03 -0.23176380290E+03  0.50000000000E+03  0.47000000000E+01 0.  1.
</event>
<event>
 4    1  0.4924477E-004  0.1000000E+04  0.7546771E-02  0.8684367E-01
         11   -1    0    0    0    0  0.00000000000E+00  0.00000000000E+00  0.50000000000E+03  0.50000000000E+03  0.00000000000E+00 0. -1.
        -11   -1    0    0    0    0 -0.00000000000E+00 -0.00000000000E+00 -0.50000000000E+03  0.50000000000E+03  0.00000000000E+00 0.  1.
          5    1    1    2  501    0 -0.48956450959E+02  0.19721160802E+03  0.45682464641E+03  0.50000000000E+03  0.47000000000E+01 0. -1.
         -5    1    1    2    0  501  0.48956450959E+02 -0.19721160802E+03 -0.45682464641E+03  0.50000000000E+03  0.47000000000E+01 0.  1.
</event>
<event>
 4    1  0.4924477E-004  0.1000000E+04  0.7546771E-02  0.8684367E-01
         11   -1    0    0    0    0  0.00000000000E+00  0.00000000000E+00  0.50000000000E+03  0.50000000000E+03  0.00000000000E+00 0. -1.
        -11   -1    0    0    0    0 -0.00000000000E+00 -0.00000000000E+00 -0.50000000000E+03  0.50000000000E+03  0.00000000000E+00 0.  1.
          5    1    1    2  501    0 -0.49811878649E+03 -0.37138160338E+02  0.21825251329E+02  0.50000000000E+03  0.47000000000E+01 0. -1.
         -5    1    1    2    0  501  0.49811878649E+03  0.37138160338E+02 -0.21825251329E+02  0.50000000000E+03  0.47000000000E+01 0.  1.
</event>
<event>
 4    1  0.4924477E-004  0.1000000E+04  0.7546771E-02  0.8684367E-01
         11   -1    0    0    0    0  0.00000000000E+00  0.00000000000E+00  0.50000000000E+03  0.50000000000E+03  0.00000000000E+00 0. -1.
        -11   -1    0    0    0    0 -0.00000000000E+00 -0.00000000000E+00 -0.50000000000E+03  0.50000000000E+03  0.00000000000E+00 0.  1.
          5    1    1    2  501    0 -0.17457493710E+03  0.36808007816E+03  0.28985954771E+03  0.50000000000E+03  0.47000000000E+01 0. -1.
         -5    1    1    2    0  501  0.17457493710E+03 -0.36808007816E+03 -0.28985954771E+03  0.50000000000E+03  0.47000000000E+01 0.  1.
</event>
<event>
 4    1  0.4924477E-004  0.1000000E+04  0.7546771E-02  0.8684367E-01
         11   -1    0    0    0    0  0.00000000000E+00  0.00000000000E+00  0.50000000000E+03  0.50000000000E+03  0.00000000000E+00 0. -1.
        -11   -1    0    0    0    0 -0.00000000000E+00 -0.00000000000E+00 -0.50000000000E+03  0.50000000000E+03  0.00000000000E+00 0.  1.
          5    1    1    2  501    0 -0.17085427443E+03 -0.12791929839E+03  0.45213203824E+03  0.50000000000E+03  0.47000000000E+01 0. -1.
         -5    1    1    2    0  501  0.17085427443E+03  0.12791929839E+03 -0.45213203824E+03  0.50000000000E+03  0.47000000000E+01 0.  1.
</event>
<event>
 4    1  0.4924477E-004  0.1000000E+04  0.7546771E-02  0.8684367E-01
         11   -1    0    0    0    0  0.00000000000E+00  0.00000000000E+00  0.50000000000E+03  0.50000000000E+03  0.00000000000E+00 0. -1.
        -11   -1    0    0    0    0 -0.00000000000E+00 -0.00000000000E+00 -0.50000000000E+03  0.50000000000E+03  0.00000000000E+00 0.  1.
          5    1    1    2  501    0 -0.20760947791E+03  0.45006840502E+03  0.65685961083E+02  0.50000000000E+03  0.47000000000E+01 0. -1.
         -5    1    1    2    0  501  0.20760947791E+03 -0.45006840502E+03 -0.65685961083E+02  0.50000000000E+03  0.47000000000E+01 0.  1.
</event>
<event>
 4    1  0.4924477E-004  0.1000000E+04  0.7546771E-02  0.8684367E-01
         11   -1    0    0    0    0  0.00000000000E+00  0.00000000000E+00  0.50000000000E+03  0.50000000000E+03  0.00000000000E+00 0. -1.
        -11   -1    0    0    0    0 -0.00000000000E+00 -0.00000000000E+00 -0.50000000000E+03  0.50000000000E+03  0.00000000000E+00 0.  1.
          5    1    1    2  501    0  0.37894906467E+03 -0.21546961980E+03  0.24484354051E+03  0.50000000000E+03  0.47000000000E+01 0. -1.
         -5    1    1    2    0  501 -0.37894906467E+03  0.21546961980E+03 -0.24484354051E+03  0.50000000000E+03  0.47000000000E+01 0.  1.
</event>
<event>
 4    1  0.4924477E-004  0.1000000E+04  0.7546771E-02  0.8684367E-01
         11   -1    0    0    0    0  0.00000000000E+00  0.00000000000E+00  0.50000000000E+03  0.50000000000E+03  0.00000000000E+00 0. -1.
        -11   -1    0    0    0    0 -0.00000000000E+00 -0.00000000000E+00 -0.50000000000E+03  0.50000000000E+03  0.00000000000E+00 0.  1.
          5    1    1    2  501    0 -0.29427745504E+03 -0.64458081749E+02  0.39902862699E+03  0.50000000000E+03  0.47000000000E+01 0. -1.
         -5    1    1    2    0  501  0.29427745504E+03  0.64458081749E+02 -0.39902862699E+03  0.50000000000E+03  0.47000000000E+01 0.  1.
</event>
<event>
 4    1  0.4924477E-004  0.1000000E+04  0.7546771E-02  0.8684367E-01
         11   -1    0    0    0    0  0.00000000000E+00  0.00000000000E+00  0.50000000000E+03  0.50000000000E+03  0.00000000000E+00 0. -1.
        -11   -1    0    0    0    0 -0.00000000000E+00 -0.00000000000E+00 -0.50000000000E+03  0.50000000000E+03  0.00000000000E+00 0.  1.
          5    1    1    2  501    0 -0.49761998690E+02 -0.47598326605E+03 -0.14471207251E+03  0.50000000000E+03  0.47000000000E+01 0. -1.
         -5    1    1    2    0  501  0.49761998690E+02  0.47598326605E+03  0.14471207251E+03  0.50000000000E+03  0.47000000000E+01 0.  1.
</event>
<event>
 4    1  0.4924477E-004  0.1000000E+04  0.7546771E-02  0.8684367E-01
         11   -1    0    0    0    0  0.00000000000E+00  0.00000000000E+00  0.50000000000E+03  0.50000000000E+03  0.00000000000E+00 0. -1.
        -11   -1    0    0    0    0 -0.00000000000E+00 -0.00000000000E+00 -0.50000000000E+03  0.50000000000E+03  0.00000000000E+00 0.  1.
          5    1    1    2  501    0  0.27123319520E+02  0.36123113922E+02  0.49793308404E+03  0.50000000000E+03  0.47000000000E+01 0. -1.
         -5    1    1    2    0  501 -0.27123319520E+02 -0.36123113922E+02 -0.49793308404E+03  0.50000000000E+03  0.47000000000E+01 0.  1.
</event>
<event>
 4    1  0.4924477E-004  0.1000000E+04  0.7546771E-02  0.8684367E-01
         11   -1    0    0    0    0  0.00000000000E+00  0.00000000000E+00  0.50000000000E+03  0.50000000000E+03  0.00000000000E+00 0. -1.
        -11   -1    0    0    0    0 -0.00000000000E+00 -0.00000000000E+00 -0.50000000000E+03  0.50000000000E+03  0.00000000000E+00 0.  1.
          5    1    1    2  501    0  0.23838418513E+03  0.40446394124E+03  0.17192966736E+03  0.50000000000E+03  0.47000000000E+01 0. -1.
         -5    1    1    2    0  501 -0.23838418513E+03 -0.40446394124E+03 -0.17192966736E+03  0.50000000000E+03  0.47000000000E+01 0.  1.
</event>
<event>
 4    1  0.4924477E-004  0.1000000E+04  0.7546771E-02  0.8684367E-01
         11   -1    0    0    0    0  0.00000000000E+00  0.00000000000E+00  0.50000000000E+03  0.50000000000E+03  0.00000000000E+00 0. -1.
        -11   -1    0    0    0    0 -0.00000000000E+00 -0.00000000000E+00 -0.50000000000E+03  0.50000000000E+03  0.00000000000E+00 0.  1.
          5    1    1    2  501    0  0.10900970256E+03 -0.24615068823E+03  0.42131298749E+03  0.50000000000E+03  0.47000000000E+01 0. -1.
         -5    1    1    2    0  501 -0.10900970256E+03  0.24615068823E+03 -0.42131298749E+03  0.50000000000E+03  0.47000000000E+01 0.  1.
</event>
<event>
 4    1  0.4924477E-004  0.1000000E+04  0.7546771E-02  0.8684367E-01
         11   -1    0    0    0    0  0.00000000000E+00  0.00000000000E+00  0.50000000000E+03  0.50000000000E+03  0.00000000000E+00 0. -1.
        -11   -1    0    0    0    0 -0.00000000000E+00 -0.00000000000E+00 -0.50000000000E+03  0.50000000000E+03  0.00000000000E+00 0.  1.
          5    1    1    2  501    0  0.32380548952E+03  0.22249517024E+02  0.38030628965E+03  0.50000000000E+03  0.47000000000E+01 0. -1.
         -5    1    1    2    0  501 -0.32380548952E+03 -0.22249517024E+02 -0.38030628965E+03  0.50000000000E+03  0.47000000000E+01 0.  1.
</event>
<event>
 4    1  0.4924477E-004  0.1000000E+04  0.7546771E-02  0.8684367E-01
         11   -1    0    0    0    0  0.00000000000E+00  0.00000000000E+00  0.50000000000E+03  0.50000000000E+03  0.00000000000E+00 0.  1.
        -11   -1    0    0    0    0 -0.00000000000E+00 -0.00000000000E+00 -0.50000000000E+03  0.50000000000E+03  0.00000000000E+00 0. -1.
          5    1    1    2  501    0 -0.23572398824E+03  0.41037229032E+03 -0.16126591305E+03  0.50000000000E+03  0.47000000000E+01 0.  1.
         -5    1    1    2    0  501  0.23572398824E+03 -0.41037229032E+03  0.16126591305E+03  0.50000000000E+03  0.47000000000E+01 0. -1.
</event>
<event>
 4    1  0.4924477E-004  0.1000000E+04  0.7546771E-02  0.8684367E-01
         11   -1    0    0    0    0  0.00000000000E+00  0.00000000000E+00  0.50000000000E+03  0.50000000000E+03  0.00000000000E+00 0. -1.
        -11   -1    0    0    0    0 -0.00000000000E+00 -0.00000000000E+00 -0.50000000000E+03  0.50000000000E+03  0.00000000000E+00 0.  1.
          5    1    1    2  501    0  0.50928558061E+02 -0.49095824612E+03  0.79650439675E+02  0.50000000000E+03  0.47000000000E+01 0. -1.
         -5    1    1    2    0  501 -0.50928558061E+02  0.49095824612E+03 -0.79650439675E+02  0.50000000000E+03  0.47000000000E+01 0.  1.
</event>
<event>
 4    1  0.4924477E-004  0.1000000E+04  0.7546771E-02  0.8684367E-01
         11   -1    0    0    0    0  0.00000000000E+00  0.00000000000E+00  0.50000000000E+03  0.50000000000E+03  0.00000000000E+00 0. -1.
        -11   -1    0    0    0    0 -0.00000000000E+00 -0.00000000000E+00 -0.50000000000E+03  0.50000000000E+03  0.00000000000E+00 0.  1.
          5    1    1    2  501    0 -0.41717972335E+02 -0.48291623080E+03 -0.12259459538E+03  0.50000000000E+03  0.47000000000E+01 0. -1.
         -5    1    1    2    0  501  0.41717972335E+02  0.48291623080E+03  0.12259459538E+03  0.50000000000E+03  0.47000000000E+01 0.  1.
</event>
<event>
 4    1  0.4924477E-004  0.1000000E+04  0.7546771E-02  0.8684367E-01
         11   -1    0    0    0    0  0.00000000000E+00  0.00000000000E+00  0.50000000000E+03  0.50000000000E+03  0.00000000000E+00 0. -1.
        -11   -1    0    0    0    0 -0.00000000000E+00 -0.00000000000E+00 -0.50000000000E+03  0.50000000000E+03  0.00000000000E+00 0.  1.
          5    1    1    2  501    0 -0.38651091420E+03 -0.27650011225E+03  0.15535414745E+03  0.50000000000E+03  0.47000000000E+01 0. -1.
         -5    1    1    2    0  501  0.38651091420E+03  0.27650011225E+03 -0.15535414745E+03  0.50000000000E+03  0.47000000000E+01 0.  1.
</event>
<event>
 4    1  0.4924477E-004  0.1000000E+04  0.7546771E-02  0.8684367E-01
         11   -1    0    0    0    0  0.00000000000E+00  0.00000000000E+00  0.50000000000E+03  0.50000000000E+03  0.00000000000E+00 0. -1.
        -11   -1    0    0    0    0 -0.00000000000E+00 -0.00000000000E+00 -0.50000000000E+03  0.50000000000E+03  0.00000000000E+00 0.  1.
          5    1    1    2  501    0  0.38393136282E+03 -0.18212619038E+03  0.26344765974E+03  0.50000000000E+03  0.47000000000E+01 0. -1.
         -5    1    1    2    0  501 -0.38393136282E+03  0.18212619038E+03 -0.26344765974E+03  0.50000000000E+03  0.47000000000E+01 0.  1.
</event>
<event>
 4    1  0.4924477E-004  0.1000000E+04  0.7546771E-02  0.8684367E-01
         11   -1    0    0    0    0  0.00000000000E+00  0.00000000000E+00  0.50000000000E+03  0.50000000000E+03  0.00000000000E+00 0.  1.
        -11   -1    0    0    0    0 -0.00000000000E+00 -0.00000000000E+00 -0.50000000000E+03  0.50000000000E+03  0.00000000000E+00 0. -1.
          5    1    1    2  501    0  0.47322419012E+03 -0.41464587516E+02 -0.15594057799E+03  0.50000000000E+03  0.47000000000E+01 0.  1.
         -5    1    1    2    0  501 -0.47322419012E+03  0.41464587516E+02  0.15594057799E+03  0.50000000000E+03  0.47000000000E+01 0. -1.
</event>
<event>
 4    1  0.4924477E-004  0.1000000E+04  0.7546771E-02  0.8684367E-01
         11   -1    0    0    0    0  0.00000000000E+00  0.00000000000E+00  0.50000000000E+03  0.50000000000E+03  0.00000000000E+00 0.  1.
        -11   -1    0    0    0    0 -0.00000000000E+00 -0.00000000000E+00 -0.50000000000E+03  0.50000000000E+03  0.00000000000E+00 0. -1.
          5    1    1    2  501    0  0.13926677546E+03  0.44156729501E+03  0.18868227057E+03  0.50000000000E+03  0.47000000000E+01 0.  1.
         -5    1    1    2    0  501 -0.13926677546E+03 -0.44156729501E+03 -0.18868227057E+03  0.50000000000E+03  0.47000000000E+01 0. -1.
</event>
<event>
 4    1  0.4924477E-004  0.1000000E+04  0.7546771E-02  0.8684367E-01
         11   -1    0    0    0    0  0.00000000000E+00  0.00000000000E+00  0.50000000000E+03  0.50000000000E+03  0.00000000000E+00 0. -1.
        -11   -1    0    0    0    0 -0.00000000000E+00 -0.00000000000E+00 -0.50000000000E+03  0.50000000000E+03  0.00000000000E+00 0.  1.
          5    1    1    2  501    0 -0.46616575351E+03  0.14728137272E+03 -0.10476448588E+03  0.50000000000E+03  0.47000000000E+01 0. -1.
         -5    1    1    2    0  501  0.46616575351E+03 -0.14728137272E+03  0.10476448588E+03  0.50000000000E+03  0.47000000000E+01 0.  1.
</event>
<event>
 4    1  0.4924477E-004  0.1000000E+04  0.7546771E-02  0.8684367E-01
         11   -1    0    0    0    0  0.00000000000E+00  0.00000000000E+00  0.50000000000E+03  0.50000000000E+03  0.00000000000E+00 0. -1.
        -11   -1    0    0    0    0 -0.00000000000E+00 -0.00000000000E+00 -0.50000000000E+03  0.50000000000E+03  0.00000000000E+00 0.  1.
          5    1    1    2  501    0  0.27080630745E+03 -0.18820505418E+03  0.37579344250E+03  0.50000000000E+03  0.47000000000E+01 0. -1.
         -5    1    1    2    0  501 -0.27080630745E+03  0.18820505418E+03 -0.37579344250E+03  0.50000000000E+03  0.47000000000E+01 0.  1.
</event>
<event>
 4    1  0.4924477E-004  0.1000000E+04  0.7546771E-02  0.8684367E-01
         11   -1    0    0    0    0  0.00000000000E+00  0.00000000000E+00  0.50000000000E+03  0.50000000000E+03  0.00000000000E+00 0.  1.
        -11   -1    0    0    0    0 -0.00000000000E+00 -0.00000000000E+00 -0.50000000000E+03  0.50000000000E+03  0.00000000000E+00 0. -1.
          5    1    1    2  501    0  0.31817439585E+03 -0.38156537992E+03  0.56132207085E+02  0.50000000000E+03  0.47000000000E+01 0. -1.
         -5    1    1    2    0  501 -0.31817439585E+03  0.38156537992E+03 -0.56132207085E+02  0.50000000000E+03  0.47000000000E+01 0.  1.
</event>
<event>
 4    1  0.4924477E-004  0.1000000E+04  0.7546771E-02  0.8684367E-01
         11   -1    0    0    0    0  0.00000000000E+00  0.00000000000E+00  0.50000000000E+03  0.50000000000E+03  0.00000000000E+00 0. -1.
        -11   -1    0    0    0    0 -0.00000000000E+00 -0.00000000000E+00 -0.50000000000E+03  0.50000000000E+03  0.00000000000E+00 0.  1.
          5    1    1    2  501    0 -0.16370372851E+03 -0.15847136651E+03  0.44504586872E+03  0.50000000000E+03  0.47000000000E+01 0. -1.
         -5    1    1    2    0  501  0.16370372851E+03  0.15847136651E+03 -0.44504586872E+03  0.50000000000E+03  0.47000000000E+01 0.  1.
</event>
<event>
 4    1  0.4924477E-004  0.1000000E+04  0.7546771E-02  0.8684367E-01
         11   -1    0    0    0    0  0.00000000000E+00  0.00000000000E+00  0.50000000000E+03  0.50000000000E+03  0.00000000000E+00 0. -1.
        -11   -1    0    0    0    0 -0.00000000000E+00 -0.00000000000E+00 -0.50000000000E+03  0.50000000000E+03  0.00000000000E+00 0.  1.
          5    1    1    2  501    0  0.40168665162E+03 -0.56206679135E+02  0.29234663181E+03  0.50000000000E+03  0.47000000000E+01 0. -1.
         -5    1    1    2    0  501 -0.40168665162E+03  0.56206679135E+02 -0.29234663181E+03  0.50000000000E+03  0.47000000000E+01 0.  1.
</event>
<event>
 4    1  0.4924477E-004  0.1000000E+04  0.7546771E-02  0.8684367E-01
         11   -1    0    0    0    0  0.00000000000E+00  0.00000000000E+00  0.50000000000E+03  0.50000000000E+03  0.00000000000E+00 0. -1.
        -11   -1    0    0    0    0 -0.00000000000E+00 -0.00000000000E+00 -0.50000000000E+03  0.50000000000E+03  0.00000000000E+00 0.  1.
          5    1    1    2  501    0 -0.31521272733E+03 -0.67838170545E+02  0.38212148480E+03  0.50000000000E+03  0.47000000000E+01 0. -1.
         -5    1    1    2    0  501  0.31521272733E+03  0.67838170545E+02 -0.38212148480E+03  0.50000000000E+03  0.47000000000E+01 0.  1.
</event>
<event>
 4    1  0.4924477E-004  0.1000000E+04  0.7546771E-02  0.8684367E-01
         11   -1    0    0    0    0  0.00000000000E+00  0.00000000000E+00  0.50000000000E+03  0.50000000000E+03  0.00000000000E+00 0. -1.
        -11   -1    0    0    0    0 -0.00000000000E+00 -0.00000000000E+00 -0.50000000000E+03  0.50000000000E+03  0.00000000000E+00 0.  1.
          5    1    1    2  501    0  0.36984445245E+03  0.54095477802E+02  0.33206425625E+03  0.50000000000E+03  0.47000000000E+01 0. -1.
         -5    1    1    2    0  501 -0.36984445245E+03 -0.54095477802E+02 -0.33206425625E+03  0.50000000000E+03  0.47000000000E+01 0.  1.
</event>
<event>
 4    1  0.4924477E-004  0.1000000E+04  0.7546771E-02  0.8684367E-01
         11   -1    0    0    0    0  0.00000000000E+00  0.00000000000E+00  0.50000000000E+03  0.50000000000E+03  0.00000000000E+00 0. -1.
        -11   -1    0    0    0    0 -0.00000000000E+00 -0.00000000000E+00 -0.50000000000E+03  0.50000000000E+03  0.00000000000E+00 0.  1.
          5    1    1    2  501    0  0.31622105056E+02 -0.21618844615E+03  0.44971158338E+03  0.50000000000E+03  0.47000000000E+01 0. -1.
         -5    1    1    2    0  501 -0.31622105056E+02  0.21618844615E+03 -0.44971158338E+03  0.50000000000E+03  0.47000000000E+01 0.  1.
</event>
<event>
 4    1  0.4924477E-004  0.1000000E+04  0.7546771E-02  0.8684367E-01
         11   -1    0    0    0    0  0.00000000000E+00  0.00000000000E+00  0.50000000000E+03  0.50000000000E+03  0.00000000000E+00 0. -1.
        -11   -1    0    0    0    0 -0.00000000000E+00 -0.00000000000E+00 -0.50000000000E+03  0.50000000000E+03  0.00000000000E+00 0.  1.
          5    1    1    2  501    0 -0.18833551931E+03 -0.19282898128E+03  0.42109930675E+03  0.50000000000E+03  0.47000000000E+01 0. -1.
         -5    1    1    2    0  501  0.18833551931E+03  0.19282898128E+03 -0.42109930675E+03  0.50000000000E+03  0.47000000000E+01 0.  1.
</event>
<event>
 4    1  0.4924477E-004  0.1000000E+04  0.7546771E-02  0.8684367E-01
         11   -1    0    0    0    0  0.00000000000E+00  0.00000000000E+00  0.50000000000E+03  0.50000000000E+03  0.00000000000E+00 0. -1.
        -11   -1    0    0    0    0 -0.00000000000E+00 -0.00000000000E+00 -0.50000000000E+03  0.50000000000E+03  0.00000000000E+00 0.  1.
          5    1    1    2  501    0 -0.13156866371E+03 -0.12629954124E+03  0.46552768190E+03  0.50000000000E+03  0.47000000000E+01 0. -1.
         -5    1    1    2    0  501  0.13156866371E+03  0.12629954124E+03 -0.46552768190E+03  0.50000000000E+03  0.47000000000E+01 0.  1.
</event>
<event>
 4    1  0.4924477E-004  0.1000000E+04  0.7546771E-02  0.8684367E-01
         11   -1    0    0    0    0  0.00000000000E+00  0.00000000000E+00  0.50000000000E+03  0.50000000000E+03  0.00000000000E+00 0. -1.
        -11   -1    0    0    0    0 -0.00000000000E+00 -0.00000000000E+00 -0.50000000000E+03  0.50000000000E+03  0.00000000000E+00 0.  1.
          5    1    1    2  501    0  0.71078959415E+02  0.24547798549E+02  0.49429049871E+03  0.50000000000E+03  0.47000000000E+01 0. -1.
         -5    1    1    2    0  501 -0.71078959415E+02 -0.24547798549E+02 -0.49429049871E+03  0.50000000000E+03  0.47000000000E+01 0.  1.
</event>
<event>
 4    1  0.4924477E-004  0.1000000E+04  0.7546771E-02  0.8684367E-01
         11   -1    0    0    0    0  0.00000000000E+00  0.00000000000E+00  0.50000000000E+03  0.50000000000E+03  0.00000000000E+00 0.  1.
        -11   -1    0    0    0    0 -0.00000000000E+00 -0.00000000000E+00 -0.50000000000E+03  0.50000000000E+03  0.00000000000E+00 0. -1.
          5    1    1    2  501    0 -0.10618545698E+03 -0.23752492483E+03  0.42694785256E+03  0.50000000000E+03  0.47000000000E+01 0.  1.
         -5    1    1    2    0  501  0.10618545698E+03  0.23752492483E+03 -0.42694785256E+03  0.50000000000E+03  0.47000000000E+01 0. -1.
</event>
<event>
 4    1  0.4924477E-004  0.1000000E+04  0.7546771E-02  0.8684367E-01
         11   -1    0    0    0    0  0.00000000000E+00  0.00000000000E+00  0.50000000000E+03  0.50000000000E+03  0.00000000000E+00 0.  1.
        -11   -1    0    0    0    0 -0.00000000000E+00 -0.00000000000E+00 -0.50000000000E+03  0.50000000000E+03  0.00000000000E+00 0. -1.
          5    1    1    2  501    0 -0.23587581593E+03 -0.44068145407E+03 -0.11847594716E+02  0.50000000000E+03  0.47000000000E+01 0. -1.
         -5    1    1    2    0  501  0.23587581593E+03  0.44068145407E+03  0.11847594716E+02  0.50000000000E+03  0.47000000000E+01 0.  1.
</event>
<event>
 4    1  0.4924477E-004  0.1000000E+04  0.7546771E-02  0.8684367E-01
         11   -1    0    0    0    0  0.00000000000E+00  0.00000000000E+00  0.50000000000E+03  0.50000000000E+03  0.00000000000E+00 0. -1.
        -11   -1    0    0    0    0 -0.00000000000E+00 -0.00000000000E+00 -0.50000000000E+03  0.50000000000E+03  0.00000000000E+00 0.  1.
          5    1    1    2  501    0  0.16715244886E+03  0.38508659080E+03  0.27156267496E+03  0.50000000000E+03  0.47000000000E+01 0. -1.
         -5    1    1    2    0  501 -0.16715244886E+03 -0.38508659080E+03 -0.27156267496E+03  0.50000000000E+03  0.47000000000E+01 0.  1.
</event>
<event>
 4    1  0.4924477E-004  0.1000000E+04  0.7546771E-02  0.8684367E-01
         11   -1    0    0    0    0  0.00000000000E+00  0.00000000000E+00  0.50000000000E+03  0.50000000000E+03  0.00000000000E+00 0.  1.
        -11   -1    0    0    0    0 -0.00000000000E+00 -0.00000000000E+00 -0.50000000000E+03  0.50000000000E+03  0.00000000000E+00 0. -1.
          5    1    1    2  501    0  0.28358624854E+03  0.13727050399E+03  0.38821844157E+03  0.50000000000E+03  0.47000000000E+01 0.  1.
         -5    1    1    2    0  501 -0.28358624854E+03 -0.13727050399E+03 -0.38821844157E+03  0.50000000000E+03  0.47000000000E+01 0. -1.
</event>
<event>
 4    1  0.4924477E-004  0.1000000E+04  0.7546771E-02  0.8684367E-01
         11   -1    0    0    0    0  0.00000000000E+00  0.00000000000E+00  0.50000000000E+03  0.50000000000E+03  0.00000000000E+00 0. -1.
        -11   -1    0    0    0    0 -0.00000000000E+00 -0.00000000000E+00 -0.50000000000E+03  0.50000000000E+03  0.00000000000E+00 0.  1.
          5    1    1    2  501    0  0.79023784475E+02  0.10407703168E+03 -0.48259830394E+03  0.50000000000E+03  0.47000000000E+01 0.  1.
         -5    1    1    2    0  501 -0.79023784475E+02 -0.10407703168E+03  0.48259830394E+03  0.50000000000E+03  0.47000000000E+01 0. -1.
</event>
<event>
 4    1  0.4924477E-004  0.1000000E+04  0.7546771E-02  0.8684367E-01
         11   -1    0    0    0    0  0.00000000000E+00  0.00000000000E+00  0.50000000000E+03  0.50000000000E+03  0.00000000000E+00 0. -1.
        -11   -1    0    0    0    0 -0.00000000000E+00 -0.00000000000E+00 -0.50000000000E+03  0.50000000000E+03  0.00000000000E+00 0.  1.
          5    1    1    2  501    0  0.42377726373E+03 -0.44151058925E+02  0.26161312036E+03  0.50000000000E+03  0.47000000000E+01 0. -1.
         -5    1    1    2    0  501 -0.42377726373E+03  0.44151058925E+02 -0.26161312036E+03  0.50000000000E+03  0.47000000000E+01 0.  1.
</event>
<event>
 4    1  0.4924477E-004  0.1000000E+04  0.7546771E-02  0.8684367E-01
         11   -1    0    0    0    0  0.00000000000E+00  0.00000000000E+00  0.50000000000E+03  0.50000000000E+03  0.00000000000E+00 0. -1.
        -11   -1    0    0    0    0 -0.00000000000E+00 -0.00000000000E+00 -0.50000000000E+03  0.50000000000E+03  0.00000000000E+00 0.  1.
          5    1    1    2  501    0  0.17230507315E+03 -0.46321451759E+03  0.75638498550E+02  0.50000000000E+03  0.47000000000E+01 0. -1.
         -5    1    1    2    0  501 -0.17230507315E+03  0.46321451759E+03 -0.75638498550E+02  0.50000000000E+03  0.47000000000E+01 0.  1.
</event>
<event>
 4    1  0.4924477E-004  0.1000000E+04  0.7546771E-02  0.8684367E-01
         11   -1    0    0    0    0  0.00000000000E+00  0.00000000000E+00  0.50000000000E+03  0.50000000000E+03  0.00000000000E+00 0. -1.
        -11   -1    0    0    0    0 -0.00000000000E+00 -0.00000000000E+00 -0.50000000000E+03  0.50000000000E+03  0.00000000000E+00 0.  1.
          5    1    1    2  501    0  0.81796410978E+02 -0.46892614111E+03  0.15295597843E+03  0.50000000000E+03  0.47000000000E+01 0. -1.
         -5    1    1    2    0  501 -0.81796410978E+02  0.46892614111E+03 -0.15295597843E+03  0.50000000000E+03  0.47000000000E+01 0.  1.
</event>
<event>
 4    1  0.4924477E-004  0.1000000E+04  0.7546771E-02  0.8684367E-01
         11   -1    0    0    0    0  0.00000000000E+00  0.00000000000E+00  0.50000000000E+03  0.50000000000E+03  0.00000000000E+00 0. -1.
        -11   -1    0    0    0    0 -0.00000000000E+00 -0.00000000000E+00 -0.50000000000E+03  0.50000000000E+03  0.00000000000E+00 0.  1.
          5    1    1    2  501    0 -0.20014354938E+03 -0.36315809334E+03  0.27935044100E+03  0.50000000000E+03  0.47000000000E+01 0. -1.
         -5    1    1    2    0  501  0.20014354938E+03  0.36315809334E+03 -0.27935044100E+03  0.50000000000E+03  0.47000000000E+01 0.  1.
</event>
<event>
 4    1  0.4924477E-004  0.1000000E+04  0.7546771E-02  0.8684367E-01
         11   -1    0    0    0    0  0.00000000000E+00  0.00000000000E+00  0.50000000000E+03  0.50000000000E+03  0.00000000000E+00 0. -1.
        -11   -1    0    0    0    0 -0.00000000000E+00 -0.00000000000E+00 -0.50000000000E+03  0.50000000000E+03  0.00000000000E+00 0.  1.
          5    1    1    2  501    0 -0.14464250844E+03 -0.41366251455E+03  0.24070683167E+03  0.50000000000E+03  0.47000000000E+01 0. -1.
         -5    1    1    2    0  501  0.14464250844E+03  0.41366251455E+03 -0.24070683167E+03  0.50000000000E+03  0.47000000000E+01 0.  1.
</event>
<event>
 4    1  0.4924477E-004  0.1000000E+04  0.7546771E-02  0.8684367E-01
         11   -1    0    0    0    0  0.00000000000E+00  0.00000000000E+00  0.50000000000E+03  0.50000000000E+03  0.00000000000E+00 0. -1.
        -11   -1    0    0    0    0 -0.00000000000E+00 -0.00000000000E+00 -0.50000000000E+03  0.50000000000E+03  0.00000000000E+00 0.  1.
          5    1    1    2  501    0  0.12579408912E+03 -0.26212235766E+03  0.40675007899E+03  0.50000000000E+03  0.47000000000E+01 0. -1.
         -5    1    1    2    0  501 -0.12579408912E+03  0.26212235766E+03 -0.40675007899E+03  0.50000000000E+03  0.47000000000E+01 0.  1.
</event>
<event>
 4    1  0.4924477E-004  0.1000000E+04  0.7546771E-02  0.8684367E-01
         11   -1    0    0    0    0  0.00000000000E+00  0.00000000000E+00  0.50000000000E+03  0.50000000000E+03  0.00000000000E+00 0.  1.
        -11   -1    0    0    0    0 -0.00000000000E+00 -0.00000000000E+00 -0.50000000000E+03  0.50000000000E+03  0.00000000000E+00 0. -1.
          5    1    1    2  501    0 -0.32469089178E+03 -0.28363817728E+03  0.25318593797E+03  0.50000000000E+03  0.47000000000E+01 0.  1.
         -5    1    1    2    0  501  0.32469089178E+03  0.28363817728E+03 -0.25318593797E+03  0.50000000000E+03  0.47000000000E+01 0. -1.
</event>
<event>
 4    1  0.4924477E-004  0.1000000E+04  0.7546771E-02  0.8684367E-01
         11   -1    0    0    0    0  0.00000000000E+00  0.00000000000E+00  0.50000000000E+03  0.50000000000E+03  0.00000000000E+00 0. -1.
        -11   -1    0    0    0    0 -0.00000000000E+00 -0.00000000000E+00 -0.50000000000E+03  0.50000000000E+03  0.00000000000E+00 0.  1.
          5    1    1    2  501    0  0.32430813102E+01  0.31821270643E+03  0.38562684799E+03  0.50000000000E+03  0.47000000000E+01 0. -1.
         -5    1    1    2    0  501 -0.32430813102E+01 -0.31821270643E+03 -0.38562684799E+03  0.50000000000E+03  0.47000000000E+01 0.  1.
</event>
<event>
 4    1  0.4924477E-004  0.1000000E+04  0.7546771E-02  0.8684367E-01
         11   -1    0    0    0    0  0.00000000000E+00  0.00000000000E+00  0.50000000000E+03  0.50000000000E+03  0.00000000000E+00 0. -1.
        -11   -1    0    0    0    0 -0.00000000000E+00 -0.00000000000E+00 -0.50000000000E+03  0.50000000000E+03  0.00000000000E+00 0.  1.
          5    1    1    2  501    0  0.47278123261E+03 -0.12524813725E+03  0.10377244434E+03  0.50000000000E+03  0.47000000000E+01 0. -1.
         -5    1    1    2    0  501 -0.47278123261E+03  0.12524813725E+03 -0.10377244434E+03  0.50000000000E+03  0.47000000000E+01 0.  1.
</event>
<event>
 4    1  0.4924477E-004  0.1000000E+04  0.7546771E-02  0.8684367E-01
         11   -1    0    0    0    0  0.00000000000E+00  0.00000000000E+00  0.50000000000E+03  0.50000000000E+03  0.00000000000E+00 0. -1.
        -11   -1    0    0    0    0 -0.00000000000E+00 -0.00000000000E+00 -0.50000000000E+03  0.50000000000E+03  0.00000000000E+00 0.  1.
          5    1    1    2  501    0 -0.48291456966E+03 -0.89108417624E+02 -0.93974030017E+02  0.50000000000E+03  0.47000000000E+01 0. -1.
         -5    1    1    2    0  501  0.48291456966E+03  0.89108417624E+02  0.93974030017E+02  0.50000000000E+03  0.47000000000E+01 0.  1.
</event>
<event>
 4    1  0.4924477E-004  0.1000000E+04  0.7546771E-02  0.8684367E-01
         11   -1    0    0    0    0  0.00000000000E+00  0.00000000000E+00  0.50000000000E+03  0.50000000000E+03  0.00000000000E+00 0. -1.
        -11   -1    0    0    0    0 -0.00000000000E+00 -0.00000000000E+00 -0.50000000000E+03  0.50000000000E+03  0.00000000000E+00 0.  1.
          5    1    1    2  501    0  0.36002008510E+03  0.75319576087E+02  0.33865972566E+03  0.50000000000E+03  0.47000000000E+01 0. -1.
         -5    1    1    2    0  501 -0.36002008510E+03 -0.75319576087E+02 -0.33865972566E+03  0.50000000000E+03  0.47000000000E+01 0.  1.
</event>
<event>
 4    1  0.4924477E-004  0.1000000E+04  0.7546771E-02  0.8684367E-01
         11   -1    0    0    0    0  0.00000000000E+00  0.00000000000E+00  0.50000000000E+03  0.50000000000E+03  0.00000000000E+00 0. -1.
        -11   -1    0    0    0    0 -0.00000000000E+00 -0.00000000000E+00 -0.50000000000E+03  0.50000000000E+03  0.00000000000E+00 0.  1.
          5    1    1    2  501    0  0.22153659718E+03 -0.37204030050E+03  0.24997092014E+03  0.50000000000E+03  0.47000000000E+01 0. -1.
         -5    1    1    2    0  501 -0.22153659718E+03  0.37204030050E+03 -0.24997092014E+03  0.50000000000E+03  0.47000000000E+01 0.  1.
</event>
<event>
 4    1  0.4924477E-004  0.1000000E+04  0.7546771E-02  0.8684367E-01
         11   -1    0    0    0    0  0.00000000000E+00  0.00000000000E+00  0.50000000000E+03  0.50000000000E+03  0.00000000000E+00 0. -1.
        -11   -1    0    0    0    0 -0.00000000000E+00 -0.00000000000E+00 -0.50000000000E+03  0.50000000000E+03  0.00000000000E+00 0.  1.
          5    1    1    2  501    0  0.17198371360E+03 -0.40187517954E+03 -0.24268467675E+03  0.50000000000E+03  0.47000000000E+01 0. -1.
         -5    1    1    2    0  501 -0.17198371360E+03  0.40187517954E+03  0.24268467675E+03  0.50000000000E+03  0.47000000000E+01 0.  1.
</event>
<event>
 4    1  0.4924477E-004  0.1000000E+04  0.7546771E-02  0.8684367E-01
         11   -1    0    0    0    0  0.00000000000E+00  0.00000000000E+00  0.50000000000E+03  0.50000000000E+03  0.00000000000E+00 0. -1.
        -11   -1    0    0    0    0 -0.00000000000E+00 -0.00000000000E+00 -0.50000000000E+03  0.50000000000E+03  0.00000000000E+00 0.  1.
          5    1    1    2  501    0  0.44394299512E+03 -0.13235050805E+03 -0.18808474182E+03  0.50000000000E+03  0.47000000000E+01 0. -1.
         -5    1    1    2    0  501 -0.44394299512E+03  0.13235050805E+03  0.18808474182E+03  0.50000000000E+03  0.47000000000E+01 0.  1.
</event>
<event>
 4    1  0.4924477E-004  0.1000000E+04  0.7546771E-02  0.8684367E-01
         11   -1    0    0    0    0  0.00000000000E+00  0.00000000000E+00  0.50000000000E+03  0.50000000000E+03  0.00000000000E+00 0. -1.
        -11   -1    0    0    0    0 -0.00000000000E+00 -0.00000000000E+00 -0.50000000000E+03  0.50000000000E+03  0.00000000000E+00 0.  1.
          5    1    1    2  501    0  0.17089345788E+03 -0.44341508674E+03  0.15542328301E+03  0.50000000000E+03  0.47000000000E+01 0. -1.
         -5    1    1    2    0  501 -0.17089345788E+03  0.44341508674E+03 -0.15542328301E+03  0.50000000000E+03  0.47000000000E+01 0.  1.
</event>
<event>
 4    1  0.4924477E-004  0.1000000E+04  0.7546771E-02  0.8684367E-01
         11   -1    0    0    0    0  0.00000000000E+00  0.00000000000E+00  0.50000000000E+03  0.50000000000E+03  0.00000000000E+00 0. -1.
        -11   -1    0    0    0    0 -0.00000000000E+00 -0.00000000000E+00 -0.50000000000E+03  0.50000000000E+03  0.00000000000E+00 0.  1.
          5    1    1    2  501    0  0.49962608378E+03 -0.10626421592E+01  0.18723172810E+02  0.50000000000E+03  0.47000000000E+01 0. -1.
         -5    1    1    2    0  501 -0.49962608378E+03  0.10626421592E+01 -0.18723172810E+02  0.50000000000E+03  0.47000000000E+01 0.  1.
</event>
<event>
 4    1  0.4924477E-004  0.1000000E+04  0.7546771E-02  0.8684367E-01
         11   -1    0    0    0    0  0.00000000000E+00  0.00000000000E+00  0.50000000000E+03  0.50000000000E+03  0.00000000000E+00 0. -1.
        -11   -1    0    0    0    0 -0.00000000000E+00 -0.00000000000E+00 -0.50000000000E+03  0.50000000000E+03  0.00000000000E+00 0.  1.
          5    1    1    2  501    0  0.30715296749E+02  0.49033910179E+03  0.92747214523E+02  0.50000000000E+03  0.47000000000E+01 0. -1.
         -5    1    1    2    0  501 -0.30715296749E+02 -0.49033910179E+03 -0.92747214523E+02  0.50000000000E+03  0.47000000000E+01 0.  1.
</event>
<event>
 4    1  0.4924477E-004  0.1000000E+04  0.7546771E-02  0.8684367E-01
         11   -1    0    0    0    0  0.00000000000E+00  0.00000000000E+00  0.50000000000E+03  0.50000000000E+03  0.00000000000E+00 0. -1.
        -11   -1    0    0    0    0 -0.00000000000E+00 -0.00000000000E+00 -0.50000000000E+03  0.50000000000E+03  0.00000000000E+00 0.  1.
          5    1    1    2  501    0 -0.32831402690E+03  0.37699364112E+03 -0.79752300069E+01  0.50000000000E+03  0.47000000000E+01 0. -1.
         -5    1    1    2    0  501  0.32831402690E+03 -0.37699364112E+03  0.79752300069E+01  0.50000000000E+03  0.47000000000E+01 0.  1.
</event>
<event>
 4    1  0.4924477E-004  0.1000000E+04  0.7546771E-02  0.8684367E-01
         11   -1    0    0    0    0  0.00000000000E+00  0.00000000000E+00  0.50000000000E+03  0.50000000000E+03  0.00000000000E+00 0. -1.
        -11   -1    0    0    0    0 -0.00000000000E+00 -0.00000000000E+00 -0.50000000000E+03  0.50000000000E+03  0.00000000000E+00 0.  1.
          5    1    1    2  501    0  0.26077066864E+03 -0.36987438390E+03  0.21253119422E+03  0.50000000000E+03  0.47000000000E+01 0. -1.
         -5    1    1    2    0  501 -0.26077066864E+03  0.36987438390E+03 -0.21253119422E+03  0.50000000000E+03  0.47000000000E+01 0.  1.
</event>
<event>
 4    1  0.4924477E-004  0.1000000E+04  0.7546771E-02  0.8684367E-01
         11   -1    0    0    0    0  0.00000000000E+00  0.00000000000E+00  0.50000000000E+03  0.50000000000E+03  0.00000000000E+00 0. -1.
        -11   -1    0    0    0    0 -0.00000000000E+00 -0.00000000000E+00 -0.50000000000E+03  0.50000000000E+03  0.00000000000E+00 0.  1.
          5    1    1    2  501    0  0.23690843074E+03 -0.49361916484E+02  0.43751080746E+03  0.50000000000E+03  0.47000000000E+01 0. -1.
         -5    1    1    2    0  501 -0.23690843074E+03  0.49361916484E+02 -0.43751080746E+03  0.50000000000E+03  0.47000000000E+01 0.  1.
</event>
<event>
 4    1  0.4924477E-004  0.1000000E+04  0.7546771E-02  0.8684367E-01
         11   -1    0    0    0    0  0.00000000000E+00  0.00000000000E+00  0.50000000000E+03  0.50000000000E+03  0.00000000000E+00 0. -1.
        -11   -1    0    0    0    0 -0.00000000000E+00 -0.00000000000E+00 -0.50000000000E+03  0.50000000000E+03  0.00000000000E+00 0.  1.
          5    1    1    2  501    0  0.45006175970E+03  0.16028661011E+03  0.14741277108E+03  0.50000000000E+03  0.47000000000E+01 0. -1.
         -5    1    1    2    0  501 -0.45006175970E+03 -0.16028661011E+03 -0.14741277108E+03  0.50000000000E+03  0.47000000000E+01 0.  1.
</event>
<event>
 4    1  0.4924477E-004  0.1000000E+04  0.7546771E-02  0.8684367E-01
         11   -1    0    0    0    0  0.00000000000E+00  0.00000000000E+00  0.50000000000E+03  0.50000000000E+03  0.00000000000E+00 0. -1.
        -11   -1    0    0    0    0 -0.00000000000E+00 -0.00000000000E+00 -0.50000000000E+03  0.50000000000E+03  0.00000000000E+00 0.  1.
          5    1    1    2  501    0 -0.41384331517E+03  0.16822539137E+03  0.22452580740E+03  0.50000000000E+03  0.47000000000E+01 0. -1.
         -5    1    1    2    0  501  0.41384331517E+03 -0.16822539137E+03 -0.22452580740E+03  0.50000000000E+03  0.47000000000E+01 0.  1.
</event>
<event>
 4    1  0.4924477E-004  0.1000000E+04  0.7546771E-02  0.8684367E-01
         11   -1    0    0    0    0  0.00000000000E+00  0.00000000000E+00  0.50000000000E+03  0.50000000000E+03  0.00000000000E+00 0. -1.
        -11   -1    0    0    0    0 -0.00000000000E+00 -0.00000000000E+00 -0.50000000000E+03  0.50000000000E+03  0.00000000000E+00 0.  1.
          5    1    1    2  501    0  0.29133389266E+03  0.22806728723E+03  0.33628527396E+03  0.50000000000E+03  0.47000000000E+01 0. -1.
         -5    1    1    2    0  501 -0.29133389266E+03 -0.22806728723E+03 -0.33628527396E+03  0.50000000000E+03  0.47000000000E+01 0.  1.
</event>
<event>
 4    1  0.4924477E-004  0.1000000E+04  0.7546771E-02  0.8684367E-01
         11   -1    0    0    0    0  0.00000000000E+00  0.00000000000E+00  0.50000000000E+03  0.50000000000E+03  0.00000000000E+00 0. -1.
        -11   -1    0    0    0    0 -0.00000000000E+00 -0.00000000000E+00 -0.50000000000E+03  0.50000000000E+03  0.00000000000E+00 0.  1.
          5    1    1    2  501    0 -0.12987748407E+03 -0.15417223011E+03  0.45753761877E+03  0.50000000000E+03  0.47000000000E+01 0. -1.
         -5    1    1    2    0  501  0.12987748407E+03  0.15417223011E+03 -0.45753761877E+03  0.50000000000E+03  0.47000000000E+01 0.  1.
</event>
<event>
 4    1  0.4924477E-004  0.1000000E+04  0.7546771E-02  0.8684367E-01
         11   -1    0    0    0    0  0.00000000000E+00  0.00000000000E+00  0.50000000000E+03  0.50000000000E+03  0.00000000000E+00 0. -1.
        -11   -1    0    0    0    0 -0.00000000000E+00 -0.00000000000E+00 -0.50000000000E+03  0.50000000000E+03  0.00000000000E+00 0.  1.
          5    1    1    2  501    0  0.22204739789E+01  0.24508534984E+03  0.43578222863E+03  0.50000000000E+03  0.47000000000E+01 0. -1.
         -5    1    1    2    0  501 -0.22204739789E+01 -0.24508534984E+03 -0.43578222863E+03  0.50000000000E+03  0.47000000000E+01 0.  1.
</event>
<event>
 4    1  0.4924477E-004  0.1000000E+04  0.7546771E-02  0.8684367E-01
         11   -1    0    0    0    0  0.00000000000E+00  0.00000000000E+00  0.50000000000E+03  0.50000000000E+03  0.00000000000E+00 0. -1.
        -11   -1    0    0    0    0 -0.00000000000E+00 -0.00000000000E+00 -0.50000000000E+03  0.50000000000E+03  0.00000000000E+00 0.  1.
          5    1    1    2  501    0  0.29814204840E+03 -0.29170815836E+01  0.40134862602E+03  0.50000000000E+03  0.47000000000E+01 0. -1.
         -5    1    1    2    0  501 -0.29814204840E+03  0.29170815836E+01 -0.40134862602E+03  0.50000000000E+03  0.47000000000E+01 0.  1.
</event>
<event>
 4    1  0.4924477E-004  0.1000000E+04  0.7546771E-02  0.8684367E-01
         11   -1    0    0    0    0  0.00000000000E+00  0.00000000000E+00  0.50000000000E+03  0.50000000000E+03  0.00000000000E+00 0. -1.
        -11   -1    0    0    0    0 -0.00000000000E+00 -0.00000000000E+00 -0.50000000000E+03  0.50000000000E+03  0.00000000000E+00 0.  1.
          5    1    1    2  501    0 -0.31011397561E+03  0.24709685654E+03  0.30454946334E+03  0.50000000000E+03  0.47000000000E+01 0. -1.
         -5    1    1    2    0  501  0.31011397561E+03 -0.24709685654E+03 -0.30454946334E+03  0.50000000000E+03  0.47000000000E+01 0.  1.
</event>
<event>
 4    1  0.4924477E-004  0.1000000E+04  0.7546771E-02  0.8684367E-01
         11   -1    0    0    0    0  0.00000000000E+00  0.00000000000E+00  0.50000000000E+03  0.50000000000E+03  0.00000000000E+00 0. -1.
        -11   -1    0    0    0    0 -0.00000000000E+00 -0.00000000000E+00 -0.50000000000E+03  0.50000000000E+03  0.00000000000E+00 0.  1.
          5    1    1    2  501    0 -0.14826091428E+03  0.24795486396E+03  0.40806249121E+03  0.50000000000E+03  0.47000000000E+01 0. -1.
         -5    1    1    2    0  501  0.14826091428E+03 -0.24795486396E+03 -0.40806249121E+03  0.50000000000E+03  0.47000000000E+01 0.  1.
</event>
<event>
 4    1  0.4924477E-004  0.1000000E+04  0.7546771E-02  0.8684367E-01
         11   -1    0    0    0    0  0.00000000000E+00  0.00000000000E+00  0.50000000000E+03  0.50000000000E+03  0.00000000000E+00 0. -1.
        -11   -1    0    0    0    0 -0.00000000000E+00 -0.00000000000E+00 -0.50000000000E+03  0.50000000000E+03  0.00000000000E+00 0.  1.
          5    1    1    2  501    0 -0.26038217545E+03  0.42643241399E+03  0.18287400114E+02  0.50000000000E+03  0.47000000000E+01 0. -1.
         -5    1    1    2    0  501  0.26038217545E+03 -0.42643241399E+03 -0.18287400114E+02  0.50000000000E+03  0.47000000000E+01 0.  1.
</event>
<event>
 4    1  0.4924477E-004  0.1000000E+04  0.7546771E-02  0.8684367E-01
         11   -1    0    0    0    0  0.00000000000E+00  0.00000000000E+00  0.50000000000E+03  0.50000000000E+03  0.00000000000E+00 0. -1.
        -11   -1    0    0    0    0 -0.00000000000E+00 -0.00000000000E+00 -0.50000000000E+03  0.50000000000E+03  0.00000000000E+00 0.  1.
          5    1    1    2  501    0  0.20635651255E+03  0.19994957506E+03  0.40916386346E+03  0.50000000000E+03  0.47000000000E+01 0. -1.
         -5    1    1    2    0  501 -0.20635651255E+03 -0.19994957506E+03 -0.40916386346E+03  0.50000000000E+03  0.47000000000E+01 0.  1.
</event>
<event>
 4    1  0.4924477E-004  0.1000000E+04  0.7546771E-02  0.8684367E-01
         11   -1    0    0    0    0  0.00000000000E+00  0.00000000000E+00  0.50000000000E+03  0.50000000000E+03  0.00000000000E+00 0. -1.
        -11   -1    0    0    0    0 -0.00000000000E+00 -0.00000000000E+00 -0.50000000000E+03  0.50000000000E+03  0.00000000000E+00 0.  1.
          5    1    1    2  501    0 -0.24613889688E+03  0.27902909017E+02  0.43429826284E+03  0.50000000000E+03  0.47000000000E+01 0. -1.
         -5    1    1    2    0  501  0.24613889688E+03 -0.27902909017E+02 -0.43429826284E+03  0.50000000000E+03  0.47000000000E+01 0.  1.
</event>
<event>
 4    1  0.4924477E-004  0.1000000E+04  0.7546771E-02  0.8684367E-01
         11   -1    0    0    0    0  0.00000000000E+00  0.00000000000E+00  0.50000000000E+03  0.50000000000E+03  0.00000000000E+00 0. -1.
        -11   -1    0    0    0    0 -0.00000000000E+00 -0.00000000000E+00 -0.50000000000E+03  0.50000000000E+03  0.00000000000E+00 0.  1.
          5    1    1    2  501    0  0.28127254495E+03  0.33924891448E+03  0.23616485658E+03  0.50000000000E+03  0.47000000000E+01 0. -1.
         -5    1    1    2    0  501 -0.28127254495E+03 -0.33924891448E+03 -0.23616485658E+03  0.50000000000E+03  0.47000000000E+01 0.  1.
</event>
<event>
 4    1  0.4924477E-004  0.1000000E+04  0.7546771E-02  0.8684367E-01
         11   -1    0    0    0    0  0.00000000000E+00  0.00000000000E+00  0.50000000000E+03  0.50000000000E+03  0.00000000000E+00 0. -1.
        -11   -1    0    0    0    0 -0.00000000000E+00 -0.00000000000E+00 -0.50000000000E+03  0.50000000000E+03  0.00000000000E+00 0.  1.
          5    1    1    2  501    0  0.23502387511E+03  0.29769904356E+03  0.32575599394E+03  0.50000000000E+03  0.47000000000E+01 0. -1.
         -5    1    1    2    0  501 -0.23502387511E+03 -0.29769904356E+03 -0.32575599394E+03  0.50000000000E+03  0.47000000000E+01 0.  1.
</event>
<event>
 4    1  0.4924477E-004  0.1000000E+04  0.7546771E-02  0.8684367E-01
         11   -1    0    0    0    0  0.00000000000E+00  0.00000000000E+00  0.50000000000E+03  0.50000000000E+03  0.00000000000E+00 0.  1.
        -11   -1    0    0    0    0 -0.00000000000E+00 -0.00000000000E+00 -0.50000000000E+03  0.50000000000E+03  0.00000000000E+00 0. -1.
          5    1    1    2  501    0  0.36132763075E+03  0.31158711791E+03  0.14944470955E+03  0.50000000000E+03  0.47000000000E+01 0.  1.
         -5    1    1    2    0  501 -0.36132763075E+03 -0.31158711791E+03 -0.14944470955E+03  0.50000000000E+03  0.47000000000E+01 0. -1.
</event>
<event>
 4    1  0.4924477E-004  0.1000000E+04  0.7546771E-02  0.8684367E-01
         11   -1    0    0    0    0  0.00000000000E+00  0.00000000000E+00  0.50000000000E+03  0.50000000000E+03  0.00000000000E+00 0. -1.
        -11   -1    0    0    0    0 -0.00000000000E+00 -0.00000000000E+00 -0.50000000000E+03  0.50000000000E+03  0.00000000000E+00 0.  1.
          5    1    1    2  501    0 -0.48322947050E+03 -0.12749067638E+03 -0.14605351004E+02  0.50000000000E+03  0.47000000000E+01 0. -1.
         -5    1    1    2    0  501  0.48322947050E+03  0.12749067638E+03  0.14605351004E+02  0.50000000000E+03  0.47000000000E+01 0.  1.
</event>
<event>
 4    1  0.4924477E-004  0.1000000E+04  0.7546771E-02  0.8684367E-01
         11   -1    0    0    0    0  0.00000000000E+00  0.00000000000E+00  0.50000000000E+03  0.50000000000E+03  0.00000000000E+00 0. -1.
        -11   -1    0    0    0    0 -0.00000000000E+00 -0.00000000000E+00 -0.50000000000E+03  0.50000000000E+03  0.00000000000E+00 0.  1.
          5    1    1    2  501    0 -0.38711981593E+03 -0.16309944369E+03  0.27113599832E+03  0.50000000000E+03  0.47000000000E+01 0. -1.
         -5    1    1    2    0  501  0.38711981593E+03  0.16309944369E+03 -0.27113599832E+03  0.50000000000E+03  0.47000000000E+01 0.  1.
</event>
<event>
 4    1  0.4924477E-004  0.1000000E+04  0.7546771E-02  0.8684367E-01
         11   -1    0    0    0    0  0.00000000000E+00  0.00000000000E+00  0.50000000000E+03  0.50000000000E+03  0.00000000000E+00 0.  1.
        -11   -1    0    0    0    0 -0.00000000000E+00 -0.00000000000E+00 -0.50000000000E+03  0.50000000000E+03  0.00000000000E+00 0. -1.
          5    1    1    2  501    0  0.31734362175E+03 -0.27286555258E+02  0.38539120337E+03  0.50000000000E+03  0.47000000000E+01 0. -1.
         -5    1    1    2    0  501 -0.31734362175E+03  0.27286555258E+02 -0.38539120337E+03  0.50000000000E+03  0.47000000000E+01 0.  1.
</event>
<event>
 4    1  0.4924477E-004  0.1000000E+04  0.7546771E-02  0.8684367E-01
         11   -1    0    0    0    0  0.00000000000E+00  0.00000000000E+00  0.50000000000E+03  0.50000000000E+03  0.00000000000E+00 0. -1.
        -11   -1    0    0    0    0 -0.00000000000E+00 -0.00000000000E+00 -0.50000000000E+03  0.50000000000E+03  0.00000000000E+00 0.  1.
          5    1    1    2  501    0 -0.33007192852E+03  0.27424863549E+02 -0.37453745989E+03  0.50000000000E+03  0.47000000000E+01 0. -1.
         -5    1    1    2    0  501  0.33007192852E+03 -0.27424863549E+02  0.37453745989E+03  0.50000000000E+03  0.47000000000E+01 0.  1.
</event>
<event>
 4    1  0.4924477E-004  0.1000000E+04  0.7546771E-02  0.8684367E-01
         11   -1    0    0    0    0  0.00000000000E+00  0.00000000000E+00  0.50000000000E+03  0.50000000000E+03  0.00000000000E+00 0. -1.
        -11   -1    0    0    0    0 -0.00000000000E+00 -0.00000000000E+00 -0.50000000000E+03  0.50000000000E+03  0.00000000000E+00 0.  1.
          5    1    1    2  501    0  0.12411073573E+03  0.27144561247E+03  0.40111309471E+03  0.50000000000E+03  0.47000000000E+01 0. -1.
         -5    1    1    2    0  501 -0.12411073573E+03 -0.27144561247E+03 -0.40111309471E+03  0.50000000000E+03  0.47000000000E+01 0.  1.
</event>
<event>
 4    1  0.4924477E-004  0.1000000E+04  0.7546771E-02  0.8684367E-01
         11   -1    0    0    0    0  0.00000000000E+00  0.00000000000E+00  0.50000000000E+03  0.50000000000E+03  0.00000000000E+00 0. -1.
        -11   -1    0    0    0    0 -0.00000000000E+00 -0.00000000000E+00 -0.50000000000E+03  0.50000000000E+03  0.00000000000E+00 0.  1.
          5    1    1    2  501    0  0.26969744800E+03 -0.15919196093E+03  0.38974237147E+03  0.50000000000E+03  0.47000000000E+01 0. -1.
         -5    1    1    2    0  501 -0.26969744800E+03  0.15919196093E+03 -0.38974237147E+03  0.50000000000E+03  0.47000000000E+01 0.  1.
</event>
<event>
 4    1  0.4924477E-004  0.1000000E+04  0.7546771E-02  0.8684367E-01
         11   -1    0    0    0    0  0.00000000000E+00  0.00000000000E+00  0.50000000000E+03  0.50000000000E+03  0.00000000000E+00 0. -1.
        -11   -1    0    0    0    0 -0.00000000000E+00 -0.00000000000E+00 -0.50000000000E+03  0.50000000000E+03  0.00000000000E+00 0.  1.
          5    1    1    2  501    0  0.45288033992E+03  0.20640060773E+03  0.47708456700E+02  0.50000000000E+03  0.47000000000E+01 0. -1.
         -5    1    1    2    0  501 -0.45288033992E+03 -0.20640060773E+03 -0.47708456700E+02  0.50000000000E+03  0.47000000000E+01 0.  1.
</event>
<event>
 4    1  0.4924477E-004  0.1000000E+04  0.7546771E-02  0.8684367E-01
         11   -1    0    0    0    0  0.00000000000E+00  0.00000000000E+00  0.50000000000E+03  0.50000000000E+03  0.00000000000E+00 0.  1.
        -11   -1    0    0    0    0 -0.00000000000E+00 -0.00000000000E+00 -0.50000000000E+03  0.50000000000E+03  0.00000000000E+00 0. -1.
          5    1    1    2  501    0 -0.36751423972E+03  0.33872863952E+03 -0.13194785760E+02  0.50000000000E+03  0.47000000000E+01 0.  1.
         -5    1    1    2    0  501  0.36751423972E+03 -0.33872863952E+03  0.13194785760E+02  0.50000000000E+03  0.47000000000E+01 0. -1.
</event>
<event>
 4    1  0.4924477E-004  0.1000000E+04  0.7546771E-02  0.8684367E-01
         11   -1    0    0    0    0  0.00000000000E+00  0.00000000000E+00  0.50000000000E+03  0.50000000000E+03  0.00000000000E+00 0. -1.
        -11   -1    0    0    0    0 -0.00000000000E+00 -0.00000000000E+00 -0.50000000000E+03  0.50000000000E+03  0.00000000000E+00 0.  1.
          5    1    1    2  501    0  0.32782415624E+03  0.12371205726E+03  0.35665748201E+03  0.50000000000E+03  0.47000000000E+01 0. -1.
         -5    1    1    2    0  501 -0.32782415624E+03 -0.12371205726E+03 -0.35665748201E+03  0.50000000000E+03  0.47000000000E+01 0.  1.
</event>
<event>
 4    1  0.4924477E-004  0.1000000E+04  0.7546771E-02  0.8684367E-01
         11   -1    0    0    0    0  0.00000000000E+00  0.00000000000E+00  0.50000000000E+03  0.50000000000E+03  0.00000000000E+00 0. -1.
        -11   -1    0    0    0    0 -0.00000000000E+00 -0.00000000000E+00 -0.50000000000E+03  0.50000000000E+03  0.00000000000E+00 0.  1.
          5    1    1    2  501    0  0.22621653554E+03 -0.35046771122E+03  0.27563811863E+03  0.50000000000E+03  0.47000000000E+01 0. -1.
         -5    1    1    2    0  501 -0.22621653554E+03  0.35046771122E+03 -0.27563811863E+03  0.50000000000E+03  0.47000000000E+01 0.  1.
</event>
<event>
 4    1  0.4924477E-004  0.1000000E+04  0.7546771E-02  0.8684367E-01
         11   -1    0    0    0    0  0.00000000000E+00  0.00000000000E+00  0.50000000000E+03  0.50000000000E+03  0.00000000000E+00 0. -1.
        -11   -1    0    0    0    0 -0.00000000000E+00 -0.00000000000E+00 -0.50000000000E+03  0.50000000000E+03  0.00000000000E+00 0.  1.
          5    1    1    2  501    0 -0.40281926725E+03 -0.12669292676E+02  0.29589531419E+03  0.50000000000E+03  0.47000000000E+01 0. -1.
         -5    1    1    2    0  501  0.40281926725E+03  0.12669292676E+02 -0.29589531419E+03  0.50000000000E+03  0.47000000000E+01 0.  1.
</event>
<event>
 4    1  0.4924477E-004  0.1000000E+04  0.7546771E-02  0.8684367E-01
         11   -1    0    0    0    0  0.00000000000E+00  0.00000000000E+00  0.50000000000E+03  0.50000000000E+03  0.00000000000E+00 0. -1.
        -11   -1    0    0    0    0 -0.00000000000E+00 -0.00000000000E+00 -0.50000000000E+03  0.50000000000E+03  0.00000000000E+00 0.  1.
          5    1    1    2  501    0 -0.31847302501E+03  0.51595658826E+02  0.38195645083E+03  0.50000000000E+03  0.47000000000E+01 0. -1.
         -5    1    1    2    0  501  0.31847302501E+03 -0.51595658826E+02 -0.38195645083E+03  0.50000000000E+03  0.47000000000E+01 0.  1.
</event>
<event>
 4    1  0.4924477E-004  0.1000000E+04  0.7546771E-02  0.8684367E-01
         11   -1    0    0    0    0  0.00000000000E+00  0.00000000000E+00  0.50000000000E+03  0.50000000000E+03  0.00000000000E+00 0.  1.
        -11   -1    0    0    0    0 -0.00000000000E+00 -0.00000000000E+00 -0.50000000000E+03  0.50000000000E+03  0.00000000000E+00 0. -1.
          5    1    1    2  501    0 -0.43664589612E+02 -0.49021803082E+03  0.88077215387E+02  0.50000000000E+03  0.47000000000E+01 0. -1.
         -5    1    1    2    0  501  0.43664589612E+02  0.49021803082E+03 -0.88077215387E+02  0.50000000000E+03  0.47000000000E+01 0.  1.
</event>
<event>
 4    1  0.4924477E-004  0.1000000E+04  0.7546771E-02  0.8684367E-01
         11   -1    0    0    0    0  0.00000000000E+00  0.00000000000E+00  0.50000000000E+03  0.50000000000E+03  0.00000000000E+00 0. -1.
        -11   -1    0    0    0    0 -0.00000000000E+00 -0.00000000000E+00 -0.50000000000E+03  0.50000000000E+03  0.00000000000E+00 0.  1.
          5    1    1    2  501    0  0.32015652245E+03  0.32875395752E+03 -0.19849067118E+03  0.50000000000E+03  0.47000000000E+01 0.  1.
         -5    1    1    2    0  501 -0.32015652245E+03 -0.32875395752E+03  0.19849067118E+03  0.50000000000E+03  0.47000000000E+01 0. -1.
</event>
<event>
 4    1  0.4924477E-004  0.1000000E+04  0.7546771E-02  0.8684367E-01
         11   -1    0    0    0    0  0.00000000000E+00  0.00000000000E+00  0.50000000000E+03  0.50000000000E+03  0.00000000000E+00 0.  1.
        -11   -1    0    0    0    0 -0.00000000000E+00 -0.00000000000E+00 -0.50000000000E+03  0.50000000000E+03  0.00000000000E+00 0. -1.
          5    1    1    2  501    0  0.31995406590E+03 -0.12517245765E+03  0.36323430669E+03  0.50000000000E+03  0.47000000000E+01 0.  1.
         -5    1    1    2    0  501 -0.31995406590E+03  0.12517245765E+03 -0.36323430669E+03  0.50000000000E+03  0.47000000000E+01 0. -1.
</event>
<event>
 4    1  0.4924477E-004  0.1000000E+04  0.7546771E-02  0.8684367E-01
         11   -1    0    0    0    0  0.00000000000E+00  0.00000000000E+00  0.50000000000E+03  0.50000000000E+03  0.00000000000E+00 0. -1.
        -11   -1    0    0    0    0 -0.00000000000E+00 -0.00000000000E+00 -0.50000000000E+03  0.50000000000E+03  0.00000000000E+00 0.  1.
          5    1    1    2  501    0 -0.49945449427E+03  0.18797251122E+02  0.13030023207E+02  0.50000000000E+03  0.47000000000E+01 0. -1.
         -5    1    1    2    0  501  0.49945449427E+03 -0.18797251122E+02 -0.13030023207E+02  0.50000000000E+03  0.47000000000E+01 0.  1.
</event>
<event>
 4    1  0.4924477E-004  0.1000000E+04  0.7546771E-02  0.8684367E-01
         11   -1    0    0    0    0  0.00000000000E+00  0.00000000000E+00  0.50000000000E+03  0.50000000000E+03  0.00000000000E+00 0. -1.
        -11   -1    0    0    0    0 -0.00000000000E+00 -0.00000000000E+00 -0.50000000000E+03  0.50000000000E+03  0.00000000000E+00 0.  1.
          5    1    1    2  501    0  0.33442898484E+03  0.18838012351E+03  0.32038741106E+03  0.50000000000E+03  0.47000000000E+01 0. -1.
         -5    1    1    2    0  501 -0.33442898484E+03 -0.18838012351E+03 -0.32038741106E+03  0.50000000000E+03  0.47000000000E+01 0.  1.
</event>
<event>
 4    1  0.4924477E-004  0.1000000E+04  0.7546771E-02  0.8684367E-01
         11   -1    0    0    0    0  0.00000000000E+00  0.00000000000E+00  0.50000000000E+03  0.50000000000E+03  0.00000000000E+00 0. -1.
        -11   -1    0    0    0    0 -0.00000000000E+00 -0.00000000000E+00 -0.50000000000E+03  0.50000000000E+03  0.00000000000E+00 0.  1.
          5    1    1    2  501    0  0.36457963116E+03  0.24697429119E+03  0.23677690351E+03  0.50000000000E+03  0.47000000000E+01 0. -1.
         -5    1    1    2    0  501 -0.36457963116E+03 -0.24697429119E+03 -0.23677690351E+03  0.50000000000E+03  0.47000000000E+01 0.  1.
</event>
<event>
 4    1  0.4924477E-004  0.1000000E+04  0.7546771E-02  0.8684367E-01
         11   -1    0    0    0    0  0.00000000000E+00  0.00000000000E+00  0.50000000000E+03  0.50000000000E+03  0.00000000000E+00 0.  1.
        -11   -1    0    0    0    0 -0.00000000000E+00 -0.00000000000E+00 -0.50000000000E+03  0.50000000000E+03  0.00000000000E+00 0. -1.
          5    1    1    2  501    0 -0.10215990796E+03 -0.39367115347E+03  0.29079939156E+03  0.50000000000E+03  0.47000000000E+01 0.  1.
         -5    1    1    2    0  501  0.10215990796E+03  0.39367115347E+03 -0.29079939156E+03  0.50000000000E+03  0.47000000000E+01 0. -1.
</event>
<event>
 4    1  0.4924477E-004  0.1000000E+04  0.7546771E-02  0.8684367E-01
         11   -1    0    0    0    0  0.00000000000E+00  0.00000000000E+00  0.50000000000E+03  0.50000000000E+03  0.00000000000E+00 0.  1.
        -11   -1    0    0    0    0 -0.00000000000E+00 -0.00000000000E+00 -0.50000000000E+03  0.50000000000E+03  0.00000000000E+00 0. -1.
          5    1    1    2  501    0  0.17958944646E+03  0.27456777258E+03  0.37727719117E+03  0.50000000000E+03  0.47000000000E+01 0.  1.
         -5    1    1    2    0  501 -0.17958944646E+03 -0.27456777258E+03 -0.37727719117E+03  0.50000000000E+03  0.47000000000E+01 0. -1.
</event>
<event>
 4    1  0.4924477E-004  0.1000000E+04  0.7546771E-02  0.8684367E-01
         11   -1    0    0    0    0  0.00000000000E+00  0.00000000000E+00  0.50000000000E+03  0.50000000000E+03  0.00000000000E+00 0. -1.
        -11   -1    0    0    0    0 -0.00000000000E+00 -0.00000000000E+00 -0.50000000000E+03  0.50000000000E+03  0.00000000000E+00 0.  1.
          5    1    1    2  501    0  0.71778508728E+02  0.28686655112E+03  0.40315423541E+03  0.50000000000E+03  0.47000000000E+01 0. -1.
         -5    1    1    2    0  501 -0.71778508728E+02 -0.28686655112E+03 -0.40315423541E+03  0.50000000000E+03  0.47000000000E+01 0.  1.
</event>
<event>
 4    1  0.4924477E-004  0.1000000E+04  0.7546771E-02  0.8684367E-01
         11   -1    0    0    0    0  0.00000000000E+00  0.00000000000E+00  0.50000000000E+03  0.50000000000E+03  0.00000000000E+00 0. -1.
        -11   -1    0    0    0    0 -0.00000000000E+00 -0.00000000000E+00 -0.50000000000E+03  0.50000000000E+03  0.00000000000E+00 0.  1.
          5    1    1    2  501    0  0.23991268829E+03 -0.28035567258E+03  0.33737295216E+03  0.50000000000E+03  0.47000000000E+01 0. -1.
         -5    1    1    2    0  501 -0.23991268829E+03  0.28035567258E+03 -0.33737295216E+03  0.50000000000E+03  0.47000000000E+01 0.  1.
</event>
<event>
 4    1  0.4924477E-004  0.1000000E+04  0.7546771E-02  0.8684367E-01
         11   -1    0    0    0    0  0.00000000000E+00  0.00000000000E+00  0.50000000000E+03  0.50000000000E+03  0.00000000000E+00 0. -1.
        -11   -1    0    0    0    0 -0.00000000000E+00 -0.00000000000E+00 -0.50000000000E+03  0.50000000000E+03  0.00000000000E+00 0.  1.
          5    1    1    2  501    0 -0.43481665091E+03 -0.63706113610E+02 -0.23844060304E+03  0.50000000000E+03  0.47000000000E+01 0. -1.
         -5    1    1    2    0  501  0.43481665091E+03  0.63706113610E+02  0.23844060304E+03  0.50000000000E+03  0.47000000000E+01 0.  1.
</event>
<event>
 4    1  0.4924477E-004  0.1000000E+04  0.7546771E-02  0.8684367E-01
         11   -1    0    0    0    0  0.00000000000E+00  0.00000000000E+00  0.50000000000E+03  0.50000000000E+03  0.00000000000E+00 0. -1.
        -11   -1    0    0    0    0 -0.00000000000E+00 -0.00000000000E+00 -0.50000000000E+03  0.50000000000E+03  0.00000000000E+00 0.  1.
          5    1    1    2  501    0 -0.69269802720E+02  0.23326845628E+03  0.43676702226E+03  0.50000000000E+03  0.47000000000E+01 0. -1.
         -5    1    1    2    0  501  0.69269802720E+02 -0.23326845628E+03 -0.43676702226E+03  0.50000000000E+03  0.47000000000E+01 0.  1.
</event>
<event>
 4    1  0.4924477E-004  0.1000000E+04  0.7546771E-02  0.8684367E-01
         11   -1    0    0    0    0  0.00000000000E+00  0.00000000000E+00  0.50000000000E+03  0.50000000000E+03  0.00000000000E+00 0. -1.
        -11   -1    0    0    0    0 -0.00000000000E+00 -0.00000000000E+00 -0.50000000000E+03  0.50000000000E+03  0.00000000000E+00 0.  1.
          5    1    1    2  501    0  0.29159132015E+03 -0.32260805094E+03  0.24673154944E+03  0.50000000000E+03  0.47000000000E+01 0. -1.
         -5    1    1    2    0  501 -0.29159132015E+03  0.32260805094E+03 -0.24673154944E+03  0.50000000000E+03  0.47000000000E+01 0.  1.
</event>
<event>
 4    1  0.4924477E-004  0.1000000E+04  0.7546771E-02  0.8684367E-01
         11   -1    0    0    0    0  0.00000000000E+00  0.00000000000E+00  0.50000000000E+03  0.50000000000E+03  0.00000000000E+00 0. -1.
        -11   -1    0    0    0    0 -0.00000000000E+00 -0.00000000000E+00 -0.50000000000E+03  0.50000000000E+03  0.00000000000E+00 0.  1.
          5    1    1    2  501    0  0.15196228649E+03  0.37261317007E+03  0.29672343853E+03  0.50000000000E+03  0.47000000000E+01 0. -1.
         -5    1    1    2    0  501 -0.15196228649E+03 -0.37261317007E+03 -0.29672343853E+03  0.50000000000E+03  0.47000000000E+01 0.  1.
</event>
<event>
 4    1  0.4924477E-004  0.1000000E+04  0.7546771E-02  0.8684367E-01
         11   -1    0    0    0    0  0.00000000000E+00  0.00000000000E+00  0.50000000000E+03  0.50000000000E+03  0.00000000000E+00 0.  1.
        -11   -1    0    0    0    0 -0.00000000000E+00 -0.00000000000E+00 -0.50000000000E+03  0.50000000000E+03  0.00000000000E+00 0. -1.
          5    1    1    2  501    0  0.12917514800E+03 -0.45625712119E+03  0.15849646841E+03  0.50000000000E+03  0.47000000000E+01 0. -1.
         -5    1    1    2    0  501 -0.12917514800E+03  0.45625712119E+03 -0.15849646841E+03  0.50000000000E+03  0.47000000000E+01 0.  1.
</event>
<event>
 4    1  0.4924477E-004  0.1000000E+04  0.7546771E-02  0.8684367E-01
         11   -1    0    0    0    0  0.00000000000E+00  0.00000000000E+00  0.50000000000E+03  0.50000000000E+03  0.00000000000E+00 0. -1.
        -11   -1    0    0    0    0 -0.00000000000E+00 -0.00000000000E+00 -0.50000000000E+03  0.50000000000E+03  0.00000000000E+00 0.  1.
          5    1    1    2  501    0  0.23488253952E+03 -0.78564577725E+02  0.43432212672E+03  0.50000000000E+03  0.47000000000E+01 0. -1.
         -5    1    1    2    0  501 -0.23488253952E+03  0.78564577725E+02 -0.43432212672E+03  0.50000000000E+03  0.47000000000E+01 0.  1.
</event>
<event>
 4    1  0.4924477E-004  0.1000000E+04  0.7546771E-02  0.8684367E-01
         11   -1    0    0    0    0  0.00000000000E+00  0.00000000000E+00  0.50000000000E+03  0.50000000000E+03  0.00000000000E+00 0. -1.
        -11   -1    0    0    0    0 -0.00000000000E+00 -0.00000000000E+00 -0.50000000000E+03  0.50000000000E+03  0.00000000000E+00 0.  1.
          5    1    1    2  501    0 -0.12692438764E+03 -0.31508392992E+03  0.36686540710E+03  0.50000000000E+03  0.47000000000E+01 0. -1.
         -5    1    1    2    0  501  0.12692438764E+03  0.31508392992E+03 -0.36686540710E+03  0.50000000000E+03  0.47000000000E+01 0.  1.
</event>
<event>
 4    1  0.4924477E-004  0.1000000E+04  0.7546771E-02  0.8684367E-01
         11   -1    0    0    0    0  0.00000000000E+00  0.00000000000E+00  0.50000000000E+03  0.50000000000E+03  0.00000000000E+00 0.  1.
        -11   -1    0    0    0    0 -0.00000000000E+00 -0.00000000000E+00 -0.50000000000E+03  0.50000000000E+03  0.00000000000E+00 0. -1.
          5    1    1    2  501    0  0.11376101978E+03  0.45844043476E+03  0.16391677205E+03  0.50000000000E+03  0.47000000000E+01 0.  1.
         -5    1    1    2    0  501 -0.11376101978E+03 -0.45844043476E+03 -0.16391677205E+03  0.50000000000E+03  0.47000000000E+01 0. -1.
</event>
<event>
 4    1  0.4924477E-004  0.1000000E+04  0.7546771E-02  0.8684367E-01
         11   -1    0    0    0    0  0.00000000000E+00  0.00000000000E+00  0.50000000000E+03  0.50000000000E+03  0.00000000000E+00 0. -1.
        -11   -1    0    0    0    0 -0.00000000000E+00 -0.00000000000E+00 -0.50000000000E+03  0.50000000000E+03  0.00000000000E+00 0.  1.
          5    1    1    2  501    0 -0.75312402158E+02 -0.40519455399E+03  0.28306063925E+03  0.50000000000E+03  0.47000000000E+01 0. -1.
         -5    1    1    2    0  501  0.75312402158E+02  0.40519455399E+03 -0.28306063925E+03  0.50000000000E+03  0.47000000000E+01 0.  1.
</event>
<event>
 4    1  0.4924477E-004  0.1000000E+04  0.7546771E-02  0.8684367E-01
         11   -1    0    0    0    0  0.00000000000E+00  0.00000000000E+00  0.50000000000E+03  0.50000000000E+03  0.00000000000E+00 0. -1.
        -11   -1    0    0    0    0 -0.00000000000E+00 -0.00000000000E+00 -0.50000000000E+03  0.50000000000E+03  0.00000000000E+00 0.  1.
          5    1    1    2  501    0  0.16481325926E+03  0.46920895623E+03  0.51550508851E+02  0.50000000000E+03  0.47000000000E+01 0. -1.
         -5    1    1    2    0  501 -0.16481325926E+03 -0.46920895623E+03 -0.51550508851E+02  0.50000000000E+03  0.47000000000E+01 0.  1.
</event>
<event>
 4    1  0.4924477E-004  0.1000000E+04  0.7546771E-02  0.8684367E-01
         11   -1    0    0    0    0  0.00000000000E+00  0.00000000000E+00  0.50000000000E+03  0.50000000000E+03  0.00000000000E+00 0. -1.
        -11   -1    0    0    0    0 -0.00000000000E+00 -0.00000000000E+00 -0.50000000000E+03  0.50000000000E+03  0.00000000000E+00 0.  1.
          5    1    1    2  501    0  0.25818363220E+02 -0.25643789240E+03  0.42842844147E+03  0.50000000000E+03  0.47000000000E+01 0. -1.
         -5    1    1    2    0  501 -0.25818363220E+02  0.25643789240E+03 -0.42842844147E+03  0.50000000000E+03  0.47000000000E+01 0.  1.
</event>
<event>
 4    1  0.4924477E-004  0.1000000E+04  0.7546771E-02  0.8684367E-01
         11   -1    0    0    0    0  0.00000000000E+00  0.00000000000E+00  0.50000000000E+03  0.50000000000E+03  0.00000000000E+00 0.  1.
        -11   -1    0    0    0    0 -0.00000000000E+00 -0.00000000000E+00 -0.50000000000E+03  0.50000000000E+03  0.00000000000E+00 0. -1.
          5    1    1    2  501    0 -0.32759069119E+03 -0.84110815597E+02 -0.36822224233E+03  0.50000000000E+03  0.47000000000E+01 0. -1.
         -5    1    1    2    0  501  0.32759069119E+03  0.84110815597E+02  0.36822224233E+03  0.50000000000E+03  0.47000000000E+01 0.  1.
</event>
<event>
 4    1  0.4924477E-004  0.1000000E+04  0.7546771E-02  0.8684367E-01
         11   -1    0    0    0    0  0.00000000000E+00  0.00000000000E+00  0.50000000000E+03  0.50000000000E+03  0.00000000000E+00 0. -1.
        -11   -1    0    0    0    0 -0.00000000000E+00 -0.00000000000E+00 -0.50000000000E+03  0.50000000000E+03  0.00000000000E+00 0.  1.
          5    1    1    2  501    0  0.26185406833E+03 -0.10168234798E+03  0.41360737059E+03  0.50000000000E+03  0.47000000000E+01 0. -1.
         -5    1    1    2    0  501 -0.26185406833E+03  0.10168234798E+03 -0.41360737059E+03  0.50000000000E+03  0.47000000000E+01 0.  1.
</event>
<event>
 4    1  0.4924477E-004  0.1000000E+04  0.7546771E-02  0.8684367E-01
         11   -1    0    0    0    0  0.00000000000E+00  0.00000000000E+00  0.50000000000E+03  0.50000000000E+03  0.00000000000E+00 0. -1.
        -11   -1    0    0    0    0 -0.00000000000E+00 -0.00000000000E+00 -0.50000000000E+03  0.50000000000E+03  0.00000000000E+00 0.  1.
          5    1    1    2  501    0  0.78500726007E+02 -0.36018188115E+03  0.33776405745E+03  0.50000000000E+03  0.47000000000E+01 0. -1.
         -5    1    1    2    0  501 -0.78500726007E+02  0.36018188115E+03 -0.33776405745E+03  0.50000000000E+03  0.47000000000E+01 0.  1.
</event>
<event>
 4    1  0.4924477E-004  0.1000000E+04  0.7546771E-02  0.8684367E-01
         11   -1    0    0    0    0  0.00000000000E+00  0.00000000000E+00  0.50000000000E+03  0.50000000000E+03  0.00000000000E+00 0. -1.
        -11   -1    0    0    0    0 -0.00000000000E+00 -0.00000000000E+00 -0.50000000000E+03  0.50000000000E+03  0.00000000000E+00 0.  1.
          5    1    1    2  501    0  0.49971050906E+02  0.36766959743E+03  0.33511172943E+03  0.50000000000E+03  0.47000000000E+01 0. -1.
         -5    1    1    2    0  501 -0.49971050906E+02 -0.36766959743E+03 -0.33511172943E+03  0.50000000000E+03  0.47000000000E+01 0.  1.
</event>
<event>
 4    1  0.4924477E-004  0.1000000E+04  0.7546771E-02  0.8684367E-01
         11   -1    0    0    0    0  0.00000000000E+00  0.00000000000E+00  0.50000000000E+03  0.50000000000E+03  0.00000000000E+00 0. -1.
        -11   -1    0    0    0    0 -0.00000000000E+00 -0.00000000000E+00 -0.50000000000E+03  0.50000000000E+03  0.00000000000E+00 0.  1.
          5    1    1    2  501    0 -0.48028702337E+03  0.13048934021E+03  0.47695044515E+02  0.50000000000E+03  0.47000000000E+01 0. -1.
         -5    1    1    2    0  501  0.48028702337E+03 -0.13048934021E+03 -0.47695044515E+02  0.50000000000E+03  0.47000000000E+01 0.  1.
</event>
<event>
 4    1  0.4924477E-004  0.1000000E+04  0.7546771E-02  0.8684367E-01
         11   -1    0    0    0    0  0.00000000000E+00  0.00000000000E+00  0.50000000000E+03  0.50000000000E+03  0.00000000000E+00 0. -1.
        -11   -1    0    0    0    0 -0.00000000000E+00 -0.00000000000E+00 -0.50000000000E+03  0.50000000000E+03  0.00000000000E+00 0.  1.
          5    1    1    2  501    0  0.40468903498E+02 -0.48046917197E+03  0.13224807235E+03  0.50000000000E+03  0.47000000000E+01 0. -1.
         -5    1    1    2    0  501 -0.40468903498E+02  0.48046917197E+03 -0.13224807235E+03  0.50000000000E+03  0.47000000000E+01 0.  1.
</event>
