<event>
 5    1  0.9091923E-001  0.1000000E+03  0.7546771E-02  0.1163815E+00
         11   -1    0    0    0    0  0.00000000000E+00  0.00000000000E+00  0.50000000000E+02  0.50000000000E+02  0.00000000000E+00 0. -1.
        -11   -1    0    0    0    0 -0.00000000000E+00 -0.00000000000E+00 -0.50000000000E+02  0.50000000000E+02  0.00000000000E+00 0.  1.
         23    2    1    2    0    0  0.00000000000E+00  0.00000000000E+00  0.00000000000E+00  0.10000000000E+03  0.10000000000E+03 0.  0.
          5    1    3    3  501    0  0.35199966008E+02 -0.24429601898E+02  0.25339039922E+02  0.50000000000E+02  0.47000000000E+01 0. -1.
         -5    1    3    3    0  501 -0.35199966008E+02  0.24429601898E+02 -0.25339039922E+02  0.50000000000E+02  0.47000000000E+01 0.  1.
</event>
<event>
 5    1  0.9091923E-001  0.1000000E+03  0.7546771E-02  0.1163815E+00
         11   -1    0    0    0    0  0.00000000000E+00  0.00000000000E+00  0.50000000000E+02  0.50000000000E+02  0.00000000000E+00 0. -1.
        -11   -1    0    0    0    0 -0.00000000000E+00 -0.00000000000E+00 -0.50000000000E+02  0.50000000000E+02  0.00000000000E+00 0.  1.
         23    2    1    2    0    0  0.00000000000E+00  0.00000000000E+00  0.00000000000E+00  0.10000000000E+03  0.10000000000E+03 0.  0.
          5    1    3    3  501    0 -0.18257366672E+02 -0.32505323808E+02  0.32984579524E+02  0.50000000000E+02  0.47000000000E+01 0. -1.
         -5    1    3    3    0  501  0.18257366672E+02  0.32505323808E+02 -0.32984579524E+02  0.50000000000E+02  0.47000000000E+01 0.  1.
</event>
<event>
 5    1  0.9091923E-001  0.1000000E+03  0.7546771E-02  0.1163815E+00
         11   -1    0    0    0    0  0.00000000000E+00  0.00000000000E+00  0.50000000000E+02  0.50000000000E+02  0.00000000000E+00 0. -1.
        -11   -1    0    0    0    0 -0.00000000000E+00 -0.00000000000E+00 -0.50000000000E+02  0.50000000000E+02  0.00000000000E+00 0.  1.
         23    2    1    2    0    0  0.00000000000E+00  0.00000000000E+00  0.00000000000E+00  0.10000000000E+03  0.10000000000E+03 0.  0.
          5    1    3    3  501    0 -0.13053965378E+02 -0.14767177759E+02  0.45710331972E+02  0.50000000000E+02  0.47000000000E+01 0. -1.
         -5    1    3    3    0  501  0.13053965378E+02  0.14767177759E+02 -0.45710331972E+02  0.50000000000E+02  0.47000000000E+01 0.  1.
</event>
<event>
 5    1  0.9091923E-001  0.1000000E+03  0.7546771E-02  0.1163815E+00
         11   -1    0    0    0    0  0.00000000000E+00  0.00000000000E+00  0.50000000000E+02  0.50000000000E+02  0.00000000000E+00 0.  1.
        -11   -1    0    0    0    0 -0.00000000000E+00 -0.00000000000E+00 -0.50000000000E+02  0.50000000000E+02  0.00000000000E+00 0. -1.
         23    2    1    2    0    0  0.00000000000E+00  0.00000000000E+00  0.00000000000E+00  0.10000000000E+03  0.10000000000E+03 0.  0.
          5    1    3    3  501    0 -0.13425618192E+02 -0.20239329883E+02 -0.43451493669E+02  0.50000000000E+02  0.47000000000E+01 0. -1.
         -5    1    3    3    0  501  0.13425618192E+02  0.20239329883E+02  0.43451493669E+02  0.50000000000E+02  0.47000000000E+01 0.  1.
</event>
<event>
 5    1  0.9091923E-001  0.1000000E+03  0.7546771E-02  0.1163815E+00
         11   -1    0    0    0    0  0.00000000000E+00  0.00000000000E+00  0.50000000000E+02  0.50000000000E+02  0.00000000000E+00 0.  1.
        -11   -1    0    0    0    0 -0.00000000000E+00 -0.00000000000E+00 -0.50000000000E+02  0.50000000000E+02  0.00000000000E+00 0. -1.
         23    2    1    2    0    0  0.00000000000E+00  0.00000000000E+00  0.00000000000E+00  0.10000000000E+03  0.10000000000E+03 0.  0.
          5    1    3    3  501    0  0.16333636817E+02 -0.39403685374E+02  0.25660707068E+02  0.50000000000E+02  0.47000000000E+01 0.  1.
         -5    1    3    3    0  501 -0.16333636817E+02  0.39403685374E+02 -0.25660707068E+02  0.50000000000E+02  0.47000000000E+01 0. -1.
</event>
<event>
 5    1  0.9091923E-001  0.1000000E+03  0.7546771E-02  0.1163815E+00
         11   -1    0    0    0    0  0.00000000000E+00  0.00000000000E+00  0.50000000000E+02  0.50000000000E+02  0.00000000000E+00 0. -1.
        -11   -1    0    0    0    0 -0.00000000000E+00 -0.00000000000E+00 -0.50000000000E+02  0.50000000000E+02  0.00000000000E+00 0.  1.
         23    2    1    2    0    0  0.00000000000E+00  0.00000000000E+00  0.00000000000E+00  0.10000000000E+03  0.10000000000E+03 0.  0.
          5    1    3    3  501    0 -0.93913080743E+00  0.23087338529E+02  0.44090847497E+02  0.50000000000E+02  0.47000000000E+01 0. -1.
         -5    1    3    3    0  501  0.93913080743E+00 -0.23087338529E+02 -0.44090847497E+02  0.50000000000E+02  0.47000000000E+01 0.  1.
</event>
<event>
 5    1  0.9091923E-001  0.1000000E+03  0.7546771E-02  0.1163815E+00
         11   -1    0    0    0    0  0.00000000000E+00  0.00000000000E+00  0.50000000000E+02  0.50000000000E+02  0.00000000000E+00 0.  1.
        -11   -1    0    0    0    0 -0.00000000000E+00 -0.00000000000E+00 -0.50000000000E+02  0.50000000000E+02  0.00000000000E+00 0. -1.
         23    2    1    2    0    0  0.00000000000E+00  0.00000000000E+00  0.00000000000E+00  0.10000000000E+03  0.10000000000E+03 0.  0.
          5    1    3    3  501    0 -0.26628263675E+02  0.24315957039E+01  0.41987294697E+02  0.50000000000E+02  0.47000000000E+01 0.  1.
         -5    1    3    3    0  501  0.26628263675E+02 -0.24315957039E+01 -0.41987294697E+02  0.50000000000E+02  0.47000000000E+01 0. -1.
</event>
<event>
 5    1  0.9091923E-001  0.1000000E+03  0.7546771E-02  0.1163815E+00
         11   -1    0    0    0    0  0.00000000000E+00  0.00000000000E+00  0.50000000000E+02  0.50000000000E+02  0.00000000000E+00 0.  1.
        -11   -1    0    0    0    0 -0.00000000000E+00 -0.00000000000E+00 -0.50000000000E+02  0.50000000000E+02  0.00000000000E+00 0. -1.
         23    2    1    2    0    0  0.00000000000E+00  0.00000000000E+00  0.00000000000E+00  0.10000000000E+03  0.10000000000E+03 0.  0.
          5    1    3    3  501    0  0.84466478182E+01 -0.48451412457E+02 -0.76827580677E+01  0.50000000000E+02  0.47000000000E+01 0. -1.
         -5    1    3    3    0  501 -0.84466478182E+01  0.48451412457E+02  0.76827580677E+01  0.50000000000E+02  0.47000000000E+01 0.  1.
</event>
<event>
 5    1  0.9091923E-001  0.1000000E+03  0.7546771E-02  0.1163815E+00
         11   -1    0    0    0    0  0.00000000000E+00  0.00000000000E+00  0.50000000000E+02  0.50000000000E+02  0.00000000000E+00 0. -1.
        -11   -1    0    0    0    0 -0.00000000000E+00 -0.00000000000E+00 -0.50000000000E+02  0.50000000000E+02  0.00000000000E+00 0.  1.
         23    2    1    2    0    0  0.00000000000E+00  0.00000000000E+00  0.00000000000E+00  0.10000000000E+03  0.10000000000E+03 0.  0.
          5    1    3    3  501    0 -0.22404961118E+02  0.11454601830E+02  0.42950201562E+02  0.50000000000E+02  0.47000000000E+01 0. -1.
         -5    1    3    3    0  501  0.22404961118E+02 -0.11454601830E+02 -0.42950201562E+02  0.50000000000E+02  0.47000000000E+01 0.  1.
</event>
<event>
 5    1  0.9091923E-001  0.1000000E+03  0.7546771E-02  0.1163815E+00
         11   -1    0    0    0    0  0.00000000000E+00  0.00000000000E+00  0.50000000000E+02  0.50000000000E+02  0.00000000000E+00 0.  1.
        -11   -1    0    0    0    0 -0.00000000000E+00 -0.00000000000E+00 -0.50000000000E+02  0.50000000000E+02  0.00000000000E+00 0. -1.
         23    2    1    2    0    0  0.00000000000E+00  0.00000000000E+00  0.00000000000E+00  0.10000000000E+03  0.10000000000E+03 0.  0.
          5    1    3    3  501    0 -0.39671480965E+01  0.20047408790E+02 -0.45390231733E+02  0.50000000000E+02  0.47000000000E+01 0. -1.
         -5    1    3    3    0  501  0.39671480965E+01 -0.20047408790E+02  0.45390231733E+02  0.50000000000E+02  0.47000000000E+01 0.  1.
</event>
<event>
 5    1  0.9091923E-001  0.1000000E+03  0.7546771E-02  0.1163815E+00
         11   -1    0    0    0    0  0.00000000000E+00  0.00000000000E+00  0.50000000000E+02  0.50000000000E+02  0.00000000000E+00 0. -1.
        -11   -1    0    0    0    0 -0.00000000000E+00 -0.00000000000E+00 -0.50000000000E+02  0.50000000000E+02  0.00000000000E+00 0.  1.
         23    2    1    2    0    0  0.00000000000E+00  0.00000000000E+00  0.00000000000E+00  0.10000000000E+03  0.10000000000E+03 0.  0.
          5    1    3    3  501    0  0.19723757161E+01 -0.46103650976E+02  0.18667434230E+02  0.50000000000E+02  0.47000000000E+01 0. -1.
         -5    1    3    3    0  501 -0.19723757161E+01  0.46103650976E+02 -0.18667434230E+02  0.50000000000E+02  0.47000000000E+01 0.  1.
</event>
<event>
 5    1  0.9091923E-001  0.1000000E+03  0.7546771E-02  0.1163815E+00
         11   -1    0    0    0    0  0.00000000000E+00  0.00000000000E+00  0.50000000000E+02  0.50000000000E+02  0.00000000000E+00 0.  1.
        -11   -1    0    0    0    0 -0.00000000000E+00 -0.00000000000E+00 -0.50000000000E+02  0.50000000000E+02  0.00000000000E+00 0. -1.
         23    2    1    2    0    0  0.00000000000E+00  0.00000000000E+00  0.00000000000E+00  0.10000000000E+03  0.10000000000E+03 0.  0.
          5    1    3    3  501    0  0.37711659556E+01 -0.48526966404E+02  0.10431770651E+02  0.50000000000E+02  0.47000000000E+01 0. -1.
         -5    1    3    3    0  501 -0.37711659556E+01  0.48526966404E+02 -0.10431770651E+02  0.50000000000E+02  0.47000000000E+01 0.  1.
</event>
<event>
 5    1  0.9091923E-001  0.1000000E+03  0.7546771E-02  0.1163815E+00
         11   -1    0    0    0    0  0.00000000000E+00  0.00000000000E+00  0.50000000000E+02  0.50000000000E+02  0.00000000000E+00 0. -1.
        -11   -1    0    0    0    0 -0.00000000000E+00 -0.00000000000E+00 -0.50000000000E+02  0.50000000000E+02  0.00000000000E+00 0.  1.
         23    2    1    2    0    0  0.00000000000E+00  0.00000000000E+00  0.00000000000E+00  0.10000000000E+03  0.10000000000E+03 0.  0.
          5    1    3    3  501    0 -0.14219167897E+02  0.14324381984E+02  0.45503157529E+02  0.50000000000E+02  0.47000000000E+01 0. -1.
         -5    1    3    3    0  501  0.14219167897E+02 -0.14324381984E+02 -0.45503157529E+02  0.50000000000E+02  0.47000000000E+01 0.  1.
</event>
<event>
 5    1  0.9091923E-001  0.1000000E+03  0.7546771E-02  0.1163815E+00
         11   -1    0    0    0    0  0.00000000000E+00  0.00000000000E+00  0.50000000000E+02  0.50000000000E+02  0.00000000000E+00 0. -1.
        -11   -1    0    0    0    0 -0.00000000000E+00 -0.00000000000E+00 -0.50000000000E+02  0.50000000000E+02  0.00000000000E+00 0.  1.
         23    2    1    2    0    0  0.00000000000E+00  0.00000000000E+00  0.00000000000E+00  0.10000000000E+03  0.10000000000E+03 0.  0.
          5    1    3    3  501    0 -0.71809243808E+01 -0.19093084030E+02  0.45407031033E+02  0.50000000000E+02  0.47000000000E+01 0. -1.
         -5    1    3    3    0  501  0.71809243808E+01  0.19093084030E+02 -0.45407031033E+02  0.50000000000E+02  0.47000000000E+01 0.  1.
</event>
<event>
 5    1  0.9091923E-001  0.1000000E+03  0.7546771E-02  0.1163815E+00
         11   -1    0    0    0    0  0.00000000000E+00  0.00000000000E+00  0.50000000000E+02  0.50000000000E+02  0.00000000000E+00 0. -1.
        -11   -1    0    0    0    0 -0.00000000000E+00 -0.00000000000E+00 -0.50000000000E+02  0.50000000000E+02  0.00000000000E+00 0.  1.
         23    2    1    2    0    0  0.00000000000E+00  0.00000000000E+00  0.00000000000E+00  0.10000000000E+03  0.10000000000E+03 0.  0.
          5    1    3    3  501    0  0.19634451702E+02 -0.18316813039E+02  0.41915303488E+02  0.50000000000E+02  0.47000000000E+01 0. -1.
         -5    1    3    3    0  501 -0.19634451702E+02  0.18316813039E+02 -0.41915303488E+02  0.50000000000E+02  0.47000000000E+01 0.  1.
</event>
<event>
 5    1  0.9091923E-001  0.1000000E+03  0.7546771E-02  0.1163815E+00
         11   -1    0    0    0    0  0.00000000000E+00  0.00000000000E+00  0.50000000000E+02  0.50000000000E+02  0.00000000000E+00 0. -1.
        -11   -1    0    0    0    0 -0.00000000000E+00 -0.00000000000E+00 -0.50000000000E+02  0.50000000000E+02  0.00000000000E+00 0.  1.
         23    2    1    2    0    0  0.00000000000E+00  0.00000000000E+00  0.00000000000E+00  0.10000000000E+03  0.10000000000E+03 0.  0.
          5    1    3    3  501    0 -0.27776633859E+02 -0.35696935875E+02  0.20786952173E+02  0.50000000000E+02  0.47000000000E+01 0. -1.
         -5    1    3    3    0  501  0.27776633859E+02  0.35696935875E+02 -0.20786952173E+02  0.50000000000E+02  0.47000000000E+01 0.  1.
</event>
<event>
 5    1  0.9091923E-001  0.1000000E+03  0.7546771E-02  0.1163815E+00
         11   -1    0    0    0    0  0.00000000000E+00  0.00000000000E+00  0.50000000000E+02  0.50000000000E+02  0.00000000000E+00 0.  1.
        -11   -1    0    0    0    0 -0.00000000000E+00 -0.00000000000E+00 -0.50000000000E+02  0.50000000000E+02  0.00000000000E+00 0. -1.
         23    2    1    2    0    0  0.00000000000E+00  0.00000000000E+00  0.00000000000E+00  0.10000000000E+03  0.10000000000E+03 0.  0.
          5    1    3    3  501    0 -0.12465284225E+02  0.19142142382E+02 -0.44227876664E+02  0.50000000000E+02  0.47000000000E+01 0. -1.
         -5    1    3    3    0  501  0.12465284225E+02 -0.19142142382E+02  0.44227876664E+02  0.50000000000E+02  0.47000000000E+01 0.  1.
</event>
<event>
 5    1  0.9091923E-001  0.1000000E+03  0.7546771E-02  0.1163815E+00
         11   -1    0    0    0    0  0.00000000000E+00  0.00000000000E+00  0.50000000000E+02  0.50000000000E+02  0.00000000000E+00 0. -1.
        -11   -1    0    0    0    0 -0.00000000000E+00 -0.00000000000E+00 -0.50000000000E+02  0.50000000000E+02  0.00000000000E+00 0.  1.
         23    2    1    2    0    0  0.00000000000E+00  0.00000000000E+00  0.00000000000E+00  0.10000000000E+03  0.10000000000E+03 0.  0.
          5    1    3    3  501    0  0.18069428059E+02  0.43091231732E+02  0.17162503238E+02  0.50000000000E+02  0.47000000000E+01 0. -1.
         -5    1    3    3    0  501 -0.18069428059E+02 -0.43091231732E+02 -0.17162503238E+02  0.50000000000E+02  0.47000000000E+01 0.  1.
</event>
<event>
 5    1  0.9091923E-001  0.1000000E+03  0.7546771E-02  0.1163815E+00
         11   -1    0    0    0    0  0.00000000000E+00  0.00000000000E+00  0.50000000000E+02  0.50000000000E+02  0.00000000000E+00 0.  1.
        -11   -1    0    0    0    0 -0.00000000000E+00 -0.00000000000E+00 -0.50000000000E+02  0.50000000000E+02  0.00000000000E+00 0. -1.
         23    2    1    2    0    0  0.00000000000E+00  0.00000000000E+00  0.00000000000E+00  0.10000000000E+03  0.10000000000E+03 0.  0.
          5    1    3    3  501    0 -0.14955019425E+02 -0.45313776729E+02 -0.14174591090E+02  0.50000000000E+02  0.47000000000E+01 0. -1.
         -5    1    3    3    0  501  0.14955019425E+02  0.45313776729E+02  0.14174591090E+02  0.50000000000E+02  0.47000000000E+01 0.  1.
</event>
<event>
 5    1  0.9091923E-001  0.1000000E+03  0.7546771E-02  0.1163815E+00
         11   -1    0    0    0    0  0.00000000000E+00  0.00000000000E+00  0.50000000000E+02  0.50000000000E+02  0.00000000000E+00 0. -1.
        -11   -1    0    0    0    0 -0.00000000000E+00 -0.00000000000E+00 -0.50000000000E+02  0.50000000000E+02  0.00000000000E+00 0.  1.
         23    2    1    2    0    0  0.00000000000E+00  0.00000000000E+00  0.00000000000E+00  0.10000000000E+03  0.10000000000E+03 0.  0.
          5    1    3    3  501    0 -0.41746307950E+02  0.24115045977E+02  0.12394366869E+02  0.50000000000E+02  0.47000000000E+01 0. -1.
         -5    1    3    3    0  501  0.41746307950E+02 -0.24115045977E+02 -0.12394366869E+02  0.50000000000E+02  0.47000000000E+01 0.  1.
</event>
<event>
 5    1  0.9091923E-001  0.1000000E+03  0.7546771E-02  0.1163815E+00
         11   -1    0    0    0    0  0.00000000000E+00  0.00000000000E+00  0.50000000000E+02  0.50000000000E+02  0.00000000000E+00 0.  1.
        -11   -1    0    0    0    0 -0.00000000000E+00 -0.00000000000E+00 -0.50000000000E+02  0.50000000000E+02  0.00000000000E+00 0. -1.
         23    2    1    2    0    0  0.00000000000E+00  0.00000000000E+00  0.00000000000E+00  0.10000000000E+03  0.10000000000E+03 0.  0.
          5    1    3    3  501    0  0.56200441960E+01 -0.16603430139E+02 -0.46590248023E+02  0.50000000000E+02  0.47000000000E+01 0. -1.
         -5    1    3    3    0  501 -0.56200441960E+01  0.16603430139E+02  0.46590248023E+02  0.50000000000E+02  0.47000000000E+01 0.  1.
</event>
<event>
 5    1  0.9091923E-001  0.1000000E+03  0.7546771E-02  0.1163815E+00
         11   -1    0    0    0    0  0.00000000000E+00  0.00000000000E+00  0.50000000000E+02  0.50000000000E+02  0.00000000000E+00 0. -1.
        -11   -1    0    0    0    0 -0.00000000000E+00 -0.00000000000E+00 -0.50000000000E+02  0.50000000000E+02  0.00000000000E+00 0.  1.
         23    2    1    2    0    0  0.00000000000E+00  0.00000000000E+00  0.00000000000E+00  0.10000000000E+03  0.10000000000E+03 0.  0.
          5    1    3    3  501    0 -0.61625946206E+01  0.29164060789E+02  0.39867154223E+02  0.50000000000E+02  0.47000000000E+01 0. -1.
         -5    1    3    3    0  501  0.61625946206E+01 -0.29164060789E+02 -0.39867154223E+02  0.50000000000E+02  0.47000000000E+01 0.  1.
</event>
<event>
 5    1  0.9091923E-001  0.1000000E+03  0.7546771E-02  0.1163815E+00
         11   -1    0    0    0    0  0.00000000000E+00  0.00000000000E+00  0.50000000000E+02  0.50000000000E+02  0.00000000000E+00 0. -1.
        -11   -1    0    0    0    0 -0.00000000000E+00 -0.00000000000E+00 -0.50000000000E+02  0.50000000000E+02  0.00000000000E+00 0.  1.
         23    2    1    2    0    0  0.00000000000E+00  0.00000000000E+00  0.00000000000E+00  0.10000000000E+03  0.10000000000E+03 0.  0.
          5    1    3    3  501    0  0.37970939554E+02 -0.13528107879E+02  0.29208013397E+02  0.50000000000E+02  0.47000000000E+01 0. -1.
         -5    1    3    3    0  501 -0.37970939554E+02  0.13528107879E+02 -0.29208013397E+02  0.50000000000E+02  0.47000000000E+01 0.  1.
</event>
<event>
 5    1  0.9091923E-001  0.1000000E+03  0.7546771E-02  0.1163815E+00
         11   -1    0    0    0    0  0.00000000000E+00  0.00000000000E+00  0.50000000000E+02  0.50000000000E+02  0.00000000000E+00 0. -1.
        -11   -1    0    0    0    0 -0.00000000000E+00 -0.00000000000E+00 -0.50000000000E+02  0.50000000000E+02  0.00000000000E+00 0.  1.
         23    2    1    2    0    0  0.00000000000E+00  0.00000000000E+00  0.00000000000E+00  0.10000000000E+03  0.10000000000E+03 0.  0.
          5    1    3    3  501    0 -0.38049824567E+02 -0.30814457588E+02  0.89771963340E+01  0.50000000000E+02  0.47000000000E+01 0. -1.
         -5    1    3    3    0  501  0.38049824567E+02  0.30814457588E+02 -0.89771963340E+01  0.50000000000E+02  0.47000000000E+01 0.  1.
</event>
<event>
 5    1  0.9091923E-001  0.1000000E+03  0.7546771E-02  0.1163815E+00
         11   -1    0    0    0    0  0.00000000000E+00  0.00000000000E+00  0.50000000000E+02  0.50000000000E+02  0.00000000000E+00 0. -1.
        -11   -1    0    0    0    0 -0.00000000000E+00 -0.00000000000E+00 -0.50000000000E+02  0.50000000000E+02  0.00000000000E+00 0.  1.
         23    2    1    2    0    0  0.00000000000E+00  0.00000000000E+00  0.00000000000E+00  0.10000000000E+03  0.10000000000E+03 0.  0.
          5    1    3    3  501    0  0.30117570671E+02 -0.38382934830E+02  0.98788790220E+01  0.50000000000E+02  0.47000000000E+01 0. -1.
         -5    1    3    3    0  501 -0.30117570671E+02  0.38382934830E+02 -0.98788790220E+01  0.50000000000E+02  0.47000000000E+01 0.  1.
</event>
<event>
 5    1  0.9091923E-001  0.1000000E+03  0.7546771E-02  0.1163815E+00
         11   -1    0    0    0    0  0.00000000000E+00  0.00000000000E+00  0.50000000000E+02  0.50000000000E+02  0.00000000000E+00 0.  1.
        -11   -1    0    0    0    0 -0.00000000000E+00 -0.00000000000E+00 -0.50000000000E+02  0.50000000000E+02  0.00000000000E+00 0. -1.
         23    2    1    2    0    0  0.00000000000E+00  0.00000000000E+00  0.00000000000E+00  0.10000000000E+03  0.10000000000E+03 0.  0.
          5    1    3    3  501    0 -0.29138422357E+02  0.25089235394E+02 -0.31613171463E+02  0.50000000000E+02  0.47000000000E+01 0. -1.
         -5    1    3    3    0  501  0.29138422357E+02 -0.25089235394E+02  0.31613171463E+02  0.50000000000E+02  0.47000000000E+01 0.  1.
</event>
<event>
 5    1  0.9091923E-001  0.1000000E+03  0.7546771E-02  0.1163815E+00
         11   -1    0    0    0    0  0.00000000000E+00  0.00000000000E+00  0.50000000000E+02  0.50000000000E+02  0.00000000000E+00 0. -1.
        -11   -1    0    0    0    0 -0.00000000000E+00 -0.00000000000E+00 -0.50000000000E+02  0.50000000000E+02  0.00000000000E+00 0.  1.
         23    2    1    2    0    0  0.00000000000E+00  0.00000000000E+00  0.00000000000E+00  0.10000000000E+03  0.10000000000E+03 0.  0.
          5    1    3    3  501    0 -0.22796651216E+02 -0.43455168030E+02 -0.83588913645E+01  0.50000000000E+02  0.47000000000E+01 0. -1.
         -5    1    3    3    0  501  0.22796651216E+02  0.43455168030E+02  0.83588913645E+01  0.50000000000E+02  0.47000000000E+01 0.  1.
</event>
<event>
 5    1  0.9091923E-001  0.1000000E+03  0.7546771E-02  0.1163815E+00
         11   -1    0    0    0    0  0.00000000000E+00  0.00000000000E+00  0.50000000000E+02  0.50000000000E+02  0.00000000000E+00 0. -1.
        -11   -1    0    0    0    0 -0.00000000000E+00 -0.00000000000E+00 -0.50000000000E+02  0.50000000000E+02  0.00000000000E+00 0.  1.
         23    2    1    2    0    0  0.00000000000E+00  0.00000000000E+00  0.00000000000E+00  0.10000000000E+03  0.10000000000E+03 0.  0.
          5    1    3    3  501    0 -0.43128290910E+02 -0.27588248411E+01  0.24703226686E+02  0.50000000000E+02  0.47000000000E+01 0. -1.
         -5    1    3    3    0  501  0.43128290910E+02  0.27588248411E+01 -0.24703226686E+02  0.50000000000E+02  0.47000000000E+01 0.  1.
</event>
<event>
 5    1  0.9091923E-001  0.1000000E+03  0.7546771E-02  0.1163815E+00
         11   -1    0    0    0    0  0.00000000000E+00  0.00000000000E+00  0.50000000000E+02  0.50000000000E+02  0.00000000000E+00 0. -1.
        -11   -1    0    0    0    0 -0.00000000000E+00 -0.00000000000E+00 -0.50000000000E+02  0.50000000000E+02  0.00000000000E+00 0.  1.
         23    2    1    2    0    0  0.00000000000E+00  0.00000000000E+00  0.00000000000E+00  0.10000000000E+03  0.10000000000E+03 0.  0.
          5    1    3    3  501    0  0.33105969276E+02 -0.13358033388E+02  0.34691032592E+02  0.50000000000E+02  0.47000000000E+01 0. -1.
         -5    1    3    3    0  501 -0.33105969276E+02  0.13358033388E+02 -0.34691032592E+02  0.50000000000E+02  0.47000000000E+01 0.  1.
</event>
<event>
 5    1  0.9091923E-001  0.1000000E+03  0.7546771E-02  0.1163815E+00
         11   -1    0    0    0    0  0.00000000000E+00  0.00000000000E+00  0.50000000000E+02  0.50000000000E+02  0.00000000000E+00 0. -1.
        -11   -1    0    0    0    0 -0.00000000000E+00 -0.00000000000E+00 -0.50000000000E+02  0.50000000000E+02  0.00000000000E+00 0.  1.
         23    2    1    2    0    0  0.00000000000E+00  0.00000000000E+00  0.00000000000E+00  0.10000000000E+03  0.10000000000E+03 0.  0.
          5    1    3    3  501    0  0.48226356730E+02 -0.11065896146E+02  0.54474268259E+01  0.50000000000E+02  0.47000000000E+01 0. -1.
         -5    1    3    3    0  501 -0.48226356730E+02  0.11065896146E+02 -0.54474268259E+01  0.50000000000E+02  0.47000000000E+01 0.  1.
</event>
<event>
 5    1  0.9091923E-001  0.1000000E+03  0.7546771E-02  0.1163815E+00
         11   -1    0    0    0    0  0.00000000000E+00  0.00000000000E+00  0.50000000000E+02  0.50000000000E+02  0.00000000000E+00 0.  1.
        -11   -1    0    0    0    0 -0.00000000000E+00 -0.00000000000E+00 -0.50000000000E+02  0.50000000000E+02  0.00000000000E+00 0. -1.
         23    2    1    2    0    0  0.00000000000E+00  0.00000000000E+00  0.00000000000E+00  0.10000000000E+03  0.10000000000E+03 0.  0.
          5    1    3    3  501    0 -0.13659110738E+01  0.12131166227E+01 -0.49745076490E+02  0.50000000000E+02  0.47000000000E+01 0. -1.
         -5    1    3    3    0  501  0.13659110738E+01 -0.12131166227E+01  0.49745076490E+02  0.50000000000E+02  0.47000000000E+01 0.  1.
</event>
<event>
 5    1  0.9091923E-001  0.1000000E+03  0.7546771E-02  0.1163815E+00
         11   -1    0    0    0    0  0.00000000000E+00  0.00000000000E+00  0.50000000000E+02  0.50000000000E+02  0.00000000000E+00 0.  1.
        -11   -1    0    0    0    0 -0.00000000000E+00 -0.00000000000E+00 -0.50000000000E+02  0.50000000000E+02  0.00000000000E+00 0. -1.
         23    2    1    2    0    0  0.00000000000E+00  0.00000000000E+00  0.00000000000E+00  0.10000000000E+03  0.10000000000E+03 0.  0.
          5    1    3    3  501    0 -0.14930332685E+01  0.42659996425E+02 -0.25608700800E+02  0.50000000000E+02  0.47000000000E+01 0. -1.
         -5    1    3    3    0  501  0.14930332685E+01 -0.42659996425E+02  0.25608700800E+02  0.50000000000E+02  0.47000000000E+01 0.  1.
</event>
<event>
 5    1  0.9091923E-001  0.1000000E+03  0.7546771E-02  0.1163815E+00
         11   -1    0    0    0    0  0.00000000000E+00  0.00000000000E+00  0.50000000000E+02  0.50000000000E+02  0.00000000000E+00 0. -1.
        -11   -1    0    0    0    0 -0.00000000000E+00 -0.00000000000E+00 -0.50000000000E+02  0.50000000000E+02  0.00000000000E+00 0.  1.
         23    2    1    2    0    0  0.00000000000E+00  0.00000000000E+00  0.00000000000E+00  0.10000000000E+03  0.10000000000E+03 0.  0.
          5    1    3    3  501    0 -0.25450577797E+02  0.29258147745E+02  0.31211197996E+02  0.50000000000E+02  0.47000000000E+01 0. -1.
         -5    1    3    3    0  501  0.25450577797E+02 -0.29258147745E+02 -0.31211197996E+02  0.50000000000E+02  0.47000000000E+01 0.  1.
</event>
<event>
 5    1  0.9091923E-001  0.1000000E+03  0.7546771E-02  0.1163815E+00
         11   -1    0    0    0    0  0.00000000000E+00  0.00000000000E+00  0.50000000000E+02  0.50000000000E+02  0.00000000000E+00 0.  1.
        -11   -1    0    0    0    0 -0.00000000000E+00 -0.00000000000E+00 -0.50000000000E+02  0.50000000000E+02  0.00000000000E+00 0. -1.
         23    2    1    2    0    0  0.00000000000E+00  0.00000000000E+00  0.00000000000E+00  0.10000000000E+03  0.10000000000E+03 0.  0.
          5    1    3    3  501    0 -0.11189677431E+02 -0.44910517085E+01 -0.48296289439E+02  0.50000000000E+02  0.47000000000E+01 0. -1.
         -5    1    3    3    0  501  0.11189677431E+02  0.44910517085E+01  0.48296289439E+02  0.50000000000E+02  0.47000000000E+01 0.  1.
</event>
<event>
 5    1  0.9091923E-001  0.1000000E+03  0.7546771E-02  0.1163815E+00
         11   -1    0    0    0    0  0.00000000000E+00  0.00000000000E+00  0.50000000000E+02  0.50000000000E+02  0.00000000000E+00 0. -1.
        -11   -1    0    0    0    0 -0.00000000000E+00 -0.00000000000E+00 -0.50000000000E+02  0.50000000000E+02  0.00000000000E+00 0.  1.
         23    2    1    2    0    0  0.00000000000E+00  0.00000000000E+00  0.00000000000E+00  0.10000000000E+03  0.10000000000E+03 0.  0.
          5    1    3    3  501    0 -0.48380445773E+02  0.10487456430E+02 -0.52207015222E+01  0.50000000000E+02  0.47000000000E+01 0. -1.
         -5    1    3    3    0  501  0.48380445773E+02 -0.10487456430E+02  0.52207015222E+01  0.50000000000E+02  0.47000000000E+01 0.  1.
</event>
<event>
 5    1  0.9091923E-001  0.1000000E+03  0.7546771E-02  0.1163815E+00
         11   -1    0    0    0    0  0.00000000000E+00  0.00000000000E+00  0.50000000000E+02  0.50000000000E+02  0.00000000000E+00 0.  1.
        -11   -1    0    0    0    0 -0.00000000000E+00 -0.00000000000E+00 -0.50000000000E+02  0.50000000000E+02  0.00000000000E+00 0. -1.
         23    2    1    2    0    0  0.00000000000E+00  0.00000000000E+00  0.00000000000E+00  0.10000000000E+03  0.10000000000E+03 0.  0.
          5    1    3    3  501    0  0.12436718233E+02 -0.44472290572E+02 -0.18586377024E+02  0.50000000000E+02  0.47000000000E+01 0. -1.
         -5    1    3    3    0  501 -0.12436718233E+02  0.44472290572E+02  0.18586377024E+02  0.50000000000E+02  0.47000000000E+01 0.  1.
</event>
<event>
 5    1  0.9091923E-001  0.1000000E+03  0.7546771E-02  0.1163815E+00
         11   -1    0    0    0    0  0.00000000000E+00  0.00000000000E+00  0.50000000000E+02  0.50000000000E+02  0.00000000000E+00 0. -1.
        -11   -1    0    0    0    0 -0.00000000000E+00 -0.00000000000E+00 -0.50000000000E+02  0.50000000000E+02  0.00000000000E+00 0.  1.
         23    2    1    2    0    0  0.00000000000E+00  0.00000000000E+00  0.00000000000E+00  0.10000000000E+03  0.10000000000E+03 0.  0.
          5    1    3    3  501    0 -0.21676360252E+02  0.42193753992E+02 -0.15090809464E+02  0.50000000000E+02  0.47000000000E+01 0. -1.
         -5    1    3    3    0  501  0.21676360252E+02 -0.42193753992E+02  0.15090809464E+02  0.50000000000E+02  0.47000000000E+01 0.  1.
</event>
<event>
 5    1  0.9091923E-001  0.1000000E+03  0.7546771E-02  0.1163815E+00
         11   -1    0    0    0    0  0.00000000000E+00  0.00000000000E+00  0.50000000000E+02  0.50000000000E+02  0.00000000000E+00 0. -1.
        -11   -1    0    0    0    0 -0.00000000000E+00 -0.00000000000E+00 -0.50000000000E+02  0.50000000000E+02  0.00000000000E+00 0.  1.
         23    2    1    2    0    0  0.00000000000E+00  0.00000000000E+00  0.00000000000E+00  0.10000000000E+03  0.10000000000E+03 0.  0.
          5    1    3    3  501    0 -0.35751223006E+02  0.32073363019E+02 -0.13078969309E+02  0.50000000000E+02  0.47000000000E+01 0. -1.
         -5    1    3    3    0  501  0.35751223006E+02 -0.32073363019E+02  0.13078969309E+02  0.50000000000E+02  0.47000000000E+01 0.  1.
</event>
<event>
 5    1  0.9091923E-001  0.1000000E+03  0.7546771E-02  0.1163815E+00
         11   -1    0    0    0    0  0.00000000000E+00  0.00000000000E+00  0.50000000000E+02  0.50000000000E+02  0.00000000000E+00 0. -1.
        -11   -1    0    0    0    0 -0.00000000000E+00 -0.00000000000E+00 -0.50000000000E+02  0.50000000000E+02  0.00000000000E+00 0.  1.
         23    2    1    2    0    0  0.00000000000E+00  0.00000000000E+00  0.00000000000E+00  0.10000000000E+03  0.10000000000E+03 0.  0.
          5    1    3    3  501    0  0.49035397830E+02  0.51509021778E+01  0.68489390745E+01  0.50000000000E+02  0.47000000000E+01 0. -1.
         -5    1    3    3    0  501 -0.49035397830E+02 -0.51509021778E+01 -0.68489390745E+01  0.50000000000E+02  0.47000000000E+01 0.  1.
</event>
<event>
 5    1  0.9091923E-001  0.1000000E+03  0.7546771E-02  0.1163815E+00
         11   -1    0    0    0    0  0.00000000000E+00  0.00000000000E+00  0.50000000000E+02  0.50000000000E+02  0.00000000000E+00 0.  1.
        -11   -1    0    0    0    0 -0.00000000000E+00 -0.00000000000E+00 -0.50000000000E+02  0.50000000000E+02  0.00000000000E+00 0. -1.
         23    2    1    2    0    0  0.00000000000E+00  0.00000000000E+00  0.00000000000E+00  0.10000000000E+03  0.10000000000E+03 0.  0.
          5    1    3    3  501    0  0.23067619253E+02  0.42903627031E+02 -0.10250547768E+02  0.50000000000E+02  0.47000000000E+01 0. -1.
         -5    1    3    3    0  501 -0.23067619253E+02 -0.42903627031E+02  0.10250547768E+02  0.50000000000E+02  0.47000000000E+01 0.  1.
</event>
<event>
 5    1  0.9091923E-001  0.1000000E+03  0.7546771E-02  0.1163815E+00
         11   -1    0    0    0    0  0.00000000000E+00  0.00000000000E+00  0.50000000000E+02  0.50000000000E+02  0.00000000000E+00 0. -1.
        -11   -1    0    0    0    0 -0.00000000000E+00 -0.00000000000E+00 -0.50000000000E+02  0.50000000000E+02  0.00000000000E+00 0.  1.
         23    2    1    2    0    0  0.00000000000E+00  0.00000000000E+00  0.00000000000E+00  0.10000000000E+03  0.10000000000E+03 0.  0.
          5    1    3    3  501    0  0.96180231406E+01  0.39549726828E+02  0.28656984118E+02  0.50000000000E+02  0.47000000000E+01 0. -1.
         -5    1    3    3    0  501 -0.96180231406E+01 -0.39549726828E+02 -0.28656984118E+02  0.50000000000E+02  0.47000000000E+01 0.  1.
</event>
<event>
 5    1  0.9091923E-001  0.1000000E+03  0.7546771E-02  0.1163815E+00
         11   -1    0    0    0    0  0.00000000000E+00  0.00000000000E+00  0.50000000000E+02  0.50000000000E+02  0.00000000000E+00 0. -1.
        -11   -1    0    0    0    0 -0.00000000000E+00 -0.00000000000E+00 -0.50000000000E+02  0.50000000000E+02  0.00000000000E+00 0.  1.
         23    2    1    2    0    0  0.00000000000E+00  0.00000000000E+00  0.00000000000E+00  0.10000000000E+03  0.10000000000E+03 0.  0.
          5    1    3    3  501    0 -0.41574359325E+02 -0.27106801304E+02  0.38345755662E+01  0.50000000000E+02  0.47000000000E+01 0. -1.
         -5    1    3    3    0  501  0.41574359325E+02  0.27106801304E+02 -0.38345755662E+01  0.50000000000E+02  0.47000000000E+01 0.  1.
</event>
<event>
 5    1  0.9091923E-001  0.1000000E+03  0.7546771E-02  0.1163815E+00
         11   -1    0    0    0    0  0.00000000000E+00  0.00000000000E+00  0.50000000000E+02  0.50000000000E+02  0.00000000000E+00 0.  1.
        -11   -1    0    0    0    0 -0.00000000000E+00 -0.00000000000E+00 -0.50000000000E+02  0.50000000000E+02  0.00000000000E+00 0. -1.
         23    2    1    2    0    0  0.00000000000E+00  0.00000000000E+00  0.00000000000E+00  0.10000000000E+03  0.10000000000E+03 0.  0.
          5    1    3    3  501    0  0.63018274839E+01 -0.49347535472E+02 -0.17371566549E+01  0.50000000000E+02  0.47000000000E+01 0. -1.
         -5    1    3    3    0  501 -0.63018274839E+01  0.49347535472E+02  0.17371566549E+01  0.50000000000E+02  0.47000000000E+01 0.  1.
</event>
<event>
 5    1  0.9091923E-001  0.1000000E+03  0.7546771E-02  0.1163815E+00
         11   -1    0    0    0    0  0.00000000000E+00  0.00000000000E+00  0.50000000000E+02  0.50000000000E+02  0.00000000000E+00 0.  1.
        -11   -1    0    0    0    0 -0.00000000000E+00 -0.00000000000E+00 -0.50000000000E+02  0.50000000000E+02  0.00000000000E+00 0. -1.
         23    2    1    2    0    0  0.00000000000E+00  0.00000000000E+00  0.00000000000E+00  0.10000000000E+03  0.10000000000E+03 0.  0.
          5    1    3    3  501    0 -0.16217702401E+02  0.46164009016E+02  0.91531634101E+01  0.50000000000E+02  0.47000000000E+01 0. -1.
         -5    1    3    3    0  501  0.16217702401E+02 -0.46164009016E+02 -0.91531634101E+01  0.50000000000E+02  0.47000000000E+01 0.  1.
</event>
<event>
 5    1  0.9091923E-001  0.1000000E+03  0.7546771E-02  0.1163815E+00
         11   -1    0    0    0    0  0.00000000000E+00  0.00000000000E+00  0.50000000000E+02  0.50000000000E+02  0.00000000000E+00 0.  1.
        -11   -1    0    0    0    0 -0.00000000000E+00 -0.00000000000E+00 -0.50000000000E+02  0.50000000000E+02  0.00000000000E+00 0. -1.
         23    2    1    2    0    0  0.00000000000E+00  0.00000000000E+00  0.00000000000E+00  0.10000000000E+03  0.10000000000E+03 0.  0.
          5    1    3    3  501    0 -0.15389412943E+02  0.33419430740E+02 -0.33529354576E+02  0.50000000000E+02  0.47000000000E+01 0. -1.
         -5    1    3    3    0  501  0.15389412943E+02 -0.33419430740E+02  0.33529354576E+02  0.50000000000E+02  0.47000000000E+01 0.  1.
</event>
<event>
 5    1  0.9091923E-001  0.1000000E+03  0.7546771E-02  0.1163815E+00
         11   -1    0    0    0    0  0.00000000000E+00  0.00000000000E+00  0.50000000000E+02  0.50000000000E+02  0.00000000000E+00 0. -1.
        -11   -1    0    0    0    0 -0.00000000000E+00 -0.00000000000E+00 -0.50000000000E+02  0.50000000000E+02  0.00000000000E+00 0.  1.
         23    2    1    2    0    0  0.00000000000E+00  0.00000000000E+00  0.00000000000E+00  0.10000000000E+03  0.10000000000E+03 0.  0.
          5    1    3    3  501    0  0.68369464736E+01 -0.50177013833E+01  0.49050880071E+02  0.50000000000E+02  0.47000000000E+01 0. -1.
         -5    1    3    3    0  501 -0.68369464736E+01  0.50177013833E+01 -0.49050880071E+02  0.50000000000E+02  0.47000000000E+01 0.  1.
</event>
<event>
 5    1  0.9091923E-001  0.1000000E+03  0.7546771E-02  0.1163815E+00
         11   -1    0    0    0    0  0.00000000000E+00  0.00000000000E+00  0.50000000000E+02  0.50000000000E+02  0.00000000000E+00 0. -1.
        -11   -1    0    0    0    0 -0.00000000000E+00 -0.00000000000E+00 -0.50000000000E+02  0.50000000000E+02  0.00000000000E+00 0.  1.
         23    2    1    2    0    0  0.00000000000E+00  0.00000000000E+00  0.00000000000E+00  0.10000000000E+03  0.10000000000E+03 0.  0.
          5    1    3    3  501    0  0.72575017402E+01  0.19650696150E+02  0.45156270985E+02  0.50000000000E+02  0.47000000000E+01 0. -1.
         -5    1    3    3    0  501 -0.72575017402E+01 -0.19650696150E+02 -0.45156270985E+02  0.50000000000E+02  0.47000000000E+01 0.  1.
</event>
<event>
 5    1  0.9091923E-001  0.1000000E+03  0.7546771E-02  0.1163815E+00
         11   -1    0    0    0    0  0.00000000000E+00  0.00000000000E+00  0.50000000000E+02  0.50000000000E+02  0.00000000000E+00 0. -1.
        -11   -1    0    0    0    0 -0.00000000000E+00 -0.00000000000E+00 -0.50000000000E+02  0.50000000000E+02  0.00000000000E+00 0.  1.
         23    2    1    2    0    0  0.00000000000E+00  0.00000000000E+00  0.00000000000E+00  0.10000000000E+03  0.10000000000E+03 0.  0.
          5    1    3    3  501    0 -0.17210403799E+02 -0.38150459769E+02 -0.26949107972E+02  0.50000000000E+02  0.47000000000E+01 0. -1.
         -5    1    3    3    0  501  0.17210403799E+02  0.38150459769E+02  0.26949107972E+02  0.50000000000E+02  0.47000000000E+01 0.  1.
</event>
<event>
 5    1  0.9091923E-001  0.1000000E+03  0.7546771E-02  0.1163815E+00
         11   -1    0    0    0    0  0.00000000000E+00  0.00000000000E+00  0.50000000000E+02  0.50000000000E+02  0.00000000000E+00 0.  1.
        -11   -1    0    0    0    0 -0.00000000000E+00 -0.00000000000E+00 -0.50000000000E+02  0.50000000000E+02  0.00000000000E+00 0. -1.
         23    2    1    2    0    0  0.00000000000E+00  0.00000000000E+00  0.00000000000E+00  0.10000000000E+03  0.10000000000E+03 0.  0.
          5    1    3    3  501    0 -0.62169557992E+00  0.42930178594E+02 -0.25189745146E+02  0.50000000000E+02  0.47000000000E+01 0. -1.
         -5    1    3    3    0  501  0.62169557992E+00 -0.42930178594E+02  0.25189745146E+02  0.50000000000E+02  0.47000000000E+01 0.  1.
</event>
<event>
 5    1  0.9091923E-001  0.1000000E+03  0.7546771E-02  0.1163815E+00
         11   -1    0    0    0    0  0.00000000000E+00  0.00000000000E+00  0.50000000000E+02  0.50000000000E+02  0.00000000000E+00 0. -1.
        -11   -1    0    0    0    0 -0.00000000000E+00 -0.00000000000E+00 -0.50000000000E+02  0.50000000000E+02  0.00000000000E+00 0.  1.
         23    2    1    2    0    0  0.00000000000E+00  0.00000000000E+00  0.00000000000E+00  0.10000000000E+03  0.10000000000E+03 0.  0.
          5    1    3    3  501    0 -0.45995225911E+02 -0.97536426931E+01  0.16346732017E+02  0.50000000000E+02  0.47000000000E+01 0. -1.
         -5    1    3    3    0  501  0.45995225911E+02  0.97536426931E+01 -0.16346732017E+02  0.50000000000E+02  0.47000000000E+01 0.  1.
</event>
<event>
 5    1  0.9091923E-001  0.1000000E+03  0.7546771E-02  0.1163815E+00
         11   -1    0    0    0    0  0.00000000000E+00  0.00000000000E+00  0.50000000000E+02  0.50000000000E+02  0.00000000000E+00 0. -1.
        -11   -1    0    0    0    0 -0.00000000000E+00 -0.00000000000E+00 -0.50000000000E+02  0.50000000000E+02  0.00000000000E+00 0.  1.
         23    2    1    2    0    0  0.00000000000E+00  0.00000000000E+00  0.00000000000E+00  0.10000000000E+03  0.10000000000E+03 0.  0.
          5    1    3    3  501    0 -0.16640386849E+02  0.10380429891E+02  0.45752095043E+02  0.50000000000E+02  0.47000000000E+01 0. -1.
         -5    1    3    3    0  501  0.16640386849E+02 -0.10380429891E+02 -0.45752095043E+02  0.50000000000E+02  0.47000000000E+01 0.  1.
</event>
<event>
 5    1  0.9091923E-001  0.1000000E+03  0.7546771E-02  0.1163815E+00
         11   -1    0    0    0    0  0.00000000000E+00  0.00000000000E+00  0.50000000000E+02  0.50000000000E+02  0.00000000000E+00 0. -1.
        -11   -1    0    0    0    0 -0.00000000000E+00 -0.00000000000E+00 -0.50000000000E+02  0.50000000000E+02  0.00000000000E+00 0.  1.
         23    2    1    2    0    0  0.00000000000E+00  0.00000000000E+00  0.00000000000E+00  0.10000000000E+03  0.10000000000E+03 0.  0.
          5    1    3    3  501    0  0.37803225941E+02 -0.11474781888E+01  0.32365249918E+02  0.50000000000E+02  0.47000000000E+01 0. -1.
         -5    1    3    3    0  501 -0.37803225941E+02  0.11474781888E+01 -0.32365249918E+02  0.50000000000E+02  0.47000000000E+01 0.  1.
</event>
<event>
 5    1  0.9091923E-001  0.1000000E+03  0.7546771E-02  0.1163815E+00
         11   -1    0    0    0    0  0.00000000000E+00  0.00000000000E+00  0.50000000000E+02  0.50000000000E+02  0.00000000000E+00 0.  1.
        -11   -1    0    0    0    0 -0.00000000000E+00 -0.00000000000E+00 -0.50000000000E+02  0.50000000000E+02  0.00000000000E+00 0. -1.
         23    2    1    2    0    0  0.00000000000E+00  0.00000000000E+00  0.00000000000E+00  0.10000000000E+03  0.10000000000E+03 0.  0.
          5    1    3    3  501    0  0.41221440639E+02  0.15465356755E+02  0.23227689771E+02  0.50000000000E+02  0.47000000000E+01 0. -1.
         -5    1    3    3    0  501 -0.41221440639E+02 -0.15465356755E+02 -0.23227689771E+02  0.50000000000E+02  0.47000000000E+01 0.  1.
</event>
<event>
 5    1  0.9091923E-001  0.1000000E+03  0.7546771E-02  0.1163815E+00
         11   -1    0    0    0    0  0.00000000000E+00  0.00000000000E+00  0.50000000000E+02  0.50000000000E+02  0.00000000000E+00 0.  1.
        -11   -1    0    0    0    0 -0.00000000000E+00 -0.00000000000E+00 -0.50000000000E+02  0.50000000000E+02  0.00000000000E+00 0. -1.
         23    2    1    2    0    0  0.00000000000E+00  0.00000000000E+00  0.00000000000E+00  0.10000000000E+03  0.10000000000E+03 0.  0.
          5    1    3    3  501    0  0.49403024860E+02 -0.38930941998E+01 -0.47005268051E+01  0.50000000000E+02  0.47000000000E+01 0. -1.
         -5    1    3    3    0  501 -0.49403024860E+02  0.38930941998E+01  0.47005268051E+01  0.50000000000E+02  0.47000000000E+01 0.  1.
</event>
<event>
 5    1  0.9091923E-001  0.1000000E+03  0.7546771E-02  0.1163815E+00
         11   -1    0    0    0    0  0.00000000000E+00  0.00000000000E+00  0.50000000000E+02  0.50000000000E+02  0.00000000000E+00 0.  1.
        -11   -1    0    0    0    0 -0.00000000000E+00 -0.00000000000E+00 -0.50000000000E+02  0.50000000000E+02  0.00000000000E+00 0. -1.
         23    2    1    2    0    0  0.00000000000E+00  0.00000000000E+00  0.00000000000E+00  0.10000000000E+03  0.10000000000E+03 0.  0.
          5    1    3    3  501    0 -0.13043729220E+02  0.28574664162E+02 -0.38616831771E+02  0.50000000000E+02  0.47000000000E+01 0. -1.
         -5    1    3    3    0  501  0.13043729220E+02 -0.28574664162E+02  0.38616831771E+02  0.50000000000E+02  0.47000000000E+01 0.  1.
</event>
<event>
 5    1  0.9091923E-001  0.1000000E+03  0.7546771E-02  0.1163815E+00
         11   -1    0    0    0    0  0.00000000000E+00  0.00000000000E+00  0.50000000000E+02  0.50000000000E+02  0.00000000000E+00 0. -1.
        -11   -1    0    0    0    0 -0.00000000000E+00 -0.00000000000E+00 -0.50000000000E+02  0.50000000000E+02  0.00000000000E+00 0.  1.
         23    2    1    2    0    0  0.00000000000E+00  0.00000000000E+00  0.00000000000E+00  0.10000000000E+03  0.10000000000E+03 0.  0.
          5    1    3    3  501    0  0.79711287043E+01  0.29396433825E+01  0.49048237521E+02  0.50000000000E+02  0.47000000000E+01 0. -1.
         -5    1    3    3    0  501 -0.79711287043E+01 -0.29396433825E+01 -0.49048237521E+02  0.50000000000E+02  0.47000000000E+01 0.  1.
</event>
<event>
 5    1  0.9091923E-001  0.1000000E+03  0.7546771E-02  0.1163815E+00
         11   -1    0    0    0    0  0.00000000000E+00  0.00000000000E+00  0.50000000000E+02  0.50000000000E+02  0.00000000000E+00 0. -1.
        -11   -1    0    0    0    0 -0.00000000000E+00 -0.00000000000E+00 -0.50000000000E+02  0.50000000000E+02  0.00000000000E+00 0.  1.
         23    2    1    2    0    0  0.00000000000E+00  0.00000000000E+00  0.00000000000E+00  0.10000000000E+03  0.10000000000E+03 0.  0.
          5    1    3    3  501    0 -0.37850227848E+02  0.93832454972E+01  0.30939052277E+02  0.50000000000E+02  0.47000000000E+01 0. -1.
         -5    1    3    3    0  501  0.37850227848E+02 -0.93832454972E+01 -0.30939052277E+02  0.50000000000E+02  0.47000000000E+01 0.  1.
</event>
<event>
 5    1  0.9091923E-001  0.1000000E+03  0.7546771E-02  0.1163815E+00
         11   -1    0    0    0    0  0.00000000000E+00  0.00000000000E+00  0.50000000000E+02  0.50000000000E+02  0.00000000000E+00 0. -1.
        -11   -1    0    0    0    0 -0.00000000000E+00 -0.00000000000E+00 -0.50000000000E+02  0.50000000000E+02  0.00000000000E+00 0.  1.
         23    2    1    2    0    0  0.00000000000E+00  0.00000000000E+00  0.00000000000E+00  0.10000000000E+03  0.10000000000E+03 0.  0.
          5    1    3    3  501    0  0.32920987873E+02 -0.73218089061E+00  0.37330717493E+02  0.50000000000E+02  0.47000000000E+01 0. -1.
         -5    1    3    3    0  501 -0.32920987873E+02  0.73218089061E+00 -0.37330717493E+02  0.50000000000E+02  0.47000000000E+01 0.  1.
</event>
<event>
 5    1  0.9091923E-001  0.1000000E+03  0.7546771E-02  0.1163815E+00
         11   -1    0    0    0    0  0.00000000000E+00  0.00000000000E+00  0.50000000000E+02  0.50000000000E+02  0.00000000000E+00 0.  1.
        -11   -1    0    0    0    0 -0.00000000000E+00 -0.00000000000E+00 -0.50000000000E+02  0.50000000000E+02  0.00000000000E+00 0. -1.
         23    2    1    2    0    0  0.00000000000E+00  0.00000000000E+00  0.00000000000E+00  0.10000000000E+03  0.10000000000E+03 0.  0.
          5    1    3    3  501    0  0.32408870924E+02 -0.91368266622E+00 -0.37772215575E+02  0.50000000000E+02  0.47000000000E+01 0. -1.
         -5    1    3    3    0  501 -0.32408870924E+02  0.91368266622E+00  0.37772215575E+02  0.50000000000E+02  0.47000000000E+01 0.  1.
</event>
<event>
 5    1  0.9091923E-001  0.1000000E+03  0.7546771E-02  0.1163815E+00
         11   -1    0    0    0    0  0.00000000000E+00  0.00000000000E+00  0.50000000000E+02  0.50000000000E+02  0.00000000000E+00 0. -1.
        -11   -1    0    0    0    0 -0.00000000000E+00 -0.00000000000E+00 -0.50000000000E+02  0.50000000000E+02  0.00000000000E+00 0.  1.
         23    2    1    2    0    0  0.00000000000E+00  0.00000000000E+00  0.00000000000E+00  0.10000000000E+03  0.10000000000E+03 0.  0.
          5    1    3    3  501    0  0.38953051375E+02 -0.29600443553E+02  0.91860508391E+01  0.50000000000E+02  0.47000000000E+01 0. -1.
         -5    1    3    3    0  501 -0.38953051375E+02  0.29600443553E+02 -0.91860508391E+01  0.50000000000E+02  0.47000000000E+01 0.  1.
</event>
<event>
 5    1  0.9091923E-001  0.1000000E+03  0.7546771E-02  0.1163815E+00
         11   -1    0    0    0    0  0.00000000000E+00  0.00000000000E+00  0.50000000000E+02  0.50000000000E+02  0.00000000000E+00 0.  1.
        -11   -1    0    0    0    0 -0.00000000000E+00 -0.00000000000E+00 -0.50000000000E+02  0.50000000000E+02  0.00000000000E+00 0. -1.
         23    2    1    2    0    0  0.00000000000E+00  0.00000000000E+00  0.00000000000E+00  0.10000000000E+03  0.10000000000E+03 0.  0.
          5    1    3    3  501    0  0.47967127895E+02  0.10475679782E+02  0.82051675521E+01  0.50000000000E+02  0.47000000000E+01 0. -1.
         -5    1    3    3    0  501 -0.47967127895E+02 -0.10475679782E+02 -0.82051675521E+01  0.50000000000E+02  0.47000000000E+01 0.  1.
</event>
<event>
 5    1  0.9091923E-001  0.1000000E+03  0.7546771E-02  0.1163815E+00
         11   -1    0    0    0    0  0.00000000000E+00  0.00000000000E+00  0.50000000000E+02  0.50000000000E+02  0.00000000000E+00 0. -1.
        -11   -1    0    0    0    0 -0.00000000000E+00 -0.00000000000E+00 -0.50000000000E+02  0.50000000000E+02  0.00000000000E+00 0.  1.
         23    2    1    2    0    0  0.00000000000E+00  0.00000000000E+00  0.00000000000E+00  0.10000000000E+03  0.10000000000E+03 0.  0.
          5    1    3    3  501    0  0.16563294025E+01  0.34218563448E+02  0.36114491392E+02  0.50000000000E+02  0.47000000000E+01 0. -1.
         -5    1    3    3    0  501 -0.16563294025E+01 -0.34218563448E+02 -0.36114491392E+02  0.50000000000E+02  0.47000000000E+01 0.  1.
</event>
<event>
 5    1  0.9091923E-001  0.1000000E+03  0.7546771E-02  0.1163815E+00
         11   -1    0    0    0    0  0.00000000000E+00  0.00000000000E+00  0.50000000000E+02  0.50000000000E+02  0.00000000000E+00 0. -1.
        -11   -1    0    0    0    0 -0.00000000000E+00 -0.00000000000E+00 -0.50000000000E+02  0.50000000000E+02  0.00000000000E+00 0.  1.
         23    2    1    2    0    0  0.00000000000E+00  0.00000000000E+00  0.00000000000E+00  0.10000000000E+03  0.10000000000E+03 0.  0.
          5    1    3    3  501    0  0.12674051621E+02 -0.24377421498E+02  0.41509272899E+02  0.50000000000E+02  0.47000000000E+01 0. -1.
         -5    1    3    3    0  501 -0.12674051621E+02  0.24377421498E+02 -0.41509272899E+02  0.50000000000E+02  0.47000000000E+01 0.  1.
</event>
<event>
 5    1  0.9091923E-001  0.1000000E+03  0.7546771E-02  0.1163815E+00
         11   -1    0    0    0    0  0.00000000000E+00  0.00000000000E+00  0.50000000000E+02  0.50000000000E+02  0.00000000000E+00 0.  1.
        -11   -1    0    0    0    0 -0.00000000000E+00 -0.00000000000E+00 -0.50000000000E+02  0.50000000000E+02  0.00000000000E+00 0. -1.
         23    2    1    2    0    0  0.00000000000E+00  0.00000000000E+00  0.00000000000E+00  0.10000000000E+03  0.10000000000E+03 0.  0.
          5    1    3    3  501    0  0.15902145323E+02 -0.11546998437E+01 -0.47156107159E+02  0.50000000000E+02  0.47000000000E+01 0. -1.
         -5    1    3    3    0  501 -0.15902145323E+02  0.11546998437E+01  0.47156107159E+02  0.50000000000E+02  0.47000000000E+01 0.  1.
</event>
<event>
 5    1  0.9091923E-001  0.1000000E+03  0.7546771E-02  0.1163815E+00
         11   -1    0    0    0    0  0.00000000000E+00  0.00000000000E+00  0.50000000000E+02  0.50000000000E+02  0.00000000000E+00 0.  1.
        -11   -1    0    0    0    0 -0.00000000000E+00 -0.00000000000E+00 -0.50000000000E+02  0.50000000000E+02  0.00000000000E+00 0. -1.
         23    2    1    2    0    0  0.00000000000E+00  0.00000000000E+00  0.00000000000E+00  0.10000000000E+03  0.10000000000E+03 0.  0.
          5    1    3    3  501    0 -0.12919513285E+02  0.61097387341E+01 -0.47682987208E+02  0.50000000000E+02  0.47000000000E+01 0. -1.
         -5    1    3    3    0  501  0.12919513285E+02 -0.61097387341E+01  0.47682987208E+02  0.50000000000E+02  0.47000000000E+01 0.  1.
</event>
<event>
 5    1  0.9091923E-001  0.1000000E+03  0.7546771E-02  0.1163815E+00
         11   -1    0    0    0    0  0.00000000000E+00  0.00000000000E+00  0.50000000000E+02  0.50000000000E+02  0.00000000000E+00 0. -1.
        -11   -1    0    0    0    0 -0.00000000000E+00 -0.00000000000E+00 -0.50000000000E+02  0.50000000000E+02  0.00000000000E+00 0.  1.
         23    2    1    2    0    0  0.00000000000E+00  0.00000000000E+00  0.00000000000E+00  0.10000000000E+03  0.10000000000E+03 0.  0.
          5    1    3    3  501    0 -0.74928228518E+01  0.47331278905E+02  0.13472848362E+02  0.50000000000E+02  0.47000000000E+01 0. -1.
         -5    1    3    3    0  501  0.74928228518E+01 -0.47331278905E+02 -0.13472848362E+02  0.50000000000E+02  0.47000000000E+01 0.  1.
</event>
<event>
 5    1  0.9091923E-001  0.1000000E+03  0.7546771E-02  0.1163815E+00
         11   -1    0    0    0    0  0.00000000000E+00  0.00000000000E+00  0.50000000000E+02  0.50000000000E+02  0.00000000000E+00 0. -1.
        -11   -1    0    0    0    0 -0.00000000000E+00 -0.00000000000E+00 -0.50000000000E+02  0.50000000000E+02  0.00000000000E+00 0.  1.
         23    2    1    2    0    0  0.00000000000E+00  0.00000000000E+00  0.00000000000E+00  0.10000000000E+03  0.10000000000E+03 0.  0.
          5    1    3    3  501    0 -0.43754387474E+02  0.10191494195E+02 -0.21438214077E+02  0.50000000000E+02  0.47000000000E+01 0. -1.
         -5    1    3    3    0  501  0.43754387474E+02 -0.10191494195E+02  0.21438214077E+02  0.50000000000E+02  0.47000000000E+01 0.  1.
</event>
<event>
 5    1  0.9091923E-001  0.1000000E+03  0.7546771E-02  0.1163815E+00
         11   -1    0    0    0    0  0.00000000000E+00  0.00000000000E+00  0.50000000000E+02  0.50000000000E+02  0.00000000000E+00 0. -1.
        -11   -1    0    0    0    0 -0.00000000000E+00 -0.00000000000E+00 -0.50000000000E+02  0.50000000000E+02  0.00000000000E+00 0.  1.
         23    2    1    2    0    0  0.00000000000E+00  0.00000000000E+00  0.00000000000E+00  0.10000000000E+03  0.10000000000E+03 0.  0.
          5    1    3    3  501    0  0.25931862512E+02  0.18935749592E+02  0.38037953337E+02  0.50000000000E+02  0.47000000000E+01 0. -1.
         -5    1    3    3    0  501 -0.25931862512E+02 -0.18935749592E+02 -0.38037953337E+02  0.50000000000E+02  0.47000000000E+01 0.  1.
</event>
<event>
 5    1  0.9091923E-001  0.1000000E+03  0.7546771E-02  0.1163815E+00
         11   -1    0    0    0    0  0.00000000000E+00  0.00000000000E+00  0.50000000000E+02  0.50000000000E+02  0.00000000000E+00 0. -1.
        -11   -1    0    0    0    0 -0.00000000000E+00 -0.00000000000E+00 -0.50000000000E+02  0.50000000000E+02  0.00000000000E+00 0.  1.
         23    2    1    2    0    0  0.00000000000E+00  0.00000000000E+00  0.00000000000E+00  0.10000000000E+03  0.10000000000E+03 0.  0.
          5    1    3    3  501    0  0.11341119049E+02 -0.84804110528E+01  0.47721815212E+02  0.50000000000E+02  0.47000000000E+01 0. -1.
         -5    1    3    3    0  501 -0.11341119049E+02  0.84804110528E+01 -0.47721815212E+02  0.50000000000E+02  0.47000000000E+01 0.  1.
</event>
<event>
 5    1  0.9091923E-001  0.1000000E+03  0.7546771E-02  0.1163815E+00
         11   -1    0    0    0    0  0.00000000000E+00  0.00000000000E+00  0.50000000000E+02  0.50000000000E+02  0.00000000000E+00 0. -1.
        -11   -1    0    0    0    0 -0.00000000000E+00 -0.00000000000E+00 -0.50000000000E+02  0.50000000000E+02  0.00000000000E+00 0.  1.
         23    2    1    2    0    0  0.00000000000E+00  0.00000000000E+00  0.00000000000E+00  0.10000000000E+03  0.10000000000E+03 0.  0.
          5    1    3    3  501    0  0.14060170488E+02  0.33041498530E+01  0.47637214440E+02  0.50000000000E+02  0.47000000000E+01 0. -1.
         -5    1    3    3    0  501 -0.14060170488E+02 -0.33041498530E+01 -0.47637214440E+02  0.50000000000E+02  0.47000000000E+01 0.  1.
</event>
<event>
 5    1  0.9091923E-001  0.1000000E+03  0.7546771E-02  0.1163815E+00
         11   -1    0    0    0    0  0.00000000000E+00  0.00000000000E+00  0.50000000000E+02  0.50000000000E+02  0.00000000000E+00 0.  1.
        -11   -1    0    0    0    0 -0.00000000000E+00 -0.00000000000E+00 -0.50000000000E+02  0.50000000000E+02  0.00000000000E+00 0. -1.
         23    2    1    2    0    0  0.00000000000E+00  0.00000000000E+00  0.00000000000E+00  0.10000000000E+03  0.10000000000E+03 0.  0.
          5    1    3    3  501    0  0.10499241967E+02 -0.41809677858E+02 -0.24892303138E+02  0.50000000000E+02  0.47000000000E+01 0. -1.
         -5    1    3    3    0  501 -0.10499241967E+02  0.41809677858E+02  0.24892303138E+02  0.50000000000E+02  0.47000000000E+01 0.  1.
</event>
<event>
 5    1  0.9091923E-001  0.1000000E+03  0.7546771E-02  0.1163815E+00
         11   -1    0    0    0    0  0.00000000000E+00  0.00000000000E+00  0.50000000000E+02  0.50000000000E+02  0.00000000000E+00 0. -1.
        -11   -1    0    0    0    0 -0.00000000000E+00 -0.00000000000E+00 -0.50000000000E+02  0.50000000000E+02  0.00000000000E+00 0.  1.
         23    2    1    2    0    0  0.00000000000E+00  0.00000000000E+00  0.00000000000E+00  0.10000000000E+03  0.10000000000E+03 0.  0.
          5    1    3    3  501    0  0.29933437736E+02 -0.24798876364E+02  0.31095257458E+02  0.50000000000E+02  0.47000000000E+01 0. -1.
         -5    1    3    3    0  501 -0.29933437736E+02  0.24798876364E+02 -0.31095257458E+02  0.50000000000E+02  0.47000000000E+01 0.  1.
</event>
<event>
 5    1  0.9091923E-001  0.1000000E+03  0.7546771E-02  0.1163815E+00
         11   -1    0    0    0    0  0.00000000000E+00  0.00000000000E+00  0.50000000000E+02  0.50000000000E+02  0.00000000000E+00 0. -1.
        -11   -1    0    0    0    0 -0.00000000000E+00 -0.00000000000E+00 -0.50000000000E+02  0.50000000000E+02  0.00000000000E+00 0.  1.
         23    2    1    2    0    0  0.00000000000E+00  0.00000000000E+00  0.00000000000E+00  0.10000000000E+03  0.10000000000E+03 0.  0.
          5    1    3    3  501    0  0.10527821453E+02  0.25517933873E+02  0.41423544348E+02  0.50000000000E+02  0.47000000000E+01 0. -1.
         -5    1    3    3    0  501 -0.10527821453E+02 -0.25517933873E+02 -0.41423544348E+02  0.50000000000E+02  0.47000000000E+01 0.  1.
</event>
<event>
 5    1  0.9091923E-001  0.1000000E+03  0.7546771E-02  0.1163815E+00
         11   -1    0    0    0    0  0.00000000000E+00  0.00000000000E+00  0.50000000000E+02  0.50000000000E+02  0.00000000000E+00 0.  1.
        -11   -1    0    0    0    0 -0.00000000000E+00 -0.00000000000E+00 -0.50000000000E+02  0.50000000000E+02  0.00000000000E+00 0. -1.
         23    2    1    2    0    0  0.00000000000E+00  0.00000000000E+00  0.00000000000E+00  0.10000000000E+03  0.10000000000E+03 0.  0.
          5    1    3    3  501    0  0.42975855691E+02 -0.54454168834E+01 -0.24522097434E+02  0.50000000000E+02  0.47000000000E+01 0. -1.
         -5    1    3    3    0  501 -0.42975855691E+02  0.54454168834E+01  0.24522097434E+02  0.50000000000E+02  0.47000000000E+01 0.  1.
</event>
<event>
 5    1  0.9091923E-001  0.1000000E+03  0.7546771E-02  0.1163815E+00
         11   -1    0    0    0    0  0.00000000000E+00  0.00000000000E+00  0.50000000000E+02  0.50000000000E+02  0.00000000000E+00 0. -1.
        -11   -1    0    0    0    0 -0.00000000000E+00 -0.00000000000E+00 -0.50000000000E+02  0.50000000000E+02  0.00000000000E+00 0.  1.
         23    2    1    2    0    0  0.00000000000E+00  0.00000000000E+00  0.00000000000E+00  0.10000000000E+03  0.10000000000E+03 0.  0.
          5    1    3    3  501    0  0.27640955604E+02  0.13984150760E+02  0.38965768321E+02  0.50000000000E+02  0.47000000000E+01 0. -1.
         -5    1    3    3    0  501 -0.27640955604E+02 -0.13984150760E+02 -0.38965768321E+02  0.50000000000E+02  0.47000000000E+01 0.  1.
</event>
<event>
 5    1  0.9091923E-001  0.1000000E+03  0.7546771E-02  0.1163815E+00
         11   -1    0    0    0    0  0.00000000000E+00  0.00000000000E+00  0.50000000000E+02  0.50000000000E+02  0.00000000000E+00 0. -1.
        -11   -1    0    0    0    0 -0.00000000000E+00 -0.00000000000E+00 -0.50000000000E+02  0.50000000000E+02  0.00000000000E+00 0.  1.
         23    2    1    2    0    0  0.00000000000E+00  0.00000000000E+00  0.00000000000E+00  0.10000000000E+03  0.10000000000E+03 0.  0.
          5    1    3    3  501    0 -0.28176648448E+02  0.15070538293E+02  0.38168905641E+02  0.50000000000E+02  0.47000000000E+01 0. -1.
         -5    1    3    3    0  501  0.28176648448E+02 -0.15070538293E+02 -0.38168905641E+02  0.50000000000E+02  0.47000000000E+01 0.  1.
</event>
<event>
 5    1  0.9091923E-001  0.1000000E+03  0.7546771E-02  0.1163815E+00
         11   -1    0    0    0    0  0.00000000000E+00  0.00000000000E+00  0.50000000000E+02  0.50000000000E+02  0.00000000000E+00 0. -1.
        -11   -1    0    0    0    0 -0.00000000000E+00 -0.00000000000E+00 -0.50000000000E+02  0.50000000000E+02  0.00000000000E+00 0.  1.
         23    2    1    2    0    0  0.00000000000E+00  0.00000000000E+00  0.00000000000E+00  0.10000000000E+03  0.10000000000E+03 0.  0.
          5    1    3    3  501    0 -0.20854743589E+02  0.26622520302E+02  0.36527128036E+02  0.50000000000E+02  0.47000000000E+01 0. -1.
         -5    1    3    3    0  501  0.20854743589E+02 -0.26622520302E+02 -0.36527128036E+02  0.50000000000E+02  0.47000000000E+01 0.  1.
</event>
<event>
 5    1  0.9091923E-001  0.1000000E+03  0.7546771E-02  0.1163815E+00
         11   -1    0    0    0    0  0.00000000000E+00  0.00000000000E+00  0.50000000000E+02  0.50000000000E+02  0.00000000000E+00 0. -1.
        -11   -1    0    0    0    0 -0.00000000000E+00 -0.00000000000E+00 -0.50000000000E+02  0.50000000000E+02  0.00000000000E+00 0.  1.
         23    2    1    2    0    0  0.00000000000E+00  0.00000000000E+00  0.00000000000E+00  0.10000000000E+03  0.10000000000E+03 0.  0.
          5    1    3    3  501    0 -0.41727641346E+02  0.15981140777E+02  0.21938939974E+02  0.50000000000E+02  0.47000000000E+01 0. -1.
         -5    1    3    3    0  501  0.41727641346E+02 -0.15981140777E+02 -0.21938939974E+02  0.50000000000E+02  0.47000000000E+01 0.  1.
</event>
<event>
 5    1  0.9091923E-001  0.1000000E+03  0.7546771E-02  0.1163815E+00
         11   -1    0    0    0    0  0.00000000000E+00  0.00000000000E+00  0.50000000000E+02  0.50000000000E+02  0.00000000000E+00 0. -1.
        -11   -1    0    0    0    0 -0.00000000000E+00 -0.00000000000E+00 -0.50000000000E+02  0.50000000000E+02  0.00000000000E+00 0.  1.
         23    2    1    2    0    0  0.00000000000E+00  0.00000000000E+00  0.00000000000E+00  0.10000000000E+03  0.10000000000E+03 0.  0.
          5    1    3    3  501    0  0.26152036474E+02 -0.20059688652E+02  0.37304019616E+02  0.50000000000E+02  0.47000000000E+01 0. -1.
         -5    1    3    3    0  501 -0.26152036474E+02  0.20059688652E+02 -0.37304019616E+02  0.50000000000E+02  0.47000000000E+01 0.  1.
</event>
<event>
 5    1  0.9091923E-001  0.1000000E+03  0.7546771E-02  0.1163815E+00
         11   -1    0    0    0    0  0.00000000000E+00  0.00000000000E+00  0.50000000000E+02  0.50000000000E+02  0.00000000000E+00 0.  1.
        -11   -1    0    0    0    0 -0.00000000000E+00 -0.00000000000E+00 -0.50000000000E+02  0.50000000000E+02  0.00000000000E+00 0. -1.
         23    2    1    2    0    0  0.00000000000E+00  0.00000000000E+00  0.00000000000E+00  0.10000000000E+03  0.10000000000E+03 0.  0.
          5    1    3    3  501    0  0.37505691514E+01  0.42597351889E+02 -0.25481539260E+02  0.50000000000E+02  0.47000000000E+01 0. -1.
         -5    1    3    3    0  501 -0.37505691514E+01 -0.42597351889E+02  0.25481539260E+02  0.50000000000E+02  0.47000000000E+01 0.  1.
</event>
<event>
 5    1  0.9091923E-001  0.1000000E+03  0.7546771E-02  0.1163815E+00
         11   -1    0    0    0    0  0.00000000000E+00  0.00000000000E+00  0.50000000000E+02  0.50000000000E+02  0.00000000000E+00 0.  1.
        -11   -1    0    0    0    0 -0.00000000000E+00 -0.00000000000E+00 -0.50000000000E+02  0.50000000000E+02  0.00000000000E+00 0. -1.
         23    2    1    2    0    0  0.00000000000E+00  0.00000000000E+00  0.00000000000E+00  0.10000000000E+03  0.10000000000E+03 0.  0.
          5    1    3    3  501    0 -0.13474511053E+02  0.22270394861E+02 -0.42430850388E+02  0.50000000000E+02  0.47000000000E+01 0. -1.
         -5    1    3    3    0  501  0.13474511053E+02 -0.22270394861E+02  0.42430850388E+02  0.50000000000E+02  0.47000000000E+01 0.  1.
</event>
<event>
 5    1  0.9091923E-001  0.1000000E+03  0.7546771E-02  0.1163815E+00
         11   -1    0    0    0    0  0.00000000000E+00  0.00000000000E+00  0.50000000000E+02  0.50000000000E+02  0.00000000000E+00 0. -1.
        -11   -1    0    0    0    0 -0.00000000000E+00 -0.00000000000E+00 -0.50000000000E+02  0.50000000000E+02  0.00000000000E+00 0.  1.
         23    2    1    2    0    0  0.00000000000E+00  0.00000000000E+00  0.00000000000E+00  0.10000000000E+03  0.10000000000E+03 0.  0.
          5    1    3    3  501    0  0.13861465041E+02  0.17084432208E+02  0.44653017401E+02  0.50000000000E+02  0.47000000000E+01 0. -1.
         -5    1    3    3    0  501 -0.13861465041E+02 -0.17084432208E+02 -0.44653017401E+02  0.50000000000E+02  0.47000000000E+01 0.  1.
</event>
<event>
 5    1  0.9091923E-001  0.1000000E+03  0.7546771E-02  0.1163815E+00
         11   -1    0    0    0    0  0.00000000000E+00  0.00000000000E+00  0.50000000000E+02  0.50000000000E+02  0.00000000000E+00 0.  1.
        -11   -1    0    0    0    0 -0.00000000000E+00 -0.00000000000E+00 -0.50000000000E+02  0.50000000000E+02  0.00000000000E+00 0. -1.
         23    2    1    2    0    0  0.00000000000E+00  0.00000000000E+00  0.00000000000E+00  0.10000000000E+03  0.10000000000E+03 0.  0.
          5    1    3    3  501    0 -0.44383589859E+02  0.21328249190E+02 -0.72878486331E+01  0.50000000000E+02  0.47000000000E+01 0. -1.
         -5    1    3    3    0  501  0.44383589859E+02 -0.21328249190E+02  0.72878486331E+01  0.50000000000E+02  0.47000000000E+01 0.  1.
</event>
<event>
 5    1  0.9091923E-001  0.1000000E+03  0.7546771E-02  0.1163815E+00
         11   -1    0    0    0    0  0.00000000000E+00  0.00000000000E+00  0.50000000000E+02  0.50000000000E+02  0.00000000000E+00 0. -1.
        -11   -1    0    0    0    0 -0.00000000000E+00 -0.00000000000E+00 -0.50000000000E+02  0.50000000000E+02  0.00000000000E+00 0.  1.
         23    2    1    2    0    0  0.00000000000E+00  0.00000000000E+00  0.00000000000E+00  0.10000000000E+03  0.10000000000E+03 0.  0.
          5    1    3    3  501    0  0.77897416766E+01  0.31569950244E+01  0.49063869670E+02  0.50000000000E+02  0.47000000000E+01 0. -1.
         -5    1    3    3    0  501 -0.77897416766E+01 -0.31569950244E+01 -0.49063869670E+02  0.50000000000E+02  0.47000000000E+01 0.  1.
</event>
<event>
 5    1  0.9091923E-001  0.1000000E+03  0.7546771E-02  0.1163815E+00
         11   -1    0    0    0    0  0.00000000000E+00  0.00000000000E+00  0.50000000000E+02  0.50000000000E+02  0.00000000000E+00 0. -1.
        -11   -1    0    0    0    0 -0.00000000000E+00 -0.00000000000E+00 -0.50000000000E+02  0.50000000000E+02  0.00000000000E+00 0.  1.
         23    2    1    2    0    0  0.00000000000E+00  0.00000000000E+00  0.00000000000E+00  0.10000000000E+03  0.10000000000E+03 0.  0.
          5    1    3    3  501    0 -0.14998153250E+02 -0.42872622447E+02  0.20369183675E+02  0.50000000000E+02  0.47000000000E+01 0. -1.
         -5    1    3    3    0  501  0.14998153250E+02  0.42872622447E+02 -0.20369183675E+02  0.50000000000E+02  0.47000000000E+01 0.  1.
</event>
<event>
 5    1  0.9091923E-001  0.1000000E+03  0.7546771E-02  0.1163815E+00
         11   -1    0    0    0    0  0.00000000000E+00  0.00000000000E+00  0.50000000000E+02  0.50000000000E+02  0.00000000000E+00 0.  1.
        -11   -1    0    0    0    0 -0.00000000000E+00 -0.00000000000E+00 -0.50000000000E+02  0.50000000000E+02  0.00000000000E+00 0. -1.
         23    2    1    2    0    0  0.00000000000E+00  0.00000000000E+00  0.00000000000E+00  0.10000000000E+03  0.10000000000E+03 0.  0.
          5    1    3    3  501    0 -0.42397590789E+02  0.38796024432E+01 -0.25793467780E+02  0.50000000000E+02  0.47000000000E+01 0. -1.
         -5    1    3    3    0  501  0.42397590789E+02 -0.38796024432E+01  0.25793467780E+02  0.50000000000E+02  0.47000000000E+01 0.  1.
</event>
<event>
 5    1  0.9091923E-001  0.1000000E+03  0.7546771E-02  0.1163815E+00
         11   -1    0    0    0    0  0.00000000000E+00  0.00000000000E+00  0.50000000000E+02  0.50000000000E+02  0.00000000000E+00 0. -1.
        -11   -1    0    0    0    0 -0.00000000000E+00 -0.00000000000E+00 -0.50000000000E+02  0.50000000000E+02  0.00000000000E+00 0.  1.
         23    2    1    2    0    0  0.00000000000E+00  0.00000000000E+00  0.00000000000E+00  0.10000000000E+03  0.10000000000E+03 0.  0.
          5    1    3    3  501    0 -0.46684424529E+01  0.43592144270E+02 -0.23576272034E+02  0.50000000000E+02  0.47000000000E+01 0. -1.
         -5    1    3    3    0  501  0.46684424529E+01 -0.43592144270E+02  0.23576272034E+02  0.50000000000E+02  0.47000000000E+01 0.  1.
</event>
<event>
 5    1  0.9091923E-001  0.1000000E+03  0.7546771E-02  0.1163815E+00
         11   -1    0    0    0    0  0.00000000000E+00  0.00000000000E+00  0.50000000000E+02  0.50000000000E+02  0.00000000000E+00 0.  1.
        -11   -1    0    0    0    0 -0.00000000000E+00 -0.00000000000E+00 -0.50000000000E+02  0.50000000000E+02  0.00000000000E+00 0. -1.
         23    2    1    2    0    0  0.00000000000E+00  0.00000000000E+00  0.00000000000E+00  0.10000000000E+03  0.10000000000E+03 0.  0.
          5    1    3    3  501    0  0.32346843235E+02  0.35369851389E+02 -0.13437460529E+02  0.50000000000E+02  0.47000000000E+01 0. -1.
         -5    1    3    3    0  501 -0.32346843235E+02 -0.35369851389E+02  0.13437460529E+02  0.50000000000E+02  0.47000000000E+01 0.  1.
</event>
<event>
 5    1  0.9091923E-001  0.1000000E+03  0.7546771E-02  0.1163815E+00
         11   -1    0    0    0    0  0.00000000000E+00  0.00000000000E+00  0.50000000000E+02  0.50000000000E+02  0.00000000000E+00 0. -1.
        -11   -1    0    0    0    0 -0.00000000000E+00 -0.00000000000E+00 -0.50000000000E+02  0.50000000000E+02  0.00000000000E+00 0.  1.
         23    2    1    2    0    0  0.00000000000E+00  0.00000000000E+00  0.00000000000E+00  0.10000000000E+03  0.10000000000E+03 0.  0.
          5    1    3    3  501    0 -0.44475872791E+02  0.99316814855E+01  0.20029189759E+02  0.50000000000E+02  0.47000000000E+01 0. -1.
         -5    1    3    3    0  501  0.44475872791E+02 -0.99316814855E+01 -0.20029189759E+02  0.50000000000E+02  0.47000000000E+01 0.  1.
</event>
<event>
 5    1  0.9091923E-001  0.1000000E+03  0.7546771E-02  0.1163815E+00
         11   -1    0    0    0    0  0.00000000000E+00  0.00000000000E+00  0.50000000000E+02  0.50000000000E+02  0.00000000000E+00 0. -1.
        -11   -1    0    0    0    0 -0.00000000000E+00 -0.00000000000E+00 -0.50000000000E+02  0.50000000000E+02  0.00000000000E+00 0.  1.
         23    2    1    2    0    0  0.00000000000E+00  0.00000000000E+00  0.00000000000E+00  0.10000000000E+03  0.10000000000E+03 0.  0.
          5    1    3    3  501    0 -0.67807151252E+01 -0.85855420091E+01  0.48561511208E+02  0.50000000000E+02  0.47000000000E+01 0. -1.
         -5    1    3    3    0  501  0.67807151252E+01  0.85855420091E+01 -0.48561511208E+02  0.50000000000E+02  0.47000000000E+01 0.  1.
</event>
<event>
 5    1  0.9091923E-001  0.1000000E+03  0.7546771E-02  0.1163815E+00
         11   -1    0    0    0    0  0.00000000000E+00  0.00000000000E+00  0.50000000000E+02  0.50000000000E+02  0.00000000000E+00 0. -1.
        -11   -1    0    0    0    0 -0.00000000000E+00 -0.00000000000E+00 -0.50000000000E+02  0.50000000000E+02  0.00000000000E+00 0.  1.
         23    2    1    2    0    0  0.00000000000E+00  0.00000000000E+00  0.00000000000E+00  0.10000000000E+03  0.10000000000E+03 0.  0.
          5    1    3    3  501    0  0.10427789029E+02 -0.43282075094E+02 -0.22267312174E+02  0.50000000000E+02  0.47000000000E+01 0. -1.
         -5    1    3    3    0  501 -0.10427789029E+02  0.43282075094E+02  0.22267312174E+02  0.50000000000E+02  0.47000000000E+01 0.  1.
</event>
<event>
 5    1  0.9091923E-001  0.1000000E+03  0.7546771E-02  0.1163815E+00
         11   -1    0    0    0    0  0.00000000000E+00  0.00000000000E+00  0.50000000000E+02  0.50000000000E+02  0.00000000000E+00 0. -1.
        -11   -1    0    0    0    0 -0.00000000000E+00 -0.00000000000E+00 -0.50000000000E+02  0.50000000000E+02  0.00000000000E+00 0.  1.
         23    2    1    2    0    0  0.00000000000E+00  0.00000000000E+00  0.00000000000E+00  0.10000000000E+03  0.10000000000E+03 0.  0.
          5    1    3    3  501    0  0.16431290894E+02 -0.11648315326E+02  0.45521856614E+02  0.50000000000E+02  0.47000000000E+01 0. -1.
         -5    1    3    3    0  501 -0.16431290894E+02  0.11648315326E+02 -0.45521856614E+02  0.50000000000E+02  0.47000000000E+01 0.  1.
</event>
<event>
 5    1  0.9091923E-001  0.1000000E+03  0.7546771E-02  0.1163815E+00
         11   -1    0    0    0    0  0.00000000000E+00  0.00000000000E+00  0.50000000000E+02  0.50000000000E+02  0.00000000000E+00 0. -1.
        -11   -1    0    0    0    0 -0.00000000000E+00 -0.00000000000E+00 -0.50000000000E+02  0.50000000000E+02  0.00000000000E+00 0.  1.
         23    2    1    2    0    0  0.00000000000E+00  0.00000000000E+00  0.00000000000E+00  0.10000000000E+03  0.10000000000E+03 0.  0.
          5    1    3    3  501    0  0.10449352625E+02 -0.18484273208E+01  0.48634394683E+02  0.50000000000E+02  0.47000000000E+01 0. -1.
         -5    1    3    3    0  501 -0.10449352625E+02  0.18484273208E+01 -0.48634394683E+02  0.50000000000E+02  0.47000000000E+01 0.  1.
</event>
<event>
 5    1  0.9091923E-001  0.1000000E+03  0.7546771E-02  0.1163815E+00
         11   -1    0    0    0    0  0.00000000000E+00  0.00000000000E+00  0.50000000000E+02  0.50000000000E+02  0.00000000000E+00 0. -1.
        -11   -1    0    0    0    0 -0.00000000000E+00 -0.00000000000E+00 -0.50000000000E+02  0.50000000000E+02  0.00000000000E+00 0.  1.
         23    2    1    2    0    0  0.00000000000E+00  0.00000000000E+00  0.00000000000E+00  0.10000000000E+03  0.10000000000E+03 0.  0.
          5    1    3    3  501    0 -0.39947921907E+02 -0.23170132227E+02  0.18580056726E+02  0.50000000000E+02  0.47000000000E+01 0. -1.
         -5    1    3    3    0  501  0.39947921907E+02  0.23170132227E+02 -0.18580056726E+02  0.50000000000E+02  0.47000000000E+01 0.  1.
</event>
<event>
 5    1  0.9091923E-001  0.1000000E+03  0.7546771E-02  0.1163815E+00
         11   -1    0    0    0    0  0.00000000000E+00  0.00000000000E+00  0.50000000000E+02  0.50000000000E+02  0.00000000000E+00 0. -1.
        -11   -1    0    0    0    0 -0.00000000000E+00 -0.00000000000E+00 -0.50000000000E+02  0.50000000000E+02  0.00000000000E+00 0.  1.
         23    2    1    2    0    0  0.00000000000E+00  0.00000000000E+00  0.00000000000E+00  0.10000000000E+03  0.10000000000E+03 0.  0.
          5    1    3    3  501    0  0.53557627168E+00 -0.32177809020E+02  0.37976463299E+02  0.50000000000E+02  0.47000000000E+01 0. -1.
         -5    1    3    3    0  501 -0.53557627168E+00  0.32177809020E+02 -0.37976463299E+02  0.50000000000E+02  0.47000000000E+01 0.  1.
</event>
<event>
 5    1  0.9091923E-001  0.1000000E+03  0.7546771E-02  0.1163815E+00
         11   -1    0    0    0    0  0.00000000000E+00  0.00000000000E+00  0.50000000000E+02  0.50000000000E+02  0.00000000000E+00 0.  1.
        -11   -1    0    0    0    0 -0.00000000000E+00 -0.00000000000E+00 -0.50000000000E+02  0.50000000000E+02  0.00000000000E+00 0. -1.
         23    2    1    2    0    0  0.00000000000E+00  0.00000000000E+00  0.00000000000E+00  0.10000000000E+03  0.10000000000E+03 0.  0.
          5    1    3    3  501    0 -0.43149080051E+02 -0.10004991764E+02 -0.22714907672E+02  0.50000000000E+02  0.47000000000E+01 0. -1.
         -5    1    3    3    0  501  0.43149080051E+02  0.10004991764E+02  0.22714907672E+02  0.50000000000E+02  0.47000000000E+01 0.  1.
</event>
<event>
 5    1  0.9091923E-001  0.1000000E+03  0.7546771E-02  0.1163815E+00
         11   -1    0    0    0    0  0.00000000000E+00  0.00000000000E+00  0.50000000000E+02  0.50000000000E+02  0.00000000000E+00 0.  1.
        -11   -1    0    0    0    0 -0.00000000000E+00 -0.00000000000E+00 -0.50000000000E+02  0.50000000000E+02  0.00000000000E+00 0. -1.
         23    2    1    2    0    0  0.00000000000E+00  0.00000000000E+00  0.00000000000E+00  0.10000000000E+03  0.10000000000E+03 0.  0.
          5    1    3    3  501    0 -0.15922609273E+02 -0.19509378351E+02 -0.42939080920E+02  0.50000000000E+02  0.47000000000E+01 0. -1.
         -5    1    3    3    0  501  0.15922609273E+02  0.19509378351E+02  0.42939080920E+02  0.50000000000E+02  0.47000000000E+01 0.  1.
</event>
<event>
 5    1  0.9091923E-001  0.1000000E+03  0.7546771E-02  0.1163815E+00
         11   -1    0    0    0    0  0.00000000000E+00  0.00000000000E+00  0.50000000000E+02  0.50000000000E+02  0.00000000000E+00 0. -1.
        -11   -1    0    0    0    0 -0.00000000000E+00 -0.00000000000E+00 -0.50000000000E+02  0.50000000000E+02  0.00000000000E+00 0.  1.
         23    2    1    2    0    0  0.00000000000E+00  0.00000000000E+00  0.00000000000E+00  0.10000000000E+03  0.10000000000E+03 0.  0.
          5    1    3    3  501    0  0.96945347314E+01  0.27335372368E+02  0.40456191292E+02  0.50000000000E+02  0.47000000000E+01 0. -1.
         -5    1    3    3    0  501 -0.96945347314E+01 -0.27335372368E+02 -0.40456191292E+02  0.50000000000E+02  0.47000000000E+01 0.  1.
</event>
<event>
 5    1  0.9091923E-001  0.1000000E+03  0.7546771E-02  0.1163815E+00
         11   -1    0    0    0    0  0.00000000000E+00  0.00000000000E+00  0.50000000000E+02  0.50000000000E+02  0.00000000000E+00 0. -1.
        -11   -1    0    0    0    0 -0.00000000000E+00 -0.00000000000E+00 -0.50000000000E+02  0.50000000000E+02  0.00000000000E+00 0.  1.
         23    2    1    2    0    0  0.00000000000E+00  0.00000000000E+00  0.00000000000E+00  0.10000000000E+03  0.10000000000E+03 0.  0.
          5    1    3    3  501    0  0.18746423562E+02  0.46098760857E+02 -0.11772217739E+01  0.50000000000E+02  0.47000000000E+01 0. -1.
         -5    1    3    3    0  501 -0.18746423562E+02 -0.46098760857E+02  0.11772217739E+01  0.50000000000E+02  0.47000000000E+01 0.  1.
</event>
<event>
 5    1  0.9091923E-001  0.1000000E+03  0.7546771E-02  0.1163815E+00
         11   -1    0    0    0    0  0.00000000000E+00  0.00000000000E+00  0.50000000000E+02  0.50000000000E+02  0.00000000000E+00 0.  1.
        -11   -1    0    0    0    0 -0.00000000000E+00 -0.00000000000E+00 -0.50000000000E+02  0.50000000000E+02  0.00000000000E+00 0. -1.
         23    2    1    2    0    0  0.00000000000E+00  0.00000000000E+00  0.00000000000E+00  0.10000000000E+03  0.10000000000E+03 0.  0.
          5    1    3    3  501    0 -0.10652482298E+02 -0.11714232665E+02  0.47193340356E+02  0.50000000000E+02  0.47000000000E+01 0.  1.
         -5    1    3    3    0  501  0.10652482298E+02  0.11714232665E+02 -0.47193340356E+02  0.50000000000E+02  0.47000000000E+01 0. -1.
</event>
<event>
 5    1  0.9091923E-001  0.1000000E+03  0.7546771E-02  0.1163815E+00
         11   -1    0    0    0    0  0.00000000000E+00  0.00000000000E+00  0.50000000000E+02  0.50000000000E+02  0.00000000000E+00 0.  1.
        -11   -1    0    0    0    0 -0.00000000000E+00 -0.00000000000E+00 -0.50000000000E+02  0.50000000000E+02  0.00000000000E+00 0. -1.
         23    2    1    2    0    0  0.00000000000E+00  0.00000000000E+00  0.00000000000E+00  0.10000000000E+03  0.10000000000E+03 0.  0.
          5    1    3    3  501    0 -0.47897679914E+02 -0.38167616917E+01  0.13005944375E+02  0.50000000000E+02  0.47000000000E+01 0. -1.
         -5    1    3    3    0  501  0.47897679914E+02  0.38167616917E+01 -0.13005944375E+02  0.50000000000E+02  0.47000000000E+01 0.  1.
</event>
<event>
 5    1  0.9091923E-001  0.1000000E+03  0.7546771E-02  0.1163815E+00
         11   -1    0    0    0    0  0.00000000000E+00  0.00000000000E+00  0.50000000000E+02  0.50000000000E+02  0.00000000000E+00 0. -1.
        -11   -1    0    0    0    0 -0.00000000000E+00 -0.00000000000E+00 -0.50000000000E+02  0.50000000000E+02  0.00000000000E+00 0.  1.
         23    2    1    2    0    0  0.00000000000E+00  0.00000000000E+00  0.00000000000E+00  0.10000000000E+03  0.10000000000E+03 0.  0.
          5    1    3    3  501    0 -0.81060788066E+01 -0.15778551957E+02  0.46510630876E+02  0.50000000000E+02  0.47000000000E+01 0. -1.
         -5    1    3    3    0  501  0.81060788066E+01  0.15778551957E+02 -0.46510630876E+02  0.50000000000E+02  0.47000000000E+01 0.  1.
</event>
<event>
 5    1  0.9091923E-001  0.1000000E+03  0.7546771E-02  0.1163815E+00
         11   -1    0    0    0    0  0.00000000000E+00  0.00000000000E+00  0.50000000000E+02  0.50000000000E+02  0.00000000000E+00 0.  1.
        -11   -1    0    0    0    0 -0.00000000000E+00 -0.00000000000E+00 -0.50000000000E+02  0.50000000000E+02  0.00000000000E+00 0. -1.
         23    2    1    2    0    0  0.00000000000E+00  0.00000000000E+00  0.00000000000E+00  0.10000000000E+03  0.10000000000E+03 0.  0.
          5    1    3    3  501    0  0.32779583791E+02  0.25657134203E+02 -0.27296892698E+02  0.50000000000E+02  0.47000000000E+01 0. -1.
         -5    1    3    3    0  501 -0.32779583791E+02 -0.25657134203E+02  0.27296892698E+02  0.50000000000E+02  0.47000000000E+01 0.  1.
</event>
<event>
 5    1  0.9091923E-001  0.1000000E+03  0.7546771E-02  0.1163815E+00
         11   -1    0    0    0    0  0.00000000000E+00  0.00000000000E+00  0.50000000000E+02  0.50000000000E+02  0.00000000000E+00 0. -1.
        -11   -1    0    0    0    0 -0.00000000000E+00 -0.00000000000E+00 -0.50000000000E+02  0.50000000000E+02  0.00000000000E+00 0.  1.
         23    2    1    2    0    0  0.00000000000E+00  0.00000000000E+00  0.00000000000E+00  0.10000000000E+03  0.10000000000E+03 0.  0.
          5    1    3    3  501    0  0.45883525617E+02  0.29770723320E+01  0.19072207981E+02  0.50000000000E+02  0.47000000000E+01 0. -1.
         -5    1    3    3    0  501 -0.45883525617E+02 -0.29770723320E+01 -0.19072207981E+02  0.50000000000E+02  0.47000000000E+01 0.  1.
</event>
<event>
 5    1  0.9091923E-001  0.1000000E+03  0.7546771E-02  0.1163815E+00
         11   -1    0    0    0    0  0.00000000000E+00  0.00000000000E+00  0.50000000000E+02  0.50000000000E+02  0.00000000000E+00 0. -1.
        -11   -1    0    0    0    0 -0.00000000000E+00 -0.00000000000E+00 -0.50000000000E+02  0.50000000000E+02  0.00000000000E+00 0.  1.
         23    2    1    2    0    0  0.00000000000E+00  0.00000000000E+00  0.00000000000E+00  0.10000000000E+03  0.10000000000E+03 0.  0.
          5    1    3    3  501    0 -0.13791543869E+02  0.18738025472E+02  0.44006700843E+02  0.50000000000E+02  0.47000000000E+01 0. -1.
         -5    1    3    3    0  501  0.13791543869E+02 -0.18738025472E+02 -0.44006700843E+02  0.50000000000E+02  0.47000000000E+01 0.  1.
</event>
<event>
 5    1  0.9091923E-001  0.1000000E+03  0.7546771E-02  0.1163815E+00
         11   -1    0    0    0    0  0.00000000000E+00  0.00000000000E+00  0.50000000000E+02  0.50000000000E+02  0.00000000000E+00 0. -1.
        -11   -1    0    0    0    0 -0.00000000000E+00 -0.00000000000E+00 -0.50000000000E+02  0.50000000000E+02  0.00000000000E+00 0.  1.
         23    2    1    2    0    0  0.00000000000E+00  0.00000000000E+00  0.00000000000E+00  0.10000000000E+03  0.10000000000E+03 0.  0.
          5    1    3    3  501    0  0.10556357237E+02  0.18379924073E+02  0.45040556313E+02  0.50000000000E+02  0.47000000000E+01 0. -1.
         -5    1    3    3    0  501 -0.10556357237E+02 -0.18379924073E+02 -0.45040556313E+02  0.50000000000E+02  0.47000000000E+01 0.  1.
</event>
<event>
 5    1  0.9091923E-001  0.1000000E+03  0.7546771E-02  0.1163815E+00
         11   -1    0    0    0    0  0.00000000000E+00  0.00000000000E+00  0.50000000000E+02  0.50000000000E+02  0.00000000000E+00 0. -1.
        -11   -1    0    0    0    0 -0.00000000000E+00 -0.00000000000E+00 -0.50000000000E+02  0.50000000000E+02  0.00000000000E+00 0.  1.
         23    2    1    2    0    0  0.00000000000E+00  0.00000000000E+00  0.00000000000E+00  0.10000000000E+03  0.10000000000E+03 0.  0.
          5    1    3    3  501    0  0.38919721673E+02 -0.28969965588E+02  0.11131323314E+02  0.50000000000E+02  0.47000000000E+01 0. -1.
         -5    1    3    3    0  501 -0.38919721673E+02  0.28969965588E+02 -0.11131323314E+02  0.50000000000E+02  0.47000000000E+01 0.  1.
</event>
<event>
 5    1  0.9091923E-001  0.1000000E+03  0.7546771E-02  0.1163815E+00
         11   -1    0    0    0    0  0.00000000000E+00  0.00000000000E+00  0.50000000000E+02  0.50000000000E+02  0.00000000000E+00 0. -1.
        -11   -1    0    0    0    0 -0.00000000000E+00 -0.00000000000E+00 -0.50000000000E+02  0.50000000000E+02  0.00000000000E+00 0.  1.
         23    2    1    2    0    0  0.00000000000E+00  0.00000000000E+00  0.00000000000E+00  0.10000000000E+03  0.10000000000E+03 0.  0.
          5    1    3    3  501    0 -0.21267772050E+01  0.12419860056E+02  0.48157386712E+02  0.50000000000E+02  0.47000000000E+01 0. -1.
         -5    1    3    3    0  501  0.21267772050E+01 -0.12419860056E+02 -0.48157386712E+02  0.50000000000E+02  0.47000000000E+01 0.  1.
</event>
<event>
 5    1  0.9091923E-001  0.1000000E+03  0.7546771E-02  0.1163815E+00
         11   -1    0    0    0    0  0.00000000000E+00  0.00000000000E+00  0.50000000000E+02  0.50000000000E+02  0.00000000000E+00 0.  1.
        -11   -1    0    0    0    0 -0.00000000000E+00 -0.00000000000E+00 -0.50000000000E+02  0.50000000000E+02  0.00000000000E+00 0. -1.
         23    2    1    2    0    0  0.00000000000E+00  0.00000000000E+00  0.00000000000E+00  0.10000000000E+03  0.10000000000E+03 0.  0.
          5    1    3    3  501    0  0.99421404679E+01  0.45039364760E+02  0.18722165071E+02  0.50000000000E+02  0.47000000000E+01 0. -1.
         -5    1    3    3    0  501 -0.99421404679E+01 -0.45039364760E+02 -0.18722165071E+02  0.50000000000E+02  0.47000000000E+01 0.  1.
</event>
<event>
 5    1  0.9091923E-001  0.1000000E+03  0.7546771E-02  0.1163815E+00
         11   -1    0    0    0    0  0.00000000000E+00  0.00000000000E+00  0.50000000000E+02  0.50000000000E+02  0.00000000000E+00 0.  1.
        -11   -1    0    0    0    0 -0.00000000000E+00 -0.00000000000E+00 -0.50000000000E+02  0.50000000000E+02  0.00000000000E+00 0. -1.
         23    2    1    2    0    0  0.00000000000E+00  0.00000000000E+00  0.00000000000E+00  0.10000000000E+03  0.10000000000E+03 0.  0.
          5    1    3    3  501    0  0.44163358048E+02 -0.11594155829E+02 -0.19826329881E+02  0.50000000000E+02  0.47000000000E+01 0. -1.
         -5    1    3    3    0  501 -0.44163358048E+02  0.11594155829E+02  0.19826329881E+02  0.50000000000E+02  0.47000000000E+01 0.  1.
</event>
<event>
 5    1  0.9091923E-001  0.1000000E+03  0.7546771E-02  0.1163815E+00
         11   -1    0    0    0    0  0.00000000000E+00  0.00000000000E+00  0.50000000000E+02  0.50000000000E+02  0.00000000000E+00 0. -1.
        -11   -1    0    0    0    0 -0.00000000000E+00 -0.00000000000E+00 -0.50000000000E+02  0.50000000000E+02  0.00000000000E+00 0.  1.
         23    2    1    2    0    0  0.00000000000E+00  0.00000000000E+00  0.00000000000E+00  0.10000000000E+03  0.10000000000E+03 0.  0.
          5    1    3    3  501    0 -0.17325135725E+02  0.23200772269E+01  0.46608657069E+02  0.50000000000E+02  0.47000000000E+01 0. -1.
         -5    1    3    3    0  501  0.17325135725E+02 -0.23200772269E+01 -0.46608657069E+02  0.50000000000E+02  0.47000000000E+01 0.  1.
</event>
<event>
 5    1  0.9091923E-001  0.1000000E+03  0.7546771E-02  0.1163815E+00
         11   -1    0    0    0    0  0.00000000000E+00  0.00000000000E+00  0.50000000000E+02  0.50000000000E+02  0.00000000000E+00 0. -1.
        -11   -1    0    0    0    0 -0.00000000000E+00 -0.00000000000E+00 -0.50000000000E+02  0.50000000000E+02  0.00000000000E+00 0.  1.
         23    2    1    2    0    0  0.00000000000E+00  0.00000000000E+00  0.00000000000E+00  0.10000000000E+03  0.10000000000E+03 0.  0.
          5    1    3    3  501    0 -0.19625048227E+01 -0.47101262292E+02 -0.15985295284E+02  0.50000000000E+02  0.47000000000E+01 0. -1.
         -5    1    3    3    0  501  0.19625048227E+01  0.47101262292E+02  0.15985295284E+02  0.50000000000E+02  0.47000000000E+01 0.  1.
</event>
<event>
 5    1  0.9091923E-001  0.1000000E+03  0.7546771E-02  0.1163815E+00
         11   -1    0    0    0    0  0.00000000000E+00  0.00000000000E+00  0.50000000000E+02  0.50000000000E+02  0.00000000000E+00 0.  1.
        -11   -1    0    0    0    0 -0.00000000000E+00 -0.00000000000E+00 -0.50000000000E+02  0.50000000000E+02  0.00000000000E+00 0. -1.
         23    2    1    2    0    0  0.00000000000E+00  0.00000000000E+00  0.00000000000E+00  0.10000000000E+03  0.10000000000E+03 0.  0.
          5    1    3    3  501    0 -0.21011299557E+02 -0.45078020478E+02  0.20993715126E+01  0.50000000000E+02  0.47000000000E+01 0. -1.
         -5    1    3    3    0  501  0.21011299557E+02  0.45078020478E+02 -0.20993715126E+01  0.50000000000E+02  0.47000000000E+01 0.  1.
</event>
<event>
 5    1  0.9091923E-001  0.1000000E+03  0.7546771E-02  0.1163815E+00
         11   -1    0    0    0    0  0.00000000000E+00  0.00000000000E+00  0.50000000000E+02  0.50000000000E+02  0.00000000000E+00 0. -1.
        -11   -1    0    0    0    0 -0.00000000000E+00 -0.00000000000E+00 -0.50000000000E+02  0.50000000000E+02  0.00000000000E+00 0.  1.
         23    2    1    2    0    0  0.00000000000E+00  0.00000000000E+00  0.00000000000E+00  0.10000000000E+03  0.10000000000E+03 0.  0.
          5    1    3    3  501    0  0.48599367246E+02 -0.10544050697E+02  0.21987492351E+01  0.50000000000E+02  0.47000000000E+01 0. -1.
         -5    1    3    3    0  501 -0.48599367246E+02  0.10544050697E+02 -0.21987492351E+01  0.50000000000E+02  0.47000000000E+01 0.  1.
</event>
<event>
 5    1  0.9091923E-001  0.1000000E+03  0.7546771E-02  0.1163815E+00
         11   -1    0    0    0    0  0.00000000000E+00  0.00000000000E+00  0.50000000000E+02  0.50000000000E+02  0.00000000000E+00 0.  1.
        -11   -1    0    0    0    0 -0.00000000000E+00 -0.00000000000E+00 -0.50000000000E+02  0.50000000000E+02  0.00000000000E+00 0. -1.
         23    2    1    2    0    0  0.00000000000E+00  0.00000000000E+00  0.00000000000E+00  0.10000000000E+03  0.10000000000E+03 0.  0.
          5    1    3    3  501    0 -0.47018134327E+01  0.31232229949E+02 -0.38475326676E+02  0.50000000000E+02  0.47000000000E+01 0. -1.
         -5    1    3    3    0  501  0.47018134327E+01 -0.31232229949E+02  0.38475326676E+02  0.50000000000E+02  0.47000000000E+01 0.  1.
</event>
<event>
 5    1  0.9091923E-001  0.1000000E+03  0.7546771E-02  0.1163815E+00
         11   -1    0    0    0    0  0.00000000000E+00  0.00000000000E+00  0.50000000000E+02  0.50000000000E+02  0.00000000000E+00 0. -1.
        -11   -1    0    0    0    0 -0.00000000000E+00 -0.00000000000E+00 -0.50000000000E+02  0.50000000000E+02  0.00000000000E+00 0.  1.
         23    2    1    2    0    0  0.00000000000E+00  0.00000000000E+00  0.00000000000E+00  0.10000000000E+03  0.10000000000E+03 0.  0.
          5    1    3    3  501    0  0.22480806993E+02  0.34845647550E+02  0.27537323104E+02  0.50000000000E+02  0.47000000000E+01 0. -1.
         -5    1    3    3    0  501 -0.22480806993E+02 -0.34845647550E+02 -0.27537323104E+02  0.50000000000E+02  0.47000000000E+01 0.  1.
</event>
<event>
 5    1  0.9091923E-001  0.1000000E+03  0.7546771E-02  0.1163815E+00
         11   -1    0    0    0    0  0.00000000000E+00  0.00000000000E+00  0.50000000000E+02  0.50000000000E+02  0.00000000000E+00 0. -1.
        -11   -1    0    0    0    0 -0.00000000000E+00 -0.00000000000E+00 -0.50000000000E+02  0.50000000000E+02  0.00000000000E+00 0.  1.
         23    2    1    2    0    0  0.00000000000E+00  0.00000000000E+00  0.00000000000E+00  0.10000000000E+03  0.10000000000E+03 0.  0.
          5    1    3    3  501    0 -0.17370619695E+02  0.40925857787E+02 -0.22388517946E+02  0.50000000000E+02  0.47000000000E+01 0. -1.
         -5    1    3    3    0  501  0.17370619695E+02 -0.40925857787E+02  0.22388517946E+02  0.50000000000E+02  0.47000000000E+01 0.  1.
</event>
<event>
 5    1  0.9091923E-001  0.1000000E+03  0.7546771E-02  0.1163815E+00
         11   -1    0    0    0    0  0.00000000000E+00  0.00000000000E+00  0.50000000000E+02  0.50000000000E+02  0.00000000000E+00 0.  1.
        -11   -1    0    0    0    0 -0.00000000000E+00 -0.00000000000E+00 -0.50000000000E+02  0.50000000000E+02  0.00000000000E+00 0. -1.
         23    2    1    2    0    0  0.00000000000E+00  0.00000000000E+00  0.00000000000E+00  0.10000000000E+03  0.10000000000E+03 0.  0.
          5    1    3    3  501    0 -0.26577205940E+02  0.14882879910E+02 -0.39370826890E+02  0.50000000000E+02  0.47000000000E+01 0. -1.
         -5    1    3    3    0  501  0.26577205940E+02 -0.14882879910E+02  0.39370826890E+02  0.50000000000E+02  0.47000000000E+01 0.  1.
</event>
<event>
 5    1  0.9091923E-001  0.1000000E+03  0.7546771E-02  0.1163815E+00
         11   -1    0    0    0    0  0.00000000000E+00  0.00000000000E+00  0.50000000000E+02  0.50000000000E+02  0.00000000000E+00 0. -1.
        -11   -1    0    0    0    0 -0.00000000000E+00 -0.00000000000E+00 -0.50000000000E+02  0.50000000000E+02  0.00000000000E+00 0.  1.
         23    2    1    2    0    0  0.00000000000E+00  0.00000000000E+00  0.00000000000E+00  0.10000000000E+03  0.10000000000E+03 0.  0.
          5    1    3    3  501    0 -0.45015041631E+01  0.49115654226E+02  0.67304509673E+01  0.50000000000E+02  0.47000000000E+01 0. -1.
         -5    1    3    3    0  501  0.45015041631E+01 -0.49115654226E+02 -0.67304509673E+01  0.50000000000E+02  0.47000000000E+01 0.  1.
</event>
<event>
 5    1  0.9091923E-001  0.1000000E+03  0.7546771E-02  0.1163815E+00
         11   -1    0    0    0    0  0.00000000000E+00  0.00000000000E+00  0.50000000000E+02  0.50000000000E+02  0.00000000000E+00 0. -1.
        -11   -1    0    0    0    0 -0.00000000000E+00 -0.00000000000E+00 -0.50000000000E+02  0.50000000000E+02  0.00000000000E+00 0.  1.
         23    2    1    2    0    0  0.00000000000E+00  0.00000000000E+00  0.00000000000E+00  0.10000000000E+03  0.10000000000E+03 0.  0.
          5    1    3    3  501    0 -0.38631159880E+02  0.20490945269E+02  0.23783705521E+02  0.50000000000E+02  0.47000000000E+01 0. -1.
         -5    1    3    3    0  501  0.38631159880E+02 -0.20490945269E+02 -0.23783705521E+02  0.50000000000E+02  0.47000000000E+01 0.  1.
</event>
<event>
 5    1  0.9091923E-001  0.1000000E+03  0.7546771E-02  0.1163815E+00
         11   -1    0    0    0    0  0.00000000000E+00  0.00000000000E+00  0.50000000000E+02  0.50000000000E+02  0.00000000000E+00 0. -1.
        -11   -1    0    0    0    0 -0.00000000000E+00 -0.00000000000E+00 -0.50000000000E+02  0.50000000000E+02  0.00000000000E+00 0.  1.
         23    2    1    2    0    0  0.00000000000E+00  0.00000000000E+00  0.00000000000E+00  0.10000000000E+03  0.10000000000E+03 0.  0.
          5    1    3    3  501    0  0.48193650634E+02  0.49610613108E+01  0.11431093964E+02  0.50000000000E+02  0.47000000000E+01 0. -1.
         -5    1    3    3    0  501 -0.48193650634E+02 -0.49610613108E+01 -0.11431093964E+02  0.50000000000E+02  0.47000000000E+01 0.  1.
</event>
<event>
 5    1  0.9091923E-001  0.1000000E+03  0.7546771E-02  0.1163815E+00
         11   -1    0    0    0    0  0.00000000000E+00  0.00000000000E+00  0.50000000000E+02  0.50000000000E+02  0.00000000000E+00 0.  1.
        -11   -1    0    0    0    0 -0.00000000000E+00 -0.00000000000E+00 -0.50000000000E+02  0.50000000000E+02  0.00000000000E+00 0. -1.
         23    2    1    2    0    0  0.00000000000E+00  0.00000000000E+00  0.00000000000E+00  0.10000000000E+03  0.10000000000E+03 0.  0.
          5    1    3    3  501    0  0.19264955205E+02  0.45600321790E+02 -0.52327959614E+01  0.50000000000E+02  0.47000000000E+01 0. -1.
         -5    1    3    3    0  501 -0.19264955205E+02 -0.45600321790E+02  0.52327959614E+01  0.50000000000E+02  0.47000000000E+01 0.  1.
</event>
<event>
 5    1  0.9091923E-001  0.1000000E+03  0.7546771E-02  0.1163815E+00
         11   -1    0    0    0    0  0.00000000000E+00  0.00000000000E+00  0.50000000000E+02  0.50000000000E+02  0.00000000000E+00 0.  1.
        -11   -1    0    0    0    0 -0.00000000000E+00 -0.00000000000E+00 -0.50000000000E+02  0.50000000000E+02  0.00000000000E+00 0. -1.
         23    2    1    2    0    0  0.00000000000E+00  0.00000000000E+00  0.00000000000E+00  0.10000000000E+03  0.10000000000E+03 0.  0.
          5    1    3    3  501    0  0.35129364923E+02 -0.15786149448E+02 -0.31537837683E+02  0.50000000000E+02  0.47000000000E+01 0. -1.
         -5    1    3    3    0  501 -0.35129364923E+02  0.15786149448E+02  0.31537837683E+02  0.50000000000E+02  0.47000000000E+01 0.  1.
</event>
<event>
 5    1  0.9091923E-001  0.1000000E+03  0.7546771E-02  0.1163815E+00
         11   -1    0    0    0    0  0.00000000000E+00  0.00000000000E+00  0.50000000000E+02  0.50000000000E+02  0.00000000000E+00 0.  1.
        -11   -1    0    0    0    0 -0.00000000000E+00 -0.00000000000E+00 -0.50000000000E+02  0.50000000000E+02  0.00000000000E+00 0. -1.
         23    2    1    2    0    0  0.00000000000E+00  0.00000000000E+00  0.00000000000E+00  0.10000000000E+03  0.10000000000E+03 0.  0.
          5    1    3    3  501    0  0.35025640282E+02 -0.25115355788E+02 -0.24906493661E+02  0.50000000000E+02  0.47000000000E+01 0. -1.
         -5    1    3    3    0  501 -0.35025640282E+02  0.25115355788E+02  0.24906493661E+02  0.50000000000E+02  0.47000000000E+01 0.  1.
</event>
<event>
 5    1  0.9091923E-001  0.1000000E+03  0.7546771E-02  0.1163815E+00
         11   -1    0    0    0    0  0.00000000000E+00  0.00000000000E+00  0.50000000000E+02  0.50000000000E+02  0.00000000000E+00 0. -1.
        -11   -1    0    0    0    0 -0.00000000000E+00 -0.00000000000E+00 -0.50000000000E+02  0.50000000000E+02  0.00000000000E+00 0.  1.
         23    2    1    2    0    0  0.00000000000E+00  0.00000000000E+00  0.00000000000E+00  0.10000000000E+03  0.10000000000E+03 0.  0.
          5    1    3    3  501    0  0.16966606360E+02  0.30407336282E+01  0.46699017202E+02  0.50000000000E+02  0.47000000000E+01 0. -1.
         -5    1    3    3    0  501 -0.16966606360E+02 -0.30407336282E+01 -0.46699017202E+02  0.50000000000E+02  0.47000000000E+01 0.  1.
</event>
<event>
 5    1  0.9091923E-001  0.1000000E+03  0.7546771E-02  0.1163815E+00
         11   -1    0    0    0    0  0.00000000000E+00  0.00000000000E+00  0.50000000000E+02  0.50000000000E+02  0.00000000000E+00 0.  1.
        -11   -1    0    0    0    0 -0.00000000000E+00 -0.00000000000E+00 -0.50000000000E+02  0.50000000000E+02  0.00000000000E+00 0. -1.
         23    2    1    2    0    0  0.00000000000E+00  0.00000000000E+00  0.00000000000E+00  0.10000000000E+03  0.10000000000E+03 0.  0.
          5    1    3    3  501    0  0.29790408423E+02 -0.36711941668E+02 -0.15578026351E+02  0.50000000000E+02  0.47000000000E+01 0. -1.
         -5    1    3    3    0  501 -0.29790408423E+02  0.36711941668E+02  0.15578026351E+02  0.50000000000E+02  0.47000000000E+01 0.  1.
</event>
<event>
 5    1  0.9091923E-001  0.1000000E+03  0.7546771E-02  0.1163815E+00
         11   -1    0    0    0    0  0.00000000000E+00  0.00000000000E+00  0.50000000000E+02  0.50000000000E+02  0.00000000000E+00 0.  1.
        -11   -1    0    0    0    0 -0.00000000000E+00 -0.00000000000E+00 -0.50000000000E+02  0.50000000000E+02  0.00000000000E+00 0. -1.
         23    2    1    2    0    0  0.00000000000E+00  0.00000000000E+00  0.00000000000E+00  0.10000000000E+03  0.10000000000E+03 0.  0.
          5    1    3    3  501    0 -0.18297836908E+02  0.21132899061E+02 -0.41188587518E+02  0.50000000000E+02  0.47000000000E+01 0. -1.
         -5    1    3    3    0  501  0.18297836908E+02 -0.21132899061E+02  0.41188587518E+02  0.50000000000E+02  0.47000000000E+01 0.  1.
</event>
<event>
 5    1  0.9091923E-001  0.1000000E+03  0.7546771E-02  0.1163815E+00
         11   -1    0    0    0    0  0.00000000000E+00  0.00000000000E+00  0.50000000000E+02  0.50000000000E+02  0.00000000000E+00 0. -1.
        -11   -1    0    0    0    0 -0.00000000000E+00 -0.00000000000E+00 -0.50000000000E+02  0.50000000000E+02  0.00000000000E+00 0.  1.
         23    2    1    2    0    0  0.00000000000E+00  0.00000000000E+00  0.00000000000E+00  0.10000000000E+03  0.10000000000E+03 0.  0.
          5    1    3    3  501    0 -0.38929223080E+02  0.51083487167E+01  0.30599515744E+02  0.50000000000E+02  0.47000000000E+01 0. -1.
         -5    1    3    3    0  501  0.38929223080E+02 -0.51083487167E+01 -0.30599515744E+02  0.50000000000E+02  0.47000000000E+01 0.  1.
</event>
<event>
 5    1  0.9091923E-001  0.1000000E+03  0.7546771E-02  0.1163815E+00
         11   -1    0    0    0    0  0.00000000000E+00  0.00000000000E+00  0.50000000000E+02  0.50000000000E+02  0.00000000000E+00 0. -1.
        -11   -1    0    0    0    0 -0.00000000000E+00 -0.00000000000E+00 -0.50000000000E+02  0.50000000000E+02  0.00000000000E+00 0.  1.
         23    2    1    2    0    0  0.00000000000E+00  0.00000000000E+00  0.00000000000E+00  0.10000000000E+03  0.10000000000E+03 0.  0.
          5    1    3    3  501    0  0.35681195563E+02  0.35207221152E+01  0.34530664618E+02  0.50000000000E+02  0.47000000000E+01 0. -1.
         -5    1    3    3    0  501 -0.35681195563E+02 -0.35207221152E+01 -0.34530664618E+02  0.50000000000E+02  0.47000000000E+01 0.  1.
</event>
<event>
 5    1  0.9091923E-001  0.1000000E+03  0.7546771E-02  0.1163815E+00
         11   -1    0    0    0    0  0.00000000000E+00  0.00000000000E+00  0.50000000000E+02  0.50000000000E+02  0.00000000000E+00 0. -1.
        -11   -1    0    0    0    0 -0.00000000000E+00 -0.00000000000E+00 -0.50000000000E+02  0.50000000000E+02  0.00000000000E+00 0.  1.
         23    2    1    2    0    0  0.00000000000E+00  0.00000000000E+00  0.00000000000E+00  0.10000000000E+03  0.10000000000E+03 0.  0.
          5    1    3    3  501    0 -0.41709535749E+02  0.19160799919E+02 -0.19263654225E+02  0.50000000000E+02  0.47000000000E+01 0. -1.
         -5    1    3    3    0  501  0.41709535749E+02 -0.19160799919E+02  0.19263654225E+02  0.50000000000E+02  0.47000000000E+01 0.  1.
</event>
<event>
 5    1  0.9091923E-001  0.1000000E+03  0.7546771E-02  0.1163815E+00
         11   -1    0    0    0    0  0.00000000000E+00  0.00000000000E+00  0.50000000000E+02  0.50000000000E+02  0.00000000000E+00 0. -1.
        -11   -1    0    0    0    0 -0.00000000000E+00 -0.00000000000E+00 -0.50000000000E+02  0.50000000000E+02  0.00000000000E+00 0.  1.
         23    2    1    2    0    0  0.00000000000E+00  0.00000000000E+00  0.00000000000E+00  0.10000000000E+03  0.10000000000E+03 0.  0.
          5    1    3    3  501    0 -0.47312307829E+02 -0.15453343028E+02  0.80605032682E+00  0.50000000000E+02  0.47000000000E+01 0. -1.
         -5    1    3    3    0  501  0.47312307829E+02  0.15453343028E+02 -0.80605032682E+00  0.50000000000E+02  0.47000000000E+01 0.  1.
</event>
<event>
 5    1  0.9091923E-001  0.1000000E+03  0.7546771E-02  0.1163815E+00
         11   -1    0    0    0    0  0.00000000000E+00  0.00000000000E+00  0.50000000000E+02  0.50000000000E+02  0.00000000000E+00 0.  1.
        -11   -1    0    0    0    0 -0.00000000000E+00 -0.00000000000E+00 -0.50000000000E+02  0.50000000000E+02  0.00000000000E+00 0. -1.
         23    2    1    2    0    0  0.00000000000E+00  0.00000000000E+00  0.00000000000E+00  0.10000000000E+03  0.10000000000E+03 0.  0.
          5    1    3    3  501    0  0.22651268134E+02 -0.23832445962E+02 -0.37374383893E+02  0.50000000000E+02  0.47000000000E+01 0. -1.
         -5    1    3    3    0  501 -0.22651268134E+02  0.23832445962E+02  0.37374383893E+02  0.50000000000E+02  0.47000000000E+01 0.  1.
</event>
<event>
 5    1  0.9091923E-001  0.1000000E+03  0.7546771E-02  0.1163815E+00
         11   -1    0    0    0    0  0.00000000000E+00  0.00000000000E+00  0.50000000000E+02  0.50000000000E+02  0.00000000000E+00 0. -1.
        -11   -1    0    0    0    0 -0.00000000000E+00 -0.00000000000E+00 -0.50000000000E+02  0.50000000000E+02  0.00000000000E+00 0.  1.
         23    2    1    2    0    0  0.00000000000E+00  0.00000000000E+00  0.00000000000E+00  0.10000000000E+03  0.10000000000E+03 0.  0.
          5    1    3    3  501    0 -0.17293612299E+02 -0.39781610199E+02  0.24418527057E+02  0.50000000000E+02  0.47000000000E+01 0. -1.
         -5    1    3    3    0  501  0.17293612299E+02  0.39781610199E+02 -0.24418527057E+02  0.50000000000E+02  0.47000000000E+01 0.  1.
</event>
<event>
 5    1  0.9091923E-001  0.1000000E+03  0.7546771E-02  0.1163815E+00
         11   -1    0    0    0    0  0.00000000000E+00  0.00000000000E+00  0.50000000000E+02  0.50000000000E+02  0.00000000000E+00 0. -1.
        -11   -1    0    0    0    0 -0.00000000000E+00 -0.00000000000E+00 -0.50000000000E+02  0.50000000000E+02  0.00000000000E+00 0.  1.
         23    2    1    2    0    0  0.00000000000E+00  0.00000000000E+00  0.00000000000E+00  0.10000000000E+03  0.10000000000E+03 0.  0.
          5    1    3    3  501    0  0.84939090098E+01  0.19093300230E+02  0.45179745418E+02  0.50000000000E+02  0.47000000000E+01 0. -1.
         -5    1    3    3    0  501 -0.84939090098E+01 -0.19093300230E+02 -0.45179745418E+02  0.50000000000E+02  0.47000000000E+01 0.  1.
</event>
<event>
 5    1  0.9091923E-001  0.1000000E+03  0.7546771E-02  0.1163815E+00
         11   -1    0    0    0    0  0.00000000000E+00  0.00000000000E+00  0.50000000000E+02  0.50000000000E+02  0.00000000000E+00 0. -1.
        -11   -1    0    0    0    0 -0.00000000000E+00 -0.00000000000E+00 -0.50000000000E+02  0.50000000000E+02  0.00000000000E+00 0.  1.
         23    2    1    2    0    0  0.00000000000E+00  0.00000000000E+00  0.00000000000E+00  0.10000000000E+03  0.10000000000E+03 0.  0.
          5    1    3    3  501    0  0.10960147539E+02  0.78658212365E+01  0.47915697033E+02  0.50000000000E+02  0.47000000000E+01 0. -1.
         -5    1    3    3    0  501 -0.10960147539E+02 -0.78658212365E+01 -0.47915697033E+02  0.50000000000E+02  0.47000000000E+01 0.  1.
</event>
<event>
 5    1  0.9091923E-001  0.1000000E+03  0.7546771E-02  0.1163815E+00
         11   -1    0    0    0    0  0.00000000000E+00  0.00000000000E+00  0.50000000000E+02  0.50000000000E+02  0.00000000000E+00 0. -1.
        -11   -1    0    0    0    0 -0.00000000000E+00 -0.00000000000E+00 -0.50000000000E+02  0.50000000000E+02  0.00000000000E+00 0.  1.
         23    2    1    2    0    0  0.00000000000E+00  0.00000000000E+00  0.00000000000E+00  0.10000000000E+03  0.10000000000E+03 0.  0.
          5    1    3    3  501    0 -0.25695135834E+02  0.11425940509E+02  0.41074540508E+02  0.50000000000E+02  0.47000000000E+01 0. -1.
         -5    1    3    3    0  501  0.25695135834E+02 -0.11425940509E+02 -0.41074540508E+02  0.50000000000E+02  0.47000000000E+01 0.  1.
</event>
<event>
 5    1  0.9091923E-001  0.1000000E+03  0.7546771E-02  0.1163815E+00
         11   -1    0    0    0    0  0.00000000000E+00  0.00000000000E+00  0.50000000000E+02  0.50000000000E+02  0.00000000000E+00 0. -1.
        -11   -1    0    0    0    0 -0.00000000000E+00 -0.00000000000E+00 -0.50000000000E+02  0.50000000000E+02  0.00000000000E+00 0.  1.
         23    2    1    2    0    0  0.00000000000E+00  0.00000000000E+00  0.00000000000E+00  0.10000000000E+03  0.10000000000E+03 0.  0.
          5    1    3    3  501    0 -0.29434441104E+02  0.35249821871E+01  0.39988725629E+02  0.50000000000E+02  0.47000000000E+01 0. -1.
         -5    1    3    3    0  501  0.29434441104E+02 -0.35249821871E+01 -0.39988725629E+02  0.50000000000E+02  0.47000000000E+01 0.  1.
</event>
<event>
 5    1  0.9091923E-001  0.1000000E+03  0.7546771E-02  0.1163815E+00
         11   -1    0    0    0    0  0.00000000000E+00  0.00000000000E+00  0.50000000000E+02  0.50000000000E+02  0.00000000000E+00 0. -1.
        -11   -1    0    0    0    0 -0.00000000000E+00 -0.00000000000E+00 -0.50000000000E+02  0.50000000000E+02  0.00000000000E+00 0.  1.
         23    2    1    2    0    0  0.00000000000E+00  0.00000000000E+00  0.00000000000E+00  0.10000000000E+03  0.10000000000E+03 0.  0.
          5    1    3    3  501    0  0.10925396307E+02  0.27872276338E+02  0.39770364937E+02  0.50000000000E+02  0.47000000000E+01 0. -1.
         -5    1    3    3    0  501 -0.10925396307E+02 -0.27872276338E+02 -0.39770364937E+02  0.50000000000E+02  0.47000000000E+01 0.  1.
</event>
<event>
 5    1  0.9091923E-001  0.1000000E+03  0.7546771E-02  0.1163815E+00
         11   -1    0    0    0    0  0.00000000000E+00  0.00000000000E+00  0.50000000000E+02  0.50000000000E+02  0.00000000000E+00 0. -1.
        -11   -1    0    0    0    0 -0.00000000000E+00 -0.00000000000E+00 -0.50000000000E+02  0.50000000000E+02  0.00000000000E+00 0.  1.
         23    2    1    2    0    0  0.00000000000E+00  0.00000000000E+00  0.00000000000E+00  0.10000000000E+03  0.10000000000E+03 0.  0.
          5    1    3    3  501    0 -0.44474242017E+02 -0.53704874781E+01  0.21705060730E+02  0.50000000000E+02  0.47000000000E+01 0. -1.
         -5    1    3    3    0  501  0.44474242017E+02  0.53704874781E+01 -0.21705060730E+02  0.50000000000E+02  0.47000000000E+01 0.  1.
</event>
<event>
 5    1  0.9091923E-001  0.1000000E+03  0.7546771E-02  0.1163815E+00
         11   -1    0    0    0    0  0.00000000000E+00  0.00000000000E+00  0.50000000000E+02  0.50000000000E+02  0.00000000000E+00 0. -1.
        -11   -1    0    0    0    0 -0.00000000000E+00 -0.00000000000E+00 -0.50000000000E+02  0.50000000000E+02  0.00000000000E+00 0.  1.
         23    2    1    2    0    0  0.00000000000E+00  0.00000000000E+00  0.00000000000E+00  0.10000000000E+03  0.10000000000E+03 0.  0.
          5    1    3    3  501    0 -0.37884387036E+02 -0.28589356980E+02  0.15011058803E+02  0.50000000000E+02  0.47000000000E+01 0. -1.
         -5    1    3    3    0  501  0.37884387036E+02  0.28589356980E+02 -0.15011058803E+02  0.50000000000E+02  0.47000000000E+01 0.  1.
</event>
<event>
 5    1  0.9091923E-001  0.1000000E+03  0.7546771E-02  0.1163815E+00
         11   -1    0    0    0    0  0.00000000000E+00  0.00000000000E+00  0.50000000000E+02  0.50000000000E+02  0.00000000000E+00 0. -1.
        -11   -1    0    0    0    0 -0.00000000000E+00 -0.00000000000E+00 -0.50000000000E+02  0.50000000000E+02  0.00000000000E+00 0.  1.
         23    2    1    2    0    0  0.00000000000E+00  0.00000000000E+00  0.00000000000E+00  0.10000000000E+03  0.10000000000E+03 0.  0.
          5    1    3    3  501    0 -0.13585071446E+02  0.38321088511E+02  0.28720202109E+02  0.50000000000E+02  0.47000000000E+01 0. -1.
         -5    1    3    3    0  501  0.13585071446E+02 -0.38321088511E+02 -0.28720202109E+02  0.50000000000E+02  0.47000000000E+01 0.  1.
</event>
<event>
 5    1  0.9091923E-001  0.1000000E+03  0.7546771E-02  0.1163815E+00
         11   -1    0    0    0    0  0.00000000000E+00  0.00000000000E+00  0.50000000000E+02  0.50000000000E+02  0.00000000000E+00 0. -1.
        -11   -1    0    0    0    0 -0.00000000000E+00 -0.00000000000E+00 -0.50000000000E+02  0.50000000000E+02  0.00000000000E+00 0.  1.
         23    2    1    2    0    0  0.00000000000E+00  0.00000000000E+00  0.00000000000E+00  0.10000000000E+03  0.10000000000E+03 0.  0.
          5    1    3    3  501    0  0.25941626632E+00  0.14742837561E+02  0.47544625815E+02  0.50000000000E+02  0.47000000000E+01 0. -1.
         -5    1    3    3    0  501 -0.25941626632E+00 -0.14742837561E+02 -0.47544625815E+02  0.50000000000E+02  0.47000000000E+01 0.  1.
</event>
<event>
 5    1  0.9091923E-001  0.1000000E+03  0.7546771E-02  0.1163815E+00
         11   -1    0    0    0    0  0.00000000000E+00  0.00000000000E+00  0.50000000000E+02  0.50000000000E+02  0.00000000000E+00 0. -1.
        -11   -1    0    0    0    0 -0.00000000000E+00 -0.00000000000E+00 -0.50000000000E+02  0.50000000000E+02  0.00000000000E+00 0.  1.
         23    2    1    2    0    0  0.00000000000E+00  0.00000000000E+00  0.00000000000E+00  0.10000000000E+03  0.10000000000E+03 0.  0.
          5    1    3    3  501    0  0.52445205942E+01 -0.21590938432E+02  0.44544768283E+02  0.50000000000E+02  0.47000000000E+01 0. -1.
         -5    1    3    3    0  501 -0.52445205942E+01  0.21590938432E+02 -0.44544768283E+02  0.50000000000E+02  0.47000000000E+01 0.  1.
</event>
<event>
 5    1  0.9091923E-001  0.1000000E+03  0.7546771E-02  0.1163815E+00
         11   -1    0    0    0    0  0.00000000000E+00  0.00000000000E+00  0.50000000000E+02  0.50000000000E+02  0.00000000000E+00 0.  1.
        -11   -1    0    0    0    0 -0.00000000000E+00 -0.00000000000E+00 -0.50000000000E+02  0.50000000000E+02  0.00000000000E+00 0. -1.
         23    2    1    2    0    0  0.00000000000E+00  0.00000000000E+00  0.00000000000E+00  0.10000000000E+03  0.10000000000E+03 0.  0.
          5    1    3    3  501    0 -0.48419379125E+02 -0.50159207177E+01  0.10407413919E+02  0.50000000000E+02  0.47000000000E+01 0. -1.
         -5    1    3    3    0  501  0.48419379125E+02  0.50159207177E+01 -0.10407413919E+02  0.50000000000E+02  0.47000000000E+01 0.  1.
</event>
<event>
 5    1  0.9091923E-001  0.1000000E+03  0.7546771E-02  0.1163815E+00
         11   -1    0    0    0    0  0.00000000000E+00  0.00000000000E+00  0.50000000000E+02  0.50000000000E+02  0.00000000000E+00 0. -1.
        -11   -1    0    0    0    0 -0.00000000000E+00 -0.00000000000E+00 -0.50000000000E+02  0.50000000000E+02  0.00000000000E+00 0.  1.
         23    2    1    2    0    0  0.00000000000E+00  0.00000000000E+00  0.00000000000E+00  0.10000000000E+03  0.10000000000E+03 0.  0.
          5    1    3    3  501    0 -0.36661802973E+02 -0.33539496675E+02 -0.29873676587E+01  0.50000000000E+02  0.47000000000E+01 0. -1.
         -5    1    3    3    0  501  0.36661802973E+02  0.33539496675E+02  0.29873676587E+01  0.50000000000E+02  0.47000000000E+01 0.  1.
</event>
<event>
 5    1  0.9091923E-001  0.1000000E+03  0.7546771E-02  0.1163815E+00
         11   -1    0    0    0    0  0.00000000000E+00  0.00000000000E+00  0.50000000000E+02  0.50000000000E+02  0.00000000000E+00 0.  1.
        -11   -1    0    0    0    0 -0.00000000000E+00 -0.00000000000E+00 -0.50000000000E+02  0.50000000000E+02  0.00000000000E+00 0. -1.
         23    2    1    2    0    0  0.00000000000E+00  0.00000000000E+00  0.00000000000E+00  0.10000000000E+03  0.10000000000E+03 0.  0.
          5    1    3    3  501    0 -0.86042997693E+01 -0.41843414339E+02 -0.25553956679E+02  0.50000000000E+02  0.47000000000E+01 0. -1.
         -5    1    3    3    0  501  0.86042997693E+01  0.41843414339E+02  0.25553956679E+02  0.50000000000E+02  0.47000000000E+01 0.  1.
</event>
<event>
 5    1  0.9091923E-001  0.1000000E+03  0.7546771E-02  0.1163815E+00
         11   -1    0    0    0    0  0.00000000000E+00  0.00000000000E+00  0.50000000000E+02  0.50000000000E+02  0.00000000000E+00 0.  1.
        -11   -1    0    0    0    0 -0.00000000000E+00 -0.00000000000E+00 -0.50000000000E+02  0.50000000000E+02  0.00000000000E+00 0. -1.
         23    2    1    2    0    0  0.00000000000E+00  0.00000000000E+00  0.00000000000E+00  0.10000000000E+03  0.10000000000E+03 0.  0.
          5    1    3    3  501    0  0.34529692680E+02  0.39635977312E+01 -0.35635659338E+02  0.50000000000E+02  0.47000000000E+01 0. -1.
         -5    1    3    3    0  501 -0.34529692680E+02 -0.39635977312E+01  0.35635659338E+02  0.50000000000E+02  0.47000000000E+01 0.  1.
</event>
<event>
 5    1  0.9091923E-001  0.1000000E+03  0.7546771E-02  0.1163815E+00
         11   -1    0    0    0    0  0.00000000000E+00  0.00000000000E+00  0.50000000000E+02  0.50000000000E+02  0.00000000000E+00 0. -1.
        -11   -1    0    0    0    0 -0.00000000000E+00 -0.00000000000E+00 -0.50000000000E+02  0.50000000000E+02  0.00000000000E+00 0.  1.
         23    2    1    2    0    0  0.00000000000E+00  0.00000000000E+00  0.00000000000E+00  0.10000000000E+03  0.10000000000E+03 0.  0.
          5    1    3    3  501    0 -0.11807512514E+02 -0.47755296775E+02 -0.76108000989E+01  0.50000000000E+02  0.47000000000E+01 0. -1.
         -5    1    3    3    0  501  0.11807512514E+02  0.47755296775E+02  0.76108000989E+01  0.50000000000E+02  0.47000000000E+01 0.  1.
</event>
<event>
 5    1  0.9091923E-001  0.1000000E+03  0.7546771E-02  0.1163815E+00
         11   -1    0    0    0    0  0.00000000000E+00  0.00000000000E+00  0.50000000000E+02  0.50000000000E+02  0.00000000000E+00 0.  1.
        -11   -1    0    0    0    0 -0.00000000000E+00 -0.00000000000E+00 -0.50000000000E+02  0.50000000000E+02  0.00000000000E+00 0. -1.
         23    2    1    2    0    0  0.00000000000E+00  0.00000000000E+00  0.00000000000E+00  0.10000000000E+03  0.10000000000E+03 0.  0.
          5    1    3    3  501    0  0.12276804955E+01  0.48965471413E+02  0.88761145699E+01  0.50000000000E+02  0.47000000000E+01 0.  1.
         -5    1    3    3    0  501 -0.12276804955E+01 -0.48965471413E+02 -0.88761145699E+01  0.50000000000E+02  0.47000000000E+01 0. -1.
</event>
<event>
 5    1  0.9091923E-001  0.1000000E+03  0.7546771E-02  0.1163815E+00
         11   -1    0    0    0    0  0.00000000000E+00  0.00000000000E+00  0.50000000000E+02  0.50000000000E+02  0.00000000000E+00 0. -1.
        -11   -1    0    0    0    0 -0.00000000000E+00 -0.00000000000E+00 -0.50000000000E+02  0.50000000000E+02  0.00000000000E+00 0.  1.
         23    2    1    2    0    0  0.00000000000E+00  0.00000000000E+00  0.00000000000E+00  0.10000000000E+03  0.10000000000E+03 0.  0.
          5    1    3    3  501    0 -0.10176734928E+02  0.12449893146E+02  0.47109916439E+02  0.50000000000E+02  0.47000000000E+01 0. -1.
         -5    1    3    3    0  501  0.10176734928E+02 -0.12449893146E+02 -0.47109916439E+02  0.50000000000E+02  0.47000000000E+01 0.  1.
</event>
<event>
 5    1  0.9091923E-001  0.1000000E+03  0.7546771E-02  0.1163815E+00
         11   -1    0    0    0    0  0.00000000000E+00  0.00000000000E+00  0.50000000000E+02  0.50000000000E+02  0.00000000000E+00 0. -1.
        -11   -1    0    0    0    0 -0.00000000000E+00 -0.00000000000E+00 -0.50000000000E+02  0.50000000000E+02  0.00000000000E+00 0.  1.
         23    2    1    2    0    0  0.00000000000E+00  0.00000000000E+00  0.00000000000E+00  0.10000000000E+03  0.10000000000E+03 0.  0.
          5    1    3    3  501    0  0.28041299290E+02  0.39109983383E+02  0.12728108025E+02  0.50000000000E+02  0.47000000000E+01 0. -1.
         -5    1    3    3    0  501 -0.28041299290E+02 -0.39109983383E+02 -0.12728108025E+02  0.50000000000E+02  0.47000000000E+01 0.  1.
</event>
<event>
 5    1  0.9091923E-001  0.1000000E+03  0.7546771E-02  0.1163815E+00
         11   -1    0    0    0    0  0.00000000000E+00  0.00000000000E+00  0.50000000000E+02  0.50000000000E+02  0.00000000000E+00 0. -1.
        -11   -1    0    0    0    0 -0.00000000000E+00 -0.00000000000E+00 -0.50000000000E+02  0.50000000000E+02  0.00000000000E+00 0.  1.
         23    2    1    2    0    0  0.00000000000E+00  0.00000000000E+00  0.00000000000E+00  0.10000000000E+03  0.10000000000E+03 0.  0.
          5    1    3    3  501    0 -0.43835712541E+02  0.13192576918E+02  0.19552396791E+02  0.50000000000E+02  0.47000000000E+01 0. -1.
         -5    1    3    3    0  501  0.43835712541E+02 -0.13192576918E+02 -0.19552396791E+02  0.50000000000E+02  0.47000000000E+01 0.  1.
</event>
<event>
 5    1  0.9091923E-001  0.1000000E+03  0.7546771E-02  0.1163815E+00
         11   -1    0    0    0    0  0.00000000000E+00  0.00000000000E+00  0.50000000000E+02  0.50000000000E+02  0.00000000000E+00 0. -1.
        -11   -1    0    0    0    0 -0.00000000000E+00 -0.00000000000E+00 -0.50000000000E+02  0.50000000000E+02  0.00000000000E+00 0.  1.
         23    2    1    2    0    0  0.00000000000E+00  0.00000000000E+00  0.00000000000E+00  0.10000000000E+03  0.10000000000E+03 0.  0.
          5    1    3    3  501    0  0.41130828892E+02  0.10006024160E+02  0.26192449202E+02  0.50000000000E+02  0.47000000000E+01 0. -1.
         -5    1    3    3    0  501 -0.41130828892E+02 -0.10006024160E+02 -0.26192449202E+02  0.50000000000E+02  0.47000000000E+01 0.  1.
</event>
<event>
 5    1  0.9091923E-001  0.1000000E+03  0.7546771E-02  0.1163815E+00
         11   -1    0    0    0    0  0.00000000000E+00  0.00000000000E+00  0.50000000000E+02  0.50000000000E+02  0.00000000000E+00 0. -1.
        -11   -1    0    0    0    0 -0.00000000000E+00 -0.00000000000E+00 -0.50000000000E+02  0.50000000000E+02  0.00000000000E+00 0.  1.
         23    2    1    2    0    0  0.00000000000E+00  0.00000000000E+00  0.00000000000E+00  0.10000000000E+03  0.10000000000E+03 0.  0.
          5    1    3    3  501    0 -0.33788378377E+02 -0.11718980577E+02  0.34625438349E+02  0.50000000000E+02  0.47000000000E+01 0. -1.
         -5    1    3    3    0  501  0.33788378377E+02  0.11718980577E+02 -0.34625438349E+02  0.50000000000E+02  0.47000000000E+01 0.  1.
</event>
<event>
 5    1  0.9091923E-001  0.1000000E+03  0.7546771E-02  0.1163815E+00
         11   -1    0    0    0    0  0.00000000000E+00  0.00000000000E+00  0.50000000000E+02  0.50000000000E+02  0.00000000000E+00 0. -1.
        -11   -1    0    0    0    0 -0.00000000000E+00 -0.00000000000E+00 -0.50000000000E+02  0.50000000000E+02  0.00000000000E+00 0.  1.
         23    2    1    2    0    0  0.00000000000E+00  0.00000000000E+00  0.00000000000E+00  0.10000000000E+03  0.10000000000E+03 0.  0.
          5    1    3    3  501    0 -0.36267698142E+02 -0.28562422499E+02 -0.18621280636E+02  0.50000000000E+02  0.47000000000E+01 0. -1.
         -5    1    3    3    0  501  0.36267698142E+02  0.28562422499E+02  0.18621280636E+02  0.50000000000E+02  0.47000000000E+01 0.  1.
</event>
<event>
 5    1  0.9091923E-001  0.1000000E+03  0.7546771E-02  0.1163815E+00
         11   -1    0    0    0    0  0.00000000000E+00  0.00000000000E+00  0.50000000000E+02  0.50000000000E+02  0.00000000000E+00 0.  1.
        -11   -1    0    0    0    0 -0.00000000000E+00 -0.00000000000E+00 -0.50000000000E+02  0.50000000000E+02  0.00000000000E+00 0. -1.
         23    2    1    2    0    0  0.00000000000E+00  0.00000000000E+00  0.00000000000E+00  0.10000000000E+03  0.10000000000E+03 0.  0.
          5    1    3    3  501    0 -0.18084688706E+02 -0.26330187624E+02 -0.38178203914E+02  0.50000000000E+02  0.47000000000E+01 0. -1.
         -5    1    3    3    0  501  0.18084688706E+02  0.26330187624E+02  0.38178203914E+02  0.50000000000E+02  0.47000000000E+01 0.  1.
</event>
<event>
 5    1  0.9091923E-001  0.1000000E+03  0.7546771E-02  0.1163815E+00
         11   -1    0    0    0    0  0.00000000000E+00  0.00000000000E+00  0.50000000000E+02  0.50000000000E+02  0.00000000000E+00 0.  1.
        -11   -1    0    0    0    0 -0.00000000000E+00 -0.00000000000E+00 -0.50000000000E+02  0.50000000000E+02  0.00000000000E+00 0. -1.
         23    2    1    2    0    0  0.00000000000E+00  0.00000000000E+00  0.00000000000E+00  0.10000000000E+03  0.10000000000E+03 0.  0.
          5    1    3    3  501    0 -0.12312618591E+02  0.36427884886E+02 -0.31612001300E+02  0.50000000000E+02  0.47000000000E+01 0. -1.
         -5    1    3    3    0  501  0.12312618591E+02 -0.36427884886E+02  0.31612001300E+02  0.50000000000E+02  0.47000000000E+01 0.  1.
</event>
<event>
 5    1  0.9091923E-001  0.1000000E+03  0.7546771E-02  0.1163815E+00
         11   -1    0    0    0    0  0.00000000000E+00  0.00000000000E+00  0.50000000000E+02  0.50000000000E+02  0.00000000000E+00 0. -1.
        -11   -1    0    0    0    0 -0.00000000000E+00 -0.00000000000E+00 -0.50000000000E+02  0.50000000000E+02  0.00000000000E+00 0.  1.
         23    2    1    2    0    0  0.00000000000E+00  0.00000000000E+00  0.00000000000E+00  0.10000000000E+03  0.10000000000E+03 0.  0.
          5    1    3    3  501    0  0.25796742061E+02 -0.35999931634E+01 -0.42420256344E+02  0.50000000000E+02  0.47000000000E+01 0.  1.
         -5    1    3    3    0  501 -0.25796742061E+02  0.35999931634E+01  0.42420256344E+02  0.50000000000E+02  0.47000000000E+01 0. -1.
</event>
<event>
 5    1  0.9091923E-001  0.1000000E+03  0.7546771E-02  0.1163815E+00
         11   -1    0    0    0    0  0.00000000000E+00  0.00000000000E+00  0.50000000000E+02  0.50000000000E+02  0.00000000000E+00 0. -1.
        -11   -1    0    0    0    0 -0.00000000000E+00 -0.00000000000E+00 -0.50000000000E+02  0.50000000000E+02  0.00000000000E+00 0.  1.
         23    2    1    2    0    0  0.00000000000E+00  0.00000000000E+00  0.00000000000E+00  0.10000000000E+03  0.10000000000E+03 0.  0.
          5    1    3    3  501    0 -0.69543461011E+01 -0.23254709928E+02  0.43459930240E+02  0.50000000000E+02  0.47000000000E+01 0. -1.
         -5    1    3    3    0  501  0.69543461011E+01  0.23254709928E+02 -0.43459930240E+02  0.50000000000E+02  0.47000000000E+01 0.  1.
</event>
<event>
 5    1  0.9091923E-001  0.1000000E+03  0.7546771E-02  0.1163815E+00
         11   -1    0    0    0    0  0.00000000000E+00  0.00000000000E+00  0.50000000000E+02  0.50000000000E+02  0.00000000000E+00 0. -1.
        -11   -1    0    0    0    0 -0.00000000000E+00 -0.00000000000E+00 -0.50000000000E+02  0.50000000000E+02  0.00000000000E+00 0.  1.
         23    2    1    2    0    0  0.00000000000E+00  0.00000000000E+00  0.00000000000E+00  0.10000000000E+03  0.10000000000E+03 0.  0.
          5    1    3    3  501    0  0.23269758758E+02  0.18027269371E+02  0.40142818615E+02  0.50000000000E+02  0.47000000000E+01 0. -1.
         -5    1    3    3    0  501 -0.23269758758E+02 -0.18027269371E+02 -0.40142818615E+02  0.50000000000E+02  0.47000000000E+01 0.  1.
</event>
<event>
 5    1  0.9091923E-001  0.1000000E+03  0.7546771E-02  0.1163815E+00
         11   -1    0    0    0    0  0.00000000000E+00  0.00000000000E+00  0.50000000000E+02  0.50000000000E+02  0.00000000000E+00 0. -1.
        -11   -1    0    0    0    0 -0.00000000000E+00 -0.00000000000E+00 -0.50000000000E+02  0.50000000000E+02  0.00000000000E+00 0.  1.
         23    2    1    2    0    0  0.00000000000E+00  0.00000000000E+00  0.00000000000E+00  0.10000000000E+03  0.10000000000E+03 0.  0.
          5    1    3    3  501    0  0.20899355542E+00 -0.23392676185E+02  0.43939151364E+02  0.50000000000E+02  0.47000000000E+01 0. -1.
         -5    1    3    3    0  501 -0.20899355542E+00  0.23392676185E+02 -0.43939151364E+02  0.50000000000E+02  0.47000000000E+01 0.  1.
</event>
<event>
 5    1  0.9091923E-001  0.1000000E+03  0.7546771E-02  0.1163815E+00
         11   -1    0    0    0    0  0.00000000000E+00  0.00000000000E+00  0.50000000000E+02  0.50000000000E+02  0.00000000000E+00 0. -1.
        -11   -1    0    0    0    0 -0.00000000000E+00 -0.00000000000E+00 -0.50000000000E+02  0.50000000000E+02  0.00000000000E+00 0.  1.
         23    2    1    2    0    0  0.00000000000E+00  0.00000000000E+00  0.00000000000E+00  0.10000000000E+03  0.10000000000E+03 0.  0.
          5    1    3    3  501    0  0.34703717329E+02 -0.12284633474E+02  0.33505966393E+02  0.50000000000E+02  0.47000000000E+01 0. -1.
         -5    1    3    3    0  501 -0.34703717329E+02  0.12284633474E+02 -0.33505966393E+02  0.50000000000E+02  0.47000000000E+01 0.  1.
</event>
<event>
 5    1  0.9091923E-001  0.1000000E+03  0.7546771E-02  0.1163815E+00
         11   -1    0    0    0    0  0.00000000000E+00  0.00000000000E+00  0.50000000000E+02  0.50000000000E+02  0.00000000000E+00 0. -1.
        -11   -1    0    0    0    0 -0.00000000000E+00 -0.00000000000E+00 -0.50000000000E+02  0.50000000000E+02  0.00000000000E+00 0.  1.
         23    2    1    2    0    0  0.00000000000E+00  0.00000000000E+00  0.00000000000E+00  0.10000000000E+03  0.10000000000E+03 0.  0.
          5    1    3    3  501    0 -0.18503854528E+01  0.12434970465E+02  0.48164899909E+02  0.50000000000E+02  0.47000000000E+01 0. -1.
         -5    1    3    3    0  501  0.18503854528E+01 -0.12434970465E+02 -0.48164899909E+02  0.50000000000E+02  0.47000000000E+01 0.  1.
</event>
<event>
 5    1  0.9091923E-001  0.1000000E+03  0.7546771E-02  0.1163815E+00
         11   -1    0    0    0    0  0.00000000000E+00  0.00000000000E+00  0.50000000000E+02  0.50000000000E+02  0.00000000000E+00 0. -1.
        -11   -1    0    0    0    0 -0.00000000000E+00 -0.00000000000E+00 -0.50000000000E+02  0.50000000000E+02  0.00000000000E+00 0.  1.
         23    2    1    2    0    0  0.00000000000E+00  0.00000000000E+00  0.00000000000E+00  0.10000000000E+03  0.10000000000E+03 0.  0.
          5    1    3    3  501    0 -0.36545823579E+02  0.32976933889E+02  0.74050395149E+01  0.50000000000E+02  0.47000000000E+01 0. -1.
         -5    1    3    3    0  501  0.36545823579E+02 -0.32976933889E+02 -0.74050395149E+01  0.50000000000E+02  0.47000000000E+01 0.  1.
</event>
<event>
 5    1  0.9091923E-001  0.1000000E+03  0.7546771E-02  0.1163815E+00
         11   -1    0    0    0    0  0.00000000000E+00  0.00000000000E+00  0.50000000000E+02  0.50000000000E+02  0.00000000000E+00 0. -1.
        -11   -1    0    0    0    0 -0.00000000000E+00 -0.00000000000E+00 -0.50000000000E+02  0.50000000000E+02  0.00000000000E+00 0.  1.
         23    2    1    2    0    0  0.00000000000E+00  0.00000000000E+00  0.00000000000E+00  0.10000000000E+03  0.10000000000E+03 0.  0.
          5    1    3    3  501    0 -0.39580813606E+02  0.30101481276E+02 -0.22737676509E+01  0.50000000000E+02  0.47000000000E+01 0. -1.
         -5    1    3    3    0  501  0.39580813606E+02 -0.30101481276E+02  0.22737676509E+01  0.50000000000E+02  0.47000000000E+01 0.  1.
</event>
<event>
 5    1  0.9091923E-001  0.1000000E+03  0.7546771E-02  0.1163815E+00
         11   -1    0    0    0    0  0.00000000000E+00  0.00000000000E+00  0.50000000000E+02  0.50000000000E+02  0.00000000000E+00 0. -1.
        -11   -1    0    0    0    0 -0.00000000000E+00 -0.00000000000E+00 -0.50000000000E+02  0.50000000000E+02  0.00000000000E+00 0.  1.
         23    2    1    2    0    0  0.00000000000E+00  0.00000000000E+00  0.00000000000E+00  0.10000000000E+03  0.10000000000E+03 0.  0.
          5    1    3    3  501    0 -0.46505253821E+02 -0.56976153105E+01  0.16813939062E+02  0.50000000000E+02  0.47000000000E+01 0. -1.
         -5    1    3    3    0  501  0.46505253821E+02  0.56976153105E+01 -0.16813939062E+02  0.50000000000E+02  0.47000000000E+01 0.  1.
</event>
<event>
 5    1  0.9091923E-001  0.1000000E+03  0.7546771E-02  0.1163815E+00
         11   -1    0    0    0    0  0.00000000000E+00  0.00000000000E+00  0.50000000000E+02  0.50000000000E+02  0.00000000000E+00 0. -1.
        -11   -1    0    0    0    0 -0.00000000000E+00 -0.00000000000E+00 -0.50000000000E+02  0.50000000000E+02  0.00000000000E+00 0.  1.
         23    2    1    2    0    0  0.00000000000E+00  0.00000000000E+00  0.00000000000E+00  0.10000000000E+03  0.10000000000E+03 0.  0.
          5    1    3    3  501    0  0.33222970130E+02  0.35565768683E+02  0.10450854212E+02  0.50000000000E+02  0.47000000000E+01 0. -1.
         -5    1    3    3    0  501 -0.33222970130E+02 -0.35565768683E+02 -0.10450854212E+02  0.50000000000E+02  0.47000000000E+01 0.  1.
</event>
<event>
 5    1  0.9091923E-001  0.1000000E+03  0.7546771E-02  0.1163815E+00
         11   -1    0    0    0    0  0.00000000000E+00  0.00000000000E+00  0.50000000000E+02  0.50000000000E+02  0.00000000000E+00 0.  1.
        -11   -1    0    0    0    0 -0.00000000000E+00 -0.00000000000E+00 -0.50000000000E+02  0.50000000000E+02  0.00000000000E+00 0. -1.
         23    2    1    2    0    0  0.00000000000E+00  0.00000000000E+00  0.00000000000E+00  0.10000000000E+03  0.10000000000E+03 0.  0.
          5    1    3    3  501    0 -0.43379219721E+02  0.24414168008E+02 -0.31889955810E+00  0.50000000000E+02  0.47000000000E+01 0. -1.
         -5    1    3    3    0  501  0.43379219721E+02 -0.24414168008E+02  0.31889955810E+00  0.50000000000E+02  0.47000000000E+01 0.  1.
</event>
<event>
 5    1  0.9091923E-001  0.1000000E+03  0.7546771E-02  0.1163815E+00
         11   -1    0    0    0    0  0.00000000000E+00  0.00000000000E+00  0.50000000000E+02  0.50000000000E+02  0.00000000000E+00 0. -1.
        -11   -1    0    0    0    0 -0.00000000000E+00 -0.00000000000E+00 -0.50000000000E+02  0.50000000000E+02  0.00000000000E+00 0.  1.
         23    2    1    2    0    0  0.00000000000E+00  0.00000000000E+00  0.00000000000E+00  0.10000000000E+03  0.10000000000E+03 0.  0.
          5    1    3    3  501    0 -0.50747248961E+01  0.49478981687E+02  0.19968821719E+01  0.50000000000E+02  0.47000000000E+01 0. -1.
         -5    1    3    3    0  501  0.50747248961E+01 -0.49478981687E+02 -0.19968821719E+01  0.50000000000E+02  0.47000000000E+01 0.  1.
</event>
<event>
 5    1  0.9091923E-001  0.1000000E+03  0.7546771E-02  0.1163815E+00
         11   -1    0    0    0    0  0.00000000000E+00  0.00000000000E+00  0.50000000000E+02  0.50000000000E+02  0.00000000000E+00 0. -1.
        -11   -1    0    0    0    0 -0.00000000000E+00 -0.00000000000E+00 -0.50000000000E+02  0.50000000000E+02  0.00000000000E+00 0.  1.
         23    2    1    2    0    0  0.00000000000E+00  0.00000000000E+00  0.00000000000E+00  0.10000000000E+03  0.10000000000E+03 0.  0.
          5    1    3    3  501    0 -0.26443764160E+02 -0.41835316366E+02 -0.53332580652E+01  0.50000000000E+02  0.47000000000E+01 0. -1.
         -5    1    3    3    0  501  0.26443764160E+02  0.41835316366E+02  0.53332580652E+01  0.50000000000E+02  0.47000000000E+01 0.  1.
</event>
<event>
 5    1  0.9091923E-001  0.1000000E+03  0.7546771E-02  0.1163815E+00
         11   -1    0    0    0    0  0.00000000000E+00  0.00000000000E+00  0.50000000000E+02  0.50000000000E+02  0.00000000000E+00 0.  1.
        -11   -1    0    0    0    0 -0.00000000000E+00 -0.00000000000E+00 -0.50000000000E+02  0.50000000000E+02  0.00000000000E+00 0. -1.
         23    2    1    2    0    0  0.00000000000E+00  0.00000000000E+00  0.00000000000E+00  0.10000000000E+03  0.10000000000E+03 0.  0.
          5    1    3    3  501    0 -0.32542139451E+02  0.19327898114E+02 -0.32331896240E+02  0.50000000000E+02  0.47000000000E+01 0. -1.
         -5    1    3    3    0  501  0.32542139451E+02 -0.19327898114E+02  0.32331896240E+02  0.50000000000E+02  0.47000000000E+01 0.  1.
</event>
<event>
 5    1  0.9091923E-001  0.1000000E+03  0.7546771E-02  0.1163815E+00
         11   -1    0    0    0    0  0.00000000000E+00  0.00000000000E+00  0.50000000000E+02  0.50000000000E+02  0.00000000000E+00 0. -1.
        -11   -1    0    0    0    0 -0.00000000000E+00 -0.00000000000E+00 -0.50000000000E+02  0.50000000000E+02  0.00000000000E+00 0.  1.
         23    2    1    2    0    0  0.00000000000E+00  0.00000000000E+00  0.00000000000E+00  0.10000000000E+03  0.10000000000E+03 0.  0.
          5    1    3    3  501    0  0.30797291679E+02 -0.36857261433E+02  0.13075897864E+02  0.50000000000E+02  0.47000000000E+01 0. -1.
         -5    1    3    3    0  501 -0.30797291679E+02  0.36857261433E+02 -0.13075897864E+02  0.50000000000E+02  0.47000000000E+01 0.  1.
</event>
<event>
 5    1  0.9091923E-001  0.1000000E+03  0.7546771E-02  0.1163815E+00
         11   -1    0    0    0    0  0.00000000000E+00  0.00000000000E+00  0.50000000000E+02  0.50000000000E+02  0.00000000000E+00 0.  1.
        -11   -1    0    0    0    0 -0.00000000000E+00 -0.00000000000E+00 -0.50000000000E+02  0.50000000000E+02  0.00000000000E+00 0. -1.
         23    2    1    2    0    0  0.00000000000E+00  0.00000000000E+00  0.00000000000E+00  0.10000000000E+03  0.10000000000E+03 0.  0.
          5    1    3    3  501    0 -0.27411681916E+02 -0.27193752497E+02 -0.31416707651E+02  0.50000000000E+02  0.47000000000E+01 0. -1.
         -5    1    3    3    0  501  0.27411681916E+02  0.27193752497E+02  0.31416707651E+02  0.50000000000E+02  0.47000000000E+01 0.  1.
</event>
<event>
 5    1  0.9091923E-001  0.1000000E+03  0.7546771E-02  0.1163815E+00
         11   -1    0    0    0    0  0.00000000000E+00  0.00000000000E+00  0.50000000000E+02  0.50000000000E+02  0.00000000000E+00 0.  1.
        -11   -1    0    0    0    0 -0.00000000000E+00 -0.00000000000E+00 -0.50000000000E+02  0.50000000000E+02  0.00000000000E+00 0. -1.
         23    2    1    2    0    0  0.00000000000E+00  0.00000000000E+00  0.00000000000E+00  0.10000000000E+03  0.10000000000E+03 0.  0.
          5    1    3    3  501    0 -0.60480157480E+01 -0.57982857570E+01 -0.49068435759E+02  0.50000000000E+02  0.47000000000E+01 0. -1.
         -5    1    3    3    0  501  0.60480157480E+01  0.57982857570E+01  0.49068435759E+02  0.50000000000E+02  0.47000000000E+01 0.  1.
</event>
<event>
 5    1  0.9091923E-001  0.1000000E+03  0.7546771E-02  0.1163815E+00
         11   -1    0    0    0    0  0.00000000000E+00  0.00000000000E+00  0.50000000000E+02  0.50000000000E+02  0.00000000000E+00 0. -1.
        -11   -1    0    0    0    0 -0.00000000000E+00 -0.00000000000E+00 -0.50000000000E+02  0.50000000000E+02  0.00000000000E+00 0.  1.
         23    2    1    2    0    0  0.00000000000E+00  0.00000000000E+00  0.00000000000E+00  0.10000000000E+03  0.10000000000E+03 0.  0.
          5    1    3    3  501    0 -0.48339246281E+02 -0.21097060441E+01  0.11695144691E+02  0.50000000000E+02  0.47000000000E+01 0. -1.
         -5    1    3    3    0  501  0.48339246281E+02  0.21097060441E+01 -0.11695144691E+02  0.50000000000E+02  0.47000000000E+01 0.  1.
</event>
<event>
 5    1  0.9091923E-001  0.1000000E+03  0.7546771E-02  0.1163815E+00
         11   -1    0    0    0    0  0.00000000000E+00  0.00000000000E+00  0.50000000000E+02  0.50000000000E+02  0.00000000000E+00 0. -1.
        -11   -1    0    0    0    0 -0.00000000000E+00 -0.00000000000E+00 -0.50000000000E+02  0.50000000000E+02  0.00000000000E+00 0.  1.
         23    2    1    2    0    0  0.00000000000E+00  0.00000000000E+00  0.00000000000E+00  0.10000000000E+03  0.10000000000E+03 0.  0.
          5    1    3    3  501    0 -0.48814862607E+02 -0.36779237292E+01 -0.90272955929E+01  0.50000000000E+02  0.47000000000E+01 0. -1.
         -5    1    3    3    0  501  0.48814862607E+02  0.36779237292E+01  0.90272955929E+01  0.50000000000E+02  0.47000000000E+01 0.  1.
</event>
<event>
 5    1  0.9091923E-001  0.1000000E+03  0.7546771E-02  0.1163815E+00
         11   -1    0    0    0    0  0.00000000000E+00  0.00000000000E+00  0.50000000000E+02  0.50000000000E+02  0.00000000000E+00 0.  1.
        -11   -1    0    0    0    0 -0.00000000000E+00 -0.00000000000E+00 -0.50000000000E+02  0.50000000000E+02  0.00000000000E+00 0. -1.
         23    2    1    2    0    0  0.00000000000E+00  0.00000000000E+00  0.00000000000E+00  0.10000000000E+03  0.10000000000E+03 0.  0.
          5    1    3    3  501    0  0.40855809737E+02 -0.62635316232E+01  0.27739520225E+02  0.50000000000E+02  0.47000000000E+01 0. -1.
         -5    1    3    3    0  501 -0.40855809737E+02  0.62635316232E+01 -0.27739520225E+02  0.50000000000E+02  0.47000000000E+01 0.  1.
</event>
<event>
 5    1  0.9091923E-001  0.1000000E+03  0.7546771E-02  0.1163815E+00
         11   -1    0    0    0    0  0.00000000000E+00  0.00000000000E+00  0.50000000000E+02  0.50000000000E+02  0.00000000000E+00 0. -1.
        -11   -1    0    0    0    0 -0.00000000000E+00 -0.00000000000E+00 -0.50000000000E+02  0.50000000000E+02  0.00000000000E+00 0.  1.
         23    2    1    2    0    0  0.00000000000E+00  0.00000000000E+00  0.00000000000E+00  0.10000000000E+03  0.10000000000E+03 0.  0.
          5    1    3    3  501    0 -0.24918579629E+02 -0.39782032682E+02  0.16563944729E+02  0.50000000000E+02  0.47000000000E+01 0. -1.
         -5    1    3    3    0  501  0.24918579629E+02  0.39782032682E+02 -0.16563944729E+02  0.50000000000E+02  0.47000000000E+01 0.  1.
</event>
<event>
 5    1  0.9091923E-001  0.1000000E+03  0.7546771E-02  0.1163815E+00
         11   -1    0    0    0    0  0.00000000000E+00  0.00000000000E+00  0.50000000000E+02  0.50000000000E+02  0.00000000000E+00 0. -1.
        -11   -1    0    0    0    0 -0.00000000000E+00 -0.00000000000E+00 -0.50000000000E+02  0.50000000000E+02  0.00000000000E+00 0.  1.
         23    2    1    2    0    0  0.00000000000E+00  0.00000000000E+00  0.00000000000E+00  0.10000000000E+03  0.10000000000E+03 0.  0.
          5    1    3    3  501    0  0.35700494513E+02  0.32348337331E+02  0.12528757459E+02  0.50000000000E+02  0.47000000000E+01 0. -1.
         -5    1    3    3    0  501 -0.35700494513E+02 -0.32348337331E+02 -0.12528757459E+02  0.50000000000E+02  0.47000000000E+01 0.  1.
</event>
<event>
 5    1  0.9091923E-001  0.1000000E+03  0.7546771E-02  0.1163815E+00
         11   -1    0    0    0    0  0.00000000000E+00  0.00000000000E+00  0.50000000000E+02  0.50000000000E+02  0.00000000000E+00 0. -1.
        -11   -1    0    0    0    0 -0.00000000000E+00 -0.00000000000E+00 -0.50000000000E+02  0.50000000000E+02  0.00000000000E+00 0.  1.
         23    2    1    2    0    0  0.00000000000E+00  0.00000000000E+00  0.00000000000E+00  0.10000000000E+03  0.10000000000E+03 0.  0.
          5    1    3    3  501    0 -0.49612097257E+02 -0.40414035404E+01 -0.46568575732E+00  0.50000000000E+02  0.47000000000E+01 0. -1.
         -5    1    3    3    0  501  0.49612097257E+02  0.40414035404E+01  0.46568575732E+00  0.50000000000E+02  0.47000000000E+01 0.  1.
</event>
<event>
 5    1  0.9091923E-001  0.1000000E+03  0.7546771E-02  0.1163815E+00
         11   -1    0    0    0    0  0.00000000000E+00  0.00000000000E+00  0.50000000000E+02  0.50000000000E+02  0.00000000000E+00 0. -1.
        -11   -1    0    0    0    0 -0.00000000000E+00 -0.00000000000E+00 -0.50000000000E+02  0.50000000000E+02  0.00000000000E+00 0.  1.
         23    2    1    2    0    0  0.00000000000E+00  0.00000000000E+00  0.00000000000E+00  0.10000000000E+03  0.10000000000E+03 0.  0.
          5    1    3    3  501    0 -0.59561775784E+01  0.48371608686E+02  0.10130223184E+02  0.50000000000E+02  0.47000000000E+01 0. -1.
         -5    1    3    3    0  501  0.59561775784E+01 -0.48371608686E+02 -0.10130223184E+02  0.50000000000E+02  0.47000000000E+01 0.  1.
</event>
<event>
 5    1  0.9091923E-001  0.1000000E+03  0.7546771E-02  0.1163815E+00
         11   -1    0    0    0    0  0.00000000000E+00  0.00000000000E+00  0.50000000000E+02  0.50000000000E+02  0.00000000000E+00 0.  1.
        -11   -1    0    0    0    0 -0.00000000000E+00 -0.00000000000E+00 -0.50000000000E+02  0.50000000000E+02  0.00000000000E+00 0. -1.
         23    2    1    2    0    0  0.00000000000E+00  0.00000000000E+00  0.00000000000E+00  0.10000000000E+03  0.10000000000E+03 0.  0.
          5    1    3    3  501    0  0.39639852666E+02  0.19980491807E+02  0.22524920151E+02  0.50000000000E+02  0.47000000000E+01 0. -1.
         -5    1    3    3    0  501 -0.39639852666E+02 -0.19980491807E+02 -0.22524920151E+02  0.50000000000E+02  0.47000000000E+01 0.  1.
</event>
<event>
 5    1  0.9091923E-001  0.1000000E+03  0.7546771E-02  0.1163815E+00
         11   -1    0    0    0    0  0.00000000000E+00  0.00000000000E+00  0.50000000000E+02  0.50000000000E+02  0.00000000000E+00 0. -1.
        -11   -1    0    0    0    0 -0.00000000000E+00 -0.00000000000E+00 -0.50000000000E+02  0.50000000000E+02  0.00000000000E+00 0.  1.
         23    2    1    2    0    0  0.00000000000E+00  0.00000000000E+00  0.00000000000E+00  0.10000000000E+03  0.10000000000E+03 0.  0.
          5    1    3    3  501    0  0.24679968532E+02  0.40600623666E+02  0.14845824704E+02  0.50000000000E+02  0.47000000000E+01 0. -1.
         -5    1    3    3    0  501 -0.24679968532E+02 -0.40600623666E+02 -0.14845824704E+02  0.50000000000E+02  0.47000000000E+01 0.  1.
</event>
<event>
 5    1  0.9091923E-001  0.1000000E+03  0.7546771E-02  0.1163815E+00
         11   -1    0    0    0    0  0.00000000000E+00  0.00000000000E+00  0.50000000000E+02  0.50000000000E+02  0.00000000000E+00 0.  1.
        -11   -1    0    0    0    0 -0.00000000000E+00 -0.00000000000E+00 -0.50000000000E+02  0.50000000000E+02  0.00000000000E+00 0. -1.
         23    2    1    2    0    0  0.00000000000E+00  0.00000000000E+00  0.00000000000E+00  0.10000000000E+03  0.10000000000E+03 0.  0.
          5    1    3    3  501    0 -0.28813358251E+02 -0.19959740283E+02 -0.35345567673E+02  0.50000000000E+02  0.47000000000E+01 0. -1.
         -5    1    3    3    0  501  0.28813358251E+02  0.19959740283E+02  0.35345567673E+02  0.50000000000E+02  0.47000000000E+01 0.  1.
</event>
<event>
 5    1  0.9091923E-001  0.1000000E+03  0.7546771E-02  0.1163815E+00
         11   -1    0    0    0    0  0.00000000000E+00  0.00000000000E+00  0.50000000000E+02  0.50000000000E+02  0.00000000000E+00 0.  1.
        -11   -1    0    0    0    0 -0.00000000000E+00 -0.00000000000E+00 -0.50000000000E+02  0.50000000000E+02  0.00000000000E+00 0. -1.
         23    2    1    2    0    0  0.00000000000E+00  0.00000000000E+00  0.00000000000E+00  0.10000000000E+03  0.10000000000E+03 0.  0.
          5    1    3    3  501    0 -0.19647312624E+02  0.37299436120E+02  0.26469702904E+02  0.50000000000E+02  0.47000000000E+01 0. -1.
         -5    1    3    3    0  501  0.19647312624E+02 -0.37299436120E+02 -0.26469702904E+02  0.50000000000E+02  0.47000000000E+01 0.  1.
</event>
<event>
 5    1  0.9091923E-001  0.1000000E+03  0.7546771E-02  0.1163815E+00
         11   -1    0    0    0    0  0.00000000000E+00  0.00000000000E+00  0.50000000000E+02  0.50000000000E+02  0.00000000000E+00 0.  1.
        -11   -1    0    0    0    0 -0.00000000000E+00 -0.00000000000E+00 -0.50000000000E+02  0.50000000000E+02  0.00000000000E+00 0. -1.
         23    2    1    2    0    0  0.00000000000E+00  0.00000000000E+00  0.00000000000E+00  0.10000000000E+03  0.10000000000E+03 0.  0.
          5    1    3    3  501    0  0.24919949591E+02  0.41524402722E+02 -0.11516513835E+02  0.50000000000E+02  0.47000000000E+01 0. -1.
         -5    1    3    3    0  501 -0.24919949591E+02 -0.41524402722E+02  0.11516513835E+02  0.50000000000E+02  0.47000000000E+01 0.  1.
</event>
<event>
 5    1  0.9091923E-001  0.1000000E+03  0.7546771E-02  0.1163815E+00
         11   -1    0    0    0    0  0.00000000000E+00  0.00000000000E+00  0.50000000000E+02  0.50000000000E+02  0.00000000000E+00 0. -1.
        -11   -1    0    0    0    0 -0.00000000000E+00 -0.00000000000E+00 -0.50000000000E+02  0.50000000000E+02  0.00000000000E+00 0.  1.
         23    2    1    2    0    0  0.00000000000E+00  0.00000000000E+00  0.00000000000E+00  0.10000000000E+03  0.10000000000E+03 0.  0.
          5    1    3    3  501    0  0.83416823047E+01 -0.48906830811E+02  0.40556425280E+01  0.50000000000E+02  0.47000000000E+01 0. -1.
         -5    1    3    3    0  501 -0.83416823047E+01  0.48906830811E+02 -0.40556425280E+01  0.50000000000E+02  0.47000000000E+01 0.  1.
</event>
<event>
 5    1  0.9091923E-001  0.1000000E+03  0.7546771E-02  0.1163815E+00
         11   -1    0    0    0    0  0.00000000000E+00  0.00000000000E+00  0.50000000000E+02  0.50000000000E+02  0.00000000000E+00 0. -1.
        -11   -1    0    0    0    0 -0.00000000000E+00 -0.00000000000E+00 -0.50000000000E+02  0.50000000000E+02  0.00000000000E+00 0.  1.
         23    2    1    2    0    0  0.00000000000E+00  0.00000000000E+00  0.00000000000E+00  0.10000000000E+03  0.10000000000E+03 0.  0.
          5    1    3    3  501    0 -0.13497492478E+01  0.21207148340E+02  0.45014942367E+02  0.50000000000E+02  0.47000000000E+01 0. -1.
         -5    1    3    3    0  501  0.13497492478E+01 -0.21207148340E+02 -0.45014942367E+02  0.50000000000E+02  0.47000000000E+01 0.  1.
</event>
<event>
 5    1  0.9091923E-001  0.1000000E+03  0.7546771E-02  0.1163815E+00
         11   -1    0    0    0    0  0.00000000000E+00  0.00000000000E+00  0.50000000000E+02  0.50000000000E+02  0.00000000000E+00 0. -1.
        -11   -1    0    0    0    0 -0.00000000000E+00 -0.00000000000E+00 -0.50000000000E+02  0.50000000000E+02  0.00000000000E+00 0.  1.
         23    2    1    2    0    0  0.00000000000E+00  0.00000000000E+00  0.00000000000E+00  0.10000000000E+03  0.10000000000E+03 0.  0.
          5    1    3    3  501    0  0.34586548434E+02  0.30116773796E+02  0.19356151569E+02  0.50000000000E+02  0.47000000000E+01 0. -1.
         -5    1    3    3    0  501 -0.34586548434E+02 -0.30116773796E+02 -0.19356151569E+02  0.50000000000E+02  0.47000000000E+01 0.  1.
</event>
<event>
 5    1  0.9091923E-001  0.1000000E+03  0.7546771E-02  0.1163815E+00
         11   -1    0    0    0    0  0.00000000000E+00  0.00000000000E+00  0.50000000000E+02  0.50000000000E+02  0.00000000000E+00 0. -1.
        -11   -1    0    0    0    0 -0.00000000000E+00 -0.00000000000E+00 -0.50000000000E+02  0.50000000000E+02  0.00000000000E+00 0.  1.
         23    2    1    2    0    0  0.00000000000E+00  0.00000000000E+00  0.00000000000E+00  0.10000000000E+03  0.10000000000E+03 0.  0.
          5    1    3    3  501    0  0.25256877267E+02  0.10030676203E+02  0.41705943049E+02  0.50000000000E+02  0.47000000000E+01 0. -1.
         -5    1    3    3    0  501 -0.25256877267E+02 -0.10030676203E+02 -0.41705943049E+02  0.50000000000E+02  0.47000000000E+01 0.  1.
</event>
<event>
 5    1  0.9091923E-001  0.1000000E+03  0.7546771E-02  0.1163815E+00
         11   -1    0    0    0    0  0.00000000000E+00  0.00000000000E+00  0.50000000000E+02  0.50000000000E+02  0.00000000000E+00 0. -1.
        -11   -1    0    0    0    0 -0.00000000000E+00 -0.00000000000E+00 -0.50000000000E+02  0.50000000000E+02  0.00000000000E+00 0.  1.
         23    2    1    2    0    0  0.00000000000E+00  0.00000000000E+00  0.00000000000E+00  0.10000000000E+03  0.10000000000E+03 0.  0.
          5    1    3    3  501    0 -0.40254085560E+02 -0.25485855534E+02  0.14421850207E+02  0.50000000000E+02  0.47000000000E+01 0. -1.
         -5    1    3    3    0  501  0.40254085560E+02  0.25485855534E+02 -0.14421850207E+02  0.50000000000E+02  0.47000000000E+01 0.  1.
</event>
<event>
 5    1  0.9091923E-001  0.1000000E+03  0.7546771E-02  0.1163815E+00
         11   -1    0    0    0    0  0.00000000000E+00  0.00000000000E+00  0.50000000000E+02  0.50000000000E+02  0.00000000000E+00 0. -1.
        -11   -1    0    0    0    0 -0.00000000000E+00 -0.00000000000E+00 -0.50000000000E+02  0.50000000000E+02  0.00000000000E+00 0.  1.
         23    2    1    2    0    0  0.00000000000E+00  0.00000000000E+00  0.00000000000E+00  0.10000000000E+03  0.10000000000E+03 0.  0.
          5    1    3    3  501    0  0.46468375995E+02  0.16161598908E+02 -0.75764604621E+01  0.50000000000E+02  0.47000000000E+01 0. -1.
         -5    1    3    3    0  501 -0.46468375995E+02 -0.16161598908E+02  0.75764604621E+01  0.50000000000E+02  0.47000000000E+01 0.  1.
</event>
<event>
 5    1  0.9091923E-001  0.1000000E+03  0.7546771E-02  0.1163815E+00
         11   -1    0    0    0    0  0.00000000000E+00  0.00000000000E+00  0.50000000000E+02  0.50000000000E+02  0.00000000000E+00 0. -1.
        -11   -1    0    0    0    0 -0.00000000000E+00 -0.00000000000E+00 -0.50000000000E+02  0.50000000000E+02  0.00000000000E+00 0.  1.
         23    2    1    2    0    0  0.00000000000E+00  0.00000000000E+00  0.00000000000E+00  0.10000000000E+03  0.10000000000E+03 0.  0.
          5    1    3    3  501    0  0.70440278390E+01 -0.49060037953E+02  0.46264833171E+01  0.50000000000E+02  0.47000000000E+01 0. -1.
         -5    1    3    3    0  501 -0.70440278390E+01  0.49060037953E+02 -0.46264833171E+01  0.50000000000E+02  0.47000000000E+01 0.  1.
</event>
<event>
 5    1  0.9091923E-001  0.1000000E+03  0.7546771E-02  0.1163815E+00
         11   -1    0    0    0    0  0.00000000000E+00  0.00000000000E+00  0.50000000000E+02  0.50000000000E+02  0.00000000000E+00 0. -1.
        -11   -1    0    0    0    0 -0.00000000000E+00 -0.00000000000E+00 -0.50000000000E+02  0.50000000000E+02  0.00000000000E+00 0.  1.
         23    2    1    2    0    0  0.00000000000E+00  0.00000000000E+00  0.00000000000E+00  0.10000000000E+03  0.10000000000E+03 0.  0.
          5    1    3    3  501    0  0.20970233053E+02  0.43750090403E+02  0.11139520430E+02  0.50000000000E+02  0.47000000000E+01 0. -1.
         -5    1    3    3    0  501 -0.20970233053E+02 -0.43750090403E+02 -0.11139520430E+02  0.50000000000E+02  0.47000000000E+01 0.  1.
</event>
<event>
 5    1  0.9091923E-001  0.1000000E+03  0.7546771E-02  0.1163815E+00
         11   -1    0    0    0    0  0.00000000000E+00  0.00000000000E+00  0.50000000000E+02  0.50000000000E+02  0.00000000000E+00 0. -1.
        -11   -1    0    0    0    0 -0.00000000000E+00 -0.00000000000E+00 -0.50000000000E+02  0.50000000000E+02  0.00000000000E+00 0.  1.
         23    2    1    2    0    0  0.00000000000E+00  0.00000000000E+00  0.00000000000E+00  0.10000000000E+03  0.10000000000E+03 0.  0.
          5    1    3    3  501    0  0.14843848625E+02 -0.22196780475E+02  0.42010392697E+02  0.50000000000E+02  0.47000000000E+01 0. -1.
         -5    1    3    3    0  501 -0.14843848625E+02  0.22196780475E+02 -0.42010392697E+02  0.50000000000E+02  0.47000000000E+01 0.  1.
</event>
<event>
 5    1  0.9091923E-001  0.1000000E+03  0.7546771E-02  0.1163815E+00
         11   -1    0    0    0    0  0.00000000000E+00  0.00000000000E+00  0.50000000000E+02  0.50000000000E+02  0.00000000000E+00 0. -1.
        -11   -1    0    0    0    0 -0.00000000000E+00 -0.00000000000E+00 -0.50000000000E+02  0.50000000000E+02  0.00000000000E+00 0.  1.
         23    2    1    2    0    0  0.00000000000E+00  0.00000000000E+00  0.00000000000E+00  0.10000000000E+03  0.10000000000E+03 0.  0.
          5    1    3    3  501    0 -0.50388384891E+01 -0.49335759307E+02  0.43015067492E+01  0.50000000000E+02  0.47000000000E+01 0. -1.
         -5    1    3    3    0  501  0.50388384891E+01  0.49335759307E+02 -0.43015067492E+01  0.50000000000E+02  0.47000000000E+01 0.  1.
</event>
<event>
 5    1  0.9091923E-001  0.1000000E+03  0.7546771E-02  0.1163815E+00
         11   -1    0    0    0    0  0.00000000000E+00  0.00000000000E+00  0.50000000000E+02  0.50000000000E+02  0.00000000000E+00 0. -1.
        -11   -1    0    0    0    0 -0.00000000000E+00 -0.00000000000E+00 -0.50000000000E+02  0.50000000000E+02  0.00000000000E+00 0.  1.
         23    2    1    2    0    0  0.00000000000E+00  0.00000000000E+00  0.00000000000E+00  0.10000000000E+03  0.10000000000E+03 0.  0.
          5    1    3    3  501    0  0.25403231867E+02 -0.25321035757E+02  0.34517111103E+02  0.50000000000E+02  0.47000000000E+01 0. -1.
         -5    1    3    3    0  501 -0.25403231867E+02  0.25321035757E+02 -0.34517111103E+02  0.50000000000E+02  0.47000000000E+01 0.  1.
</event>
<event>
 5    1  0.9091923E-001  0.1000000E+03  0.7546771E-02  0.1163815E+00
         11   -1    0    0    0    0  0.00000000000E+00  0.00000000000E+00  0.50000000000E+02  0.50000000000E+02  0.00000000000E+00 0. -1.
        -11   -1    0    0    0    0 -0.00000000000E+00 -0.00000000000E+00 -0.50000000000E+02  0.50000000000E+02  0.00000000000E+00 0.  1.
         23    2    1    2    0    0  0.00000000000E+00  0.00000000000E+00  0.00000000000E+00  0.10000000000E+03  0.10000000000E+03 0.  0.
          5    1    3    3  501    0 -0.17684655407E+02 -0.39569780065E+02  0.24482554376E+02  0.50000000000E+02  0.47000000000E+01 0. -1.
         -5    1    3    3    0  501  0.17684655407E+02  0.39569780065E+02 -0.24482554376E+02  0.50000000000E+02  0.47000000000E+01 0.  1.
</event>
<event>
 5    1  0.9091923E-001  0.1000000E+03  0.7546771E-02  0.1163815E+00
         11   -1    0    0    0    0  0.00000000000E+00  0.00000000000E+00  0.50000000000E+02  0.50000000000E+02  0.00000000000E+00 0. -1.
        -11   -1    0    0    0    0 -0.00000000000E+00 -0.00000000000E+00 -0.50000000000E+02  0.50000000000E+02  0.00000000000E+00 0.  1.
         23    2    1    2    0    0  0.00000000000E+00  0.00000000000E+00  0.00000000000E+00  0.10000000000E+03  0.10000000000E+03 0.  0.
          5    1    3    3  501    0 -0.15719828446E+01  0.96998603894E+01  0.48799094032E+02  0.50000000000E+02  0.47000000000E+01 0. -1.
         -5    1    3    3    0  501  0.15719828446E+01 -0.96998603894E+01 -0.48799094032E+02  0.50000000000E+02  0.47000000000E+01 0.  1.
</event>
<event>
 5    1  0.9091923E-001  0.1000000E+03  0.7546771E-02  0.1163815E+00
         11   -1    0    0    0    0  0.00000000000E+00  0.00000000000E+00  0.50000000000E+02  0.50000000000E+02  0.00000000000E+00 0. -1.
        -11   -1    0    0    0    0 -0.00000000000E+00 -0.00000000000E+00 -0.50000000000E+02  0.50000000000E+02  0.00000000000E+00 0.  1.
         23    2    1    2    0    0  0.00000000000E+00  0.00000000000E+00  0.00000000000E+00  0.10000000000E+03  0.10000000000E+03 0.  0.
          5    1    3    3  501    0 -0.15393249964E+02 -0.45843702409E+02  0.11803084553E+02  0.50000000000E+02  0.47000000000E+01 0. -1.
         -5    1    3    3    0  501  0.15393249964E+02  0.45843702409E+02 -0.11803084553E+02  0.50000000000E+02  0.47000000000E+01 0.  1.
</event>
<event>
 5    1  0.9091923E-001  0.1000000E+03  0.7546771E-02  0.1163815E+00
         11   -1    0    0    0    0  0.00000000000E+00  0.00000000000E+00  0.50000000000E+02  0.50000000000E+02  0.00000000000E+00 0.  1.
        -11   -1    0    0    0    0 -0.00000000000E+00 -0.00000000000E+00 -0.50000000000E+02  0.50000000000E+02  0.00000000000E+00 0. -1.
         23    2    1    2    0    0  0.00000000000E+00  0.00000000000E+00  0.00000000000E+00  0.10000000000E+03  0.10000000000E+03 0.  0.
          5    1    3    3  501    0  0.26925262386E+02  0.13908668647E+02 -0.39490368217E+02  0.50000000000E+02  0.47000000000E+01 0. -1.
         -5    1    3    3    0  501 -0.26925262386E+02 -0.13908668647E+02  0.39490368217E+02  0.50000000000E+02  0.47000000000E+01 0.  1.
</event>
<event>
 5    1  0.9091923E-001  0.1000000E+03  0.7546771E-02  0.1163815E+00
         11   -1    0    0    0    0  0.00000000000E+00  0.00000000000E+00  0.50000000000E+02  0.50000000000E+02  0.00000000000E+00 0. -1.
        -11   -1    0    0    0    0 -0.00000000000E+00 -0.00000000000E+00 -0.50000000000E+02  0.50000000000E+02  0.00000000000E+00 0.  1.
         23    2    1    2    0    0  0.00000000000E+00  0.00000000000E+00  0.00000000000E+00  0.10000000000E+03  0.10000000000E+03 0.  0.
          5    1    3    3  501    0  0.10481705253E+02 -0.29475731596E+02  0.38719828278E+02  0.50000000000E+02  0.47000000000E+01 0. -1.
         -5    1    3    3    0  501 -0.10481705253E+02  0.29475731596E+02 -0.38719828278E+02  0.50000000000E+02  0.47000000000E+01 0.  1.
</event>
<event>
 5    1  0.9091923E-001  0.1000000E+03  0.7546771E-02  0.1163815E+00
         11   -1    0    0    0    0  0.00000000000E+00  0.00000000000E+00  0.50000000000E+02  0.50000000000E+02  0.00000000000E+00 0.  1.
        -11   -1    0    0    0    0 -0.00000000000E+00 -0.00000000000E+00 -0.50000000000E+02  0.50000000000E+02  0.00000000000E+00 0. -1.
         23    2    1    2    0    0  0.00000000000E+00  0.00000000000E+00  0.00000000000E+00  0.10000000000E+03  0.10000000000E+03 0.  0.
          5    1    3    3  501    0  0.18526652832E+02 -0.41477018236E+02  0.20355099929E+02  0.50000000000E+02  0.47000000000E+01 0.  1.
         -5    1    3    3    0  501 -0.18526652832E+02  0.41477018236E+02 -0.20355099929E+02  0.50000000000E+02  0.47000000000E+01 0. -1.
</event>
<event>
 5    1  0.9091923E-001  0.1000000E+03  0.7546771E-02  0.1163815E+00
         11   -1    0    0    0    0  0.00000000000E+00  0.00000000000E+00  0.50000000000E+02  0.50000000000E+02  0.00000000000E+00 0. -1.
        -11   -1    0    0    0    0 -0.00000000000E+00 -0.00000000000E+00 -0.50000000000E+02  0.50000000000E+02  0.00000000000E+00 0.  1.
         23    2    1    2    0    0  0.00000000000E+00  0.00000000000E+00  0.00000000000E+00  0.10000000000E+03  0.10000000000E+03 0.  0.
          5    1    3    3  501    0 -0.97180667685E+01  0.48082419769E+02  0.84587284759E+01  0.50000000000E+02  0.47000000000E+01 0. -1.
         -5    1    3    3    0  501  0.97180667685E+01 -0.48082419769E+02 -0.84587284759E+01  0.50000000000E+02  0.47000000000E+01 0.  1.
</event>
<event>
 5    1  0.9091923E-001  0.1000000E+03  0.7546771E-02  0.1163815E+00
         11   -1    0    0    0    0  0.00000000000E+00  0.00000000000E+00  0.50000000000E+02  0.50000000000E+02  0.00000000000E+00 0. -1.
        -11   -1    0    0    0    0 -0.00000000000E+00 -0.00000000000E+00 -0.50000000000E+02  0.50000000000E+02  0.00000000000E+00 0.  1.
         23    2    1    2    0    0  0.00000000000E+00  0.00000000000E+00  0.00000000000E+00  0.10000000000E+03  0.10000000000E+03 0.  0.
          5    1    3    3  501    0 -0.44810557987E+02 -0.14614388130E+02  0.16010732416E+02  0.50000000000E+02  0.47000000000E+01 0. -1.
         -5    1    3    3    0  501  0.44810557987E+02  0.14614388130E+02 -0.16010732416E+02  0.50000000000E+02  0.47000000000E+01 0.  1.
</event>
<event>
 5    1  0.9091923E-001  0.1000000E+03  0.7546771E-02  0.1163815E+00
         11   -1    0    0    0    0  0.00000000000E+00  0.00000000000E+00  0.50000000000E+02  0.50000000000E+02  0.00000000000E+00 0. -1.
        -11   -1    0    0    0    0 -0.00000000000E+00 -0.00000000000E+00 -0.50000000000E+02  0.50000000000E+02  0.00000000000E+00 0.  1.
         23    2    1    2    0    0  0.00000000000E+00  0.00000000000E+00  0.00000000000E+00  0.10000000000E+03  0.10000000000E+03 0.  0.
          5    1    3    3  501    0 -0.11859570095E+02 -0.23370554061E+02  0.42321127112E+02  0.50000000000E+02  0.47000000000E+01 0. -1.
         -5    1    3    3    0  501  0.11859570095E+02  0.23370554061E+02 -0.42321127112E+02  0.50000000000E+02  0.47000000000E+01 0.  1.
</event>
<event>
 5    1  0.9091923E-001  0.1000000E+03  0.7546771E-02  0.1163815E+00
         11   -1    0    0    0    0  0.00000000000E+00  0.00000000000E+00  0.50000000000E+02  0.50000000000E+02  0.00000000000E+00 0. -1.
        -11   -1    0    0    0    0 -0.00000000000E+00 -0.00000000000E+00 -0.50000000000E+02  0.50000000000E+02  0.00000000000E+00 0.  1.
         23    2    1    2    0    0  0.00000000000E+00  0.00000000000E+00  0.00000000000E+00  0.10000000000E+03  0.10000000000E+03 0.  0.
          5    1    3    3  501    0  0.35321488633E+02 -0.22418413867E+02  0.26976233251E+02  0.50000000000E+02  0.47000000000E+01 0. -1.
         -5    1    3    3    0  501 -0.35321488633E+02  0.22418413867E+02 -0.26976233251E+02  0.50000000000E+02  0.47000000000E+01 0.  1.
</event>
<event>
 5    1  0.9091923E-001  0.1000000E+03  0.7546771E-02  0.1163815E+00
         11   -1    0    0    0    0  0.00000000000E+00  0.00000000000E+00  0.50000000000E+02  0.50000000000E+02  0.00000000000E+00 0. -1.
        -11   -1    0    0    0    0 -0.00000000000E+00 -0.00000000000E+00 -0.50000000000E+02  0.50000000000E+02  0.00000000000E+00 0.  1.
         23    2    1    2    0    0  0.00000000000E+00  0.00000000000E+00  0.00000000000E+00  0.10000000000E+03  0.10000000000E+03 0.  0.
          5    1    3    3  501    0  0.17254390741E+02 -0.12854906734E+02  0.44888165178E+02  0.50000000000E+02  0.47000000000E+01 0. -1.
         -5    1    3    3    0  501 -0.17254390741E+02  0.12854906734E+02 -0.44888165178E+02  0.50000000000E+02  0.47000000000E+01 0.  1.
</event>
<event>
 5    1  0.9091923E-001  0.1000000E+03  0.7546771E-02  0.1163815E+00
         11   -1    0    0    0    0  0.00000000000E+00  0.00000000000E+00  0.50000000000E+02  0.50000000000E+02  0.00000000000E+00 0. -1.
        -11   -1    0    0    0    0 -0.00000000000E+00 -0.00000000000E+00 -0.50000000000E+02  0.50000000000E+02  0.00000000000E+00 0.  1.
         23    2    1    2    0    0  0.00000000000E+00  0.00000000000E+00  0.00000000000E+00  0.10000000000E+03  0.10000000000E+03 0.  0.
          5    1    3    3  501    0 -0.68525785625E+01  0.37914601037E+02  0.31518807008E+02  0.50000000000E+02  0.47000000000E+01 0. -1.
         -5    1    3    3    0  501  0.68525785625E+01 -0.37914601037E+02 -0.31518807008E+02  0.50000000000E+02  0.47000000000E+01 0.  1.
</event>
<event>
 5    1  0.9091923E-001  0.1000000E+03  0.7546771E-02  0.1163815E+00
         11   -1    0    0    0    0  0.00000000000E+00  0.00000000000E+00  0.50000000000E+02  0.50000000000E+02  0.00000000000E+00 0.  1.
        -11   -1    0    0    0    0 -0.00000000000E+00 -0.00000000000E+00 -0.50000000000E+02  0.50000000000E+02  0.00000000000E+00 0. -1.
         23    2    1    2    0    0  0.00000000000E+00  0.00000000000E+00  0.00000000000E+00  0.10000000000E+03  0.10000000000E+03 0.  0.
          5    1    3    3  501    0 -0.44670095185E+02 -0.18234932376E+02 -0.12246625552E+02  0.50000000000E+02  0.47000000000E+01 0. -1.
         -5    1    3    3    0  501  0.44670095185E+02  0.18234932376E+02  0.12246625552E+02  0.50000000000E+02  0.47000000000E+01 0.  1.
</event>
<event>
 5    1  0.9091923E-001  0.1000000E+03  0.7546771E-02  0.1163815E+00
         11   -1    0    0    0    0  0.00000000000E+00  0.00000000000E+00  0.50000000000E+02  0.50000000000E+02  0.00000000000E+00 0.  1.
        -11   -1    0    0    0    0 -0.00000000000E+00 -0.00000000000E+00 -0.50000000000E+02  0.50000000000E+02  0.00000000000E+00 0. -1.
         23    2    1    2    0    0  0.00000000000E+00  0.00000000000E+00  0.00000000000E+00  0.10000000000E+03  0.10000000000E+03 0.  0.
          5    1    3    3  501    0  0.12751101724E+02  0.18468436396E+02 -0.44432378531E+02  0.50000000000E+02  0.47000000000E+01 0. -1.
         -5    1    3    3    0  501 -0.12751101724E+02 -0.18468436396E+02  0.44432378531E+02  0.50000000000E+02  0.47000000000E+01 0.  1.
</event>
<event>
 5    1  0.9091923E-001  0.1000000E+03  0.7546771E-02  0.1163815E+00
         11   -1    0    0    0    0  0.00000000000E+00  0.00000000000E+00  0.50000000000E+02  0.50000000000E+02  0.00000000000E+00 0. -1.
        -11   -1    0    0    0    0 -0.00000000000E+00 -0.00000000000E+00 -0.50000000000E+02  0.50000000000E+02  0.00000000000E+00 0.  1.
         23    2    1    2    0    0  0.00000000000E+00  0.00000000000E+00  0.00000000000E+00  0.10000000000E+03  0.10000000000E+03 0.  0.
          5    1    3    3  501    0  0.18615104257E+02 -0.39750482355E+02  0.23479502679E+02  0.50000000000E+02  0.47000000000E+01 0. -1.
         -5    1    3    3    0  501 -0.18615104257E+02  0.39750482355E+02 -0.23479502679E+02  0.50000000000E+02  0.47000000000E+01 0.  1.
</event>
<event>
 5    1  0.9091923E-001  0.1000000E+03  0.7546771E-02  0.1163815E+00
         11   -1    0    0    0    0  0.00000000000E+00  0.00000000000E+00  0.50000000000E+02  0.50000000000E+02  0.00000000000E+00 0.  1.
        -11   -1    0    0    0    0 -0.00000000000E+00 -0.00000000000E+00 -0.50000000000E+02  0.50000000000E+02  0.00000000000E+00 0. -1.
         23    2    1    2    0    0  0.00000000000E+00  0.00000000000E+00  0.00000000000E+00  0.10000000000E+03  0.10000000000E+03 0.  0.
          5    1    3    3  501    0  0.27973830871E+02 -0.20724673413E+02 -0.35578964267E+02  0.50000000000E+02  0.47000000000E+01 0. -1.
         -5    1    3    3    0  501 -0.27973830871E+02  0.20724673413E+02  0.35578964267E+02  0.50000000000E+02  0.47000000000E+01 0.  1.
</event>
<event>
 5    1  0.9091923E-001  0.1000000E+03  0.7546771E-02  0.1163815E+00
         11   -1    0    0    0    0  0.00000000000E+00  0.00000000000E+00  0.50000000000E+02  0.50000000000E+02  0.00000000000E+00 0. -1.
        -11   -1    0    0    0    0 -0.00000000000E+00 -0.00000000000E+00 -0.50000000000E+02  0.50000000000E+02  0.00000000000E+00 0.  1.
         23    2    1    2    0    0  0.00000000000E+00  0.00000000000E+00  0.00000000000E+00  0.10000000000E+03  0.10000000000E+03 0.  0.
          5    1    3    3  501    0  0.95053919693E+01  0.35895129661E+02  0.33152634739E+02  0.50000000000E+02  0.47000000000E+01 0. -1.
         -5    1    3    3    0  501 -0.95053919693E+01 -0.35895129661E+02 -0.33152634739E+02  0.50000000000E+02  0.47000000000E+01 0.  1.
</event>
<event>
 5    1  0.9091923E-001  0.1000000E+03  0.7546771E-02  0.1163815E+00
         11   -1    0    0    0    0  0.00000000000E+00  0.00000000000E+00  0.50000000000E+02  0.50000000000E+02  0.00000000000E+00 0. -1.
        -11   -1    0    0    0    0 -0.00000000000E+00 -0.00000000000E+00 -0.50000000000E+02  0.50000000000E+02  0.00000000000E+00 0.  1.
         23    2    1    2    0    0  0.00000000000E+00  0.00000000000E+00  0.00000000000E+00  0.10000000000E+03  0.10000000000E+03 0.  0.
          5    1    3    3  501    0 -0.27084625981E+02  0.37991234792E+02  0.17349326051E+02  0.50000000000E+02  0.47000000000E+01 0. -1.
         -5    1    3    3    0  501  0.27084625981E+02 -0.37991234792E+02 -0.17349326051E+02  0.50000000000E+02  0.47000000000E+01 0.  1.
</event>
<event>
 5    1  0.9091923E-001  0.1000000E+03  0.7546771E-02  0.1163815E+00
         11   -1    0    0    0    0  0.00000000000E+00  0.00000000000E+00  0.50000000000E+02  0.50000000000E+02  0.00000000000E+00 0. -1.
        -11   -1    0    0    0    0 -0.00000000000E+00 -0.00000000000E+00 -0.50000000000E+02  0.50000000000E+02  0.00000000000E+00 0.  1.
         23    2    1    2    0    0  0.00000000000E+00  0.00000000000E+00  0.00000000000E+00  0.10000000000E+03  0.10000000000E+03 0.  0.
          5    1    3    3  501    0 -0.11831902523E+02  0.45657471930E+02  0.15915757590E+02  0.50000000000E+02  0.47000000000E+01 0. -1.
         -5    1    3    3    0  501  0.11831902523E+02 -0.45657471930E+02 -0.15915757590E+02  0.50000000000E+02  0.47000000000E+01 0.  1.
</event>
<event>
 5    1  0.9091923E-001  0.1000000E+03  0.7546771E-02  0.1163815E+00
         11   -1    0    0    0    0  0.00000000000E+00  0.00000000000E+00  0.50000000000E+02  0.50000000000E+02  0.00000000000E+00 0.  1.
        -11   -1    0    0    0    0 -0.00000000000E+00 -0.00000000000E+00 -0.50000000000E+02  0.50000000000E+02  0.00000000000E+00 0. -1.
         23    2    1    2    0    0  0.00000000000E+00  0.00000000000E+00  0.00000000000E+00  0.10000000000E+03  0.10000000000E+03 0.  0.
          5    1    3    3  501    0  0.25504371621E+02  0.10351425583E+02 -0.41476318744E+02  0.50000000000E+02  0.47000000000E+01 0. -1.
         -5    1    3    3    0  501 -0.25504371621E+02 -0.10351425583E+02  0.41476318744E+02  0.50000000000E+02  0.47000000000E+01 0.  1.
</event>
<event>
 5    1  0.9091923E-001  0.1000000E+03  0.7546771E-02  0.1163815E+00
         11   -1    0    0    0    0  0.00000000000E+00  0.00000000000E+00  0.50000000000E+02  0.50000000000E+02  0.00000000000E+00 0. -1.
        -11   -1    0    0    0    0 -0.00000000000E+00 -0.00000000000E+00 -0.50000000000E+02  0.50000000000E+02  0.00000000000E+00 0.  1.
         23    2    1    2    0    0  0.00000000000E+00  0.00000000000E+00  0.00000000000E+00  0.10000000000E+03  0.10000000000E+03 0.  0.
          5    1    3    3  501    0  0.26624375103E+02 -0.28428830395E+02  0.30997649149E+02  0.50000000000E+02  0.47000000000E+01 0. -1.
         -5    1    3    3    0  501 -0.26624375103E+02  0.28428830395E+02 -0.30997649149E+02  0.50000000000E+02  0.47000000000E+01 0.  1.
</event>
<event>
 5    1  0.9091923E-001  0.1000000E+03  0.7546771E-02  0.1163815E+00
         11   -1    0    0    0    0  0.00000000000E+00  0.00000000000E+00  0.50000000000E+02  0.50000000000E+02  0.00000000000E+00 0. -1.
        -11   -1    0    0    0    0 -0.00000000000E+00 -0.00000000000E+00 -0.50000000000E+02  0.50000000000E+02  0.00000000000E+00 0.  1.
         23    2    1    2    0    0  0.00000000000E+00  0.00000000000E+00  0.00000000000E+00  0.10000000000E+03  0.10000000000E+03 0.  0.
          5    1    3    3  501    0 -0.12027207695E+02  0.71281164106E+01  0.47774954019E+02  0.50000000000E+02  0.47000000000E+01 0. -1.
         -5    1    3    3    0  501  0.12027207695E+02 -0.71281164106E+01 -0.47774954019E+02  0.50000000000E+02  0.47000000000E+01 0.  1.
</event>
<event>
 5    1  0.9091923E-001  0.1000000E+03  0.7546771E-02  0.1163815E+00
         11   -1    0    0    0    0  0.00000000000E+00  0.00000000000E+00  0.50000000000E+02  0.50000000000E+02  0.00000000000E+00 0. -1.
        -11   -1    0    0    0    0 -0.00000000000E+00 -0.00000000000E+00 -0.50000000000E+02  0.50000000000E+02  0.00000000000E+00 0.  1.
         23    2    1    2    0    0  0.00000000000E+00  0.00000000000E+00  0.00000000000E+00  0.10000000000E+03  0.10000000000E+03 0.  0.
          5    1    3    3  501    0  0.48898873624E+02  0.20245528235E+01 -0.90945777342E+01  0.50000000000E+02  0.47000000000E+01 0. -1.
         -5    1    3    3    0  501 -0.48898873624E+02 -0.20245528235E+01  0.90945777342E+01  0.50000000000E+02  0.47000000000E+01 0.  1.
</event>
<event>
 5    1  0.9091923E-001  0.1000000E+03  0.7546771E-02  0.1163815E+00
         11   -1    0    0    0    0  0.00000000000E+00  0.00000000000E+00  0.50000000000E+02  0.50000000000E+02  0.00000000000E+00 0.  1.
        -11   -1    0    0    0    0 -0.00000000000E+00 -0.00000000000E+00 -0.50000000000E+02  0.50000000000E+02  0.00000000000E+00 0. -1.
         23    2    1    2    0    0  0.00000000000E+00  0.00000000000E+00  0.00000000000E+00  0.10000000000E+03  0.10000000000E+03 0.  0.
          5    1    3    3  501    0  0.23271068190E+02 -0.41106339481E+02 -0.15704656626E+02  0.50000000000E+02  0.47000000000E+01 0. -1.
         -5    1    3    3    0  501 -0.23271068190E+02  0.41106339481E+02  0.15704656626E+02  0.50000000000E+02  0.47000000000E+01 0.  1.
</event>
<event>
 5    1  0.9091923E-001  0.1000000E+03  0.7546771E-02  0.1163815E+00
         11   -1    0    0    0    0  0.00000000000E+00  0.00000000000E+00  0.50000000000E+02  0.50000000000E+02  0.00000000000E+00 0. -1.
        -11   -1    0    0    0    0 -0.00000000000E+00 -0.00000000000E+00 -0.50000000000E+02  0.50000000000E+02  0.00000000000E+00 0.  1.
         23    2    1    2    0    0  0.00000000000E+00  0.00000000000E+00  0.00000000000E+00  0.10000000000E+03  0.10000000000E+03 0.  0.
          5    1    3    3  501    0 -0.42437144883E+02  0.25705928001E+02  0.40254192034E+01  0.50000000000E+02  0.47000000000E+01 0. -1.
         -5    1    3    3    0  501  0.42437144883E+02 -0.25705928001E+02 -0.40254192034E+01  0.50000000000E+02  0.47000000000E+01 0.  1.
</event>
<event>
 5    1  0.9091923E-001  0.1000000E+03  0.7546771E-02  0.1163815E+00
         11   -1    0    0    0    0  0.00000000000E+00  0.00000000000E+00  0.50000000000E+02  0.50000000000E+02  0.00000000000E+00 0. -1.
        -11   -1    0    0    0    0 -0.00000000000E+00 -0.00000000000E+00 -0.50000000000E+02  0.50000000000E+02  0.00000000000E+00 0.  1.
         23    2    1    2    0    0  0.00000000000E+00  0.00000000000E+00  0.00000000000E+00  0.10000000000E+03  0.10000000000E+03 0.  0.
          5    1    3    3  501    0 -0.38668449594E+02  0.26098690597E+02  0.17364312687E+02  0.50000000000E+02  0.47000000000E+01 0. -1.
         -5    1    3    3    0  501  0.38668449594E+02 -0.26098690597E+02 -0.17364312687E+02  0.50000000000E+02  0.47000000000E+01 0.  1.
</event>
<event>
 5    1  0.9091923E-001  0.1000000E+03  0.7546771E-02  0.1163815E+00
         11   -1    0    0    0    0  0.00000000000E+00  0.00000000000E+00  0.50000000000E+02  0.50000000000E+02  0.00000000000E+00 0.  1.
        -11   -1    0    0    0    0 -0.00000000000E+00 -0.00000000000E+00 -0.50000000000E+02  0.50000000000E+02  0.00000000000E+00 0. -1.
         23    2    1    2    0    0  0.00000000000E+00  0.00000000000E+00  0.00000000000E+00  0.10000000000E+03  0.10000000000E+03 0.  0.
          5    1    3    3  501    0 -0.38491277239E+02 -0.21657623169E+02 -0.22962555066E+02  0.50000000000E+02  0.47000000000E+01 0. -1.
         -5    1    3    3    0  501  0.38491277239E+02  0.21657623169E+02  0.22962555066E+02  0.50000000000E+02  0.47000000000E+01 0.  1.
</event>
<event>
 5    1  0.9091923E-001  0.1000000E+03  0.7546771E-02  0.1163815E+00
         11   -1    0    0    0    0  0.00000000000E+00  0.00000000000E+00  0.50000000000E+02  0.50000000000E+02  0.00000000000E+00 0.  1.
        -11   -1    0    0    0    0 -0.00000000000E+00 -0.00000000000E+00 -0.50000000000E+02  0.50000000000E+02  0.00000000000E+00 0. -1.
         23    2    1    2    0    0  0.00000000000E+00  0.00000000000E+00  0.00000000000E+00  0.10000000000E+03  0.10000000000E+03 0.  0.
          5    1    3    3  501    0 -0.46722445853E+02  0.15753542209E+02  0.68373212174E+01  0.50000000000E+02  0.47000000000E+01 0. -1.
         -5    1    3    3    0  501  0.46722445853E+02 -0.15753542209E+02 -0.68373212174E+01  0.50000000000E+02  0.47000000000E+01 0.  1.
</event>
<event>
 5    1  0.9091923E-001  0.1000000E+03  0.7546771E-02  0.1163815E+00
         11   -1    0    0    0    0  0.00000000000E+00  0.00000000000E+00  0.50000000000E+02  0.50000000000E+02  0.00000000000E+00 0. -1.
        -11   -1    0    0    0    0 -0.00000000000E+00 -0.00000000000E+00 -0.50000000000E+02  0.50000000000E+02  0.00000000000E+00 0.  1.
         23    2    1    2    0    0  0.00000000000E+00  0.00000000000E+00  0.00000000000E+00  0.10000000000E+03  0.10000000000E+03 0.  0.
          5    1    3    3  501    0 -0.13065611909E+01 -0.12962329510E+02  0.48043531422E+02  0.50000000000E+02  0.47000000000E+01 0. -1.
         -5    1    3    3    0  501  0.13065611909E+01  0.12962329510E+02 -0.48043531422E+02  0.50000000000E+02  0.47000000000E+01 0.  1.
</event>
<event>
 5    1  0.9091923E-001  0.1000000E+03  0.7546771E-02  0.1163815E+00
         11   -1    0    0    0    0  0.00000000000E+00  0.00000000000E+00  0.50000000000E+02  0.50000000000E+02  0.00000000000E+00 0. -1.
        -11   -1    0    0    0    0 -0.00000000000E+00 -0.00000000000E+00 -0.50000000000E+02  0.50000000000E+02  0.00000000000E+00 0.  1.
         23    2    1    2    0    0  0.00000000000E+00  0.00000000000E+00  0.00000000000E+00  0.10000000000E+03  0.10000000000E+03 0.  0.
          5    1    3    3  501    0 -0.33311104901E+02  0.33870217111E+02  0.14869051185E+02  0.50000000000E+02  0.47000000000E+01 0. -1.
         -5    1    3    3    0  501  0.33311104901E+02 -0.33870217111E+02 -0.14869051185E+02  0.50000000000E+02  0.47000000000E+01 0.  1.
</event>
<event>
 5    1  0.9091923E-001  0.1000000E+03  0.7546771E-02  0.1163815E+00
         11   -1    0    0    0    0  0.00000000000E+00  0.00000000000E+00  0.50000000000E+02  0.50000000000E+02  0.00000000000E+00 0. -1.
        -11   -1    0    0    0    0 -0.00000000000E+00 -0.00000000000E+00 -0.50000000000E+02  0.50000000000E+02  0.00000000000E+00 0.  1.
         23    2    1    2    0    0  0.00000000000E+00  0.00000000000E+00  0.00000000000E+00  0.10000000000E+03  0.10000000000E+03 0.  0.
          5    1    3    3  501    0 -0.84631097144E+01 -0.13582432322E+01  0.49035099156E+02  0.50000000000E+02  0.47000000000E+01 0. -1.
         -5    1    3    3    0  501  0.84631097144E+01  0.13582432322E+01 -0.49035099156E+02  0.50000000000E+02  0.47000000000E+01 0.  1.
</event>
<event>
 5    1  0.9091923E-001  0.1000000E+03  0.7546771E-02  0.1163815E+00
         11   -1    0    0    0    0  0.00000000000E+00  0.00000000000E+00  0.50000000000E+02  0.50000000000E+02  0.00000000000E+00 0. -1.
        -11   -1    0    0    0    0 -0.00000000000E+00 -0.00000000000E+00 -0.50000000000E+02  0.50000000000E+02  0.00000000000E+00 0.  1.
         23    2    1    2    0    0  0.00000000000E+00  0.00000000000E+00  0.00000000000E+00  0.10000000000E+03  0.10000000000E+03 0.  0.
          5    1    3    3  501    0  0.48618038878E+02 -0.27072382043E+01  0.10337657229E+02  0.50000000000E+02  0.47000000000E+01 0. -1.
         -5    1    3    3    0  501 -0.48618038878E+02  0.27072382043E+01 -0.10337657229E+02  0.50000000000E+02  0.47000000000E+01 0.  1.
</event>
<event>
 5    1  0.9091923E-001  0.1000000E+03  0.7546771E-02  0.1163815E+00
         11   -1    0    0    0    0  0.00000000000E+00  0.00000000000E+00  0.50000000000E+02  0.50000000000E+02  0.00000000000E+00 0. -1.
        -11   -1    0    0    0    0 -0.00000000000E+00 -0.00000000000E+00 -0.50000000000E+02  0.50000000000E+02  0.00000000000E+00 0.  1.
         23    2    1    2    0    0  0.00000000000E+00  0.00000000000E+00  0.00000000000E+00  0.10000000000E+03  0.10000000000E+03 0.  0.
          5    1    3    3  501    0  0.36610303537E+01  0.49401317125E+02  0.49006859763E+01  0.50000000000E+02  0.47000000000E+01 0. -1.
         -5    1    3    3    0  501 -0.36610303537E+01 -0.49401317125E+02 -0.49006859763E+01  0.50000000000E+02  0.47000000000E+01 0.  1.
</event>
<event>
 5    1  0.9091923E-001  0.1000000E+03  0.7546771E-02  0.1163815E+00
         11   -1    0    0    0    0  0.00000000000E+00  0.00000000000E+00  0.50000000000E+02  0.50000000000E+02  0.00000000000E+00 0. -1.
        -11   -1    0    0    0    0 -0.00000000000E+00 -0.00000000000E+00 -0.50000000000E+02  0.50000000000E+02  0.00000000000E+00 0.  1.
         23    2    1    2    0    0  0.00000000000E+00  0.00000000000E+00  0.00000000000E+00  0.10000000000E+03  0.10000000000E+03 0.  0.
          5    1    3    3  501    0 -0.25945809652E+02 -0.14663985043E+02  0.39870948122E+02  0.50000000000E+02  0.47000000000E+01 0. -1.
         -5    1    3    3    0  501  0.25945809652E+02  0.14663985043E+02 -0.39870948122E+02  0.50000000000E+02  0.47000000000E+01 0.  1.
</event>
<event>
 5    1  0.9091923E-001  0.1000000E+03  0.7546771E-02  0.1163815E+00
         11   -1    0    0    0    0  0.00000000000E+00  0.00000000000E+00  0.50000000000E+02  0.50000000000E+02  0.00000000000E+00 0.  1.
        -11   -1    0    0    0    0 -0.00000000000E+00 -0.00000000000E+00 -0.50000000000E+02  0.50000000000E+02  0.00000000000E+00 0. -1.
         23    2    1    2    0    0  0.00000000000E+00  0.00000000000E+00  0.00000000000E+00  0.10000000000E+03  0.10000000000E+03 0.  0.
          5    1    3    3  501    0  0.47891303528E+01 -0.38534811324E+02 -0.31145506044E+02  0.50000000000E+02  0.47000000000E+01 0. -1.
         -5    1    3    3    0  501 -0.47891303528E+01  0.38534811324E+02  0.31145506044E+02  0.50000000000E+02  0.47000000000E+01 0.  1.
</event>
<event>
 5    1  0.9091923E-001  0.1000000E+03  0.7546771E-02  0.1163815E+00
         11   -1    0    0    0    0  0.00000000000E+00  0.00000000000E+00  0.50000000000E+02  0.50000000000E+02  0.00000000000E+00 0. -1.
        -11   -1    0    0    0    0 -0.00000000000E+00 -0.00000000000E+00 -0.50000000000E+02  0.50000000000E+02  0.00000000000E+00 0.  1.
         23    2    1    2    0    0  0.00000000000E+00  0.00000000000E+00  0.00000000000E+00  0.10000000000E+03  0.10000000000E+03 0.  0.
          5    1    3    3  501    0 -0.48458352968E+02 -0.98827820146E+01  0.56593857690E+01  0.50000000000E+02  0.47000000000E+01 0. -1.
         -5    1    3    3    0  501  0.48458352968E+02  0.98827820146E+01 -0.56593857690E+01  0.50000000000E+02  0.47000000000E+01 0.  1.
</event>
<event>
 5    1  0.9091923E-001  0.1000000E+03  0.7546771E-02  0.1163815E+00
         11   -1    0    0    0    0  0.00000000000E+00  0.00000000000E+00  0.50000000000E+02  0.50000000000E+02  0.00000000000E+00 0.  1.
        -11   -1    0    0    0    0 -0.00000000000E+00 -0.00000000000E+00 -0.50000000000E+02  0.50000000000E+02  0.00000000000E+00 0. -1.
         23    2    1    2    0    0  0.00000000000E+00  0.00000000000E+00  0.00000000000E+00  0.10000000000E+03  0.10000000000E+03 0.  0.
          5    1    3    3  501    0 -0.17818286898E+02 -0.11523105849E+02 -0.45029286955E+02  0.50000000000E+02  0.47000000000E+01 0. -1.
         -5    1    3    3    0  501  0.17818286898E+02  0.11523105849E+02  0.45029286955E+02  0.50000000000E+02  0.47000000000E+01 0.  1.
</event>
<event>
 5    1  0.9091923E-001  0.1000000E+03  0.7546771E-02  0.1163815E+00
         11   -1    0    0    0    0  0.00000000000E+00  0.00000000000E+00  0.50000000000E+02  0.50000000000E+02  0.00000000000E+00 0. -1.
        -11   -1    0    0    0    0 -0.00000000000E+00 -0.00000000000E+00 -0.50000000000E+02  0.50000000000E+02  0.00000000000E+00 0.  1.
         23    2    1    2    0    0  0.00000000000E+00  0.00000000000E+00  0.00000000000E+00  0.10000000000E+03  0.10000000000E+03 0.  0.
          5    1    3    3  501    0 -0.14578887644E+02  0.79069491660E+01  0.46934488278E+02  0.50000000000E+02  0.47000000000E+01 0. -1.
         -5    1    3    3    0  501  0.14578887644E+02 -0.79069491660E+01 -0.46934488278E+02  0.50000000000E+02  0.47000000000E+01 0.  1.
</event>
<event>
 5    1  0.9091923E-001  0.1000000E+03  0.7546771E-02  0.1163815E+00
         11   -1    0    0    0    0  0.00000000000E+00  0.00000000000E+00  0.50000000000E+02  0.50000000000E+02  0.00000000000E+00 0. -1.
        -11   -1    0    0    0    0 -0.00000000000E+00 -0.00000000000E+00 -0.50000000000E+02  0.50000000000E+02  0.00000000000E+00 0.  1.
         23    2    1    2    0    0  0.00000000000E+00  0.00000000000E+00  0.00000000000E+00  0.10000000000E+03  0.10000000000E+03 0.  0.
          5    1    3    3  501    0 -0.22530237452E+02  0.18274724240E+02  0.40451611269E+02  0.50000000000E+02  0.47000000000E+01 0. -1.
         -5    1    3    3    0  501  0.22530237452E+02 -0.18274724240E+02 -0.40451611269E+02  0.50000000000E+02  0.47000000000E+01 0.  1.
</event>
<event>
 5    1  0.9091923E-001  0.1000000E+03  0.7546771E-02  0.1163815E+00
         11   -1    0    0    0    0  0.00000000000E+00  0.00000000000E+00  0.50000000000E+02  0.50000000000E+02  0.00000000000E+00 0.  1.
        -11   -1    0    0    0    0 -0.00000000000E+00 -0.00000000000E+00 -0.50000000000E+02  0.50000000000E+02  0.00000000000E+00 0. -1.
         23    2    1    2    0    0  0.00000000000E+00  0.00000000000E+00  0.00000000000E+00  0.10000000000E+03  0.10000000000E+03 0.  0.
          5    1    3    3  501    0 -0.24837626805E+02  0.89090778968E+01 -0.42209366564E+02  0.50000000000E+02  0.47000000000E+01 0. -1.
         -5    1    3    3    0  501  0.24837626805E+02 -0.89090778968E+01  0.42209366564E+02  0.50000000000E+02  0.47000000000E+01 0.  1.
</event>
<event>
 5    1  0.9091923E-001  0.1000000E+03  0.7546771E-02  0.1163815E+00
         11   -1    0    0    0    0  0.00000000000E+00  0.00000000000E+00  0.50000000000E+02  0.50000000000E+02  0.00000000000E+00 0. -1.
        -11   -1    0    0    0    0 -0.00000000000E+00 -0.00000000000E+00 -0.50000000000E+02  0.50000000000E+02  0.00000000000E+00 0.  1.
         23    2    1    2    0    0  0.00000000000E+00  0.00000000000E+00  0.00000000000E+00  0.10000000000E+03  0.10000000000E+03 0.  0.
          5    1    3    3  501    0 -0.30655586532E+02  0.12454657679E+02  0.37189064475E+02  0.50000000000E+02  0.47000000000E+01 0. -1.
         -5    1    3    3    0  501  0.30655586532E+02 -0.12454657679E+02 -0.37189064475E+02  0.50000000000E+02  0.47000000000E+01 0.  1.
</event>
<event>
 5    1  0.9091923E-001  0.1000000E+03  0.7546771E-02  0.1163815E+00
         11   -1    0    0    0    0  0.00000000000E+00  0.00000000000E+00  0.50000000000E+02  0.50000000000E+02  0.00000000000E+00 0.  1.
        -11   -1    0    0    0    0 -0.00000000000E+00 -0.00000000000E+00 -0.50000000000E+02  0.50000000000E+02  0.00000000000E+00 0. -1.
         23    2    1    2    0    0  0.00000000000E+00  0.00000000000E+00  0.00000000000E+00  0.10000000000E+03  0.10000000000E+03 0.  0.
          5    1    3    3  501    0 -0.74367887634E+01 -0.30332838422E+02 -0.38762392679E+02  0.50000000000E+02  0.47000000000E+01 0. -1.
         -5    1    3    3    0  501  0.74367887634E+01  0.30332838422E+02  0.38762392679E+02  0.50000000000E+02  0.47000000000E+01 0.  1.
</event>
<event>
 5    1  0.9091923E-001  0.1000000E+03  0.7546771E-02  0.1163815E+00
         11   -1    0    0    0    0  0.00000000000E+00  0.00000000000E+00  0.50000000000E+02  0.50000000000E+02  0.00000000000E+00 0. -1.
        -11   -1    0    0    0    0 -0.00000000000E+00 -0.00000000000E+00 -0.50000000000E+02  0.50000000000E+02  0.00000000000E+00 0.  1.
         23    2    1    2    0    0  0.00000000000E+00  0.00000000000E+00  0.00000000000E+00  0.10000000000E+03  0.10000000000E+03 0.  0.
          5    1    3    3  501    0  0.17750528538E+02 -0.46451280049E+02  0.22599377002E+01  0.50000000000E+02  0.47000000000E+01 0. -1.
         -5    1    3    3    0  501 -0.17750528538E+02  0.46451280049E+02 -0.22599377002E+01  0.50000000000E+02  0.47000000000E+01 0.  1.
</event>
<event>
 5    1  0.9091923E-001  0.1000000E+03  0.7546771E-02  0.1163815E+00
         11   -1    0    0    0    0  0.00000000000E+00  0.00000000000E+00  0.50000000000E+02  0.50000000000E+02  0.00000000000E+00 0.  1.
        -11   -1    0    0    0    0 -0.00000000000E+00 -0.00000000000E+00 -0.50000000000E+02  0.50000000000E+02  0.00000000000E+00 0. -1.
         23    2    1    2    0    0  0.00000000000E+00  0.00000000000E+00  0.00000000000E+00  0.10000000000E+03  0.10000000000E+03 0.  0.
          5    1    3    3  501    0  0.21003390544E+02  0.27711968590E+02 -0.35620420864E+02  0.50000000000E+02  0.47000000000E+01 0. -1.
         -5    1    3    3    0  501 -0.21003390544E+02 -0.27711968590E+02  0.35620420864E+02  0.50000000000E+02  0.47000000000E+01 0.  1.
</event>
<event>
 5    1  0.9091923E-001  0.1000000E+03  0.7546771E-02  0.1163815E+00
         11   -1    0    0    0    0  0.00000000000E+00  0.00000000000E+00  0.50000000000E+02  0.50000000000E+02  0.00000000000E+00 0.  1.
        -11   -1    0    0    0    0 -0.00000000000E+00 -0.00000000000E+00 -0.50000000000E+02  0.50000000000E+02  0.00000000000E+00 0. -1.
         23    2    1    2    0    0  0.00000000000E+00  0.00000000000E+00  0.00000000000E+00  0.10000000000E+03  0.10000000000E+03 0.  0.
          5    1    3    3  501    0  0.19142413516E+02 -0.37066109747E+02 -0.27158451963E+02  0.50000000000E+02  0.47000000000E+01 0. -1.
         -5    1    3    3    0  501 -0.19142413516E+02  0.37066109747E+02  0.27158451963E+02  0.50000000000E+02  0.47000000000E+01 0.  1.
</event>
<event>
 5    1  0.9091923E-001  0.1000000E+03  0.7546771E-02  0.1163815E+00
         11   -1    0    0    0    0  0.00000000000E+00  0.00000000000E+00  0.50000000000E+02  0.50000000000E+02  0.00000000000E+00 0. -1.
        -11   -1    0    0    0    0 -0.00000000000E+00 -0.00000000000E+00 -0.50000000000E+02  0.50000000000E+02  0.00000000000E+00 0.  1.
         23    2    1    2    0    0  0.00000000000E+00  0.00000000000E+00  0.00000000000E+00  0.10000000000E+03  0.10000000000E+03 0.  0.
          5    1    3    3  501    0  0.43102812530E+02 -0.23395934624E+02  0.85257137565E+01  0.50000000000E+02  0.47000000000E+01 0. -1.
         -5    1    3    3    0  501 -0.43102812530E+02  0.23395934624E+02 -0.85257137565E+01  0.50000000000E+02  0.47000000000E+01 0.  1.
</event>
<event>
 5    1  0.9091923E-001  0.1000000E+03  0.7546771E-02  0.1163815E+00
         11   -1    0    0    0    0  0.00000000000E+00  0.00000000000E+00  0.50000000000E+02  0.50000000000E+02  0.00000000000E+00 0. -1.
        -11   -1    0    0    0    0 -0.00000000000E+00 -0.00000000000E+00 -0.50000000000E+02  0.50000000000E+02  0.00000000000E+00 0.  1.
         23    2    1    2    0    0  0.00000000000E+00  0.00000000000E+00  0.00000000000E+00  0.10000000000E+03  0.10000000000E+03 0.  0.
          5    1    3    3  501    0  0.24864840861E+02  0.42279109704E+02 -0.84927364015E+01  0.50000000000E+02  0.47000000000E+01 0. -1.
         -5    1    3    3    0  501 -0.24864840861E+02 -0.42279109704E+02  0.84927364015E+01  0.50000000000E+02  0.47000000000E+01 0.  1.
</event>
<event>
 5    1  0.9091923E-001  0.1000000E+03  0.7546771E-02  0.1163815E+00
         11   -1    0    0    0    0  0.00000000000E+00  0.00000000000E+00  0.50000000000E+02  0.50000000000E+02  0.00000000000E+00 0. -1.
        -11   -1    0    0    0    0 -0.00000000000E+00 -0.00000000000E+00 -0.50000000000E+02  0.50000000000E+02  0.00000000000E+00 0.  1.
         23    2    1    2    0    0  0.00000000000E+00  0.00000000000E+00  0.00000000000E+00  0.10000000000E+03  0.10000000000E+03 0.  0.
          5    1    3    3  501    0  0.45778873977E+02 -0.18160167038E+02  0.72396844232E+01  0.50000000000E+02  0.47000000000E+01 0. -1.
         -5    1    3    3    0  501 -0.45778873977E+02  0.18160167038E+02 -0.72396844232E+01  0.50000000000E+02  0.47000000000E+01 0.  1.
</event>
<event>
 5    1  0.9091923E-001  0.1000000E+03  0.7546771E-02  0.1163815E+00
         11   -1    0    0    0    0  0.00000000000E+00  0.00000000000E+00  0.50000000000E+02  0.50000000000E+02  0.00000000000E+00 0. -1.
        -11   -1    0    0    0    0 -0.00000000000E+00 -0.00000000000E+00 -0.50000000000E+02  0.50000000000E+02  0.00000000000E+00 0.  1.
         23    2    1    2    0    0  0.00000000000E+00  0.00000000000E+00  0.00000000000E+00  0.10000000000E+03  0.10000000000E+03 0.  0.
          5    1    3    3  501    0 -0.89379414589E+01 -0.20178248623E+02  0.44619070866E+02  0.50000000000E+02  0.47000000000E+01 0. -1.
         -5    1    3    3    0  501  0.89379414589E+01  0.20178248623E+02 -0.44619070866E+02  0.50000000000E+02  0.47000000000E+01 0.  1.
</event>
<event>
 5    1  0.9091923E-001  0.1000000E+03  0.7546771E-02  0.1163815E+00
         11   -1    0    0    0    0  0.00000000000E+00  0.00000000000E+00  0.50000000000E+02  0.50000000000E+02  0.00000000000E+00 0. -1.
        -11   -1    0    0    0    0 -0.00000000000E+00 -0.00000000000E+00 -0.50000000000E+02  0.50000000000E+02  0.00000000000E+00 0.  1.
         23    2    1    2    0    0  0.00000000000E+00  0.00000000000E+00  0.00000000000E+00  0.10000000000E+03  0.10000000000E+03 0.  0.
          5    1    3    3  501    0 -0.29853504934E+02 -0.34830761973E+02  0.19326051422E+02  0.50000000000E+02  0.47000000000E+01 0. -1.
         -5    1    3    3    0  501  0.29853504934E+02  0.34830761973E+02 -0.19326051422E+02  0.50000000000E+02  0.47000000000E+01 0.  1.
</event>
<event>
 5    1  0.9091923E-001  0.1000000E+03  0.7546771E-02  0.1163815E+00
         11   -1    0    0    0    0  0.00000000000E+00  0.00000000000E+00  0.50000000000E+02  0.50000000000E+02  0.00000000000E+00 0. -1.
        -11   -1    0    0    0    0 -0.00000000000E+00 -0.00000000000E+00 -0.50000000000E+02  0.50000000000E+02  0.00000000000E+00 0.  1.
         23    2    1    2    0    0  0.00000000000E+00  0.00000000000E+00  0.00000000000E+00  0.10000000000E+03  0.10000000000E+03 0.  0.
          5    1    3    3  501    0  0.93969738066E+01  0.12690840083E+02  0.47207514881E+02  0.50000000000E+02  0.47000000000E+01 0. -1.
         -5    1    3    3    0  501 -0.93969738066E+01 -0.12690840083E+02 -0.47207514881E+02  0.50000000000E+02  0.47000000000E+01 0.  1.
</event>
<event>
 5    1  0.9091923E-001  0.1000000E+03  0.7546771E-02  0.1163815E+00
         11   -1    0    0    0    0  0.00000000000E+00  0.00000000000E+00  0.50000000000E+02  0.50000000000E+02  0.00000000000E+00 0.  1.
        -11   -1    0    0    0    0 -0.00000000000E+00 -0.00000000000E+00 -0.50000000000E+02  0.50000000000E+02  0.00000000000E+00 0. -1.
         23    2    1    2    0    0  0.00000000000E+00  0.00000000000E+00  0.00000000000E+00  0.10000000000E+03  0.10000000000E+03 0.  0.
          5    1    3    3  501    0 -0.74207977057E+01 -0.11012237662E+02 -0.47974705659E+02  0.50000000000E+02  0.47000000000E+01 0. -1.
         -5    1    3    3    0  501  0.74207977057E+01  0.11012237662E+02  0.47974705659E+02  0.50000000000E+02  0.47000000000E+01 0.  1.
</event>
<event>
 5    1  0.9091923E-001  0.1000000E+03  0.7546771E-02  0.1163815E+00
         11   -1    0    0    0    0  0.00000000000E+00  0.00000000000E+00  0.50000000000E+02  0.50000000000E+02  0.00000000000E+00 0.  1.
        -11   -1    0    0    0    0 -0.00000000000E+00 -0.00000000000E+00 -0.50000000000E+02  0.50000000000E+02  0.00000000000E+00 0. -1.
         23    2    1    2    0    0  0.00000000000E+00  0.00000000000E+00  0.00000000000E+00  0.10000000000E+03  0.10000000000E+03 0.  0.
          5    1    3    3  501    0  0.40589386401E+02 -0.14845766533E+02 -0.24698480269E+02  0.50000000000E+02  0.47000000000E+01 0. -1.
         -5    1    3    3    0  501 -0.40589386401E+02  0.14845766533E+02  0.24698480269E+02  0.50000000000E+02  0.47000000000E+01 0.  1.
</event>
<event>
 5    1  0.9091923E-001  0.1000000E+03  0.7546771E-02  0.1163815E+00
         11   -1    0    0    0    0  0.00000000000E+00  0.00000000000E+00  0.50000000000E+02  0.50000000000E+02  0.00000000000E+00 0. -1.
        -11   -1    0    0    0    0 -0.00000000000E+00 -0.00000000000E+00 -0.50000000000E+02  0.50000000000E+02  0.00000000000E+00 0.  1.
         23    2    1    2    0    0  0.00000000000E+00  0.00000000000E+00  0.00000000000E+00  0.10000000000E+03  0.10000000000E+03 0.  0.
          5    1    3    3  501    0 -0.40244857397E+02 -0.28465552576E+02 -0.69263099542E+01  0.50000000000E+02  0.47000000000E+01 0. -1.
         -5    1    3    3    0  501  0.40244857397E+02  0.28465552576E+02  0.69263099542E+01  0.50000000000E+02  0.47000000000E+01 0.  1.
</event>
<event>
 5    1  0.9091923E-001  0.1000000E+03  0.7546771E-02  0.1163815E+00
         11   -1    0    0    0    0  0.00000000000E+00  0.00000000000E+00  0.50000000000E+02  0.50000000000E+02  0.00000000000E+00 0. -1.
        -11   -1    0    0    0    0 -0.00000000000E+00 -0.00000000000E+00 -0.50000000000E+02  0.50000000000E+02  0.00000000000E+00 0.  1.
         23    2    1    2    0    0  0.00000000000E+00  0.00000000000E+00  0.00000000000E+00  0.10000000000E+03  0.10000000000E+03 0.  0.
          5    1    3    3  501    0 -0.46717352269E+02 -0.47143292743E+01  0.16527979201E+02  0.50000000000E+02  0.47000000000E+01 0. -1.
         -5    1    3    3    0  501  0.46717352269E+02  0.47143292743E+01 -0.16527979201E+02  0.50000000000E+02  0.47000000000E+01 0.  1.
</event>
<event>
 5    1  0.9091923E-001  0.1000000E+03  0.7546771E-02  0.1163815E+00
         11   -1    0    0    0    0  0.00000000000E+00  0.00000000000E+00  0.50000000000E+02  0.50000000000E+02  0.00000000000E+00 0. -1.
        -11   -1    0    0    0    0 -0.00000000000E+00 -0.00000000000E+00 -0.50000000000E+02  0.50000000000E+02  0.00000000000E+00 0.  1.
         23    2    1    2    0    0  0.00000000000E+00  0.00000000000E+00  0.00000000000E+00  0.10000000000E+03  0.10000000000E+03 0.  0.
          5    1    3    3  501    0  0.10353886728E+02 -0.16685473434E+02  0.45741687834E+02  0.50000000000E+02  0.47000000000E+01 0. -1.
         -5    1    3    3    0  501 -0.10353886728E+02  0.16685473434E+02 -0.45741687834E+02  0.50000000000E+02  0.47000000000E+01 0.  1.
</event>
<event>
 5    1  0.9091923E-001  0.1000000E+03  0.7546771E-02  0.1163815E+00
         11   -1    0    0    0    0  0.00000000000E+00  0.00000000000E+00  0.50000000000E+02  0.50000000000E+02  0.00000000000E+00 0. -1.
        -11   -1    0    0    0    0 -0.00000000000E+00 -0.00000000000E+00 -0.50000000000E+02  0.50000000000E+02  0.00000000000E+00 0.  1.
         23    2    1    2    0    0  0.00000000000E+00  0.00000000000E+00  0.00000000000E+00  0.10000000000E+03  0.10000000000E+03 0.  0.
          5    1    3    3  501    0  0.38534399455E+02 -0.48065290302E+01  0.31143335360E+02  0.50000000000E+02  0.47000000000E+01 0. -1.
         -5    1    3    3    0  501 -0.38534399455E+02  0.48065290302E+01 -0.31143335360E+02  0.50000000000E+02  0.47000000000E+01 0.  1.
</event>
<event>
 5    1  0.9091923E-001  0.1000000E+03  0.7546771E-02  0.1163815E+00
         11   -1    0    0    0    0  0.00000000000E+00  0.00000000000E+00  0.50000000000E+02  0.50000000000E+02  0.00000000000E+00 0. -1.
        -11   -1    0    0    0    0 -0.00000000000E+00 -0.00000000000E+00 -0.50000000000E+02  0.50000000000E+02  0.00000000000E+00 0.  1.
         23    2    1    2    0    0  0.00000000000E+00  0.00000000000E+00  0.00000000000E+00  0.10000000000E+03  0.10000000000E+03 0.  0.
          5    1    3    3  501    0 -0.36614075508E+02  0.33057480559E+02  0.66725147999E+01  0.50000000000E+02  0.47000000000E+01 0. -1.
         -5    1    3    3    0  501  0.36614075508E+02 -0.33057480559E+02 -0.66725147999E+01  0.50000000000E+02  0.47000000000E+01 0.  1.
</event>
<event>
 5    1  0.9091923E-001  0.1000000E+03  0.7546771E-02  0.1163815E+00
         11   -1    0    0    0    0  0.00000000000E+00  0.00000000000E+00  0.50000000000E+02  0.50000000000E+02  0.00000000000E+00 0.  1.
        -11   -1    0    0    0    0 -0.00000000000E+00 -0.00000000000E+00 -0.50000000000E+02  0.50000000000E+02  0.00000000000E+00 0. -1.
         23    2    1    2    0    0  0.00000000000E+00  0.00000000000E+00  0.00000000000E+00  0.10000000000E+03  0.10000000000E+03 0.  0.
          5    1    3    3  501    0  0.42078857897E+02 -0.62959551126E+01 -0.25838743531E+02  0.50000000000E+02  0.47000000000E+01 0. -1.
         -5    1    3    3    0  501 -0.42078857897E+02  0.62959551126E+01  0.25838743531E+02  0.50000000000E+02  0.47000000000E+01 0.  1.
</event>
<event>
 5    1  0.9091923E-001  0.1000000E+03  0.7546771E-02  0.1163815E+00
         11   -1    0    0    0    0  0.00000000000E+00  0.00000000000E+00  0.50000000000E+02  0.50000000000E+02  0.00000000000E+00 0.  1.
        -11   -1    0    0    0    0 -0.00000000000E+00 -0.00000000000E+00 -0.50000000000E+02  0.50000000000E+02  0.00000000000E+00 0. -1.
         23    2    1    2    0    0  0.00000000000E+00  0.00000000000E+00  0.00000000000E+00  0.10000000000E+03  0.10000000000E+03 0.  0.
          5    1    3    3  501    0 -0.86665241979E+00 -0.39917986561E+02 -0.29727315091E+02  0.50000000000E+02  0.47000000000E+01 0. -1.
         -5    1    3    3    0  501  0.86665241979E+00  0.39917986561E+02  0.29727315091E+02  0.50000000000E+02  0.47000000000E+01 0.  1.
</event>
<event>
 5    1  0.9091923E-001  0.1000000E+03  0.7546771E-02  0.1163815E+00
         11   -1    0    0    0    0  0.00000000000E+00  0.00000000000E+00  0.50000000000E+02  0.50000000000E+02  0.00000000000E+00 0.  1.
        -11   -1    0    0    0    0 -0.00000000000E+00 -0.00000000000E+00 -0.50000000000E+02  0.50000000000E+02  0.00000000000E+00 0. -1.
         23    2    1    2    0    0  0.00000000000E+00  0.00000000000E+00  0.00000000000E+00  0.10000000000E+03  0.10000000000E+03 0.  0.
          5    1    3    3  501    0  0.25467217032E+02 -0.27872543830E+02 -0.32441519032E+02  0.50000000000E+02  0.47000000000E+01 0. -1.
         -5    1    3    3    0  501 -0.25467217032E+02  0.27872543830E+02  0.32441519032E+02  0.50000000000E+02  0.47000000000E+01 0.  1.
</event>
<event>
 5    1  0.9091923E-001  0.1000000E+03  0.7546771E-02  0.1163815E+00
         11   -1    0    0    0    0  0.00000000000E+00  0.00000000000E+00  0.50000000000E+02  0.50000000000E+02  0.00000000000E+00 0.  1.
        -11   -1    0    0    0    0 -0.00000000000E+00 -0.00000000000E+00 -0.50000000000E+02  0.50000000000E+02  0.00000000000E+00 0. -1.
         23    2    1    2    0    0  0.00000000000E+00  0.00000000000E+00  0.00000000000E+00  0.10000000000E+03  0.10000000000E+03 0.  0.
          5    1    3    3  501    0 -0.80500987689E+01  0.30877218509E+02 -0.38206063484E+02  0.50000000000E+02  0.47000000000E+01 0. -1.
         -5    1    3    3    0  501  0.80500987689E+01 -0.30877218509E+02  0.38206063484E+02  0.50000000000E+02  0.47000000000E+01 0.  1.
</event>
<event>
 5    1  0.9091923E-001  0.1000000E+03  0.7546771E-02  0.1163815E+00
         11   -1    0    0    0    0  0.00000000000E+00  0.00000000000E+00  0.50000000000E+02  0.50000000000E+02  0.00000000000E+00 0. -1.
        -11   -1    0    0    0    0 -0.00000000000E+00 -0.00000000000E+00 -0.50000000000E+02  0.50000000000E+02  0.00000000000E+00 0.  1.
         23    2    1    2    0    0  0.00000000000E+00  0.00000000000E+00  0.00000000000E+00  0.10000000000E+03  0.10000000000E+03 0.  0.
          5    1    3    3  501    0 -0.30115902493E+02 -0.29351805361E+02 -0.26634825681E+02  0.50000000000E+02  0.47000000000E+01 0. -1.
         -5    1    3    3    0  501  0.30115902493E+02  0.29351805361E+02  0.26634825681E+02  0.50000000000E+02  0.47000000000E+01 0.  1.
</event>
<event>
 5    1  0.9091923E-001  0.1000000E+03  0.7546771E-02  0.1163815E+00
         11   -1    0    0    0    0  0.00000000000E+00  0.00000000000E+00  0.50000000000E+02  0.50000000000E+02  0.00000000000E+00 0.  1.
        -11   -1    0    0    0    0 -0.00000000000E+00 -0.00000000000E+00 -0.50000000000E+02  0.50000000000E+02  0.00000000000E+00 0. -1.
         23    2    1    2    0    0  0.00000000000E+00  0.00000000000E+00  0.00000000000E+00  0.10000000000E+03  0.10000000000E+03 0.  0.
          5    1    3    3  501    0  0.30253750850E+02 -0.90784586101E+01 -0.38473395337E+02  0.50000000000E+02  0.47000000000E+01 0. -1.
         -5    1    3    3    0  501 -0.30253750850E+02  0.90784586101E+01  0.38473395337E+02  0.50000000000E+02  0.47000000000E+01 0.  1.
</event>
<event>
 5    1  0.9091923E-001  0.1000000E+03  0.7546771E-02  0.1163815E+00
         11   -1    0    0    0    0  0.00000000000E+00  0.00000000000E+00  0.50000000000E+02  0.50000000000E+02  0.00000000000E+00 0. -1.
        -11   -1    0    0    0    0 -0.00000000000E+00 -0.00000000000E+00 -0.50000000000E+02  0.50000000000E+02  0.00000000000E+00 0.  1.
         23    2    1    2    0    0  0.00000000000E+00  0.00000000000E+00  0.00000000000E+00  0.10000000000E+03  0.10000000000E+03 0.  0.
          5    1    3    3  501    0  0.15727572371E+02 -0.18222749855E+02  0.43571606065E+02  0.50000000000E+02  0.47000000000E+01 0. -1.
         -5    1    3    3    0  501 -0.15727572371E+02  0.18222749855E+02 -0.43571606065E+02  0.50000000000E+02  0.47000000000E+01 0.  1.
</event>
<event>
 5    1  0.9091923E-001  0.1000000E+03  0.7546771E-02  0.1163815E+00
         11   -1    0    0    0    0  0.00000000000E+00  0.00000000000E+00  0.50000000000E+02  0.50000000000E+02  0.00000000000E+00 0. -1.
        -11   -1    0    0    0    0 -0.00000000000E+00 -0.00000000000E+00 -0.50000000000E+02  0.50000000000E+02  0.00000000000E+00 0.  1.
         23    2    1    2    0    0  0.00000000000E+00  0.00000000000E+00  0.00000000000E+00  0.10000000000E+03  0.10000000000E+03 0.  0.
          5    1    3    3  501    0 -0.84959653699E+01  0.86254012109E+01  0.48283858860E+02  0.50000000000E+02  0.47000000000E+01 0. -1.
         -5    1    3    3    0  501  0.84959653699E+01 -0.86254012109E+01 -0.48283858860E+02  0.50000000000E+02  0.47000000000E+01 0.  1.
</event>
<event>
 5    1  0.9091923E-001  0.1000000E+03  0.7546771E-02  0.1163815E+00
         11   -1    0    0    0    0  0.00000000000E+00  0.00000000000E+00  0.50000000000E+02  0.50000000000E+02  0.00000000000E+00 0. -1.
        -11   -1    0    0    0    0 -0.00000000000E+00 -0.00000000000E+00 -0.50000000000E+02  0.50000000000E+02  0.00000000000E+00 0.  1.
         23    2    1    2    0    0  0.00000000000E+00  0.00000000000E+00  0.00000000000E+00  0.10000000000E+03  0.10000000000E+03 0.  0.
          5    1    3    3  501    0 -0.31838420787E+02 -0.22267728032E+02  0.31118696150E+02  0.50000000000E+02  0.47000000000E+01 0. -1.
         -5    1    3    3    0  501  0.31838420787E+02  0.22267728032E+02 -0.31118696150E+02  0.50000000000E+02  0.47000000000E+01 0.  1.
</event>
<event>
 5    1  0.9091923E-001  0.1000000E+03  0.7546771E-02  0.1163815E+00
         11   -1    0    0    0    0  0.00000000000E+00  0.00000000000E+00  0.50000000000E+02  0.50000000000E+02  0.00000000000E+00 0. -1.
        -11   -1    0    0    0    0 -0.00000000000E+00 -0.00000000000E+00 -0.50000000000E+02  0.50000000000E+02  0.00000000000E+00 0.  1.
         23    2    1    2    0    0  0.00000000000E+00  0.00000000000E+00  0.00000000000E+00  0.10000000000E+03  0.10000000000E+03 0.  0.
          5    1    3    3  501    0 -0.35327760467E+02  0.18113736910E+02 -0.30029183731E+02  0.50000000000E+02  0.47000000000E+01 0. -1.
         -5    1    3    3    0  501  0.35327760467E+02 -0.18113736910E+02  0.30029183731E+02  0.50000000000E+02  0.47000000000E+01 0.  1.
</event>
<event>
 5    1  0.9091923E-001  0.1000000E+03  0.7546771E-02  0.1163815E+00
         11   -1    0    0    0    0  0.00000000000E+00  0.00000000000E+00  0.50000000000E+02  0.50000000000E+02  0.00000000000E+00 0.  1.
        -11   -1    0    0    0    0 -0.00000000000E+00 -0.00000000000E+00 -0.50000000000E+02  0.50000000000E+02  0.00000000000E+00 0. -1.
         23    2    1    2    0    0  0.00000000000E+00  0.00000000000E+00  0.00000000000E+00  0.10000000000E+03  0.10000000000E+03 0.  0.
          5    1    3    3  501    0  0.12150013572E+02 -0.85518605336E+01  0.47509502751E+02  0.50000000000E+02  0.47000000000E+01 0.  1.
         -5    1    3    3    0  501 -0.12150013572E+02  0.85518605336E+01 -0.47509502751E+02  0.50000000000E+02  0.47000000000E+01 0. -1.
</event>
<event>
 5    1  0.9091923E-001  0.1000000E+03  0.7546771E-02  0.1163815E+00
         11   -1    0    0    0    0  0.00000000000E+00  0.00000000000E+00  0.50000000000E+02  0.50000000000E+02  0.00000000000E+00 0. -1.
        -11   -1    0    0    0    0 -0.00000000000E+00 -0.00000000000E+00 -0.50000000000E+02  0.50000000000E+02  0.00000000000E+00 0.  1.
         23    2    1    2    0    0  0.00000000000E+00  0.00000000000E+00  0.00000000000E+00  0.10000000000E+03  0.10000000000E+03 0.  0.
          5    1    3    3  501    0 -0.25927150245E+02 -0.10509080389E+02  0.41173439370E+02  0.50000000000E+02  0.47000000000E+01 0. -1.
         -5    1    3    3    0  501  0.25927150245E+02  0.10509080389E+02 -0.41173439370E+02  0.50000000000E+02  0.47000000000E+01 0.  1.
</event>
<event>
 5    1  0.9091923E-001  0.1000000E+03  0.7546771E-02  0.1163815E+00
         11   -1    0    0    0    0  0.00000000000E+00  0.00000000000E+00  0.50000000000E+02  0.50000000000E+02  0.00000000000E+00 0. -1.
        -11   -1    0    0    0    0 -0.00000000000E+00 -0.00000000000E+00 -0.50000000000E+02  0.50000000000E+02  0.00000000000E+00 0.  1.
         23    2    1    2    0    0  0.00000000000E+00  0.00000000000E+00  0.00000000000E+00  0.10000000000E+03  0.10000000000E+03 0.  0.
          5    1    3    3  501    0  0.12311477445E+02 -0.48111122466E+02  0.34142961459E+01  0.50000000000E+02  0.47000000000E+01 0. -1.
         -5    1    3    3    0  501 -0.12311477445E+02  0.48111122466E+02 -0.34142961459E+01  0.50000000000E+02  0.47000000000E+01 0.  1.
</event>
<event>
 5    1  0.9091923E-001  0.1000000E+03  0.7546771E-02  0.1163815E+00
         11   -1    0    0    0    0  0.00000000000E+00  0.00000000000E+00  0.50000000000E+02  0.50000000000E+02  0.00000000000E+00 0. -1.
        -11   -1    0    0    0    0 -0.00000000000E+00 -0.00000000000E+00 -0.50000000000E+02  0.50000000000E+02  0.00000000000E+00 0.  1.
         23    2    1    2    0    0  0.00000000000E+00  0.00000000000E+00  0.00000000000E+00  0.10000000000E+03  0.10000000000E+03 0.  0.
          5    1    3    3  501    0 -0.37569624018E+02  0.26416215542E+02  0.19199398625E+02  0.50000000000E+02  0.47000000000E+01 0. -1.
         -5    1    3    3    0  501  0.37569624018E+02 -0.26416215542E+02 -0.19199398625E+02  0.50000000000E+02  0.47000000000E+01 0.  1.
</event>
<event>
 5    1  0.9091923E-001  0.1000000E+03  0.7546771E-02  0.1163815E+00
         11   -1    0    0    0    0  0.00000000000E+00  0.00000000000E+00  0.50000000000E+02  0.50000000000E+02  0.00000000000E+00 0.  1.
        -11   -1    0    0    0    0 -0.00000000000E+00 -0.00000000000E+00 -0.50000000000E+02  0.50000000000E+02  0.00000000000E+00 0. -1.
         23    2    1    2    0    0  0.00000000000E+00  0.00000000000E+00  0.00000000000E+00  0.10000000000E+03  0.10000000000E+03 0.  0.
          5    1    3    3  501    0  0.15208433750E+01 -0.12285961520E+02 -0.48214646996E+02  0.50000000000E+02  0.47000000000E+01 0. -1.
         -5    1    3    3    0  501 -0.15208433750E+01  0.12285961520E+02  0.48214646996E+02  0.50000000000E+02  0.47000000000E+01 0.  1.
</event>
<event>
 5    1  0.9091923E-001  0.1000000E+03  0.7546771E-02  0.1163815E+00
         11   -1    0    0    0    0  0.00000000000E+00  0.00000000000E+00  0.50000000000E+02  0.50000000000E+02  0.00000000000E+00 0.  1.
        -11   -1    0    0    0    0 -0.00000000000E+00 -0.00000000000E+00 -0.50000000000E+02  0.50000000000E+02  0.00000000000E+00 0. -1.
         23    2    1    2    0    0  0.00000000000E+00  0.00000000000E+00  0.00000000000E+00  0.10000000000E+03  0.10000000000E+03 0.  0.
          5    1    3    3  501    0  0.31356462757E+02 -0.27137656221E+02 -0.27535973892E+02  0.50000000000E+02  0.47000000000E+01 0. -1.
         -5    1    3    3    0  501 -0.31356462757E+02  0.27137656221E+02  0.27535973892E+02  0.50000000000E+02  0.47000000000E+01 0.  1.
</event>
<event>
 5    1  0.9091923E-001  0.1000000E+03  0.7546771E-02  0.1163815E+00
         11   -1    0    0    0    0  0.00000000000E+00  0.00000000000E+00  0.50000000000E+02  0.50000000000E+02  0.00000000000E+00 0. -1.
        -11   -1    0    0    0    0 -0.00000000000E+00 -0.00000000000E+00 -0.50000000000E+02  0.50000000000E+02  0.00000000000E+00 0.  1.
         23    2    1    2    0    0  0.00000000000E+00  0.00000000000E+00  0.00000000000E+00  0.10000000000E+03  0.10000000000E+03 0.  0.
          5    1    3    3  501    0 -0.70423450004E+01 -0.18281556926E+02  0.45761337975E+02  0.50000000000E+02  0.47000000000E+01 0. -1.
         -5    1    3    3    0  501  0.70423450004E+01  0.18281556926E+02 -0.45761337975E+02  0.50000000000E+02  0.47000000000E+01 0.  1.
</event>
<event>
 5    1  0.9091923E-001  0.1000000E+03  0.7546771E-02  0.1163815E+00
         11   -1    0    0    0    0  0.00000000000E+00  0.00000000000E+00  0.50000000000E+02  0.50000000000E+02  0.00000000000E+00 0. -1.
        -11   -1    0    0    0    0 -0.00000000000E+00 -0.00000000000E+00 -0.50000000000E+02  0.50000000000E+02  0.00000000000E+00 0.  1.
         23    2    1    2    0    0  0.00000000000E+00  0.00000000000E+00  0.00000000000E+00  0.10000000000E+03  0.10000000000E+03 0.  0.
          5    1    3    3  501    0  0.31349489898E+02  0.44116347380E+01  0.38414280705E+02  0.50000000000E+02  0.47000000000E+01 0. -1.
         -5    1    3    3    0  501 -0.31349489898E+02 -0.44116347380E+01 -0.38414280705E+02  0.50000000000E+02  0.47000000000E+01 0.  1.
</event>
<event>
 5    1  0.9091923E-001  0.1000000E+03  0.7546771E-02  0.1163815E+00
         11   -1    0    0    0    0  0.00000000000E+00  0.00000000000E+00  0.50000000000E+02  0.50000000000E+02  0.00000000000E+00 0.  1.
        -11   -1    0    0    0    0 -0.00000000000E+00 -0.00000000000E+00 -0.50000000000E+02  0.50000000000E+02  0.00000000000E+00 0. -1.
         23    2    1    2    0    0  0.00000000000E+00  0.00000000000E+00  0.00000000000E+00  0.10000000000E+03  0.10000000000E+03 0.  0.
          5    1    3    3  501    0 -0.17461885496E+02 -0.21737805746E+02 -0.41236638518E+02  0.50000000000E+02  0.47000000000E+01 0. -1.
         -5    1    3    3    0  501  0.17461885496E+02  0.21737805746E+02  0.41236638518E+02  0.50000000000E+02  0.47000000000E+01 0.  1.
</event>
<event>
 5    1  0.9091923E-001  0.1000000E+03  0.7546771E-02  0.1163815E+00
         11   -1    0    0    0    0  0.00000000000E+00  0.00000000000E+00  0.50000000000E+02  0.50000000000E+02  0.00000000000E+00 0. -1.
        -11   -1    0    0    0    0 -0.00000000000E+00 -0.00000000000E+00 -0.50000000000E+02  0.50000000000E+02  0.00000000000E+00 0.  1.
         23    2    1    2    0    0  0.00000000000E+00  0.00000000000E+00  0.00000000000E+00  0.10000000000E+03  0.10000000000E+03 0.  0.
          5    1    3    3  501    0  0.40188380914E+02 -0.19661750822E+02  0.21822456188E+02  0.50000000000E+02  0.47000000000E+01 0. -1.
         -5    1    3    3    0  501 -0.40188380914E+02  0.19661750822E+02 -0.21822456188E+02  0.50000000000E+02  0.47000000000E+01 0.  1.
</event>
<event>
 5    1  0.9091923E-001  0.1000000E+03  0.7546771E-02  0.1163815E+00
         11   -1    0    0    0    0  0.00000000000E+00  0.00000000000E+00  0.50000000000E+02  0.50000000000E+02  0.00000000000E+00 0. -1.
        -11   -1    0    0    0    0 -0.00000000000E+00 -0.00000000000E+00 -0.50000000000E+02  0.50000000000E+02  0.00000000000E+00 0.  1.
         23    2    1    2    0    0  0.00000000000E+00  0.00000000000E+00  0.00000000000E+00  0.10000000000E+03  0.10000000000E+03 0.  0.
          5    1    3    3  501    0 -0.13023430039E+02 -0.48042638498E+02 -0.45294166704E+00  0.50000000000E+02  0.47000000000E+01 0. -1.
         -5    1    3    3    0  501  0.13023430039E+02  0.48042638498E+02  0.45294166704E+00  0.50000000000E+02  0.47000000000E+01 0.  1.
</event>
<event>
 5    1  0.9091923E-001  0.1000000E+03  0.7546771E-02  0.1163815E+00
         11   -1    0    0    0    0  0.00000000000E+00  0.00000000000E+00  0.50000000000E+02  0.50000000000E+02  0.00000000000E+00 0. -1.
        -11   -1    0    0    0    0 -0.00000000000E+00 -0.00000000000E+00 -0.50000000000E+02  0.50000000000E+02  0.00000000000E+00 0.  1.
         23    2    1    2    0    0  0.00000000000E+00  0.00000000000E+00  0.00000000000E+00  0.10000000000E+03  0.10000000000E+03 0.  0.
          5    1    3    3  501    0 -0.12885010872E+02  0.19978279133E+02  0.43735052964E+02  0.50000000000E+02  0.47000000000E+01 0. -1.
         -5    1    3    3    0  501  0.12885010872E+02 -0.19978279133E+02 -0.43735052964E+02  0.50000000000E+02  0.47000000000E+01 0.  1.
</event>
<event>
 5    1  0.9091923E-001  0.1000000E+03  0.7546771E-02  0.1163815E+00
         11   -1    0    0    0    0  0.00000000000E+00  0.00000000000E+00  0.50000000000E+02  0.50000000000E+02  0.00000000000E+00 0. -1.
        -11   -1    0    0    0    0 -0.00000000000E+00 -0.00000000000E+00 -0.50000000000E+02  0.50000000000E+02  0.00000000000E+00 0.  1.
         23    2    1    2    0    0  0.00000000000E+00  0.00000000000E+00  0.00000000000E+00  0.10000000000E+03  0.10000000000E+03 0.  0.
          5    1    3    3  501    0 -0.32723023647E+02  0.27725563268E+02  0.25266714564E+02  0.50000000000E+02  0.47000000000E+01 0. -1.
         -5    1    3    3    0  501  0.32723023647E+02 -0.27725563268E+02 -0.25266714564E+02  0.50000000000E+02  0.47000000000E+01 0.  1.
</event>
<event>
 5    1  0.9091923E-001  0.1000000E+03  0.7546771E-02  0.1163815E+00
         11   -1    0    0    0    0  0.00000000000E+00  0.00000000000E+00  0.50000000000E+02  0.50000000000E+02  0.00000000000E+00 0. -1.
        -11   -1    0    0    0    0 -0.00000000000E+00 -0.00000000000E+00 -0.50000000000E+02  0.50000000000E+02  0.00000000000E+00 0.  1.
         23    2    1    2    0    0  0.00000000000E+00  0.00000000000E+00  0.00000000000E+00  0.10000000000E+03  0.10000000000E+03 0.  0.
          5    1    3    3  501    0  0.20791175677E+02  0.31087605525E+01  0.45121753310E+02  0.50000000000E+02  0.47000000000E+01 0. -1.
         -5    1    3    3    0  501 -0.20791175677E+02 -0.31087605525E+01 -0.45121753310E+02  0.50000000000E+02  0.47000000000E+01 0.  1.
</event>
<event>
 5    1  0.9091923E-001  0.1000000E+03  0.7546771E-02  0.1163815E+00
         11   -1    0    0    0    0  0.00000000000E+00  0.00000000000E+00  0.50000000000E+02  0.50000000000E+02  0.00000000000E+00 0.  1.
        -11   -1    0    0    0    0 -0.00000000000E+00 -0.00000000000E+00 -0.50000000000E+02  0.50000000000E+02  0.00000000000E+00 0. -1.
         23    2    1    2    0    0  0.00000000000E+00  0.00000000000E+00  0.00000000000E+00  0.10000000000E+03  0.10000000000E+03 0.  0.
          5    1    3    3  501    0 -0.40473843756E+02  0.20224080385E+02  0.20754867964E+02  0.50000000000E+02  0.47000000000E+01 0.  1.
         -5    1    3    3    0  501  0.40473843756E+02 -0.20224080385E+02 -0.20754867964E+02  0.50000000000E+02  0.47000000000E+01 0.  1.
</event>
<event>
 5    1  0.9091923E-001  0.1000000E+03  0.7546771E-02  0.1163815E+00
         11   -1    0    0    0    0  0.00000000000E+00  0.00000000000E+00  0.50000000000E+02  0.50000000000E+02  0.00000000000E+00 0.  1.
        -11   -1    0    0    0    0 -0.00000000000E+00 -0.00000000000E+00 -0.50000000000E+02  0.50000000000E+02  0.00000000000E+00 0. -1.
         23    2    1    2    0    0  0.00000000000E+00  0.00000000000E+00  0.00000000000E+00  0.10000000000E+03  0.10000000000E+03 0.  0.
          5    1    3    3  501    0 -0.33122219931E+02 -0.34044425415E+02 -0.14893140873E+02  0.50000000000E+02  0.47000000000E+01 0. -1.
         -5    1    3    3    0  501  0.33122219931E+02  0.34044425415E+02  0.14893140873E+02  0.50000000000E+02  0.47000000000E+01 0.  1.
</event>
<event>
 5    1  0.9091923E-001  0.1000000E+03  0.7546771E-02  0.1163815E+00
         11   -1    0    0    0    0  0.00000000000E+00  0.00000000000E+00  0.50000000000E+02  0.50000000000E+02  0.00000000000E+00 0. -1.
        -11   -1    0    0    0    0 -0.00000000000E+00 -0.00000000000E+00 -0.50000000000E+02  0.50000000000E+02  0.00000000000E+00 0.  1.
         23    2    1    2    0    0  0.00000000000E+00  0.00000000000E+00  0.00000000000E+00  0.10000000000E+03  0.10000000000E+03 0.  0.
          5    1    3    3  501    0 -0.74561931622E+01  0.30397724582E+02  0.38707796679E+02  0.50000000000E+02  0.47000000000E+01 0. -1.
         -5    1    3    3    0  501  0.74561931622E+01 -0.30397724582E+02 -0.38707796679E+02  0.50000000000E+02  0.47000000000E+01 0.  1.
</event>
<event>
 5    1  0.9091923E-001  0.1000000E+03  0.7546771E-02  0.1163815E+00
         11   -1    0    0    0    0  0.00000000000E+00  0.00000000000E+00  0.50000000000E+02  0.50000000000E+02  0.00000000000E+00 0.  1.
        -11   -1    0    0    0    0 -0.00000000000E+00 -0.00000000000E+00 -0.50000000000E+02  0.50000000000E+02  0.00000000000E+00 0. -1.
         23    2    1    2    0    0  0.00000000000E+00  0.00000000000E+00  0.00000000000E+00  0.10000000000E+03  0.10000000000E+03 0.  0.
          5    1    3    3  501    0  0.16604031782E+02 -0.46914306775E+02  0.11242545938E+01  0.50000000000E+02  0.47000000000E+01 0. -1.
         -5    1    3    3    0  501 -0.16604031782E+02  0.46914306775E+02 -0.11242545938E+01  0.50000000000E+02  0.47000000000E+01 0.  1.
</event>
<event>
 5    1  0.9091923E-001  0.1000000E+03  0.7546771E-02  0.1163815E+00
         11   -1    0    0    0    0  0.00000000000E+00  0.00000000000E+00  0.50000000000E+02  0.50000000000E+02  0.00000000000E+00 0.  1.
        -11   -1    0    0    0    0 -0.00000000000E+00 -0.00000000000E+00 -0.50000000000E+02  0.50000000000E+02  0.00000000000E+00 0. -1.
         23    2    1    2    0    0  0.00000000000E+00  0.00000000000E+00  0.00000000000E+00  0.10000000000E+03  0.10000000000E+03 0.  0.
          5    1    3    3  501    0 -0.15913095835E+02  0.78415181352E+01 -0.46510149154E+02  0.50000000000E+02  0.47000000000E+01 0. -1.
         -5    1    3    3    0  501  0.15913095835E+02 -0.78415181352E+01  0.46510149154E+02  0.50000000000E+02  0.47000000000E+01 0.  1.
</event>
<event>
 5    1  0.9091923E-001  0.1000000E+03  0.7546771E-02  0.1163815E+00
         11   -1    0    0    0    0  0.00000000000E+00  0.00000000000E+00  0.50000000000E+02  0.50000000000E+02  0.00000000000E+00 0. -1.
        -11   -1    0    0    0    0 -0.00000000000E+00 -0.00000000000E+00 -0.50000000000E+02  0.50000000000E+02  0.00000000000E+00 0.  1.
         23    2    1    2    0    0  0.00000000000E+00  0.00000000000E+00  0.00000000000E+00  0.10000000000E+03  0.10000000000E+03 0.  0.
          5    1    3    3  501    0  0.60315331064E+01 -0.72939966033E+01  0.48870525084E+02  0.50000000000E+02  0.47000000000E+01 0. -1.
         -5    1    3    3    0  501 -0.60315331064E+01  0.72939966033E+01 -0.48870525084E+02  0.50000000000E+02  0.47000000000E+01 0.  1.
</event>
<event>
 5    1  0.9091923E-001  0.1000000E+03  0.7546771E-02  0.1163815E+00
         11   -1    0    0    0    0  0.00000000000E+00  0.00000000000E+00  0.50000000000E+02  0.50000000000E+02  0.00000000000E+00 0. -1.
        -11   -1    0    0    0    0 -0.00000000000E+00 -0.00000000000E+00 -0.50000000000E+02  0.50000000000E+02  0.00000000000E+00 0.  1.
         23    2    1    2    0    0  0.00000000000E+00  0.00000000000E+00  0.00000000000E+00  0.10000000000E+03  0.10000000000E+03 0.  0.
          5    1    3    3  501    0 -0.12166632209E+02  0.10497829559E+02  0.47113465540E+02  0.50000000000E+02  0.47000000000E+01 0. -1.
         -5    1    3    3    0  501  0.12166632209E+02 -0.10497829559E+02 -0.47113465540E+02  0.50000000000E+02  0.47000000000E+01 0.  1.
</event>
<event>
 5    1  0.9091923E-001  0.1000000E+03  0.7546771E-02  0.1163815E+00
         11   -1    0    0    0    0  0.00000000000E+00  0.00000000000E+00  0.50000000000E+02  0.50000000000E+02  0.00000000000E+00 0. -1.
        -11   -1    0    0    0    0 -0.00000000000E+00 -0.00000000000E+00 -0.50000000000E+02  0.50000000000E+02  0.00000000000E+00 0.  1.
         23    2    1    2    0    0  0.00000000000E+00  0.00000000000E+00  0.00000000000E+00  0.10000000000E+03  0.10000000000E+03 0.  0.
          5    1    3    3  501    0  0.40505206834E+02 -0.10257497837E+02  0.27055904300E+02  0.50000000000E+02  0.47000000000E+01 0. -1.
         -5    1    3    3    0  501 -0.40505206834E+02  0.10257497837E+02 -0.27055904300E+02  0.50000000000E+02  0.47000000000E+01 0.  1.
</event>
<event>
 5    1  0.9091923E-001  0.1000000E+03  0.7546771E-02  0.1163815E+00
         11   -1    0    0    0    0  0.00000000000E+00  0.00000000000E+00  0.50000000000E+02  0.50000000000E+02  0.00000000000E+00 0. -1.
        -11   -1    0    0    0    0 -0.00000000000E+00 -0.00000000000E+00 -0.50000000000E+02  0.50000000000E+02  0.00000000000E+00 0.  1.
         23    2    1    2    0    0  0.00000000000E+00  0.00000000000E+00  0.00000000000E+00  0.10000000000E+03  0.10000000000E+03 0.  0.
          5    1    3    3  501    0  0.12516097034E+02  0.48044034053E+02 -0.36094469010E+01  0.50000000000E+02  0.47000000000E+01 0. -1.
         -5    1    3    3    0  501 -0.12516097034E+02 -0.48044034053E+02  0.36094469010E+01  0.50000000000E+02  0.47000000000E+01 0.  1.
</event>
<event>
 5    1  0.9091923E-001  0.1000000E+03  0.7546771E-02  0.1163815E+00
         11   -1    0    0    0    0  0.00000000000E+00  0.00000000000E+00  0.50000000000E+02  0.50000000000E+02  0.00000000000E+00 0.  1.
        -11   -1    0    0    0    0 -0.00000000000E+00 -0.00000000000E+00 -0.50000000000E+02  0.50000000000E+02  0.00000000000E+00 0. -1.
         23    2    1    2    0    0  0.00000000000E+00  0.00000000000E+00  0.00000000000E+00  0.10000000000E+03  0.10000000000E+03 0.  0.
          5    1    3    3  501    0 -0.11919418125E+02  0.40302350456E+02 -0.26675044878E+02  0.50000000000E+02  0.47000000000E+01 0. -1.
         -5    1    3    3    0  501  0.11919418125E+02 -0.40302350456E+02  0.26675044878E+02  0.50000000000E+02  0.47000000000E+01 0.  1.
</event>
<event>
 5    1  0.9091923E-001  0.1000000E+03  0.7546771E-02  0.1163815E+00
         11   -1    0    0    0    0  0.00000000000E+00  0.00000000000E+00  0.50000000000E+02  0.50000000000E+02  0.00000000000E+00 0. -1.
        -11   -1    0    0    0    0 -0.00000000000E+00 -0.00000000000E+00 -0.50000000000E+02  0.50000000000E+02  0.00000000000E+00 0.  1.
         23    2    1    2    0    0  0.00000000000E+00  0.00000000000E+00  0.00000000000E+00  0.10000000000E+03  0.10000000000E+03 0.  0.
          5    1    3    3  501    0 -0.20043523580E+02  0.21052986217E+02  0.40409639120E+02  0.50000000000E+02  0.47000000000E+01 0. -1.
         -5    1    3    3    0  501  0.20043523580E+02 -0.21052986217E+02 -0.40409639120E+02  0.50000000000E+02  0.47000000000E+01 0.  1.
</event>
<event>
 5    1  0.9091923E-001  0.1000000E+03  0.7546771E-02  0.1163815E+00
         11   -1    0    0    0    0  0.00000000000E+00  0.00000000000E+00  0.50000000000E+02  0.50000000000E+02  0.00000000000E+00 0. -1.
        -11   -1    0    0    0    0 -0.00000000000E+00 -0.00000000000E+00 -0.50000000000E+02  0.50000000000E+02  0.00000000000E+00 0.  1.
         23    2    1    2    0    0  0.00000000000E+00  0.00000000000E+00  0.00000000000E+00  0.10000000000E+03  0.10000000000E+03 0.  0.
          5    1    3    3  501    0  0.13687018677E+01  0.26441515842E+02  0.42153088798E+02  0.50000000000E+02  0.47000000000E+01 0. -1.
         -5    1    3    3    0  501 -0.13687018677E+01 -0.26441515842E+02 -0.42153088798E+02  0.50000000000E+02  0.47000000000E+01 0.  1.
</event>
<event>
 5    1  0.9091923E-001  0.1000000E+03  0.7546771E-02  0.1163815E+00
         11   -1    0    0    0    0  0.00000000000E+00  0.00000000000E+00  0.50000000000E+02  0.50000000000E+02  0.00000000000E+00 0.  1.
        -11   -1    0    0    0    0 -0.00000000000E+00 -0.00000000000E+00 -0.50000000000E+02  0.50000000000E+02  0.00000000000E+00 0. -1.
         23    2    1    2    0    0  0.00000000000E+00  0.00000000000E+00  0.00000000000E+00  0.10000000000E+03  0.10000000000E+03 0.  0.
          5    1    3    3  501    0  0.28681664698E+02 -0.40660240994E+02  0.14201804301E+01  0.50000000000E+02  0.47000000000E+01 0. -1.
         -5    1    3    3    0  501 -0.28681664698E+02  0.40660240994E+02 -0.14201804301E+01  0.50000000000E+02  0.47000000000E+01 0.  1.
</event>
<event>
 5    1  0.9091923E-001  0.1000000E+03  0.7546771E-02  0.1163815E+00
         11   -1    0    0    0    0  0.00000000000E+00  0.00000000000E+00  0.50000000000E+02  0.50000000000E+02  0.00000000000E+00 0. -1.
        -11   -1    0    0    0    0 -0.00000000000E+00 -0.00000000000E+00 -0.50000000000E+02  0.50000000000E+02  0.00000000000E+00 0.  1.
         23    2    1    2    0    0  0.00000000000E+00  0.00000000000E+00  0.00000000000E+00  0.10000000000E+03  0.10000000000E+03 0.  0.
          5    1    3    3  501    0  0.81588688091E+01 -0.31060983580E+02  0.38033645089E+02  0.50000000000E+02  0.47000000000E+01 0. -1.
         -5    1    3    3    0  501 -0.81588688091E+01  0.31060983580E+02 -0.38033645089E+02  0.50000000000E+02  0.47000000000E+01 0.  1.
</event>
<event>
 5    1  0.9091923E-001  0.1000000E+03  0.7546771E-02  0.1163815E+00
         11   -1    0    0    0    0  0.00000000000E+00  0.00000000000E+00  0.50000000000E+02  0.50000000000E+02  0.00000000000E+00 0. -1.
        -11   -1    0    0    0    0 -0.00000000000E+00 -0.00000000000E+00 -0.50000000000E+02  0.50000000000E+02  0.00000000000E+00 0.  1.
         23    2    1    2    0    0  0.00000000000E+00  0.00000000000E+00  0.00000000000E+00  0.10000000000E+03  0.10000000000E+03 0.  0.
          5    1    3    3  501    0 -0.21202956461E+02 -0.41262003371E+02 -0.18049701247E+02  0.50000000000E+02  0.47000000000E+01 0. -1.
         -5    1    3    3    0  501  0.21202956461E+02  0.41262003371E+02  0.18049701247E+02  0.50000000000E+02  0.47000000000E+01 0.  1.
</event>
<event>
 5    1  0.9091923E-001  0.1000000E+03  0.7546771E-02  0.1163815E+00
         11   -1    0    0    0    0  0.00000000000E+00  0.00000000000E+00  0.50000000000E+02  0.50000000000E+02  0.00000000000E+00 0. -1.
        -11   -1    0    0    0    0 -0.00000000000E+00 -0.00000000000E+00 -0.50000000000E+02  0.50000000000E+02  0.00000000000E+00 0.  1.
         23    2    1    2    0    0  0.00000000000E+00  0.00000000000E+00  0.00000000000E+00  0.10000000000E+03  0.10000000000E+03 0.  0.
          5    1    3    3  501    0  0.41771991670E+01  0.42114274654E+02 -0.26207801844E+02  0.50000000000E+02  0.47000000000E+01 0. -1.
         -5    1    3    3    0  501 -0.41771991670E+01 -0.42114274654E+02  0.26207801844E+02  0.50000000000E+02  0.47000000000E+01 0.  1.
</event>
<event>
 5    1  0.9091923E-001  0.1000000E+03  0.7546771E-02  0.1163815E+00
         11   -1    0    0    0    0  0.00000000000E+00  0.00000000000E+00  0.50000000000E+02  0.50000000000E+02  0.00000000000E+00 0.  1.
        -11   -1    0    0    0    0 -0.00000000000E+00 -0.00000000000E+00 -0.50000000000E+02  0.50000000000E+02  0.00000000000E+00 0. -1.
         23    2    1    2    0    0  0.00000000000E+00  0.00000000000E+00  0.00000000000E+00  0.10000000000E+03  0.10000000000E+03 0.  0.
          5    1    3    3  501    0  0.29525450851E+02  0.32250345596E+02 -0.23792287847E+02  0.50000000000E+02  0.47000000000E+01 0. -1.
         -5    1    3    3    0  501 -0.29525450851E+02 -0.32250345596E+02  0.23792287847E+02  0.50000000000E+02  0.47000000000E+01 0.  1.
</event>
<event>
 5    1  0.9091923E-001  0.1000000E+03  0.7546771E-02  0.1163815E+00
         11   -1    0    0    0    0  0.00000000000E+00  0.00000000000E+00  0.50000000000E+02  0.50000000000E+02  0.00000000000E+00 0.  1.
        -11   -1    0    0    0    0 -0.00000000000E+00 -0.00000000000E+00 -0.50000000000E+02  0.50000000000E+02  0.00000000000E+00 0. -1.
         23    2    1    2    0    0  0.00000000000E+00  0.00000000000E+00  0.00000000000E+00  0.10000000000E+03  0.10000000000E+03 0.  0.
          5    1    3    3  501    0  0.28851393126E+02  0.13226064314E+02 -0.38348120390E+02  0.50000000000E+02  0.47000000000E+01 0. -1.
         -5    1    3    3    0  501 -0.28851393126E+02 -0.13226064314E+02  0.38348120390E+02  0.50000000000E+02  0.47000000000E+01 0.  1.
</event>
<event>
 5    1  0.9091923E-001  0.1000000E+03  0.7546771E-02  0.1163815E+00
         11   -1    0    0    0    0  0.00000000000E+00  0.00000000000E+00  0.50000000000E+02  0.50000000000E+02  0.00000000000E+00 0.  1.
        -11   -1    0    0    0    0 -0.00000000000E+00 -0.00000000000E+00 -0.50000000000E+02  0.50000000000E+02  0.00000000000E+00 0. -1.
         23    2    1    2    0    0  0.00000000000E+00  0.00000000000E+00  0.00000000000E+00  0.10000000000E+03  0.10000000000E+03 0.  0.
          5    1    3    3  501    0  0.74114806244E+00 -0.49753120110E+02 -0.14098719409E+01  0.50000000000E+02  0.47000000000E+01 0. -1.
         -5    1    3    3    0  501 -0.74114806244E+00  0.49753120110E+02  0.14098719409E+01  0.50000000000E+02  0.47000000000E+01 0.  1.
</event>
<event>
 5    1  0.9091923E-001  0.1000000E+03  0.7546771E-02  0.1163815E+00
         11   -1    0    0    0    0  0.00000000000E+00  0.00000000000E+00  0.50000000000E+02  0.50000000000E+02  0.00000000000E+00 0. -1.
        -11   -1    0    0    0    0 -0.00000000000E+00 -0.00000000000E+00 -0.50000000000E+02  0.50000000000E+02  0.00000000000E+00 0.  1.
         23    2    1    2    0    0  0.00000000000E+00  0.00000000000E+00  0.00000000000E+00  0.10000000000E+03  0.10000000000E+03 0.  0.
          5    1    3    3  501    0 -0.21559852041E+02  0.25646809843E+01  0.44794030756E+02  0.50000000000E+02  0.47000000000E+01 0. -1.
         -5    1    3    3    0  501  0.21559852041E+02 -0.25646809843E+01 -0.44794030756E+02  0.50000000000E+02  0.47000000000E+01 0.  1.
</event>
<event>
 5    1  0.9091923E-001  0.1000000E+03  0.7546771E-02  0.1163815E+00
         11   -1    0    0    0    0  0.00000000000E+00  0.00000000000E+00  0.50000000000E+02  0.50000000000E+02  0.00000000000E+00 0.  1.
        -11   -1    0    0    0    0 -0.00000000000E+00 -0.00000000000E+00 -0.50000000000E+02  0.50000000000E+02  0.00000000000E+00 0. -1.
         23    2    1    2    0    0  0.00000000000E+00  0.00000000000E+00  0.00000000000E+00  0.10000000000E+03  0.10000000000E+03 0.  0.
          5    1    3    3  501    0  0.29489606889E+01 -0.45346963689E+02 -0.20319116984E+02  0.50000000000E+02  0.47000000000E+01 0. -1.
         -5    1    3    3    0  501 -0.29489606889E+01  0.45346963689E+02  0.20319116984E+02  0.50000000000E+02  0.47000000000E+01 0.  1.
</event>
<event>
 5    1  0.9091923E-001  0.1000000E+03  0.7546771E-02  0.1163815E+00
         11   -1    0    0    0    0  0.00000000000E+00  0.00000000000E+00  0.50000000000E+02  0.50000000000E+02  0.00000000000E+00 0.  1.
        -11   -1    0    0    0    0 -0.00000000000E+00 -0.00000000000E+00 -0.50000000000E+02  0.50000000000E+02  0.00000000000E+00 0. -1.
         23    2    1    2    0    0  0.00000000000E+00  0.00000000000E+00  0.00000000000E+00  0.10000000000E+03  0.10000000000E+03 0.  0.
          5    1    3    3  501    0  0.45448506632E+02 -0.20261908052E+02  0.13410171530E+01  0.50000000000E+02  0.47000000000E+01 0.  1.
         -5    1    3    3    0  501 -0.45448506632E+02  0.20261908052E+02 -0.13410171530E+01  0.50000000000E+02  0.47000000000E+01 0. -1.
</event>
<event>
 5    1  0.9091923E-001  0.1000000E+03  0.7546771E-02  0.1163815E+00
         11   -1    0    0    0    0  0.00000000000E+00  0.00000000000E+00  0.50000000000E+02  0.50000000000E+02  0.00000000000E+00 0.  1.
        -11   -1    0    0    0    0 -0.00000000000E+00 -0.00000000000E+00 -0.50000000000E+02  0.50000000000E+02  0.00000000000E+00 0. -1.
         23    2    1    2    0    0  0.00000000000E+00  0.00000000000E+00  0.00000000000E+00  0.10000000000E+03  0.10000000000E+03 0.  0.
          5    1    3    3  501    0 -0.21202268461E+02 -0.22457571835E+02 -0.39038843212E+02  0.50000000000E+02  0.47000000000E+01 0. -1.
         -5    1    3    3    0  501  0.21202268461E+02  0.22457571835E+02  0.39038843212E+02  0.50000000000E+02  0.47000000000E+01 0.  1.
</event>
<event>
 5    1  0.9091923E-001  0.1000000E+03  0.7546771E-02  0.1163815E+00
         11   -1    0    0    0    0  0.00000000000E+00  0.00000000000E+00  0.50000000000E+02  0.50000000000E+02  0.00000000000E+00 0. -1.
        -11   -1    0    0    0    0 -0.00000000000E+00 -0.00000000000E+00 -0.50000000000E+02  0.50000000000E+02  0.00000000000E+00 0.  1.
         23    2    1    2    0    0  0.00000000000E+00  0.00000000000E+00  0.00000000000E+00  0.10000000000E+03  0.10000000000E+03 0.  0.
          5    1    3    3  501    0  0.38047232261E+02 -0.28578006519E+02  0.14615596487E+02  0.50000000000E+02  0.47000000000E+01 0. -1.
         -5    1    3    3    0  501 -0.38047232261E+02  0.28578006519E+02 -0.14615596487E+02  0.50000000000E+02  0.47000000000E+01 0.  1.
</event>
<event>
 5    1  0.9091923E-001  0.1000000E+03  0.7546771E-02  0.1163815E+00
         11   -1    0    0    0    0  0.00000000000E+00  0.00000000000E+00  0.50000000000E+02  0.50000000000E+02  0.00000000000E+00 0.  1.
        -11   -1    0    0    0    0 -0.00000000000E+00 -0.00000000000E+00 -0.50000000000E+02  0.50000000000E+02  0.00000000000E+00 0. -1.
         23    2    1    2    0    0  0.00000000000E+00  0.00000000000E+00  0.00000000000E+00  0.10000000000E+03  0.10000000000E+03 0.  0.
          5    1    3    3  501    0 -0.93441858650E+01 -0.42470637364E+02 -0.24224804486E+02  0.50000000000E+02  0.47000000000E+01 0. -1.
         -5    1    3    3    0  501  0.93441858650E+01  0.42470637364E+02  0.24224804486E+02  0.50000000000E+02  0.47000000000E+01 0.  1.
</event>
<event>
 5    1  0.9091923E-001  0.1000000E+03  0.7546771E-02  0.1163815E+00
         11   -1    0    0    0    0  0.00000000000E+00  0.00000000000E+00  0.50000000000E+02  0.50000000000E+02  0.00000000000E+00 0.  1.
        -11   -1    0    0    0    0 -0.00000000000E+00 -0.00000000000E+00 -0.50000000000E+02  0.50000000000E+02  0.00000000000E+00 0. -1.
         23    2    1    2    0    0  0.00000000000E+00  0.00000000000E+00  0.00000000000E+00  0.10000000000E+03  0.10000000000E+03 0.  0.
          5    1    3    3  501    0 -0.27536981216E+02  0.28128264468E+02 -0.30470073901E+02  0.50000000000E+02  0.47000000000E+01 0. -1.
         -5    1    3    3    0  501  0.27536981216E+02 -0.28128264468E+02  0.30470073901E+02  0.50000000000E+02  0.47000000000E+01 0.  1.
</event>
<event>
 5    1  0.9091923E-001  0.1000000E+03  0.7546771E-02  0.1163815E+00
         11   -1    0    0    0    0  0.00000000000E+00  0.00000000000E+00  0.50000000000E+02  0.50000000000E+02  0.00000000000E+00 0. -1.
        -11   -1    0    0    0    0 -0.00000000000E+00 -0.00000000000E+00 -0.50000000000E+02  0.50000000000E+02  0.00000000000E+00 0.  1.
         23    2    1    2    0    0  0.00000000000E+00  0.00000000000E+00  0.00000000000E+00  0.10000000000E+03  0.10000000000E+03 0.  0.
          5    1    3    3  501    0 -0.15938229034E+02 -0.20430816652E+02  0.42502524468E+02  0.50000000000E+02  0.47000000000E+01 0. -1.
         -5    1    3    3    0  501  0.15938229034E+02  0.20430816652E+02 -0.42502524468E+02  0.50000000000E+02  0.47000000000E+01 0.  1.
</event>
<event>
 5    1  0.9091923E-001  0.1000000E+03  0.7546771E-02  0.1163815E+00
         11   -1    0    0    0    0  0.00000000000E+00  0.00000000000E+00  0.50000000000E+02  0.50000000000E+02  0.00000000000E+00 0. -1.
        -11   -1    0    0    0    0 -0.00000000000E+00 -0.00000000000E+00 -0.50000000000E+02  0.50000000000E+02  0.00000000000E+00 0.  1.
         23    2    1    2    0    0  0.00000000000E+00  0.00000000000E+00  0.00000000000E+00  0.10000000000E+03  0.10000000000E+03 0.  0.
          5    1    3    3  501    0 -0.29971878370E+02 -0.25793794744E+02  0.30237008114E+02  0.50000000000E+02  0.47000000000E+01 0. -1.
         -5    1    3    3    0  501  0.29971878370E+02  0.25793794744E+02 -0.30237008114E+02  0.50000000000E+02  0.47000000000E+01 0.  1.
</event>
<event>
 5    1  0.9091923E-001  0.1000000E+03  0.7546771E-02  0.1163815E+00
         11   -1    0    0    0    0  0.00000000000E+00  0.00000000000E+00  0.50000000000E+02  0.50000000000E+02  0.00000000000E+00 0. -1.
        -11   -1    0    0    0    0 -0.00000000000E+00 -0.00000000000E+00 -0.50000000000E+02  0.50000000000E+02  0.00000000000E+00 0.  1.
         23    2    1    2    0    0  0.00000000000E+00  0.00000000000E+00  0.00000000000E+00  0.10000000000E+03  0.10000000000E+03 0.  0.
          5    1    3    3  501    0 -0.12134383761E+02 -0.34320243362E+01  0.48154832984E+02  0.50000000000E+02  0.47000000000E+01 0. -1.
         -5    1    3    3    0  501  0.12134383761E+02  0.34320243362E+01 -0.48154832984E+02  0.50000000000E+02  0.47000000000E+01 0.  1.
</event>
<event>
 5    1  0.9091923E-001  0.1000000E+03  0.7546771E-02  0.1163815E+00
         11   -1    0    0    0    0  0.00000000000E+00  0.00000000000E+00  0.50000000000E+02  0.50000000000E+02  0.00000000000E+00 0. -1.
        -11   -1    0    0    0    0 -0.00000000000E+00 -0.00000000000E+00 -0.50000000000E+02  0.50000000000E+02  0.00000000000E+00 0.  1.
         23    2    1    2    0    0  0.00000000000E+00  0.00000000000E+00  0.00000000000E+00  0.10000000000E+03  0.10000000000E+03 0.  0.
          5    1    3    3  501    0 -0.13321280252E+02  0.45650422230E+02  0.14713682160E+02  0.50000000000E+02  0.47000000000E+01 0. -1.
         -5    1    3    3    0  501  0.13321280252E+02 -0.45650422230E+02 -0.14713682160E+02  0.50000000000E+02  0.47000000000E+01 0.  1.
</event>
<event>
 5    1  0.9091923E-001  0.1000000E+03  0.7546771E-02  0.1163815E+00
         11   -1    0    0    0    0  0.00000000000E+00  0.00000000000E+00  0.50000000000E+02  0.50000000000E+02  0.00000000000E+00 0.  1.
        -11   -1    0    0    0    0 -0.00000000000E+00 -0.00000000000E+00 -0.50000000000E+02  0.50000000000E+02  0.00000000000E+00 0. -1.
         23    2    1    2    0    0  0.00000000000E+00  0.00000000000E+00  0.00000000000E+00  0.10000000000E+03  0.10000000000E+03 0.  0.
          5    1    3    3  501    0  0.11546879097E+02 -0.37082965422E+02 -0.31135723191E+02  0.50000000000E+02  0.47000000000E+01 0. -1.
         -5    1    3    3    0  501 -0.11546879097E+02  0.37082965422E+02  0.31135723191E+02  0.50000000000E+02  0.47000000000E+01 0.  1.
</event>
<event>
 5    1  0.9091923E-001  0.1000000E+03  0.7546771E-02  0.1163815E+00
         11   -1    0    0    0    0  0.00000000000E+00  0.00000000000E+00  0.50000000000E+02  0.50000000000E+02  0.00000000000E+00 0. -1.
        -11   -1    0    0    0    0 -0.00000000000E+00 -0.00000000000E+00 -0.50000000000E+02  0.50000000000E+02  0.00000000000E+00 0.  1.
         23    2    1    2    0    0  0.00000000000E+00  0.00000000000E+00  0.00000000000E+00  0.10000000000E+03  0.10000000000E+03 0.  0.
          5    1    3    3  501    0 -0.15480512551E+02  0.92808155287E+01  0.46391057266E+02  0.50000000000E+02  0.47000000000E+01 0. -1.
         -5    1    3    3    0  501  0.15480512551E+02 -0.92808155287E+01 -0.46391057266E+02  0.50000000000E+02  0.47000000000E+01 0.  1.
</event>
<event>
 5    1  0.9091923E-001  0.1000000E+03  0.7546771E-02  0.1163815E+00
         11   -1    0    0    0    0  0.00000000000E+00  0.00000000000E+00  0.50000000000E+02  0.50000000000E+02  0.00000000000E+00 0. -1.
        -11   -1    0    0    0    0 -0.00000000000E+00 -0.00000000000E+00 -0.50000000000E+02  0.50000000000E+02  0.00000000000E+00 0.  1.
         23    2    1    2    0    0  0.00000000000E+00  0.00000000000E+00  0.00000000000E+00  0.10000000000E+03  0.10000000000E+03 0.  0.
          5    1    3    3  501    0  0.56675904626E+00 -0.52089222308E+01  0.49502079889E+02  0.50000000000E+02  0.47000000000E+01 0. -1.
         -5    1    3    3    0  501 -0.56675904626E+00  0.52089222308E+01 -0.49502079889E+02  0.50000000000E+02  0.47000000000E+01 0.  1.
</event>
<event>
 5    1  0.9091923E-001  0.1000000E+03  0.7546771E-02  0.1163815E+00
         11   -1    0    0    0    0  0.00000000000E+00  0.00000000000E+00  0.50000000000E+02  0.50000000000E+02  0.00000000000E+00 0. -1.
        -11   -1    0    0    0    0 -0.00000000000E+00 -0.00000000000E+00 -0.50000000000E+02  0.50000000000E+02  0.00000000000E+00 0.  1.
         23    2    1    2    0    0  0.00000000000E+00  0.00000000000E+00  0.00000000000E+00  0.10000000000E+03  0.10000000000E+03 0.  0.
          5    1    3    3  501    0 -0.10159393633E+01 -0.35044191693E+02  0.35338116755E+02  0.50000000000E+02  0.47000000000E+01 0. -1.
         -5    1    3    3    0  501  0.10159393633E+01  0.35044191693E+02 -0.35338116755E+02  0.50000000000E+02  0.47000000000E+01 0.  1.
</event>
<event>
 5    1  0.9091923E-001  0.1000000E+03  0.7546771E-02  0.1163815E+00
         11   -1    0    0    0    0  0.00000000000E+00  0.00000000000E+00  0.50000000000E+02  0.50000000000E+02  0.00000000000E+00 0. -1.
        -11   -1    0    0    0    0 -0.00000000000E+00 -0.00000000000E+00 -0.50000000000E+02  0.50000000000E+02  0.00000000000E+00 0.  1.
         23    2    1    2    0    0  0.00000000000E+00  0.00000000000E+00  0.00000000000E+00  0.10000000000E+03  0.10000000000E+03 0.  0.
          5    1    3    3  501    0 -0.41300288992E+02  0.26017394992E+02  0.97617256149E+01  0.50000000000E+02  0.47000000000E+01 0. -1.
         -5    1    3    3    0  501  0.41300288992E+02 -0.26017394992E+02 -0.97617256149E+01  0.50000000000E+02  0.47000000000E+01 0.  1.
</event>
<event>
 5    1  0.9091923E-001  0.1000000E+03  0.7546771E-02  0.1163815E+00
         11   -1    0    0    0    0  0.00000000000E+00  0.00000000000E+00  0.50000000000E+02  0.50000000000E+02  0.00000000000E+00 0.  1.
        -11   -1    0    0    0    0 -0.00000000000E+00 -0.00000000000E+00 -0.50000000000E+02  0.50000000000E+02  0.00000000000E+00 0. -1.
         23    2    1    2    0    0  0.00000000000E+00  0.00000000000E+00  0.00000000000E+00  0.10000000000E+03  0.10000000000E+03 0.  0.
          5    1    3    3  501    0 -0.27978218172E+02 -0.40270929101E+02  0.85663047614E+01  0.50000000000E+02  0.47000000000E+01 0.  1.
         -5    1    3    3    0  501  0.27978218172E+02  0.40270929101E+02 -0.85663047614E+01  0.50000000000E+02  0.47000000000E+01 0. -1.
</event>
<event>
 5    1  0.9091923E-001  0.1000000E+03  0.7546771E-02  0.1163815E+00
         11   -1    0    0    0    0  0.00000000000E+00  0.00000000000E+00  0.50000000000E+02  0.50000000000E+02  0.00000000000E+00 0. -1.
        -11   -1    0    0    0    0 -0.00000000000E+00 -0.00000000000E+00 -0.50000000000E+02  0.50000000000E+02  0.00000000000E+00 0.  1.
         23    2    1    2    0    0  0.00000000000E+00  0.00000000000E+00  0.00000000000E+00  0.10000000000E+03  0.10000000000E+03 0.  0.
          5    1    3    3  501    0  0.56258772409E+01  0.28459125283E+02  0.40451671083E+02  0.50000000000E+02  0.47000000000E+01 0. -1.
         -5    1    3    3    0  501 -0.56258772409E+01 -0.28459125283E+02 -0.40451671083E+02  0.50000000000E+02  0.47000000000E+01 0.  1.
</event>
<event>
 5    1  0.9091923E-001  0.1000000E+03  0.7546771E-02  0.1163815E+00
         11   -1    0    0    0    0  0.00000000000E+00  0.00000000000E+00  0.50000000000E+02  0.50000000000E+02  0.00000000000E+00 0.  1.
        -11   -1    0    0    0    0 -0.00000000000E+00 -0.00000000000E+00 -0.50000000000E+02  0.50000000000E+02  0.00000000000E+00 0. -1.
         23    2    1    2    0    0  0.00000000000E+00  0.00000000000E+00  0.00000000000E+00  0.10000000000E+03  0.10000000000E+03 0.  0.
          5    1    3    3  501    0  0.21076224482E+02 -0.11190289833E+02 -0.43686155416E+02  0.50000000000E+02  0.47000000000E+01 0. -1.
         -5    1    3    3    0  501 -0.21076224482E+02  0.11190289833E+02  0.43686155416E+02  0.50000000000E+02  0.47000000000E+01 0.  1.
</event>
<event>
 5    1  0.9091923E-001  0.1000000E+03  0.7546771E-02  0.1163815E+00
         11   -1    0    0    0    0  0.00000000000E+00  0.00000000000E+00  0.50000000000E+02  0.50000000000E+02  0.00000000000E+00 0.  1.
        -11   -1    0    0    0    0 -0.00000000000E+00 -0.00000000000E+00 -0.50000000000E+02  0.50000000000E+02  0.00000000000E+00 0. -1.
         23    2    1    2    0    0  0.00000000000E+00  0.00000000000E+00  0.00000000000E+00  0.10000000000E+03  0.10000000000E+03 0.  0.
          5    1    3    3  501    0  0.20041646743E+02 -0.31260512358E+02 -0.33151512227E+02  0.50000000000E+02  0.47000000000E+01 0. -1.
         -5    1    3    3    0  501 -0.20041646743E+02  0.31260512358E+02  0.33151512227E+02  0.50000000000E+02  0.47000000000E+01 0.  1.
</event>
<event>
 5    1  0.9091923E-001  0.1000000E+03  0.7546771E-02  0.1163815E+00
         11   -1    0    0    0    0  0.00000000000E+00  0.00000000000E+00  0.50000000000E+02  0.50000000000E+02  0.00000000000E+00 0.  1.
        -11   -1    0    0    0    0 -0.00000000000E+00 -0.00000000000E+00 -0.50000000000E+02  0.50000000000E+02  0.00000000000E+00 0. -1.
         23    2    1    2    0    0  0.00000000000E+00  0.00000000000E+00  0.00000000000E+00  0.10000000000E+03  0.10000000000E+03 0.  0.
          5    1    3    3  501    0  0.46686557234E+02 -0.16167108653E+02 -0.60745346683E+01  0.50000000000E+02  0.47000000000E+01 0. -1.
         -5    1    3    3    0  501 -0.46686557234E+02  0.16167108653E+02  0.60745346683E+01  0.50000000000E+02  0.47000000000E+01 0.  1.
</event>
<event>
 5    1  0.9091923E-001  0.1000000E+03  0.7546771E-02  0.1163815E+00
         11   -1    0    0    0    0  0.00000000000E+00  0.00000000000E+00  0.50000000000E+02  0.50000000000E+02  0.00000000000E+00 0. -1.
        -11   -1    0    0    0    0 -0.00000000000E+00 -0.00000000000E+00 -0.50000000000E+02  0.50000000000E+02  0.00000000000E+00 0.  1.
         23    2    1    2    0    0  0.00000000000E+00  0.00000000000E+00  0.00000000000E+00  0.10000000000E+03  0.10000000000E+03 0.  0.
          5    1    3    3  501    0 -0.18674650501E+02 -0.45528745541E+02 -0.75033831150E+01  0.50000000000E+02  0.47000000000E+01 0. -1.
         -5    1    3    3    0  501  0.18674650501E+02  0.45528745541E+02  0.75033831150E+01  0.50000000000E+02  0.47000000000E+01 0.  1.
</event>
<event>
 5    1  0.9091923E-001  0.1000000E+03  0.7546771E-02  0.1163815E+00
         11   -1    0    0    0    0  0.00000000000E+00  0.00000000000E+00  0.50000000000E+02  0.50000000000E+02  0.00000000000E+00 0. -1.
        -11   -1    0    0    0    0 -0.00000000000E+00 -0.00000000000E+00 -0.50000000000E+02  0.50000000000E+02  0.00000000000E+00 0.  1.
         23    2    1    2    0    0  0.00000000000E+00  0.00000000000E+00  0.00000000000E+00  0.10000000000E+03  0.10000000000E+03 0.  0.
          5    1    3    3  501    0  0.16989068198E+02  0.46789363173E+02 -0.19249843082E+00  0.50000000000E+02  0.47000000000E+01 0. -1.
         -5    1    3    3    0  501 -0.16989068198E+02 -0.46789363173E+02  0.19249843082E+00  0.50000000000E+02  0.47000000000E+01 0.  1.
</event>
<event>
 5    1  0.9091923E-001  0.1000000E+03  0.7546771E-02  0.1163815E+00
         11   -1    0    0    0    0  0.00000000000E+00  0.00000000000E+00  0.50000000000E+02  0.50000000000E+02  0.00000000000E+00 0.  1.
        -11   -1    0    0    0    0 -0.00000000000E+00 -0.00000000000E+00 -0.50000000000E+02  0.50000000000E+02  0.00000000000E+00 0. -1.
         23    2    1    2    0    0  0.00000000000E+00  0.00000000000E+00  0.00000000000E+00  0.10000000000E+03  0.10000000000E+03 0.  0.
          5    1    3    3  501    0 -0.33966109613E+02 -0.55050758782E+01 -0.35970926279E+02  0.50000000000E+02  0.47000000000E+01 0. -1.
         -5    1    3    3    0  501  0.33966109613E+02  0.55050758782E+01  0.35970926279E+02  0.50000000000E+02  0.47000000000E+01 0.  1.
</event>
<event>
 5    1  0.9091923E-001  0.1000000E+03  0.7546771E-02  0.1163815E+00
         11   -1    0    0    0    0  0.00000000000E+00  0.00000000000E+00  0.50000000000E+02  0.50000000000E+02  0.00000000000E+00 0. -1.
        -11   -1    0    0    0    0 -0.00000000000E+00 -0.00000000000E+00 -0.50000000000E+02  0.50000000000E+02  0.00000000000E+00 0.  1.
         23    2    1    2    0    0  0.00000000000E+00  0.00000000000E+00  0.00000000000E+00  0.10000000000E+03  0.10000000000E+03 0.  0.
          5    1    3    3  501    0  0.18017619511E+02 -0.27942551148E+02  0.37047121649E+02  0.50000000000E+02  0.47000000000E+01 0. -1.
         -5    1    3    3    0  501 -0.18017619511E+02  0.27942551148E+02 -0.37047121649E+02  0.50000000000E+02  0.47000000000E+01 0.  1.
</event>
<event>
 5    1  0.9091923E-001  0.1000000E+03  0.7546771E-02  0.1163815E+00
         11   -1    0    0    0    0  0.00000000000E+00  0.00000000000E+00  0.50000000000E+02  0.50000000000E+02  0.00000000000E+00 0.  1.
        -11   -1    0    0    0    0 -0.00000000000E+00 -0.00000000000E+00 -0.50000000000E+02  0.50000000000E+02  0.00000000000E+00 0. -1.
         23    2    1    2    0    0  0.00000000000E+00  0.00000000000E+00  0.00000000000E+00  0.10000000000E+03  0.10000000000E+03 0.  0.
          5    1    3    3  501    0 -0.40050566563E+02 -0.23006853584E+02  0.18561972045E+02  0.50000000000E+02  0.47000000000E+01 0. -1.
         -5    1    3    3    0  501  0.40050566563E+02  0.23006853584E+02 -0.18561972045E+02  0.50000000000E+02  0.47000000000E+01 0.  1.
</event>
<event>
 5    1  0.9091923E-001  0.1000000E+03  0.7546771E-02  0.1163815E+00
         11   -1    0    0    0    0  0.00000000000E+00  0.00000000000E+00  0.50000000000E+02  0.50000000000E+02  0.00000000000E+00 0.  1.
        -11   -1    0    0    0    0 -0.00000000000E+00 -0.00000000000E+00 -0.50000000000E+02  0.50000000000E+02  0.00000000000E+00 0. -1.
         23    2    1    2    0    0  0.00000000000E+00  0.00000000000E+00  0.00000000000E+00  0.10000000000E+03  0.10000000000E+03 0.  0.
          5    1    3    3  501    0  0.34526763358E+02 -0.25033504670E+02 -0.25673649058E+02  0.50000000000E+02  0.47000000000E+01 0. -1.
         -5    1    3    3    0  501 -0.34526763358E+02  0.25033504670E+02  0.25673649058E+02  0.50000000000E+02  0.47000000000E+01 0.  1.
</event>
<event>
 5    1  0.9091923E-001  0.1000000E+03  0.7546771E-02  0.1163815E+00
         11   -1    0    0    0    0  0.00000000000E+00  0.00000000000E+00  0.50000000000E+02  0.50000000000E+02  0.00000000000E+00 0. -1.
        -11   -1    0    0    0    0 -0.00000000000E+00 -0.00000000000E+00 -0.50000000000E+02  0.50000000000E+02  0.00000000000E+00 0.  1.
         23    2    1    2    0    0  0.00000000000E+00  0.00000000000E+00  0.00000000000E+00  0.10000000000E+03  0.10000000000E+03 0.  0.
          5    1    3    3  501    0 -0.34577103271E+02 -0.96053311337E+01  0.34497413573E+02  0.50000000000E+02  0.47000000000E+01 0. -1.
         -5    1    3    3    0  501  0.34577103271E+02  0.96053311337E+01 -0.34497413573E+02  0.50000000000E+02  0.47000000000E+01 0.  1.
</event>
<event>
 5    1  0.9091923E-001  0.1000000E+03  0.7546771E-02  0.1163815E+00
         11   -1    0    0    0    0  0.00000000000E+00  0.00000000000E+00  0.50000000000E+02  0.50000000000E+02  0.00000000000E+00 0.  1.
        -11   -1    0    0    0    0 -0.00000000000E+00 -0.00000000000E+00 -0.50000000000E+02  0.50000000000E+02  0.00000000000E+00 0. -1.
         23    2    1    2    0    0  0.00000000000E+00  0.00000000000E+00  0.00000000000E+00  0.10000000000E+03  0.10000000000E+03 0.  0.
          5    1    3    3  501    0 -0.69002660403E+01 -0.47759608248E+02 -0.12219498703E+02  0.50000000000E+02  0.47000000000E+01 0. -1.
         -5    1    3    3    0  501  0.69002660403E+01  0.47759608248E+02  0.12219498703E+02  0.50000000000E+02  0.47000000000E+01 0.  1.
</event>
<event>
 5    1  0.9091923E-001  0.1000000E+03  0.7546771E-02  0.1163815E+00
         11   -1    0    0    0    0  0.00000000000E+00  0.00000000000E+00  0.50000000000E+02  0.50000000000E+02  0.00000000000E+00 0. -1.
        -11   -1    0    0    0    0 -0.00000000000E+00 -0.00000000000E+00 -0.50000000000E+02  0.50000000000E+02  0.00000000000E+00 0.  1.
         23    2    1    2    0    0  0.00000000000E+00  0.00000000000E+00  0.00000000000E+00  0.10000000000E+03  0.10000000000E+03 0.  0.
          5    1    3    3  501    0 -0.12136622334E+02 -0.30006272404E+02 -0.37818461295E+02  0.50000000000E+02  0.47000000000E+01 0.  1.
         -5    1    3    3    0  501  0.12136622334E+02  0.30006272404E+02  0.37818461295E+02  0.50000000000E+02  0.47000000000E+01 0. -1.
</event>
<event>
 5    1  0.9091923E-001  0.1000000E+03  0.7546771E-02  0.1163815E+00
         11   -1    0    0    0    0  0.00000000000E+00  0.00000000000E+00  0.50000000000E+02  0.50000000000E+02  0.00000000000E+00 0. -1.
        -11   -1    0    0    0    0 -0.00000000000E+00 -0.00000000000E+00 -0.50000000000E+02  0.50000000000E+02  0.00000000000E+00 0.  1.
         23    2    1    2    0    0  0.00000000000E+00  0.00000000000E+00  0.00000000000E+00  0.10000000000E+03  0.10000000000E+03 0.  0.
          5    1    3    3  501    0 -0.44058891076E+02  0.20546308878E+02  0.10703892219E+02  0.50000000000E+02  0.47000000000E+01 0. -1.
         -5    1    3    3    0  501  0.44058891076E+02 -0.20546308878E+02 -0.10703892219E+02  0.50000000000E+02  0.47000000000E+01 0.  1.
</event>
<event>
 5    1  0.9091923E-001  0.1000000E+03  0.7546771E-02  0.1163815E+00
         11   -1    0    0    0    0  0.00000000000E+00  0.00000000000E+00  0.50000000000E+02  0.50000000000E+02  0.00000000000E+00 0.  1.
        -11   -1    0    0    0    0 -0.00000000000E+00 -0.00000000000E+00 -0.50000000000E+02  0.50000000000E+02  0.00000000000E+00 0. -1.
         23    2    1    2    0    0  0.00000000000E+00  0.00000000000E+00  0.00000000000E+00  0.10000000000E+03  0.10000000000E+03 0.  0.
          5    1    3    3  501    0 -0.15684367371E+02 -0.16031793490E+02 -0.44439759424E+02  0.50000000000E+02  0.47000000000E+01 0. -1.
         -5    1    3    3    0  501  0.15684367371E+02  0.16031793490E+02  0.44439759424E+02  0.50000000000E+02  0.47000000000E+01 0.  1.
</event>
<event>
 5    1  0.9091923E-001  0.1000000E+03  0.7546771E-02  0.1163815E+00
         11   -1    0    0    0    0  0.00000000000E+00  0.00000000000E+00  0.50000000000E+02  0.50000000000E+02  0.00000000000E+00 0. -1.
        -11   -1    0    0    0    0 -0.00000000000E+00 -0.00000000000E+00 -0.50000000000E+02  0.50000000000E+02  0.00000000000E+00 0.  1.
         23    2    1    2    0    0  0.00000000000E+00  0.00000000000E+00  0.00000000000E+00  0.10000000000E+03  0.10000000000E+03 0.  0.
          5    1    3    3  501    0  0.47217007482E+01  0.45122970977E+02  0.20482505517E+02  0.50000000000E+02  0.47000000000E+01 0. -1.
         -5    1    3    3    0  501 -0.47217007482E+01 -0.45122970977E+02 -0.20482505517E+02  0.50000000000E+02  0.47000000000E+01 0.  1.
</event>
<event>
 5    1  0.9091923E-001  0.1000000E+03  0.7546771E-02  0.1163815E+00
         11   -1    0    0    0    0  0.00000000000E+00  0.00000000000E+00  0.50000000000E+02  0.50000000000E+02  0.00000000000E+00 0.  1.
        -11   -1    0    0    0    0 -0.00000000000E+00 -0.00000000000E+00 -0.50000000000E+02  0.50000000000E+02  0.00000000000E+00 0. -1.
         23    2    1    2    0    0  0.00000000000E+00  0.00000000000E+00  0.00000000000E+00  0.10000000000E+03  0.10000000000E+03 0.  0.
          5    1    3    3  501    0 -0.34533793467E+02  0.33441805646E+02 -0.12921793371E+02  0.50000000000E+02  0.47000000000E+01 0. -1.
         -5    1    3    3    0  501  0.34533793467E+02 -0.33441805646E+02  0.12921793371E+02  0.50000000000E+02  0.47000000000E+01 0.  1.
</event>
<event>
 5    1  0.9091923E-001  0.1000000E+03  0.7546771E-02  0.1163815E+00
         11   -1    0    0    0    0  0.00000000000E+00  0.00000000000E+00  0.50000000000E+02  0.50000000000E+02  0.00000000000E+00 0. -1.
        -11   -1    0    0    0    0 -0.00000000000E+00 -0.00000000000E+00 -0.50000000000E+02  0.50000000000E+02  0.00000000000E+00 0.  1.
         23    2    1    2    0    0  0.00000000000E+00  0.00000000000E+00  0.00000000000E+00  0.10000000000E+03  0.10000000000E+03 0.  0.
          5    1    3    3  501    0  0.32465567857E+02 -0.37343849848E+02  0.54160670422E+01  0.50000000000E+02  0.47000000000E+01 0. -1.
         -5    1    3    3    0  501 -0.32465567857E+02  0.37343849848E+02 -0.54160670422E+01  0.50000000000E+02  0.47000000000E+01 0.  1.
</event>
<event>
 5    1  0.9091923E-001  0.1000000E+03  0.7546771E-02  0.1163815E+00
         11   -1    0    0    0    0  0.00000000000E+00  0.00000000000E+00  0.50000000000E+02  0.50000000000E+02  0.00000000000E+00 0. -1.
        -11   -1    0    0    0    0 -0.00000000000E+00 -0.00000000000E+00 -0.50000000000E+02  0.50000000000E+02  0.00000000000E+00 0.  1.
         23    2    1    2    0    0  0.00000000000E+00  0.00000000000E+00  0.00000000000E+00  0.10000000000E+03  0.10000000000E+03 0.  0.
          5    1    3    3  501    0 -0.32095858811E+02  0.28680179596E+02  0.25004262548E+02  0.50000000000E+02  0.47000000000E+01 0. -1.
         -5    1    3    3    0  501  0.32095858811E+02 -0.28680179596E+02 -0.25004262548E+02  0.50000000000E+02  0.47000000000E+01 0.  1.
</event>
<event>
 5    1  0.9091923E-001  0.1000000E+03  0.7546771E-02  0.1163815E+00
         11   -1    0    0    0    0  0.00000000000E+00  0.00000000000E+00  0.50000000000E+02  0.50000000000E+02  0.00000000000E+00 0.  1.
        -11   -1    0    0    0    0 -0.00000000000E+00 -0.00000000000E+00 -0.50000000000E+02  0.50000000000E+02  0.00000000000E+00 0. -1.
         23    2    1    2    0    0  0.00000000000E+00  0.00000000000E+00  0.00000000000E+00  0.10000000000E+03  0.10000000000E+03 0.  0.
          5    1    3    3  501    0  0.14504530135E+02 -0.80512437914E+01 -0.46932995632E+02  0.50000000000E+02  0.47000000000E+01 0. -1.
         -5    1    3    3    0  501 -0.14504530135E+02  0.80512437914E+01  0.46932995632E+02  0.50000000000E+02  0.47000000000E+01 0.  1.
</event>
<event>
 5    1  0.9091923E-001  0.1000000E+03  0.7546771E-02  0.1163815E+00
         11   -1    0    0    0    0  0.00000000000E+00  0.00000000000E+00  0.50000000000E+02  0.50000000000E+02  0.00000000000E+00 0. -1.
        -11   -1    0    0    0    0 -0.00000000000E+00 -0.00000000000E+00 -0.50000000000E+02  0.50000000000E+02  0.00000000000E+00 0.  1.
         23    2    1    2    0    0  0.00000000000E+00  0.00000000000E+00  0.00000000000E+00  0.10000000000E+03  0.10000000000E+03 0.  0.
          5    1    3    3  501    0  0.21242737993E+02  0.21366363766E+02  0.39624923747E+02  0.50000000000E+02  0.47000000000E+01 0. -1.
         -5    1    3    3    0  501 -0.21242737993E+02 -0.21366363766E+02 -0.39624923747E+02  0.50000000000E+02  0.47000000000E+01 0.  1.
</event>
<event>
 5    1  0.9091923E-001  0.1000000E+03  0.7546771E-02  0.1163815E+00
         11   -1    0    0    0    0  0.00000000000E+00  0.00000000000E+00  0.50000000000E+02  0.50000000000E+02  0.00000000000E+00 0.  1.
        -11   -1    0    0    0    0 -0.00000000000E+00 -0.00000000000E+00 -0.50000000000E+02  0.50000000000E+02  0.00000000000E+00 0. -1.
         23    2    1    2    0    0  0.00000000000E+00  0.00000000000E+00  0.00000000000E+00  0.10000000000E+03  0.10000000000E+03 0.  0.
          5    1    3    3  501    0  0.28724786438E+01  0.39577487731E+02 -0.30054639098E+02  0.50000000000E+02  0.47000000000E+01 0. -1.
         -5    1    3    3    0  501 -0.28724786438E+01 -0.39577487731E+02  0.30054639098E+02  0.50000000000E+02  0.47000000000E+01 0.  1.
</event>
<event>
 5    1  0.9091923E-001  0.1000000E+03  0.7546771E-02  0.1163815E+00
         11   -1    0    0    0    0  0.00000000000E+00  0.00000000000E+00  0.50000000000E+02  0.50000000000E+02  0.00000000000E+00 0. -1.
        -11   -1    0    0    0    0 -0.00000000000E+00 -0.00000000000E+00 -0.50000000000E+02  0.50000000000E+02  0.00000000000E+00 0.  1.
         23    2    1    2    0    0  0.00000000000E+00  0.00000000000E+00  0.00000000000E+00  0.10000000000E+03  0.10000000000E+03 0.  0.
          5    1    3    3  501    0 -0.24329818343E+02 -0.37019236258E+02  0.22705639967E+02  0.50000000000E+02  0.47000000000E+01 0. -1.
         -5    1    3    3    0  501  0.24329818343E+02  0.37019236258E+02 -0.22705639967E+02  0.50000000000E+02  0.47000000000E+01 0.  1.
</event>
<event>
 5    1  0.9091923E-001  0.1000000E+03  0.7546771E-02  0.1163815E+00
         11   -1    0    0    0    0  0.00000000000E+00  0.00000000000E+00  0.50000000000E+02  0.50000000000E+02  0.00000000000E+00 0. -1.
        -11   -1    0    0    0    0 -0.00000000000E+00 -0.00000000000E+00 -0.50000000000E+02  0.50000000000E+02  0.00000000000E+00 0.  1.
         23    2    1    2    0    0  0.00000000000E+00  0.00000000000E+00  0.00000000000E+00  0.10000000000E+03  0.10000000000E+03 0.  0.
          5    1    3    3  501    0 -0.97931215033E+01  0.20224390624E+02  0.44418225934E+02  0.50000000000E+02  0.47000000000E+01 0. -1.
         -5    1    3    3    0  501  0.97931215033E+01 -0.20224390624E+02 -0.44418225934E+02  0.50000000000E+02  0.47000000000E+01 0.  1.
</event>
<event>
 5    1  0.9091923E-001  0.1000000E+03  0.7546771E-02  0.1163815E+00
         11   -1    0    0    0    0  0.00000000000E+00  0.00000000000E+00  0.50000000000E+02  0.50000000000E+02  0.00000000000E+00 0. -1.
        -11   -1    0    0    0    0 -0.00000000000E+00 -0.00000000000E+00 -0.50000000000E+02  0.50000000000E+02  0.00000000000E+00 0.  1.
         23    2    1    2    0    0  0.00000000000E+00  0.00000000000E+00  0.00000000000E+00  0.10000000000E+03  0.10000000000E+03 0.  0.
          5    1    3    3  501    0  0.57748307503E-02  0.45296051492E+02  0.20644071447E+02  0.50000000000E+02  0.47000000000E+01 0. -1.
         -5    1    3    3    0  501 -0.57748307503E-02 -0.45296051492E+02 -0.20644071447E+02  0.50000000000E+02  0.47000000000E+01 0.  1.
</event>
<event>
 5    1  0.9091923E-001  0.1000000E+03  0.7546771E-02  0.1163815E+00
         11   -1    0    0    0    0  0.00000000000E+00  0.00000000000E+00  0.50000000000E+02  0.50000000000E+02  0.00000000000E+00 0. -1.
        -11   -1    0    0    0    0 -0.00000000000E+00 -0.00000000000E+00 -0.50000000000E+02  0.50000000000E+02  0.00000000000E+00 0.  1.
         23    2    1    2    0    0  0.00000000000E+00  0.00000000000E+00  0.00000000000E+00  0.10000000000E+03  0.10000000000E+03 0.  0.
          5    1    3    3  501    0 -0.48387896352E+02 -0.75860245738E+01 -0.88867158031E+01  0.50000000000E+02  0.47000000000E+01 0. -1.
         -5    1    3    3    0  501  0.48387896352E+02  0.75860245738E+01  0.88867158031E+01  0.50000000000E+02  0.47000000000E+01 0.  1.
</event>
<event>
 5    1  0.9091923E-001  0.1000000E+03  0.7546771E-02  0.1163815E+00
         11   -1    0    0    0    0  0.00000000000E+00  0.00000000000E+00  0.50000000000E+02  0.50000000000E+02  0.00000000000E+00 0.  1.
        -11   -1    0    0    0    0 -0.00000000000E+00 -0.00000000000E+00 -0.50000000000E+02  0.50000000000E+02  0.00000000000E+00 0. -1.
         23    2    1    2    0    0  0.00000000000E+00  0.00000000000E+00  0.00000000000E+00  0.10000000000E+03  0.10000000000E+03 0.  0.
          5    1    3    3  501    0 -0.64762203390E+01 -0.29879537957E+01 -0.49265004844E+02  0.50000000000E+02  0.47000000000E+01 0. -1.
         -5    1    3    3    0  501  0.64762203390E+01  0.29879537957E+01  0.49265004844E+02  0.50000000000E+02  0.47000000000E+01 0.  1.
</event>
<event>
 5    1  0.9091923E-001  0.1000000E+03  0.7546771E-02  0.1163815E+00
         11   -1    0    0    0    0  0.00000000000E+00  0.00000000000E+00  0.50000000000E+02  0.50000000000E+02  0.00000000000E+00 0. -1.
        -11   -1    0    0    0    0 -0.00000000000E+00 -0.00000000000E+00 -0.50000000000E+02  0.50000000000E+02  0.00000000000E+00 0.  1.
         23    2    1    2    0    0  0.00000000000E+00  0.00000000000E+00  0.00000000000E+00  0.10000000000E+03  0.10000000000E+03 0.  0.
          5    1    3    3  501    0  0.17515367013E+02 -0.43636307998E+02  0.16339967647E+02  0.50000000000E+02  0.47000000000E+01 0. -1.
         -5    1    3    3    0  501 -0.17515367013E+02  0.43636307998E+02 -0.16339967647E+02  0.50000000000E+02  0.47000000000E+01 0.  1.
</event>
<event>
 5    1  0.9091923E-001  0.1000000E+03  0.7546771E-02  0.1163815E+00
         11   -1    0    0    0    0  0.00000000000E+00  0.00000000000E+00  0.50000000000E+02  0.50000000000E+02  0.00000000000E+00 0.  1.
        -11   -1    0    0    0    0 -0.00000000000E+00 -0.00000000000E+00 -0.50000000000E+02  0.50000000000E+02  0.00000000000E+00 0. -1.
         23    2    1    2    0    0  0.00000000000E+00  0.00000000000E+00  0.00000000000E+00  0.10000000000E+03  0.10000000000E+03 0.  0.
          5    1    3    3  501    0  0.10935148918E+02  0.46580429450E+02 -0.13733029906E+02  0.50000000000E+02  0.47000000000E+01 0. -1.
         -5    1    3    3    0  501 -0.10935148918E+02 -0.46580429450E+02  0.13733029906E+02  0.50000000000E+02  0.47000000000E+01 0.  1.
</event>
<event>
 5    1  0.9091923E-001  0.1000000E+03  0.7546771E-02  0.1163815E+00
         11   -1    0    0    0    0  0.00000000000E+00  0.00000000000E+00  0.50000000000E+02  0.50000000000E+02  0.00000000000E+00 0.  1.
        -11   -1    0    0    0    0 -0.00000000000E+00 -0.00000000000E+00 -0.50000000000E+02  0.50000000000E+02  0.00000000000E+00 0. -1.
         23    2    1    2    0    0  0.00000000000E+00  0.00000000000E+00  0.00000000000E+00  0.10000000000E+03  0.10000000000E+03 0.  0.
          5    1    3    3  501    0  0.92215586048E+01  0.41534458020E+02 -0.25841084612E+02  0.50000000000E+02  0.47000000000E+01 0. -1.
         -5    1    3    3    0  501 -0.92215586048E+01 -0.41534458020E+02  0.25841084612E+02  0.50000000000E+02  0.47000000000E+01 0.  1.
</event>
<event>
 5    1  0.9091923E-001  0.1000000E+03  0.7546771E-02  0.1163815E+00
         11   -1    0    0    0    0  0.00000000000E+00  0.00000000000E+00  0.50000000000E+02  0.50000000000E+02  0.00000000000E+00 0. -1.
        -11   -1    0    0    0    0 -0.00000000000E+00 -0.00000000000E+00 -0.50000000000E+02  0.50000000000E+02  0.00000000000E+00 0.  1.
         23    2    1    2    0    0  0.00000000000E+00  0.00000000000E+00  0.00000000000E+00  0.10000000000E+03  0.10000000000E+03 0.  0.
          5    1    3    3  501    0 -0.30256547583E+02 -0.26432189848E+02  0.29390315891E+02  0.50000000000E+02  0.47000000000E+01 0. -1.
         -5    1    3    3    0  501  0.30256547583E+02  0.26432189848E+02 -0.29390315891E+02  0.50000000000E+02  0.47000000000E+01 0.  1.
</event>
<event>
 5    1  0.9091923E-001  0.1000000E+03  0.7546771E-02  0.1163815E+00
         11   -1    0    0    0    0  0.00000000000E+00  0.00000000000E+00  0.50000000000E+02  0.50000000000E+02  0.00000000000E+00 0. -1.
        -11   -1    0    0    0    0 -0.00000000000E+00 -0.00000000000E+00 -0.50000000000E+02  0.50000000000E+02  0.00000000000E+00 0.  1.
         23    2    1    2    0    0  0.00000000000E+00  0.00000000000E+00  0.00000000000E+00  0.10000000000E+03  0.10000000000E+03 0.  0.
          5    1    3    3  501    0  0.33466651489E+02  0.15712857184E+02  0.33331656982E+02  0.50000000000E+02  0.47000000000E+01 0. -1.
         -5    1    3    3    0  501 -0.33466651489E+02 -0.15712857184E+02 -0.33331656982E+02  0.50000000000E+02  0.47000000000E+01 0.  1.
</event>
<event>
 5    1  0.9091923E-001  0.1000000E+03  0.7546771E-02  0.1163815E+00
         11   -1    0    0    0    0  0.00000000000E+00  0.00000000000E+00  0.50000000000E+02  0.50000000000E+02  0.00000000000E+00 0. -1.
        -11   -1    0    0    0    0 -0.00000000000E+00 -0.00000000000E+00 -0.50000000000E+02  0.50000000000E+02  0.00000000000E+00 0.  1.
         23    2    1    2    0    0  0.00000000000E+00  0.00000000000E+00  0.00000000000E+00  0.10000000000E+03  0.10000000000E+03 0.  0.
          5    1    3    3  501    0  0.49227311249E+02  0.50563536963E+01  0.53865679693E+01  0.50000000000E+02  0.47000000000E+01 0. -1.
         -5    1    3    3    0  501 -0.49227311249E+02 -0.50563536963E+01 -0.53865679693E+01  0.50000000000E+02  0.47000000000E+01 0.  1.
</event>
<event>
 5    1  0.9091923E-001  0.1000000E+03  0.7546771E-02  0.1163815E+00
         11   -1    0    0    0    0  0.00000000000E+00  0.00000000000E+00  0.50000000000E+02  0.50000000000E+02  0.00000000000E+00 0.  1.
        -11   -1    0    0    0    0 -0.00000000000E+00 -0.00000000000E+00 -0.50000000000E+02  0.50000000000E+02  0.00000000000E+00 0. -1.
         23    2    1    2    0    0  0.00000000000E+00  0.00000000000E+00  0.00000000000E+00  0.10000000000E+03  0.10000000000E+03 0.  0.
          5    1    3    3  501    0  0.47052222524E+02 -0.15580388930E+02 -0.46097544814E+01  0.50000000000E+02  0.47000000000E+01 0. -1.
         -5    1    3    3    0  501 -0.47052222524E+02  0.15580388930E+02  0.46097544814E+01  0.50000000000E+02  0.47000000000E+01 0.  1.
</event>
<event>
 5    1  0.9091923E-001  0.1000000E+03  0.7546771E-02  0.1163815E+00
         11   -1    0    0    0    0  0.00000000000E+00  0.00000000000E+00  0.50000000000E+02  0.50000000000E+02  0.00000000000E+00 0. -1.
        -11   -1    0    0    0    0 -0.00000000000E+00 -0.00000000000E+00 -0.50000000000E+02  0.50000000000E+02  0.00000000000E+00 0.  1.
         23    2    1    2    0    0  0.00000000000E+00  0.00000000000E+00  0.00000000000E+00  0.10000000000E+03  0.10000000000E+03 0.  0.
          5    1    3    3  501    0  0.31021341524E+02 -0.24367298918E+02  0.30361507102E+02  0.50000000000E+02  0.47000000000E+01 0. -1.
         -5    1    3    3    0  501 -0.31021341524E+02  0.24367298918E+02 -0.30361507102E+02  0.50000000000E+02  0.47000000000E+01 0.  1.
</event>
<event>
 5    1  0.9091923E-001  0.1000000E+03  0.7546771E-02  0.1163815E+00
         11   -1    0    0    0    0  0.00000000000E+00  0.00000000000E+00  0.50000000000E+02  0.50000000000E+02  0.00000000000E+00 0.  1.
        -11   -1    0    0    0    0 -0.00000000000E+00 -0.00000000000E+00 -0.50000000000E+02  0.50000000000E+02  0.00000000000E+00 0. -1.
         23    2    1    2    0    0  0.00000000000E+00  0.00000000000E+00  0.00000000000E+00  0.10000000000E+03  0.10000000000E+03 0.  0.
          5    1    3    3  501    0 -0.18301731347E+02 -0.34271616585E+02 -0.31119333642E+02  0.50000000000E+02  0.47000000000E+01 0. -1.
         -5    1    3    3    0  501  0.18301731347E+02  0.34271616585E+02  0.31119333642E+02  0.50000000000E+02  0.47000000000E+01 0.  1.
</event>
<event>
 5    1  0.9091923E-001  0.1000000E+03  0.7546771E-02  0.1163815E+00
         11   -1    0    0    0    0  0.00000000000E+00  0.00000000000E+00  0.50000000000E+02  0.50000000000E+02  0.00000000000E+00 0. -1.
        -11   -1    0    0    0    0 -0.00000000000E+00 -0.00000000000E+00 -0.50000000000E+02  0.50000000000E+02  0.00000000000E+00 0.  1.
         23    2    1    2    0    0  0.00000000000E+00  0.00000000000E+00  0.00000000000E+00  0.10000000000E+03  0.10000000000E+03 0.  0.
          5    1    3    3  501    0 -0.76833234102E+01 -0.63758080523E+01  0.48767054587E+02  0.50000000000E+02  0.47000000000E+01 0. -1.
         -5    1    3    3    0  501  0.76833234102E+01  0.63758080523E+01 -0.48767054587E+02  0.50000000000E+02  0.47000000000E+01 0.  1.
</event>
<event>
 5    1  0.9091923E-001  0.1000000E+03  0.7546771E-02  0.1163815E+00
         11   -1    0    0    0    0  0.00000000000E+00  0.00000000000E+00  0.50000000000E+02  0.50000000000E+02  0.00000000000E+00 0. -1.
        -11   -1    0    0    0    0 -0.00000000000E+00 -0.00000000000E+00 -0.50000000000E+02  0.50000000000E+02  0.00000000000E+00 0.  1.
         23    2    1    2    0    0  0.00000000000E+00  0.00000000000E+00  0.00000000000E+00  0.10000000000E+03  0.10000000000E+03 0.  0.
          5    1    3    3  501    0 -0.31731330723E+02 -0.12400201171E+02  0.36294182199E+02  0.50000000000E+02  0.47000000000E+01 0. -1.
         -5    1    3    3    0  501  0.31731330723E+02  0.12400201171E+02 -0.36294182199E+02  0.50000000000E+02  0.47000000000E+01 0.  1.
</event>
<event>
 5    1  0.9091923E-001  0.1000000E+03  0.7546771E-02  0.1163815E+00
         11   -1    0    0    0    0  0.00000000000E+00  0.00000000000E+00  0.50000000000E+02  0.50000000000E+02  0.00000000000E+00 0. -1.
        -11   -1    0    0    0    0 -0.00000000000E+00 -0.00000000000E+00 -0.50000000000E+02  0.50000000000E+02  0.00000000000E+00 0.  1.
         23    2    1    2    0    0  0.00000000000E+00  0.00000000000E+00  0.00000000000E+00  0.10000000000E+03  0.10000000000E+03 0.  0.
          5    1    3    3  501    0  0.13999522767E+01  0.26595937714E+02  0.42054800329E+02  0.50000000000E+02  0.47000000000E+01 0. -1.
         -5    1    3    3    0  501 -0.13999522767E+01 -0.26595937714E+02 -0.42054800329E+02  0.50000000000E+02  0.47000000000E+01 0.  1.
</event>
<event>
 5    1  0.9091923E-001  0.1000000E+03  0.7546771E-02  0.1163815E+00
         11   -1    0    0    0    0  0.00000000000E+00  0.00000000000E+00  0.50000000000E+02  0.50000000000E+02  0.00000000000E+00 0. -1.
        -11   -1    0    0    0    0 -0.00000000000E+00 -0.00000000000E+00 -0.50000000000E+02  0.50000000000E+02  0.00000000000E+00 0.  1.
         23    2    1    2    0    0  0.00000000000E+00  0.00000000000E+00  0.00000000000E+00  0.10000000000E+03  0.10000000000E+03 0.  0.
          5    1    3    3  501    0  0.13526852533E+01  0.48354280214E+02  0.11744949025E+02  0.50000000000E+02  0.47000000000E+01 0. -1.
         -5    1    3    3    0  501 -0.13526852533E+01 -0.48354280214E+02 -0.11744949025E+02  0.50000000000E+02  0.47000000000E+01 0.  1.
</event>
<event>
 5    1  0.9091923E-001  0.1000000E+03  0.7546771E-02  0.1163815E+00
         11   -1    0    0    0    0  0.00000000000E+00  0.00000000000E+00  0.50000000000E+02  0.50000000000E+02  0.00000000000E+00 0. -1.
        -11   -1    0    0    0    0 -0.00000000000E+00 -0.00000000000E+00 -0.50000000000E+02  0.50000000000E+02  0.00000000000E+00 0.  1.
         23    2    1    2    0    0  0.00000000000E+00  0.00000000000E+00  0.00000000000E+00  0.10000000000E+03  0.10000000000E+03 0.  0.
          5    1    3    3  501    0 -0.31075553988E+02  0.83379532053E+01  0.37982870885E+02  0.50000000000E+02  0.47000000000E+01 0. -1.
         -5    1    3    3    0  501  0.31075553988E+02 -0.83379532053E+01 -0.37982870885E+02  0.50000000000E+02  0.47000000000E+01 0.  1.
</event>
<event>
 5    1  0.9091923E-001  0.1000000E+03  0.7546771E-02  0.1163815E+00
         11   -1    0    0    0    0  0.00000000000E+00  0.00000000000E+00  0.50000000000E+02  0.50000000000E+02  0.00000000000E+00 0. -1.
        -11   -1    0    0    0    0 -0.00000000000E+00 -0.00000000000E+00 -0.50000000000E+02  0.50000000000E+02  0.00000000000E+00 0.  1.
         23    2    1    2    0    0  0.00000000000E+00  0.00000000000E+00  0.00000000000E+00  0.10000000000E+03  0.10000000000E+03 0.  0.
          5    1    3    3  501    0  0.40216120814E+02  0.78388004979E+01  0.28268831484E+02  0.50000000000E+02  0.47000000000E+01 0. -1.
         -5    1    3    3    0  501 -0.40216120814E+02 -0.78388004979E+01 -0.28268831484E+02  0.50000000000E+02  0.47000000000E+01 0.  1.
</event>
<event>
 5    1  0.9091923E-001  0.1000000E+03  0.7546771E-02  0.1163815E+00
         11   -1    0    0    0    0  0.00000000000E+00  0.00000000000E+00  0.50000000000E+02  0.50000000000E+02  0.00000000000E+00 0.  1.
        -11   -1    0    0    0    0 -0.00000000000E+00 -0.00000000000E+00 -0.50000000000E+02  0.50000000000E+02  0.00000000000E+00 0. -1.
         23    2    1    2    0    0  0.00000000000E+00  0.00000000000E+00  0.00000000000E+00  0.10000000000E+03  0.10000000000E+03 0.  0.
          5    1    3    3  501    0  0.95838085456E+00 -0.19080393094E+02 -0.45966619470E+02  0.50000000000E+02  0.47000000000E+01 0. -1.
         -5    1    3    3    0  501 -0.95838085456E+00  0.19080393094E+02  0.45966619470E+02  0.50000000000E+02  0.47000000000E+01 0.  1.
</event>
<event>
 5    1  0.9091923E-001  0.1000000E+03  0.7546771E-02  0.1163815E+00
         11   -1    0    0    0    0  0.00000000000E+00  0.00000000000E+00  0.50000000000E+02  0.50000000000E+02  0.00000000000E+00 0.  1.
        -11   -1    0    0    0    0 -0.00000000000E+00 -0.00000000000E+00 -0.50000000000E+02  0.50000000000E+02  0.00000000000E+00 0. -1.
         23    2    1    2    0    0  0.00000000000E+00  0.00000000000E+00  0.00000000000E+00  0.10000000000E+03  0.10000000000E+03 0.  0.
          5    1    3    3  501    0  0.43792810806E+02 -0.15212707686E+02  0.18129347661E+02  0.50000000000E+02  0.47000000000E+01 0. -1.
         -5    1    3    3    0  501 -0.43792810806E+02  0.15212707686E+02 -0.18129347661E+02  0.50000000000E+02  0.47000000000E+01 0.  1.
</event>
<event>
 5    1  0.9091923E-001  0.1000000E+03  0.7546771E-02  0.1163815E+00
         11   -1    0    0    0    0  0.00000000000E+00  0.00000000000E+00  0.50000000000E+02  0.50000000000E+02  0.00000000000E+00 0. -1.
        -11   -1    0    0    0    0 -0.00000000000E+00 -0.00000000000E+00 -0.50000000000E+02  0.50000000000E+02  0.00000000000E+00 0.  1.
         23    2    1    2    0    0  0.00000000000E+00  0.00000000000E+00  0.00000000000E+00  0.10000000000E+03  0.10000000000E+03 0.  0.
          5    1    3    3  501    0 -0.85231653750E+01  0.49043185084E+02  0.17790106255E+00  0.50000000000E+02  0.47000000000E+01 0. -1.
         -5    1    3    3    0  501  0.85231653750E+01 -0.49043185084E+02 -0.17790106255E+00  0.50000000000E+02  0.47000000000E+01 0.  1.
</event>
<event>
 5    1  0.9091923E-001  0.1000000E+03  0.7546771E-02  0.1163815E+00
         11   -1    0    0    0    0  0.00000000000E+00  0.00000000000E+00  0.50000000000E+02  0.50000000000E+02  0.00000000000E+00 0. -1.
        -11   -1    0    0    0    0 -0.00000000000E+00 -0.00000000000E+00 -0.50000000000E+02  0.50000000000E+02  0.00000000000E+00 0.  1.
         23    2    1    2    0    0  0.00000000000E+00  0.00000000000E+00  0.00000000000E+00  0.10000000000E+03  0.10000000000E+03 0.  0.
          5    1    3    3  501    0 -0.10497440115E+02 -0.25399491605E+02  0.41503970620E+02  0.50000000000E+02  0.47000000000E+01 0. -1.
         -5    1    3    3    0  501  0.10497440115E+02  0.25399491605E+02 -0.41503970620E+02  0.50000000000E+02  0.47000000000E+01 0.  1.
</event>
<event>
 5    1  0.9091923E-001  0.1000000E+03  0.7546771E-02  0.1163815E+00
         11   -1    0    0    0    0  0.00000000000E+00  0.00000000000E+00  0.50000000000E+02  0.50000000000E+02  0.00000000000E+00 0.  1.
        -11   -1    0    0    0    0 -0.00000000000E+00 -0.00000000000E+00 -0.50000000000E+02  0.50000000000E+02  0.00000000000E+00 0. -1.
         23    2    1    2    0    0  0.00000000000E+00  0.00000000000E+00  0.00000000000E+00  0.10000000000E+03  0.10000000000E+03 0.  0.
          5    1    3    3  501    0  0.97343583006E+01  0.39859997599E+02 -0.28183911367E+02  0.50000000000E+02  0.47000000000E+01 0. -1.
         -5    1    3    3    0  501 -0.97343583006E+01 -0.39859997599E+02  0.28183911367E+02  0.50000000000E+02  0.47000000000E+01 0.  1.
</event>
<event>
 5    1  0.9091923E-001  0.1000000E+03  0.7546771E-02  0.1163815E+00
         11   -1    0    0    0    0  0.00000000000E+00  0.00000000000E+00  0.50000000000E+02  0.50000000000E+02  0.00000000000E+00 0. -1.
        -11   -1    0    0    0    0 -0.00000000000E+00 -0.00000000000E+00 -0.50000000000E+02  0.50000000000E+02  0.00000000000E+00 0.  1.
         23    2    1    2    0    0  0.00000000000E+00  0.00000000000E+00  0.00000000000E+00  0.10000000000E+03  0.10000000000E+03 0.  0.
          5    1    3    3  501    0  0.20309213758E+01 -0.65889037228E+01  0.49298800250E+02  0.50000000000E+02  0.47000000000E+01 0. -1.
         -5    1    3    3    0  501 -0.20309213758E+01  0.65889037228E+01 -0.49298800250E+02  0.50000000000E+02  0.47000000000E+01 0.  1.
</event>
<event>
 5    1  0.9091923E-001  0.1000000E+03  0.7546771E-02  0.1163815E+00
         11   -1    0    0    0    0  0.00000000000E+00  0.00000000000E+00  0.50000000000E+02  0.50000000000E+02  0.00000000000E+00 0. -1.
        -11   -1    0    0    0    0 -0.00000000000E+00 -0.00000000000E+00 -0.50000000000E+02  0.50000000000E+02  0.00000000000E+00 0.  1.
         23    2    1    2    0    0  0.00000000000E+00  0.00000000000E+00  0.00000000000E+00  0.10000000000E+03  0.10000000000E+03 0.  0.
          5    1    3    3  501    0  0.22695459513E+02  0.56974796542E+01  0.43935917461E+02  0.50000000000E+02  0.47000000000E+01 0. -1.
         -5    1    3    3    0  501 -0.22695459513E+02 -0.56974796542E+01 -0.43935917461E+02  0.50000000000E+02  0.47000000000E+01 0.  1.
</event>
<event>
 5    1  0.9091923E-001  0.1000000E+03  0.7546771E-02  0.1163815E+00
         11   -1    0    0    0    0  0.00000000000E+00  0.00000000000E+00  0.50000000000E+02  0.50000000000E+02  0.00000000000E+00 0. -1.
        -11   -1    0    0    0    0 -0.00000000000E+00 -0.00000000000E+00 -0.50000000000E+02  0.50000000000E+02  0.00000000000E+00 0.  1.
         23    2    1    2    0    0  0.00000000000E+00  0.00000000000E+00  0.00000000000E+00  0.10000000000E+03  0.10000000000E+03 0.  0.
          5    1    3    3  501    0  0.34317667309E+02 -0.11518091106E+02  0.34169303296E+02  0.50000000000E+02  0.47000000000E+01 0. -1.
         -5    1    3    3    0  501 -0.34317667309E+02  0.11518091106E+02 -0.34169303296E+02  0.50000000000E+02  0.47000000000E+01 0.  1.
</event>
<event>
 5    1  0.9091923E-001  0.1000000E+03  0.7546771E-02  0.1163815E+00
         11   -1    0    0    0    0  0.00000000000E+00  0.00000000000E+00  0.50000000000E+02  0.50000000000E+02  0.00000000000E+00 0. -1.
        -11   -1    0    0    0    0 -0.00000000000E+00 -0.00000000000E+00 -0.50000000000E+02  0.50000000000E+02  0.00000000000E+00 0.  1.
         23    2    1    2    0    0  0.00000000000E+00  0.00000000000E+00  0.00000000000E+00  0.10000000000E+03  0.10000000000E+03 0.  0.
          5    1    3    3  501    0  0.13440355426E+02  0.24342787219E+02  0.41287958976E+02  0.50000000000E+02  0.47000000000E+01 0. -1.
         -5    1    3    3    0  501 -0.13440355426E+02 -0.24342787219E+02 -0.41287958976E+02  0.50000000000E+02  0.47000000000E+01 0.  1.
</event>
<event>
 5    1  0.9091923E-001  0.1000000E+03  0.7546771E-02  0.1163815E+00
         11   -1    0    0    0    0  0.00000000000E+00  0.00000000000E+00  0.50000000000E+02  0.50000000000E+02  0.00000000000E+00 0. -1.
        -11   -1    0    0    0    0 -0.00000000000E+00 -0.00000000000E+00 -0.50000000000E+02  0.50000000000E+02  0.00000000000E+00 0.  1.
         23    2    1    2    0    0  0.00000000000E+00  0.00000000000E+00  0.00000000000E+00  0.10000000000E+03  0.10000000000E+03 0.  0.
          5    1    3    3  501    0  0.10605541846E+02 -0.41720218323E+02  0.24997117139E+02  0.50000000000E+02  0.47000000000E+01 0. -1.
         -5    1    3    3    0  501 -0.10605541846E+02  0.41720218323E+02 -0.24997117139E+02  0.50000000000E+02  0.47000000000E+01 0.  1.
</event>
<event>
 5    1  0.9091923E-001  0.1000000E+03  0.7546771E-02  0.1163815E+00
         11   -1    0    0    0    0  0.00000000000E+00  0.00000000000E+00  0.50000000000E+02  0.50000000000E+02  0.00000000000E+00 0.  1.
        -11   -1    0    0    0    0 -0.00000000000E+00 -0.00000000000E+00 -0.50000000000E+02  0.50000000000E+02  0.00000000000E+00 0. -1.
         23    2    1    2    0    0  0.00000000000E+00  0.00000000000E+00  0.00000000000E+00  0.10000000000E+03  0.10000000000E+03 0.  0.
          5    1    3    3  501    0 -0.36675118660E+02  0.35680641829E+01 -0.33468113022E+02  0.50000000000E+02  0.47000000000E+01 0. -1.
         -5    1    3    3    0  501  0.36675118660E+02 -0.35680641829E+01  0.33468113022E+02  0.50000000000E+02  0.47000000000E+01 0.  1.
</event>
<event>
 5    1  0.9091923E-001  0.1000000E+03  0.7546771E-02  0.1163815E+00
         11   -1    0    0    0    0  0.00000000000E+00  0.00000000000E+00  0.50000000000E+02  0.50000000000E+02  0.00000000000E+00 0. -1.
        -11   -1    0    0    0    0 -0.00000000000E+00 -0.00000000000E+00 -0.50000000000E+02  0.50000000000E+02  0.00000000000E+00 0.  1.
         23    2    1    2    0    0  0.00000000000E+00  0.00000000000E+00  0.00000000000E+00  0.10000000000E+03  0.10000000000E+03 0.  0.
          5    1    3    3  501    0  0.12171372706E+02 -0.93957156427E+01  0.47344357784E+02  0.50000000000E+02  0.47000000000E+01 0. -1.
         -5    1    3    3    0  501 -0.12171372706E+02  0.93957156427E+01 -0.47344357784E+02  0.50000000000E+02  0.47000000000E+01 0.  1.
</event>
<event>
 5    1  0.9091923E-001  0.1000000E+03  0.7546771E-02  0.1163815E+00
         11   -1    0    0    0    0  0.00000000000E+00  0.00000000000E+00  0.50000000000E+02  0.50000000000E+02  0.00000000000E+00 0.  1.
        -11   -1    0    0    0    0 -0.00000000000E+00 -0.00000000000E+00 -0.50000000000E+02  0.50000000000E+02  0.00000000000E+00 0. -1.
         23    2    1    2    0    0  0.00000000000E+00  0.00000000000E+00  0.00000000000E+00  0.10000000000E+03  0.10000000000E+03 0.  0.
          5    1    3    3  501    0 -0.38324230619E+02 -0.66687663940E+01 -0.31059473631E+02  0.50000000000E+02  0.47000000000E+01 0. -1.
         -5    1    3    3    0  501  0.38324230619E+02  0.66687663940E+01  0.31059473631E+02  0.50000000000E+02  0.47000000000E+01 0.  1.
</event>
<event>
 5    1  0.9091923E-001  0.1000000E+03  0.7546771E-02  0.1163815E+00
         11   -1    0    0    0    0  0.00000000000E+00  0.00000000000E+00  0.50000000000E+02  0.50000000000E+02  0.00000000000E+00 0.  1.
        -11   -1    0    0    0    0 -0.00000000000E+00 -0.00000000000E+00 -0.50000000000E+02  0.50000000000E+02  0.00000000000E+00 0. -1.
         23    2    1    2    0    0  0.00000000000E+00  0.00000000000E+00  0.00000000000E+00  0.10000000000E+03  0.10000000000E+03 0.  0.
          5    1    3    3  501    0  0.47631561099E+02  0.41585659564E+01 -0.13851018606E+02  0.50000000000E+02  0.47000000000E+01 0. -1.
         -5    1    3    3    0  501 -0.47631561099E+02 -0.41585659564E+01  0.13851018606E+02  0.50000000000E+02  0.47000000000E+01 0.  1.
</event>
<event>
 5    1  0.9091923E-001  0.1000000E+03  0.7546771E-02  0.1163815E+00
         11   -1    0    0    0    0  0.00000000000E+00  0.00000000000E+00  0.50000000000E+02  0.50000000000E+02  0.00000000000E+00 0. -1.
        -11   -1    0    0    0    0 -0.00000000000E+00 -0.00000000000E+00 -0.50000000000E+02  0.50000000000E+02  0.00000000000E+00 0.  1.
         23    2    1    2    0    0  0.00000000000E+00  0.00000000000E+00  0.00000000000E+00  0.10000000000E+03  0.10000000000E+03 0.  0.
          5    1    3    3  501    0  0.18464200581E+02  0.20026761535E+02  0.41664278697E+02  0.50000000000E+02  0.47000000000E+01 0. -1.
         -5    1    3    3    0  501 -0.18464200581E+02 -0.20026761535E+02 -0.41664278697E+02  0.50000000000E+02  0.47000000000E+01 0.  1.
</event>
<event>
 5    1  0.9091923E-001  0.1000000E+03  0.7546771E-02  0.1163815E+00
         11   -1    0    0    0    0  0.00000000000E+00  0.00000000000E+00  0.50000000000E+02  0.50000000000E+02  0.00000000000E+00 0. -1.
        -11   -1    0    0    0    0 -0.00000000000E+00 -0.00000000000E+00 -0.50000000000E+02  0.50000000000E+02  0.00000000000E+00 0.  1.
         23    2    1    2    0    0  0.00000000000E+00  0.00000000000E+00  0.00000000000E+00  0.10000000000E+03  0.10000000000E+03 0.  0.
          5    1    3    3  501    0  0.30350243102E+02  0.22529174971E+02  0.32391496088E+02  0.50000000000E+02  0.47000000000E+01 0. -1.
         -5    1    3    3    0  501 -0.30350243102E+02 -0.22529174971E+02 -0.32391496088E+02  0.50000000000E+02  0.47000000000E+01 0.  1.
</event>
<event>
 5    1  0.9091923E-001  0.1000000E+03  0.7546771E-02  0.1163815E+00
         11   -1    0    0    0    0  0.00000000000E+00  0.00000000000E+00  0.50000000000E+02  0.50000000000E+02  0.00000000000E+00 0. -1.
        -11   -1    0    0    0    0 -0.00000000000E+00 -0.00000000000E+00 -0.50000000000E+02  0.50000000000E+02  0.00000000000E+00 0.  1.
         23    2    1    2    0    0  0.00000000000E+00  0.00000000000E+00  0.00000000000E+00  0.10000000000E+03  0.10000000000E+03 0.  0.
          5    1    3    3  501    0 -0.32453238701E+02 -0.37117423452E+02  0.68552296880E+01  0.50000000000E+02  0.47000000000E+01 0. -1.
         -5    1    3    3    0  501  0.32453238701E+02  0.37117423452E+02 -0.68552296880E+01  0.50000000000E+02  0.47000000000E+01 0.  1.
</event>
<event>
 5    1  0.9091923E-001  0.1000000E+03  0.7546771E-02  0.1163815E+00
         11   -1    0    0    0    0  0.00000000000E+00  0.00000000000E+00  0.50000000000E+02  0.50000000000E+02  0.00000000000E+00 0. -1.
        -11   -1    0    0    0    0 -0.00000000000E+00 -0.00000000000E+00 -0.50000000000E+02  0.50000000000E+02  0.00000000000E+00 0.  1.
         23    2    1    2    0    0  0.00000000000E+00  0.00000000000E+00  0.00000000000E+00  0.10000000000E+03  0.10000000000E+03 0.  0.
          5    1    3    3  501    0 -0.16107642107E+02 -0.21783139520E+02  0.41760611806E+02  0.50000000000E+02  0.47000000000E+01 0. -1.
         -5    1    3    3    0  501  0.16107642107E+02  0.21783139520E+02 -0.41760611806E+02  0.50000000000E+02  0.47000000000E+01 0.  1.
</event>
<event>
 5    1  0.9091923E-001  0.1000000E+03  0.7546771E-02  0.1163815E+00
         11   -1    0    0    0    0  0.00000000000E+00  0.00000000000E+00  0.50000000000E+02  0.50000000000E+02  0.00000000000E+00 0. -1.
        -11   -1    0    0    0    0 -0.00000000000E+00 -0.00000000000E+00 -0.50000000000E+02  0.50000000000E+02  0.00000000000E+00 0.  1.
         23    2    1    2    0    0  0.00000000000E+00  0.00000000000E+00  0.00000000000E+00  0.10000000000E+03  0.10000000000E+03 0.  0.
          5    1    3    3  501    0  0.47259073150E+02 -0.16654721526E+01  0.15547225074E+02  0.50000000000E+02  0.47000000000E+01 0. -1.
         -5    1    3    3    0  501 -0.47259073150E+02  0.16654721526E+01 -0.15547225074E+02  0.50000000000E+02  0.47000000000E+01 0.  1.
</event>
<event>
 5    1  0.9091923E-001  0.1000000E+03  0.7546771E-02  0.1163815E+00
         11   -1    0    0    0    0  0.00000000000E+00  0.00000000000E+00  0.50000000000E+02  0.50000000000E+02  0.00000000000E+00 0. -1.
        -11   -1    0    0    0    0 -0.00000000000E+00 -0.00000000000E+00 -0.50000000000E+02  0.50000000000E+02  0.00000000000E+00 0.  1.
         23    2    1    2    0    0  0.00000000000E+00  0.00000000000E+00  0.00000000000E+00  0.10000000000E+03  0.10000000000E+03 0.  0.
          5    1    3    3  501    0  0.35658119134E+02  0.14087756477E+01  0.34704810776E+02  0.50000000000E+02  0.47000000000E+01 0. -1.
         -5    1    3    3    0  501 -0.35658119134E+02 -0.14087756477E+01 -0.34704810776E+02  0.50000000000E+02  0.47000000000E+01 0.  1.
</event>
<event>
 5    1  0.9091923E-001  0.1000000E+03  0.7546771E-02  0.1163815E+00
         11   -1    0    0    0    0  0.00000000000E+00  0.00000000000E+00  0.50000000000E+02  0.50000000000E+02  0.00000000000E+00 0. -1.
        -11   -1    0    0    0    0 -0.00000000000E+00 -0.00000000000E+00 -0.50000000000E+02  0.50000000000E+02  0.00000000000E+00 0.  1.
         23    2    1    2    0    0  0.00000000000E+00  0.00000000000E+00  0.00000000000E+00  0.10000000000E+03  0.10000000000E+03 0.  0.
          5    1    3    3  501    0 -0.35766099570E+02 -0.22657347035E+02  0.26179013482E+02  0.50000000000E+02  0.47000000000E+01 0. -1.
         -5    1    3    3    0  501  0.35766099570E+02  0.22657347035E+02 -0.26179013482E+02  0.50000000000E+02  0.47000000000E+01 0.  1.
</event>
<event>
 5    1  0.9091923E-001  0.1000000E+03  0.7546771E-02  0.1163815E+00
         11   -1    0    0    0    0  0.00000000000E+00  0.00000000000E+00  0.50000000000E+02  0.50000000000E+02  0.00000000000E+00 0. -1.
        -11   -1    0    0    0    0 -0.00000000000E+00 -0.00000000000E+00 -0.50000000000E+02  0.50000000000E+02  0.00000000000E+00 0.  1.
         23    2    1    2    0    0  0.00000000000E+00  0.00000000000E+00  0.00000000000E+00  0.10000000000E+03  0.10000000000E+03 0.  0.
          5    1    3    3  501    0  0.11449854731E+02  0.38764554068E+02  0.29053746308E+02  0.50000000000E+02  0.47000000000E+01 0. -1.
         -5    1    3    3    0  501 -0.11449854731E+02 -0.38764554068E+02 -0.29053746308E+02  0.50000000000E+02  0.47000000000E+01 0.  1.
</event>
<event>
 5    1  0.9091923E-001  0.1000000E+03  0.7546771E-02  0.1163815E+00
         11   -1    0    0    0    0  0.00000000000E+00  0.00000000000E+00  0.50000000000E+02  0.50000000000E+02  0.00000000000E+00 0. -1.
        -11   -1    0    0    0    0 -0.00000000000E+00 -0.00000000000E+00 -0.50000000000E+02  0.50000000000E+02  0.00000000000E+00 0.  1.
         23    2    1    2    0    0  0.00000000000E+00  0.00000000000E+00  0.00000000000E+00  0.10000000000E+03  0.10000000000E+03 0.  0.
          5    1    3    3  501    0  0.12390509227E+02 -0.18847174382E+02  0.44375323085E+02  0.50000000000E+02  0.47000000000E+01 0. -1.
         -5    1    3    3    0  501 -0.12390509227E+02  0.18847174382E+02 -0.44375323085E+02  0.50000000000E+02  0.47000000000E+01 0.  1.
</event>
<event>
 5    1  0.9091923E-001  0.1000000E+03  0.7546771E-02  0.1163815E+00
         11   -1    0    0    0    0  0.00000000000E+00  0.00000000000E+00  0.50000000000E+02  0.50000000000E+02  0.00000000000E+00 0.  1.
        -11   -1    0    0    0    0 -0.00000000000E+00 -0.00000000000E+00 -0.50000000000E+02  0.50000000000E+02  0.00000000000E+00 0. -1.
         23    2    1    2    0    0  0.00000000000E+00  0.00000000000E+00  0.00000000000E+00  0.10000000000E+03  0.10000000000E+03 0.  0.
          5    1    3    3  501    0 -0.18758754741E+02 -0.24900423191E+02 -0.38807061799E+02  0.50000000000E+02  0.47000000000E+01 0. -1.
         -5    1    3    3    0  501  0.18758754741E+02  0.24900423191E+02  0.38807061799E+02  0.50000000000E+02  0.47000000000E+01 0.  1.
</event>
<event>
 5    1  0.9091923E-001  0.1000000E+03  0.7546771E-02  0.1163815E+00
         11   -1    0    0    0    0  0.00000000000E+00  0.00000000000E+00  0.50000000000E+02  0.50000000000E+02  0.00000000000E+00 0. -1.
        -11   -1    0    0    0    0 -0.00000000000E+00 -0.00000000000E+00 -0.50000000000E+02  0.50000000000E+02  0.00000000000E+00 0.  1.
         23    2    1    2    0    0  0.00000000000E+00  0.00000000000E+00  0.00000000000E+00  0.10000000000E+03  0.10000000000E+03 0.  0.
          5    1    3    3  501    0  0.45781712290E+02  0.18999737632E+02 -0.45776401881E+01  0.50000000000E+02  0.47000000000E+01 0. -1.
         -5    1    3    3    0  501 -0.45781712290E+02 -0.18999737632E+02  0.45776401881E+01  0.50000000000E+02  0.47000000000E+01 0.  1.
</event>
<event>
 5    1  0.9091923E-001  0.1000000E+03  0.7546771E-02  0.1163815E+00
         11   -1    0    0    0    0  0.00000000000E+00  0.00000000000E+00  0.50000000000E+02  0.50000000000E+02  0.00000000000E+00 0. -1.
        -11   -1    0    0    0    0 -0.00000000000E+00 -0.00000000000E+00 -0.50000000000E+02  0.50000000000E+02  0.00000000000E+00 0.  1.
         23    2    1    2    0    0  0.00000000000E+00  0.00000000000E+00  0.00000000000E+00  0.10000000000E+03  0.10000000000E+03 0.  0.
          5    1    3    3  501    0 -0.20549167869E+02  0.57339045293E+01  0.44975149124E+02  0.50000000000E+02  0.47000000000E+01 0. -1.
         -5    1    3    3    0  501  0.20549167869E+02 -0.57339045293E+01 -0.44975149124E+02  0.50000000000E+02  0.47000000000E+01 0.  1.
</event>
<event>
 5    1  0.9091923E-001  0.1000000E+03  0.7546771E-02  0.1163815E+00
         11   -1    0    0    0    0  0.00000000000E+00  0.00000000000E+00  0.50000000000E+02  0.50000000000E+02  0.00000000000E+00 0. -1.
        -11   -1    0    0    0    0 -0.00000000000E+00 -0.00000000000E+00 -0.50000000000E+02  0.50000000000E+02  0.00000000000E+00 0.  1.
         23    2    1    2    0    0  0.00000000000E+00  0.00000000000E+00  0.00000000000E+00  0.10000000000E+03  0.10000000000E+03 0.  0.
          5    1    3    3  501    0  0.13782208238E+02  0.40853372929E+02  0.24878960115E+02  0.50000000000E+02  0.47000000000E+01 0. -1.
         -5    1    3    3    0  501 -0.13782208238E+02 -0.40853372929E+02 -0.24878960115E+02  0.50000000000E+02  0.47000000000E+01 0.  1.
</event>
<event>
 5    1  0.9091923E-001  0.1000000E+03  0.7546771E-02  0.1163815E+00
         11   -1    0    0    0    0  0.00000000000E+00  0.00000000000E+00  0.50000000000E+02  0.50000000000E+02  0.00000000000E+00 0.  1.
        -11   -1    0    0    0    0 -0.00000000000E+00 -0.00000000000E+00 -0.50000000000E+02  0.50000000000E+02  0.00000000000E+00 0. -1.
         23    2    1    2    0    0  0.00000000000E+00  0.00000000000E+00  0.00000000000E+00  0.10000000000E+03  0.10000000000E+03 0.  0.
          5    1    3    3  501    0  0.33548297723E+02 -0.93445016953E+01  0.35568272490E+02  0.50000000000E+02  0.47000000000E+01 0. -1.
         -5    1    3    3    0  501 -0.33548297723E+02  0.93445016953E+01 -0.35568272490E+02  0.50000000000E+02  0.47000000000E+01 0.  1.
</event>
<event>
 5    1  0.9091923E-001  0.1000000E+03  0.7546771E-02  0.1163815E+00
         11   -1    0    0    0    0  0.00000000000E+00  0.00000000000E+00  0.50000000000E+02  0.50000000000E+02  0.00000000000E+00 0. -1.
        -11   -1    0    0    0    0 -0.00000000000E+00 -0.00000000000E+00 -0.50000000000E+02  0.50000000000E+02  0.00000000000E+00 0.  1.
         23    2    1    2    0    0  0.00000000000E+00  0.00000000000E+00  0.00000000000E+00  0.10000000000E+03  0.10000000000E+03 0.  0.
          5    1    3    3  501    0 -0.15478029563E+02 -0.29329688209E+02  0.37122903852E+02  0.50000000000E+02  0.47000000000E+01 0. -1.
         -5    1    3    3    0  501  0.15478029563E+02  0.29329688209E+02 -0.37122903852E+02  0.50000000000E+02  0.47000000000E+01 0.  1.
</event>
<event>
 5    1  0.9091923E-001  0.1000000E+03  0.7546771E-02  0.1163815E+00
         11   -1    0    0    0    0  0.00000000000E+00  0.00000000000E+00  0.50000000000E+02  0.50000000000E+02  0.00000000000E+00 0. -1.
        -11   -1    0    0    0    0 -0.00000000000E+00 -0.00000000000E+00 -0.50000000000E+02  0.50000000000E+02  0.00000000000E+00 0.  1.
         23    2    1    2    0    0  0.00000000000E+00  0.00000000000E+00  0.00000000000E+00  0.10000000000E+03  0.10000000000E+03 0.  0.
          5    1    3    3  501    0  0.46386457670E+02  0.16158589132E+02  0.80688625020E+01  0.50000000000E+02  0.47000000000E+01 0. -1.
         -5    1    3    3    0  501 -0.46386457670E+02 -0.16158589132E+02 -0.80688625020E+01  0.50000000000E+02  0.47000000000E+01 0.  1.
</event>
<event>
 5    1  0.9091923E-001  0.1000000E+03  0.7546771E-02  0.1163815E+00
         11   -1    0    0    0    0  0.00000000000E+00  0.00000000000E+00  0.50000000000E+02  0.50000000000E+02  0.00000000000E+00 0. -1.
        -11   -1    0    0    0    0 -0.00000000000E+00 -0.00000000000E+00 -0.50000000000E+02  0.50000000000E+02  0.00000000000E+00 0.  1.
         23    2    1    2    0    0  0.00000000000E+00  0.00000000000E+00  0.00000000000E+00  0.10000000000E+03  0.10000000000E+03 0.  0.
          5    1    3    3  501    0  0.52395744928E+01  0.14247591971E+02  0.47407414844E+02  0.50000000000E+02  0.47000000000E+01 0. -1.
         -5    1    3    3    0  501 -0.52395744928E+01 -0.14247591971E+02 -0.47407414844E+02  0.50000000000E+02  0.47000000000E+01 0.  1.
</event>
<event>
 5    1  0.9091923E-001  0.1000000E+03  0.7546771E-02  0.1163815E+00
         11   -1    0    0    0    0  0.00000000000E+00  0.00000000000E+00  0.50000000000E+02  0.50000000000E+02  0.00000000000E+00 0.  1.
        -11   -1    0    0    0    0 -0.00000000000E+00 -0.00000000000E+00 -0.50000000000E+02  0.50000000000E+02  0.00000000000E+00 0. -1.
         23    2    1    2    0    0  0.00000000000E+00  0.00000000000E+00  0.00000000000E+00  0.10000000000E+03  0.10000000000E+03 0.  0.
          5    1    3    3  501    0  0.17477612369E+02 -0.39543128329E+02 -0.24673549965E+02  0.50000000000E+02  0.47000000000E+01 0. -1.
         -5    1    3    3    0  501 -0.17477612369E+02  0.39543128329E+02  0.24673549965E+02  0.50000000000E+02  0.47000000000E+01 0.  1.
</event>
<event>
 5    1  0.9091923E-001  0.1000000E+03  0.7546771E-02  0.1163815E+00
         11   -1    0    0    0    0  0.00000000000E+00  0.00000000000E+00  0.50000000000E+02  0.50000000000E+02  0.00000000000E+00 0. -1.
        -11   -1    0    0    0    0 -0.00000000000E+00 -0.00000000000E+00 -0.50000000000E+02  0.50000000000E+02  0.00000000000E+00 0.  1.
         23    2    1    2    0    0  0.00000000000E+00  0.00000000000E+00  0.00000000000E+00  0.10000000000E+03  0.10000000000E+03 0.  0.
          5    1    3    3  501    0 -0.39779529141E+02 -0.20176674810E+02  0.22099793098E+02  0.50000000000E+02  0.47000000000E+01 0. -1.
         -5    1    3    3    0  501  0.39779529141E+02  0.20176674810E+02 -0.22099793098E+02  0.50000000000E+02  0.47000000000E+01 0.  1.
</event>
<event>
 5    1  0.9091923E-001  0.1000000E+03  0.7546771E-02  0.1163815E+00
         11   -1    0    0    0    0  0.00000000000E+00  0.00000000000E+00  0.50000000000E+02  0.50000000000E+02  0.00000000000E+00 0. -1.
        -11   -1    0    0    0    0 -0.00000000000E+00 -0.00000000000E+00 -0.50000000000E+02  0.50000000000E+02  0.00000000000E+00 0.  1.
         23    2    1    2    0    0  0.00000000000E+00  0.00000000000E+00  0.00000000000E+00  0.10000000000E+03  0.10000000000E+03 0.  0.
          5    1    3    3  501    0 -0.34942587618E+02  0.26670802233E+02  0.23357951082E+02  0.50000000000E+02  0.47000000000E+01 0. -1.
         -5    1    3    3    0  501  0.34942587618E+02 -0.26670802233E+02 -0.23357951082E+02  0.50000000000E+02  0.47000000000E+01 0.  1.
</event>
<event>
 5    1  0.9091923E-001  0.1000000E+03  0.7546771E-02  0.1163815E+00
         11   -1    0    0    0    0  0.00000000000E+00  0.00000000000E+00  0.50000000000E+02  0.50000000000E+02  0.00000000000E+00 0. -1.
        -11   -1    0    0    0    0 -0.00000000000E+00 -0.00000000000E+00 -0.50000000000E+02  0.50000000000E+02  0.00000000000E+00 0.  1.
         23    2    1    2    0    0  0.00000000000E+00  0.00000000000E+00  0.00000000000E+00  0.10000000000E+03  0.10000000000E+03 0.  0.
          5    1    3    3  501    0  0.73754036167E+01  0.21023875278E+01  0.49184279889E+02  0.50000000000E+02  0.47000000000E+01 0. -1.
         -5    1    3    3    0  501 -0.73754036167E+01 -0.21023875278E+01 -0.49184279889E+02  0.50000000000E+02  0.47000000000E+01 0.  1.
</event>
<event>
 5    1  0.9091923E-001  0.1000000E+03  0.7546771E-02  0.1163815E+00
         11   -1    0    0    0    0  0.00000000000E+00  0.00000000000E+00  0.50000000000E+02  0.50000000000E+02  0.00000000000E+00 0. -1.
        -11   -1    0    0    0    0 -0.00000000000E+00 -0.00000000000E+00 -0.50000000000E+02  0.50000000000E+02  0.00000000000E+00 0.  1.
         23    2    1    2    0    0  0.00000000000E+00  0.00000000000E+00  0.00000000000E+00  0.10000000000E+03  0.10000000000E+03 0.  0.
          5    1    3    3  501    0  0.49127757995E+02  0.74070674515E+01 -0.30836254856E+01  0.50000000000E+02  0.47000000000E+01 0. -1.
         -5    1    3    3    0  501 -0.49127757995E+02 -0.74070674515E+01  0.30836254856E+01  0.50000000000E+02  0.47000000000E+01 0.  1.
</event>
<event>
 5    1  0.9091923E-001  0.1000000E+03  0.7546771E-02  0.1163815E+00
         11   -1    0    0    0    0  0.00000000000E+00  0.00000000000E+00  0.50000000000E+02  0.50000000000E+02  0.00000000000E+00 0.  1.
        -11   -1    0    0    0    0 -0.00000000000E+00 -0.00000000000E+00 -0.50000000000E+02  0.50000000000E+02  0.00000000000E+00 0. -1.
         23    2    1    2    0    0  0.00000000000E+00  0.00000000000E+00  0.00000000000E+00  0.10000000000E+03  0.10000000000E+03 0.  0.
          5    1    3    3  501    0 -0.67224231320E+01  0.46739546410E+02 -0.15752264237E+02  0.50000000000E+02  0.47000000000E+01 0. -1.
         -5    1    3    3    0  501  0.67224231320E+01 -0.46739546410E+02  0.15752264237E+02  0.50000000000E+02  0.47000000000E+01 0.  1.
</event>
<event>
 5    1  0.9091923E-001  0.1000000E+03  0.7546771E-02  0.1163815E+00
         11   -1    0    0    0    0  0.00000000000E+00  0.00000000000E+00  0.50000000000E+02  0.50000000000E+02  0.00000000000E+00 0. -1.
        -11   -1    0    0    0    0 -0.00000000000E+00 -0.00000000000E+00 -0.50000000000E+02  0.50000000000E+02  0.00000000000E+00 0.  1.
         23    2    1    2    0    0  0.00000000000E+00  0.00000000000E+00  0.00000000000E+00  0.10000000000E+03  0.10000000000E+03 0.  0.
          5    1    3    3  501    0 -0.32095809772E+02  0.20464962267E+02  0.32077317757E+02  0.50000000000E+02  0.47000000000E+01 0. -1.
         -5    1    3    3    0  501  0.32095809772E+02 -0.20464962267E+02 -0.32077317757E+02  0.50000000000E+02  0.47000000000E+01 0.  1.
</event>
<event>
 5    1  0.9091923E-001  0.1000000E+03  0.7546771E-02  0.1163815E+00
         11   -1    0    0    0    0  0.00000000000E+00  0.00000000000E+00  0.50000000000E+02  0.50000000000E+02  0.00000000000E+00 0. -1.
        -11   -1    0    0    0    0 -0.00000000000E+00 -0.00000000000E+00 -0.50000000000E+02  0.50000000000E+02  0.00000000000E+00 0.  1.
         23    2    1    2    0    0  0.00000000000E+00  0.00000000000E+00  0.00000000000E+00  0.10000000000E+03  0.10000000000E+03 0.  0.
          5    1    3    3  501    0  0.48648078482E+02  0.46686002050E+01  0.94593145694E+01  0.50000000000E+02  0.47000000000E+01 0. -1.
         -5    1    3    3    0  501 -0.48648078482E+02 -0.46686002050E+01 -0.94593145694E+01  0.50000000000E+02  0.47000000000E+01 0.  1.
</event>
<event>
 5    1  0.9091923E-001  0.1000000E+03  0.7546771E-02  0.1163815E+00
         11   -1    0    0    0    0  0.00000000000E+00  0.00000000000E+00  0.50000000000E+02  0.50000000000E+02  0.00000000000E+00 0. -1.
        -11   -1    0    0    0    0 -0.00000000000E+00 -0.00000000000E+00 -0.50000000000E+02  0.50000000000E+02  0.00000000000E+00 0.  1.
         23    2    1    2    0    0  0.00000000000E+00  0.00000000000E+00  0.00000000000E+00  0.10000000000E+03  0.10000000000E+03 0.  0.
          5    1    3    3  501    0  0.15193338626E+02 -0.21688914211E+02  0.42150485902E+02  0.50000000000E+02  0.47000000000E+01 0. -1.
         -5    1    3    3    0  501 -0.15193338626E+02  0.21688914211E+02 -0.42150485902E+02  0.50000000000E+02  0.47000000000E+01 0.  1.
</event>
<event>
 5    1  0.9091923E-001  0.1000000E+03  0.7546771E-02  0.1163815E+00
         11   -1    0    0    0    0  0.00000000000E+00  0.00000000000E+00  0.50000000000E+02  0.50000000000E+02  0.00000000000E+00 0. -1.
        -11   -1    0    0    0    0 -0.00000000000E+00 -0.00000000000E+00 -0.50000000000E+02  0.50000000000E+02  0.00000000000E+00 0.  1.
         23    2    1    2    0    0  0.00000000000E+00  0.00000000000E+00  0.00000000000E+00  0.10000000000E+03  0.10000000000E+03 0.  0.
          5    1    3    3  501    0 -0.46313543431E+01 -0.33064631548E+02  0.36921412453E+02  0.50000000000E+02  0.47000000000E+01 0. -1.
         -5    1    3    3    0  501  0.46313543431E+01  0.33064631548E+02 -0.36921412453E+02  0.50000000000E+02  0.47000000000E+01 0.  1.
</event>
<event>
 5    1  0.9091923E-001  0.1000000E+03  0.7546771E-02  0.1163815E+00
         11   -1    0    0    0    0  0.00000000000E+00  0.00000000000E+00  0.50000000000E+02  0.50000000000E+02  0.00000000000E+00 0. -1.
        -11   -1    0    0    0    0 -0.00000000000E+00 -0.00000000000E+00 -0.50000000000E+02  0.50000000000E+02  0.00000000000E+00 0.  1.
         23    2    1    2    0    0  0.00000000000E+00  0.00000000000E+00  0.00000000000E+00  0.10000000000E+03  0.10000000000E+03 0.  0.
          5    1    3    3  501    0  0.82175072468E+01 -0.17889886789E+02  0.45720176348E+02  0.50000000000E+02  0.47000000000E+01 0. -1.
         -5    1    3    3    0  501 -0.82175072468E+01  0.17889886789E+02 -0.45720176348E+02  0.50000000000E+02  0.47000000000E+01 0.  1.
</event>
<event>
 5    1  0.9091923E-001  0.1000000E+03  0.7546771E-02  0.1163815E+00
         11   -1    0    0    0    0  0.00000000000E+00  0.00000000000E+00  0.50000000000E+02  0.50000000000E+02  0.00000000000E+00 0. -1.
        -11   -1    0    0    0    0 -0.00000000000E+00 -0.00000000000E+00 -0.50000000000E+02  0.50000000000E+02  0.00000000000E+00 0.  1.
         23    2    1    2    0    0  0.00000000000E+00  0.00000000000E+00  0.00000000000E+00  0.10000000000E+03  0.10000000000E+03 0.  0.
          5    1    3    3  501    0  0.42544676841E+02  0.10517699921E+02  0.23605898857E+02  0.50000000000E+02  0.47000000000E+01 0. -1.
         -5    1    3    3    0  501 -0.42544676841E+02 -0.10517699921E+02 -0.23605898857E+02  0.50000000000E+02  0.47000000000E+01 0.  1.
</event>
<event>
 5    1  0.9091923E-001  0.1000000E+03  0.7546771E-02  0.1163815E+00
         11   -1    0    0    0    0  0.00000000000E+00  0.00000000000E+00  0.50000000000E+02  0.50000000000E+02  0.00000000000E+00 0. -1.
        -11   -1    0    0    0    0 -0.00000000000E+00 -0.00000000000E+00 -0.50000000000E+02  0.50000000000E+02  0.00000000000E+00 0.  1.
         23    2    1    2    0    0  0.00000000000E+00  0.00000000000E+00  0.00000000000E+00  0.10000000000E+03  0.10000000000E+03 0.  0.
          5    1    3    3  501    0  0.35541095918E+01  0.47459331103E+02  0.14590757221E+02  0.50000000000E+02  0.47000000000E+01 0. -1.
         -5    1    3    3    0  501 -0.35541095918E+01 -0.47459331103E+02 -0.14590757221E+02  0.50000000000E+02  0.47000000000E+01 0.  1.
</event>
<event>
 5    1  0.9091923E-001  0.1000000E+03  0.7546771E-02  0.1163815E+00
         11   -1    0    0    0    0  0.00000000000E+00  0.00000000000E+00  0.50000000000E+02  0.50000000000E+02  0.00000000000E+00 0. -1.
        -11   -1    0    0    0    0 -0.00000000000E+00 -0.00000000000E+00 -0.50000000000E+02  0.50000000000E+02  0.00000000000E+00 0.  1.
         23    2    1    2    0    0  0.00000000000E+00  0.00000000000E+00  0.00000000000E+00  0.10000000000E+03  0.10000000000E+03 0.  0.
          5    1    3    3  501    0  0.35066114901E+02  0.35311437211E+02 -0.11747288469E+01  0.50000000000E+02  0.47000000000E+01 0. -1.
         -5    1    3    3    0  501 -0.35066114901E+02 -0.35311437211E+02  0.11747288469E+01  0.50000000000E+02  0.47000000000E+01 0.  1.
</event>
<event>
 5    1  0.9091923E-001  0.1000000E+03  0.7546771E-02  0.1163815E+00
         11   -1    0    0    0    0  0.00000000000E+00  0.00000000000E+00  0.50000000000E+02  0.50000000000E+02  0.00000000000E+00 0.  1.
        -11   -1    0    0    0    0 -0.00000000000E+00 -0.00000000000E+00 -0.50000000000E+02  0.50000000000E+02  0.00000000000E+00 0. -1.
         23    2    1    2    0    0  0.00000000000E+00  0.00000000000E+00  0.00000000000E+00  0.10000000000E+03  0.10000000000E+03 0.  0.
          5    1    3    3  501    0  0.33146642700E+02  0.42519831958E+01 -0.36893505074E+02  0.50000000000E+02  0.47000000000E+01 0. -1.
         -5    1    3    3    0  501 -0.33146642700E+02 -0.42519831958E+01  0.36893505074E+02  0.50000000000E+02  0.47000000000E+01 0.  1.
</event>
<event>
 5    1  0.9091923E-001  0.1000000E+03  0.7546771E-02  0.1163815E+00
         11   -1    0    0    0    0  0.00000000000E+00  0.00000000000E+00  0.50000000000E+02  0.50000000000E+02  0.00000000000E+00 0.  1.
        -11   -1    0    0    0    0 -0.00000000000E+00 -0.00000000000E+00 -0.50000000000E+02  0.50000000000E+02  0.00000000000E+00 0. -1.
         23    2    1    2    0    0  0.00000000000E+00  0.00000000000E+00  0.00000000000E+00  0.10000000000E+03  0.10000000000E+03 0.  0.
          5    1    3    3  501    0 -0.20364086116E+02  0.63807114014E+01 -0.44972219410E+02  0.50000000000E+02  0.47000000000E+01 0. -1.
         -5    1    3    3    0  501  0.20364086116E+02 -0.63807114014E+01  0.44972219410E+02  0.50000000000E+02  0.47000000000E+01 0.  1.
</event>
<event>
 5    1  0.9091923E-001  0.1000000E+03  0.7546771E-02  0.1163815E+00
         11   -1    0    0    0    0  0.00000000000E+00  0.00000000000E+00  0.50000000000E+02  0.50000000000E+02  0.00000000000E+00 0. -1.
        -11   -1    0    0    0    0 -0.00000000000E+00 -0.00000000000E+00 -0.50000000000E+02  0.50000000000E+02  0.00000000000E+00 0.  1.
         23    2    1    2    0    0  0.00000000000E+00  0.00000000000E+00  0.00000000000E+00  0.10000000000E+03  0.10000000000E+03 0.  0.
          5    1    3    3  501    0 -0.24587164908E+02  0.15714517307E+02  0.40329087116E+02  0.50000000000E+02  0.47000000000E+01 0. -1.
         -5    1    3    3    0  501  0.24587164908E+02 -0.15714517307E+02 -0.40329087116E+02  0.50000000000E+02  0.47000000000E+01 0.  1.
</event>
<event>
 5    1  0.9091923E-001  0.1000000E+03  0.7546771E-02  0.1163815E+00
         11   -1    0    0    0    0  0.00000000000E+00  0.00000000000E+00  0.50000000000E+02  0.50000000000E+02  0.00000000000E+00 0.  1.
        -11   -1    0    0    0    0 -0.00000000000E+00 -0.00000000000E+00 -0.50000000000E+02  0.50000000000E+02  0.00000000000E+00 0. -1.
         23    2    1    2    0    0  0.00000000000E+00  0.00000000000E+00  0.00000000000E+00  0.10000000000E+03  0.10000000000E+03 0.  0.
          5    1    3    3  501    0 -0.17038640268E+02  0.40655245288E+02 -0.23124570664E+02  0.50000000000E+02  0.47000000000E+01 0. -1.
         -5    1    3    3    0  501  0.17038640268E+02 -0.40655245288E+02  0.23124570664E+02  0.50000000000E+02  0.47000000000E+01 0.  1.
</event>
<event>
 5    1  0.9091923E-001  0.1000000E+03  0.7546771E-02  0.1163815E+00
         11   -1    0    0    0    0  0.00000000000E+00  0.00000000000E+00  0.50000000000E+02  0.50000000000E+02  0.00000000000E+00 0. -1.
        -11   -1    0    0    0    0 -0.00000000000E+00 -0.00000000000E+00 -0.50000000000E+02  0.50000000000E+02  0.00000000000E+00 0.  1.
         23    2    1    2    0    0  0.00000000000E+00  0.00000000000E+00  0.00000000000E+00  0.10000000000E+03  0.10000000000E+03 0.  0.
          5    1    3    3  501    0 -0.14287529633E+02 -0.25149715079E+02  0.40512570005E+02  0.50000000000E+02  0.47000000000E+01 0. -1.
         -5    1    3    3    0  501  0.14287529633E+02  0.25149715079E+02 -0.40512570005E+02  0.50000000000E+02  0.47000000000E+01 0.  1.
</event>
<event>
 5    1  0.9091923E-001  0.1000000E+03  0.7546771E-02  0.1163815E+00
         11   -1    0    0    0    0  0.00000000000E+00  0.00000000000E+00  0.50000000000E+02  0.50000000000E+02  0.00000000000E+00 0. -1.
        -11   -1    0    0    0    0 -0.00000000000E+00 -0.00000000000E+00 -0.50000000000E+02  0.50000000000E+02  0.00000000000E+00 0.  1.
         23    2    1    2    0    0  0.00000000000E+00  0.00000000000E+00  0.00000000000E+00  0.10000000000E+03  0.10000000000E+03 0.  0.
          5    1    3    3  501    0 -0.21697681715E+01 -0.48521178866E+02  0.10904004196E+02  0.50000000000E+02  0.47000000000E+01 0. -1.
         -5    1    3    3    0  501  0.21697681715E+01  0.48521178866E+02 -0.10904004196E+02  0.50000000000E+02  0.47000000000E+01 0.  1.
</event>
<event>
 5    1  0.9091923E-001  0.1000000E+03  0.7546771E-02  0.1163815E+00
         11   -1    0    0    0    0  0.00000000000E+00  0.00000000000E+00  0.50000000000E+02  0.50000000000E+02  0.00000000000E+00 0. -1.
        -11   -1    0    0    0    0 -0.00000000000E+00 -0.00000000000E+00 -0.50000000000E+02  0.50000000000E+02  0.00000000000E+00 0.  1.
         23    2    1    2    0    0  0.00000000000E+00  0.00000000000E+00  0.00000000000E+00  0.10000000000E+03  0.10000000000E+03 0.  0.
          5    1    3    3  501    0 -0.19345872196E+02  0.40610091158E+02 -0.21318248642E+02  0.50000000000E+02  0.47000000000E+01 0. -1.
         -5    1    3    3    0  501  0.19345872196E+02 -0.40610091158E+02  0.21318248642E+02  0.50000000000E+02  0.47000000000E+01 0.  1.
</event>
<event>
 5    1  0.9091923E-001  0.1000000E+03  0.7546771E-02  0.1163815E+00
         11   -1    0    0    0    0  0.00000000000E+00  0.00000000000E+00  0.50000000000E+02  0.50000000000E+02  0.00000000000E+00 0. -1.
        -11   -1    0    0    0    0 -0.00000000000E+00 -0.00000000000E+00 -0.50000000000E+02  0.50000000000E+02  0.00000000000E+00 0.  1.
         23    2    1    2    0    0  0.00000000000E+00  0.00000000000E+00  0.00000000000E+00  0.10000000000E+03  0.10000000000E+03 0.  0.
          5    1    3    3  501    0 -0.15522446505E+02  0.46468911086E+02  0.88093108105E+01  0.50000000000E+02  0.47000000000E+01 0. -1.
         -5    1    3    3    0  501  0.15522446505E+02 -0.46468911086E+02 -0.88093108105E+01  0.50000000000E+02  0.47000000000E+01 0.  1.
</event>
<event>
 5    1  0.9091923E-001  0.1000000E+03  0.7546771E-02  0.1163815E+00
         11   -1    0    0    0    0  0.00000000000E+00  0.00000000000E+00  0.50000000000E+02  0.50000000000E+02  0.00000000000E+00 0.  1.
        -11   -1    0    0    0    0 -0.00000000000E+00 -0.00000000000E+00 -0.50000000000E+02  0.50000000000E+02  0.00000000000E+00 0. -1.
         23    2    1    2    0    0  0.00000000000E+00  0.00000000000E+00  0.00000000000E+00  0.10000000000E+03  0.10000000000E+03 0.  0.
          5    1    3    3  501    0 -0.13879596504E+02 -0.47181421915E+02 -0.76928685811E+01  0.50000000000E+02  0.47000000000E+01 0. -1.
         -5    1    3    3    0  501  0.13879596504E+02  0.47181421915E+02  0.76928685811E+01  0.50000000000E+02  0.47000000000E+01 0.  1.
</event>
<event>
 5    1  0.9091923E-001  0.1000000E+03  0.7546771E-02  0.1163815E+00
         11   -1    0    0    0    0  0.00000000000E+00  0.00000000000E+00  0.50000000000E+02  0.50000000000E+02  0.00000000000E+00 0. -1.
        -11   -1    0    0    0    0 -0.00000000000E+00 -0.00000000000E+00 -0.50000000000E+02  0.50000000000E+02  0.00000000000E+00 0.  1.
         23    2    1    2    0    0  0.00000000000E+00  0.00000000000E+00  0.00000000000E+00  0.10000000000E+03  0.10000000000E+03 0.  0.
          5    1    3    3  501    0  0.35141322055E+02 -0.11941775143E+02  0.33172149322E+02  0.50000000000E+02  0.47000000000E+01 0. -1.
         -5    1    3    3    0  501 -0.35141322055E+02  0.11941775143E+02 -0.33172149322E+02  0.50000000000E+02  0.47000000000E+01 0.  1.
</event>
<event>
 5    1  0.9091923E-001  0.1000000E+03  0.7546771E-02  0.1163815E+00
         11   -1    0    0    0    0  0.00000000000E+00  0.00000000000E+00  0.50000000000E+02  0.50000000000E+02  0.00000000000E+00 0. -1.
        -11   -1    0    0    0    0 -0.00000000000E+00 -0.00000000000E+00 -0.50000000000E+02  0.50000000000E+02  0.00000000000E+00 0.  1.
         23    2    1    2    0    0  0.00000000000E+00  0.00000000000E+00  0.00000000000E+00  0.10000000000E+03  0.10000000000E+03 0.  0.
          5    1    3    3  501    0  0.10130049091E+02 -0.29539224041E+02  0.38765014491E+02  0.50000000000E+02  0.47000000000E+01 0. -1.
         -5    1    3    3    0  501 -0.10130049091E+02  0.29539224041E+02 -0.38765014491E+02  0.50000000000E+02  0.47000000000E+01 0.  1.
</event>
<event>
 5    1  0.9091923E-001  0.1000000E+03  0.7546771E-02  0.1163815E+00
         11   -1    0    0    0    0  0.00000000000E+00  0.00000000000E+00  0.50000000000E+02  0.50000000000E+02  0.00000000000E+00 0. -1.
        -11   -1    0    0    0    0 -0.00000000000E+00 -0.00000000000E+00 -0.50000000000E+02  0.50000000000E+02  0.00000000000E+00 0.  1.
         23    2    1    2    0    0  0.00000000000E+00  0.00000000000E+00  0.00000000000E+00  0.10000000000E+03  0.10000000000E+03 0.  0.
          5    1    3    3  501    0 -0.31236572163E+02  0.30307289909E+02  0.24158947367E+02  0.50000000000E+02  0.47000000000E+01 0. -1.
         -5    1    3    3    0  501  0.31236572163E+02 -0.30307289909E+02 -0.24158947367E+02  0.50000000000E+02  0.47000000000E+01 0.  1.
</event>
<event>
 5    1  0.9091923E-001  0.1000000E+03  0.7546771E-02  0.1163815E+00
         11   -1    0    0    0    0  0.00000000000E+00  0.00000000000E+00  0.50000000000E+02  0.50000000000E+02  0.00000000000E+00 0. -1.
        -11   -1    0    0    0    0 -0.00000000000E+00 -0.00000000000E+00 -0.50000000000E+02  0.50000000000E+02  0.00000000000E+00 0.  1.
         23    2    1    2    0    0  0.00000000000E+00  0.00000000000E+00  0.00000000000E+00  0.10000000000E+03  0.10000000000E+03 0.  0.
          5    1    3    3  501    0 -0.38255627880E+02  0.20070281098E+01  0.31786613120E+02  0.50000000000E+02  0.47000000000E+01 0. -1.
         -5    1    3    3    0  501  0.38255627880E+02 -0.20070281098E+01 -0.31786613120E+02  0.50000000000E+02  0.47000000000E+01 0.  1.
</event>
<event>
 5    1  0.9091923E-001  0.1000000E+03  0.7546771E-02  0.1163815E+00
         11   -1    0    0    0    0  0.00000000000E+00  0.00000000000E+00  0.50000000000E+02  0.50000000000E+02  0.00000000000E+00 0. -1.
        -11   -1    0    0    0    0 -0.00000000000E+00 -0.00000000000E+00 -0.50000000000E+02  0.50000000000E+02  0.00000000000E+00 0.  1.
         23    2    1    2    0    0  0.00000000000E+00  0.00000000000E+00  0.00000000000E+00  0.10000000000E+03  0.10000000000E+03 0.  0.
          5    1    3    3  501    0 -0.40888882405E+02  0.12667070774E+02  0.25407766798E+02  0.50000000000E+02  0.47000000000E+01 0. -1.
         -5    1    3    3    0  501  0.40888882405E+02 -0.12667070774E+02 -0.25407766798E+02  0.50000000000E+02  0.47000000000E+01 0.  1.
</event>
<event>
 5    1  0.9091923E-001  0.1000000E+03  0.7546771E-02  0.1163815E+00
         11   -1    0    0    0    0  0.00000000000E+00  0.00000000000E+00  0.50000000000E+02  0.50000000000E+02  0.00000000000E+00 0. -1.
        -11   -1    0    0    0    0 -0.00000000000E+00 -0.00000000000E+00 -0.50000000000E+02  0.50000000000E+02  0.00000000000E+00 0.  1.
         23    2    1    2    0    0  0.00000000000E+00  0.00000000000E+00  0.00000000000E+00  0.10000000000E+03  0.10000000000E+03 0.  0.
          5    1    3    3  501    0  0.11024793845E+01  0.46565047994E+02  0.17561060462E+02  0.50000000000E+02  0.47000000000E+01 0. -1.
         -5    1    3    3    0  501 -0.11024793845E+01 -0.46565047994E+02 -0.17561060462E+02  0.50000000000E+02  0.47000000000E+01 0.  1.
</event>
<event>
 5    1  0.9091923E-001  0.1000000E+03  0.7546771E-02  0.1163815E+00
         11   -1    0    0    0    0  0.00000000000E+00  0.00000000000E+00  0.50000000000E+02  0.50000000000E+02  0.00000000000E+00 0. -1.
        -11   -1    0    0    0    0 -0.00000000000E+00 -0.00000000000E+00 -0.50000000000E+02  0.50000000000E+02  0.00000000000E+00 0.  1.
         23    2    1    2    0    0  0.00000000000E+00  0.00000000000E+00  0.00000000000E+00  0.10000000000E+03  0.10000000000E+03 0.  0.
          5    1    3    3  501    0  0.40553027465E+01 -0.44389111107E+02  0.22160129395E+02  0.50000000000E+02  0.47000000000E+01 0. -1.
         -5    1    3    3    0  501 -0.40553027465E+01  0.44389111107E+02 -0.22160129395E+02  0.50000000000E+02  0.47000000000E+01 0.  1.
</event>
<event>
 5    1  0.9091923E-001  0.1000000E+03  0.7546771E-02  0.1163815E+00
         11   -1    0    0    0    0  0.00000000000E+00  0.00000000000E+00  0.50000000000E+02  0.50000000000E+02  0.00000000000E+00 0. -1.
        -11   -1    0    0    0    0 -0.00000000000E+00 -0.00000000000E+00 -0.50000000000E+02  0.50000000000E+02  0.00000000000E+00 0.  1.
         23    2    1    2    0    0  0.00000000000E+00  0.00000000000E+00  0.00000000000E+00  0.10000000000E+03  0.10000000000E+03 0.  0.
          5    1    3    3  501    0 -0.17741523377E+02  0.32249048882E+02  0.33513388287E+02  0.50000000000E+02  0.47000000000E+01 0. -1.
         -5    1    3    3    0  501  0.17741523377E+02 -0.32249048882E+02 -0.33513388287E+02  0.50000000000E+02  0.47000000000E+01 0.  1.
</event>
<event>
 5    1  0.9091923E-001  0.1000000E+03  0.7546771E-02  0.1163815E+00
         11   -1    0    0    0    0  0.00000000000E+00  0.00000000000E+00  0.50000000000E+02  0.50000000000E+02  0.00000000000E+00 0.  1.
        -11   -1    0    0    0    0 -0.00000000000E+00 -0.00000000000E+00 -0.50000000000E+02  0.50000000000E+02  0.00000000000E+00 0. -1.
         23    2    1    2    0    0  0.00000000000E+00  0.00000000000E+00  0.00000000000E+00  0.10000000000E+03  0.10000000000E+03 0.  0.
          5    1    3    3  501    0 -0.46883090973E+02  0.12703573941E+01 -0.16681485933E+02  0.50000000000E+02  0.47000000000E+01 0. -1.
         -5    1    3    3    0  501  0.46883090973E+02 -0.12703573941E+01  0.16681485933E+02  0.50000000000E+02  0.47000000000E+01 0.  1.
</event>
<event>
 5    1  0.9091923E-001  0.1000000E+03  0.7546771E-02  0.1163815E+00
         11   -1    0    0    0    0  0.00000000000E+00  0.00000000000E+00  0.50000000000E+02  0.50000000000E+02  0.00000000000E+00 0. -1.
        -11   -1    0    0    0    0 -0.00000000000E+00 -0.00000000000E+00 -0.50000000000E+02  0.50000000000E+02  0.00000000000E+00 0.  1.
         23    2    1    2    0    0  0.00000000000E+00  0.00000000000E+00  0.00000000000E+00  0.10000000000E+03  0.10000000000E+03 0.  0.
          5    1    3    3  501    0  0.33552394962E+02 -0.97377538965E+01  0.35458749856E+02  0.50000000000E+02  0.47000000000E+01 0. -1.
         -5    1    3    3    0  501 -0.33552394962E+02  0.97377538965E+01 -0.35458749856E+02  0.50000000000E+02  0.47000000000E+01 0.  1.
</event>
<event>
 5    1  0.9091923E-001  0.1000000E+03  0.7546771E-02  0.1163815E+00
         11   -1    0    0    0    0  0.00000000000E+00  0.00000000000E+00  0.50000000000E+02  0.50000000000E+02  0.00000000000E+00 0. -1.
        -11   -1    0    0    0    0 -0.00000000000E+00 -0.00000000000E+00 -0.50000000000E+02  0.50000000000E+02  0.00000000000E+00 0.  1.
         23    2    1    2    0    0  0.00000000000E+00  0.00000000000E+00  0.00000000000E+00  0.10000000000E+03  0.10000000000E+03 0.  0.
          5    1    3    3  501    0 -0.46828321108E+02 -0.11808169453E+02  0.12065880670E+02  0.50000000000E+02  0.47000000000E+01 0. -1.
         -5    1    3    3    0  501  0.46828321108E+02  0.11808169453E+02 -0.12065880670E+02  0.50000000000E+02  0.47000000000E+01 0.  1.
</event>
<event>
 5    1  0.9091923E-001  0.1000000E+03  0.7546771E-02  0.1163815E+00
         11   -1    0    0    0    0  0.00000000000E+00  0.00000000000E+00  0.50000000000E+02  0.50000000000E+02  0.00000000000E+00 0. -1.
        -11   -1    0    0    0    0 -0.00000000000E+00 -0.00000000000E+00 -0.50000000000E+02  0.50000000000E+02  0.00000000000E+00 0.  1.
         23    2    1    2    0    0  0.00000000000E+00  0.00000000000E+00  0.00000000000E+00  0.10000000000E+03  0.10000000000E+03 0.  0.
          5    1    3    3  501    0 -0.30858742611E+02  0.30290847746E+02  0.24659938105E+02  0.50000000000E+02  0.47000000000E+01 0. -1.
         -5    1    3    3    0  501  0.30858742611E+02 -0.30290847746E+02 -0.24659938105E+02  0.50000000000E+02  0.47000000000E+01 0.  1.
</event>
<event>
 5    1  0.9091923E-001  0.1000000E+03  0.7546771E-02  0.1163815E+00
         11   -1    0    0    0    0  0.00000000000E+00  0.00000000000E+00  0.50000000000E+02  0.50000000000E+02  0.00000000000E+00 0. -1.
        -11   -1    0    0    0    0 -0.00000000000E+00 -0.00000000000E+00 -0.50000000000E+02  0.50000000000E+02  0.00000000000E+00 0.  1.
         23    2    1    2    0    0  0.00000000000E+00  0.00000000000E+00  0.00000000000E+00  0.10000000000E+03  0.10000000000E+03 0.  0.
          5    1    3    3  501    0  0.30707972282E+02  0.23525088543E+02  0.31328910727E+02  0.50000000000E+02  0.47000000000E+01 0. -1.
         -5    1    3    3    0  501 -0.30707972282E+02 -0.23525088543E+02 -0.31328910727E+02  0.50000000000E+02  0.47000000000E+01 0.  1.
</event>
<event>
 5    1  0.9091923E-001  0.1000000E+03  0.7546771E-02  0.1163815E+00
         11   -1    0    0    0    0  0.00000000000E+00  0.00000000000E+00  0.50000000000E+02  0.50000000000E+02  0.00000000000E+00 0. -1.
        -11   -1    0    0    0    0 -0.00000000000E+00 -0.00000000000E+00 -0.50000000000E+02  0.50000000000E+02  0.00000000000E+00 0.  1.
         23    2    1    2    0    0  0.00000000000E+00  0.00000000000E+00  0.00000000000E+00  0.10000000000E+03  0.10000000000E+03 0.  0.
          5    1    3    3  501    0  0.25447828467E+02  0.36424080642E+02  0.22441131337E+02  0.50000000000E+02  0.47000000000E+01 0. -1.
         -5    1    3    3    0  501 -0.25447828467E+02 -0.36424080642E+02 -0.22441131337E+02  0.50000000000E+02  0.47000000000E+01 0.  1.
</event>
<event>
 5    1  0.9091923E-001  0.1000000E+03  0.7546771E-02  0.1163815E+00
         11   -1    0    0    0    0  0.00000000000E+00  0.00000000000E+00  0.50000000000E+02  0.50000000000E+02  0.00000000000E+00 0. -1.
        -11   -1    0    0    0    0 -0.00000000000E+00 -0.00000000000E+00 -0.50000000000E+02  0.50000000000E+02  0.00000000000E+00 0.  1.
         23    2    1    2    0    0  0.00000000000E+00  0.00000000000E+00  0.00000000000E+00  0.10000000000E+03  0.10000000000E+03 0.  0.
          5    1    3    3  501    0 -0.74233471765E+01  0.67608835669E+01  0.48755454773E+02  0.50000000000E+02  0.47000000000E+01 0. -1.
         -5    1    3    3    0  501  0.74233471765E+01 -0.67608835669E+01 -0.48755454773E+02  0.50000000000E+02  0.47000000000E+01 0.  1.
</event>
<event>
 5    1  0.9091923E-001  0.1000000E+03  0.7546771E-02  0.1163815E+00
         11   -1    0    0    0    0  0.00000000000E+00  0.00000000000E+00  0.50000000000E+02  0.50000000000E+02  0.00000000000E+00 0. -1.
        -11   -1    0    0    0    0 -0.00000000000E+00 -0.00000000000E+00 -0.50000000000E+02  0.50000000000E+02  0.00000000000E+00 0.  1.
         23    2    1    2    0    0  0.00000000000E+00  0.00000000000E+00  0.00000000000E+00  0.10000000000E+03  0.10000000000E+03 0.  0.
          5    1    3    3  501    0 -0.19017865659E+02  0.20000254926E+02  0.41427292799E+02  0.50000000000E+02  0.47000000000E+01 0. -1.
         -5    1    3    3    0  501  0.19017865659E+02 -0.20000254926E+02 -0.41427292799E+02  0.50000000000E+02  0.47000000000E+01 0.  1.
</event>
<event>
 5    1  0.9091923E-001  0.1000000E+03  0.7546771E-02  0.1163815E+00
         11   -1    0    0    0    0  0.00000000000E+00  0.00000000000E+00  0.50000000000E+02  0.50000000000E+02  0.00000000000E+00 0. -1.
        -11   -1    0    0    0    0 -0.00000000000E+00 -0.00000000000E+00 -0.50000000000E+02  0.50000000000E+02  0.00000000000E+00 0.  1.
         23    2    1    2    0    0  0.00000000000E+00  0.00000000000E+00  0.00000000000E+00  0.10000000000E+03  0.10000000000E+03 0.  0.
          5    1    3    3  501    0 -0.27681587032E+02 -0.19928713983E+01  0.41323942249E+02  0.50000000000E+02  0.47000000000E+01 0. -1.
         -5    1    3    3    0  501  0.27681587032E+02  0.19928713983E+01 -0.41323942249E+02  0.50000000000E+02  0.47000000000E+01 0.  1.
</event>
<event>
 5    1  0.9091923E-001  0.1000000E+03  0.7546771E-02  0.1163815E+00
         11   -1    0    0    0    0  0.00000000000E+00  0.00000000000E+00  0.50000000000E+02  0.50000000000E+02  0.00000000000E+00 0. -1.
        -11   -1    0    0    0    0 -0.00000000000E+00 -0.00000000000E+00 -0.50000000000E+02  0.50000000000E+02  0.00000000000E+00 0.  1.
         23    2    1    2    0    0  0.00000000000E+00  0.00000000000E+00  0.00000000000E+00  0.10000000000E+03  0.10000000000E+03 0.  0.
          5    1    3    3  501    0  0.22249541470E+02  0.44121454930E+02  0.60137441929E+01  0.50000000000E+02  0.47000000000E+01 0. -1.
         -5    1    3    3    0  501 -0.22249541470E+02 -0.44121454930E+02 -0.60137441929E+01  0.50000000000E+02  0.47000000000E+01 0.  1.
</event>
<event>
 5    1  0.9091923E-001  0.1000000E+03  0.7546771E-02  0.1163815E+00
         11   -1    0    0    0    0  0.00000000000E+00  0.00000000000E+00  0.50000000000E+02  0.50000000000E+02  0.00000000000E+00 0.  1.
        -11   -1    0    0    0    0 -0.00000000000E+00 -0.00000000000E+00 -0.50000000000E+02  0.50000000000E+02  0.00000000000E+00 0. -1.
         23    2    1    2    0    0  0.00000000000E+00  0.00000000000E+00  0.00000000000E+00  0.10000000000E+03  0.10000000000E+03 0.  0.
          5    1    3    3  501    0  0.32530309732E+02 -0.33742655397E+02 -0.16766697813E+02  0.50000000000E+02  0.47000000000E+01 0. -1.
         -5    1    3    3    0  501 -0.32530309732E+02  0.33742655397E+02  0.16766697813E+02  0.50000000000E+02  0.47000000000E+01 0.  1.
</event>
<event>
 5    1  0.9091923E-001  0.1000000E+03  0.7546771E-02  0.1163815E+00
         11   -1    0    0    0    0  0.00000000000E+00  0.00000000000E+00  0.50000000000E+02  0.50000000000E+02  0.00000000000E+00 0. -1.
        -11   -1    0    0    0    0 -0.00000000000E+00 -0.00000000000E+00 -0.50000000000E+02  0.50000000000E+02  0.00000000000E+00 0.  1.
         23    2    1    2    0    0  0.00000000000E+00  0.00000000000E+00  0.00000000000E+00  0.10000000000E+03  0.10000000000E+03 0.  0.
          5    1    3    3  501    0 -0.34811888040E+02 -0.74581003701E+01  0.34791079172E+02  0.50000000000E+02  0.47000000000E+01 0. -1.
         -5    1    3    3    0  501  0.34811888040E+02  0.74581003701E+01 -0.34791079172E+02  0.50000000000E+02  0.47000000000E+01 0.  1.
</event>
<event>
 5    1  0.9091923E-001  0.1000000E+03  0.7546771E-02  0.1163815E+00
         11   -1    0    0    0    0  0.00000000000E+00  0.00000000000E+00  0.50000000000E+02  0.50000000000E+02  0.00000000000E+00 0. -1.
        -11   -1    0    0    0    0 -0.00000000000E+00 -0.00000000000E+00 -0.50000000000E+02  0.50000000000E+02  0.00000000000E+00 0.  1.
         23    2    1    2    0    0  0.00000000000E+00  0.00000000000E+00  0.00000000000E+00  0.10000000000E+03  0.10000000000E+03 0.  0.
          5    1    3    3  501    0  0.18583962044E+02  0.45376648010E+02  0.85735739423E+01  0.50000000000E+02  0.47000000000E+01 0. -1.
         -5    1    3    3    0  501 -0.18583962044E+02 -0.45376648010E+02 -0.85735739423E+01  0.50000000000E+02  0.47000000000E+01 0.  1.
</event>
<event>
 5    1  0.9091923E-001  0.1000000E+03  0.7546771E-02  0.1163815E+00
         11   -1    0    0    0    0  0.00000000000E+00  0.00000000000E+00  0.50000000000E+02  0.50000000000E+02  0.00000000000E+00 0. -1.
        -11   -1    0    0    0    0 -0.00000000000E+00 -0.00000000000E+00 -0.50000000000E+02  0.50000000000E+02  0.00000000000E+00 0.  1.
         23    2    1    2    0    0  0.00000000000E+00  0.00000000000E+00  0.00000000000E+00  0.10000000000E+03  0.10000000000E+03 0.  0.
          5    1    3    3  501    0  0.22917798127E+02  0.34714151537E+02  0.27342498278E+02  0.50000000000E+02  0.47000000000E+01 0. -1.
         -5    1    3    3    0  501 -0.22917798127E+02 -0.34714151537E+02 -0.27342498278E+02  0.50000000000E+02  0.47000000000E+01 0.  1.
</event>
<event>
 5    1  0.9091923E-001  0.1000000E+03  0.7546771E-02  0.1163815E+00
         11   -1    0    0    0    0  0.00000000000E+00  0.00000000000E+00  0.50000000000E+02  0.50000000000E+02  0.00000000000E+00 0.  1.
        -11   -1    0    0    0    0 -0.00000000000E+00 -0.00000000000E+00 -0.50000000000E+02  0.50000000000E+02  0.00000000000E+00 0. -1.
         23    2    1    2    0    0  0.00000000000E+00  0.00000000000E+00  0.00000000000E+00  0.10000000000E+03  0.10000000000E+03 0.  0.
          5    1    3    3  501    0 -0.99780333084E+01  0.11507594167E+01 -0.48754739298E+02  0.50000000000E+02  0.47000000000E+01 0. -1.
         -5    1    3    3    0  501  0.99780333084E+01 -0.11507594167E+01  0.48754739298E+02  0.50000000000E+02  0.47000000000E+01 0.  1.
</event>
<event>
 5    1  0.9091923E-001  0.1000000E+03  0.7546771E-02  0.1163815E+00
         11   -1    0    0    0    0  0.00000000000E+00  0.00000000000E+00  0.50000000000E+02  0.50000000000E+02  0.00000000000E+00 0. -1.
        -11   -1    0    0    0    0 -0.00000000000E+00 -0.00000000000E+00 -0.50000000000E+02  0.50000000000E+02  0.00000000000E+00 0.  1.
         23    2    1    2    0    0  0.00000000000E+00  0.00000000000E+00  0.00000000000E+00  0.10000000000E+03  0.10000000000E+03 0.  0.
          5    1    3    3  501    0 -0.44351966030E+02  0.11732920190E+02  0.19317134702E+02  0.50000000000E+02  0.47000000000E+01 0. -1.
         -5    1    3    3    0  501  0.44351966030E+02 -0.11732920190E+02 -0.19317134702E+02  0.50000000000E+02  0.47000000000E+01 0.  1.
</event>
<event>
 5    1  0.9091923E-001  0.1000000E+03  0.7546771E-02  0.1163815E+00
         11   -1    0    0    0    0  0.00000000000E+00  0.00000000000E+00  0.50000000000E+02  0.50000000000E+02  0.00000000000E+00 0.  1.
        -11   -1    0    0    0    0 -0.00000000000E+00 -0.00000000000E+00 -0.50000000000E+02  0.50000000000E+02  0.00000000000E+00 0. -1.
         23    2    1    2    0    0  0.00000000000E+00  0.00000000000E+00  0.00000000000E+00  0.10000000000E+03  0.10000000000E+03 0.  0.
          5    1    3    3  501    0 -0.28106272422E+02 -0.34471074544E+02 -0.22353802145E+02  0.50000000000E+02  0.47000000000E+01 0. -1.
         -5    1    3    3    0  501  0.28106272422E+02  0.34471074544E+02  0.22353802145E+02  0.50000000000E+02  0.47000000000E+01 0.  1.
</event>
<event>
 5    1  0.9091923E-001  0.1000000E+03  0.7546771E-02  0.1163815E+00
         11   -1    0    0    0    0  0.00000000000E+00  0.00000000000E+00  0.50000000000E+02  0.50000000000E+02  0.00000000000E+00 0. -1.
        -11   -1    0    0    0    0 -0.00000000000E+00 -0.00000000000E+00 -0.50000000000E+02  0.50000000000E+02  0.00000000000E+00 0.  1.
         23    2    1    2    0    0  0.00000000000E+00  0.00000000000E+00  0.00000000000E+00  0.10000000000E+03  0.10000000000E+03 0.  0.
          5    1    3    3  501    0 -0.30242176481E+02 -0.39445254012E+02  0.27189515632E+01  0.50000000000E+02  0.47000000000E+01 0. -1.
         -5    1    3    3    0  501  0.30242176481E+02  0.39445254012E+02 -0.27189515632E+01  0.50000000000E+02  0.47000000000E+01 0.  1.
</event>
<event>
 5    1  0.9091923E-001  0.1000000E+03  0.7546771E-02  0.1163815E+00
         11   -1    0    0    0    0  0.00000000000E+00  0.00000000000E+00  0.50000000000E+02  0.50000000000E+02  0.00000000000E+00 0. -1.
        -11   -1    0    0    0    0 -0.00000000000E+00 -0.00000000000E+00 -0.50000000000E+02  0.50000000000E+02  0.00000000000E+00 0.  1.
         23    2    1    2    0    0  0.00000000000E+00  0.00000000000E+00  0.00000000000E+00  0.10000000000E+03  0.10000000000E+03 0.  0.
          5    1    3    3  501    0  0.28775101022E+02  0.29661664711E+02  0.27750481216E+02  0.50000000000E+02  0.47000000000E+01 0. -1.
         -5    1    3    3    0  501 -0.28775101022E+02 -0.29661664711E+02 -0.27750481216E+02  0.50000000000E+02  0.47000000000E+01 0.  1.
</event>
<event>
 5    1  0.9091923E-001  0.1000000E+03  0.7546771E-02  0.1163815E+00
         11   -1    0    0    0    0  0.00000000000E+00  0.00000000000E+00  0.50000000000E+02  0.50000000000E+02  0.00000000000E+00 0. -1.
        -11   -1    0    0    0    0 -0.00000000000E+00 -0.00000000000E+00 -0.50000000000E+02  0.50000000000E+02  0.00000000000E+00 0.  1.
         23    2    1    2    0    0  0.00000000000E+00  0.00000000000E+00  0.00000000000E+00  0.10000000000E+03  0.10000000000E+03 0.  0.
          5    1    3    3  501    0 -0.31860503157E+02  0.27734435548E+02  0.26336655509E+02  0.50000000000E+02  0.47000000000E+01 0. -1.
         -5    1    3    3    0  501  0.31860503157E+02 -0.27734435548E+02 -0.26336655509E+02  0.50000000000E+02  0.47000000000E+01 0.  1.
</event>
<event>
 5    1  0.9091923E-001  0.1000000E+03  0.7546771E-02  0.1163815E+00
         11   -1    0    0    0    0  0.00000000000E+00  0.00000000000E+00  0.50000000000E+02  0.50000000000E+02  0.00000000000E+00 0. -1.
        -11   -1    0    0    0    0 -0.00000000000E+00 -0.00000000000E+00 -0.50000000000E+02  0.50000000000E+02  0.00000000000E+00 0.  1.
         23    2    1    2    0    0  0.00000000000E+00  0.00000000000E+00  0.00000000000E+00  0.10000000000E+03  0.10000000000E+03 0.  0.
          5    1    3    3  501    0  0.42218621068E+02 -0.43702881993E+01  0.26007664565E+02  0.50000000000E+02  0.47000000000E+01 0. -1.
         -5    1    3    3    0  501 -0.42218621068E+02  0.43702881993E+01 -0.26007664565E+02  0.50000000000E+02  0.47000000000E+01 0.  1.
</event>
<event>
 5    1  0.9091923E-001  0.1000000E+03  0.7546771E-02  0.1163815E+00
         11   -1    0    0    0    0  0.00000000000E+00  0.00000000000E+00  0.50000000000E+02  0.50000000000E+02  0.00000000000E+00 0. -1.
        -11   -1    0    0    0    0 -0.00000000000E+00 -0.00000000000E+00 -0.50000000000E+02  0.50000000000E+02  0.00000000000E+00 0.  1.
         23    2    1    2    0    0  0.00000000000E+00  0.00000000000E+00  0.00000000000E+00  0.10000000000E+03  0.10000000000E+03 0.  0.
          5    1    3    3  501    0  0.16373774391E+01 -0.49155864560E+02  0.76765861209E+01  0.50000000000E+02  0.47000000000E+01 0. -1.
         -5    1    3    3    0  501 -0.16373774391E+01  0.49155864560E+02 -0.76765861209E+01  0.50000000000E+02  0.47000000000E+01 0.  1.
</event>
<event>
 5    1  0.9091923E-001  0.1000000E+03  0.7546771E-02  0.1163815E+00
         11   -1    0    0    0    0  0.00000000000E+00  0.00000000000E+00  0.50000000000E+02  0.50000000000E+02  0.00000000000E+00 0.  1.
        -11   -1    0    0    0    0 -0.00000000000E+00 -0.00000000000E+00 -0.50000000000E+02  0.50000000000E+02  0.00000000000E+00 0. -1.
         23    2    1    2    0    0  0.00000000000E+00  0.00000000000E+00  0.00000000000E+00  0.10000000000E+03  0.10000000000E+03 0.  0.
          5    1    3    3  501    0  0.58475087956E+01  0.43412430117E+02 -0.23644820833E+02  0.50000000000E+02  0.47000000000E+01 0. -1.
         -5    1    3    3    0  501 -0.58475087956E+01 -0.43412430117E+02  0.23644820833E+02  0.50000000000E+02  0.47000000000E+01 0.  1.
</event>
<event>
 5    1  0.9091923E-001  0.1000000E+03  0.7546771E-02  0.1163815E+00
         11   -1    0    0    0    0  0.00000000000E+00  0.00000000000E+00  0.50000000000E+02  0.50000000000E+02  0.00000000000E+00 0. -1.
        -11   -1    0    0    0    0 -0.00000000000E+00 -0.00000000000E+00 -0.50000000000E+02  0.50000000000E+02  0.00000000000E+00 0.  1.
         23    2    1    2    0    0  0.00000000000E+00  0.00000000000E+00  0.00000000000E+00  0.10000000000E+03  0.10000000000E+03 0.  0.
          5    1    3    3  501    0  0.52239988599E+01 -0.19129683852E+02  0.45658241662E+02  0.50000000000E+02  0.47000000000E+01 0. -1.
         -5    1    3    3    0  501 -0.52239988599E+01  0.19129683852E+02 -0.45658241662E+02  0.50000000000E+02  0.47000000000E+01 0.  1.
</event>
<event>
 5    1  0.9091923E-001  0.1000000E+03  0.7546771E-02  0.1163815E+00
         11   -1    0    0    0    0  0.00000000000E+00  0.00000000000E+00  0.50000000000E+02  0.50000000000E+02  0.00000000000E+00 0.  1.
        -11   -1    0    0    0    0 -0.00000000000E+00 -0.00000000000E+00 -0.50000000000E+02  0.50000000000E+02  0.00000000000E+00 0. -1.
         23    2    1    2    0    0  0.00000000000E+00  0.00000000000E+00  0.00000000000E+00  0.10000000000E+03  0.10000000000E+03 0.  0.
          5    1    3    3  501    0  0.18667721054E+02  0.43353081305E+02  0.15809381139E+02  0.50000000000E+02  0.47000000000E+01 0. -1.
         -5    1    3    3    0  501 -0.18667721054E+02 -0.43353081305E+02 -0.15809381139E+02  0.50000000000E+02  0.47000000000E+01 0.  1.
</event>
<event>
 5    1  0.9091923E-001  0.1000000E+03  0.7546771E-02  0.1163815E+00
         11   -1    0    0    0    0  0.00000000000E+00  0.00000000000E+00  0.50000000000E+02  0.50000000000E+02  0.00000000000E+00 0. -1.
        -11   -1    0    0    0    0 -0.00000000000E+00 -0.00000000000E+00 -0.50000000000E+02  0.50000000000E+02  0.00000000000E+00 0.  1.
         23    2    1    2    0    0  0.00000000000E+00  0.00000000000E+00  0.00000000000E+00  0.10000000000E+03  0.10000000000E+03 0.  0.
          5    1    3    3  501    0  0.11445775302E+01 -0.31231407147E+02  0.38745311328E+02  0.50000000000E+02  0.47000000000E+01 0. -1.
         -5    1    3    3    0  501 -0.11445775302E+01  0.31231407147E+02 -0.38745311328E+02  0.50000000000E+02  0.47000000000E+01 0.  1.
</event>
<event>
 5    1  0.9091923E-001  0.1000000E+03  0.7546771E-02  0.1163815E+00
         11   -1    0    0    0    0  0.00000000000E+00  0.00000000000E+00  0.50000000000E+02  0.50000000000E+02  0.00000000000E+00 0.  1.
        -11   -1    0    0    0    0 -0.00000000000E+00 -0.00000000000E+00 -0.50000000000E+02  0.50000000000E+02  0.00000000000E+00 0. -1.
         23    2    1    2    0    0  0.00000000000E+00  0.00000000000E+00  0.00000000000E+00  0.10000000000E+03  0.10000000000E+03 0.  0.
          5    1    3    3  501    0  0.37459063667E+02  0.32620046737E+02 -0.32651340073E+01  0.50000000000E+02  0.47000000000E+01 0. -1.
         -5    1    3    3    0  501 -0.37459063667E+02 -0.32620046737E+02  0.32651340073E+01  0.50000000000E+02  0.47000000000E+01 0.  1.
</event>
<event>
 5    1  0.9091923E-001  0.1000000E+03  0.7546771E-02  0.1163815E+00
         11   -1    0    0    0    0  0.00000000000E+00  0.00000000000E+00  0.50000000000E+02  0.50000000000E+02  0.00000000000E+00 0. -1.
        -11   -1    0    0    0    0 -0.00000000000E+00 -0.00000000000E+00 -0.50000000000E+02  0.50000000000E+02  0.00000000000E+00 0.  1.
         23    2    1    2    0    0  0.00000000000E+00  0.00000000000E+00  0.00000000000E+00  0.10000000000E+03  0.10000000000E+03 0.  0.
          5    1    3    3  501    0  0.10065592230E+02  0.17570042191E+02  0.45474030726E+02  0.50000000000E+02  0.47000000000E+01 0. -1.
         -5    1    3    3    0  501 -0.10065592230E+02 -0.17570042191E+02 -0.45474030726E+02  0.50000000000E+02  0.47000000000E+01 0.  1.
</event>
<event>
 5    1  0.9091923E-001  0.1000000E+03  0.7546771E-02  0.1163815E+00
         11   -1    0    0    0    0  0.00000000000E+00  0.00000000000E+00  0.50000000000E+02  0.50000000000E+02  0.00000000000E+00 0. -1.
        -11   -1    0    0    0    0 -0.00000000000E+00 -0.00000000000E+00 -0.50000000000E+02  0.50000000000E+02  0.00000000000E+00 0.  1.
         23    2    1    2    0    0  0.00000000000E+00  0.00000000000E+00  0.00000000000E+00  0.10000000000E+03  0.10000000000E+03 0.  0.
          5    1    3    3  501    0 -0.98362817366E+01  0.44287248336E+02  0.20488953035E+02  0.50000000000E+02  0.47000000000E+01 0. -1.
         -5    1    3    3    0  501  0.98362817366E+01 -0.44287248336E+02 -0.20488953035E+02  0.50000000000E+02  0.47000000000E+01 0.  1.
</event>
<event>
 5    1  0.9091923E-001  0.1000000E+03  0.7546771E-02  0.1163815E+00
         11   -1    0    0    0    0  0.00000000000E+00  0.00000000000E+00  0.50000000000E+02  0.50000000000E+02  0.00000000000E+00 0.  1.
        -11   -1    0    0    0    0 -0.00000000000E+00 -0.00000000000E+00 -0.50000000000E+02  0.50000000000E+02  0.00000000000E+00 0. -1.
         23    2    1    2    0    0  0.00000000000E+00  0.00000000000E+00  0.00000000000E+00  0.10000000000E+03  0.10000000000E+03 0.  0.
          5    1    3    3  501    0 -0.29191876122E+02  0.12482908487E+02 -0.38339553521E+02  0.50000000000E+02  0.47000000000E+01 0. -1.
         -5    1    3    3    0  501  0.29191876122E+02 -0.12482908487E+02  0.38339553521E+02  0.50000000000E+02  0.47000000000E+01 0.  1.
</event>
<event>
 5    1  0.9091923E-001  0.1000000E+03  0.7546771E-02  0.1163815E+00
         11   -1    0    0    0    0  0.00000000000E+00  0.00000000000E+00  0.50000000000E+02  0.50000000000E+02  0.00000000000E+00 0.  1.
        -11   -1    0    0    0    0 -0.00000000000E+00 -0.00000000000E+00 -0.50000000000E+02  0.50000000000E+02  0.00000000000E+00 0. -1.
         23    2    1    2    0    0  0.00000000000E+00  0.00000000000E+00  0.00000000000E+00  0.10000000000E+03  0.10000000000E+03 0.  0.
          5    1    3    3  501    0  0.45848045991E+02 -0.19281207355E+02 -0.20252707836E+01  0.50000000000E+02  0.47000000000E+01 0. -1.
         -5    1    3    3    0  501 -0.45848045991E+02  0.19281207355E+02  0.20252707836E+01  0.50000000000E+02  0.47000000000E+01 0.  1.
</event>
<event>
 5    1  0.9091923E-001  0.1000000E+03  0.7546771E-02  0.1163815E+00
         11   -1    0    0    0    0  0.00000000000E+00  0.00000000000E+00  0.50000000000E+02  0.50000000000E+02  0.00000000000E+00 0. -1.
        -11   -1    0    0    0    0 -0.00000000000E+00 -0.00000000000E+00 -0.50000000000E+02  0.50000000000E+02  0.00000000000E+00 0.  1.
         23    2    1    2    0    0  0.00000000000E+00  0.00000000000E+00  0.00000000000E+00  0.10000000000E+03  0.10000000000E+03 0.  0.
          5    1    3    3  501    0  0.49006766252E+02  0.52500506236E+01  0.69773798765E+01  0.50000000000E+02  0.47000000000E+01 0. -1.
         -5    1    3    3    0  501 -0.49006766252E+02 -0.52500506236E+01 -0.69773798765E+01  0.50000000000E+02  0.47000000000E+01 0.  1.
</event>
<event>
 5    1  0.9091923E-001  0.1000000E+03  0.7546771E-02  0.1163815E+00
         11   -1    0    0    0    0  0.00000000000E+00  0.00000000000E+00  0.50000000000E+02  0.50000000000E+02  0.00000000000E+00 0. -1.
        -11   -1    0    0    0    0 -0.00000000000E+00 -0.00000000000E+00 -0.50000000000E+02  0.50000000000E+02  0.00000000000E+00 0.  1.
         23    2    1    2    0    0  0.00000000000E+00  0.00000000000E+00  0.00000000000E+00  0.10000000000E+03  0.10000000000E+03 0.  0.
          5    1    3    3  501    0 -0.39876147509E+02  0.15441275228E+02  0.25482736886E+02  0.50000000000E+02  0.47000000000E+01 0. -1.
         -5    1    3    3    0  501  0.39876147509E+02 -0.15441275228E+02 -0.25482736886E+02  0.50000000000E+02  0.47000000000E+01 0.  1.
</event>
<event>
 5    1  0.9091923E-001  0.1000000E+03  0.7546771E-02  0.1163815E+00
         11   -1    0    0    0    0  0.00000000000E+00  0.00000000000E+00  0.50000000000E+02  0.50000000000E+02  0.00000000000E+00 0. -1.
        -11   -1    0    0    0    0 -0.00000000000E+00 -0.00000000000E+00 -0.50000000000E+02  0.50000000000E+02  0.00000000000E+00 0.  1.
         23    2    1    2    0    0  0.00000000000E+00  0.00000000000E+00  0.00000000000E+00  0.10000000000E+03  0.10000000000E+03 0.  0.
          5    1    3    3  501    0  0.48893370056E+02  0.32323078441E+01  0.87692959012E+01  0.50000000000E+02  0.47000000000E+01 0. -1.
         -5    1    3    3    0  501 -0.48893370056E+02 -0.32323078441E+01 -0.87692959012E+01  0.50000000000E+02  0.47000000000E+01 0.  1.
</event>
<event>
 5    1  0.9091923E-001  0.1000000E+03  0.7546771E-02  0.1163815E+00
         11   -1    0    0    0    0  0.00000000000E+00  0.00000000000E+00  0.50000000000E+02  0.50000000000E+02  0.00000000000E+00 0. -1.
        -11   -1    0    0    0    0 -0.00000000000E+00 -0.00000000000E+00 -0.50000000000E+02  0.50000000000E+02  0.00000000000E+00 0.  1.
         23    2    1    2    0    0  0.00000000000E+00  0.00000000000E+00  0.00000000000E+00  0.10000000000E+03  0.10000000000E+03 0.  0.
          5    1    3    3  501    0 -0.36611900707E+02 -0.29988614681E+02  0.15432488981E+02  0.50000000000E+02  0.47000000000E+01 0. -1.
         -5    1    3    3    0  501  0.36611900707E+02  0.29988614681E+02 -0.15432488981E+02  0.50000000000E+02  0.47000000000E+01 0.  1.
</event>
<event>
 5    1  0.9091923E-001  0.1000000E+03  0.7546771E-02  0.1163815E+00
         11   -1    0    0    0    0  0.00000000000E+00  0.00000000000E+00  0.50000000000E+02  0.50000000000E+02  0.00000000000E+00 0.  1.
        -11   -1    0    0    0    0 -0.00000000000E+00 -0.00000000000E+00 -0.50000000000E+02  0.50000000000E+02  0.00000000000E+00 0. -1.
         23    2    1    2    0    0  0.00000000000E+00  0.00000000000E+00  0.00000000000E+00  0.10000000000E+03  0.10000000000E+03 0.  0.
          5    1    3    3  501    0  0.21874896738E+02 -0.22623832039E+02 -0.38568913863E+02  0.50000000000E+02  0.47000000000E+01 0. -1.
         -5    1    3    3    0  501 -0.21874896738E+02  0.22623832039E+02  0.38568913863E+02  0.50000000000E+02  0.47000000000E+01 0.  1.
</event>
<event>
 5    1  0.9091923E-001  0.1000000E+03  0.7546771E-02  0.1163815E+00
         11   -1    0    0    0    0  0.00000000000E+00  0.00000000000E+00  0.50000000000E+02  0.50000000000E+02  0.00000000000E+00 0. -1.
        -11   -1    0    0    0    0 -0.00000000000E+00 -0.00000000000E+00 -0.50000000000E+02  0.50000000000E+02  0.00000000000E+00 0.  1.
         23    2    1    2    0    0  0.00000000000E+00  0.00000000000E+00  0.00000000000E+00  0.10000000000E+03  0.10000000000E+03 0.  0.
          5    1    3    3  501    0  0.46814369664E+02 -0.16724883841E+02  0.25696407340E+01  0.50000000000E+02  0.47000000000E+01 0. -1.
         -5    1    3    3    0  501 -0.46814369664E+02  0.16724883841E+02 -0.25696407340E+01  0.50000000000E+02  0.47000000000E+01 0.  1.
</event>
<event>
 5    1  0.9091923E-001  0.1000000E+03  0.7546771E-02  0.1163815E+00
         11   -1    0    0    0    0  0.00000000000E+00  0.00000000000E+00  0.50000000000E+02  0.50000000000E+02  0.00000000000E+00 0. -1.
        -11   -1    0    0    0    0 -0.00000000000E+00 -0.00000000000E+00 -0.50000000000E+02  0.50000000000E+02  0.00000000000E+00 0.  1.
         23    2    1    2    0    0  0.00000000000E+00  0.00000000000E+00  0.00000000000E+00  0.10000000000E+03  0.10000000000E+03 0.  0.
          5    1    3    3  501    0  0.16106686151E+02 -0.42756890820E+02  0.19756845615E+02  0.50000000000E+02  0.47000000000E+01 0. -1.
         -5    1    3    3    0  501 -0.16106686151E+02  0.42756890820E+02 -0.19756845615E+02  0.50000000000E+02  0.47000000000E+01 0.  1.
</event>
<event>
 5    1  0.9091923E-001  0.1000000E+03  0.7546771E-02  0.1163815E+00
         11   -1    0    0    0    0  0.00000000000E+00  0.00000000000E+00  0.50000000000E+02  0.50000000000E+02  0.00000000000E+00 0.  1.
        -11   -1    0    0    0    0 -0.00000000000E+00 -0.00000000000E+00 -0.50000000000E+02  0.50000000000E+02  0.00000000000E+00 0. -1.
         23    2    1    2    0    0  0.00000000000E+00  0.00000000000E+00  0.00000000000E+00  0.10000000000E+03  0.10000000000E+03 0.  0.
          5    1    3    3  501    0  0.26624008164E+02 -0.11786839273E+02 -0.40375024573E+02  0.50000000000E+02  0.47000000000E+01 0. -1.
         -5    1    3    3    0  501 -0.26624008164E+02  0.11786839273E+02  0.40375024573E+02  0.50000000000E+02  0.47000000000E+01 0.  1.
</event>
<event>
 5    1  0.9091923E-001  0.1000000E+03  0.7546771E-02  0.1163815E+00
         11   -1    0    0    0    0  0.00000000000E+00  0.00000000000E+00  0.50000000000E+02  0.50000000000E+02  0.00000000000E+00 0. -1.
        -11   -1    0    0    0    0 -0.00000000000E+00 -0.00000000000E+00 -0.50000000000E+02  0.50000000000E+02  0.00000000000E+00 0.  1.
         23    2    1    2    0    0  0.00000000000E+00  0.00000000000E+00  0.00000000000E+00  0.10000000000E+03  0.10000000000E+03 0.  0.
          5    1    3    3  501    0  0.42572715576E+01 -0.32363905668E+01  0.49490518435E+02  0.50000000000E+02  0.47000000000E+01 0. -1.
         -5    1    3    3    0  501 -0.42572715576E+01  0.32363905668E+01 -0.49490518435E+02  0.50000000000E+02  0.47000000000E+01 0.  1.
</event>
<event>
 5    1  0.9091923E-001  0.1000000E+03  0.7546771E-02  0.1163815E+00
         11   -1    0    0    0    0  0.00000000000E+00  0.00000000000E+00  0.50000000000E+02  0.50000000000E+02  0.00000000000E+00 0. -1.
        -11   -1    0    0    0    0 -0.00000000000E+00 -0.00000000000E+00 -0.50000000000E+02  0.50000000000E+02  0.00000000000E+00 0.  1.
         23    2    1    2    0    0  0.00000000000E+00  0.00000000000E+00  0.00000000000E+00  0.10000000000E+03  0.10000000000E+03 0.  0.
          5    1    3    3  501    0  0.79773434146E+01 -0.25980691849E+02  0.41704623762E+02  0.50000000000E+02  0.47000000000E+01 0. -1.
         -5    1    3    3    0  501 -0.79773434146E+01  0.25980691849E+02 -0.41704623762E+02  0.50000000000E+02  0.47000000000E+01 0.  1.
</event>
<event>
 5    1  0.9091923E-001  0.1000000E+03  0.7546771E-02  0.1163815E+00
         11   -1    0    0    0    0  0.00000000000E+00  0.00000000000E+00  0.50000000000E+02  0.50000000000E+02  0.00000000000E+00 0.  1.
        -11   -1    0    0    0    0 -0.00000000000E+00 -0.00000000000E+00 -0.50000000000E+02  0.50000000000E+02  0.00000000000E+00 0. -1.
         23    2    1    2    0    0  0.00000000000E+00  0.00000000000E+00  0.00000000000E+00  0.10000000000E+03  0.10000000000E+03 0.  0.
          5    1    3    3  501    0  0.18174637192E+02  0.15965036365E+02 -0.43505289067E+02  0.50000000000E+02  0.47000000000E+01 0. -1.
         -5    1    3    3    0  501 -0.18174637192E+02 -0.15965036365E+02  0.43505289067E+02  0.50000000000E+02  0.47000000000E+01 0.  1.
</event>
<event>
 5    1  0.9091923E-001  0.1000000E+03  0.7546771E-02  0.1163815E+00
         11   -1    0    0    0    0  0.00000000000E+00  0.00000000000E+00  0.50000000000E+02  0.50000000000E+02  0.00000000000E+00 0.  1.
        -11   -1    0    0    0    0 -0.00000000000E+00 -0.00000000000E+00 -0.50000000000E+02  0.50000000000E+02  0.00000000000E+00 0. -1.
         23    2    1    2    0    0  0.00000000000E+00  0.00000000000E+00  0.00000000000E+00  0.10000000000E+03  0.10000000000E+03 0.  0.
          5    1    3    3  501    0  0.16552331391E+02 -0.39968131672E+02 -0.24626789807E+02  0.50000000000E+02  0.47000000000E+01 0. -1.
         -5    1    3    3    0  501 -0.16552331391E+02  0.39968131672E+02  0.24626789807E+02  0.50000000000E+02  0.47000000000E+01 0.  1.
</event>
<event>
 5    1  0.9091923E-001  0.1000000E+03  0.7546771E-02  0.1163815E+00
         11   -1    0    0    0    0  0.00000000000E+00  0.00000000000E+00  0.50000000000E+02  0.50000000000E+02  0.00000000000E+00 0.  1.
        -11   -1    0    0    0    0 -0.00000000000E+00 -0.00000000000E+00 -0.50000000000E+02  0.50000000000E+02  0.00000000000E+00 0. -1.
         23    2    1    2    0    0  0.00000000000E+00  0.00000000000E+00  0.00000000000E+00  0.10000000000E+03  0.10000000000E+03 0.  0.
          5    1    3    3  501    0 -0.44382339997E+02 -0.20378334938E+02 -0.96354222325E+01  0.50000000000E+02  0.47000000000E+01 0. -1.
         -5    1    3    3    0  501  0.44382339997E+02  0.20378334938E+02  0.96354222325E+01  0.50000000000E+02  0.47000000000E+01 0.  1.
</event>
<event>
 5    1  0.9091923E-001  0.1000000E+03  0.7546771E-02  0.1163815E+00
         11   -1    0    0    0    0  0.00000000000E+00  0.00000000000E+00  0.50000000000E+02  0.50000000000E+02  0.00000000000E+00 0. -1.
        -11   -1    0    0    0    0 -0.00000000000E+00 -0.00000000000E+00 -0.50000000000E+02  0.50000000000E+02  0.00000000000E+00 0.  1.
         23    2    1    2    0    0  0.00000000000E+00  0.00000000000E+00  0.00000000000E+00  0.10000000000E+03  0.10000000000E+03 0.  0.
          5    1    3    3  501    0  0.76299130465E+01 -0.46366699931E+01  0.48971376520E+02  0.50000000000E+02  0.47000000000E+01 0. -1.
         -5    1    3    3    0  501 -0.76299130465E+01  0.46366699931E+01 -0.48971376520E+02  0.50000000000E+02  0.47000000000E+01 0.  1.
</event>
<event>
 5    1  0.9091923E-001  0.1000000E+03  0.7546771E-02  0.1163815E+00
         11   -1    0    0    0    0  0.00000000000E+00  0.00000000000E+00  0.50000000000E+02  0.50000000000E+02  0.00000000000E+00 0. -1.
        -11   -1    0    0    0    0 -0.00000000000E+00 -0.00000000000E+00 -0.50000000000E+02  0.50000000000E+02  0.00000000000E+00 0.  1.
         23    2    1    2    0    0  0.00000000000E+00  0.00000000000E+00  0.00000000000E+00  0.10000000000E+03  0.10000000000E+03 0.  0.
          5    1    3    3  501    0  0.31738593416E+02  0.28264773552E+02  0.25916679262E+02  0.50000000000E+02  0.47000000000E+01 0. -1.
         -5    1    3    3    0  501 -0.31738593416E+02 -0.28264773552E+02 -0.25916679262E+02  0.50000000000E+02  0.47000000000E+01 0.  1.
</event>
<event>
 5    1  0.9091923E-001  0.1000000E+03  0.7546771E-02  0.1163815E+00
         11   -1    0    0    0    0  0.00000000000E+00  0.00000000000E+00  0.50000000000E+02  0.50000000000E+02  0.00000000000E+00 0. -1.
        -11   -1    0    0    0    0 -0.00000000000E+00 -0.00000000000E+00 -0.50000000000E+02  0.50000000000E+02  0.00000000000E+00 0.  1.
         23    2    1    2    0    0  0.00000000000E+00  0.00000000000E+00  0.00000000000E+00  0.10000000000E+03  0.10000000000E+03 0.  0.
          5    1    3    3  501    0  0.28810978480E+02  0.31169664944E+02  0.26005566833E+02  0.50000000000E+02  0.47000000000E+01 0. -1.
         -5    1    3    3    0  501 -0.28810978480E+02 -0.31169664944E+02 -0.26005566833E+02  0.50000000000E+02  0.47000000000E+01 0.  1.
</event>
<event>
 5    1  0.9091923E-001  0.1000000E+03  0.7546771E-02  0.1163815E+00
         11   -1    0    0    0    0  0.00000000000E+00  0.00000000000E+00  0.50000000000E+02  0.50000000000E+02  0.00000000000E+00 0. -1.
        -11   -1    0    0    0    0 -0.00000000000E+00 -0.00000000000E+00 -0.50000000000E+02  0.50000000000E+02  0.00000000000E+00 0.  1.
         23    2    1    2    0    0  0.00000000000E+00  0.00000000000E+00  0.00000000000E+00  0.10000000000E+03  0.10000000000E+03 0.  0.
          5    1    3    3  501    0 -0.45118946670E+02  0.13040903675E+02  0.16496226317E+02  0.50000000000E+02  0.47000000000E+01 0. -1.
         -5    1    3    3    0  501  0.45118946670E+02 -0.13040903675E+02 -0.16496226317E+02  0.50000000000E+02  0.47000000000E+01 0.  1.
</event>
<event>
 5    1  0.9091923E-001  0.1000000E+03  0.7546771E-02  0.1163815E+00
         11   -1    0    0    0    0  0.00000000000E+00  0.00000000000E+00  0.50000000000E+02  0.50000000000E+02  0.00000000000E+00 0. -1.
        -11   -1    0    0    0    0 -0.00000000000E+00 -0.00000000000E+00 -0.50000000000E+02  0.50000000000E+02  0.00000000000E+00 0.  1.
         23    2    1    2    0    0  0.00000000000E+00  0.00000000000E+00  0.00000000000E+00  0.10000000000E+03  0.10000000000E+03 0.  0.
          5    1    3    3  501    0  0.24652048200E+02  0.19197504774E+02  0.38751030051E+02  0.50000000000E+02  0.47000000000E+01 0. -1.
         -5    1    3    3    0  501 -0.24652048200E+02 -0.19197504774E+02 -0.38751030051E+02  0.50000000000E+02  0.47000000000E+01 0.  1.
</event>
<event>
 5    1  0.9091923E-001  0.1000000E+03  0.7546771E-02  0.1163815E+00
         11   -1    0    0    0    0  0.00000000000E+00  0.00000000000E+00  0.50000000000E+02  0.50000000000E+02  0.00000000000E+00 0. -1.
        -11   -1    0    0    0    0 -0.00000000000E+00 -0.00000000000E+00 -0.50000000000E+02  0.50000000000E+02  0.00000000000E+00 0.  1.
         23    2    1    2    0    0  0.00000000000E+00  0.00000000000E+00  0.00000000000E+00  0.10000000000E+03  0.10000000000E+03 0.  0.
          5    1    3    3  501    0  0.20149226551E+02 -0.21681610878E+02  0.40022823728E+02  0.50000000000E+02  0.47000000000E+01 0. -1.
         -5    1    3    3    0  501 -0.20149226551E+02  0.21681610878E+02 -0.40022823728E+02  0.50000000000E+02  0.47000000000E+01 0.  1.
</event>
<event>
 5    1  0.9091923E-001  0.1000000E+03  0.7546771E-02  0.1163815E+00
         11   -1    0    0    0    0  0.00000000000E+00  0.00000000000E+00  0.50000000000E+02  0.50000000000E+02  0.00000000000E+00 0. -1.
        -11   -1    0    0    0    0 -0.00000000000E+00 -0.00000000000E+00 -0.50000000000E+02  0.50000000000E+02  0.00000000000E+00 0.  1.
         23    2    1    2    0    0  0.00000000000E+00  0.00000000000E+00  0.00000000000E+00  0.10000000000E+03  0.10000000000E+03 0.  0.
          5    1    3    3  501    0  0.38708287806E+02 -0.26364325288E+02  0.16867151722E+02  0.50000000000E+02  0.47000000000E+01 0. -1.
         -5    1    3    3    0  501 -0.38708287806E+02  0.26364325288E+02 -0.16867151722E+02  0.50000000000E+02  0.47000000000E+01 0.  1.
</event>
<event>
 5    1  0.9091923E-001  0.1000000E+03  0.7546771E-02  0.1163815E+00
         11   -1    0    0    0    0  0.00000000000E+00  0.00000000000E+00  0.50000000000E+02  0.50000000000E+02  0.00000000000E+00 0.  1.
        -11   -1    0    0    0    0 -0.00000000000E+00 -0.00000000000E+00 -0.50000000000E+02  0.50000000000E+02  0.00000000000E+00 0. -1.
         23    2    1    2    0    0  0.00000000000E+00  0.00000000000E+00  0.00000000000E+00  0.10000000000E+03  0.10000000000E+03 0.  0.
          5    1    3    3  501    0 -0.30556907005E+02 -0.31890322587E+02 -0.22960678553E+02  0.50000000000E+02  0.47000000000E+01 0. -1.
         -5    1    3    3    0  501  0.30556907005E+02  0.31890322587E+02  0.22960678553E+02  0.50000000000E+02  0.47000000000E+01 0.  1.
</event>
<event>
 5    1  0.9091923E-001  0.1000000E+03  0.7546771E-02  0.1163815E+00
         11   -1    0    0    0    0  0.00000000000E+00  0.00000000000E+00  0.50000000000E+02  0.50000000000E+02  0.00000000000E+00 0.  1.
        -11   -1    0    0    0    0 -0.00000000000E+00 -0.00000000000E+00 -0.50000000000E+02  0.50000000000E+02  0.00000000000E+00 0. -1.
         23    2    1    2    0    0  0.00000000000E+00  0.00000000000E+00  0.00000000000E+00  0.10000000000E+03  0.10000000000E+03 0.  0.
          5    1    3    3  501    0 -0.81535440782E+01  0.19533313554E+02 -0.45054182720E+02  0.50000000000E+02  0.47000000000E+01 0. -1.
         -5    1    3    3    0  501  0.81535440782E+01 -0.19533313554E+02  0.45054182720E+02  0.50000000000E+02  0.47000000000E+01 0.  1.
</event>
<event>
 5    1  0.9091923E-001  0.1000000E+03  0.7546771E-02  0.1163815E+00
         11   -1    0    0    0    0  0.00000000000E+00  0.00000000000E+00  0.50000000000E+02  0.50000000000E+02  0.00000000000E+00 0.  1.
        -11   -1    0    0    0    0 -0.00000000000E+00 -0.00000000000E+00 -0.50000000000E+02  0.50000000000E+02  0.00000000000E+00 0. -1.
         23    2    1    2    0    0  0.00000000000E+00  0.00000000000E+00  0.00000000000E+00  0.10000000000E+03  0.10000000000E+03 0.  0.
          5    1    3    3  501    0 -0.26691685762E+02  0.18568855641E+02 -0.37691663686E+02  0.50000000000E+02  0.47000000000E+01 0. -1.
         -5    1    3    3    0  501  0.26691685762E+02 -0.18568855641E+02  0.37691663686E+02  0.50000000000E+02  0.47000000000E+01 0.  1.
</event>
<event>
 5    1  0.9091923E-001  0.1000000E+03  0.7546771E-02  0.1163815E+00
         11   -1    0    0    0    0  0.00000000000E+00  0.00000000000E+00  0.50000000000E+02  0.50000000000E+02  0.00000000000E+00 0. -1.
        -11   -1    0    0    0    0 -0.00000000000E+00 -0.00000000000E+00 -0.50000000000E+02  0.50000000000E+02  0.00000000000E+00 0.  1.
         23    2    1    2    0    0  0.00000000000E+00  0.00000000000E+00  0.00000000000E+00  0.10000000000E+03  0.10000000000E+03 0.  0.
          5    1    3    3  501    0  0.26368247467E+02 -0.52345526710E+01  0.41895405283E+02  0.50000000000E+02  0.47000000000E+01 0. -1.
         -5    1    3    3    0  501 -0.26368247467E+02  0.52345526710E+01 -0.41895405283E+02  0.50000000000E+02  0.47000000000E+01 0.  1.
</event>
<event>
 5    1  0.9091923E-001  0.1000000E+03  0.7546771E-02  0.1163815E+00
         11   -1    0    0    0    0  0.00000000000E+00  0.00000000000E+00  0.50000000000E+02  0.50000000000E+02  0.00000000000E+00 0. -1.
        -11   -1    0    0    0    0 -0.00000000000E+00 -0.00000000000E+00 -0.50000000000E+02  0.50000000000E+02  0.00000000000E+00 0.  1.
         23    2    1    2    0    0  0.00000000000E+00  0.00000000000E+00  0.00000000000E+00  0.10000000000E+03  0.10000000000E+03 0.  0.
          5    1    3    3  501    0 -0.15019216395E+02  0.47299815885E+02  0.38807932282E+01  0.50000000000E+02  0.47000000000E+01 0. -1.
         -5    1    3    3    0  501  0.15019216395E+02 -0.47299815885E+02 -0.38807932282E+01  0.50000000000E+02  0.47000000000E+01 0.  1.
</event>
<event>
 5    1  0.9091923E-001  0.1000000E+03  0.7546771E-02  0.1163815E+00
         11   -1    0    0    0    0  0.00000000000E+00  0.00000000000E+00  0.50000000000E+02  0.50000000000E+02  0.00000000000E+00 0. -1.
        -11   -1    0    0    0    0 -0.00000000000E+00 -0.00000000000E+00 -0.50000000000E+02  0.50000000000E+02  0.00000000000E+00 0.  1.
         23    2    1    2    0    0  0.00000000000E+00  0.00000000000E+00  0.00000000000E+00  0.10000000000E+03  0.10000000000E+03 0.  0.
          5    1    3    3  501    0  0.16884460027E+02  0.11477057019E+02  0.45399363121E+02  0.50000000000E+02  0.47000000000E+01 0. -1.
         -5    1    3    3    0  501 -0.16884460027E+02 -0.11477057019E+02 -0.45399363121E+02  0.50000000000E+02  0.47000000000E+01 0.  1.
</event>
<event>
 5    1  0.9091923E-001  0.1000000E+03  0.7546771E-02  0.1163815E+00
         11   -1    0    0    0    0  0.00000000000E+00  0.00000000000E+00  0.50000000000E+02  0.50000000000E+02  0.00000000000E+00 0. -1.
        -11   -1    0    0    0    0 -0.00000000000E+00 -0.00000000000E+00 -0.50000000000E+02  0.50000000000E+02  0.00000000000E+00 0.  1.
         23    2    1    2    0    0  0.00000000000E+00  0.00000000000E+00  0.00000000000E+00  0.10000000000E+03  0.10000000000E+03 0.  0.
          5    1    3    3  501    0  0.19390861991E+02  0.42895712646E+02 -0.16182160173E+02  0.50000000000E+02  0.47000000000E+01 0. -1.
         -5    1    3    3    0  501 -0.19390861991E+02 -0.42895712646E+02  0.16182160173E+02  0.50000000000E+02  0.47000000000E+01 0.  1.
</event>
<event>
 5    1  0.9091923E-001  0.1000000E+03  0.7546771E-02  0.1163815E+00
         11   -1    0    0    0    0  0.00000000000E+00  0.00000000000E+00  0.50000000000E+02  0.50000000000E+02  0.00000000000E+00 0.  1.
        -11   -1    0    0    0    0 -0.00000000000E+00 -0.00000000000E+00 -0.50000000000E+02  0.50000000000E+02  0.00000000000E+00 0. -1.
         23    2    1    2    0    0  0.00000000000E+00  0.00000000000E+00  0.00000000000E+00  0.10000000000E+03  0.10000000000E+03 0.  0.
          5    1    3    3  501    0 -0.20532009878E+02  0.41756282543E+02 -0.17685006037E+02  0.50000000000E+02  0.47000000000E+01 0. -1.
         -5    1    3    3    0  501  0.20532009878E+02 -0.41756282543E+02  0.17685006037E+02  0.50000000000E+02  0.47000000000E+01 0.  1.
</event>
<event>
 5    1  0.9091923E-001  0.1000000E+03  0.7546771E-02  0.1163815E+00
         11   -1    0    0    0    0  0.00000000000E+00  0.00000000000E+00  0.50000000000E+02  0.50000000000E+02  0.00000000000E+00 0.  1.
        -11   -1    0    0    0    0 -0.00000000000E+00 -0.00000000000E+00 -0.50000000000E+02  0.50000000000E+02  0.00000000000E+00 0. -1.
         23    2    1    2    0    0  0.00000000000E+00  0.00000000000E+00  0.00000000000E+00  0.10000000000E+03  0.10000000000E+03 0.  0.
          5    1    3    3  501    0 -0.97301638842E+01 -0.48690097623E+02 -0.35367081104E+01  0.50000000000E+02  0.47000000000E+01 0. -1.
         -5    1    3    3    0  501  0.97301638842E+01  0.48690097623E+02  0.35367081104E+01  0.50000000000E+02  0.47000000000E+01 0.  1.
</event>
<event>
 5    1  0.9091923E-001  0.1000000E+03  0.7546771E-02  0.1163815E+00
         11   -1    0    0    0    0  0.00000000000E+00  0.00000000000E+00  0.50000000000E+02  0.50000000000E+02  0.00000000000E+00 0.  1.
        -11   -1    0    0    0    0 -0.00000000000E+00 -0.00000000000E+00 -0.50000000000E+02  0.50000000000E+02  0.00000000000E+00 0. -1.
         23    2    1    2    0    0  0.00000000000E+00  0.00000000000E+00  0.00000000000E+00  0.10000000000E+03  0.10000000000E+03 0.  0.
          5    1    3    3  501    0 -0.14035788639E+02  0.44275042558E+02 -0.17906067234E+02  0.50000000000E+02  0.47000000000E+01 0. -1.
         -5    1    3    3    0  501  0.14035788639E+02 -0.44275042558E+02  0.17906067234E+02  0.50000000000E+02  0.47000000000E+01 0.  1.
</event>
<event>
 5    1  0.9091923E-001  0.1000000E+03  0.7546771E-02  0.1163815E+00
         11   -1    0    0    0    0  0.00000000000E+00  0.00000000000E+00  0.50000000000E+02  0.50000000000E+02  0.00000000000E+00 0.  1.
        -11   -1    0    0    0    0 -0.00000000000E+00 -0.00000000000E+00 -0.50000000000E+02  0.50000000000E+02  0.00000000000E+00 0. -1.
         23    2    1    2    0    0  0.00000000000E+00  0.00000000000E+00  0.00000000000E+00  0.10000000000E+03  0.10000000000E+03 0.  0.
          5    1    3    3  501    0  0.18784891297E+02  0.14340869480E+02 -0.43810698711E+02  0.50000000000E+02  0.47000000000E+01 0. -1.
         -5    1    3    3    0  501 -0.18784891297E+02 -0.14340869480E+02  0.43810698711E+02  0.50000000000E+02  0.47000000000E+01 0.  1.
</event>
<event>
 5    1  0.9091923E-001  0.1000000E+03  0.7546771E-02  0.1163815E+00
         11   -1    0    0    0    0  0.00000000000E+00  0.00000000000E+00  0.50000000000E+02  0.50000000000E+02  0.00000000000E+00 0. -1.
        -11   -1    0    0    0    0 -0.00000000000E+00 -0.00000000000E+00 -0.50000000000E+02  0.50000000000E+02  0.00000000000E+00 0.  1.
         23    2    1    2    0    0  0.00000000000E+00  0.00000000000E+00  0.00000000000E+00  0.10000000000E+03  0.10000000000E+03 0.  0.
          5    1    3    3  501    0  0.20619028825E+02 -0.38384945922E+02  0.24069930969E+02  0.50000000000E+02  0.47000000000E+01 0. -1.
         -5    1    3    3    0  501 -0.20619028825E+02  0.38384945922E+02 -0.24069930969E+02  0.50000000000E+02  0.47000000000E+01 0.  1.
</event>
<event>
 5    1  0.9091923E-001  0.1000000E+03  0.7546771E-02  0.1163815E+00
         11   -1    0    0    0    0  0.00000000000E+00  0.00000000000E+00  0.50000000000E+02  0.50000000000E+02  0.00000000000E+00 0. -1.
        -11   -1    0    0    0    0 -0.00000000000E+00 -0.00000000000E+00 -0.50000000000E+02  0.50000000000E+02  0.00000000000E+00 0.  1.
         23    2    1    2    0    0  0.00000000000E+00  0.00000000000E+00  0.00000000000E+00  0.10000000000E+03  0.10000000000E+03 0.  0.
          5    1    3    3  501    0 -0.14237738431E+02 -0.31205846268E+02  0.36074810645E+02  0.50000000000E+02  0.47000000000E+01 0. -1.
         -5    1    3    3    0  501  0.14237738431E+02  0.31205846268E+02 -0.36074810645E+02  0.50000000000E+02  0.47000000000E+01 0.  1.
</event>
<event>
 5    1  0.9091923E-001  0.1000000E+03  0.7546771E-02  0.1163815E+00
         11   -1    0    0    0    0  0.00000000000E+00  0.00000000000E+00  0.50000000000E+02  0.50000000000E+02  0.00000000000E+00 0.  1.
        -11   -1    0    0    0    0 -0.00000000000E+00 -0.00000000000E+00 -0.50000000000E+02  0.50000000000E+02  0.00000000000E+00 0. -1.
         23    2    1    2    0    0  0.00000000000E+00  0.00000000000E+00  0.00000000000E+00  0.10000000000E+03  0.10000000000E+03 0.  0.
          5    1    3    3  501    0  0.14331773225E-01 -0.18177287391E+00 -0.49778275917E+02  0.50000000000E+02  0.47000000000E+01 0. -1.
         -5    1    3    3    0  501 -0.14331773225E-01  0.18177287391E+00  0.49778275917E+02  0.50000000000E+02  0.47000000000E+01 0.  1.
</event>
<event>
 5    1  0.9091923E-001  0.1000000E+03  0.7546771E-02  0.1163815E+00
         11   -1    0    0    0    0  0.00000000000E+00  0.00000000000E+00  0.50000000000E+02  0.50000000000E+02  0.00000000000E+00 0.  1.
        -11   -1    0    0    0    0 -0.00000000000E+00 -0.00000000000E+00 -0.50000000000E+02  0.50000000000E+02  0.00000000000E+00 0. -1.
         23    2    1    2    0    0  0.00000000000E+00  0.00000000000E+00  0.00000000000E+00  0.10000000000E+03  0.10000000000E+03 0.  0.
          5    1    3    3  501    0 -0.10451287940E+02 -0.38105986743E+02 -0.30275639626E+02  0.50000000000E+02  0.47000000000E+01 0. -1.
         -5    1    3    3    0  501  0.10451287940E+02  0.38105986743E+02  0.30275639626E+02  0.50000000000E+02  0.47000000000E+01 0.  1.
</event>
<event>
 5    1  0.9091923E-001  0.1000000E+03  0.7546771E-02  0.1163815E+00
         11   -1    0    0    0    0  0.00000000000E+00  0.00000000000E+00  0.50000000000E+02  0.50000000000E+02  0.00000000000E+00 0. -1.
        -11   -1    0    0    0    0 -0.00000000000E+00 -0.00000000000E+00 -0.50000000000E+02  0.50000000000E+02  0.00000000000E+00 0.  1.
         23    2    1    2    0    0  0.00000000000E+00  0.00000000000E+00  0.00000000000E+00  0.10000000000E+03  0.10000000000E+03 0.  0.
          5    1    3    3  501    0  0.21399985979E+01  0.42857050241E+01  0.49547584587E+02  0.50000000000E+02  0.47000000000E+01 0. -1.
         -5    1    3    3    0  501 -0.21399985979E+01 -0.42857050241E+01 -0.49547584587E+02  0.50000000000E+02  0.47000000000E+01 0.  1.
</event>
<event>
 5    1  0.9091923E-001  0.1000000E+03  0.7546771E-02  0.1163815E+00
         11   -1    0    0    0    0  0.00000000000E+00  0.00000000000E+00  0.50000000000E+02  0.50000000000E+02  0.00000000000E+00 0.  1.
        -11   -1    0    0    0    0 -0.00000000000E+00 -0.00000000000E+00 -0.50000000000E+02  0.50000000000E+02  0.00000000000E+00 0. -1.
         23    2    1    2    0    0  0.00000000000E+00  0.00000000000E+00  0.00000000000E+00  0.10000000000E+03  0.10000000000E+03 0.  0.
          5    1    3    3  501    0 -0.46916351178E+01  0.42689433630E+01 -0.49372813192E+02  0.50000000000E+02  0.47000000000E+01 0. -1.
         -5    1    3    3    0  501  0.46916351178E+01 -0.42689433630E+01  0.49372813192E+02  0.50000000000E+02  0.47000000000E+01 0.  1.
</event>
<event>
 5    1  0.9091923E-001  0.1000000E+03  0.7546771E-02  0.1163815E+00
         11   -1    0    0    0    0  0.00000000000E+00  0.00000000000E+00  0.50000000000E+02  0.50000000000E+02  0.00000000000E+00 0. -1.
        -11   -1    0    0    0    0 -0.00000000000E+00 -0.00000000000E+00 -0.50000000000E+02  0.50000000000E+02  0.00000000000E+00 0.  1.
         23    2    1    2    0    0  0.00000000000E+00  0.00000000000E+00  0.00000000000E+00  0.10000000000E+03  0.10000000000E+03 0.  0.
          5    1    3    3  501    0 -0.13108831271E+02  0.18156521625E+02  0.44456824731E+02  0.50000000000E+02  0.47000000000E+01 0. -1.
         -5    1    3    3    0  501  0.13108831271E+02 -0.18156521625E+02 -0.44456824731E+02  0.50000000000E+02  0.47000000000E+01 0.  1.
</event>
<event>
 5    1  0.9091923E-001  0.1000000E+03  0.7546771E-02  0.1163815E+00
         11   -1    0    0    0    0  0.00000000000E+00  0.00000000000E+00  0.50000000000E+02  0.50000000000E+02  0.00000000000E+00 0. -1.
        -11   -1    0    0    0    0 -0.00000000000E+00 -0.00000000000E+00 -0.50000000000E+02  0.50000000000E+02  0.00000000000E+00 0.  1.
         23    2    1    2    0    0  0.00000000000E+00  0.00000000000E+00  0.00000000000E+00  0.10000000000E+03  0.10000000000E+03 0.  0.
          5    1    3    3  501    0  0.16233320984E+02 -0.20520599528E+02  0.42347305520E+02  0.50000000000E+02  0.47000000000E+01 0. -1.
         -5    1    3    3    0  501 -0.16233320984E+02  0.20520599528E+02 -0.42347305520E+02  0.50000000000E+02  0.47000000000E+01 0.  1.
</event>
<event>
 5    1  0.9091923E-001  0.1000000E+03  0.7546771E-02  0.1163815E+00
         11   -1    0    0    0    0  0.00000000000E+00  0.00000000000E+00  0.50000000000E+02  0.50000000000E+02  0.00000000000E+00 0. -1.
        -11   -1    0    0    0    0 -0.00000000000E+00 -0.00000000000E+00 -0.50000000000E+02  0.50000000000E+02  0.00000000000E+00 0.  1.
         23    2    1    2    0    0  0.00000000000E+00  0.00000000000E+00  0.00000000000E+00  0.10000000000E+03  0.10000000000E+03 0.  0.
          5    1    3    3  501    0  0.23026996999E+02 -0.44132364524E+02  0.42552393635E-01  0.50000000000E+02  0.47000000000E+01 0. -1.
         -5    1    3    3    0  501 -0.23026996999E+02  0.44132364524E+02 -0.42552393635E-01  0.50000000000E+02  0.47000000000E+01 0.  1.
</event>
<event>
 5    1  0.9091923E-001  0.1000000E+03  0.7546771E-02  0.1163815E+00
         11   -1    0    0    0    0  0.00000000000E+00  0.00000000000E+00  0.50000000000E+02  0.50000000000E+02  0.00000000000E+00 0.  1.
        -11   -1    0    0    0    0 -0.00000000000E+00 -0.00000000000E+00 -0.50000000000E+02  0.50000000000E+02  0.00000000000E+00 0. -1.
         23    2    1    2    0    0  0.00000000000E+00  0.00000000000E+00  0.00000000000E+00  0.10000000000E+03  0.10000000000E+03 0.  0.
          5    1    3    3  501    0  0.13245986461E+02  0.11666126949E+02 -0.46544122343E+02  0.50000000000E+02  0.47000000000E+01 0. -1.
         -5    1    3    3    0  501 -0.13245986461E+02 -0.11666126949E+02  0.46544122343E+02  0.50000000000E+02  0.47000000000E+01 0.  1.
</event>
<event>
 5    1  0.9091923E-001  0.1000000E+03  0.7546771E-02  0.1163815E+00
         11   -1    0    0    0    0  0.00000000000E+00  0.00000000000E+00  0.50000000000E+02  0.50000000000E+02  0.00000000000E+00 0.  1.
        -11   -1    0    0    0    0 -0.00000000000E+00 -0.00000000000E+00 -0.50000000000E+02  0.50000000000E+02  0.00000000000E+00 0. -1.
         23    2    1    2    0    0  0.00000000000E+00  0.00000000000E+00  0.00000000000E+00  0.10000000000E+03  0.10000000000E+03 0.  0.
          5    1    3    3  501    0 -0.23527776324E+02 -0.21631521815E+02 -0.38163215341E+02  0.50000000000E+02  0.47000000000E+01 0. -1.
         -5    1    3    3    0  501  0.23527776324E+02  0.21631521815E+02  0.38163215341E+02  0.50000000000E+02  0.47000000000E+01 0.  1.
</event>
<event>
 5    1  0.9091923E-001  0.1000000E+03  0.7546771E-02  0.1163815E+00
         11   -1    0    0    0    0  0.00000000000E+00  0.00000000000E+00  0.50000000000E+02  0.50000000000E+02  0.00000000000E+00 0. -1.
        -11   -1    0    0    0    0 -0.00000000000E+00 -0.00000000000E+00 -0.50000000000E+02  0.50000000000E+02  0.00000000000E+00 0.  1.
         23    2    1    2    0    0  0.00000000000E+00  0.00000000000E+00  0.00000000000E+00  0.10000000000E+03  0.10000000000E+03 0.  0.
          5    1    3    3  501    0  0.12405689607E+02 -0.17273079888E+02  0.45007216939E+02  0.50000000000E+02  0.47000000000E+01 0. -1.
         -5    1    3    3    0  501 -0.12405689607E+02  0.17273079888E+02 -0.45007216939E+02  0.50000000000E+02  0.47000000000E+01 0.  1.
</event>
<event>
 5    1  0.9091923E-001  0.1000000E+03  0.7546771E-02  0.1163815E+00
         11   -1    0    0    0    0  0.00000000000E+00  0.00000000000E+00  0.50000000000E+02  0.50000000000E+02  0.00000000000E+00 0.  1.
        -11   -1    0    0    0    0 -0.00000000000E+00 -0.00000000000E+00 -0.50000000000E+02  0.50000000000E+02  0.00000000000E+00 0. -1.
         23    2    1    2    0    0  0.00000000000E+00  0.00000000000E+00  0.00000000000E+00  0.10000000000E+03  0.10000000000E+03 0.  0.
          5    1    3    3  501    0 -0.38647609246E+02  0.25064388039E+02 -0.18869254140E+02  0.50000000000E+02  0.47000000000E+01 0. -1.
         -5    1    3    3    0  501  0.38647609246E+02 -0.25064388039E+02  0.18869254140E+02  0.50000000000E+02  0.47000000000E+01 0.  1.
</event>
<event>
 5    1  0.9091923E-001  0.1000000E+03  0.7546771E-02  0.1163815E+00
         11   -1    0    0    0    0  0.00000000000E+00  0.00000000000E+00  0.50000000000E+02  0.50000000000E+02  0.00000000000E+00 0. -1.
        -11   -1    0    0    0    0 -0.00000000000E+00 -0.00000000000E+00 -0.50000000000E+02  0.50000000000E+02  0.00000000000E+00 0.  1.
         23    2    1    2    0    0  0.00000000000E+00  0.00000000000E+00  0.00000000000E+00  0.10000000000E+03  0.10000000000E+03 0.  0.
          5    1    3    3  501    0  0.37648068465E+02  0.29655276556E+02  0.13457247609E+02  0.50000000000E+02  0.47000000000E+01 0. -1.
         -5    1    3    3    0  501 -0.37648068465E+02 -0.29655276556E+02 -0.13457247609E+02  0.50000000000E+02  0.47000000000E+01 0.  1.
</event>
<event>
 5    1  0.9091923E-001  0.1000000E+03  0.7546771E-02  0.1163815E+00
         11   -1    0    0    0    0  0.00000000000E+00  0.00000000000E+00  0.50000000000E+02  0.50000000000E+02  0.00000000000E+00 0. -1.
        -11   -1    0    0    0    0 -0.00000000000E+00 -0.00000000000E+00 -0.50000000000E+02  0.50000000000E+02  0.00000000000E+00 0.  1.
         23    2    1    2    0    0  0.00000000000E+00  0.00000000000E+00  0.00000000000E+00  0.10000000000E+03  0.10000000000E+03 0.  0.
          5    1    3    3  501    0 -0.31199792398E+02  0.19990994811E+02  0.33239179906E+02  0.50000000000E+02  0.47000000000E+01 0. -1.
         -5    1    3    3    0  501  0.31199792398E+02 -0.19990994811E+02 -0.33239179906E+02  0.50000000000E+02  0.47000000000E+01 0.  1.
</event>
<event>
 5    1  0.9091923E-001  0.1000000E+03  0.7546771E-02  0.1163815E+00
         11   -1    0    0    0    0  0.00000000000E+00  0.00000000000E+00  0.50000000000E+02  0.50000000000E+02  0.00000000000E+00 0.  1.
        -11   -1    0    0    0    0 -0.00000000000E+00 -0.00000000000E+00 -0.50000000000E+02  0.50000000000E+02  0.00000000000E+00 0. -1.
         23    2    1    2    0    0  0.00000000000E+00  0.00000000000E+00  0.00000000000E+00  0.10000000000E+03  0.10000000000E+03 0.  0.
          5    1    3    3  501    0  0.94687830440E+01 -0.49103514186E+01 -0.48622428946E+02  0.50000000000E+02  0.47000000000E+01 0. -1.
         -5    1    3    3    0  501 -0.94687830440E+01  0.49103514186E+01  0.48622428946E+02  0.50000000000E+02  0.47000000000E+01 0.  1.
</event>
<event>
 5    1  0.9091923E-001  0.1000000E+03  0.7546771E-02  0.1163815E+00
         11   -1    0    0    0    0  0.00000000000E+00  0.00000000000E+00  0.50000000000E+02  0.50000000000E+02  0.00000000000E+00 0. -1.
        -11   -1    0    0    0    0 -0.00000000000E+00 -0.00000000000E+00 -0.50000000000E+02  0.50000000000E+02  0.00000000000E+00 0.  1.
         23    2    1    2    0    0  0.00000000000E+00  0.00000000000E+00  0.00000000000E+00  0.10000000000E+03  0.10000000000E+03 0.  0.
          5    1    3    3  501    0 -0.40504079815E+02  0.11001307342E+02  0.26763795603E+02  0.50000000000E+02  0.47000000000E+01 0. -1.
         -5    1    3    3    0  501  0.40504079815E+02 -0.11001307342E+02 -0.26763795603E+02  0.50000000000E+02  0.47000000000E+01 0.  1.
</event>
<event>
 5    1  0.9091923E-001  0.1000000E+03  0.7546771E-02  0.1163815E+00
         11   -1    0    0    0    0  0.00000000000E+00  0.00000000000E+00  0.50000000000E+02  0.50000000000E+02  0.00000000000E+00 0. -1.
        -11   -1    0    0    0    0 -0.00000000000E+00 -0.00000000000E+00 -0.50000000000E+02  0.50000000000E+02  0.00000000000E+00 0.  1.
         23    2    1    2    0    0  0.00000000000E+00  0.00000000000E+00  0.00000000000E+00  0.10000000000E+03  0.10000000000E+03 0.  0.
          5    1    3    3  501    0  0.42408953589E+02  0.19495545107E+02  0.17300704507E+02  0.50000000000E+02  0.47000000000E+01 0. -1.
         -5    1    3    3    0  501 -0.42408953589E+02 -0.19495545107E+02 -0.17300704507E+02  0.50000000000E+02  0.47000000000E+01 0.  1.
</event>
<event>
 5    1  0.9091923E-001  0.1000000E+03  0.7546771E-02  0.1163815E+00
         11   -1    0    0    0    0  0.00000000000E+00  0.00000000000E+00  0.50000000000E+02  0.50000000000E+02  0.00000000000E+00 0. -1.
        -11   -1    0    0    0    0 -0.00000000000E+00 -0.00000000000E+00 -0.50000000000E+02  0.50000000000E+02  0.00000000000E+00 0.  1.
         23    2    1    2    0    0  0.00000000000E+00  0.00000000000E+00  0.00000000000E+00  0.10000000000E+03  0.10000000000E+03 0.  0.
          5    1    3    3  501    0 -0.31052661820E+02 -0.38598658669E+02 -0.48770629316E+01  0.50000000000E+02  0.47000000000E+01 0. -1.
         -5    1    3    3    0  501  0.31052661820E+02  0.38598658669E+02  0.48770629316E+01  0.50000000000E+02  0.47000000000E+01 0.  1.
</event>
<event>
 5    1  0.9091923E-001  0.1000000E+03  0.7546771E-02  0.1163815E+00
         11   -1    0    0    0    0  0.00000000000E+00  0.00000000000E+00  0.50000000000E+02  0.50000000000E+02  0.00000000000E+00 0. -1.
        -11   -1    0    0    0    0 -0.00000000000E+00 -0.00000000000E+00 -0.50000000000E+02  0.50000000000E+02  0.00000000000E+00 0.  1.
         23    2    1    2    0    0  0.00000000000E+00  0.00000000000E+00  0.00000000000E+00  0.10000000000E+03  0.10000000000E+03 0.  0.
          5    1    3    3  501    0  0.18632101216E+02 -0.16346687659E+01  0.46131146336E+02  0.50000000000E+02  0.47000000000E+01 0. -1.
         -5    1    3    3    0  501 -0.18632101216E+02  0.16346687659E+01 -0.46131146336E+02  0.50000000000E+02  0.47000000000E+01 0.  1.
</event>
<event>
 5    1  0.9091923E-001  0.1000000E+03  0.7546771E-02  0.1163815E+00
         11   -1    0    0    0    0  0.00000000000E+00  0.00000000000E+00  0.50000000000E+02  0.50000000000E+02  0.00000000000E+00 0.  1.
        -11   -1    0    0    0    0 -0.00000000000E+00 -0.00000000000E+00 -0.50000000000E+02  0.50000000000E+02  0.00000000000E+00 0. -1.
         23    2    1    2    0    0  0.00000000000E+00  0.00000000000E+00  0.00000000000E+00  0.10000000000E+03  0.10000000000E+03 0.  0.
          5    1    3    3  501    0  0.26291027929E+02  0.15915425054E+02 -0.39158537968E+02  0.50000000000E+02  0.47000000000E+01 0. -1.
         -5    1    3    3    0  501 -0.26291027929E+02 -0.15915425054E+02  0.39158537968E+02  0.50000000000E+02  0.47000000000E+01 0.  1.
</event>
<event>
 5    1  0.9091923E-001  0.1000000E+03  0.7546771E-02  0.1163815E+00
         11   -1    0    0    0    0  0.00000000000E+00  0.00000000000E+00  0.50000000000E+02  0.50000000000E+02  0.00000000000E+00 0.  1.
        -11   -1    0    0    0    0 -0.00000000000E+00 -0.00000000000E+00 -0.50000000000E+02  0.50000000000E+02  0.00000000000E+00 0. -1.
         23    2    1    2    0    0  0.00000000000E+00  0.00000000000E+00  0.00000000000E+00  0.10000000000E+03  0.10000000000E+03 0.  0.
          5    1    3    3  501    0  0.25736115451E+02  0.92902519584E+01 -0.41584294872E+02  0.50000000000E+02  0.47000000000E+01 0. -1.
         -5    1    3    3    0  501 -0.25736115451E+02 -0.92902519584E+01  0.41584294872E+02  0.50000000000E+02  0.47000000000E+01 0.  1.
</event>
<event>
 5    1  0.9091923E-001  0.1000000E+03  0.7546771E-02  0.1163815E+00
         11   -1    0    0    0    0  0.00000000000E+00  0.00000000000E+00  0.50000000000E+02  0.50000000000E+02  0.00000000000E+00 0. -1.
        -11   -1    0    0    0    0 -0.00000000000E+00 -0.00000000000E+00 -0.50000000000E+02  0.50000000000E+02  0.00000000000E+00 0.  1.
         23    2    1    2    0    0  0.00000000000E+00  0.00000000000E+00  0.00000000000E+00  0.10000000000E+03  0.10000000000E+03 0.  0.
          5    1    3    3  501    0 -0.45807961727E+02 -0.77959767547E+01  0.17853946032E+02  0.50000000000E+02  0.47000000000E+01 0. -1.
         -5    1    3    3    0  501  0.45807961727E+02  0.77959767547E+01 -0.17853946032E+02  0.50000000000E+02  0.47000000000E+01 0.  1.
</event>
<event>
 5    1  0.9091923E-001  0.1000000E+03  0.7546771E-02  0.1163815E+00
         11   -1    0    0    0    0  0.00000000000E+00  0.00000000000E+00  0.50000000000E+02  0.50000000000E+02  0.00000000000E+00 0.  1.
        -11   -1    0    0    0    0 -0.00000000000E+00 -0.00000000000E+00 -0.50000000000E+02  0.50000000000E+02  0.00000000000E+00 0. -1.
         23    2    1    2    0    0  0.00000000000E+00  0.00000000000E+00  0.00000000000E+00  0.10000000000E+03  0.10000000000E+03 0.  0.
          5    1    3    3  501    0  0.20177113767E+02 -0.76662625783E+01 -0.44855573769E+02  0.50000000000E+02  0.47000000000E+01 0. -1.
         -5    1    3    3    0  501 -0.20177113767E+02  0.76662625783E+01  0.44855573769E+02  0.50000000000E+02  0.47000000000E+01 0.  1.
</event>
<event>
 5    1  0.9091923E-001  0.1000000E+03  0.7546771E-02  0.1163815E+00
         11   -1    0    0    0    0  0.00000000000E+00  0.00000000000E+00  0.50000000000E+02  0.50000000000E+02  0.00000000000E+00 0. -1.
        -11   -1    0    0    0    0 -0.00000000000E+00 -0.00000000000E+00 -0.50000000000E+02  0.50000000000E+02  0.00000000000E+00 0.  1.
         23    2    1    2    0    0  0.00000000000E+00  0.00000000000E+00  0.00000000000E+00  0.10000000000E+03  0.10000000000E+03 0.  0.
          5    1    3    3  501    0  0.27615656087E+02  0.41389276022E+02 -0.14877396549E+01  0.50000000000E+02  0.47000000000E+01 0.  1.
         -5    1    3    3    0  501 -0.27615656087E+02 -0.41389276022E+02  0.14877396549E+01  0.50000000000E+02  0.47000000000E+01 0. -1.
</event>
<event>
 5    1  0.9091923E-001  0.1000000E+03  0.7546771E-02  0.1163815E+00
         11   -1    0    0    0    0  0.00000000000E+00  0.00000000000E+00  0.50000000000E+02  0.50000000000E+02  0.00000000000E+00 0. -1.
        -11   -1    0    0    0    0 -0.00000000000E+00 -0.00000000000E+00 -0.50000000000E+02  0.50000000000E+02  0.00000000000E+00 0.  1.
         23    2    1    2    0    0  0.00000000000E+00  0.00000000000E+00  0.00000000000E+00  0.10000000000E+03  0.10000000000E+03 0.  0.
          5    1    3    3  501    0  0.10163115221E+02 -0.40912483063E+02  0.26472435072E+02  0.50000000000E+02  0.47000000000E+01 0. -1.
         -5    1    3    3    0  501 -0.10163115221E+02  0.40912483063E+02 -0.26472435072E+02  0.50000000000E+02  0.47000000000E+01 0.  1.
</event>
<event>
 5    1  0.9091923E-001  0.1000000E+03  0.7546771E-02  0.1163815E+00
         11   -1    0    0    0    0  0.00000000000E+00  0.00000000000E+00  0.50000000000E+02  0.50000000000E+02  0.00000000000E+00 0. -1.
        -11   -1    0    0    0    0 -0.00000000000E+00 -0.00000000000E+00 -0.50000000000E+02  0.50000000000E+02  0.00000000000E+00 0.  1.
         23    2    1    2    0    0  0.00000000000E+00  0.00000000000E+00  0.00000000000E+00  0.10000000000E+03  0.10000000000E+03 0.  0.
          5    1    3    3  501    0 -0.34729903234E+02  0.28905866023E+02  0.20885275455E+02  0.50000000000E+02  0.47000000000E+01 0. -1.
         -5    1    3    3    0  501  0.34729903234E+02 -0.28905866023E+02 -0.20885275455E+02  0.50000000000E+02  0.47000000000E+01 0.  1.
</event>
<event>
 5    1  0.9091923E-001  0.1000000E+03  0.7546771E-02  0.1163815E+00
         11   -1    0    0    0    0  0.00000000000E+00  0.00000000000E+00  0.50000000000E+02  0.50000000000E+02  0.00000000000E+00 0. -1.
        -11   -1    0    0    0    0 -0.00000000000E+00 -0.00000000000E+00 -0.50000000000E+02  0.50000000000E+02  0.00000000000E+00 0.  1.
         23    2    1    2    0    0  0.00000000000E+00  0.00000000000E+00  0.00000000000E+00  0.10000000000E+03  0.10000000000E+03 0.  0.
          5    1    3    3  501    0 -0.83886330314E+01 -0.69718524996E+01  0.48568859453E+02  0.50000000000E+02  0.47000000000E+01 0. -1.
         -5    1    3    3    0  501  0.83886330314E+01  0.69718524996E+01 -0.48568859453E+02  0.50000000000E+02  0.47000000000E+01 0.  1.
</event>
<event>
 5    1  0.9091923E-001  0.1000000E+03  0.7546771E-02  0.1163815E+00
         11   -1    0    0    0    0  0.00000000000E+00  0.00000000000E+00  0.50000000000E+02  0.50000000000E+02  0.00000000000E+00 0. -1.
        -11   -1    0    0    0    0 -0.00000000000E+00 -0.00000000000E+00 -0.50000000000E+02  0.50000000000E+02  0.00000000000E+00 0.  1.
         23    2    1    2    0    0  0.00000000000E+00  0.00000000000E+00  0.00000000000E+00  0.10000000000E+03  0.10000000000E+03 0.  0.
          5    1    3    3  501    0 -0.12850643152E+02  0.50657048289E+01  0.47823734747E+02  0.50000000000E+02  0.47000000000E+01 0. -1.
         -5    1    3    3    0  501  0.12850643152E+02 -0.50657048289E+01 -0.47823734747E+02  0.50000000000E+02  0.47000000000E+01 0.  1.
</event>
<event>
 5    1  0.9091923E-001  0.1000000E+03  0.7546771E-02  0.1163815E+00
         11   -1    0    0    0    0  0.00000000000E+00  0.00000000000E+00  0.50000000000E+02  0.50000000000E+02  0.00000000000E+00 0.  1.
        -11   -1    0    0    0    0 -0.00000000000E+00 -0.00000000000E+00 -0.50000000000E+02  0.50000000000E+02  0.00000000000E+00 0. -1.
         23    2    1    2    0    0  0.00000000000E+00  0.00000000000E+00  0.00000000000E+00  0.10000000000E+03  0.10000000000E+03 0.  0.
          5    1    3    3  501    0  0.37212179331E+02  0.27428409002E+02 -0.18462017469E+02  0.50000000000E+02  0.47000000000E+01 0. -1.
         -5    1    3    3    0  501 -0.37212179331E+02 -0.27428409002E+02  0.18462017469E+02  0.50000000000E+02  0.47000000000E+01 0.  1.
</event>
<event>
 5    1  0.9091923E-001  0.1000000E+03  0.7546771E-02  0.1163815E+00
         11   -1    0    0    0    0  0.00000000000E+00  0.00000000000E+00  0.50000000000E+02  0.50000000000E+02  0.00000000000E+00 0. -1.
        -11   -1    0    0    0    0 -0.00000000000E+00 -0.00000000000E+00 -0.50000000000E+02  0.50000000000E+02  0.00000000000E+00 0.  1.
         23    2    1    2    0    0  0.00000000000E+00  0.00000000000E+00  0.00000000000E+00  0.10000000000E+03  0.10000000000E+03 0.  0.
          5    1    3    3  501    0  0.36726412012E+02 -0.29691431665E+02  0.15732118305E+02  0.50000000000E+02  0.47000000000E+01 0. -1.
         -5    1    3    3    0  501 -0.36726412012E+02  0.29691431665E+02 -0.15732118305E+02  0.50000000000E+02  0.47000000000E+01 0.  1.
</event>
<event>
 5    1  0.9091923E-001  0.1000000E+03  0.7546771E-02  0.1163815E+00
         11   -1    0    0    0    0  0.00000000000E+00  0.00000000000E+00  0.50000000000E+02  0.50000000000E+02  0.00000000000E+00 0. -1.
        -11   -1    0    0    0    0 -0.00000000000E+00 -0.00000000000E+00 -0.50000000000E+02  0.50000000000E+02  0.00000000000E+00 0.  1.
         23    2    1    2    0    0  0.00000000000E+00  0.00000000000E+00  0.00000000000E+00  0.10000000000E+03  0.10000000000E+03 0.  0.
          5    1    3    3  501    0 -0.26703476554E+02  0.95436211866E+01  0.40911534248E+02  0.50000000000E+02  0.47000000000E+01 0. -1.
         -5    1    3    3    0  501  0.26703476554E+02 -0.95436211866E+01 -0.40911534248E+02  0.50000000000E+02  0.47000000000E+01 0.  1.
</event>
<event>
 5    1  0.9091923E-001  0.1000000E+03  0.7546771E-02  0.1163815E+00
         11   -1    0    0    0    0  0.00000000000E+00  0.00000000000E+00  0.50000000000E+02  0.50000000000E+02  0.00000000000E+00 0. -1.
        -11   -1    0    0    0    0 -0.00000000000E+00 -0.00000000000E+00 -0.50000000000E+02  0.50000000000E+02  0.00000000000E+00 0.  1.
         23    2    1    2    0    0  0.00000000000E+00  0.00000000000E+00  0.00000000000E+00  0.10000000000E+03  0.10000000000E+03 0.  0.
          5    1    3    3  501    0 -0.47622856138E+02  0.67973062730E+01  0.12797273176E+02  0.50000000000E+02  0.47000000000E+01 0. -1.
         -5    1    3    3    0  501  0.47622856138E+02 -0.67973062730E+01 -0.12797273176E+02  0.50000000000E+02  0.47000000000E+01 0.  1.
</event>
<event>
 5    1  0.9091923E-001  0.1000000E+03  0.7546771E-02  0.1163815E+00
         11   -1    0    0    0    0  0.00000000000E+00  0.00000000000E+00  0.50000000000E+02  0.50000000000E+02  0.00000000000E+00 0. -1.
        -11   -1    0    0    0    0 -0.00000000000E+00 -0.00000000000E+00 -0.50000000000E+02  0.50000000000E+02  0.00000000000E+00 0.  1.
         23    2    1    2    0    0  0.00000000000E+00  0.00000000000E+00  0.00000000000E+00  0.10000000000E+03  0.10000000000E+03 0.  0.
          5    1    3    3  501    0  0.16000292665E+02  0.46413686760E+02  0.82261969318E+01  0.50000000000E+02  0.47000000000E+01 0. -1.
         -5    1    3    3    0  501 -0.16000292665E+02 -0.46413686760E+02 -0.82261969318E+01  0.50000000000E+02  0.47000000000E+01 0.  1.
</event>
<event>
 5    1  0.9091923E-001  0.1000000E+03  0.7546771E-02  0.1163815E+00
         11   -1    0    0    0    0  0.00000000000E+00  0.00000000000E+00  0.50000000000E+02  0.50000000000E+02  0.00000000000E+00 0. -1.
        -11   -1    0    0    0    0 -0.00000000000E+00 -0.00000000000E+00 -0.50000000000E+02  0.50000000000E+02  0.00000000000E+00 0.  1.
         23    2    1    2    0    0  0.00000000000E+00  0.00000000000E+00  0.00000000000E+00  0.10000000000E+03  0.10000000000E+03 0.  0.
          5    1    3    3  501    0  0.26964896354E+02  0.16612793291E+01  0.41809622285E+02  0.50000000000E+02  0.47000000000E+01 0. -1.
         -5    1    3    3    0  501 -0.26964896354E+02 -0.16612793291E+01 -0.41809622285E+02  0.50000000000E+02  0.47000000000E+01 0.  1.
</event>
<event>
 5    1  0.9091923E-001  0.1000000E+03  0.7546771E-02  0.1163815E+00
         11   -1    0    0    0    0  0.00000000000E+00  0.00000000000E+00  0.50000000000E+02  0.50000000000E+02  0.00000000000E+00 0.  1.
        -11   -1    0    0    0    0 -0.00000000000E+00 -0.00000000000E+00 -0.50000000000E+02  0.50000000000E+02  0.00000000000E+00 0. -1.
         23    2    1    2    0    0  0.00000000000E+00  0.00000000000E+00  0.00000000000E+00  0.10000000000E+03  0.10000000000E+03 0.  0.
          5    1    3    3  501    0  0.38350406429E+02 -0.83495079277E+01 -0.30617675354E+02  0.50000000000E+02  0.47000000000E+01 0. -1.
         -5    1    3    3    0  501 -0.38350406429E+02  0.83495079277E+01  0.30617675354E+02  0.50000000000E+02  0.47000000000E+01 0.  1.
</event>
<event>
 5    1  0.9091923E-001  0.1000000E+03  0.7546771E-02  0.1163815E+00
         11   -1    0    0    0    0  0.00000000000E+00  0.00000000000E+00  0.50000000000E+02  0.50000000000E+02  0.00000000000E+00 0.  1.
        -11   -1    0    0    0    0 -0.00000000000E+00 -0.00000000000E+00 -0.50000000000E+02  0.50000000000E+02  0.00000000000E+00 0. -1.
         23    2    1    2    0    0  0.00000000000E+00  0.00000000000E+00  0.00000000000E+00  0.10000000000E+03  0.10000000000E+03 0.  0.
          5    1    3    3  501    0  0.19748714068E+01 -0.32904961480E+02 -0.37299777384E+02  0.50000000000E+02  0.47000000000E+01 0. -1.
         -5    1    3    3    0  501 -0.19748714068E+01  0.32904961480E+02  0.37299777384E+02  0.50000000000E+02  0.47000000000E+01 0.  1.
</event>
<event>
 5    1  0.9091923E-001  0.1000000E+03  0.7546771E-02  0.1163815E+00
         11   -1    0    0    0    0  0.00000000000E+00  0.00000000000E+00  0.50000000000E+02  0.50000000000E+02  0.00000000000E+00 0. -1.
        -11   -1    0    0    0    0 -0.00000000000E+00 -0.00000000000E+00 -0.50000000000E+02  0.50000000000E+02  0.00000000000E+00 0.  1.
         23    2    1    2    0    0  0.00000000000E+00  0.00000000000E+00  0.00000000000E+00  0.10000000000E+03  0.10000000000E+03 0.  0.
          5    1    3    3  501    0 -0.23111091354E+02 -0.38497769833E+02  0.21487418979E+02  0.50000000000E+02  0.47000000000E+01 0. -1.
         -5    1    3    3    0  501  0.23111091354E+02  0.38497769833E+02 -0.21487418979E+02  0.50000000000E+02  0.47000000000E+01 0.  1.
</event>
<event>
 5    1  0.9091923E-001  0.1000000E+03  0.7546771E-02  0.1163815E+00
         11   -1    0    0    0    0  0.00000000000E+00  0.00000000000E+00  0.50000000000E+02  0.50000000000E+02  0.00000000000E+00 0.  1.
        -11   -1    0    0    0    0 -0.00000000000E+00 -0.00000000000E+00 -0.50000000000E+02  0.50000000000E+02  0.00000000000E+00 0. -1.
         23    2    1    2    0    0  0.00000000000E+00  0.00000000000E+00  0.00000000000E+00  0.10000000000E+03  0.10000000000E+03 0.  0.
          5    1    3    3  501    0  0.35684150877E+02 -0.20706353637E+02 -0.27853155930E+02  0.50000000000E+02  0.47000000000E+01 0. -1.
         -5    1    3    3    0  501 -0.35684150877E+02  0.20706353637E+02  0.27853155930E+02  0.50000000000E+02  0.47000000000E+01 0.  1.
</event>
<event>
 5    1  0.9091923E-001  0.1000000E+03  0.7546771E-02  0.1163815E+00
         11   -1    0    0    0    0  0.00000000000E+00  0.00000000000E+00  0.50000000000E+02  0.50000000000E+02  0.00000000000E+00 0.  1.
        -11   -1    0    0    0    0 -0.00000000000E+00 -0.00000000000E+00 -0.50000000000E+02  0.50000000000E+02  0.00000000000E+00 0. -1.
         23    2    1    2    0    0  0.00000000000E+00  0.00000000000E+00  0.00000000000E+00  0.10000000000E+03  0.10000000000E+03 0.  0.
          5    1    3    3  501    0 -0.36451392363E+02  0.26241022337E+02 -0.21461937041E+02  0.50000000000E+02  0.47000000000E+01 0. -1.
         -5    1    3    3    0  501  0.36451392363E+02 -0.26241022337E+02  0.21461937041E+02  0.50000000000E+02  0.47000000000E+01 0.  1.
</event>
<event>
 5    1  0.9091923E-001  0.1000000E+03  0.7546771E-02  0.1163815E+00
         11   -1    0    0    0    0  0.00000000000E+00  0.00000000000E+00  0.50000000000E+02  0.50000000000E+02  0.00000000000E+00 0. -1.
        -11   -1    0    0    0    0 -0.00000000000E+00 -0.00000000000E+00 -0.50000000000E+02  0.50000000000E+02  0.00000000000E+00 0.  1.
         23    2    1    2    0    0  0.00000000000E+00  0.00000000000E+00  0.00000000000E+00  0.10000000000E+03  0.10000000000E+03 0.  0.
          5    1    3    3  501    0  0.26660760505E+02 -0.41855317391E+02  0.39046453645E+01  0.50000000000E+02  0.47000000000E+01 0. -1.
         -5    1    3    3    0  501 -0.26660760505E+02  0.41855317391E+02 -0.39046453645E+01  0.50000000000E+02  0.47000000000E+01 0.  1.
</event>
<event>
 5    1  0.9091923E-001  0.1000000E+03  0.7546771E-02  0.1163815E+00
         11   -1    0    0    0    0  0.00000000000E+00  0.00000000000E+00  0.50000000000E+02  0.50000000000E+02  0.00000000000E+00 0. -1.
        -11   -1    0    0    0    0 -0.00000000000E+00 -0.00000000000E+00 -0.50000000000E+02  0.50000000000E+02  0.00000000000E+00 0.  1.
         23    2    1    2    0    0  0.00000000000E+00  0.00000000000E+00  0.00000000000E+00  0.10000000000E+03  0.10000000000E+03 0.  0.
          5    1    3    3  501    0  0.41786249872E+02 -0.55315000125E+01 -0.26480593446E+02  0.50000000000E+02  0.47000000000E+01 0. -1.
         -5    1    3    3    0  501 -0.41786249872E+02  0.55315000125E+01  0.26480593446E+02  0.50000000000E+02  0.47000000000E+01 0.  1.
</event>
<event>
 5    1  0.9091923E-001  0.1000000E+03  0.7546771E-02  0.1163815E+00
         11   -1    0    0    0    0  0.00000000000E+00  0.00000000000E+00  0.50000000000E+02  0.50000000000E+02  0.00000000000E+00 0.  1.
        -11   -1    0    0    0    0 -0.00000000000E+00 -0.00000000000E+00 -0.50000000000E+02  0.50000000000E+02  0.00000000000E+00 0. -1.
         23    2    1    2    0    0  0.00000000000E+00  0.00000000000E+00  0.00000000000E+00  0.10000000000E+03  0.10000000000E+03 0.  0.
          5    1    3    3  501    0 -0.19451190122E+01 -0.10196427470E+02 -0.48684282668E+02  0.50000000000E+02  0.47000000000E+01 0. -1.
         -5    1    3    3    0  501  0.19451190122E+01  0.10196427470E+02  0.48684282668E+02  0.50000000000E+02  0.47000000000E+01 0.  1.
</event>
<event>
 5    1  0.9091923E-001  0.1000000E+03  0.7546771E-02  0.1163815E+00
         11   -1    0    0    0    0  0.00000000000E+00  0.00000000000E+00  0.50000000000E+02  0.50000000000E+02  0.00000000000E+00 0. -1.
        -11   -1    0    0    0    0 -0.00000000000E+00 -0.00000000000E+00 -0.50000000000E+02  0.50000000000E+02  0.00000000000E+00 0.  1.
         23    2    1    2    0    0  0.00000000000E+00  0.00000000000E+00  0.00000000000E+00  0.10000000000E+03  0.10000000000E+03 0.  0.
          5    1    3    3  501    0  0.38549402763E+02  0.62438610443E+01  0.30868555941E+02  0.50000000000E+02  0.47000000000E+01 0. -1.
         -5    1    3    3    0  501 -0.38549402763E+02 -0.62438610443E+01 -0.30868555941E+02  0.50000000000E+02  0.47000000000E+01 0.  1.
</event>
<event>
 5    1  0.9091923E-001  0.1000000E+03  0.7546771E-02  0.1163815E+00
         11   -1    0    0    0    0  0.00000000000E+00  0.00000000000E+00  0.50000000000E+02  0.50000000000E+02  0.00000000000E+00 0.  1.
        -11   -1    0    0    0    0 -0.00000000000E+00 -0.00000000000E+00 -0.50000000000E+02  0.50000000000E+02  0.00000000000E+00 0. -1.
         23    2    1    2    0    0  0.00000000000E+00  0.00000000000E+00  0.00000000000E+00  0.10000000000E+03  0.10000000000E+03 0.  0.
          5    1    3    3  501    0  0.23682762054E+02  0.31784477141E+02 -0.30112850983E+02  0.50000000000E+02  0.47000000000E+01 0. -1.
         -5    1    3    3    0  501 -0.23682762054E+02 -0.31784477141E+02  0.30112850983E+02  0.50000000000E+02  0.47000000000E+01 0.  1.
</event>
<event>
 5    1  0.9091923E-001  0.1000000E+03  0.7546771E-02  0.1163815E+00
         11   -1    0    0    0    0  0.00000000000E+00  0.00000000000E+00  0.50000000000E+02  0.50000000000E+02  0.00000000000E+00 0.  1.
        -11   -1    0    0    0    0 -0.00000000000E+00 -0.00000000000E+00 -0.50000000000E+02  0.50000000000E+02  0.00000000000E+00 0. -1.
         23    2    1    2    0    0  0.00000000000E+00  0.00000000000E+00  0.00000000000E+00  0.10000000000E+03  0.10000000000E+03 0.  0.
          5    1    3    3  501    0  0.40155262277E+02 -0.62904694595E+01 -0.28738387314E+02  0.50000000000E+02  0.47000000000E+01 0. -1.
         -5    1    3    3    0  501 -0.40155262277E+02  0.62904694595E+01  0.28738387314E+02  0.50000000000E+02  0.47000000000E+01 0.  1.
</event>
<event>
 5    1  0.9091923E-001  0.1000000E+03  0.7546771E-02  0.1163815E+00
         11   -1    0    0    0    0  0.00000000000E+00  0.00000000000E+00  0.50000000000E+02  0.50000000000E+02  0.00000000000E+00 0. -1.
        -11   -1    0    0    0    0 -0.00000000000E+00 -0.00000000000E+00 -0.50000000000E+02  0.50000000000E+02  0.00000000000E+00 0.  1.
         23    2    1    2    0    0  0.00000000000E+00  0.00000000000E+00  0.00000000000E+00  0.10000000000E+03  0.10000000000E+03 0.  0.
          5    1    3    3  501    0  0.33304999450E+01 -0.10024741670E+02  0.48644859179E+02  0.50000000000E+02  0.47000000000E+01 0. -1.
         -5    1    3    3    0  501 -0.33304999450E+01  0.10024741670E+02 -0.48644859179E+02  0.50000000000E+02  0.47000000000E+01 0.  1.
</event>
<event>
 5    1  0.9091923E-001  0.1000000E+03  0.7546771E-02  0.1163815E+00
         11   -1    0    0    0    0  0.00000000000E+00  0.00000000000E+00  0.50000000000E+02  0.50000000000E+02  0.00000000000E+00 0.  1.
        -11   -1    0    0    0    0 -0.00000000000E+00 -0.00000000000E+00 -0.50000000000E+02  0.50000000000E+02  0.00000000000E+00 0. -1.
         23    2    1    2    0    0  0.00000000000E+00  0.00000000000E+00  0.00000000000E+00  0.10000000000E+03  0.10000000000E+03 0.  0.
          5    1    3    3  501    0  0.15521666978E+02 -0.30186390028E+02 -0.36411120710E+02  0.50000000000E+02  0.47000000000E+01 0. -1.
         -5    1    3    3    0  501 -0.15521666978E+02  0.30186390028E+02  0.36411120710E+02  0.50000000000E+02  0.47000000000E+01 0.  1.
</event>
<event>
 5    1  0.9091923E-001  0.1000000E+03  0.7546771E-02  0.1163815E+00
         11   -1    0    0    0    0  0.00000000000E+00  0.00000000000E+00  0.50000000000E+02  0.50000000000E+02  0.00000000000E+00 0. -1.
        -11   -1    0    0    0    0 -0.00000000000E+00 -0.00000000000E+00 -0.50000000000E+02  0.50000000000E+02  0.00000000000E+00 0.  1.
         23    2    1    2    0    0  0.00000000000E+00  0.00000000000E+00  0.00000000000E+00  0.10000000000E+03  0.10000000000E+03 0.  0.
          5    1    3    3  501    0 -0.32606767762E+02 -0.51054367936E+01  0.37264503368E+02  0.50000000000E+02  0.47000000000E+01 0. -1.
         -5    1    3    3    0  501  0.32606767762E+02  0.51054367936E+01 -0.37264503368E+02  0.50000000000E+02  0.47000000000E+01 0.  1.
</event>
<event>
 5    1  0.9091923E-001  0.1000000E+03  0.7546771E-02  0.1163815E+00
         11   -1    0    0    0    0  0.00000000000E+00  0.00000000000E+00  0.50000000000E+02  0.50000000000E+02  0.00000000000E+00 0. -1.
        -11   -1    0    0    0    0 -0.00000000000E+00 -0.00000000000E+00 -0.50000000000E+02  0.50000000000E+02  0.00000000000E+00 0.  1.
         23    2    1    2    0    0  0.00000000000E+00  0.00000000000E+00  0.00000000000E+00  0.10000000000E+03  0.10000000000E+03 0.  0.
          5    1    3    3  501    0 -0.17288042656E+02 -0.24608086673E+02  0.39667060030E+02  0.50000000000E+02  0.47000000000E+01 0. -1.
         -5    1    3    3    0  501  0.17288042656E+02  0.24608086673E+02 -0.39667060030E+02  0.50000000000E+02  0.47000000000E+01 0.  1.
</event>
<event>
 5    1  0.9091923E-001  0.1000000E+03  0.7546771E-02  0.1163815E+00
         11   -1    0    0    0    0  0.00000000000E+00  0.00000000000E+00  0.50000000000E+02  0.50000000000E+02  0.00000000000E+00 0. -1.
        -11   -1    0    0    0    0 -0.00000000000E+00 -0.00000000000E+00 -0.50000000000E+02  0.50000000000E+02  0.00000000000E+00 0.  1.
         23    2    1    2    0    0  0.00000000000E+00  0.00000000000E+00  0.00000000000E+00  0.10000000000E+03  0.10000000000E+03 0.  0.
          5    1    3    3  501    0 -0.81188354186E+01  0.34746375306E+02  0.34708556791E+02  0.50000000000E+02  0.47000000000E+01 0. -1.
         -5    1    3    3    0  501  0.81188354186E+01 -0.34746375306E+02 -0.34708556791E+02  0.50000000000E+02  0.47000000000E+01 0.  1.
</event>
<event>
 5    1  0.9091923E-001  0.1000000E+03  0.7546771E-02  0.1163815E+00
         11   -1    0    0    0    0  0.00000000000E+00  0.00000000000E+00  0.50000000000E+02  0.50000000000E+02  0.00000000000E+00 0.  1.
        -11   -1    0    0    0    0 -0.00000000000E+00 -0.00000000000E+00 -0.50000000000E+02  0.50000000000E+02  0.00000000000E+00 0. -1.
         23    2    1    2    0    0  0.00000000000E+00  0.00000000000E+00  0.00000000000E+00  0.10000000000E+03  0.10000000000E+03 0.  0.
          5    1    3    3  501    0 -0.36343418151E+02  0.32525571250E+02  0.99575685749E+01  0.50000000000E+02  0.47000000000E+01 0. -1.
         -5    1    3    3    0  501  0.36343418151E+02 -0.32525571250E+02 -0.99575685749E+01  0.50000000000E+02  0.47000000000E+01 0.  1.
</event>
<event>
 5    1  0.9091923E-001  0.1000000E+03  0.7546771E-02  0.1163815E+00
         11   -1    0    0    0    0  0.00000000000E+00  0.00000000000E+00  0.50000000000E+02  0.50000000000E+02  0.00000000000E+00 0. -1.
        -11   -1    0    0    0    0 -0.00000000000E+00 -0.00000000000E+00 -0.50000000000E+02  0.50000000000E+02  0.00000000000E+00 0.  1.
         23    2    1    2    0    0  0.00000000000E+00  0.00000000000E+00  0.00000000000E+00  0.10000000000E+03  0.10000000000E+03 0.  0.
          5    1    3    3  501    0 -0.45166426883E+02  0.12684101435E+02  0.16643841307E+02  0.50000000000E+02  0.47000000000E+01 0. -1.
         -5    1    3    3    0  501  0.45166426883E+02 -0.12684101435E+02 -0.16643841307E+02  0.50000000000E+02  0.47000000000E+01 0.  1.
</event>
<event>
 5    1  0.9091923E-001  0.1000000E+03  0.7546771E-02  0.1163815E+00
         11   -1    0    0    0    0  0.00000000000E+00  0.00000000000E+00  0.50000000000E+02  0.50000000000E+02  0.00000000000E+00 0. -1.
        -11   -1    0    0    0    0 -0.00000000000E+00 -0.00000000000E+00 -0.50000000000E+02  0.50000000000E+02  0.00000000000E+00 0.  1.
         23    2    1    2    0    0  0.00000000000E+00  0.00000000000E+00  0.00000000000E+00  0.10000000000E+03  0.10000000000E+03 0.  0.
          5    1    3    3  501    0 -0.51704257242E+01 -0.31038977584E+02  0.38571473505E+02  0.50000000000E+02  0.47000000000E+01 0. -1.
         -5    1    3    3    0  501  0.51704257242E+01  0.31038977584E+02 -0.38571473505E+02  0.50000000000E+02  0.47000000000E+01 0.  1.
</event>
<event>
 5    1  0.9091923E-001  0.1000000E+03  0.7546771E-02  0.1163815E+00
         11   -1    0    0    0    0  0.00000000000E+00  0.00000000000E+00  0.50000000000E+02  0.50000000000E+02  0.00000000000E+00 0. -1.
        -11   -1    0    0    0    0 -0.00000000000E+00 -0.00000000000E+00 -0.50000000000E+02  0.50000000000E+02  0.00000000000E+00 0.  1.
         23    2    1    2    0    0  0.00000000000E+00  0.00000000000E+00  0.00000000000E+00  0.10000000000E+03  0.10000000000E+03 0.  0.
          5    1    3    3  501    0  0.13467968423E+02  0.42014235711E+02 -0.23050549325E+02  0.50000000000E+02  0.47000000000E+01 0. -1.
         -5    1    3    3    0  501 -0.13467968423E+02 -0.42014235711E+02  0.23050549325E+02  0.50000000000E+02  0.47000000000E+01 0.  1.
</event>
<event>
 5    1  0.9091923E-001  0.1000000E+03  0.7546771E-02  0.1163815E+00
         11   -1    0    0    0    0  0.00000000000E+00  0.00000000000E+00  0.50000000000E+02  0.50000000000E+02  0.00000000000E+00 0. -1.
        -11   -1    0    0    0    0 -0.00000000000E+00 -0.00000000000E+00 -0.50000000000E+02  0.50000000000E+02  0.00000000000E+00 0.  1.
         23    2    1    2    0    0  0.00000000000E+00  0.00000000000E+00  0.00000000000E+00  0.10000000000E+03  0.10000000000E+03 0.  0.
          5    1    3    3  501    0 -0.10047791852E+02 -0.48110696142E+02  0.78938454258E+01  0.50000000000E+02  0.47000000000E+01 0. -1.
         -5    1    3    3    0  501  0.10047791852E+02  0.48110696142E+02 -0.78938454258E+01  0.50000000000E+02  0.47000000000E+01 0.  1.
</event>
<event>
 5    1  0.9091923E-001  0.1000000E+03  0.7546771E-02  0.1163815E+00
         11   -1    0    0    0    0  0.00000000000E+00  0.00000000000E+00  0.50000000000E+02  0.50000000000E+02  0.00000000000E+00 0.  1.
        -11   -1    0    0    0    0 -0.00000000000E+00 -0.00000000000E+00 -0.50000000000E+02  0.50000000000E+02  0.00000000000E+00 0. -1.
         23    2    1    2    0    0  0.00000000000E+00  0.00000000000E+00  0.00000000000E+00  0.10000000000E+03  0.10000000000E+03 0.  0.
          5    1    3    3  501    0 -0.26116892567E+02 -0.16643549267E+02 -0.38971915407E+02  0.50000000000E+02  0.47000000000E+01 0. -1.
         -5    1    3    3    0  501  0.26116892567E+02  0.16643549267E+02  0.38971915407E+02  0.50000000000E+02  0.47000000000E+01 0.  1.
</event>
<event>
 5    1  0.9091923E-001  0.1000000E+03  0.7546771E-02  0.1163815E+00
         11   -1    0    0    0    0  0.00000000000E+00  0.00000000000E+00  0.50000000000E+02  0.50000000000E+02  0.00000000000E+00 0. -1.
        -11   -1    0    0    0    0 -0.00000000000E+00 -0.00000000000E+00 -0.50000000000E+02  0.50000000000E+02  0.00000000000E+00 0.  1.
         23    2    1    2    0    0  0.00000000000E+00  0.00000000000E+00  0.00000000000E+00  0.10000000000E+03  0.10000000000E+03 0.  0.
          5    1    3    3  501    0 -0.34102773813E+02 -0.29851636583E+02  0.20586175254E+02  0.50000000000E+02  0.47000000000E+01 0. -1.
         -5    1    3    3    0  501  0.34102773813E+02  0.29851636583E+02 -0.20586175254E+02  0.50000000000E+02  0.47000000000E+01 0.  1.
</event>
<event>
 5    1  0.9091923E-001  0.1000000E+03  0.7546771E-02  0.1163815E+00
         11   -1    0    0    0    0  0.00000000000E+00  0.00000000000E+00  0.50000000000E+02  0.50000000000E+02  0.00000000000E+00 0. -1.
        -11   -1    0    0    0    0 -0.00000000000E+00 -0.00000000000E+00 -0.50000000000E+02  0.50000000000E+02  0.00000000000E+00 0.  1.
         23    2    1    2    0    0  0.00000000000E+00  0.00000000000E+00  0.00000000000E+00  0.10000000000E+03  0.10000000000E+03 0.  0.
          5    1    3    3  501    0  0.56299005070E+01 -0.50602060334E+01  0.49199680235E+02  0.50000000000E+02  0.47000000000E+01 0. -1.
         -5    1    3    3    0  501 -0.56299005070E+01  0.50602060334E+01 -0.49199680235E+02  0.50000000000E+02  0.47000000000E+01 0.  1.
</event>
<event>
 5    1  0.9091923E-001  0.1000000E+03  0.7546771E-02  0.1163815E+00
         11   -1    0    0    0    0  0.00000000000E+00  0.00000000000E+00  0.50000000000E+02  0.50000000000E+02  0.00000000000E+00 0.  1.
        -11   -1    0    0    0    0 -0.00000000000E+00 -0.00000000000E+00 -0.50000000000E+02  0.50000000000E+02  0.00000000000E+00 0. -1.
         23    2    1    2    0    0  0.00000000000E+00  0.00000000000E+00  0.00000000000E+00  0.10000000000E+03  0.10000000000E+03 0.  0.
          5    1    3    3  501    0 -0.23838589329E+02 -0.46872413914E+01 -0.43447225768E+02  0.50000000000E+02  0.47000000000E+01 0. -1.
         -5    1    3    3    0  501  0.23838589329E+02  0.46872413914E+01  0.43447225768E+02  0.50000000000E+02  0.47000000000E+01 0.  1.
</event>
<event>
 5    1  0.9091923E-001  0.1000000E+03  0.7546771E-02  0.1163815E+00
         11   -1    0    0    0    0  0.00000000000E+00  0.00000000000E+00  0.50000000000E+02  0.50000000000E+02  0.00000000000E+00 0.  1.
        -11   -1    0    0    0    0 -0.00000000000E+00 -0.00000000000E+00 -0.50000000000E+02  0.50000000000E+02  0.00000000000E+00 0. -1.
         23    2    1    2    0    0  0.00000000000E+00  0.00000000000E+00  0.00000000000E+00  0.10000000000E+03  0.10000000000E+03 0.  0.
          5    1    3    3  501    0  0.18885755449E+02  0.76669807422E+01 -0.45414267003E+02  0.50000000000E+02  0.47000000000E+01 0. -1.
         -5    1    3    3    0  501 -0.18885755449E+02 -0.76669807422E+01  0.45414267003E+02  0.50000000000E+02  0.47000000000E+01 0.  1.
</event>
<event>
 5    1  0.9091923E-001  0.1000000E+03  0.7546771E-02  0.1163815E+00
         11   -1    0    0    0    0  0.00000000000E+00  0.00000000000E+00  0.50000000000E+02  0.50000000000E+02  0.00000000000E+00 0. -1.
        -11   -1    0    0    0    0 -0.00000000000E+00 -0.00000000000E+00 -0.50000000000E+02  0.50000000000E+02  0.00000000000E+00 0.  1.
         23    2    1    2    0    0  0.00000000000E+00  0.00000000000E+00  0.00000000000E+00  0.10000000000E+03  0.10000000000E+03 0.  0.
          5    1    3    3  501    0 -0.21086001850E+02  0.38991794007E+02  0.22647969580E+02  0.50000000000E+02  0.47000000000E+01 0. -1.
         -5    1    3    3    0  501  0.21086001850E+02 -0.38991794007E+02 -0.22647969580E+02  0.50000000000E+02  0.47000000000E+01 0.  1.
</event>
<event>
 5    1  0.9091923E-001  0.1000000E+03  0.7546771E-02  0.1163815E+00
         11   -1    0    0    0    0  0.00000000000E+00  0.00000000000E+00  0.50000000000E+02  0.50000000000E+02  0.00000000000E+00 0.  1.
        -11   -1    0    0    0    0 -0.00000000000E+00 -0.00000000000E+00 -0.50000000000E+02  0.50000000000E+02  0.00000000000E+00 0. -1.
         23    2    1    2    0    0  0.00000000000E+00  0.00000000000E+00  0.00000000000E+00  0.10000000000E+03  0.10000000000E+03 0.  0.
          5    1    3    3  501    0  0.25668240729E+02 -0.24546505413E+02 -0.34878653785E+02  0.50000000000E+02  0.47000000000E+01 0. -1.
         -5    1    3    3    0  501 -0.25668240729E+02  0.24546505413E+02  0.34878653785E+02  0.50000000000E+02  0.47000000000E+01 0.  1.
</event>
<event>
 5    1  0.9091923E-001  0.1000000E+03  0.7546771E-02  0.1163815E+00
         11   -1    0    0    0    0  0.00000000000E+00  0.00000000000E+00  0.50000000000E+02  0.50000000000E+02  0.00000000000E+00 0. -1.
        -11   -1    0    0    0    0 -0.00000000000E+00 -0.00000000000E+00 -0.50000000000E+02  0.50000000000E+02  0.00000000000E+00 0.  1.
         23    2    1    2    0    0  0.00000000000E+00  0.00000000000E+00  0.00000000000E+00  0.10000000000E+03  0.10000000000E+03 0.  0.
          5    1    3    3  501    0  0.31661824621E+02 -0.20822253689E+00  0.38410877431E+02  0.50000000000E+02  0.47000000000E+01 0. -1.
         -5    1    3    3    0  501 -0.31661824621E+02  0.20822253689E+00 -0.38410877431E+02  0.50000000000E+02  0.47000000000E+01 0.  1.
</event>
<event>
 5    1  0.9091923E-001  0.1000000E+03  0.7546771E-02  0.1163815E+00
         11   -1    0    0    0    0  0.00000000000E+00  0.00000000000E+00  0.50000000000E+02  0.50000000000E+02  0.00000000000E+00 0. -1.
        -11   -1    0    0    0    0 -0.00000000000E+00 -0.00000000000E+00 -0.50000000000E+02  0.50000000000E+02  0.00000000000E+00 0.  1.
         23    2    1    2    0    0  0.00000000000E+00  0.00000000000E+00  0.00000000000E+00  0.10000000000E+03  0.10000000000E+03 0.  0.
          5    1    3    3  501    0  0.19315947312E+02  0.39501345536E+02  0.23333406959E+02  0.50000000000E+02  0.47000000000E+01 0. -1.
         -5    1    3    3    0  501 -0.19315947312E+02 -0.39501345536E+02 -0.23333406959E+02  0.50000000000E+02  0.47000000000E+01 0.  1.
</event>
<event>
 5    1  0.9091923E-001  0.1000000E+03  0.7546771E-02  0.1163815E+00
         11   -1    0    0    0    0  0.00000000000E+00  0.00000000000E+00  0.50000000000E+02  0.50000000000E+02  0.00000000000E+00 0.  1.
        -11   -1    0    0    0    0 -0.00000000000E+00 -0.00000000000E+00 -0.50000000000E+02  0.50000000000E+02  0.00000000000E+00 0. -1.
         23    2    1    2    0    0  0.00000000000E+00  0.00000000000E+00  0.00000000000E+00  0.10000000000E+03  0.10000000000E+03 0.  0.
          5    1    3    3  501    0  0.18325152652E+02 -0.10440826751E+02 -0.45089776192E+02  0.50000000000E+02  0.47000000000E+01 0. -1.
         -5    1    3    3    0  501 -0.18325152652E+02  0.10440826751E+02  0.45089776192E+02  0.50000000000E+02  0.47000000000E+01 0.  1.
</event>
<event>
 5    1  0.9091923E-001  0.1000000E+03  0.7546771E-02  0.1163815E+00
         11   -1    0    0    0    0  0.00000000000E+00  0.00000000000E+00  0.50000000000E+02  0.50000000000E+02  0.00000000000E+00 0. -1.
        -11   -1    0    0    0    0 -0.00000000000E+00 -0.00000000000E+00 -0.50000000000E+02  0.50000000000E+02  0.00000000000E+00 0.  1.
         23    2    1    2    0    0  0.00000000000E+00  0.00000000000E+00  0.00000000000E+00  0.10000000000E+03  0.10000000000E+03 0.  0.
          5    1    3    3  501    0  0.40671703019E+02 -0.20065616543E+02 -0.20520565448E+02  0.50000000000E+02  0.47000000000E+01 0. -1.
         -5    1    3    3    0  501 -0.40671703019E+02  0.20065616543E+02  0.20520565448E+02  0.50000000000E+02  0.47000000000E+01 0.  1.
</event>
<event>
 5    1  0.9091923E-001  0.1000000E+03  0.7546771E-02  0.1163815E+00
         11   -1    0    0    0    0  0.00000000000E+00  0.00000000000E+00  0.50000000000E+02  0.50000000000E+02  0.00000000000E+00 0.  1.
        -11   -1    0    0    0    0 -0.00000000000E+00 -0.00000000000E+00 -0.50000000000E+02  0.50000000000E+02  0.00000000000E+00 0. -1.
         23    2    1    2    0    0  0.00000000000E+00  0.00000000000E+00  0.00000000000E+00  0.10000000000E+03  0.10000000000E+03 0.  0.
          5    1    3    3  501    0 -0.55344347719E+01  0.19712112653E+02 -0.45373038762E+02  0.50000000000E+02  0.47000000000E+01 0. -1.
         -5    1    3    3    0  501  0.55344347719E+01 -0.19712112653E+02  0.45373038762E+02  0.50000000000E+02  0.47000000000E+01 0.  1.
</event>
<event>
 5    1  0.9091923E-001  0.1000000E+03  0.7546771E-02  0.1163815E+00
         11   -1    0    0    0    0  0.00000000000E+00  0.00000000000E+00  0.50000000000E+02  0.50000000000E+02  0.00000000000E+00 0. -1.
        -11   -1    0    0    0    0 -0.00000000000E+00 -0.00000000000E+00 -0.50000000000E+02  0.50000000000E+02  0.00000000000E+00 0.  1.
         23    2    1    2    0    0  0.00000000000E+00  0.00000000000E+00  0.00000000000E+00  0.10000000000E+03  0.10000000000E+03 0.  0.
          5    1    3    3  501    0 -0.10145841725E+02 -0.15804226777E+02  0.46099873228E+02  0.50000000000E+02  0.47000000000E+01 0. -1.
         -5    1    3    3    0  501  0.10145841725E+02  0.15804226777E+02 -0.46099873228E+02  0.50000000000E+02  0.47000000000E+01 0.  1.
</event>
<event>
 5    1  0.9091923E-001  0.1000000E+03  0.7546771E-02  0.1163815E+00
         11   -1    0    0    0    0  0.00000000000E+00  0.00000000000E+00  0.50000000000E+02  0.50000000000E+02  0.00000000000E+00 0. -1.
        -11   -1    0    0    0    0 -0.00000000000E+00 -0.00000000000E+00 -0.50000000000E+02  0.50000000000E+02  0.00000000000E+00 0.  1.
         23    2    1    2    0    0  0.00000000000E+00  0.00000000000E+00  0.00000000000E+00  0.10000000000E+03  0.10000000000E+03 0.  0.
          5    1    3    3  501    0  0.17697962331E+02  0.66029611921E+01  0.46055325781E+02  0.50000000000E+02  0.47000000000E+01 0. -1.
         -5    1    3    3    0  501 -0.17697962331E+02 -0.66029611921E+01 -0.46055325781E+02  0.50000000000E+02  0.47000000000E+01 0.  1.
</event>
<event>
 5    1  0.9091923E-001  0.1000000E+03  0.7546771E-02  0.1163815E+00
         11   -1    0    0    0    0  0.00000000000E+00  0.00000000000E+00  0.50000000000E+02  0.50000000000E+02  0.00000000000E+00 0. -1.
        -11   -1    0    0    0    0 -0.00000000000E+00 -0.00000000000E+00 -0.50000000000E+02  0.50000000000E+02  0.00000000000E+00 0.  1.
         23    2    1    2    0    0  0.00000000000E+00  0.00000000000E+00  0.00000000000E+00  0.10000000000E+03  0.10000000000E+03 0.  0.
          5    1    3    3  501    0  0.68025694098E+00 -0.41905103601E+02  0.26859068164E+02  0.50000000000E+02  0.47000000000E+01 0. -1.
         -5    1    3    3    0  501 -0.68025694098E+00  0.41905103601E+02 -0.26859068164E+02  0.50000000000E+02  0.47000000000E+01 0.  1.
</event>
<event>
 5    1  0.9091923E-001  0.1000000E+03  0.7546771E-02  0.1163815E+00
         11   -1    0    0    0    0  0.00000000000E+00  0.00000000000E+00  0.50000000000E+02  0.50000000000E+02  0.00000000000E+00 0. -1.
        -11   -1    0    0    0    0 -0.00000000000E+00 -0.00000000000E+00 -0.50000000000E+02  0.50000000000E+02  0.00000000000E+00 0.  1.
         23    2    1    2    0    0  0.00000000000E+00  0.00000000000E+00  0.00000000000E+00  0.10000000000E+03  0.10000000000E+03 0.  0.
          5    1    3    3  501    0 -0.45412756261E+02  0.67865114988E+01 -0.19223288753E+02  0.50000000000E+02  0.47000000000E+01 0. -1.
         -5    1    3    3    0  501  0.45412756261E+02 -0.67865114988E+01  0.19223288753E+02  0.50000000000E+02  0.47000000000E+01 0.  1.
</event>
<event>
 5    1  0.9091923E-001  0.1000000E+03  0.7546771E-02  0.1163815E+00
         11   -1    0    0    0    0  0.00000000000E+00  0.00000000000E+00  0.50000000000E+02  0.50000000000E+02  0.00000000000E+00 0. -1.
        -11   -1    0    0    0    0 -0.00000000000E+00 -0.00000000000E+00 -0.50000000000E+02  0.50000000000E+02  0.00000000000E+00 0.  1.
         23    2    1    2    0    0  0.00000000000E+00  0.00000000000E+00  0.00000000000E+00  0.10000000000E+03  0.10000000000E+03 0.  0.
          5    1    3    3  501    0  0.14778085057E+02 -0.36777535390E+02  0.30115296656E+02  0.50000000000E+02  0.47000000000E+01 0. -1.
         -5    1    3    3    0  501 -0.14778085057E+02  0.36777535390E+02 -0.30115296656E+02  0.50000000000E+02  0.47000000000E+01 0.  1.
</event>
<event>
 5    1  0.9091923E-001  0.1000000E+03  0.7546771E-02  0.1163815E+00
         11   -1    0    0    0    0  0.00000000000E+00  0.00000000000E+00  0.50000000000E+02  0.50000000000E+02  0.00000000000E+00 0. -1.
        -11   -1    0    0    0    0 -0.00000000000E+00 -0.00000000000E+00 -0.50000000000E+02  0.50000000000E+02  0.00000000000E+00 0.  1.
         23    2    1    2    0    0  0.00000000000E+00  0.00000000000E+00  0.00000000000E+00  0.10000000000E+03  0.10000000000E+03 0.  0.
          5    1    3    3  501    0 -0.22595598640E+02  0.18828137836E+01  0.44314827477E+02  0.50000000000E+02  0.47000000000E+01 0. -1.
         -5    1    3    3    0  501  0.22595598640E+02 -0.18828137836E+01 -0.44314827477E+02  0.50000000000E+02  0.47000000000E+01 0.  1.
</event>
<event>
 5    1  0.9091923E-001  0.1000000E+03  0.7546771E-02  0.1163815E+00
         11   -1    0    0    0    0  0.00000000000E+00  0.00000000000E+00  0.50000000000E+02  0.50000000000E+02  0.00000000000E+00 0. -1.
        -11   -1    0    0    0    0 -0.00000000000E+00 -0.00000000000E+00 -0.50000000000E+02  0.50000000000E+02  0.00000000000E+00 0.  1.
         23    2    1    2    0    0  0.00000000000E+00  0.00000000000E+00  0.00000000000E+00  0.10000000000E+03  0.10000000000E+03 0.  0.
          5    1    3    3  501    0  0.15916037521E+02  0.40720308767E+02 -0.23800130326E+02  0.50000000000E+02  0.47000000000E+01 0. -1.
         -5    1    3    3    0  501 -0.15916037521E+02 -0.40720308767E+02  0.23800130326E+02  0.50000000000E+02  0.47000000000E+01 0.  1.
</event>
<event>
 5    1  0.9091923E-001  0.1000000E+03  0.7546771E-02  0.1163815E+00
         11   -1    0    0    0    0  0.00000000000E+00  0.00000000000E+00  0.50000000000E+02  0.50000000000E+02  0.00000000000E+00 0. -1.
        -11   -1    0    0    0    0 -0.00000000000E+00 -0.00000000000E+00 -0.50000000000E+02  0.50000000000E+02  0.00000000000E+00 0.  1.
         23    2    1    2    0    0  0.00000000000E+00  0.00000000000E+00  0.00000000000E+00  0.10000000000E+03  0.10000000000E+03 0.  0.
          5    1    3    3  501    0  0.40347843033E+02 -0.23333976600E+02 -0.17478189226E+02  0.50000000000E+02  0.47000000000E+01 0. -1.
         -5    1    3    3    0  501 -0.40347843033E+02  0.23333976600E+02  0.17478189226E+02  0.50000000000E+02  0.47000000000E+01 0.  1.
</event>
<event>
 5    1  0.9091923E-001  0.1000000E+03  0.7546771E-02  0.1163815E+00
         11   -1    0    0    0    0  0.00000000000E+00  0.00000000000E+00  0.50000000000E+02  0.50000000000E+02  0.00000000000E+00 0. -1.
        -11   -1    0    0    0    0 -0.00000000000E+00 -0.00000000000E+00 -0.50000000000E+02  0.50000000000E+02  0.00000000000E+00 0.  1.
         23    2    1    2    0    0  0.00000000000E+00  0.00000000000E+00  0.00000000000E+00  0.10000000000E+03  0.10000000000E+03 0.  0.
          5    1    3    3  501    0  0.21063956625E+01 -0.34723070219E+02  0.35605919338E+02  0.50000000000E+02  0.47000000000E+01 0. -1.
         -5    1    3    3    0  501 -0.21063956625E+01  0.34723070219E+02 -0.35605919338E+02  0.50000000000E+02  0.47000000000E+01 0.  1.
</event>
<event>
 5    1  0.9091923E-001  0.1000000E+03  0.7546771E-02  0.1163815E+00
         11   -1    0    0    0    0  0.00000000000E+00  0.00000000000E+00  0.50000000000E+02  0.50000000000E+02  0.00000000000E+00 0. -1.
        -11   -1    0    0    0    0 -0.00000000000E+00 -0.00000000000E+00 -0.50000000000E+02  0.50000000000E+02  0.00000000000E+00 0.  1.
         23    2    1    2    0    0  0.00000000000E+00  0.00000000000E+00  0.00000000000E+00  0.10000000000E+03  0.10000000000E+03 0.  0.
          5    1    3    3  501    0  0.28166574259E+02 -0.31621805610E+02  0.26165158216E+02  0.50000000000E+02  0.47000000000E+01 0. -1.
         -5    1    3    3    0  501 -0.28166574259E+02  0.31621805610E+02 -0.26165158216E+02  0.50000000000E+02  0.47000000000E+01 0.  1.
</event>
<event>
 5    1  0.9091923E-001  0.1000000E+03  0.7546771E-02  0.1163815E+00
         11   -1    0    0    0    0  0.00000000000E+00  0.00000000000E+00  0.50000000000E+02  0.50000000000E+02  0.00000000000E+00 0.  1.
        -11   -1    0    0    0    0 -0.00000000000E+00 -0.00000000000E+00 -0.50000000000E+02  0.50000000000E+02  0.00000000000E+00 0. -1.
         23    2    1    2    0    0  0.00000000000E+00  0.00000000000E+00  0.00000000000E+00  0.10000000000E+03  0.10000000000E+03 0.  0.
          5    1    3    3  501    0 -0.79347880956E+01  0.85870169588E+01 -0.48386075245E+02  0.50000000000E+02  0.47000000000E+01 0. -1.
         -5    1    3    3    0  501  0.79347880956E+01 -0.85870169588E+01  0.48386075245E+02  0.50000000000E+02  0.47000000000E+01 0.  1.
</event>
<event>
 5    1  0.9091923E-001  0.1000000E+03  0.7546771E-02  0.1163815E+00
         11   -1    0    0    0    0  0.00000000000E+00  0.00000000000E+00  0.50000000000E+02  0.50000000000E+02  0.00000000000E+00 0.  1.
        -11   -1    0    0    0    0 -0.00000000000E+00 -0.00000000000E+00 -0.50000000000E+02  0.50000000000E+02  0.00000000000E+00 0. -1.
         23    2    1    2    0    0  0.00000000000E+00  0.00000000000E+00  0.00000000000E+00  0.10000000000E+03  0.10000000000E+03 0.  0.
          5    1    3    3  501    0  0.31772870361E+01 -0.23372684945E+02  0.43835287675E+02  0.50000000000E+02  0.47000000000E+01 0.  1.
         -5    1    3    3    0  501 -0.31772870361E+01  0.23372684945E+02 -0.43835287675E+02  0.50000000000E+02  0.47000000000E+01 0. -1.
</event>
<event>
 5    1  0.9091923E-001  0.1000000E+03  0.7546771E-02  0.1163815E+00
         11   -1    0    0    0    0  0.00000000000E+00  0.00000000000E+00  0.50000000000E+02  0.50000000000E+02  0.00000000000E+00 0. -1.
        -11   -1    0    0    0    0 -0.00000000000E+00 -0.00000000000E+00 -0.50000000000E+02  0.50000000000E+02  0.00000000000E+00 0.  1.
         23    2    1    2    0    0  0.00000000000E+00  0.00000000000E+00  0.00000000000E+00  0.10000000000E+03  0.10000000000E+03 0.  0.
          5    1    3    3  501    0  0.44607054277E+02  0.15268309187E+02  0.15968701992E+02  0.50000000000E+02  0.47000000000E+01 0. -1.
         -5    1    3    3    0  501 -0.44607054277E+02 -0.15268309187E+02 -0.15968701992E+02  0.50000000000E+02  0.47000000000E+01 0.  1.
</event>
<event>
 5    1  0.9091923E-001  0.1000000E+03  0.7546771E-02  0.1163815E+00
         11   -1    0    0    0    0  0.00000000000E+00  0.00000000000E+00  0.50000000000E+02  0.50000000000E+02  0.00000000000E+00 0.  1.
        -11   -1    0    0    0    0 -0.00000000000E+00 -0.00000000000E+00 -0.50000000000E+02  0.50000000000E+02  0.00000000000E+00 0. -1.
         23    2    1    2    0    0  0.00000000000E+00  0.00000000000E+00  0.00000000000E+00  0.10000000000E+03  0.10000000000E+03 0.  0.
          5    1    3    3  501    0  0.13955892807E+02  0.20534684215E+02 -0.43144754028E+02  0.50000000000E+02  0.47000000000E+01 0. -1.
         -5    1    3    3    0  501 -0.13955892807E+02 -0.20534684215E+02  0.43144754028E+02  0.50000000000E+02  0.47000000000E+01 0.  1.
</event>
<event>
 5    1  0.9091923E-001  0.1000000E+03  0.7546771E-02  0.1163815E+00
         11   -1    0    0    0    0  0.00000000000E+00  0.00000000000E+00  0.50000000000E+02  0.50000000000E+02  0.00000000000E+00 0. -1.
        -11   -1    0    0    0    0 -0.00000000000E+00 -0.00000000000E+00 -0.50000000000E+02  0.50000000000E+02  0.00000000000E+00 0.  1.
         23    2    1    2    0    0  0.00000000000E+00  0.00000000000E+00  0.00000000000E+00  0.10000000000E+03  0.10000000000E+03 0.  0.
          5    1    3    3  501    0 -0.11888648129E+01  0.47138103286E+02 -0.15952925093E+02  0.50000000000E+02  0.47000000000E+01 0. -1.
         -5    1    3    3    0  501  0.11888648129E+01 -0.47138103286E+02  0.15952925093E+02  0.50000000000E+02  0.47000000000E+01 0.  1.
</event>
<event>
 5    1  0.9091923E-001  0.1000000E+03  0.7546771E-02  0.1163815E+00
         11   -1    0    0    0    0  0.00000000000E+00  0.00000000000E+00  0.50000000000E+02  0.50000000000E+02  0.00000000000E+00 0.  1.
        -11   -1    0    0    0    0 -0.00000000000E+00 -0.00000000000E+00 -0.50000000000E+02  0.50000000000E+02  0.00000000000E+00 0. -1.
         23    2    1    2    0    0  0.00000000000E+00  0.00000000000E+00  0.00000000000E+00  0.10000000000E+03  0.10000000000E+03 0.  0.
          5    1    3    3  501    0 -0.20611928022E+02 -0.25280585986E+02 -0.37602531769E+02  0.50000000000E+02  0.47000000000E+01 0. -1.
         -5    1    3    3    0  501  0.20611928022E+02  0.25280585986E+02  0.37602531769E+02  0.50000000000E+02  0.47000000000E+01 0.  1.
</event>
<event>
 5    1  0.9091923E-001  0.1000000E+03  0.7546771E-02  0.1163815E+00
         11   -1    0    0    0    0  0.00000000000E+00  0.00000000000E+00  0.50000000000E+02  0.50000000000E+02  0.00000000000E+00 0.  1.
        -11   -1    0    0    0    0 -0.00000000000E+00 -0.00000000000E+00 -0.50000000000E+02  0.50000000000E+02  0.00000000000E+00 0. -1.
         23    2    1    2    0    0  0.00000000000E+00  0.00000000000E+00  0.00000000000E+00  0.10000000000E+03  0.10000000000E+03 0.  0.
          5    1    3    3  501    0  0.20509419978E+02  0.21169231950E+02 -0.40114053782E+02  0.50000000000E+02  0.47000000000E+01 0. -1.
         -5    1    3    3    0  501 -0.20509419978E+02 -0.21169231950E+02  0.40114053782E+02  0.50000000000E+02  0.47000000000E+01 0.  1.
</event>
<event>
 5    1  0.9091923E-001  0.1000000E+03  0.7546771E-02  0.1163815E+00
         11   -1    0    0    0    0  0.00000000000E+00  0.00000000000E+00  0.50000000000E+02  0.50000000000E+02  0.00000000000E+00 0. -1.
        -11   -1    0    0    0    0 -0.00000000000E+00 -0.00000000000E+00 -0.50000000000E+02  0.50000000000E+02  0.00000000000E+00 0.  1.
         23    2    1    2    0    0  0.00000000000E+00  0.00000000000E+00  0.00000000000E+00  0.10000000000E+03  0.10000000000E+03 0.  0.
          5    1    3    3  501    0  0.35253154175E+02  0.28194784684E+02  0.20980448930E+02  0.50000000000E+02  0.47000000000E+01 0. -1.
         -5    1    3    3    0  501 -0.35253154175E+02 -0.28194784684E+02 -0.20980448930E+02  0.50000000000E+02  0.47000000000E+01 0.  1.
</event>
<event>
 5    1  0.9091923E-001  0.1000000E+03  0.7546771E-02  0.1163815E+00
         11   -1    0    0    0    0  0.00000000000E+00  0.00000000000E+00  0.50000000000E+02  0.50000000000E+02  0.00000000000E+00 0. -1.
        -11   -1    0    0    0    0 -0.00000000000E+00 -0.00000000000E+00 -0.50000000000E+02  0.50000000000E+02  0.00000000000E+00 0.  1.
         23    2    1    2    0    0  0.00000000000E+00  0.00000000000E+00  0.00000000000E+00  0.10000000000E+03  0.10000000000E+03 0.  0.
          5    1    3    3  501    0 -0.16039953405E+02  0.81573707501E+01  0.46412144932E+02  0.50000000000E+02  0.47000000000E+01 0. -1.
         -5    1    3    3    0  501  0.16039953405E+02 -0.81573707501E+01 -0.46412144932E+02  0.50000000000E+02  0.47000000000E+01 0.  1.
</event>
<event>
 5    1  0.9091923E-001  0.1000000E+03  0.7546771E-02  0.1163815E+00
         11   -1    0    0    0    0  0.00000000000E+00  0.00000000000E+00  0.50000000000E+02  0.50000000000E+02  0.00000000000E+00 0.  1.
        -11   -1    0    0    0    0 -0.00000000000E+00 -0.00000000000E+00 -0.50000000000E+02  0.50000000000E+02  0.00000000000E+00 0. -1.
         23    2    1    2    0    0  0.00000000000E+00  0.00000000000E+00  0.00000000000E+00  0.10000000000E+03  0.10000000000E+03 0.  0.
          5    1    3    3  501    0 -0.83476505471E+01  0.43490508542E+01  0.48880594176E+02  0.50000000000E+02  0.47000000000E+01 0.  1.
         -5    1    3    3    0  501  0.83476505471E+01 -0.43490508542E+01 -0.48880594176E+02  0.50000000000E+02  0.47000000000E+01 0. -1.
</event>
<event>
 5    1  0.9091923E-001  0.1000000E+03  0.7546771E-02  0.1163815E+00
         11   -1    0    0    0    0  0.00000000000E+00  0.00000000000E+00  0.50000000000E+02  0.50000000000E+02  0.00000000000E+00 0. -1.
        -11   -1    0    0    0    0 -0.00000000000E+00 -0.00000000000E+00 -0.50000000000E+02  0.50000000000E+02  0.00000000000E+00 0.  1.
         23    2    1    2    0    0  0.00000000000E+00  0.00000000000E+00  0.00000000000E+00  0.10000000000E+03  0.10000000000E+03 0.  0.
          5    1    3    3  501    0  0.33145295711E+02  0.90818192608E+01  0.36011386132E+02  0.50000000000E+02  0.47000000000E+01 0. -1.
         -5    1    3    3    0  501 -0.33145295711E+02 -0.90818192608E+01 -0.36011386132E+02  0.50000000000E+02  0.47000000000E+01 0.  1.
</event>
<event>
 5    1  0.9091923E-001  0.1000000E+03  0.7546771E-02  0.1163815E+00
         11   -1    0    0    0    0  0.00000000000E+00  0.00000000000E+00  0.50000000000E+02  0.50000000000E+02  0.00000000000E+00 0. -1.
        -11   -1    0    0    0    0 -0.00000000000E+00 -0.00000000000E+00 -0.50000000000E+02  0.50000000000E+02  0.00000000000E+00 0.  1.
         23    2    1    2    0    0  0.00000000000E+00  0.00000000000E+00  0.00000000000E+00  0.10000000000E+03  0.10000000000E+03 0.  0.
          5    1    3    3  501    0 -0.30487352282E+01  0.18514429438E+02  0.46106736125E+02  0.50000000000E+02  0.47000000000E+01 0. -1.
         -5    1    3    3    0  501  0.30487352282E+01 -0.18514429438E+02 -0.46106736125E+02  0.50000000000E+02  0.47000000000E+01 0.  1.
</event>
<event>
 5    1  0.9091923E-001  0.1000000E+03  0.7546771E-02  0.1163815E+00
         11   -1    0    0    0    0  0.00000000000E+00  0.00000000000E+00  0.50000000000E+02  0.50000000000E+02  0.00000000000E+00 0.  1.
        -11   -1    0    0    0    0 -0.00000000000E+00 -0.00000000000E+00 -0.50000000000E+02  0.50000000000E+02  0.00000000000E+00 0. -1.
         23    2    1    2    0    0  0.00000000000E+00  0.00000000000E+00  0.00000000000E+00  0.10000000000E+03  0.10000000000E+03 0.  0.
          5    1    3    3  501    0  0.21491031637E+02 -0.40580113287E+02 -0.19217178899E+02  0.50000000000E+02  0.47000000000E+01 0. -1.
         -5    1    3    3    0  501 -0.21491031637E+02  0.40580113287E+02  0.19217178899E+02  0.50000000000E+02  0.47000000000E+01 0.  1.
</event>
<event>
 5    1  0.9091923E-001  0.1000000E+03  0.7546771E-02  0.1163815E+00
         11   -1    0    0    0    0  0.00000000000E+00  0.00000000000E+00  0.50000000000E+02  0.50000000000E+02  0.00000000000E+00 0. -1.
        -11   -1    0    0    0    0 -0.00000000000E+00 -0.00000000000E+00 -0.50000000000E+02  0.50000000000E+02  0.00000000000E+00 0.  1.
         23    2    1    2    0    0  0.00000000000E+00  0.00000000000E+00  0.00000000000E+00  0.10000000000E+03  0.10000000000E+03 0.  0.
          5    1    3    3  501    0  0.15675718202E+02 -0.40228708976E+02  0.24775650000E+02  0.50000000000E+02  0.47000000000E+01 0. -1.
         -5    1    3    3    0  501 -0.15675718202E+02  0.40228708976E+02 -0.24775650000E+02  0.50000000000E+02  0.47000000000E+01 0.  1.
</event>
<event>
 5    1  0.9091923E-001  0.1000000E+03  0.7546771E-02  0.1163815E+00
         11   -1    0    0    0    0  0.00000000000E+00  0.00000000000E+00  0.50000000000E+02  0.50000000000E+02  0.00000000000E+00 0.  1.
        -11   -1    0    0    0    0 -0.00000000000E+00 -0.00000000000E+00 -0.50000000000E+02  0.50000000000E+02  0.00000000000E+00 0. -1.
         23    2    1    2    0    0  0.00000000000E+00  0.00000000000E+00  0.00000000000E+00  0.10000000000E+03  0.10000000000E+03 0.  0.
          5    1    3    3  501    0 -0.21164256492E+02 -0.34886302047E+02 -0.28511930426E+02  0.50000000000E+02  0.47000000000E+01 0. -1.
         -5    1    3    3    0  501  0.21164256492E+02  0.34886302047E+02  0.28511930426E+02  0.50000000000E+02  0.47000000000E+01 0.  1.
</event>
<event>
 5    1  0.9091923E-001  0.1000000E+03  0.7546771E-02  0.1163815E+00
         11   -1    0    0    0    0  0.00000000000E+00  0.00000000000E+00  0.50000000000E+02  0.50000000000E+02  0.00000000000E+00 0.  1.
        -11   -1    0    0    0    0 -0.00000000000E+00 -0.00000000000E+00 -0.50000000000E+02  0.50000000000E+02  0.00000000000E+00 0. -1.
         23    2    1    2    0    0  0.00000000000E+00  0.00000000000E+00  0.00000000000E+00  0.10000000000E+03  0.10000000000E+03 0.  0.
          5    1    3    3  501    0  0.46022205319E+02  0.86276526058E+01  0.16894680467E+02  0.50000000000E+02  0.47000000000E+01 0.  1.
         -5    1    3    3    0  501 -0.46022205319E+02 -0.86276526058E+01 -0.16894680467E+02  0.50000000000E+02  0.47000000000E+01 0. -1.
</event>
<event>
 5    1  0.9091923E-001  0.1000000E+03  0.7546771E-02  0.1163815E+00
         11   -1    0    0    0    0  0.00000000000E+00  0.00000000000E+00  0.50000000000E+02  0.50000000000E+02  0.00000000000E+00 0.  1.
        -11   -1    0    0    0    0 -0.00000000000E+00 -0.00000000000E+00 -0.50000000000E+02  0.50000000000E+02  0.00000000000E+00 0. -1.
         23    2    1    2    0    0  0.00000000000E+00  0.00000000000E+00  0.00000000000E+00  0.10000000000E+03  0.10000000000E+03 0.  0.
          5    1    3    3  501    0  0.87818387447E+01 -0.27561679687E+02 -0.40511024686E+02  0.50000000000E+02  0.47000000000E+01 0. -1.
         -5    1    3    3    0  501 -0.87818387447E+01  0.27561679687E+02  0.40511024686E+02  0.50000000000E+02  0.47000000000E+01 0.  1.
</event>
<event>
 5    1  0.9091923E-001  0.1000000E+03  0.7546771E-02  0.1163815E+00
         11   -1    0    0    0    0  0.00000000000E+00  0.00000000000E+00  0.50000000000E+02  0.50000000000E+02  0.00000000000E+00 0. -1.
        -11   -1    0    0    0    0 -0.00000000000E+00 -0.00000000000E+00 -0.50000000000E+02  0.50000000000E+02  0.00000000000E+00 0.  1.
         23    2    1    2    0    0  0.00000000000E+00  0.00000000000E+00  0.00000000000E+00  0.10000000000E+03  0.10000000000E+03 0.  0.
          5    1    3    3  501    0 -0.20243246914E+02  0.14021291055E+02  0.43261118242E+02  0.50000000000E+02  0.47000000000E+01 0. -1.
         -5    1    3    3    0  501  0.20243246914E+02 -0.14021291055E+02 -0.43261118242E+02  0.50000000000E+02  0.47000000000E+01 0.  1.
</event>
<event>
 5    1  0.9091923E-001  0.1000000E+03  0.7546771E-02  0.1163815E+00
         11   -1    0    0    0    0  0.00000000000E+00  0.00000000000E+00  0.50000000000E+02  0.50000000000E+02  0.00000000000E+00 0. -1.
        -11   -1    0    0    0    0 -0.00000000000E+00 -0.00000000000E+00 -0.50000000000E+02  0.50000000000E+02  0.00000000000E+00 0.  1.
         23    2    1    2    0    0  0.00000000000E+00  0.00000000000E+00  0.00000000000E+00  0.10000000000E+03  0.10000000000E+03 0.  0.
          5    1    3    3  501    0  0.16560282002E+01 -0.44692211035E+02  0.21858038416E+02  0.50000000000E+02  0.47000000000E+01 0. -1.
         -5    1    3    3    0  501 -0.16560282002E+01  0.44692211035E+02 -0.21858038416E+02  0.50000000000E+02  0.47000000000E+01 0.  1.
</event>
<event>
 5    1  0.9091923E-001  0.1000000E+03  0.7546771E-02  0.1163815E+00
         11   -1    0    0    0    0  0.00000000000E+00  0.00000000000E+00  0.50000000000E+02  0.50000000000E+02  0.00000000000E+00 0. -1.
        -11   -1    0    0    0    0 -0.00000000000E+00 -0.00000000000E+00 -0.50000000000E+02  0.50000000000E+02  0.00000000000E+00 0.  1.
         23    2    1    2    0    0  0.00000000000E+00  0.00000000000E+00  0.00000000000E+00  0.10000000000E+03  0.10000000000E+03 0.  0.
          5    1    3    3  501    0  0.15188598862E+02  0.41981893725E+02  0.22016745079E+02  0.50000000000E+02  0.47000000000E+01 0. -1.
         -5    1    3    3    0  501 -0.15188598862E+02 -0.41981893725E+02 -0.22016745079E+02  0.50000000000E+02  0.47000000000E+01 0.  1.
</event>
<event>
 5    1  0.9091923E-001  0.1000000E+03  0.7546771E-02  0.1163815E+00
         11   -1    0    0    0    0  0.00000000000E+00  0.00000000000E+00  0.50000000000E+02  0.50000000000E+02  0.00000000000E+00 0. -1.
        -11   -1    0    0    0    0 -0.00000000000E+00 -0.00000000000E+00 -0.50000000000E+02  0.50000000000E+02  0.00000000000E+00 0.  1.
         23    2    1    2    0    0  0.00000000000E+00  0.00000000000E+00  0.00000000000E+00  0.10000000000E+03  0.10000000000E+03 0.  0.
          5    1    3    3  501    0 -0.21288738107E+02 -0.42539606445E+02  0.14665657616E+02  0.50000000000E+02  0.47000000000E+01 0. -1.
         -5    1    3    3    0  501  0.21288738107E+02  0.42539606445E+02 -0.14665657616E+02  0.50000000000E+02  0.47000000000E+01 0.  1.
</event>
<event>
 5    1  0.9091923E-001  0.1000000E+03  0.7546771E-02  0.1163815E+00
         11   -1    0    0    0    0  0.00000000000E+00  0.00000000000E+00  0.50000000000E+02  0.50000000000E+02  0.00000000000E+00 0. -1.
        -11   -1    0    0    0    0 -0.00000000000E+00 -0.00000000000E+00 -0.50000000000E+02  0.50000000000E+02  0.00000000000E+00 0.  1.
         23    2    1    2    0    0  0.00000000000E+00  0.00000000000E+00  0.00000000000E+00  0.10000000000E+03  0.10000000000E+03 0.  0.
          5    1    3    3  501    0  0.36047856416E+02 -0.23993485313E+02  0.24551470634E+02  0.50000000000E+02  0.47000000000E+01 0. -1.
         -5    1    3    3    0  501 -0.36047856416E+02  0.23993485313E+02 -0.24551470634E+02  0.50000000000E+02  0.47000000000E+01 0.  1.
</event>
<event>
 5    1  0.9091923E-001  0.1000000E+03  0.7546771E-02  0.1163815E+00
         11   -1    0    0    0    0  0.00000000000E+00  0.00000000000E+00  0.50000000000E+02  0.50000000000E+02  0.00000000000E+00 0. -1.
        -11   -1    0    0    0    0 -0.00000000000E+00 -0.00000000000E+00 -0.50000000000E+02  0.50000000000E+02  0.00000000000E+00 0.  1.
         23    2    1    2    0    0  0.00000000000E+00  0.00000000000E+00  0.00000000000E+00  0.10000000000E+03  0.10000000000E+03 0.  0.
          5    1    3    3  501    0 -0.20004733925E+02  0.62720644061E+01  0.45148442151E+02  0.50000000000E+02  0.47000000000E+01 0. -1.
         -5    1    3    3    0  501  0.20004733925E+02 -0.62720644061E+01 -0.45148442151E+02  0.50000000000E+02  0.47000000000E+01 0.  1.
</event>
<event>
 5    1  0.9091923E-001  0.1000000E+03  0.7546771E-02  0.1163815E+00
         11   -1    0    0    0    0  0.00000000000E+00  0.00000000000E+00  0.50000000000E+02  0.50000000000E+02  0.00000000000E+00 0. -1.
        -11   -1    0    0    0    0 -0.00000000000E+00 -0.00000000000E+00 -0.50000000000E+02  0.50000000000E+02  0.00000000000E+00 0.  1.
         23    2    1    2    0    0  0.00000000000E+00  0.00000000000E+00  0.00000000000E+00  0.10000000000E+03  0.10000000000E+03 0.  0.
          5    1    3    3  501    0  0.31297816125E+02 -0.26493273180E+02  0.28221679292E+02  0.50000000000E+02  0.47000000000E+01 0. -1.
         -5    1    3    3    0  501 -0.31297816125E+02  0.26493273180E+02 -0.28221679292E+02  0.50000000000E+02  0.47000000000E+01 0.  1.
</event>
<event>
 5    1  0.9091923E-001  0.1000000E+03  0.7546771E-02  0.1163815E+00
         11   -1    0    0    0    0  0.00000000000E+00  0.00000000000E+00  0.50000000000E+02  0.50000000000E+02  0.00000000000E+00 0.  1.
        -11   -1    0    0    0    0 -0.00000000000E+00 -0.00000000000E+00 -0.50000000000E+02  0.50000000000E+02  0.00000000000E+00 0. -1.
         23    2    1    2    0    0  0.00000000000E+00  0.00000000000E+00  0.00000000000E+00  0.10000000000E+03  0.10000000000E+03 0.  0.
          5    1    3    3  501    0  0.41027845838E+02  0.15820320296E+02 -0.23331166530E+02  0.50000000000E+02  0.47000000000E+01 0. -1.
         -5    1    3    3    0  501 -0.41027845838E+02 -0.15820320296E+02  0.23331166530E+02  0.50000000000E+02  0.47000000000E+01 0.  1.
</event>
<event>
 5    1  0.9091923E-001  0.1000000E+03  0.7546771E-02  0.1163815E+00
         11   -1    0    0    0    0  0.00000000000E+00  0.00000000000E+00  0.50000000000E+02  0.50000000000E+02  0.00000000000E+00 0. -1.
        -11   -1    0    0    0    0 -0.00000000000E+00 -0.00000000000E+00 -0.50000000000E+02  0.50000000000E+02  0.00000000000E+00 0.  1.
         23    2    1    2    0    0  0.00000000000E+00  0.00000000000E+00  0.00000000000E+00  0.10000000000E+03  0.10000000000E+03 0.  0.
          5    1    3    3  501    0  0.12919805435E+02 -0.26415074806E+02  0.40165065050E+02  0.50000000000E+02  0.47000000000E+01 0. -1.
         -5    1    3    3    0  501 -0.12919805435E+02  0.26415074806E+02 -0.40165065050E+02  0.50000000000E+02  0.47000000000E+01 0.  1.
</event>
<event>
 5    1  0.9091923E-001  0.1000000E+03  0.7546771E-02  0.1163815E+00
         11   -1    0    0    0    0  0.00000000000E+00  0.00000000000E+00  0.50000000000E+02  0.50000000000E+02  0.00000000000E+00 0.  1.
        -11   -1    0    0    0    0 -0.00000000000E+00 -0.00000000000E+00 -0.50000000000E+02  0.50000000000E+02  0.00000000000E+00 0. -1.
         23    2    1    2    0    0  0.00000000000E+00  0.00000000000E+00  0.00000000000E+00  0.10000000000E+03  0.10000000000E+03 0.  0.
          5    1    3    3  501    0 -0.39760909663E+02  0.29650006228E+02 -0.42257772553E+01  0.50000000000E+02  0.47000000000E+01 0. -1.
         -5    1    3    3    0  501  0.39760909663E+02 -0.29650006228E+02  0.42257772553E+01  0.50000000000E+02  0.47000000000E+01 0.  1.
</event>
<event>
 5    1  0.9091923E-001  0.1000000E+03  0.7546771E-02  0.1163815E+00
         11   -1    0    0    0    0  0.00000000000E+00  0.00000000000E+00  0.50000000000E+02  0.50000000000E+02  0.00000000000E+00 0.  1.
        -11   -1    0    0    0    0 -0.00000000000E+00 -0.00000000000E+00 -0.50000000000E+02  0.50000000000E+02  0.00000000000E+00 0. -1.
         23    2    1    2    0    0  0.00000000000E+00  0.00000000000E+00  0.00000000000E+00  0.10000000000E+03  0.10000000000E+03 0.  0.
          5    1    3    3  501    0  0.15287955900E+02 -0.38495497519E+02 -0.27609510593E+02  0.50000000000E+02  0.47000000000E+01 0. -1.
         -5    1    3    3    0  501 -0.15287955900E+02  0.38495497519E+02  0.27609510593E+02  0.50000000000E+02  0.47000000000E+01 0.  1.
</event>
<event>
 5    1  0.9091923E-001  0.1000000E+03  0.7546771E-02  0.1163815E+00
         11   -1    0    0    0    0  0.00000000000E+00  0.00000000000E+00  0.50000000000E+02  0.50000000000E+02  0.00000000000E+00 0. -1.
        -11   -1    0    0    0    0 -0.00000000000E+00 -0.00000000000E+00 -0.50000000000E+02  0.50000000000E+02  0.00000000000E+00 0.  1.
         23    2    1    2    0    0  0.00000000000E+00  0.00000000000E+00  0.00000000000E+00  0.10000000000E+03  0.10000000000E+03 0.  0.
          5    1    3    3  501    0  0.35083962557E+02  0.55990716844E+01  0.34866545106E+02  0.50000000000E+02  0.47000000000E+01 0. -1.
         -5    1    3    3    0  501 -0.35083962557E+02 -0.55990716844E+01 -0.34866545106E+02  0.50000000000E+02  0.47000000000E+01 0.  1.
</event>
<event>
 5    1  0.9091923E-001  0.1000000E+03  0.7546771E-02  0.1163815E+00
         11   -1    0    0    0    0  0.00000000000E+00  0.00000000000E+00  0.50000000000E+02  0.50000000000E+02  0.00000000000E+00 0. -1.
        -11   -1    0    0    0    0 -0.00000000000E+00 -0.00000000000E+00 -0.50000000000E+02  0.50000000000E+02  0.00000000000E+00 0.  1.
         23    2    1    2    0    0  0.00000000000E+00  0.00000000000E+00  0.00000000000E+00  0.10000000000E+03  0.10000000000E+03 0.  0.
          5    1    3    3  501    0  0.30451158553E+02  0.38781618522E+02 -0.68281042458E+01  0.50000000000E+02  0.47000000000E+01 0. -1.
         -5    1    3    3    0  501 -0.30451158553E+02 -0.38781618522E+02  0.68281042458E+01  0.50000000000E+02  0.47000000000E+01 0.  1.
</event>
<event>
 5    1  0.9091923E-001  0.1000000E+03  0.7546771E-02  0.1163815E+00
         11   -1    0    0    0    0  0.00000000000E+00  0.00000000000E+00  0.50000000000E+02  0.50000000000E+02  0.00000000000E+00 0. -1.
        -11   -1    0    0    0    0 -0.00000000000E+00 -0.00000000000E+00 -0.50000000000E+02  0.50000000000E+02  0.00000000000E+00 0.  1.
         23    2    1    2    0    0  0.00000000000E+00  0.00000000000E+00  0.00000000000E+00  0.10000000000E+03  0.10000000000E+03 0.  0.
          5    1    3    3  501    0  0.43209874607E+02 -0.15678469530E+02  0.19105034145E+02  0.50000000000E+02  0.47000000000E+01 0. -1.
         -5    1    3    3    0  501 -0.43209874607E+02  0.15678469530E+02 -0.19105034145E+02  0.50000000000E+02  0.47000000000E+01 0.  1.
</event>
<event>
 5    1  0.9091923E-001  0.1000000E+03  0.7546771E-02  0.1163815E+00
         11   -1    0    0    0    0  0.00000000000E+00  0.00000000000E+00  0.50000000000E+02  0.50000000000E+02  0.00000000000E+00 0. -1.
        -11   -1    0    0    0    0 -0.00000000000E+00 -0.00000000000E+00 -0.50000000000E+02  0.50000000000E+02  0.00000000000E+00 0.  1.
         23    2    1    2    0    0  0.00000000000E+00  0.00000000000E+00  0.00000000000E+00  0.10000000000E+03  0.10000000000E+03 0.  0.
          5    1    3    3  501    0  0.26534887756E+02 -0.26076320811E+02  0.33073179840E+02  0.50000000000E+02  0.47000000000E+01 0. -1.
         -5    1    3    3    0  501 -0.26534887756E+02  0.26076320811E+02 -0.33073179840E+02  0.50000000000E+02  0.47000000000E+01 0.  1.
</event>
<event>
 5    1  0.9091923E-001  0.1000000E+03  0.7546771E-02  0.1163815E+00
         11   -1    0    0    0    0  0.00000000000E+00  0.00000000000E+00  0.50000000000E+02  0.50000000000E+02  0.00000000000E+00 0. -1.
        -11   -1    0    0    0    0 -0.00000000000E+00 -0.00000000000E+00 -0.50000000000E+02  0.50000000000E+02  0.00000000000E+00 0.  1.
         23    2    1    2    0    0  0.00000000000E+00  0.00000000000E+00  0.00000000000E+00  0.10000000000E+03  0.10000000000E+03 0.  0.
          5    1    3    3  501    0  0.32756597682E+02  0.26201521216E+02  0.26802902721E+02  0.50000000000E+02  0.47000000000E+01 0. -1.
         -5    1    3    3    0  501 -0.32756597682E+02 -0.26201521216E+02 -0.26802902721E+02  0.50000000000E+02  0.47000000000E+01 0.  1.
</event>
<event>
 5    1  0.9091923E-001  0.1000000E+03  0.7546771E-02  0.1163815E+00
         11   -1    0    0    0    0  0.00000000000E+00  0.00000000000E+00  0.50000000000E+02  0.50000000000E+02  0.00000000000E+00 0. -1.
        -11   -1    0    0    0    0 -0.00000000000E+00 -0.00000000000E+00 -0.50000000000E+02  0.50000000000E+02  0.00000000000E+00 0.  1.
         23    2    1    2    0    0  0.00000000000E+00  0.00000000000E+00  0.00000000000E+00  0.10000000000E+03  0.10000000000E+03 0.  0.
          5    1    3    3  501    0  0.20744675588E+01 -0.18710683962E+02  0.46081632892E+02  0.50000000000E+02  0.47000000000E+01 0. -1.
         -5    1    3    3    0  501 -0.20744675588E+01  0.18710683962E+02 -0.46081632892E+02  0.50000000000E+02  0.47000000000E+01 0.  1.
</event>
<event>
 5    1  0.9091923E-001  0.1000000E+03  0.7546771E-02  0.1163815E+00
         11   -1    0    0    0    0  0.00000000000E+00  0.00000000000E+00  0.50000000000E+02  0.50000000000E+02  0.00000000000E+00 0. -1.
        -11   -1    0    0    0    0 -0.00000000000E+00 -0.00000000000E+00 -0.50000000000E+02  0.50000000000E+02  0.00000000000E+00 0.  1.
         23    2    1    2    0    0  0.00000000000E+00  0.00000000000E+00  0.00000000000E+00  0.10000000000E+03  0.10000000000E+03 0.  0.
          5    1    3    3  501    0  0.41400193582E+02  0.26092154835E+02 -0.91177534204E+01  0.50000000000E+02  0.47000000000E+01 0. -1.
         -5    1    3    3    0  501 -0.41400193582E+02 -0.26092154835E+02  0.91177534204E+01  0.50000000000E+02  0.47000000000E+01 0.  1.
</event>
<event>
 5    1  0.9091923E-001  0.1000000E+03  0.7546771E-02  0.1163815E+00
         11   -1    0    0    0    0  0.00000000000E+00  0.00000000000E+00  0.50000000000E+02  0.50000000000E+02  0.00000000000E+00 0.  1.
        -11   -1    0    0    0    0 -0.00000000000E+00 -0.00000000000E+00 -0.50000000000E+02  0.50000000000E+02  0.00000000000E+00 0. -1.
         23    2    1    2    0    0  0.00000000000E+00  0.00000000000E+00  0.00000000000E+00  0.10000000000E+03  0.10000000000E+03 0.  0.
          5    1    3    3  501    0 -0.47358371174E+02 -0.44951818256E+01  0.14659059318E+02  0.50000000000E+02  0.47000000000E+01 0. -1.
         -5    1    3    3    0  501  0.47358371174E+02  0.44951818256E+01 -0.14659059318E+02  0.50000000000E+02  0.47000000000E+01 0.  1.
</event>
<event>
 5    1  0.9091923E-001  0.1000000E+03  0.7546771E-02  0.1163815E+00
         11   -1    0    0    0    0  0.00000000000E+00  0.00000000000E+00  0.50000000000E+02  0.50000000000E+02  0.00000000000E+00 0.  1.
        -11   -1    0    0    0    0 -0.00000000000E+00 -0.00000000000E+00 -0.50000000000E+02  0.50000000000E+02  0.00000000000E+00 0. -1.
         23    2    1    2    0    0  0.00000000000E+00  0.00000000000E+00  0.00000000000E+00  0.10000000000E+03  0.10000000000E+03 0.  0.
          5    1    3    3  501    0  0.33625473099E+02 -0.28025937712E+02 -0.23701990934E+02  0.50000000000E+02  0.47000000000E+01 0. -1.
         -5    1    3    3    0  501 -0.33625473099E+02  0.28025937712E+02  0.23701990934E+02  0.50000000000E+02  0.47000000000E+01 0.  1.
</event>
<event>
 5    1  0.9091923E-001  0.1000000E+03  0.7546771E-02  0.1163815E+00
         11   -1    0    0    0    0  0.00000000000E+00  0.00000000000E+00  0.50000000000E+02  0.50000000000E+02  0.00000000000E+00 0. -1.
        -11   -1    0    0    0    0 -0.00000000000E+00 -0.00000000000E+00 -0.50000000000E+02  0.50000000000E+02  0.00000000000E+00 0.  1.
         23    2    1    2    0    0  0.00000000000E+00  0.00000000000E+00  0.00000000000E+00  0.10000000000E+03  0.10000000000E+03 0.  0.
          5    1    3    3  501    0  0.40930825731E+02  0.63014596949E+01  0.27620085276E+02  0.50000000000E+02  0.47000000000E+01 0. -1.
         -5    1    3    3    0  501 -0.40930825731E+02 -0.63014596949E+01 -0.27620085276E+02  0.50000000000E+02  0.47000000000E+01 0.  1.
</event>
<event>
 5    1  0.9091923E-001  0.1000000E+03  0.7546771E-02  0.1163815E+00
         11   -1    0    0    0    0  0.00000000000E+00  0.00000000000E+00  0.50000000000E+02  0.50000000000E+02  0.00000000000E+00 0. -1.
        -11   -1    0    0    0    0 -0.00000000000E+00 -0.00000000000E+00 -0.50000000000E+02  0.50000000000E+02  0.00000000000E+00 0.  1.
         23    2    1    2    0    0  0.00000000000E+00  0.00000000000E+00  0.00000000000E+00  0.10000000000E+03  0.10000000000E+03 0.  0.
          5    1    3    3  501    0 -0.43348928970E+02 -0.14885763982E+02  0.19421492936E+02  0.50000000000E+02  0.47000000000E+01 0. -1.
         -5    1    3    3    0  501  0.43348928970E+02  0.14885763982E+02 -0.19421492936E+02  0.50000000000E+02  0.47000000000E+01 0.  1.
</event>
<event>
 5    1  0.9091923E-001  0.1000000E+03  0.7546771E-02  0.1163815E+00
         11   -1    0    0    0    0  0.00000000000E+00  0.00000000000E+00  0.50000000000E+02  0.50000000000E+02  0.00000000000E+00 0. -1.
        -11   -1    0    0    0    0 -0.00000000000E+00 -0.00000000000E+00 -0.50000000000E+02  0.50000000000E+02  0.00000000000E+00 0.  1.
         23    2    1    2    0    0  0.00000000000E+00  0.00000000000E+00  0.00000000000E+00  0.10000000000E+03  0.10000000000E+03 0.  0.
          5    1    3    3  501    0 -0.72690415560E+01  0.67833407821E+01  0.48775581213E+02  0.50000000000E+02  0.47000000000E+01 0. -1.
         -5    1    3    3    0  501  0.72690415560E+01 -0.67833407821E+01 -0.48775581213E+02  0.50000000000E+02  0.47000000000E+01 0.  1.
</event>
<event>
 5    1  0.9091923E-001  0.1000000E+03  0.7546771E-02  0.1163815E+00
         11   -1    0    0    0    0  0.00000000000E+00  0.00000000000E+00  0.50000000000E+02  0.50000000000E+02  0.00000000000E+00 0. -1.
        -11   -1    0    0    0    0 -0.00000000000E+00 -0.00000000000E+00 -0.50000000000E+02  0.50000000000E+02  0.00000000000E+00 0.  1.
         23    2    1    2    0    0  0.00000000000E+00  0.00000000000E+00  0.00000000000E+00  0.10000000000E+03  0.10000000000E+03 0.  0.
          5    1    3    3  501    0 -0.42431732744E+02  0.10496302970E+02  0.23817759767E+02  0.50000000000E+02  0.47000000000E+01 0. -1.
         -5    1    3    3    0  501  0.42431732744E+02 -0.10496302970E+02 -0.23817759767E+02  0.50000000000E+02  0.47000000000E+01 0.  1.
</event>
<event>
 5    1  0.9091923E-001  0.1000000E+03  0.7546771E-02  0.1163815E+00
         11   -1    0    0    0    0  0.00000000000E+00  0.00000000000E+00  0.50000000000E+02  0.50000000000E+02  0.00000000000E+00 0.  1.
        -11   -1    0    0    0    0 -0.00000000000E+00 -0.00000000000E+00 -0.50000000000E+02  0.50000000000E+02  0.00000000000E+00 0. -1.
         23    2    1    2    0    0  0.00000000000E+00  0.00000000000E+00  0.00000000000E+00  0.10000000000E+03  0.10000000000E+03 0.  0.
          5    1    3    3  501    0 -0.36645471196E+02 -0.32959964172E+02 -0.69756865296E+01  0.50000000000E+02  0.47000000000E+01 0. -1.
         -5    1    3    3    0  501  0.36645471196E+02  0.32959964172E+02  0.69756865296E+01  0.50000000000E+02  0.47000000000E+01 0.  1.
</event>
<event>
 5    1  0.9091923E-001  0.1000000E+03  0.7546771E-02  0.1163815E+00
         11   -1    0    0    0    0  0.00000000000E+00  0.00000000000E+00  0.50000000000E+02  0.50000000000E+02  0.00000000000E+00 0. -1.
        -11   -1    0    0    0    0 -0.00000000000E+00 -0.00000000000E+00 -0.50000000000E+02  0.50000000000E+02  0.00000000000E+00 0.  1.
         23    2    1    2    0    0  0.00000000000E+00  0.00000000000E+00  0.00000000000E+00  0.10000000000E+03  0.10000000000E+03 0.  0.
          5    1    3    3  501    0  0.21202460584E+02  0.28924117010E+02  0.34521893348E+02  0.50000000000E+02  0.47000000000E+01 0. -1.
         -5    1    3    3    0  501 -0.21202460584E+02 -0.28924117010E+02 -0.34521893348E+02  0.50000000000E+02  0.47000000000E+01 0.  1.
</event>
<event>
 5    1  0.9091923E-001  0.1000000E+03  0.7546771E-02  0.1163815E+00
         11   -1    0    0    0    0  0.00000000000E+00  0.00000000000E+00  0.50000000000E+02  0.50000000000E+02  0.00000000000E+00 0. -1.
        -11   -1    0    0    0    0 -0.00000000000E+00 -0.00000000000E+00 -0.50000000000E+02  0.50000000000E+02  0.00000000000E+00 0.  1.
         23    2    1    2    0    0  0.00000000000E+00  0.00000000000E+00  0.00000000000E+00  0.10000000000E+03  0.10000000000E+03 0.  0.
          5    1    3    3  501    0 -0.35893486689E+02 -0.34399729247E+02 -0.24952436757E+01  0.50000000000E+02  0.47000000000E+01 0. -1.
         -5    1    3    3    0  501  0.35893486689E+02  0.34399729247E+02  0.24952436757E+01  0.50000000000E+02  0.47000000000E+01 0.  1.
</event>
<event>
 5    1  0.9091923E-001  0.1000000E+03  0.7546771E-02  0.1163815E+00
         11   -1    0    0    0    0  0.00000000000E+00  0.00000000000E+00  0.50000000000E+02  0.50000000000E+02  0.00000000000E+00 0. -1.
        -11   -1    0    0    0    0 -0.00000000000E+00 -0.00000000000E+00 -0.50000000000E+02  0.50000000000E+02  0.00000000000E+00 0.  1.
         23    2    1    2    0    0  0.00000000000E+00  0.00000000000E+00  0.00000000000E+00  0.10000000000E+03  0.10000000000E+03 0.  0.
          5    1    3    3  501    0 -0.24483397429E+02 -0.41490853677E+02  0.12529258218E+02  0.50000000000E+02  0.47000000000E+01 0. -1.
         -5    1    3    3    0  501  0.24483397429E+02  0.41490853677E+02 -0.12529258218E+02  0.50000000000E+02  0.47000000000E+01 0.  1.
</event>
<event>
 5    1  0.9091923E-001  0.1000000E+03  0.7546771E-02  0.1163815E+00
         11   -1    0    0    0    0  0.00000000000E+00  0.00000000000E+00  0.50000000000E+02  0.50000000000E+02  0.00000000000E+00 0. -1.
        -11   -1    0    0    0    0 -0.00000000000E+00 -0.00000000000E+00 -0.50000000000E+02  0.50000000000E+02  0.00000000000E+00 0.  1.
         23    2    1    2    0    0  0.00000000000E+00  0.00000000000E+00  0.00000000000E+00  0.10000000000E+03  0.10000000000E+03 0.  0.
          5    1    3    3  501    0  0.18049030137E+02  0.13541812737E+02  0.44370731557E+02  0.50000000000E+02  0.47000000000E+01 0. -1.
         -5    1    3    3    0  501 -0.18049030137E+02 -0.13541812737E+02 -0.44370731557E+02  0.50000000000E+02  0.47000000000E+01 0.  1.
</event>
<event>
 5    1  0.9091923E-001  0.1000000E+03  0.7546771E-02  0.1163815E+00
         11   -1    0    0    0    0  0.00000000000E+00  0.00000000000E+00  0.50000000000E+02  0.50000000000E+02  0.00000000000E+00 0. -1.
        -11   -1    0    0    0    0 -0.00000000000E+00 -0.00000000000E+00 -0.50000000000E+02  0.50000000000E+02  0.00000000000E+00 0.  1.
         23    2    1    2    0    0  0.00000000000E+00  0.00000000000E+00  0.00000000000E+00  0.10000000000E+03  0.10000000000E+03 0.  0.
          5    1    3    3  501    0 -0.46232295204E+02 -0.13605841767E+02  0.12464587837E+02  0.50000000000E+02  0.47000000000E+01 0. -1.
         -5    1    3    3    0  501  0.46232295204E+02  0.13605841767E+02 -0.12464587837E+02  0.50000000000E+02  0.47000000000E+01 0.  1.
</event>
<event>
 5    1  0.9091923E-001  0.1000000E+03  0.7546771E-02  0.1163815E+00
         11   -1    0    0    0    0  0.00000000000E+00  0.00000000000E+00  0.50000000000E+02  0.50000000000E+02  0.00000000000E+00 0. -1.
        -11   -1    0    0    0    0 -0.00000000000E+00 -0.00000000000E+00 -0.50000000000E+02  0.50000000000E+02  0.00000000000E+00 0.  1.
         23    2    1    2    0    0  0.00000000000E+00  0.00000000000E+00  0.00000000000E+00  0.10000000000E+03  0.10000000000E+03 0.  0.
          5    1    3    3  501    0 -0.11454615277E+02 -0.24989026095E+02  0.41500004381E+02  0.50000000000E+02  0.47000000000E+01 0. -1.
         -5    1    3    3    0  501  0.11454615277E+02  0.24989026095E+02 -0.41500004381E+02  0.50000000000E+02  0.47000000000E+01 0.  1.
</event>
<event>
 5    1  0.9091923E-001  0.1000000E+03  0.7546771E-02  0.1163815E+00
         11   -1    0    0    0    0  0.00000000000E+00  0.00000000000E+00  0.50000000000E+02  0.50000000000E+02  0.00000000000E+00 0. -1.
        -11   -1    0    0    0    0 -0.00000000000E+00 -0.00000000000E+00 -0.50000000000E+02  0.50000000000E+02  0.00000000000E+00 0.  1.
         23    2    1    2    0    0  0.00000000000E+00  0.00000000000E+00  0.00000000000E+00  0.10000000000E+03  0.10000000000E+03 0.  0.
          5    1    3    3  501    0  0.45634540395E+02 -0.18797071517E+02  0.64860485114E+01  0.50000000000E+02  0.47000000000E+01 0. -1.
         -5    1    3    3    0  501 -0.45634540395E+02  0.18797071517E+02 -0.64860485114E+01  0.50000000000E+02  0.47000000000E+01 0.  1.
</event>
<event>
 5    1  0.9091923E-001  0.1000000E+03  0.7546771E-02  0.1163815E+00
         11   -1    0    0    0    0  0.00000000000E+00  0.00000000000E+00  0.50000000000E+02  0.50000000000E+02  0.00000000000E+00 0. -1.
        -11   -1    0    0    0    0 -0.00000000000E+00 -0.00000000000E+00 -0.50000000000E+02  0.50000000000E+02  0.00000000000E+00 0.  1.
         23    2    1    2    0    0  0.00000000000E+00  0.00000000000E+00  0.00000000000E+00  0.10000000000E+03  0.10000000000E+03 0.  0.
          5    1    3    3  501    0  0.31035126434E+02 -0.30492078805E+02  0.24186030211E+02  0.50000000000E+02  0.47000000000E+01 0. -1.
         -5    1    3    3    0  501 -0.31035126434E+02  0.30492078805E+02 -0.24186030211E+02  0.50000000000E+02  0.47000000000E+01 0.  1.
</event>
<event>
 5    1  0.9091923E-001  0.1000000E+03  0.7546771E-02  0.1163815E+00
         11   -1    0    0    0    0  0.00000000000E+00  0.00000000000E+00  0.50000000000E+02  0.50000000000E+02  0.00000000000E+00 0. -1.
        -11   -1    0    0    0    0 -0.00000000000E+00 -0.00000000000E+00 -0.50000000000E+02  0.50000000000E+02  0.00000000000E+00 0.  1.
         23    2    1    2    0    0  0.00000000000E+00  0.00000000000E+00  0.00000000000E+00  0.10000000000E+03  0.10000000000E+03 0.  0.
          5    1    3    3  501    0 -0.36304104692E+02 -0.34055759948E+02  0.35664667657E+00  0.50000000000E+02  0.47000000000E+01 0. -1.
         -5    1    3    3    0  501  0.36304104692E+02  0.34055759948E+02 -0.35664667657E+00  0.50000000000E+02  0.47000000000E+01 0.  1.
</event>
<event>
 5    1  0.9091923E-001  0.1000000E+03  0.7546771E-02  0.1163815E+00
         11   -1    0    0    0    0  0.00000000000E+00  0.00000000000E+00  0.50000000000E+02  0.50000000000E+02  0.00000000000E+00 0. -1.
        -11   -1    0    0    0    0 -0.00000000000E+00 -0.00000000000E+00 -0.50000000000E+02  0.50000000000E+02  0.00000000000E+00 0.  1.
         23    2    1    2    0    0  0.00000000000E+00  0.00000000000E+00  0.00000000000E+00  0.10000000000E+03  0.10000000000E+03 0.  0.
          5    1    3    3  501    0  0.13208463134E+02 -0.87505316439E+01  0.47189773231E+02  0.50000000000E+02  0.47000000000E+01 0. -1.
         -5    1    3    3    0  501 -0.13208463134E+02  0.87505316439E+01 -0.47189773231E+02  0.50000000000E+02  0.47000000000E+01 0.  1.
</event>
<event>
 5    1  0.9091923E-001  0.1000000E+03  0.7546771E-02  0.1163815E+00
         11   -1    0    0    0    0  0.00000000000E+00  0.00000000000E+00  0.50000000000E+02  0.50000000000E+02  0.00000000000E+00 0.  1.
        -11   -1    0    0    0    0 -0.00000000000E+00 -0.00000000000E+00 -0.50000000000E+02  0.50000000000E+02  0.00000000000E+00 0. -1.
         23    2    1    2    0    0  0.00000000000E+00  0.00000000000E+00  0.00000000000E+00  0.10000000000E+03  0.10000000000E+03 0.  0.
          5    1    3    3  501    0 -0.17305352645E+02 -0.23296949903E+02  0.40443626136E+02  0.50000000000E+02  0.47000000000E+01 0.  1.
         -5    1    3    3    0  501  0.17305352645E+02  0.23296949903E+02 -0.40443626136E+02  0.50000000000E+02  0.47000000000E+01 0. -1.
</event>
<event>
 5    1  0.9091923E-001  0.1000000E+03  0.7546771E-02  0.1163815E+00
         11   -1    0    0    0    0  0.00000000000E+00  0.00000000000E+00  0.50000000000E+02  0.50000000000E+02  0.00000000000E+00 0. -1.
        -11   -1    0    0    0    0 -0.00000000000E+00 -0.00000000000E+00 -0.50000000000E+02  0.50000000000E+02  0.00000000000E+00 0.  1.
         23    2    1    2    0    0  0.00000000000E+00  0.00000000000E+00  0.00000000000E+00  0.10000000000E+03  0.10000000000E+03 0.  0.
          5    1    3    3  501    0  0.30530436201E+02 -0.50798968768E+01  0.38987140355E+02  0.50000000000E+02  0.47000000000E+01 0. -1.
         -5    1    3    3    0  501 -0.30530436201E+02  0.50798968768E+01 -0.38987140355E+02  0.50000000000E+02  0.47000000000E+01 0.  1.
</event>
<event>
 5    1  0.9091923E-001  0.1000000E+03  0.7546771E-02  0.1163815E+00
         11   -1    0    0    0    0  0.00000000000E+00  0.00000000000E+00  0.50000000000E+02  0.50000000000E+02  0.00000000000E+00 0.  1.
        -11   -1    0    0    0    0 -0.00000000000E+00 -0.00000000000E+00 -0.50000000000E+02  0.50000000000E+02  0.00000000000E+00 0. -1.
         23    2    1    2    0    0  0.00000000000E+00  0.00000000000E+00  0.00000000000E+00  0.10000000000E+03  0.10000000000E+03 0.  0.
          5    1    3    3  501    0  0.30974336273E+02  0.24441239460E+02  0.30350062703E+02  0.50000000000E+02  0.47000000000E+01 0. -1.
         -5    1    3    3    0  501 -0.30974336273E+02 -0.24441239460E+02 -0.30350062703E+02  0.50000000000E+02  0.47000000000E+01 0.  1.
</event>
<event>
 5    1  0.9091923E-001  0.1000000E+03  0.7546771E-02  0.1163815E+00
         11   -1    0    0    0    0  0.00000000000E+00  0.00000000000E+00  0.50000000000E+02  0.50000000000E+02  0.00000000000E+00 0. -1.
        -11   -1    0    0    0    0 -0.00000000000E+00 -0.00000000000E+00 -0.50000000000E+02  0.50000000000E+02  0.00000000000E+00 0.  1.
         23    2    1    2    0    0  0.00000000000E+00  0.00000000000E+00  0.00000000000E+00  0.10000000000E+03  0.10000000000E+03 0.  0.
          5    1    3    3  501    0  0.11382511747E+02 -0.44132949695E+02  0.20015773219E+02  0.50000000000E+02  0.47000000000E+01 0. -1.
         -5    1    3    3    0  501 -0.11382511747E+02  0.44132949695E+02 -0.20015773219E+02  0.50000000000E+02  0.47000000000E+01 0.  1.
</event>
<event>
 5    1  0.9091923E-001  0.1000000E+03  0.7546771E-02  0.1163815E+00
         11   -1    0    0    0    0  0.00000000000E+00  0.00000000000E+00  0.50000000000E+02  0.50000000000E+02  0.00000000000E+00 0.  1.
        -11   -1    0    0    0    0 -0.00000000000E+00 -0.00000000000E+00 -0.50000000000E+02  0.50000000000E+02  0.00000000000E+00 0. -1.
         23    2    1    2    0    0  0.00000000000E+00  0.00000000000E+00  0.00000000000E+00  0.10000000000E+03  0.10000000000E+03 0.  0.
          5    1    3    3  501    0  0.75117417135E+01  0.10627842835E+02 -0.48047192354E+02  0.50000000000E+02  0.47000000000E+01 0. -1.
         -5    1    3    3    0  501 -0.75117417135E+01 -0.10627842835E+02  0.48047192354E+02  0.50000000000E+02  0.47000000000E+01 0.  1.
</event>
<event>
 5    1  0.9091923E-001  0.1000000E+03  0.7546771E-02  0.1163815E+00
         11   -1    0    0    0    0  0.00000000000E+00  0.00000000000E+00  0.50000000000E+02  0.50000000000E+02  0.00000000000E+00 0. -1.
        -11   -1    0    0    0    0 -0.00000000000E+00 -0.00000000000E+00 -0.50000000000E+02  0.50000000000E+02  0.00000000000E+00 0.  1.
         23    2    1    2    0    0  0.00000000000E+00  0.00000000000E+00  0.00000000000E+00  0.10000000000E+03  0.10000000000E+03 0.  0.
          5    1    3    3  501    0  0.18393908561E+02 -0.46202193674E+02 -0.22206817768E+01  0.50000000000E+02  0.47000000000E+01 0. -1.
         -5    1    3    3    0  501 -0.18393908561E+02  0.46202193674E+02  0.22206817768E+01  0.50000000000E+02  0.47000000000E+01 0.  1.
</event>
<event>
 5    1  0.9091923E-001  0.1000000E+03  0.7546771E-02  0.1163815E+00
         11   -1    0    0    0    0  0.00000000000E+00  0.00000000000E+00  0.50000000000E+02  0.50000000000E+02  0.00000000000E+00 0.  1.
        -11   -1    0    0    0    0 -0.00000000000E+00 -0.00000000000E+00 -0.50000000000E+02  0.50000000000E+02  0.00000000000E+00 0. -1.
         23    2    1    2    0    0  0.00000000000E+00  0.00000000000E+00  0.00000000000E+00  0.10000000000E+03  0.10000000000E+03 0.  0.
          5    1    3    3  501    0  0.28238425502E+02 -0.18401669226E+02 -0.36631678843E+02  0.50000000000E+02  0.47000000000E+01 0. -1.
         -5    1    3    3    0  501 -0.28238425502E+02  0.18401669226E+02  0.36631678843E+02  0.50000000000E+02  0.47000000000E+01 0.  1.
</event>
<event>
 5    1  0.9091923E-001  0.1000000E+03  0.7546771E-02  0.1163815E+00
         11   -1    0    0    0    0  0.00000000000E+00  0.00000000000E+00  0.50000000000E+02  0.50000000000E+02  0.00000000000E+00 0. -1.
        -11   -1    0    0    0    0 -0.00000000000E+00 -0.00000000000E+00 -0.50000000000E+02  0.50000000000E+02  0.00000000000E+00 0.  1.
         23    2    1    2    0    0  0.00000000000E+00  0.00000000000E+00  0.00000000000E+00  0.10000000000E+03  0.10000000000E+03 0.  0.
          5    1    3    3  501    0 -0.12668427411E+02  0.24891613570E+02  0.41204714789E+02  0.50000000000E+02  0.47000000000E+01 0. -1.
         -5    1    3    3    0  501  0.12668427411E+02 -0.24891613570E+02 -0.41204714789E+02  0.50000000000E+02  0.47000000000E+01 0.  1.
</event>
<event>
 5    1  0.9091923E-001  0.1000000E+03  0.7546771E-02  0.1163815E+00
         11   -1    0    0    0    0  0.00000000000E+00  0.00000000000E+00  0.50000000000E+02  0.50000000000E+02  0.00000000000E+00 0. -1.
        -11   -1    0    0    0    0 -0.00000000000E+00 -0.00000000000E+00 -0.50000000000E+02  0.50000000000E+02  0.00000000000E+00 0.  1.
         23    2    1    2    0    0  0.00000000000E+00  0.00000000000E+00  0.00000000000E+00  0.10000000000E+03  0.10000000000E+03 0.  0.
          5    1    3    3  501    0 -0.45534640067E+02  0.11143347590E+02  0.16743128694E+02  0.50000000000E+02  0.47000000000E+01 0. -1.
         -5    1    3    3    0  501  0.45534640067E+02 -0.11143347590E+02 -0.16743128694E+02  0.50000000000E+02  0.47000000000E+01 0.  1.
</event>
<event>
 5    1  0.9091923E-001  0.1000000E+03  0.7546771E-02  0.1163815E+00
         11   -1    0    0    0    0  0.00000000000E+00  0.00000000000E+00  0.50000000000E+02  0.50000000000E+02  0.00000000000E+00 0.  1.
        -11   -1    0    0    0    0 -0.00000000000E+00 -0.00000000000E+00 -0.50000000000E+02  0.50000000000E+02  0.00000000000E+00 0. -1.
         23    2    1    2    0    0  0.00000000000E+00  0.00000000000E+00  0.00000000000E+00  0.10000000000E+03  0.10000000000E+03 0.  0.
          5    1    3    3  501    0  0.13984223176E+02  0.20951101381E+01 -0.47728000332E+02  0.50000000000E+02  0.47000000000E+01 0. -1.
         -5    1    3    3    0  501 -0.13984223176E+02 -0.20951101381E+01  0.47728000332E+02  0.50000000000E+02  0.47000000000E+01 0.  1.
</event>
<event>
 5    1  0.9091923E-001  0.1000000E+03  0.7546771E-02  0.1163815E+00
         11   -1    0    0    0    0  0.00000000000E+00  0.00000000000E+00  0.50000000000E+02  0.50000000000E+02  0.00000000000E+00 0. -1.
        -11   -1    0    0    0    0 -0.00000000000E+00 -0.00000000000E+00 -0.50000000000E+02  0.50000000000E+02  0.00000000000E+00 0.  1.
         23    2    1    2    0    0  0.00000000000E+00  0.00000000000E+00  0.00000000000E+00  0.10000000000E+03  0.10000000000E+03 0.  0.
          5    1    3    3  501    0 -0.59882174464E+01 -0.32483297960E+02  0.37240926485E+02  0.50000000000E+02  0.47000000000E+01 0. -1.
         -5    1    3    3    0  501  0.59882174464E+01  0.32483297960E+02 -0.37240926485E+02  0.50000000000E+02  0.47000000000E+01 0.  1.
</event>
<event>
 5    1  0.9091923E-001  0.1000000E+03  0.7546771E-02  0.1163815E+00
         11   -1    0    0    0    0  0.00000000000E+00  0.00000000000E+00  0.50000000000E+02  0.50000000000E+02  0.00000000000E+00 0.  1.
        -11   -1    0    0    0    0 -0.00000000000E+00 -0.00000000000E+00 -0.50000000000E+02  0.50000000000E+02  0.00000000000E+00 0. -1.
         23    2    1    2    0    0  0.00000000000E+00  0.00000000000E+00  0.00000000000E+00  0.10000000000E+03  0.10000000000E+03 0.  0.
          5    1    3    3  501    0  0.41302183911E+02  0.26989630900E+02  0.66029862950E+01  0.50000000000E+02  0.47000000000E+01 0. -1.
         -5    1    3    3    0  501 -0.41302183911E+02 -0.26989630900E+02 -0.66029862950E+01  0.50000000000E+02  0.47000000000E+01 0.  1.
</event>
<event>
 5    1  0.9091923E-001  0.1000000E+03  0.7546771E-02  0.1163815E+00
         11   -1    0    0    0    0  0.00000000000E+00  0.00000000000E+00  0.50000000000E+02  0.50000000000E+02  0.00000000000E+00 0. -1.
        -11   -1    0    0    0    0 -0.00000000000E+00 -0.00000000000E+00 -0.50000000000E+02  0.50000000000E+02  0.00000000000E+00 0.  1.
         23    2    1    2    0    0  0.00000000000E+00  0.00000000000E+00  0.00000000000E+00  0.10000000000E+03  0.10000000000E+03 0.  0.
          5    1    3    3  501    0  0.42395494504E+02  0.19756795043E+02  0.17035289707E+02  0.50000000000E+02  0.47000000000E+01 0. -1.
         -5    1    3    3    0  501 -0.42395494504E+02 -0.19756795043E+02 -0.17035289707E+02  0.50000000000E+02  0.47000000000E+01 0.  1.
</event>
<event>
 5    1  0.9091923E-001  0.1000000E+03  0.7546771E-02  0.1163815E+00
         11   -1    0    0    0    0  0.00000000000E+00  0.00000000000E+00  0.50000000000E+02  0.50000000000E+02  0.00000000000E+00 0. -1.
        -11   -1    0    0    0    0 -0.00000000000E+00 -0.00000000000E+00 -0.50000000000E+02  0.50000000000E+02  0.00000000000E+00 0.  1.
         23    2    1    2    0    0  0.00000000000E+00  0.00000000000E+00  0.00000000000E+00  0.10000000000E+03  0.10000000000E+03 0.  0.
          5    1    3    3  501    0  0.48818083868E+02 -0.84194628246E+01  0.48803005234E+01  0.50000000000E+02  0.47000000000E+01 0. -1.
         -5    1    3    3    0  501 -0.48818083868E+02  0.84194628246E+01 -0.48803005234E+01  0.50000000000E+02  0.47000000000E+01 0.  1.
</event>
<event>
 5    1  0.9091923E-001  0.1000000E+03  0.7546771E-02  0.1163815E+00
         11   -1    0    0    0    0  0.00000000000E+00  0.00000000000E+00  0.50000000000E+02  0.50000000000E+02  0.00000000000E+00 0.  1.
        -11   -1    0    0    0    0 -0.00000000000E+00 -0.00000000000E+00 -0.50000000000E+02  0.50000000000E+02  0.00000000000E+00 0. -1.
         23    2    1    2    0    0  0.00000000000E+00  0.00000000000E+00  0.00000000000E+00  0.10000000000E+03  0.10000000000E+03 0.  0.
          5    1    3    3  501    0  0.46969978103E+02 -0.20604908406E+01 -0.16354985005E+02  0.50000000000E+02  0.47000000000E+01 0. -1.
         -5    1    3    3    0  501 -0.46969978103E+02  0.20604908406E+01  0.16354985005E+02  0.50000000000E+02  0.47000000000E+01 0.  1.
</event>
<event>
 5    1  0.9091923E-001  0.1000000E+03  0.7546771E-02  0.1163815E+00
         11   -1    0    0    0    0  0.00000000000E+00  0.00000000000E+00  0.50000000000E+02  0.50000000000E+02  0.00000000000E+00 0.  1.
        -11   -1    0    0    0    0 -0.00000000000E+00 -0.00000000000E+00 -0.50000000000E+02  0.50000000000E+02  0.00000000000E+00 0. -1.
         23    2    1    2    0    0  0.00000000000E+00  0.00000000000E+00  0.00000000000E+00  0.10000000000E+03  0.10000000000E+03 0.  0.
          5    1    3    3  501    0  0.48299479803E+02 -0.11195466340E+02 -0.44420472955E+01  0.50000000000E+02  0.47000000000E+01 0. -1.
         -5    1    3    3    0  501 -0.48299479803E+02  0.11195466340E+02  0.44420472955E+01  0.50000000000E+02  0.47000000000E+01 0.  1.
</event>
<event>
 5    1  0.9091923E-001  0.1000000E+03  0.7546771E-02  0.1163815E+00
         11   -1    0    0    0    0  0.00000000000E+00  0.00000000000E+00  0.50000000000E+02  0.50000000000E+02  0.00000000000E+00 0. -1.
        -11   -1    0    0    0    0 -0.00000000000E+00 -0.00000000000E+00 -0.50000000000E+02  0.50000000000E+02  0.00000000000E+00 0.  1.
         23    2    1    2    0    0  0.00000000000E+00  0.00000000000E+00  0.00000000000E+00  0.10000000000E+03  0.10000000000E+03 0.  0.
          5    1    3    3  501    0 -0.13934487186E+02  0.78128642558E+01  0.47145511122E+02  0.50000000000E+02  0.47000000000E+01 0. -1.
         -5    1    3    3    0  501  0.13934487186E+02 -0.78128642558E+01 -0.47145511122E+02  0.50000000000E+02  0.47000000000E+01 0.  1.
</event>
<event>
 5    1  0.9091923E-001  0.1000000E+03  0.7546771E-02  0.1163815E+00
         11   -1    0    0    0    0  0.00000000000E+00  0.00000000000E+00  0.50000000000E+02  0.50000000000E+02  0.00000000000E+00 0. -1.
        -11   -1    0    0    0    0 -0.00000000000E+00 -0.00000000000E+00 -0.50000000000E+02  0.50000000000E+02  0.00000000000E+00 0.  1.
         23    2    1    2    0    0  0.00000000000E+00  0.00000000000E+00  0.00000000000E+00  0.10000000000E+03  0.10000000000E+03 0.  0.
          5    1    3    3  501    0 -0.33456469853E+02  0.19096137886E+02  0.31526372180E+02  0.50000000000E+02  0.47000000000E+01 0. -1.
         -5    1    3    3    0  501  0.33456469853E+02 -0.19096137886E+02 -0.31526372180E+02  0.50000000000E+02  0.47000000000E+01 0.  1.
</event>
<event>
 5    1  0.9091923E-001  0.1000000E+03  0.7546771E-02  0.1163815E+00
         11   -1    0    0    0    0  0.00000000000E+00  0.00000000000E+00  0.50000000000E+02  0.50000000000E+02  0.00000000000E+00 0. -1.
        -11   -1    0    0    0    0 -0.00000000000E+00 -0.00000000000E+00 -0.50000000000E+02  0.50000000000E+02  0.00000000000E+00 0.  1.
         23    2    1    2    0    0  0.00000000000E+00  0.00000000000E+00  0.00000000000E+00  0.10000000000E+03  0.10000000000E+03 0.  0.
          5    1    3    3  501    0  0.37519311205E+02 -0.28997091879E+02  0.15145294626E+02  0.50000000000E+02  0.47000000000E+01 0. -1.
         -5    1    3    3    0  501 -0.37519311205E+02  0.28997091879E+02 -0.15145294626E+02  0.50000000000E+02  0.47000000000E+01 0.  1.
</event>
<event>
 5    1  0.9091923E-001  0.1000000E+03  0.7546771E-02  0.1163815E+00
         11   -1    0    0    0    0  0.00000000000E+00  0.00000000000E+00  0.50000000000E+02  0.50000000000E+02  0.00000000000E+00 0. -1.
        -11   -1    0    0    0    0 -0.00000000000E+00 -0.00000000000E+00 -0.50000000000E+02  0.50000000000E+02  0.00000000000E+00 0.  1.
         23    2    1    2    0    0  0.00000000000E+00  0.00000000000E+00  0.00000000000E+00  0.10000000000E+03  0.10000000000E+03 0.  0.
          5    1    3    3  501    0  0.20070645729E+01 -0.49731251198E+02 -0.82725211480E+00  0.50000000000E+02  0.47000000000E+01 0. -1.
         -5    1    3    3    0  501 -0.20070645729E+01  0.49731251198E+02  0.82725211480E+00  0.50000000000E+02  0.47000000000E+01 0.  1.
</event>
<event>
 5    1  0.9091923E-001  0.1000000E+03  0.7546771E-02  0.1163815E+00
         11   -1    0    0    0    0  0.00000000000E+00  0.00000000000E+00  0.50000000000E+02  0.50000000000E+02  0.00000000000E+00 0. -1.
        -11   -1    0    0    0    0 -0.00000000000E+00 -0.00000000000E+00 -0.50000000000E+02  0.50000000000E+02  0.00000000000E+00 0.  1.
         23    2    1    2    0    0  0.00000000000E+00  0.00000000000E+00  0.00000000000E+00  0.10000000000E+03  0.10000000000E+03 0.  0.
          5    1    3    3  501    0 -0.19354725193E+02  0.35312696018E+02 -0.29262913605E+02  0.50000000000E+02  0.47000000000E+01 0. -1.
         -5    1    3    3    0  501  0.19354725193E+02 -0.35312696018E+02  0.29262913605E+02  0.50000000000E+02  0.47000000000E+01 0.  1.
</event>
<event>
 5    1  0.9091923E-001  0.1000000E+03  0.7546771E-02  0.1163815E+00
         11   -1    0    0    0    0  0.00000000000E+00  0.00000000000E+00  0.50000000000E+02  0.50000000000E+02  0.00000000000E+00 0. -1.
        -11   -1    0    0    0    0 -0.00000000000E+00 -0.00000000000E+00 -0.50000000000E+02  0.50000000000E+02  0.00000000000E+00 0.  1.
         23    2    1    2    0    0  0.00000000000E+00  0.00000000000E+00  0.00000000000E+00  0.10000000000E+03  0.10000000000E+03 0.  0.
          5    1    3    3  501    0  0.28667556568E+02  0.26829646653E+02  0.30598223166E+02  0.50000000000E+02  0.47000000000E+01 0. -1.
         -5    1    3    3    0  501 -0.28667556568E+02 -0.26829646653E+02 -0.30598223166E+02  0.50000000000E+02  0.47000000000E+01 0.  1.
</event>
<event>
 5    1  0.9091923E-001  0.1000000E+03  0.7546771E-02  0.1163815E+00
         11   -1    0    0    0    0  0.00000000000E+00  0.00000000000E+00  0.50000000000E+02  0.50000000000E+02  0.00000000000E+00 0.  1.
        -11   -1    0    0    0    0 -0.00000000000E+00 -0.00000000000E+00 -0.50000000000E+02  0.50000000000E+02  0.00000000000E+00 0. -1.
         23    2    1    2    0    0  0.00000000000E+00  0.00000000000E+00  0.00000000000E+00  0.10000000000E+03  0.10000000000E+03 0.  0.
          5    1    3    3  501    0 -0.22563647576E+02  0.39546536359E+02  0.20121214429E+02  0.50000000000E+02  0.47000000000E+01 0.  1.
         -5    1    3    3    0  501  0.22563647576E+02 -0.39546536359E+02 -0.20121214429E+02  0.50000000000E+02  0.47000000000E+01 0. -1.
</event>
<event>
 5    1  0.9091923E-001  0.1000000E+03  0.7546771E-02  0.1163815E+00
         11   -1    0    0    0    0  0.00000000000E+00  0.00000000000E+00  0.50000000000E+02  0.50000000000E+02  0.00000000000E+00 0. -1.
        -11   -1    0    0    0    0 -0.00000000000E+00 -0.00000000000E+00 -0.50000000000E+02  0.50000000000E+02  0.00000000000E+00 0.  1.
         23    2    1    2    0    0  0.00000000000E+00  0.00000000000E+00  0.00000000000E+00  0.10000000000E+03  0.10000000000E+03 0.  0.
          5    1    3    3  501    0 -0.44913599235E+02  0.64720779810E+01  0.20464379062E+02  0.50000000000E+02  0.47000000000E+01 0. -1.
         -5    1    3    3    0  501  0.44913599235E+02 -0.64720779810E+01 -0.20464379062E+02  0.50000000000E+02  0.47000000000E+01 0.  1.
</event>
<event>
 5    1  0.9091923E-001  0.1000000E+03  0.7546771E-02  0.1163815E+00
         11   -1    0    0    0    0  0.00000000000E+00  0.00000000000E+00  0.50000000000E+02  0.50000000000E+02  0.00000000000E+00 0. -1.
        -11   -1    0    0    0    0 -0.00000000000E+00 -0.00000000000E+00 -0.50000000000E+02  0.50000000000E+02  0.00000000000E+00 0.  1.
         23    2    1    2    0    0  0.00000000000E+00  0.00000000000E+00  0.00000000000E+00  0.10000000000E+03  0.10000000000E+03 0.  0.
          5    1    3    3  501    0 -0.16175805314E+01 -0.43182501954E+02  0.24709612668E+02  0.50000000000E+02  0.47000000000E+01 0. -1.
         -5    1    3    3    0  501  0.16175805314E+01  0.43182501954E+02 -0.24709612668E+02  0.50000000000E+02  0.47000000000E+01 0.  1.
</event>
<event>
 5    1  0.9091923E-001  0.1000000E+03  0.7546771E-02  0.1163815E+00
         11   -1    0    0    0    0  0.00000000000E+00  0.00000000000E+00  0.50000000000E+02  0.50000000000E+02  0.00000000000E+00 0. -1.
        -11   -1    0    0    0    0 -0.00000000000E+00 -0.00000000000E+00 -0.50000000000E+02  0.50000000000E+02  0.00000000000E+00 0.  1.
         23    2    1    2    0    0  0.00000000000E+00  0.00000000000E+00  0.00000000000E+00  0.10000000000E+03  0.10000000000E+03 0.  0.
          5    1    3    3  501    0 -0.14659325510E+02 -0.22801515393E+02  0.41750509834E+02  0.50000000000E+02  0.47000000000E+01 0. -1.
         -5    1    3    3    0  501  0.14659325510E+02  0.22801515393E+02 -0.41750509834E+02  0.50000000000E+02  0.47000000000E+01 0.  1.
</event>
<event>
 5    1  0.9091923E-001  0.1000000E+03  0.7546771E-02  0.1163815E+00
         11   -1    0    0    0    0  0.00000000000E+00  0.00000000000E+00  0.50000000000E+02  0.50000000000E+02  0.00000000000E+00 0.  1.
        -11   -1    0    0    0    0 -0.00000000000E+00 -0.00000000000E+00 -0.50000000000E+02  0.50000000000E+02  0.00000000000E+00 0. -1.
         23    2    1    2    0    0  0.00000000000E+00  0.00000000000E+00  0.00000000000E+00  0.10000000000E+03  0.10000000000E+03 0.  0.
          5    1    3    3  501    0 -0.12240630577E+02  0.48032666868E+02 -0.45760109960E+01  0.50000000000E+02  0.47000000000E+01 0. -1.
         -5    1    3    3    0  501  0.12240630577E+02 -0.48032666868E+02  0.45760109960E+01  0.50000000000E+02  0.47000000000E+01 0.  1.
</event>
<event>
 5    1  0.9091923E-001  0.1000000E+03  0.7546771E-02  0.1163815E+00
         11   -1    0    0    0    0  0.00000000000E+00  0.00000000000E+00  0.50000000000E+02  0.50000000000E+02  0.00000000000E+00 0. -1.
        -11   -1    0    0    0    0 -0.00000000000E+00 -0.00000000000E+00 -0.50000000000E+02  0.50000000000E+02  0.00000000000E+00 0.  1.
         23    2    1    2    0    0  0.00000000000E+00  0.00000000000E+00  0.00000000000E+00  0.10000000000E+03  0.10000000000E+03 0.  0.
          5    1    3    3  501    0  0.14534949479E+02  0.36166703314E+02  0.30961505374E+02  0.50000000000E+02  0.47000000000E+01 0. -1.
         -5    1    3    3    0  501 -0.14534949479E+02 -0.36166703314E+02 -0.30961505374E+02  0.50000000000E+02  0.47000000000E+01 0.  1.
</event>
<event>
 5    1  0.9091923E-001  0.1000000E+03  0.7546771E-02  0.1163815E+00
         11   -1    0    0    0    0  0.00000000000E+00  0.00000000000E+00  0.50000000000E+02  0.50000000000E+02  0.00000000000E+00 0. -1.
        -11   -1    0    0    0    0 -0.00000000000E+00 -0.00000000000E+00 -0.50000000000E+02  0.50000000000E+02  0.00000000000E+00 0.  1.
         23    2    1    2    0    0  0.00000000000E+00  0.00000000000E+00  0.00000000000E+00  0.10000000000E+03  0.10000000000E+03 0.  0.
          5    1    3    3  501    0 -0.76752574050E+01  0.61211516397E+01  0.48800941859E+02  0.50000000000E+02  0.47000000000E+01 0. -1.
         -5    1    3    3    0  501  0.76752574050E+01 -0.61211516397E+01 -0.48800941859E+02  0.50000000000E+02  0.47000000000E+01 0.  1.
</event>
<event>
 5    1  0.9091923E-001  0.1000000E+03  0.7546771E-02  0.1163815E+00
         11   -1    0    0    0    0  0.00000000000E+00  0.00000000000E+00  0.50000000000E+02  0.50000000000E+02  0.00000000000E+00 0. -1.
        -11   -1    0    0    0    0 -0.00000000000E+00 -0.00000000000E+00 -0.50000000000E+02  0.50000000000E+02  0.00000000000E+00 0.  1.
         23    2    1    2    0    0  0.00000000000E+00  0.00000000000E+00  0.00000000000E+00  0.10000000000E+03  0.10000000000E+03 0.  0.
          5    1    3    3  501    0 -0.39166323025E+02  0.30287941265E+02 -0.51526454012E+01  0.50000000000E+02  0.47000000000E+01 0. -1.
         -5    1    3    3    0  501  0.39166323025E+02 -0.30287941265E+02  0.51526454012E+01  0.50000000000E+02  0.47000000000E+01 0.  1.
</event>
<event>
 5    1  0.9091923E-001  0.1000000E+03  0.7546771E-02  0.1163815E+00
         11   -1    0    0    0    0  0.00000000000E+00  0.00000000000E+00  0.50000000000E+02  0.50000000000E+02  0.00000000000E+00 0. -1.
        -11   -1    0    0    0    0 -0.00000000000E+00 -0.00000000000E+00 -0.50000000000E+02  0.50000000000E+02  0.00000000000E+00 0.  1.
         23    2    1    2    0    0  0.00000000000E+00  0.00000000000E+00  0.00000000000E+00  0.10000000000E+03  0.10000000000E+03 0.  0.
          5    1    3    3  501    0  0.17820794705E+02 -0.13183823721E+02  0.44570349653E+02  0.50000000000E+02  0.47000000000E+01 0. -1.
         -5    1    3    3    0  501 -0.17820794705E+02  0.13183823721E+02 -0.44570349653E+02  0.50000000000E+02  0.47000000000E+01 0.  1.
</event>
<event>
 5    1  0.9091923E-001  0.1000000E+03  0.7546771E-02  0.1163815E+00
         11   -1    0    0    0    0  0.00000000000E+00  0.00000000000E+00  0.50000000000E+02  0.50000000000E+02  0.00000000000E+00 0.  1.
        -11   -1    0    0    0    0 -0.00000000000E+00 -0.00000000000E+00 -0.50000000000E+02  0.50000000000E+02  0.00000000000E+00 0. -1.
         23    2    1    2    0    0  0.00000000000E+00  0.00000000000E+00  0.00000000000E+00  0.10000000000E+03  0.10000000000E+03 0.  0.
          5    1    3    3  501    0 -0.23619376624E+02 -0.26871808126E+02 -0.34611283940E+02  0.50000000000E+02  0.47000000000E+01 0. -1.
         -5    1    3    3    0  501  0.23619376624E+02  0.26871808126E+02  0.34611283940E+02  0.50000000000E+02  0.47000000000E+01 0.  1.
</event>
<event>
 5    1  0.9091923E-001  0.1000000E+03  0.7546771E-02  0.1163815E+00
         11   -1    0    0    0    0  0.00000000000E+00  0.00000000000E+00  0.50000000000E+02  0.50000000000E+02  0.00000000000E+00 0. -1.
        -11   -1    0    0    0    0 -0.00000000000E+00 -0.00000000000E+00 -0.50000000000E+02  0.50000000000E+02  0.00000000000E+00 0.  1.
         23    2    1    2    0    0  0.00000000000E+00  0.00000000000E+00  0.00000000000E+00  0.10000000000E+03  0.10000000000E+03 0.  0.
          5    1    3    3  501    0  0.21285782789E+02  0.44873859345E+02  0.33409876602E+01  0.50000000000E+02  0.47000000000E+01 0. -1.
         -5    1    3    3    0  501 -0.21285782789E+02 -0.44873859345E+02 -0.33409876602E+01  0.50000000000E+02  0.47000000000E+01 0.  1.
</event>
<event>
 5    1  0.9091923E-001  0.1000000E+03  0.7546771E-02  0.1163815E+00
         11   -1    0    0    0    0  0.00000000000E+00  0.00000000000E+00  0.50000000000E+02  0.50000000000E+02  0.00000000000E+00 0. -1.
        -11   -1    0    0    0    0 -0.00000000000E+00 -0.00000000000E+00 -0.50000000000E+02  0.50000000000E+02  0.00000000000E+00 0.  1.
         23    2    1    2    0    0  0.00000000000E+00  0.00000000000E+00  0.00000000000E+00  0.10000000000E+03  0.10000000000E+03 0.  0.
          5    1    3    3  501    0 -0.28358162025E+02 -0.38872652358E+02 -0.12753099434E+02  0.50000000000E+02  0.47000000000E+01 0. -1.
         -5    1    3    3    0  501  0.28358162025E+02  0.38872652358E+02  0.12753099434E+02  0.50000000000E+02  0.47000000000E+01 0.  1.
</event>
<event>
 5    1  0.9091923E-001  0.1000000E+03  0.7546771E-02  0.1163815E+00
         11   -1    0    0    0    0  0.00000000000E+00  0.00000000000E+00  0.50000000000E+02  0.50000000000E+02  0.00000000000E+00 0. -1.
        -11   -1    0    0    0    0 -0.00000000000E+00 -0.00000000000E+00 -0.50000000000E+02  0.50000000000E+02  0.00000000000E+00 0.  1.
         23    2    1    2    0    0  0.00000000000E+00  0.00000000000E+00  0.00000000000E+00  0.10000000000E+03  0.10000000000E+03 0.  0.
          5    1    3    3  501    0 -0.27609397197E+02 -0.87281612485E+01  0.40490127039E+02  0.50000000000E+02  0.47000000000E+01 0. -1.
         -5    1    3    3    0  501  0.27609397197E+02  0.87281612485E+01 -0.40490127039E+02  0.50000000000E+02  0.47000000000E+01 0.  1.
</event>
<event>
 5    1  0.9091923E-001  0.1000000E+03  0.7546771E-02  0.1163815E+00
         11   -1    0    0    0    0  0.00000000000E+00  0.00000000000E+00  0.50000000000E+02  0.50000000000E+02  0.00000000000E+00 0. -1.
        -11   -1    0    0    0    0 -0.00000000000E+00 -0.00000000000E+00 -0.50000000000E+02  0.50000000000E+02  0.00000000000E+00 0.  1.
         23    2    1    2    0    0  0.00000000000E+00  0.00000000000E+00  0.00000000000E+00  0.10000000000E+03  0.10000000000E+03 0.  0.
          5    1    3    3  501    0 -0.15141277192E+02 -0.45111576142E+02  0.14614972562E+02  0.50000000000E+02  0.47000000000E+01 0. -1.
         -5    1    3    3    0  501  0.15141277192E+02  0.45111576142E+02 -0.14614972562E+02  0.50000000000E+02  0.47000000000E+01 0.  1.
</event>
<event>
 5    1  0.9091923E-001  0.1000000E+03  0.7546771E-02  0.1163815E+00
         11   -1    0    0    0    0  0.00000000000E+00  0.00000000000E+00  0.50000000000E+02  0.50000000000E+02  0.00000000000E+00 0. -1.
        -11   -1    0    0    0    0 -0.00000000000E+00 -0.00000000000E+00 -0.50000000000E+02  0.50000000000E+02  0.00000000000E+00 0.  1.
         23    2    1    2    0    0  0.00000000000E+00  0.00000000000E+00  0.00000000000E+00  0.10000000000E+03  0.10000000000E+03 0.  0.
          5    1    3    3  501    0  0.22721455372E+02  0.25663838029E+02  0.36097269750E+02  0.50000000000E+02  0.47000000000E+01 0. -1.
         -5    1    3    3    0  501 -0.22721455372E+02 -0.25663838029E+02 -0.36097269750E+02  0.50000000000E+02  0.47000000000E+01 0.  1.
</event>
<event>
 5    1  0.9091923E-001  0.1000000E+03  0.7546771E-02  0.1163815E+00
         11   -1    0    0    0    0  0.00000000000E+00  0.00000000000E+00  0.50000000000E+02  0.50000000000E+02  0.00000000000E+00 0. -1.
        -11   -1    0    0    0    0 -0.00000000000E+00 -0.00000000000E+00 -0.50000000000E+02  0.50000000000E+02  0.00000000000E+00 0.  1.
         23    2    1    2    0    0  0.00000000000E+00  0.00000000000E+00  0.00000000000E+00  0.10000000000E+03  0.10000000000E+03 0.  0.
          5    1    3    3  501    0 -0.45545530778E+01 -0.24865632491E+02  0.42882005166E+02  0.50000000000E+02  0.47000000000E+01 0. -1.
         -5    1    3    3    0  501  0.45545530778E+01  0.24865632491E+02 -0.42882005166E+02  0.50000000000E+02  0.47000000000E+01 0.  1.
</event>
<event>
 5    1  0.9091923E-001  0.1000000E+03  0.7546771E-02  0.1163815E+00
         11   -1    0    0    0    0  0.00000000000E+00  0.00000000000E+00  0.50000000000E+02  0.50000000000E+02  0.00000000000E+00 0. -1.
        -11   -1    0    0    0    0 -0.00000000000E+00 -0.00000000000E+00 -0.50000000000E+02  0.50000000000E+02  0.00000000000E+00 0.  1.
         23    2    1    2    0    0  0.00000000000E+00  0.00000000000E+00  0.00000000000E+00  0.10000000000E+03  0.10000000000E+03 0.  0.
          5    1    3    3  501    0 -0.10284862098E+02  0.48676503933E+02  0.16521429888E+01  0.50000000000E+02  0.47000000000E+01 0. -1.
         -5    1    3    3    0  501  0.10284862098E+02 -0.48676503933E+02 -0.16521429888E+01  0.50000000000E+02  0.47000000000E+01 0.  1.
</event>
<event>
 5    1  0.9091923E-001  0.1000000E+03  0.7546771E-02  0.1163815E+00
         11   -1    0    0    0    0  0.00000000000E+00  0.00000000000E+00  0.50000000000E+02  0.50000000000E+02  0.00000000000E+00 0. -1.
        -11   -1    0    0    0    0 -0.00000000000E+00 -0.00000000000E+00 -0.50000000000E+02  0.50000000000E+02  0.00000000000E+00 0.  1.
         23    2    1    2    0    0  0.00000000000E+00  0.00000000000E+00  0.00000000000E+00  0.10000000000E+03  0.10000000000E+03 0.  0.
          5    1    3    3  501    0  0.11982376895E+01  0.20962553310E+02  0.45133641391E+02  0.50000000000E+02  0.47000000000E+01 0. -1.
         -5    1    3    3    0  501 -0.11982376895E+01 -0.20962553310E+02 -0.45133641391E+02  0.50000000000E+02  0.47000000000E+01 0.  1.
</event>
<event>
 5    1  0.9091923E-001  0.1000000E+03  0.7546771E-02  0.1163815E+00
         11   -1    0    0    0    0  0.00000000000E+00  0.00000000000E+00  0.50000000000E+02  0.50000000000E+02  0.00000000000E+00 0. -1.
        -11   -1    0    0    0    0 -0.00000000000E+00 -0.00000000000E+00 -0.50000000000E+02  0.50000000000E+02  0.00000000000E+00 0.  1.
         23    2    1    2    0    0  0.00000000000E+00  0.00000000000E+00  0.00000000000E+00  0.10000000000E+03  0.10000000000E+03 0.  0.
          5    1    3    3  501    0  0.29541122216E+02  0.35080528925E+02 -0.19354291219E+02  0.50000000000E+02  0.47000000000E+01 0. -1.
         -5    1    3    3    0  501 -0.29541122216E+02 -0.35080528925E+02  0.19354291219E+02  0.50000000000E+02  0.47000000000E+01 0.  1.
</event>
<event>
 5    1  0.9091923E-001  0.1000000E+03  0.7546771E-02  0.1163815E+00
         11   -1    0    0    0    0  0.00000000000E+00  0.00000000000E+00  0.50000000000E+02  0.50000000000E+02  0.00000000000E+00 0.  1.
        -11   -1    0    0    0    0 -0.00000000000E+00 -0.00000000000E+00 -0.50000000000E+02  0.50000000000E+02  0.00000000000E+00 0. -1.
         23    2    1    2    0    0  0.00000000000E+00  0.00000000000E+00  0.00000000000E+00  0.10000000000E+03  0.10000000000E+03 0.  0.
          5    1    3    3  501    0 -0.32514615082E+02  0.37365397467E+02 -0.49534713301E+01  0.50000000000E+02  0.47000000000E+01 0. -1.
         -5    1    3    3    0  501  0.32514615082E+02 -0.37365397467E+02  0.49534713301E+01  0.50000000000E+02  0.47000000000E+01 0.  1.
</event>
<event>
 5    1  0.9091923E-001  0.1000000E+03  0.7546771E-02  0.1163815E+00
         11   -1    0    0    0    0  0.00000000000E+00  0.00000000000E+00  0.50000000000E+02  0.50000000000E+02  0.00000000000E+00 0.  1.
        -11   -1    0    0    0    0 -0.00000000000E+00 -0.00000000000E+00 -0.50000000000E+02  0.50000000000E+02  0.00000000000E+00 0. -1.
         23    2    1    2    0    0  0.00000000000E+00  0.00000000000E+00  0.00000000000E+00  0.10000000000E+03  0.10000000000E+03 0.  0.
          5    1    3    3  501    0 -0.18875044111E+02 -0.45858756077E+02 -0.43147654526E+01  0.50000000000E+02  0.47000000000E+01 0. -1.
         -5    1    3    3    0  501  0.18875044111E+02  0.45858756077E+02  0.43147654526E+01  0.50000000000E+02  0.47000000000E+01 0.  1.
</event>
<event>
 5    1  0.9091923E-001  0.1000000E+03  0.7546771E-02  0.1163815E+00
         11   -1    0    0    0    0  0.00000000000E+00  0.00000000000E+00  0.50000000000E+02  0.50000000000E+02  0.00000000000E+00 0.  1.
        -11   -1    0    0    0    0 -0.00000000000E+00 -0.00000000000E+00 -0.50000000000E+02  0.50000000000E+02  0.00000000000E+00 0. -1.
         23    2    1    2    0    0  0.00000000000E+00  0.00000000000E+00  0.00000000000E+00  0.10000000000E+03  0.10000000000E+03 0.  0.
          5    1    3    3  501    0  0.48891517914E+02 -0.29682180011E+01 -0.88723817501E+01  0.50000000000E+02  0.47000000000E+01 0. -1.
         -5    1    3    3    0  501 -0.48891517914E+02  0.29682180011E+01  0.88723817501E+01  0.50000000000E+02  0.47000000000E+01 0.  1.
</event>
<event>
 5    1  0.9091923E-001  0.1000000E+03  0.7546771E-02  0.1163815E+00
         11   -1    0    0    0    0  0.00000000000E+00  0.00000000000E+00  0.50000000000E+02  0.50000000000E+02  0.00000000000E+00 0.  1.
        -11   -1    0    0    0    0 -0.00000000000E+00 -0.00000000000E+00 -0.50000000000E+02  0.50000000000E+02  0.00000000000E+00 0. -1.
         23    2    1    2    0    0  0.00000000000E+00  0.00000000000E+00  0.00000000000E+00  0.10000000000E+03  0.10000000000E+03 0.  0.
          5    1    3    3  501    0  0.93611371512E+01  0.10045297527E+02 -0.47847373061E+02  0.50000000000E+02  0.47000000000E+01 0. -1.
         -5    1    3    3    0  501 -0.93611371512E+01 -0.10045297527E+02  0.47847373061E+02  0.50000000000E+02  0.47000000000E+01 0.  1.
</event>
<event>
 5    1  0.9091923E-001  0.1000000E+03  0.7546771E-02  0.1163815E+00
         11   -1    0    0    0    0  0.00000000000E+00  0.00000000000E+00  0.50000000000E+02  0.50000000000E+02  0.00000000000E+00 0.  1.
        -11   -1    0    0    0    0 -0.00000000000E+00 -0.00000000000E+00 -0.50000000000E+02  0.50000000000E+02  0.00000000000E+00 0. -1.
         23    2    1    2    0    0  0.00000000000E+00  0.00000000000E+00  0.00000000000E+00  0.10000000000E+03  0.10000000000E+03 0.  0.
          5    1    3    3  501    0 -0.26938763830E+02 -0.36134984199E+01 -0.41703184920E+02  0.50000000000E+02  0.47000000000E+01 0. -1.
         -5    1    3    3    0  501  0.26938763830E+02  0.36134984199E+01  0.41703184920E+02  0.50000000000E+02  0.47000000000E+01 0.  1.
</event>
<event>
 5    1  0.9091923E-001  0.1000000E+03  0.7546771E-02  0.1163815E+00
         11   -1    0    0    0    0  0.00000000000E+00  0.00000000000E+00  0.50000000000E+02  0.50000000000E+02  0.00000000000E+00 0. -1.
        -11   -1    0    0    0    0 -0.00000000000E+00 -0.00000000000E+00 -0.50000000000E+02  0.50000000000E+02  0.00000000000E+00 0.  1.
         23    2    1    2    0    0  0.00000000000E+00  0.00000000000E+00  0.00000000000E+00  0.10000000000E+03  0.10000000000E+03 0.  0.
          5    1    3    3  501    0  0.18249291240E+02  0.37399801154E+02  0.27315348119E+02  0.50000000000E+02  0.47000000000E+01 0. -1.
         -5    1    3    3    0  501 -0.18249291240E+02 -0.37399801154E+02 -0.27315348119E+02  0.50000000000E+02  0.47000000000E+01 0.  1.
</event>
<event>
 5    1  0.9091923E-001  0.1000000E+03  0.7546771E-02  0.1163815E+00
         11   -1    0    0    0    0  0.00000000000E+00  0.00000000000E+00  0.50000000000E+02  0.50000000000E+02  0.00000000000E+00 0. -1.
        -11   -1    0    0    0    0 -0.00000000000E+00 -0.00000000000E+00 -0.50000000000E+02  0.50000000000E+02  0.00000000000E+00 0.  1.
         23    2    1    2    0    0  0.00000000000E+00  0.00000000000E+00  0.00000000000E+00  0.10000000000E+03  0.10000000000E+03 0.  0.
          5    1    3    3  501    0 -0.18385396711E+02 -0.43614133046E+02 -0.15417346933E+02  0.50000000000E+02  0.47000000000E+01 0. -1.
         -5    1    3    3    0  501  0.18385396711E+02  0.43614133046E+02  0.15417346933E+02  0.50000000000E+02  0.47000000000E+01 0.  1.
</event>
<event>
 5    1  0.9091923E-001  0.1000000E+03  0.7546771E-02  0.1163815E+00
         11   -1    0    0    0    0  0.00000000000E+00  0.00000000000E+00  0.50000000000E+02  0.50000000000E+02  0.00000000000E+00 0.  1.
        -11   -1    0    0    0    0 -0.00000000000E+00 -0.00000000000E+00 -0.50000000000E+02  0.50000000000E+02  0.00000000000E+00 0. -1.
         23    2    1    2    0    0  0.00000000000E+00  0.00000000000E+00  0.00000000000E+00  0.10000000000E+03  0.10000000000E+03 0.  0.
          5    1    3    3  501    0  0.45459771043E+02  0.60771017572E+01 -0.19349109822E+02  0.50000000000E+02  0.47000000000E+01 0. -1.
         -5    1    3    3    0  501 -0.45459771043E+02 -0.60771017572E+01  0.19349109822E+02  0.50000000000E+02  0.47000000000E+01 0.  1.
</event>
<event>
 5    1  0.9091923E-001  0.1000000E+03  0.7546771E-02  0.1163815E+00
         11   -1    0    0    0    0  0.00000000000E+00  0.00000000000E+00  0.50000000000E+02  0.50000000000E+02  0.00000000000E+00 0. -1.
        -11   -1    0    0    0    0 -0.00000000000E+00 -0.00000000000E+00 -0.50000000000E+02  0.50000000000E+02  0.00000000000E+00 0.  1.
         23    2    1    2    0    0  0.00000000000E+00  0.00000000000E+00  0.00000000000E+00  0.10000000000E+03  0.10000000000E+03 0.  0.
          5    1    3    3  501    0  0.14891782561E+02  0.47449096984E+02 -0.21743982062E+01  0.50000000000E+02  0.47000000000E+01 0. -1.
         -5    1    3    3    0  501 -0.14891782561E+02 -0.47449096984E+02  0.21743982062E+01  0.50000000000E+02  0.47000000000E+01 0.  1.
</event>
<event>
 5    1  0.9091923E-001  0.1000000E+03  0.7546771E-02  0.1163815E+00
         11   -1    0    0    0    0  0.00000000000E+00  0.00000000000E+00  0.50000000000E+02  0.50000000000E+02  0.00000000000E+00 0. -1.
        -11   -1    0    0    0    0 -0.00000000000E+00 -0.00000000000E+00 -0.50000000000E+02  0.50000000000E+02  0.00000000000E+00 0.  1.
         23    2    1    2    0    0  0.00000000000E+00  0.00000000000E+00  0.00000000000E+00  0.10000000000E+03  0.10000000000E+03 0.  0.
          5    1    3    3  501    0 -0.43333625235E+02  0.11664518137E+02  0.21541725572E+02  0.50000000000E+02  0.47000000000E+01 0. -1.
         -5    1    3    3    0  501  0.43333625235E+02 -0.11664518137E+02 -0.21541725572E+02  0.50000000000E+02  0.47000000000E+01 0.  1.
</event>
<event>
 5    1  0.9091923E-001  0.1000000E+03  0.7546771E-02  0.1163815E+00
         11   -1    0    0    0    0  0.00000000000E+00  0.00000000000E+00  0.50000000000E+02  0.50000000000E+02  0.00000000000E+00 0. -1.
        -11   -1    0    0    0    0 -0.00000000000E+00 -0.00000000000E+00 -0.50000000000E+02  0.50000000000E+02  0.00000000000E+00 0.  1.
         23    2    1    2    0    0  0.00000000000E+00  0.00000000000E+00  0.00000000000E+00  0.10000000000E+03  0.10000000000E+03 0.  0.
          5    1    3    3  501    0 -0.40652496110E+02  0.27796482661E+02 -0.72553505541E+01  0.50000000000E+02  0.47000000000E+01 0. -1.
         -5    1    3    3    0  501  0.40652496110E+02 -0.27796482661E+02  0.72553505541E+01  0.50000000000E+02  0.47000000000E+01 0.  1.
</event>
<event>
 5    1  0.9091923E-001  0.1000000E+03  0.7546771E-02  0.1163815E+00
         11   -1    0    0    0    0  0.00000000000E+00  0.00000000000E+00  0.50000000000E+02  0.50000000000E+02  0.00000000000E+00 0. -1.
        -11   -1    0    0    0    0 -0.00000000000E+00 -0.00000000000E+00 -0.50000000000E+02  0.50000000000E+02  0.00000000000E+00 0.  1.
         23    2    1    2    0    0  0.00000000000E+00  0.00000000000E+00  0.00000000000E+00  0.10000000000E+03  0.10000000000E+03 0.  0.
          5    1    3    3  501    0  0.16821882083E+02  0.46507313021E+02 -0.56572182917E+01  0.50000000000E+02  0.47000000000E+01 0. -1.
         -5    1    3    3    0  501 -0.16821882083E+02 -0.46507313021E+02  0.56572182917E+01  0.50000000000E+02  0.47000000000E+01 0.  1.
</event>
<event>
 5    1  0.9091923E-001  0.1000000E+03  0.7546771E-02  0.1163815E+00
         11   -1    0    0    0    0  0.00000000000E+00  0.00000000000E+00  0.50000000000E+02  0.50000000000E+02  0.00000000000E+00 0. -1.
        -11   -1    0    0    0    0 -0.00000000000E+00 -0.00000000000E+00 -0.50000000000E+02  0.50000000000E+02  0.00000000000E+00 0.  1.
         23    2    1    2    0    0  0.00000000000E+00  0.00000000000E+00  0.00000000000E+00  0.10000000000E+03  0.10000000000E+03 0.  0.
          5    1    3    3  501    0  0.27709328165E+02  0.53053063385E+01  0.41011667332E+02  0.50000000000E+02  0.47000000000E+01 0. -1.
         -5    1    3    3    0  501 -0.27709328165E+02 -0.53053063385E+01 -0.41011667332E+02  0.50000000000E+02  0.47000000000E+01 0.  1.
</event>
<event>
 5    1  0.9091923E-001  0.1000000E+03  0.7546771E-02  0.1163815E+00
         11   -1    0    0    0    0  0.00000000000E+00  0.00000000000E+00  0.50000000000E+02  0.50000000000E+02  0.00000000000E+00 0.  1.
        -11   -1    0    0    0    0 -0.00000000000E+00 -0.00000000000E+00 -0.50000000000E+02  0.50000000000E+02  0.00000000000E+00 0. -1.
         23    2    1    2    0    0  0.00000000000E+00  0.00000000000E+00  0.00000000000E+00  0.10000000000E+03  0.10000000000E+03 0.  0.
          5    1    3    3  501    0 -0.20794850669E+02  0.24118876790E+02 -0.38259168418E+02  0.50000000000E+02  0.47000000000E+01 0. -1.
         -5    1    3    3    0  501  0.20794850669E+02 -0.24118876790E+02  0.38259168418E+02  0.50000000000E+02  0.47000000000E+01 0.  1.
</event>
<event>
 5    1  0.9091923E-001  0.1000000E+03  0.7546771E-02  0.1163815E+00
         11   -1    0    0    0    0  0.00000000000E+00  0.00000000000E+00  0.50000000000E+02  0.50000000000E+02  0.00000000000E+00 0. -1.
        -11   -1    0    0    0    0 -0.00000000000E+00 -0.00000000000E+00 -0.50000000000E+02  0.50000000000E+02  0.00000000000E+00 0.  1.
         23    2    1    2    0    0  0.00000000000E+00  0.00000000000E+00  0.00000000000E+00  0.10000000000E+03  0.10000000000E+03 0.  0.
          5    1    3    3  501    0  0.21122398174E+02  0.20904305497E+02  0.39934500211E+02  0.50000000000E+02  0.47000000000E+01 0. -1.
         -5    1    3    3    0  501 -0.21122398174E+02 -0.20904305497E+02 -0.39934500211E+02  0.50000000000E+02  0.47000000000E+01 0.  1.
</event>
<event>
 5    1  0.9091923E-001  0.1000000E+03  0.7546771E-02  0.1163815E+00
         11   -1    0    0    0    0  0.00000000000E+00  0.00000000000E+00  0.50000000000E+02  0.50000000000E+02  0.00000000000E+00 0.  1.
        -11   -1    0    0    0    0 -0.00000000000E+00 -0.00000000000E+00 -0.50000000000E+02  0.50000000000E+02  0.00000000000E+00 0. -1.
         23    2    1    2    0    0  0.00000000000E+00  0.00000000000E+00  0.00000000000E+00  0.10000000000E+03  0.10000000000E+03 0.  0.
          5    1    3    3  501    0 -0.38751679664E+02  0.10726375863E+02 -0.29345564981E+02  0.50000000000E+02  0.47000000000E+01 0. -1.
         -5    1    3    3    0  501  0.38751679664E+02 -0.10726375863E+02  0.29345564981E+02  0.50000000000E+02  0.47000000000E+01 0.  1.
</event>
<event>
 5    1  0.9091923E-001  0.1000000E+03  0.7546771E-02  0.1163815E+00
         11   -1    0    0    0    0  0.00000000000E+00  0.00000000000E+00  0.50000000000E+02  0.50000000000E+02  0.00000000000E+00 0. -1.
        -11   -1    0    0    0    0 -0.00000000000E+00 -0.00000000000E+00 -0.50000000000E+02  0.50000000000E+02  0.00000000000E+00 0.  1.
         23    2    1    2    0    0  0.00000000000E+00  0.00000000000E+00  0.00000000000E+00  0.10000000000E+03  0.10000000000E+03 0.  0.
          5    1    3    3  501    0 -0.46641176610E+02  0.15983541517E+02  0.68583558550E+01  0.50000000000E+02  0.47000000000E+01 0. -1.
         -5    1    3    3    0  501  0.46641176610E+02 -0.15983541517E+02 -0.68583558550E+01  0.50000000000E+02  0.47000000000E+01 0.  1.
</event>
<event>
 5    1  0.9091923E-001  0.1000000E+03  0.7546771E-02  0.1163815E+00
         11   -1    0    0    0    0  0.00000000000E+00  0.00000000000E+00  0.50000000000E+02  0.50000000000E+02  0.00000000000E+00 0. -1.
        -11   -1    0    0    0    0 -0.00000000000E+00 -0.00000000000E+00 -0.50000000000E+02  0.50000000000E+02  0.00000000000E+00 0.  1.
         23    2    1    2    0    0  0.00000000000E+00  0.00000000000E+00  0.00000000000E+00  0.10000000000E+03  0.10000000000E+03 0.  0.
          5    1    3    3  501    0 -0.27960555652E+02 -0.40875313108E+02 -0.50325049333E+01  0.50000000000E+02  0.47000000000E+01 0. -1.
         -5    1    3    3    0  501  0.27960555652E+02  0.40875313108E+02  0.50325049333E+01  0.50000000000E+02  0.47000000000E+01 0.  1.
</event>
<event>
 5    1  0.9091923E-001  0.1000000E+03  0.7546771E-02  0.1163815E+00
         11   -1    0    0    0    0  0.00000000000E+00  0.00000000000E+00  0.50000000000E+02  0.50000000000E+02  0.00000000000E+00 0. -1.
        -11   -1    0    0    0    0 -0.00000000000E+00 -0.00000000000E+00 -0.50000000000E+02  0.50000000000E+02  0.00000000000E+00 0.  1.
         23    2    1    2    0    0  0.00000000000E+00  0.00000000000E+00  0.00000000000E+00  0.10000000000E+03  0.10000000000E+03 0.  0.
          5    1    3    3  501    0 -0.66503903875E+01 -0.12505683945E+02  0.47720961608E+02  0.50000000000E+02  0.47000000000E+01 0. -1.
         -5    1    3    3    0  501  0.66503903875E+01  0.12505683945E+02 -0.47720961608E+02  0.50000000000E+02  0.47000000000E+01 0.  1.
</event>
<event>
 5    1  0.9091923E-001  0.1000000E+03  0.7546771E-02  0.1163815E+00
         11   -1    0    0    0    0  0.00000000000E+00  0.00000000000E+00  0.50000000000E+02  0.50000000000E+02  0.00000000000E+00 0.  1.
        -11   -1    0    0    0    0 -0.00000000000E+00 -0.00000000000E+00 -0.50000000000E+02  0.50000000000E+02  0.00000000000E+00 0. -1.
         23    2    1    2    0    0  0.00000000000E+00  0.00000000000E+00  0.00000000000E+00  0.10000000000E+03  0.10000000000E+03 0.  0.
          5    1    3    3  501    0  0.46221228188E+02  0.37851463101E+01 -0.18088137886E+02  0.50000000000E+02  0.47000000000E+01 0. -1.
         -5    1    3    3    0  501 -0.46221228188E+02 -0.37851463101E+01  0.18088137886E+02  0.50000000000E+02  0.47000000000E+01 0.  1.
</event>
<event>
 5    1  0.9091923E-001  0.1000000E+03  0.7546771E-02  0.1163815E+00
         11   -1    0    0    0    0  0.00000000000E+00  0.00000000000E+00  0.50000000000E+02  0.50000000000E+02  0.00000000000E+00 0. -1.
        -11   -1    0    0    0    0 -0.00000000000E+00 -0.00000000000E+00 -0.50000000000E+02  0.50000000000E+02  0.00000000000E+00 0.  1.
         23    2    1    2    0    0  0.00000000000E+00  0.00000000000E+00  0.00000000000E+00  0.10000000000E+03  0.10000000000E+03 0.  0.
          5    1    3    3  501    0  0.41830959099E+02 -0.76077192722E+01  0.25888288246E+02  0.50000000000E+02  0.47000000000E+01 0. -1.
         -5    1    3    3    0  501 -0.41830959099E+02  0.76077192722E+01 -0.25888288246E+02  0.50000000000E+02  0.47000000000E+01 0.  1.
</event>
<event>
 5    1  0.9091923E-001  0.1000000E+03  0.7546771E-02  0.1163815E+00
         11   -1    0    0    0    0  0.00000000000E+00  0.00000000000E+00  0.50000000000E+02  0.50000000000E+02  0.00000000000E+00 0. -1.
        -11   -1    0    0    0    0 -0.00000000000E+00 -0.00000000000E+00 -0.50000000000E+02  0.50000000000E+02  0.00000000000E+00 0.  1.
         23    2    1    2    0    0  0.00000000000E+00  0.00000000000E+00  0.00000000000E+00  0.10000000000E+03  0.10000000000E+03 0.  0.
          5    1    3    3  501    0 -0.39442006384E+02  0.27744950495E+02  0.12347301504E+02  0.50000000000E+02  0.47000000000E+01 0. -1.
         -5    1    3    3    0  501  0.39442006384E+02 -0.27744950495E+02 -0.12347301504E+02  0.50000000000E+02  0.47000000000E+01 0.  1.
</event>
<event>
 5    1  0.9091923E-001  0.1000000E+03  0.7546771E-02  0.1163815E+00
         11   -1    0    0    0    0  0.00000000000E+00  0.00000000000E+00  0.50000000000E+02  0.50000000000E+02  0.00000000000E+00 0. -1.
        -11   -1    0    0    0    0 -0.00000000000E+00 -0.00000000000E+00 -0.50000000000E+02  0.50000000000E+02  0.00000000000E+00 0.  1.
         23    2    1    2    0    0  0.00000000000E+00  0.00000000000E+00  0.00000000000E+00  0.10000000000E+03  0.10000000000E+03 0.  0.
          5    1    3    3  501    0  0.36705333264E+02 -0.24339703380E+02  0.23199296312E+02  0.50000000000E+02  0.47000000000E+01 0. -1.
         -5    1    3    3    0  501 -0.36705333264E+02  0.24339703380E+02 -0.23199296312E+02  0.50000000000E+02  0.47000000000E+01 0.  1.
</event>
<event>
 5    1  0.9091923E-001  0.1000000E+03  0.7546771E-02  0.1163815E+00
         11   -1    0    0    0    0  0.00000000000E+00  0.00000000000E+00  0.50000000000E+02  0.50000000000E+02  0.00000000000E+00 0. -1.
        -11   -1    0    0    0    0 -0.00000000000E+00 -0.00000000000E+00 -0.50000000000E+02  0.50000000000E+02  0.00000000000E+00 0.  1.
         23    2    1    2    0    0  0.00000000000E+00  0.00000000000E+00  0.00000000000E+00  0.10000000000E+03  0.10000000000E+03 0.  0.
          5    1    3    3  501    0  0.71251485919E+01 -0.86697752144E+01  0.48497188117E+02  0.50000000000E+02  0.47000000000E+01 0. -1.
         -5    1    3    3    0  501 -0.71251485919E+01  0.86697752144E+01 -0.48497188117E+02  0.50000000000E+02  0.47000000000E+01 0.  1.
</event>
<event>
 5    1  0.9091923E-001  0.1000000E+03  0.7546771E-02  0.1163815E+00
         11   -1    0    0    0    0  0.00000000000E+00  0.00000000000E+00  0.50000000000E+02  0.50000000000E+02  0.00000000000E+00 0. -1.
        -11   -1    0    0    0    0 -0.00000000000E+00 -0.00000000000E+00 -0.50000000000E+02  0.50000000000E+02  0.00000000000E+00 0.  1.
         23    2    1    2    0    0  0.00000000000E+00  0.00000000000E+00  0.00000000000E+00  0.10000000000E+03  0.10000000000E+03 0.  0.
          5    1    3    3  501    0 -0.11215086886E+02 -0.43828816633E+02  0.20764552936E+02  0.50000000000E+02  0.47000000000E+01 0. -1.
         -5    1    3    3    0  501  0.11215086886E+02  0.43828816633E+02 -0.20764552936E+02  0.50000000000E+02  0.47000000000E+01 0.  1.
</event>
<event>
 5    1  0.9091923E-001  0.1000000E+03  0.7546771E-02  0.1163815E+00
         11   -1    0    0    0    0  0.00000000000E+00  0.00000000000E+00  0.50000000000E+02  0.50000000000E+02  0.00000000000E+00 0. -1.
        -11   -1    0    0    0    0 -0.00000000000E+00 -0.00000000000E+00 -0.50000000000E+02  0.50000000000E+02  0.00000000000E+00 0.  1.
         23    2    1    2    0    0  0.00000000000E+00  0.00000000000E+00  0.00000000000E+00  0.10000000000E+03  0.10000000000E+03 0.  0.
          5    1    3    3  501    0 -0.17363966118E+02  0.46433147654E+02  0.45128128282E+01  0.50000000000E+02  0.47000000000E+01 0. -1.
         -5    1    3    3    0  501  0.17363966118E+02 -0.46433147654E+02 -0.45128128282E+01  0.50000000000E+02  0.47000000000E+01 0.  1.
</event>
<event>
 5    1  0.9091923E-001  0.1000000E+03  0.7546771E-02  0.1163815E+00
         11   -1    0    0    0    0  0.00000000000E+00  0.00000000000E+00  0.50000000000E+02  0.50000000000E+02  0.00000000000E+00 0. -1.
        -11   -1    0    0    0    0 -0.00000000000E+00 -0.00000000000E+00 -0.50000000000E+02  0.50000000000E+02  0.00000000000E+00 0.  1.
         23    2    1    2    0    0  0.00000000000E+00  0.00000000000E+00  0.00000000000E+00  0.10000000000E+03  0.10000000000E+03 0.  0.
          5    1    3    3  501    0  0.16695848622E+02  0.61142131668E+01  0.46494892581E+02  0.50000000000E+02  0.47000000000E+01 0. -1.
         -5    1    3    3    0  501 -0.16695848622E+02 -0.61142131668E+01 -0.46494892581E+02  0.50000000000E+02  0.47000000000E+01 0.  1.
</event>
<event>
 5    1  0.9091923E-001  0.1000000E+03  0.7546771E-02  0.1163815E+00
         11   -1    0    0    0    0  0.00000000000E+00  0.00000000000E+00  0.50000000000E+02  0.50000000000E+02  0.00000000000E+00 0.  1.
        -11   -1    0    0    0    0 -0.00000000000E+00 -0.00000000000E+00 -0.50000000000E+02  0.50000000000E+02  0.00000000000E+00 0. -1.
         23    2    1    2    0    0  0.00000000000E+00  0.00000000000E+00  0.00000000000E+00  0.10000000000E+03  0.10000000000E+03 0.  0.
          5    1    3    3  501    0  0.20171350289E+02 -0.19227151069E+02 -0.41247342815E+02  0.50000000000E+02  0.47000000000E+01 0. -1.
         -5    1    3    3    0  501 -0.20171350289E+02  0.19227151069E+02  0.41247342815E+02  0.50000000000E+02  0.47000000000E+01 0.  1.
</event>
<event>
 5    1  0.9091923E-001  0.1000000E+03  0.7546771E-02  0.1163815E+00
         11   -1    0    0    0    0  0.00000000000E+00  0.00000000000E+00  0.50000000000E+02  0.50000000000E+02  0.00000000000E+00 0.  1.
        -11   -1    0    0    0    0 -0.00000000000E+00 -0.00000000000E+00 -0.50000000000E+02  0.50000000000E+02  0.00000000000E+00 0. -1.
         23    2    1    2    0    0  0.00000000000E+00  0.00000000000E+00  0.00000000000E+00  0.10000000000E+03  0.10000000000E+03 0.  0.
          5    1    3    3  501    0  0.33307165464E+02 -0.36975510751E+02  0.11637583357E+01  0.50000000000E+02  0.47000000000E+01 0. -1.
         -5    1    3    3    0  501 -0.33307165464E+02  0.36975510751E+02 -0.11637583357E+01  0.50000000000E+02  0.47000000000E+01 0.  1.
</event>
<event>
 5    1  0.9091923E-001  0.1000000E+03  0.7546771E-02  0.1163815E+00
         11   -1    0    0    0    0  0.00000000000E+00  0.00000000000E+00  0.50000000000E+02  0.50000000000E+02  0.00000000000E+00 0.  1.
        -11   -1    0    0    0    0 -0.00000000000E+00 -0.00000000000E+00 -0.50000000000E+02  0.50000000000E+02  0.00000000000E+00 0. -1.
         23    2    1    2    0    0  0.00000000000E+00  0.00000000000E+00  0.00000000000E+00  0.10000000000E+03  0.10000000000E+03 0.  0.
          5    1    3    3  501    0 -0.15060000065E+02  0.29549860574E+01 -0.47353716385E+02  0.50000000000E+02  0.47000000000E+01 0. -1.
         -5    1    3    3    0  501  0.15060000065E+02 -0.29549860574E+01  0.47353716385E+02  0.50000000000E+02  0.47000000000E+01 0.  1.
</event>
<event>
 5    1  0.9091923E-001  0.1000000E+03  0.7546771E-02  0.1163815E+00
         11   -1    0    0    0    0  0.00000000000E+00  0.00000000000E+00  0.50000000000E+02  0.50000000000E+02  0.00000000000E+00 0. -1.
        -11   -1    0    0    0    0 -0.00000000000E+00 -0.00000000000E+00 -0.50000000000E+02  0.50000000000E+02  0.00000000000E+00 0.  1.
         23    2    1    2    0    0  0.00000000000E+00  0.00000000000E+00  0.00000000000E+00  0.10000000000E+03  0.10000000000E+03 0.  0.
          5    1    3    3  501    0 -0.19521613754E+02  0.12600591660E+01  0.45773669804E+02  0.50000000000E+02  0.47000000000E+01 0. -1.
         -5    1    3    3    0  501  0.19521613754E+02 -0.12600591660E+01 -0.45773669804E+02  0.50000000000E+02  0.47000000000E+01 0.  1.
</event>
<event>
 5    1  0.9091923E-001  0.1000000E+03  0.7546771E-02  0.1163815E+00
         11   -1    0    0    0    0  0.00000000000E+00  0.00000000000E+00  0.50000000000E+02  0.50000000000E+02  0.00000000000E+00 0.  1.
        -11   -1    0    0    0    0 -0.00000000000E+00 -0.00000000000E+00 -0.50000000000E+02  0.50000000000E+02  0.00000000000E+00 0. -1.
         23    2    1    2    0    0  0.00000000000E+00  0.00000000000E+00  0.00000000000E+00  0.10000000000E+03  0.10000000000E+03 0.  0.
          5    1    3    3  501    0 -0.36923793243E+02  0.20418266154E+02 -0.26412835892E+02  0.50000000000E+02  0.47000000000E+01 0. -1.
         -5    1    3    3    0  501  0.36923793243E+02 -0.20418266154E+02  0.26412835892E+02  0.50000000000E+02  0.47000000000E+01 0.  1.
</event>
<event>
 5    1  0.9091923E-001  0.1000000E+03  0.7546771E-02  0.1163815E+00
         11   -1    0    0    0    0  0.00000000000E+00  0.00000000000E+00  0.50000000000E+02  0.50000000000E+02  0.00000000000E+00 0. -1.
        -11   -1    0    0    0    0 -0.00000000000E+00 -0.00000000000E+00 -0.50000000000E+02  0.50000000000E+02  0.00000000000E+00 0.  1.
         23    2    1    2    0    0  0.00000000000E+00  0.00000000000E+00  0.00000000000E+00  0.10000000000E+03  0.10000000000E+03 0.  0.
          5    1    3    3  501    0  0.14915759401E+02 -0.30536322662E+02  0.36372559984E+02  0.50000000000E+02  0.47000000000E+01 0. -1.
         -5    1    3    3    0  501 -0.14915759401E+02  0.30536322662E+02 -0.36372559984E+02  0.50000000000E+02  0.47000000000E+01 0.  1.
</event>
<event>
 5    1  0.9091923E-001  0.1000000E+03  0.7546771E-02  0.1163815E+00
         11   -1    0    0    0    0  0.00000000000E+00  0.00000000000E+00  0.50000000000E+02  0.50000000000E+02  0.00000000000E+00 0. -1.
        -11   -1    0    0    0    0 -0.00000000000E+00 -0.00000000000E+00 -0.50000000000E+02  0.50000000000E+02  0.00000000000E+00 0.  1.
         23    2    1    2    0    0  0.00000000000E+00  0.00000000000E+00  0.00000000000E+00  0.10000000000E+03  0.10000000000E+03 0.  0.
          5    1    3    3  501    0 -0.32714843618E+02  0.32130393452E+02  0.19372321070E+02  0.50000000000E+02  0.47000000000E+01 0. -1.
         -5    1    3    3    0  501  0.32714843618E+02 -0.32130393452E+02 -0.19372321070E+02  0.50000000000E+02  0.47000000000E+01 0.  1.
</event>
<event>
 5    1  0.9091923E-001  0.1000000E+03  0.7546771E-02  0.1163815E+00
         11   -1    0    0    0    0  0.00000000000E+00  0.00000000000E+00  0.50000000000E+02  0.50000000000E+02  0.00000000000E+00 0. -1.
        -11   -1    0    0    0    0 -0.00000000000E+00 -0.00000000000E+00 -0.50000000000E+02  0.50000000000E+02  0.00000000000E+00 0.  1.
         23    2    1    2    0    0  0.00000000000E+00  0.00000000000E+00  0.00000000000E+00  0.10000000000E+03  0.10000000000E+03 0.  0.
          5    1    3    3  501    0  0.20022996108E+02  0.14774447046E+02  0.43112705103E+02  0.50000000000E+02  0.47000000000E+01 0. -1.
         -5    1    3    3    0  501 -0.20022996108E+02 -0.14774447046E+02 -0.43112705103E+02  0.50000000000E+02  0.47000000000E+01 0.  1.
</event>
<event>
 5    1  0.9091923E-001  0.1000000E+03  0.7546771E-02  0.1163815E+00
         11   -1    0    0    0    0  0.00000000000E+00  0.00000000000E+00  0.50000000000E+02  0.50000000000E+02  0.00000000000E+00 0. -1.
        -11   -1    0    0    0    0 -0.00000000000E+00 -0.00000000000E+00 -0.50000000000E+02  0.50000000000E+02  0.00000000000E+00 0.  1.
         23    2    1    2    0    0  0.00000000000E+00  0.00000000000E+00  0.00000000000E+00  0.10000000000E+03  0.10000000000E+03 0.  0.
          5    1    3    3  501    0  0.96392435870E+01 -0.96129440826E+00  0.48826948462E+02  0.50000000000E+02  0.47000000000E+01 0. -1.
         -5    1    3    3    0  501 -0.96392435870E+01  0.96129440826E+00 -0.48826948462E+02  0.50000000000E+02  0.47000000000E+01 0.  1.
</event>
<event>
 5    1  0.9091923E-001  0.1000000E+03  0.7546771E-02  0.1163815E+00
         11   -1    0    0    0    0  0.00000000000E+00  0.00000000000E+00  0.50000000000E+02  0.50000000000E+02  0.00000000000E+00 0.  1.
        -11   -1    0    0    0    0 -0.00000000000E+00 -0.00000000000E+00 -0.50000000000E+02  0.50000000000E+02  0.00000000000E+00 0. -1.
         23    2    1    2    0    0  0.00000000000E+00  0.00000000000E+00  0.00000000000E+00  0.10000000000E+03  0.10000000000E+03 0.  0.
          5    1    3    3  501    0 -0.27856483559E+02 -0.86436635902E+01 -0.40338733290E+02  0.50000000000E+02  0.47000000000E+01 0. -1.
         -5    1    3    3    0  501  0.27856483559E+02  0.86436635902E+01  0.40338733290E+02  0.50000000000E+02  0.47000000000E+01 0.  1.
</event>
<event>
 5    1  0.9091923E-001  0.1000000E+03  0.7546771E-02  0.1163815E+00
         11   -1    0    0    0    0  0.00000000000E+00  0.00000000000E+00  0.50000000000E+02  0.50000000000E+02  0.00000000000E+00 0.  1.
        -11   -1    0    0    0    0 -0.00000000000E+00 -0.00000000000E+00 -0.50000000000E+02  0.50000000000E+02  0.00000000000E+00 0. -1.
         23    2    1    2    0    0  0.00000000000E+00  0.00000000000E+00  0.00000000000E+00  0.10000000000E+03  0.10000000000E+03 0.  0.
          5    1    3    3  501    0 -0.37097615043E+02 -0.31474474444E+02 -0.10537286965E+02  0.50000000000E+02  0.47000000000E+01 0. -1.
         -5    1    3    3    0  501  0.37097615043E+02  0.31474474444E+02  0.10537286965E+02  0.50000000000E+02  0.47000000000E+01 0.  1.
</event>
<event>
 5    1  0.9091923E-001  0.1000000E+03  0.7546771E-02  0.1163815E+00
         11   -1    0    0    0    0  0.00000000000E+00  0.00000000000E+00  0.50000000000E+02  0.50000000000E+02  0.00000000000E+00 0. -1.
        -11   -1    0    0    0    0 -0.00000000000E+00 -0.00000000000E+00 -0.50000000000E+02  0.50000000000E+02  0.00000000000E+00 0.  1.
         23    2    1    2    0    0  0.00000000000E+00  0.00000000000E+00  0.00000000000E+00  0.10000000000E+03  0.10000000000E+03 0.  0.
          5    1    3    3  501    0  0.25823714873E+02  0.82816998280E+01  0.41742774203E+02  0.50000000000E+02  0.47000000000E+01 0. -1.
         -5    1    3    3    0  501 -0.25823714873E+02 -0.82816998280E+01 -0.41742774203E+02  0.50000000000E+02  0.47000000000E+01 0.  1.
</event>
<event>
 5    1  0.9091923E-001  0.1000000E+03  0.7546771E-02  0.1163815E+00
         11   -1    0    0    0    0  0.00000000000E+00  0.00000000000E+00  0.50000000000E+02  0.50000000000E+02  0.00000000000E+00 0.  1.
        -11   -1    0    0    0    0 -0.00000000000E+00 -0.00000000000E+00 -0.50000000000E+02  0.50000000000E+02  0.00000000000E+00 0. -1.
         23    2    1    2    0    0  0.00000000000E+00  0.00000000000E+00  0.00000000000E+00  0.10000000000E+03  0.10000000000E+03 0.  0.
          5    1    3    3  501    0  0.10459190103E+02 -0.19031351356E+02 -0.44791997142E+02  0.50000000000E+02  0.47000000000E+01 0. -1.
         -5    1    3    3    0  501 -0.10459190103E+02  0.19031351356E+02  0.44791997142E+02  0.50000000000E+02  0.47000000000E+01 0.  1.
</event>
<event>
 5    1  0.9091923E-001  0.1000000E+03  0.7546771E-02  0.1163815E+00
         11   -1    0    0    0    0  0.00000000000E+00  0.00000000000E+00  0.50000000000E+02  0.50000000000E+02  0.00000000000E+00 0.  1.
        -11   -1    0    0    0    0 -0.00000000000E+00 -0.00000000000E+00 -0.50000000000E+02  0.50000000000E+02  0.00000000000E+00 0. -1.
         23    2    1    2    0    0  0.00000000000E+00  0.00000000000E+00  0.00000000000E+00  0.10000000000E+03  0.10000000000E+03 0.  0.
          5    1    3    3  501    0 -0.38025468196E+02 -0.30529826508E+02 -0.99951719291E+01  0.50000000000E+02  0.47000000000E+01 0. -1.
         -5    1    3    3    0  501  0.38025468196E+02  0.30529826508E+02  0.99951719291E+01  0.50000000000E+02  0.47000000000E+01 0.  1.
</event>
<event>
 5    1  0.9091923E-001  0.1000000E+03  0.7546771E-02  0.1163815E+00
         11   -1    0    0    0    0  0.00000000000E+00  0.00000000000E+00  0.50000000000E+02  0.50000000000E+02  0.00000000000E+00 0. -1.
        -11   -1    0    0    0    0 -0.00000000000E+00 -0.00000000000E+00 -0.50000000000E+02  0.50000000000E+02  0.00000000000E+00 0.  1.
         23    2    1    2    0    0  0.00000000000E+00  0.00000000000E+00  0.00000000000E+00  0.10000000000E+03  0.10000000000E+03 0.  0.
          5    1    3    3  501    0 -0.33962153240E+02  0.29620592089E+02  0.21144802474E+02  0.50000000000E+02  0.47000000000E+01 0. -1.
         -5    1    3    3    0  501  0.33962153240E+02 -0.29620592089E+02 -0.21144802474E+02  0.50000000000E+02  0.47000000000E+01 0.  1.
</event>
<event>
 5    1  0.9091923E-001  0.1000000E+03  0.7546771E-02  0.1163815E+00
         11   -1    0    0    0    0  0.00000000000E+00  0.00000000000E+00  0.50000000000E+02  0.50000000000E+02  0.00000000000E+00 0. -1.
        -11   -1    0    0    0    0 -0.00000000000E+00 -0.00000000000E+00 -0.50000000000E+02  0.50000000000E+02  0.00000000000E+00 0.  1.
         23    2    1    2    0    0  0.00000000000E+00  0.00000000000E+00  0.00000000000E+00  0.10000000000E+03  0.10000000000E+03 0.  0.
          5    1    3    3  501    0  0.11921670612E+02 -0.13548644182E+02  0.46392003736E+02  0.50000000000E+02  0.47000000000E+01 0. -1.
         -5    1    3    3    0  501 -0.11921670612E+02  0.13548644182E+02 -0.46392003736E+02  0.50000000000E+02  0.47000000000E+01 0.  1.
</event>
<event>
 5    1  0.9091923E-001  0.1000000E+03  0.7546771E-02  0.1163815E+00
         11   -1    0    0    0    0  0.00000000000E+00  0.00000000000E+00  0.50000000000E+02  0.50000000000E+02  0.00000000000E+00 0.  1.
        -11   -1    0    0    0    0 -0.00000000000E+00 -0.00000000000E+00 -0.50000000000E+02  0.50000000000E+02  0.00000000000E+00 0. -1.
         23    2    1    2    0    0  0.00000000000E+00  0.00000000000E+00  0.00000000000E+00  0.10000000000E+03  0.10000000000E+03 0.  0.
          5    1    3    3  501    0  0.11401161434E+02 -0.11099667620E+02 -0.47166947078E+02  0.50000000000E+02  0.47000000000E+01 0. -1.
         -5    1    3    3    0  501 -0.11401161434E+02  0.11099667620E+02  0.47166947078E+02  0.50000000000E+02  0.47000000000E+01 0.  1.
</event>
<event>
 5    1  0.9091923E-001  0.1000000E+03  0.7546771E-02  0.1163815E+00
         11   -1    0    0    0    0  0.00000000000E+00  0.00000000000E+00  0.50000000000E+02  0.50000000000E+02  0.00000000000E+00 0.  1.
        -11   -1    0    0    0    0 -0.00000000000E+00 -0.00000000000E+00 -0.50000000000E+02  0.50000000000E+02  0.00000000000E+00 0. -1.
         23    2    1    2    0    0  0.00000000000E+00  0.00000000000E+00  0.00000000000E+00  0.10000000000E+03  0.10000000000E+03 0.  0.
          5    1    3    3  501    0 -0.12199216261E+02 -0.20740935558E+02 -0.43576400893E+02  0.50000000000E+02  0.47000000000E+01 0. -1.
         -5    1    3    3    0  501  0.12199216261E+02  0.20740935558E+02  0.43576400893E+02  0.50000000000E+02  0.47000000000E+01 0.  1.
</event>
<event>
 5    1  0.9091923E-001  0.1000000E+03  0.7546771E-02  0.1163815E+00
         11   -1    0    0    0    0  0.00000000000E+00  0.00000000000E+00  0.50000000000E+02  0.50000000000E+02  0.00000000000E+00 0. -1.
        -11   -1    0    0    0    0 -0.00000000000E+00 -0.00000000000E+00 -0.50000000000E+02  0.50000000000E+02  0.00000000000E+00 0.  1.
         23    2    1    2    0    0  0.00000000000E+00  0.00000000000E+00  0.00000000000E+00  0.10000000000E+03  0.10000000000E+03 0.  0.
          5    1    3    3  501    0  0.98335135181E+00 -0.28488126260E+02  0.40808941206E+02  0.50000000000E+02  0.47000000000E+01 0. -1.
         -5    1    3    3    0  501 -0.98335135181E+00  0.28488126260E+02 -0.40808941206E+02  0.50000000000E+02  0.47000000000E+01 0.  1.
</event>
<event>
 5    1  0.9091923E-001  0.1000000E+03  0.7546771E-02  0.1163815E+00
         11   -1    0    0    0    0  0.00000000000E+00  0.00000000000E+00  0.50000000000E+02  0.50000000000E+02  0.00000000000E+00 0. -1.
        -11   -1    0    0    0    0 -0.00000000000E+00 -0.00000000000E+00 -0.50000000000E+02  0.50000000000E+02  0.00000000000E+00 0.  1.
         23    2    1    2    0    0  0.00000000000E+00  0.00000000000E+00  0.00000000000E+00  0.10000000000E+03  0.10000000000E+03 0.  0.
          5    1    3    3  501    0  0.48614816947E+02 -0.45432163214E+00 -0.10691265832E+02  0.50000000000E+02  0.47000000000E+01 0. -1.
         -5    1    3    3    0  501 -0.48614816947E+02  0.45432163214E+00  0.10691265832E+02  0.50000000000E+02  0.47000000000E+01 0.  1.
</event>
<event>
 5    1  0.9091923E-001  0.1000000E+03  0.7546771E-02  0.1163815E+00
         11   -1    0    0    0    0  0.00000000000E+00  0.00000000000E+00  0.50000000000E+02  0.50000000000E+02  0.00000000000E+00 0.  1.
        -11   -1    0    0    0    0 -0.00000000000E+00 -0.00000000000E+00 -0.50000000000E+02  0.50000000000E+02  0.00000000000E+00 0. -1.
         23    2    1    2    0    0  0.00000000000E+00  0.00000000000E+00  0.00000000000E+00  0.10000000000E+03  0.10000000000E+03 0.  0.
          5    1    3    3  501    0  0.13945677384E+02  0.46296050490E+02 -0.11836544737E+02  0.50000000000E+02  0.47000000000E+01 0. -1.
         -5    1    3    3    0  501 -0.13945677384E+02 -0.46296050490E+02  0.11836544737E+02  0.50000000000E+02  0.47000000000E+01 0.  1.
</event>
<event>
 5    1  0.9091923E-001  0.1000000E+03  0.7546771E-02  0.1163815E+00
         11   -1    0    0    0    0  0.00000000000E+00  0.00000000000E+00  0.50000000000E+02  0.50000000000E+02  0.00000000000E+00 0. -1.
        -11   -1    0    0    0    0 -0.00000000000E+00 -0.00000000000E+00 -0.50000000000E+02  0.50000000000E+02  0.00000000000E+00 0.  1.
         23    2    1    2    0    0  0.00000000000E+00  0.00000000000E+00  0.00000000000E+00  0.10000000000E+03  0.10000000000E+03 0.  0.
          5    1    3    3  501    0  0.18185004724E+02 -0.15580439415E+02  0.43640182296E+02  0.50000000000E+02  0.47000000000E+01 0. -1.
         -5    1    3    3    0  501 -0.18185004724E+02  0.15580439415E+02 -0.43640182296E+02  0.50000000000E+02  0.47000000000E+01 0.  1.
</event>
<event>
 5    1  0.9091923E-001  0.1000000E+03  0.7546771E-02  0.1163815E+00
         11   -1    0    0    0    0  0.00000000000E+00  0.00000000000E+00  0.50000000000E+02  0.50000000000E+02  0.00000000000E+00 0. -1.
        -11   -1    0    0    0    0 -0.00000000000E+00 -0.00000000000E+00 -0.50000000000E+02  0.50000000000E+02  0.00000000000E+00 0.  1.
         23    2    1    2    0    0  0.00000000000E+00  0.00000000000E+00  0.00000000000E+00  0.10000000000E+03  0.10000000000E+03 0.  0.
          5    1    3    3  501    0 -0.11299315074E+02 -0.15579006646E+02  0.45907842803E+02  0.50000000000E+02  0.47000000000E+01 0. -1.
         -5    1    3    3    0  501  0.11299315074E+02  0.15579006646E+02 -0.45907842803E+02  0.50000000000E+02  0.47000000000E+01 0.  1.
</event>
<event>
 5    1  0.9091923E-001  0.1000000E+03  0.7546771E-02  0.1163815E+00
         11   -1    0    0    0    0  0.00000000000E+00  0.00000000000E+00  0.50000000000E+02  0.50000000000E+02  0.00000000000E+00 0. -1.
        -11   -1    0    0    0    0 -0.00000000000E+00 -0.00000000000E+00 -0.50000000000E+02  0.50000000000E+02  0.00000000000E+00 0.  1.
         23    2    1    2    0    0  0.00000000000E+00  0.00000000000E+00  0.00000000000E+00  0.10000000000E+03  0.10000000000E+03 0.  0.
          5    1    3    3  501    0  0.22636402997E+02 -0.11852452812E+02  0.42720283493E+02  0.50000000000E+02  0.47000000000E+01 0. -1.
         -5    1    3    3    0  501 -0.22636402997E+02  0.11852452812E+02 -0.42720283493E+02  0.50000000000E+02  0.47000000000E+01 0.  1.
</event>
<event>
 5    1  0.9091923E-001  0.1000000E+03  0.7546771E-02  0.1163815E+00
         11   -1    0    0    0    0  0.00000000000E+00  0.00000000000E+00  0.50000000000E+02  0.50000000000E+02  0.00000000000E+00 0. -1.
        -11   -1    0    0    0    0 -0.00000000000E+00 -0.00000000000E+00 -0.50000000000E+02  0.50000000000E+02  0.00000000000E+00 0.  1.
         23    2    1    2    0    0  0.00000000000E+00  0.00000000000E+00  0.00000000000E+00  0.10000000000E+03  0.10000000000E+03 0.  0.
          5    1    3    3  501    0 -0.20437644146E+01  0.18721276991E+02  0.46078702400E+02  0.50000000000E+02  0.47000000000E+01 0. -1.
         -5    1    3    3    0  501  0.20437644146E+01 -0.18721276991E+02 -0.46078702400E+02  0.50000000000E+02  0.47000000000E+01 0.  1.
</event>
<event>
 5    1  0.9091923E-001  0.1000000E+03  0.7546771E-02  0.1163815E+00
         11   -1    0    0    0    0  0.00000000000E+00  0.00000000000E+00  0.50000000000E+02  0.50000000000E+02  0.00000000000E+00 0. -1.
        -11   -1    0    0    0    0 -0.00000000000E+00 -0.00000000000E+00 -0.50000000000E+02  0.50000000000E+02  0.00000000000E+00 0.  1.
         23    2    1    2    0    0  0.00000000000E+00  0.00000000000E+00  0.00000000000E+00  0.10000000000E+03  0.10000000000E+03 0.  0.
          5    1    3    3  501    0  0.26768133652E+02 -0.65482002472E+01  0.41454771671E+02  0.50000000000E+02  0.47000000000E+01 0. -1.
         -5    1    3    3    0  501 -0.26768133652E+02  0.65482002472E+01 -0.41454771671E+02  0.50000000000E+02  0.47000000000E+01 0.  1.
</event>
<event>
 5    1  0.9091923E-001  0.1000000E+03  0.7546771E-02  0.1163815E+00
         11   -1    0    0    0    0  0.00000000000E+00  0.00000000000E+00  0.50000000000E+02  0.50000000000E+02  0.00000000000E+00 0. -1.
        -11   -1    0    0    0    0 -0.00000000000E+00 -0.00000000000E+00 -0.50000000000E+02  0.50000000000E+02  0.00000000000E+00 0.  1.
         23    2    1    2    0    0  0.00000000000E+00  0.00000000000E+00  0.00000000000E+00  0.10000000000E+03  0.10000000000E+03 0.  0.
          5    1    3    3  501    0 -0.36903499131E+02 -0.30065542168E+02  0.14563822509E+02  0.50000000000E+02  0.47000000000E+01 0. -1.
         -5    1    3    3    0  501  0.36903499131E+02  0.30065542168E+02 -0.14563822509E+02  0.50000000000E+02  0.47000000000E+01 0.  1.
</event>
<event>
 5    1  0.9091923E-001  0.1000000E+03  0.7546771E-02  0.1163815E+00
         11   -1    0    0    0    0  0.00000000000E+00  0.00000000000E+00  0.50000000000E+02  0.50000000000E+02  0.00000000000E+00 0. -1.
        -11   -1    0    0    0    0 -0.00000000000E+00 -0.00000000000E+00 -0.50000000000E+02  0.50000000000E+02  0.00000000000E+00 0.  1.
         23    2    1    2    0    0  0.00000000000E+00  0.00000000000E+00  0.00000000000E+00  0.10000000000E+03  0.10000000000E+03 0.  0.
          5    1    3    3  501    0  0.34722791389E+02 -0.35123275709E+02  0.62123475118E+01  0.50000000000E+02  0.47000000000E+01 0. -1.
         -5    1    3    3    0  501 -0.34722791389E+02  0.35123275709E+02 -0.62123475118E+01  0.50000000000E+02  0.47000000000E+01 0.  1.
</event>
<event>
 5    1  0.9091923E-001  0.1000000E+03  0.7546771E-02  0.1163815E+00
         11   -1    0    0    0    0  0.00000000000E+00  0.00000000000E+00  0.50000000000E+02  0.50000000000E+02  0.00000000000E+00 0.  1.
        -11   -1    0    0    0    0 -0.00000000000E+00 -0.00000000000E+00 -0.50000000000E+02  0.50000000000E+02  0.00000000000E+00 0. -1.
         23    2    1    2    0    0  0.00000000000E+00  0.00000000000E+00  0.00000000000E+00  0.10000000000E+03  0.10000000000E+03 0.  0.
          5    1    3    3  501    0 -0.44325932076E+02 -0.66779589782E+01 -0.21645475497E+02  0.50000000000E+02  0.47000000000E+01 0. -1.
         -5    1    3    3    0  501  0.44325932076E+02  0.66779589782E+01  0.21645475497E+02  0.50000000000E+02  0.47000000000E+01 0.  1.
</event>
<event>
 5    1  0.9091923E-001  0.1000000E+03  0.7546771E-02  0.1163815E+00
         11   -1    0    0    0    0  0.00000000000E+00  0.00000000000E+00  0.50000000000E+02  0.50000000000E+02  0.00000000000E+00 0. -1.
        -11   -1    0    0    0    0 -0.00000000000E+00 -0.00000000000E+00 -0.50000000000E+02  0.50000000000E+02  0.00000000000E+00 0.  1.
         23    2    1    2    0    0  0.00000000000E+00  0.00000000000E+00  0.00000000000E+00  0.10000000000E+03  0.10000000000E+03 0.  0.
          5    1    3    3  501    0 -0.33768715083E+02 -0.13644091876E+01  0.36547534379E+02  0.50000000000E+02  0.47000000000E+01 0. -1.
         -5    1    3    3    0  501  0.33768715083E+02  0.13644091876E+01 -0.36547534379E+02  0.50000000000E+02  0.47000000000E+01 0.  1.
</event>
<event>
 5    1  0.9091923E-001  0.1000000E+03  0.7546771E-02  0.1163815E+00
         11   -1    0    0    0    0  0.00000000000E+00  0.00000000000E+00  0.50000000000E+02  0.50000000000E+02  0.00000000000E+00 0. -1.
        -11   -1    0    0    0    0 -0.00000000000E+00 -0.00000000000E+00 -0.50000000000E+02  0.50000000000E+02  0.00000000000E+00 0.  1.
         23    2    1    2    0    0  0.00000000000E+00  0.00000000000E+00  0.00000000000E+00  0.10000000000E+03  0.10000000000E+03 0.  0.
          5    1    3    3  501    0  0.60592168078E+01 -0.21294395601E+01  0.49362550368E+02  0.50000000000E+02  0.47000000000E+01 0. -1.
         -5    1    3    3    0  501 -0.60592168078E+01  0.21294395601E+01 -0.49362550368E+02  0.50000000000E+02  0.47000000000E+01 0.  1.
</event>
<event>
 5    1  0.9091923E-001  0.1000000E+03  0.7546771E-02  0.1163815E+00
         11   -1    0    0    0    0  0.00000000000E+00  0.00000000000E+00  0.50000000000E+02  0.50000000000E+02  0.00000000000E+00 0.  1.
        -11   -1    0    0    0    0 -0.00000000000E+00 -0.00000000000E+00 -0.50000000000E+02  0.50000000000E+02  0.00000000000E+00 0. -1.
         23    2    1    2    0    0  0.00000000000E+00  0.00000000000E+00  0.00000000000E+00  0.10000000000E+03  0.10000000000E+03 0.  0.
          5    1    3    3  501    0  0.30504743368E+02  0.77894917956E+01  0.38557676922E+02  0.50000000000E+02  0.47000000000E+01 0.  1.
         -5    1    3    3    0  501 -0.30504743368E+02 -0.77894917956E+01 -0.38557676922E+02  0.50000000000E+02  0.47000000000E+01 0. -1.
</event>
<event>
 5    1  0.9091923E-001  0.1000000E+03  0.7546771E-02  0.1163815E+00
         11   -1    0    0    0    0  0.00000000000E+00  0.00000000000E+00  0.50000000000E+02  0.50000000000E+02  0.00000000000E+00 0. -1.
        -11   -1    0    0    0    0 -0.00000000000E+00 -0.00000000000E+00 -0.50000000000E+02  0.50000000000E+02  0.00000000000E+00 0.  1.
         23    2    1    2    0    0  0.00000000000E+00  0.00000000000E+00  0.00000000000E+00  0.10000000000E+03  0.10000000000E+03 0.  0.
          5    1    3    3  501    0  0.39401749677E+02  0.30239330403E+02 -0.33158738177E+01  0.50000000000E+02  0.47000000000E+01 0. -1.
         -5    1    3    3    0  501 -0.39401749677E+02 -0.30239330403E+02  0.33158738177E+01  0.50000000000E+02  0.47000000000E+01 0.  1.
</event>
<event>
 5    1  0.9091923E-001  0.1000000E+03  0.7546771E-02  0.1163815E+00
         11   -1    0    0    0    0  0.00000000000E+00  0.00000000000E+00  0.50000000000E+02  0.50000000000E+02  0.00000000000E+00 0.  1.
        -11   -1    0    0    0    0 -0.00000000000E+00 -0.00000000000E+00 -0.50000000000E+02  0.50000000000E+02  0.00000000000E+00 0. -1.
         23    2    1    2    0    0  0.00000000000E+00  0.00000000000E+00  0.00000000000E+00  0.10000000000E+03  0.10000000000E+03 0.  0.
          5    1    3    3  501    0 -0.34894993313E+02 -0.19705584070E+02 -0.29528619984E+02  0.50000000000E+02  0.47000000000E+01 0. -1.
         -5    1    3    3    0  501  0.34894993313E+02  0.19705584070E+02  0.29528619984E+02  0.50000000000E+02  0.47000000000E+01 0.  1.
</event>
<event>
 5    1  0.9091923E-001  0.1000000E+03  0.7546771E-02  0.1163815E+00
         11   -1    0    0    0    0  0.00000000000E+00  0.00000000000E+00  0.50000000000E+02  0.50000000000E+02  0.00000000000E+00 0. -1.
        -11   -1    0    0    0    0 -0.00000000000E+00 -0.00000000000E+00 -0.50000000000E+02  0.50000000000E+02  0.00000000000E+00 0.  1.
         23    2    1    2    0    0  0.00000000000E+00  0.00000000000E+00  0.00000000000E+00  0.10000000000E+03  0.10000000000E+03 0.  0.
          5    1    3    3  501    0 -0.97411219587E+01 -0.48185479667E+02 -0.78217704061E+01  0.50000000000E+02  0.47000000000E+01 0. -1.
         -5    1    3    3    0  501  0.97411219587E+01  0.48185479667E+02  0.78217704061E+01  0.50000000000E+02  0.47000000000E+01 0.  1.
</event>
<event>
 5    1  0.9091923E-001  0.1000000E+03  0.7546771E-02  0.1163815E+00
         11   -1    0    0    0    0  0.00000000000E+00  0.00000000000E+00  0.50000000000E+02  0.50000000000E+02  0.00000000000E+00 0.  1.
        -11   -1    0    0    0    0 -0.00000000000E+00 -0.00000000000E+00 -0.50000000000E+02  0.50000000000E+02  0.00000000000E+00 0. -1.
         23    2    1    2    0    0  0.00000000000E+00  0.00000000000E+00  0.00000000000E+00  0.10000000000E+03  0.10000000000E+03 0.  0.
          5    1    3    3  501    0  0.22970496801E+02  0.40271792858E+02  0.18123161333E+02  0.50000000000E+02  0.47000000000E+01 0.  1.
         -5    1    3    3    0  501 -0.22970496801E+02 -0.40271792858E+02 -0.18123161333E+02  0.50000000000E+02  0.47000000000E+01 0. -1.
</event>
<event>
 5    1  0.9091923E-001  0.1000000E+03  0.7546771E-02  0.1163815E+00
         11   -1    0    0    0    0  0.00000000000E+00  0.00000000000E+00  0.50000000000E+02  0.50000000000E+02  0.00000000000E+00 0. -1.
        -11   -1    0    0    0    0 -0.00000000000E+00 -0.00000000000E+00 -0.50000000000E+02  0.50000000000E+02  0.00000000000E+00 0.  1.
         23    2    1    2    0    0  0.00000000000E+00  0.00000000000E+00  0.00000000000E+00  0.10000000000E+03  0.10000000000E+03 0.  0.
          5    1    3    3  501    0  0.35166530713E+02  0.23118540110E+02  0.26584924690E+02  0.50000000000E+02  0.47000000000E+01 0. -1.
         -5    1    3    3    0  501 -0.35166530713E+02 -0.23118540110E+02 -0.26584924690E+02  0.50000000000E+02  0.47000000000E+01 0.  1.
</event>
<event>
 5    1  0.9091923E-001  0.1000000E+03  0.7546771E-02  0.1163815E+00
         11   -1    0    0    0    0  0.00000000000E+00  0.00000000000E+00  0.50000000000E+02  0.50000000000E+02  0.00000000000E+00 0. -1.
        -11   -1    0    0    0    0 -0.00000000000E+00 -0.00000000000E+00 -0.50000000000E+02  0.50000000000E+02  0.00000000000E+00 0.  1.
         23    2    1    2    0    0  0.00000000000E+00  0.00000000000E+00  0.00000000000E+00  0.10000000000E+03  0.10000000000E+03 0.  0.
          5    1    3    3  501    0 -0.88040176786E+01 -0.39183416749E+01  0.48836931427E+02  0.50000000000E+02  0.47000000000E+01 0. -1.
         -5    1    3    3    0  501  0.88040176786E+01  0.39183416749E+01 -0.48836931427E+02  0.50000000000E+02  0.47000000000E+01 0.  1.
</event>
<event>
 5    1  0.9091923E-001  0.1000000E+03  0.7546771E-02  0.1163815E+00
         11   -1    0    0    0    0  0.00000000000E+00  0.00000000000E+00  0.50000000000E+02  0.50000000000E+02  0.00000000000E+00 0.  1.
        -11   -1    0    0    0    0 -0.00000000000E+00 -0.00000000000E+00 -0.50000000000E+02  0.50000000000E+02  0.00000000000E+00 0. -1.
         23    2    1    2    0    0  0.00000000000E+00  0.00000000000E+00  0.00000000000E+00  0.10000000000E+03  0.10000000000E+03 0.  0.
          5    1    3    3  501    0 -0.38023401440E+02 -0.51647436500E+01  0.31708931959E+02  0.50000000000E+02  0.47000000000E+01 0. -1.
         -5    1    3    3    0  501  0.38023401440E+02  0.51647436500E+01 -0.31708931959E+02  0.50000000000E+02  0.47000000000E+01 0.  1.
</event>
<event>
 5    1  0.9091923E-001  0.1000000E+03  0.7546771E-02  0.1163815E+00
         11   -1    0    0    0    0  0.00000000000E+00  0.00000000000E+00  0.50000000000E+02  0.50000000000E+02  0.00000000000E+00 0.  1.
        -11   -1    0    0    0    0 -0.00000000000E+00 -0.00000000000E+00 -0.50000000000E+02  0.50000000000E+02  0.00000000000E+00 0. -1.
         23    2    1    2    0    0  0.00000000000E+00  0.00000000000E+00  0.00000000000E+00  0.10000000000E+03  0.10000000000E+03 0.  0.
          5    1    3    3  501    0  0.67115077236E+01  0.44241755149E+02 -0.21806713769E+02  0.50000000000E+02  0.47000000000E+01 0. -1.
         -5    1    3    3    0  501 -0.67115077236E+01 -0.44241755149E+02  0.21806713769E+02  0.50000000000E+02  0.47000000000E+01 0.  1.
</event>
<event>
 5    1  0.9091923E-001  0.1000000E+03  0.7546771E-02  0.1163815E+00
         11   -1    0    0    0    0  0.00000000000E+00  0.00000000000E+00  0.50000000000E+02  0.50000000000E+02  0.00000000000E+00 0. -1.
        -11   -1    0    0    0    0 -0.00000000000E+00 -0.00000000000E+00 -0.50000000000E+02  0.50000000000E+02  0.00000000000E+00 0.  1.
         23    2    1    2    0    0  0.00000000000E+00  0.00000000000E+00  0.00000000000E+00  0.10000000000E+03  0.10000000000E+03 0.  0.
          5    1    3    3  501    0  0.20877419785E+02  0.33124937898E+02  0.30737303596E+02  0.50000000000E+02  0.47000000000E+01 0. -1.
         -5    1    3    3    0  501 -0.20877419785E+02 -0.33124937898E+02 -0.30737303596E+02  0.50000000000E+02  0.47000000000E+01 0.  1.
</event>
<event>
 5    1  0.9091923E-001  0.1000000E+03  0.7546771E-02  0.1163815E+00
         11   -1    0    0    0    0  0.00000000000E+00  0.00000000000E+00  0.50000000000E+02  0.50000000000E+02  0.00000000000E+00 0. -1.
        -11   -1    0    0    0    0 -0.00000000000E+00 -0.00000000000E+00 -0.50000000000E+02  0.50000000000E+02  0.00000000000E+00 0.  1.
         23    2    1    2    0    0  0.00000000000E+00  0.00000000000E+00  0.00000000000E+00  0.10000000000E+03  0.10000000000E+03 0.  0.
          5    1    3    3  501    0  0.15281810430E+02 -0.32204741571E+02  0.34745228311E+02  0.50000000000E+02  0.47000000000E+01 0. -1.
         -5    1    3    3    0  501 -0.15281810430E+02  0.32204741571E+02 -0.34745228311E+02  0.50000000000E+02  0.47000000000E+01 0.  1.
</event>
<event>
 5    1  0.9091923E-001  0.1000000E+03  0.7546771E-02  0.1163815E+00
         11   -1    0    0    0    0  0.00000000000E+00  0.00000000000E+00  0.50000000000E+02  0.50000000000E+02  0.00000000000E+00 0.  1.
        -11   -1    0    0    0    0 -0.00000000000E+00 -0.00000000000E+00 -0.50000000000E+02  0.50000000000E+02  0.00000000000E+00 0. -1.
         23    2    1    2    0    0  0.00000000000E+00  0.00000000000E+00  0.00000000000E+00  0.10000000000E+03  0.10000000000E+03 0.  0.
          5    1    3    3  501    0 -0.30538208661E+02 -0.19439988999E+02  0.34167449999E+02  0.50000000000E+02  0.47000000000E+01 0.  1.
         -5    1    3    3    0  501  0.30538208661E+02  0.19439988999E+02 -0.34167449999E+02  0.50000000000E+02  0.47000000000E+01 0. -1.
</event>
<event>
 5    1  0.9091923E-001  0.1000000E+03  0.7546771E-02  0.1163815E+00
         11   -1    0    0    0    0  0.00000000000E+00  0.00000000000E+00  0.50000000000E+02  0.50000000000E+02  0.00000000000E+00 0.  1.
        -11   -1    0    0    0    0 -0.00000000000E+00 -0.00000000000E+00 -0.50000000000E+02  0.50000000000E+02  0.00000000000E+00 0. -1.
         23    2    1    2    0    0  0.00000000000E+00  0.00000000000E+00  0.00000000000E+00  0.10000000000E+03  0.10000000000E+03 0.  0.
          5    1    3    3  501    0  0.49515990057E+01  0.92591604018E+01 -0.48658602692E+02  0.50000000000E+02  0.47000000000E+01 0. -1.
         -5    1    3    3    0  501 -0.49515990057E+01 -0.92591604018E+01  0.48658602692E+02  0.50000000000E+02  0.47000000000E+01 0.  1.
</event>
<event>
 5    1  0.9091923E-001  0.1000000E+03  0.7546771E-02  0.1163815E+00
         11   -1    0    0    0    0  0.00000000000E+00  0.00000000000E+00  0.50000000000E+02  0.50000000000E+02  0.00000000000E+00 0.  1.
        -11   -1    0    0    0    0 -0.00000000000E+00 -0.00000000000E+00 -0.50000000000E+02  0.50000000000E+02  0.00000000000E+00 0. -1.
         23    2    1    2    0    0  0.00000000000E+00  0.00000000000E+00  0.00000000000E+00  0.10000000000E+03  0.10000000000E+03 0.  0.
          5    1    3    3  501    0  0.27980900925E+02  0.11621186990E+02 -0.39495913667E+02  0.50000000000E+02  0.47000000000E+01 0. -1.
         -5    1    3    3    0  501 -0.27980900925E+02 -0.11621186990E+02  0.39495913667E+02  0.50000000000E+02  0.47000000000E+01 0.  1.
</event>
<event>
 5    1  0.9091923E-001  0.1000000E+03  0.7546771E-02  0.1163815E+00
         11   -1    0    0    0    0  0.00000000000E+00  0.00000000000E+00  0.50000000000E+02  0.50000000000E+02  0.00000000000E+00 0. -1.
        -11   -1    0    0    0    0 -0.00000000000E+00 -0.00000000000E+00 -0.50000000000E+02  0.50000000000E+02  0.00000000000E+00 0.  1.
         23    2    1    2    0    0  0.00000000000E+00  0.00000000000E+00  0.00000000000E+00  0.10000000000E+03  0.10000000000E+03 0.  0.
          5    1    3    3  501    0  0.13159151971E+02 -0.12569207685E+02  0.46333160237E+02  0.50000000000E+02  0.47000000000E+01 0. -1.
         -5    1    3    3    0  501 -0.13159151971E+02  0.12569207685E+02 -0.46333160237E+02  0.50000000000E+02  0.47000000000E+01 0.  1.
</event>
<event>
 5    1  0.9091923E-001  0.1000000E+03  0.7546771E-02  0.1163815E+00
         11   -1    0    0    0    0  0.00000000000E+00  0.00000000000E+00  0.50000000000E+02  0.50000000000E+02  0.00000000000E+00 0.  1.
        -11   -1    0    0    0    0 -0.00000000000E+00 -0.00000000000E+00 -0.50000000000E+02  0.50000000000E+02  0.00000000000E+00 0. -1.
         23    2    1    2    0    0  0.00000000000E+00  0.00000000000E+00  0.00000000000E+00  0.10000000000E+03  0.10000000000E+03 0.  0.
          5    1    3    3  501    0  0.89407237339E+01 -0.19207283347E+02 -0.45045018876E+02  0.50000000000E+02  0.47000000000E+01 0. -1.
         -5    1    3    3    0  501 -0.89407237339E+01  0.19207283347E+02  0.45045018876E+02  0.50000000000E+02  0.47000000000E+01 0.  1.
</event>
<event>
 5    1  0.9091923E-001  0.1000000E+03  0.7546771E-02  0.1163815E+00
         11   -1    0    0    0    0  0.00000000000E+00  0.00000000000E+00  0.50000000000E+02  0.50000000000E+02  0.00000000000E+00 0. -1.
        -11   -1    0    0    0    0 -0.00000000000E+00 -0.00000000000E+00 -0.50000000000E+02  0.50000000000E+02  0.00000000000E+00 0.  1.
         23    2    1    2    0    0  0.00000000000E+00  0.00000000000E+00  0.00000000000E+00  0.10000000000E+03  0.10000000000E+03 0.  0.
          5    1    3    3  501    0  0.80637216367E+01 -0.30528619199E+01  0.49026181041E+02  0.50000000000E+02  0.47000000000E+01 0. -1.
         -5    1    3    3    0  501 -0.80637216367E+01  0.30528619199E+01 -0.49026181041E+02  0.50000000000E+02  0.47000000000E+01 0.  1.
</event>
<event>
 5    1  0.9091923E-001  0.1000000E+03  0.7546771E-02  0.1163815E+00
         11   -1    0    0    0    0  0.00000000000E+00  0.00000000000E+00  0.50000000000E+02  0.50000000000E+02  0.00000000000E+00 0.  1.
        -11   -1    0    0    0    0 -0.00000000000E+00 -0.00000000000E+00 -0.50000000000E+02  0.50000000000E+02  0.00000000000E+00 0. -1.
         23    2    1    2    0    0  0.00000000000E+00  0.00000000000E+00  0.00000000000E+00  0.10000000000E+03  0.10000000000E+03 0.  0.
          5    1    3    3  501    0 -0.25575034066E+02 -0.91249407697E+01 -0.41720056190E+02  0.50000000000E+02  0.47000000000E+01 0. -1.
         -5    1    3    3    0  501  0.25575034066E+02  0.91249407697E+01  0.41720056190E+02  0.50000000000E+02  0.47000000000E+01 0.  1.
</event>
<event>
 5    1  0.9091923E-001  0.1000000E+03  0.7546771E-02  0.1163815E+00
         11   -1    0    0    0    0  0.00000000000E+00  0.00000000000E+00  0.50000000000E+02  0.50000000000E+02  0.00000000000E+00 0. -1.
        -11   -1    0    0    0    0 -0.00000000000E+00 -0.00000000000E+00 -0.50000000000E+02  0.50000000000E+02  0.00000000000E+00 0.  1.
         23    2    1    2    0    0  0.00000000000E+00  0.00000000000E+00  0.00000000000E+00  0.10000000000E+03  0.10000000000E+03 0.  0.
          5    1    3    3  501    0  0.16298598877E+02  0.20397670649E+02  0.42381608119E+02  0.50000000000E+02  0.47000000000E+01 0. -1.
         -5    1    3    3    0  501 -0.16298598877E+02 -0.20397670649E+02 -0.42381608119E+02  0.50000000000E+02  0.47000000000E+01 0.  1.
</event>
<event>
 5    1  0.9091923E-001  0.1000000E+03  0.7546771E-02  0.1163815E+00
         11   -1    0    0    0    0  0.00000000000E+00  0.00000000000E+00  0.50000000000E+02  0.50000000000E+02  0.00000000000E+00 0. -1.
        -11   -1    0    0    0    0 -0.00000000000E+00 -0.00000000000E+00 -0.50000000000E+02  0.50000000000E+02  0.00000000000E+00 0.  1.
         23    2    1    2    0    0  0.00000000000E+00  0.00000000000E+00  0.00000000000E+00  0.10000000000E+03  0.10000000000E+03 0.  0.
          5    1    3    3  501    0 -0.34004433995E+02  0.34881157145E+02 -0.10242721558E+02  0.50000000000E+02  0.47000000000E+01 0. -1.
         -5    1    3    3    0  501  0.34004433995E+02 -0.34881157145E+02  0.10242721558E+02  0.50000000000E+02  0.47000000000E+01 0.  1.
</event>
<event>
 5    1  0.9091923E-001  0.1000000E+03  0.7546771E-02  0.1163815E+00
         11   -1    0    0    0    0  0.00000000000E+00  0.00000000000E+00  0.50000000000E+02  0.50000000000E+02  0.00000000000E+00 0. -1.
        -11   -1    0    0    0    0 -0.00000000000E+00 -0.00000000000E+00 -0.50000000000E+02  0.50000000000E+02  0.00000000000E+00 0.  1.
         23    2    1    2    0    0  0.00000000000E+00  0.00000000000E+00  0.00000000000E+00  0.10000000000E+03  0.10000000000E+03 0.  0.
          5    1    3    3  501    0 -0.46459706142E+02  0.17714235508E+02 -0.23688743188E+01  0.50000000000E+02  0.47000000000E+01 0. -1.
         -5    1    3    3    0  501  0.46459706142E+02 -0.17714235508E+02  0.23688743188E+01  0.50000000000E+02  0.47000000000E+01 0.  1.
</event>
<event>
 5    1  0.9091923E-001  0.1000000E+03  0.7546771E-02  0.1163815E+00
         11   -1    0    0    0    0  0.00000000000E+00  0.00000000000E+00  0.50000000000E+02  0.50000000000E+02  0.00000000000E+00 0.  1.
        -11   -1    0    0    0    0 -0.00000000000E+00 -0.00000000000E+00 -0.50000000000E+02  0.50000000000E+02  0.00000000000E+00 0. -1.
         23    2    1    2    0    0  0.00000000000E+00  0.00000000000E+00  0.00000000000E+00  0.10000000000E+03  0.10000000000E+03 0.  0.
          5    1    3    3  501    0  0.45731079543E+02 -0.16722315189E+02 -0.10341302556E+02  0.50000000000E+02  0.47000000000E+01 0. -1.
         -5    1    3    3    0  501 -0.45731079543E+02  0.16722315189E+02  0.10341302556E+02  0.50000000000E+02  0.47000000000E+01 0.  1.
</event>
<event>
 5    1  0.9091923E-001  0.1000000E+03  0.7546771E-02  0.1163815E+00
         11   -1    0    0    0    0  0.00000000000E+00  0.00000000000E+00  0.50000000000E+02  0.50000000000E+02  0.00000000000E+00 0. -1.
        -11   -1    0    0    0    0 -0.00000000000E+00 -0.00000000000E+00 -0.50000000000E+02  0.50000000000E+02  0.00000000000E+00 0.  1.
         23    2    1    2    0    0  0.00000000000E+00  0.00000000000E+00  0.00000000000E+00  0.10000000000E+03  0.10000000000E+03 0.  0.
          5    1    3    3  501    0  0.12545480360E+02  0.59046247371E+01  0.47808538246E+02  0.50000000000E+02  0.47000000000E+01 0. -1.
         -5    1    3    3    0  501 -0.12545480360E+02 -0.59046247371E+01 -0.47808538246E+02  0.50000000000E+02  0.47000000000E+01 0.  1.
</event>
<event>
 5    1  0.9091923E-001  0.1000000E+03  0.7546771E-02  0.1163815E+00
         11   -1    0    0    0    0  0.00000000000E+00  0.00000000000E+00  0.50000000000E+02  0.50000000000E+02  0.00000000000E+00 0. -1.
        -11   -1    0    0    0    0 -0.00000000000E+00 -0.00000000000E+00 -0.50000000000E+02  0.50000000000E+02  0.00000000000E+00 0.  1.
         23    2    1    2    0    0  0.00000000000E+00  0.00000000000E+00  0.00000000000E+00  0.10000000000E+03  0.10000000000E+03 0.  0.
          5    1    3    3  501    0 -0.14521851339E+02  0.28568791394E+02  0.38090024836E+02  0.50000000000E+02  0.47000000000E+01 0. -1.
         -5    1    3    3    0  501  0.14521851339E+02 -0.28568791394E+02 -0.38090024836E+02  0.50000000000E+02  0.47000000000E+01 0.  1.
</event>
<event>
 5    1  0.9091923E-001  0.1000000E+03  0.7546771E-02  0.1163815E+00
         11   -1    0    0    0    0  0.00000000000E+00  0.00000000000E+00  0.50000000000E+02  0.50000000000E+02  0.00000000000E+00 0. -1.
        -11   -1    0    0    0    0 -0.00000000000E+00 -0.00000000000E+00 -0.50000000000E+02  0.50000000000E+02  0.00000000000E+00 0.  1.
         23    2    1    2    0    0  0.00000000000E+00  0.00000000000E+00  0.00000000000E+00  0.10000000000E+03  0.10000000000E+03 0.  0.
          5    1    3    3  501    0  0.43367061815E+02  0.21291412734E+02  0.11995152909E+02  0.50000000000E+02  0.47000000000E+01 0. -1.
         -5    1    3    3    0  501 -0.43367061815E+02 -0.21291412734E+02 -0.11995152909E+02  0.50000000000E+02  0.47000000000E+01 0.  1.
</event>
<event>
 5    1  0.9091923E-001  0.1000000E+03  0.7546771E-02  0.1163815E+00
         11   -1    0    0    0    0  0.00000000000E+00  0.00000000000E+00  0.50000000000E+02  0.50000000000E+02  0.00000000000E+00 0. -1.
        -11   -1    0    0    0    0 -0.00000000000E+00 -0.00000000000E+00 -0.50000000000E+02  0.50000000000E+02  0.00000000000E+00 0.  1.
         23    2    1    2    0    0  0.00000000000E+00  0.00000000000E+00  0.00000000000E+00  0.10000000000E+03  0.10000000000E+03 0.  0.
          5    1    3    3  501    0 -0.11587376652E+02 -0.45704158958E+02  0.15961596296E+02  0.50000000000E+02  0.47000000000E+01 0. -1.
         -5    1    3    3    0  501  0.11587376652E+02  0.45704158958E+02 -0.15961596296E+02  0.50000000000E+02  0.47000000000E+01 0.  1.
</event>
<event>
 5    1  0.9091923E-001  0.1000000E+03  0.7546771E-02  0.1163815E+00
         11   -1    0    0    0    0  0.00000000000E+00  0.00000000000E+00  0.50000000000E+02  0.50000000000E+02  0.00000000000E+00 0. -1.
        -11   -1    0    0    0    0 -0.00000000000E+00 -0.00000000000E+00 -0.50000000000E+02  0.50000000000E+02  0.00000000000E+00 0.  1.
         23    2    1    2    0    0  0.00000000000E+00  0.00000000000E+00  0.00000000000E+00  0.10000000000E+03  0.10000000000E+03 0.  0.
          5    1    3    3  501    0  0.45963073079E+02  0.10223077663E+02 -0.16149136082E+02  0.50000000000E+02  0.47000000000E+01 0. -1.
         -5    1    3    3    0  501 -0.45963073079E+02 -0.10223077663E+02  0.16149136082E+02  0.50000000000E+02  0.47000000000E+01 0.  1.
</event>
<event>
 5    1  0.9091923E-001  0.1000000E+03  0.7546771E-02  0.1163815E+00
         11   -1    0    0    0    0  0.00000000000E+00  0.00000000000E+00  0.50000000000E+02  0.50000000000E+02  0.00000000000E+00 0.  1.
        -11   -1    0    0    0    0 -0.00000000000E+00 -0.00000000000E+00 -0.50000000000E+02  0.50000000000E+02  0.00000000000E+00 0. -1.
         23    2    1    2    0    0  0.00000000000E+00  0.00000000000E+00  0.00000000000E+00  0.10000000000E+03  0.10000000000E+03 0.  0.
          5    1    3    3  501    0 -0.37211305043E+02  0.32927529932E+02  0.30010913994E+01  0.50000000000E+02  0.47000000000E+01 0. -1.
         -5    1    3    3    0  501  0.37211305043E+02 -0.32927529932E+02 -0.30010913994E+01  0.50000000000E+02  0.47000000000E+01 0.  1.
</event>
<event>
 5    1  0.9091923E-001  0.1000000E+03  0.7546771E-02  0.1163815E+00
         11   -1    0    0    0    0  0.00000000000E+00  0.00000000000E+00  0.50000000000E+02  0.50000000000E+02  0.00000000000E+00 0. -1.
        -11   -1    0    0    0    0 -0.00000000000E+00 -0.00000000000E+00 -0.50000000000E+02  0.50000000000E+02  0.00000000000E+00 0.  1.
         23    2    1    2    0    0  0.00000000000E+00  0.00000000000E+00  0.00000000000E+00  0.10000000000E+03  0.10000000000E+03 0.  0.
          5    1    3    3  501    0 -0.18363621654E+02  0.36834276773E+02  0.27998633080E+02  0.50000000000E+02  0.47000000000E+01 0. -1.
         -5    1    3    3    0  501  0.18363621654E+02 -0.36834276773E+02 -0.27998633080E+02  0.50000000000E+02  0.47000000000E+01 0.  1.
</event>
<event>
 5    1  0.9091923E-001  0.1000000E+03  0.7546771E-02  0.1163815E+00
         11   -1    0    0    0    0  0.00000000000E+00  0.00000000000E+00  0.50000000000E+02  0.50000000000E+02  0.00000000000E+00 0. -1.
        -11   -1    0    0    0    0 -0.00000000000E+00 -0.00000000000E+00 -0.50000000000E+02  0.50000000000E+02  0.00000000000E+00 0.  1.
         23    2    1    2    0    0  0.00000000000E+00  0.00000000000E+00  0.00000000000E+00  0.10000000000E+03  0.10000000000E+03 0.  0.
          5    1    3    3  501    0  0.33760222136E+02  0.70130387982E+01  0.35902293634E+02  0.50000000000E+02  0.47000000000E+01 0. -1.
         -5    1    3    3    0  501 -0.33760222136E+02 -0.70130387982E+01 -0.35902293634E+02  0.50000000000E+02  0.47000000000E+01 0.  1.
</event>
<event>
 5    1  0.9091923E-001  0.1000000E+03  0.7546771E-02  0.1163815E+00
         11   -1    0    0    0    0  0.00000000000E+00  0.00000000000E+00  0.50000000000E+02  0.50000000000E+02  0.00000000000E+00 0. -1.
        -11   -1    0    0    0    0 -0.00000000000E+00 -0.00000000000E+00 -0.50000000000E+02  0.50000000000E+02  0.00000000000E+00 0.  1.
         23    2    1    2    0    0  0.00000000000E+00  0.00000000000E+00  0.00000000000E+00  0.10000000000E+03  0.10000000000E+03 0.  0.
          5    1    3    3  501    0  0.10967019553E+02  0.26733814385E+02  0.40533167290E+02  0.50000000000E+02  0.47000000000E+01 0. -1.
         -5    1    3    3    0  501 -0.10967019553E+02 -0.26733814385E+02 -0.40533167290E+02  0.50000000000E+02  0.47000000000E+01 0.  1.
</event>
<event>
 5    1  0.9091923E-001  0.1000000E+03  0.7546771E-02  0.1163815E+00
         11   -1    0    0    0    0  0.00000000000E+00  0.00000000000E+00  0.50000000000E+02  0.50000000000E+02  0.00000000000E+00 0. -1.
        -11   -1    0    0    0    0 -0.00000000000E+00 -0.00000000000E+00 -0.50000000000E+02  0.50000000000E+02  0.00000000000E+00 0.  1.
         23    2    1    2    0    0  0.00000000000E+00  0.00000000000E+00  0.00000000000E+00  0.10000000000E+03  0.10000000000E+03 0.  0.
          5    1    3    3  501    0 -0.35645044156E+02 -0.33569109121E+02 -0.89697123674E+01  0.50000000000E+02  0.47000000000E+01 0. -1.
         -5    1    3    3    0  501  0.35645044156E+02  0.33569109121E+02  0.89697123674E+01  0.50000000000E+02  0.47000000000E+01 0.  1.
</event>
<event>
 5    1  0.9091923E-001  0.1000000E+03  0.7546771E-02  0.1163815E+00
         11   -1    0    0    0    0  0.00000000000E+00  0.00000000000E+00  0.50000000000E+02  0.50000000000E+02  0.00000000000E+00 0. -1.
        -11   -1    0    0    0    0 -0.00000000000E+00 -0.00000000000E+00 -0.50000000000E+02  0.50000000000E+02  0.00000000000E+00 0.  1.
         23    2    1    2    0    0  0.00000000000E+00  0.00000000000E+00  0.00000000000E+00  0.10000000000E+03  0.10000000000E+03 0.  0.
          5    1    3    3  501    0 -0.12699520395E+02  0.18705209554E+02  0.44348024953E+02  0.50000000000E+02  0.47000000000E+01 0. -1.
         -5    1    3    3    0  501  0.12699520395E+02 -0.18705209554E+02 -0.44348024953E+02  0.50000000000E+02  0.47000000000E+01 0.  1.
</event>
<event>
 5    1  0.9091923E-001  0.1000000E+03  0.7546771E-02  0.1163815E+00
         11   -1    0    0    0    0  0.00000000000E+00  0.00000000000E+00  0.50000000000E+02  0.50000000000E+02  0.00000000000E+00 0. -1.
        -11   -1    0    0    0    0 -0.00000000000E+00 -0.00000000000E+00 -0.50000000000E+02  0.50000000000E+02  0.00000000000E+00 0.  1.
         23    2    1    2    0    0  0.00000000000E+00  0.00000000000E+00  0.00000000000E+00  0.10000000000E+03  0.10000000000E+03 0.  0.
          5    1    3    3  501    0 -0.23210812278E+02 -0.25007361174E+02  0.36246380240E+02  0.50000000000E+02  0.47000000000E+01 0. -1.
         -5    1    3    3    0  501  0.23210812278E+02  0.25007361174E+02 -0.36246380240E+02  0.50000000000E+02  0.47000000000E+01 0.  1.
</event>
<event>
 5    1  0.9091923E-001  0.1000000E+03  0.7546771E-02  0.1163815E+00
         11   -1    0    0    0    0  0.00000000000E+00  0.00000000000E+00  0.50000000000E+02  0.50000000000E+02  0.00000000000E+00 0.  1.
        -11   -1    0    0    0    0 -0.00000000000E+00 -0.00000000000E+00 -0.50000000000E+02  0.50000000000E+02  0.00000000000E+00 0. -1.
         23    2    1    2    0    0  0.00000000000E+00  0.00000000000E+00  0.00000000000E+00  0.10000000000E+03  0.10000000000E+03 0.  0.
          5    1    3    3  501    0 -0.11917335903E+02 -0.46917428145E+02 -0.11603535720E+02  0.50000000000E+02  0.47000000000E+01 0. -1.
         -5    1    3    3    0  501  0.11917335903E+02  0.46917428145E+02  0.11603535720E+02  0.50000000000E+02  0.47000000000E+01 0.  1.
</event>
<event>
 5    1  0.9091923E-001  0.1000000E+03  0.7546771E-02  0.1163815E+00
         11   -1    0    0    0    0  0.00000000000E+00  0.00000000000E+00  0.50000000000E+02  0.50000000000E+02  0.00000000000E+00 0. -1.
        -11   -1    0    0    0    0 -0.00000000000E+00 -0.00000000000E+00 -0.50000000000E+02  0.50000000000E+02  0.00000000000E+00 0.  1.
         23    2    1    2    0    0  0.00000000000E+00  0.00000000000E+00  0.00000000000E+00  0.10000000000E+03  0.10000000000E+03 0.  0.
          5    1    3    3  501    0  0.39626003078E+02 -0.21088536186E+02  0.21516587127E+02  0.50000000000E+02  0.47000000000E+01 0. -1.
         -5    1    3    3    0  501 -0.39626003078E+02  0.21088536186E+02 -0.21516587127E+02  0.50000000000E+02  0.47000000000E+01 0.  1.
</event>
<event>
 5    1  0.9091923E-001  0.1000000E+03  0.7546771E-02  0.1163815E+00
         11   -1    0    0    0    0  0.00000000000E+00  0.00000000000E+00  0.50000000000E+02  0.50000000000E+02  0.00000000000E+00 0. -1.
        -11   -1    0    0    0    0 -0.00000000000E+00 -0.00000000000E+00 -0.50000000000E+02  0.50000000000E+02  0.00000000000E+00 0.  1.
         23    2    1    2    0    0  0.00000000000E+00  0.00000000000E+00  0.00000000000E+00  0.10000000000E+03  0.10000000000E+03 0.  0.
          5    1    3    3  501    0 -0.18424402493E+02 -0.45806430803E+02  0.63421045328E+01  0.50000000000E+02  0.47000000000E+01 0. -1.
         -5    1    3    3    0  501  0.18424402493E+02  0.45806430803E+02 -0.63421045328E+01  0.50000000000E+02  0.47000000000E+01 0.  1.
</event>
<event>
 5    1  0.9091923E-001  0.1000000E+03  0.7546771E-02  0.1163815E+00
         11   -1    0    0    0    0  0.00000000000E+00  0.00000000000E+00  0.50000000000E+02  0.50000000000E+02  0.00000000000E+00 0. -1.
        -11   -1    0    0    0    0 -0.00000000000E+00 -0.00000000000E+00 -0.50000000000E+02  0.50000000000E+02  0.00000000000E+00 0.  1.
         23    2    1    2    0    0  0.00000000000E+00  0.00000000000E+00  0.00000000000E+00  0.10000000000E+03  0.10000000000E+03 0.  0.
          5    1    3    3  501    0 -0.13843591899E+02 -0.25563545792E+02  0.40407549912E+02  0.50000000000E+02  0.47000000000E+01 0. -1.
         -5    1    3    3    0  501  0.13843591899E+02  0.25563545792E+02 -0.40407549912E+02  0.50000000000E+02  0.47000000000E+01 0.  1.
</event>
<event>
 5    1  0.9091923E-001  0.1000000E+03  0.7546771E-02  0.1163815E+00
         11   -1    0    0    0    0  0.00000000000E+00  0.00000000000E+00  0.50000000000E+02  0.50000000000E+02  0.00000000000E+00 0. -1.
        -11   -1    0    0    0    0 -0.00000000000E+00 -0.00000000000E+00 -0.50000000000E+02  0.50000000000E+02  0.00000000000E+00 0.  1.
         23    2    1    2    0    0  0.00000000000E+00  0.00000000000E+00  0.00000000000E+00  0.10000000000E+03  0.10000000000E+03 0.  0.
          5    1    3    3  501    0  0.33550818120E+02  0.32851127152E+00  0.36771520009E+02  0.50000000000E+02  0.47000000000E+01 0. -1.
         -5    1    3    3    0  501 -0.33550818120E+02 -0.32851127152E+00 -0.36771520009E+02  0.50000000000E+02  0.47000000000E+01 0.  1.
</event>
<event>
 5    1  0.9091923E-001  0.1000000E+03  0.7546771E-02  0.1163815E+00
         11   -1    0    0    0    0  0.00000000000E+00  0.00000000000E+00  0.50000000000E+02  0.50000000000E+02  0.00000000000E+00 0. -1.
        -11   -1    0    0    0    0 -0.00000000000E+00 -0.00000000000E+00 -0.50000000000E+02  0.50000000000E+02  0.00000000000E+00 0.  1.
         23    2    1    2    0    0  0.00000000000E+00  0.00000000000E+00  0.00000000000E+00  0.10000000000E+03  0.10000000000E+03 0.  0.
          5    1    3    3  501    0 -0.16492063383E+01 -0.19100674744E+02  0.45938593174E+02  0.50000000000E+02  0.47000000000E+01 0. -1.
         -5    1    3    3    0  501  0.16492063383E+01  0.19100674744E+02 -0.45938593174E+02  0.50000000000E+02  0.47000000000E+01 0.  1.
</event>
<event>
 5    1  0.9091923E-001  0.1000000E+03  0.7546771E-02  0.1163815E+00
         11   -1    0    0    0    0  0.00000000000E+00  0.00000000000E+00  0.50000000000E+02  0.50000000000E+02  0.00000000000E+00 0. -1.
        -11   -1    0    0    0    0 -0.00000000000E+00 -0.00000000000E+00 -0.50000000000E+02  0.50000000000E+02  0.00000000000E+00 0.  1.
         23    2    1    2    0    0  0.00000000000E+00  0.00000000000E+00  0.00000000000E+00  0.10000000000E+03  0.10000000000E+03 0.  0.
          5    1    3    3  501    0  0.69031919252E+01  0.47881402668E+02 -0.11731462815E+02  0.50000000000E+02  0.47000000000E+01 0. -1.
         -5    1    3    3    0  501 -0.69031919252E+01 -0.47881402668E+02  0.11731462815E+02  0.50000000000E+02  0.47000000000E+01 0.  1.
</event>
<event>
 5    1  0.9091923E-001  0.1000000E+03  0.7546771E-02  0.1163815E+00
         11   -1    0    0    0    0  0.00000000000E+00  0.00000000000E+00  0.50000000000E+02  0.50000000000E+02  0.00000000000E+00 0.  1.
        -11   -1    0    0    0    0 -0.00000000000E+00 -0.00000000000E+00 -0.50000000000E+02  0.50000000000E+02  0.00000000000E+00 0. -1.
         23    2    1    2    0    0  0.00000000000E+00  0.00000000000E+00  0.00000000000E+00  0.10000000000E+03  0.10000000000E+03 0.  0.
          5    1    3    3  501    0 -0.11748988272E+01 -0.31825338389E+02  0.38258037707E+02  0.50000000000E+02  0.47000000000E+01 0.  1.
         -5    1    3    3    0  501  0.11748988272E+01  0.31825338389E+02 -0.38258037707E+02  0.50000000000E+02  0.47000000000E+01 0. -1.
</event>
<event>
 5    1  0.9091923E-001  0.1000000E+03  0.7546771E-02  0.1163815E+00
         11   -1    0    0    0    0  0.00000000000E+00  0.00000000000E+00  0.50000000000E+02  0.50000000000E+02  0.00000000000E+00 0.  1.
        -11   -1    0    0    0    0 -0.00000000000E+00 -0.00000000000E+00 -0.50000000000E+02  0.50000000000E+02  0.00000000000E+00 0. -1.
         23    2    1    2    0    0  0.00000000000E+00  0.00000000000E+00  0.00000000000E+00  0.10000000000E+03  0.10000000000E+03 0.  0.
          5    1    3    3  501    0  0.25186521672E+02 -0.40033125124E+02 -0.15520889756E+02  0.50000000000E+02  0.47000000000E+01 0. -1.
         -5    1    3    3    0  501 -0.25186521672E+02  0.40033125124E+02  0.15520889756E+02  0.50000000000E+02  0.47000000000E+01 0.  1.
</event>
<event>
 5    1  0.9091923E-001  0.1000000E+03  0.7546771E-02  0.1163815E+00
         11   -1    0    0    0    0  0.00000000000E+00  0.00000000000E+00  0.50000000000E+02  0.50000000000E+02  0.00000000000E+00 0.  1.
        -11   -1    0    0    0    0 -0.00000000000E+00 -0.00000000000E+00 -0.50000000000E+02  0.50000000000E+02  0.00000000000E+00 0. -1.
         23    2    1    2    0    0  0.00000000000E+00  0.00000000000E+00  0.00000000000E+00  0.10000000000E+03  0.10000000000E+03 0.  0.
          5    1    3    3  501    0 -0.35466384563E+02 -0.74214273281E+01  0.34131627304E+02  0.50000000000E+02  0.47000000000E+01 0.  1.
         -5    1    3    3    0  501  0.35466384563E+02  0.74214273281E+01 -0.34131627304E+02  0.50000000000E+02  0.47000000000E+01 0. -1.
</event>
<event>
 5    1  0.9091923E-001  0.1000000E+03  0.7546771E-02  0.1163815E+00
         11   -1    0    0    0    0  0.00000000000E+00  0.00000000000E+00  0.50000000000E+02  0.50000000000E+02  0.00000000000E+00 0.  1.
        -11   -1    0    0    0    0 -0.00000000000E+00 -0.00000000000E+00 -0.50000000000E+02  0.50000000000E+02  0.00000000000E+00 0. -1.
         23    2    1    2    0    0  0.00000000000E+00  0.00000000000E+00  0.00000000000E+00  0.10000000000E+03  0.10000000000E+03 0.  0.
          5    1    3    3  501    0  0.42743217350E+02  0.75936335809E+01 -0.24357013356E+02  0.50000000000E+02  0.47000000000E+01 0. -1.
         -5    1    3    3    0  501 -0.42743217350E+02 -0.75936335809E+01  0.24357013356E+02  0.50000000000E+02  0.47000000000E+01 0.  1.
</event>
<event>
 5    1  0.9091923E-001  0.1000000E+03  0.7546771E-02  0.1163815E+00
         11   -1    0    0    0    0  0.00000000000E+00  0.00000000000E+00  0.50000000000E+02  0.50000000000E+02  0.00000000000E+00 0. -1.
        -11   -1    0    0    0    0 -0.00000000000E+00 -0.00000000000E+00 -0.50000000000E+02  0.50000000000E+02  0.00000000000E+00 0.  1.
         23    2    1    2    0    0  0.00000000000E+00  0.00000000000E+00  0.00000000000E+00  0.10000000000E+03  0.10000000000E+03 0.  0.
          5    1    3    3  501    0 -0.13614245847E+02  0.40929424221E+02  0.24846419117E+02  0.50000000000E+02  0.47000000000E+01 0. -1.
         -5    1    3    3    0  501  0.13614245847E+02 -0.40929424221E+02 -0.24846419117E+02  0.50000000000E+02  0.47000000000E+01 0.  1.
</event>
<event>
 5    1  0.9091923E-001  0.1000000E+03  0.7546771E-02  0.1163815E+00
         11   -1    0    0    0    0  0.00000000000E+00  0.00000000000E+00  0.50000000000E+02  0.50000000000E+02  0.00000000000E+00 0. -1.
        -11   -1    0    0    0    0 -0.00000000000E+00 -0.00000000000E+00 -0.50000000000E+02  0.50000000000E+02  0.00000000000E+00 0.  1.
         23    2    1    2    0    0  0.00000000000E+00  0.00000000000E+00  0.00000000000E+00  0.10000000000E+03  0.10000000000E+03 0.  0.
          5    1    3    3  501    0  0.23031239500E+02  0.41776694768E+02 -0.14218993684E+02  0.50000000000E+02  0.47000000000E+01 0.  1.
         -5    1    3    3    0  501 -0.23031239500E+02 -0.41776694768E+02  0.14218993684E+02  0.50000000000E+02  0.47000000000E+01 0. -1.
</event>
<event>
 5    1  0.9091923E-001  0.1000000E+03  0.7546771E-02  0.1163815E+00
         11   -1    0    0    0    0  0.00000000000E+00  0.00000000000E+00  0.50000000000E+02  0.50000000000E+02  0.00000000000E+00 0.  1.
        -11   -1    0    0    0    0 -0.00000000000E+00 -0.00000000000E+00 -0.50000000000E+02  0.50000000000E+02  0.00000000000E+00 0. -1.
         23    2    1    2    0    0  0.00000000000E+00  0.00000000000E+00  0.00000000000E+00  0.10000000000E+03  0.10000000000E+03 0.  0.
          5    1    3    3  501    0 -0.26067170935E+02 -0.31749876891E+02  0.28113304980E+02  0.50000000000E+02  0.47000000000E+01 0.  1.
         -5    1    3    3    0  501  0.26067170935E+02  0.31749876891E+02 -0.28113304980E+02  0.50000000000E+02  0.47000000000E+01 0. -1.
</event>
<event>
 5    1  0.9091923E-001  0.1000000E+03  0.7546771E-02  0.1163815E+00
         11   -1    0    0    0    0  0.00000000000E+00  0.00000000000E+00  0.50000000000E+02  0.50000000000E+02  0.00000000000E+00 0. -1.
        -11   -1    0    0    0    0 -0.00000000000E+00 -0.00000000000E+00 -0.50000000000E+02  0.50000000000E+02  0.00000000000E+00 0.  1.
         23    2    1    2    0    0  0.00000000000E+00  0.00000000000E+00  0.00000000000E+00  0.10000000000E+03  0.10000000000E+03 0.  0.
          5    1    3    3  501    0  0.98906283355E+01 -0.17917079073E+01  0.48753207627E+02  0.50000000000E+02  0.47000000000E+01 0. -1.
         -5    1    3    3    0  501 -0.98906283355E+01  0.17917079073E+01 -0.48753207627E+02  0.50000000000E+02  0.47000000000E+01 0.  1.
</event>
<event>
 5    1  0.9091923E-001  0.1000000E+03  0.7546771E-02  0.1163815E+00
         11   -1    0    0    0    0  0.00000000000E+00  0.00000000000E+00  0.50000000000E+02  0.50000000000E+02  0.00000000000E+00 0. -1.
        -11   -1    0    0    0    0 -0.00000000000E+00 -0.00000000000E+00 -0.50000000000E+02  0.50000000000E+02  0.00000000000E+00 0.  1.
         23    2    1    2    0    0  0.00000000000E+00  0.00000000000E+00  0.00000000000E+00  0.10000000000E+03  0.10000000000E+03 0.  0.
          5    1    3    3  501    0  0.39112710119E+02  0.10331137996E+02  0.29006438852E+02  0.50000000000E+02  0.47000000000E+01 0. -1.
         -5    1    3    3    0  501 -0.39112710119E+02 -0.10331137996E+02 -0.29006438852E+02  0.50000000000E+02  0.47000000000E+01 0.  1.
</event>
<event>
 5    1  0.9091923E-001  0.1000000E+03  0.7546771E-02  0.1163815E+00
         11   -1    0    0    0    0  0.00000000000E+00  0.00000000000E+00  0.50000000000E+02  0.50000000000E+02  0.00000000000E+00 0.  1.
        -11   -1    0    0    0    0 -0.00000000000E+00 -0.00000000000E+00 -0.50000000000E+02  0.50000000000E+02  0.00000000000E+00 0. -1.
         23    2    1    2    0    0  0.00000000000E+00  0.00000000000E+00  0.00000000000E+00  0.10000000000E+03  0.10000000000E+03 0.  0.
          5    1    3    3  501    0 -0.15730433401E+02  0.39940513611E+02 -0.25203548112E+02  0.50000000000E+02  0.47000000000E+01 0. -1.
         -5    1    3    3    0  501  0.15730433401E+02 -0.39940513611E+02  0.25203548112E+02  0.50000000000E+02  0.47000000000E+01 0.  1.
</event>
<event>
 5    1  0.9091923E-001  0.1000000E+03  0.7546771E-02  0.1163815E+00
         11   -1    0    0    0    0  0.00000000000E+00  0.00000000000E+00  0.50000000000E+02  0.50000000000E+02  0.00000000000E+00 0.  1.
        -11   -1    0    0    0    0 -0.00000000000E+00 -0.00000000000E+00 -0.50000000000E+02  0.50000000000E+02  0.00000000000E+00 0. -1.
         23    2    1    2    0    0  0.00000000000E+00  0.00000000000E+00  0.00000000000E+00  0.10000000000E+03  0.10000000000E+03 0.  0.
          5    1    3    3  501    0  0.12306336583E+01  0.19827308354E+02  0.45642889745E+02  0.50000000000E+02  0.47000000000E+01 0.  1.
         -5    1    3    3    0  501 -0.12306336583E+01 -0.19827308354E+02 -0.45642889745E+02  0.50000000000E+02  0.47000000000E+01 0. -1.
</event>
<event>
 5    1  0.9091923E-001  0.1000000E+03  0.7546771E-02  0.1163815E+00
         11   -1    0    0    0    0  0.00000000000E+00  0.00000000000E+00  0.50000000000E+02  0.50000000000E+02  0.00000000000E+00 0.  1.
        -11   -1    0    0    0    0 -0.00000000000E+00 -0.00000000000E+00 -0.50000000000E+02  0.50000000000E+02  0.00000000000E+00 0. -1.
         23    2    1    2    0    0  0.00000000000E+00  0.00000000000E+00  0.00000000000E+00  0.10000000000E+03  0.10000000000E+03 0.  0.
          5    1    3    3  501    0 -0.18838082634E+02 -0.16095447929E+02 -0.43173755902E+02  0.50000000000E+02  0.47000000000E+01 0. -1.
         -5    1    3    3    0  501  0.18838082634E+02  0.16095447929E+02  0.43173755902E+02  0.50000000000E+02  0.47000000000E+01 0.  1.
</event>
<event>
 5    1  0.9091923E-001  0.1000000E+03  0.7546771E-02  0.1163815E+00
         11   -1    0    0    0    0  0.00000000000E+00  0.00000000000E+00  0.50000000000E+02  0.50000000000E+02  0.00000000000E+00 0. -1.
        -11   -1    0    0    0    0 -0.00000000000E+00 -0.00000000000E+00 -0.50000000000E+02  0.50000000000E+02  0.00000000000E+00 0.  1.
         23    2    1    2    0    0  0.00000000000E+00  0.00000000000E+00  0.00000000000E+00  0.10000000000E+03  0.10000000000E+03 0.  0.
          5    1    3    3  501    0 -0.99301915439E+01  0.39910529425E+02  0.28043732578E+02  0.50000000000E+02  0.47000000000E+01 0. -1.
         -5    1    3    3    0  501  0.99301915439E+01 -0.39910529425E+02 -0.28043732578E+02  0.50000000000E+02  0.47000000000E+01 0.  1.
</event>
<event>
 5    1  0.9091923E-001  0.1000000E+03  0.7546771E-02  0.1163815E+00
         11   -1    0    0    0    0  0.00000000000E+00  0.00000000000E+00  0.50000000000E+02  0.50000000000E+02  0.00000000000E+00 0. -1.
        -11   -1    0    0    0    0 -0.00000000000E+00 -0.00000000000E+00 -0.50000000000E+02  0.50000000000E+02  0.00000000000E+00 0.  1.
         23    2    1    2    0    0  0.00000000000E+00  0.00000000000E+00  0.00000000000E+00  0.10000000000E+03  0.10000000000E+03 0.  0.
          5    1    3    3  501    0  0.19090180567E+02  0.18752354737E+01  0.45934284558E+02  0.50000000000E+02  0.47000000000E+01 0. -1.
         -5    1    3    3    0  501 -0.19090180567E+02 -0.18752354737E+01 -0.45934284558E+02  0.50000000000E+02  0.47000000000E+01 0.  1.
</event>
<event>
 5    1  0.9091923E-001  0.1000000E+03  0.7546771E-02  0.1163815E+00
         11   -1    0    0    0    0  0.00000000000E+00  0.00000000000E+00  0.50000000000E+02  0.50000000000E+02  0.00000000000E+00 0. -1.
        -11   -1    0    0    0    0 -0.00000000000E+00 -0.00000000000E+00 -0.50000000000E+02  0.50000000000E+02  0.00000000000E+00 0.  1.
         23    2    1    2    0    0  0.00000000000E+00  0.00000000000E+00  0.00000000000E+00  0.10000000000E+03  0.10000000000E+03 0.  0.
          5    1    3    3  501    0  0.48164591996E+02  0.12378719575E+02 -0.22021306743E+01  0.50000000000E+02  0.47000000000E+01 0. -1.
         -5    1    3    3    0  501 -0.48164591996E+02 -0.12378719575E+02  0.22021306743E+01  0.50000000000E+02  0.47000000000E+01 0.  1.
</event>
<event>
 5    1  0.9091923E-001  0.1000000E+03  0.7546771E-02  0.1163815E+00
         11   -1    0    0    0    0  0.00000000000E+00  0.00000000000E+00  0.50000000000E+02  0.50000000000E+02  0.00000000000E+00 0. -1.
        -11   -1    0    0    0    0 -0.00000000000E+00 -0.00000000000E+00 -0.50000000000E+02  0.50000000000E+02  0.00000000000E+00 0.  1.
         23    2    1    2    0    0  0.00000000000E+00  0.00000000000E+00  0.00000000000E+00  0.10000000000E+03  0.10000000000E+03 0.  0.
          5    1    3    3  501    0 -0.21475412280E+02  0.40942043478E+02  0.18451713829E+02  0.50000000000E+02  0.47000000000E+01 0. -1.
         -5    1    3    3    0  501  0.21475412280E+02 -0.40942043478E+02 -0.18451713829E+02  0.50000000000E+02  0.47000000000E+01 0.  1.
</event>
<event>
 5    1  0.9091923E-001  0.1000000E+03  0.7546771E-02  0.1163815E+00
         11   -1    0    0    0    0  0.00000000000E+00  0.00000000000E+00  0.50000000000E+02  0.50000000000E+02  0.00000000000E+00 0. -1.
        -11   -1    0    0    0    0 -0.00000000000E+00 -0.00000000000E+00 -0.50000000000E+02  0.50000000000E+02  0.00000000000E+00 0.  1.
         23    2    1    2    0    0  0.00000000000E+00  0.00000000000E+00  0.00000000000E+00  0.10000000000E+03  0.10000000000E+03 0.  0.
          5    1    3    3  501    0 -0.16095150290E+02  0.36036340206E+02 -0.30335430139E+02  0.50000000000E+02  0.47000000000E+01 0.  1.
         -5    1    3    3    0  501  0.16095150290E+02 -0.36036340206E+02  0.30335430139E+02  0.50000000000E+02  0.47000000000E+01 0. -1.
</event>
<event>
 5    1  0.9091923E-001  0.1000000E+03  0.7546771E-02  0.1163815E+00
         11   -1    0    0    0    0  0.00000000000E+00  0.00000000000E+00  0.50000000000E+02  0.50000000000E+02  0.00000000000E+00 0. -1.
        -11   -1    0    0    0    0 -0.00000000000E+00 -0.00000000000E+00 -0.50000000000E+02  0.50000000000E+02  0.00000000000E+00 0.  1.
         23    2    1    2    0    0  0.00000000000E+00  0.00000000000E+00  0.00000000000E+00  0.10000000000E+03  0.10000000000E+03 0.  0.
          5    1    3    3  501    0 -0.47765600166E+02 -0.12010889807E+01  0.13961189995E+02  0.50000000000E+02  0.47000000000E+01 0. -1.
         -5    1    3    3    0  501  0.47765600166E+02  0.12010889807E+01 -0.13961189995E+02  0.50000000000E+02  0.47000000000E+01 0.  1.
</event>
<event>
 5    1  0.9091923E-001  0.1000000E+03  0.7546771E-02  0.1163815E+00
         11   -1    0    0    0    0  0.00000000000E+00  0.00000000000E+00  0.50000000000E+02  0.50000000000E+02  0.00000000000E+00 0.  1.
        -11   -1    0    0    0    0 -0.00000000000E+00 -0.00000000000E+00 -0.50000000000E+02  0.50000000000E+02  0.00000000000E+00 0. -1.
         23    2    1    2    0    0  0.00000000000E+00  0.00000000000E+00  0.00000000000E+00  0.10000000000E+03  0.10000000000E+03 0.  0.
          5    1    3    3  501    0 -0.36874286795E+02 -0.16494816901E+02  0.29088107343E+02  0.50000000000E+02  0.47000000000E+01 0.  1.
         -5    1    3    3    0  501  0.36874286795E+02  0.16494816901E+02 -0.29088107343E+02  0.50000000000E+02  0.47000000000E+01 0. -1.
</event>
<event>
 5    1  0.9091923E-001  0.1000000E+03  0.7546771E-02  0.1163815E+00
         11   -1    0    0    0    0  0.00000000000E+00  0.00000000000E+00  0.50000000000E+02  0.50000000000E+02  0.00000000000E+00 0. -1.
        -11   -1    0    0    0    0 -0.00000000000E+00 -0.00000000000E+00 -0.50000000000E+02  0.50000000000E+02  0.00000000000E+00 0.  1.
         23    2    1    2    0    0  0.00000000000E+00  0.00000000000E+00  0.00000000000E+00  0.10000000000E+03  0.10000000000E+03 0.  0.
          5    1    3    3  501    0  0.18208822774E+02  0.46324093287E+02 -0.65357045056E+00  0.50000000000E+02  0.47000000000E+01 0. -1.
         -5    1    3    3    0  501 -0.18208822774E+02 -0.46324093287E+02  0.65357045056E+00  0.50000000000E+02  0.47000000000E+01 0.  1.
</event>
<event>
 5    1  0.9091923E-001  0.1000000E+03  0.7546771E-02  0.1163815E+00
         11   -1    0    0    0    0  0.00000000000E+00  0.00000000000E+00  0.50000000000E+02  0.50000000000E+02  0.00000000000E+00 0. -1.
        -11   -1    0    0    0    0 -0.00000000000E+00 -0.00000000000E+00 -0.50000000000E+02  0.50000000000E+02  0.00000000000E+00 0.  1.
         23    2    1    2    0    0  0.00000000000E+00  0.00000000000E+00  0.00000000000E+00  0.10000000000E+03  0.10000000000E+03 0.  0.
          5    1    3    3  501    0 -0.20820914633E+02  0.15834124746E+02  0.42351859550E+02  0.50000000000E+02  0.47000000000E+01 0. -1.
         -5    1    3    3    0  501  0.20820914633E+02 -0.15834124746E+02 -0.42351859550E+02  0.50000000000E+02  0.47000000000E+01 0.  1.
</event>
<event>
 5    1  0.9091923E-001  0.1000000E+03  0.7546771E-02  0.1163815E+00
         11   -1    0    0    0    0  0.00000000000E+00  0.00000000000E+00  0.50000000000E+02  0.50000000000E+02  0.00000000000E+00 0. -1.
        -11   -1    0    0    0    0 -0.00000000000E+00 -0.00000000000E+00 -0.50000000000E+02  0.50000000000E+02  0.00000000000E+00 0.  1.
         23    2    1    2    0    0  0.00000000000E+00  0.00000000000E+00  0.00000000000E+00  0.10000000000E+03  0.10000000000E+03 0.  0.
          5    1    3    3  501    0  0.21979891054E+02 -0.39100541410E+02  0.21585690878E+02  0.50000000000E+02  0.47000000000E+01 0. -1.
         -5    1    3    3    0  501 -0.21979891054E+02  0.39100541410E+02 -0.21585690878E+02  0.50000000000E+02  0.47000000000E+01 0.  1.
</event>
<event>
 5    1  0.9091923E-001  0.1000000E+03  0.7546771E-02  0.1163815E+00
         11   -1    0    0    0    0  0.00000000000E+00  0.00000000000E+00  0.50000000000E+02  0.50000000000E+02  0.00000000000E+00 0. -1.
        -11   -1    0    0    0    0 -0.00000000000E+00 -0.00000000000E+00 -0.50000000000E+02  0.50000000000E+02  0.00000000000E+00 0.  1.
         23    2    1    2    0    0  0.00000000000E+00  0.00000000000E+00  0.00000000000E+00  0.10000000000E+03  0.10000000000E+03 0.  0.
          5    1    3    3  501    0 -0.46937748413E+02 -0.16547178155E+02 -0.97399643208E+00  0.50000000000E+02  0.47000000000E+01 0. -1.
         -5    1    3    3    0  501  0.46937748413E+02  0.16547178155E+02  0.97399643208E+00  0.50000000000E+02  0.47000000000E+01 0.  1.
</event>
<event>
 5    1  0.9091923E-001  0.1000000E+03  0.7546771E-02  0.1163815E+00
         11   -1    0    0    0    0  0.00000000000E+00  0.00000000000E+00  0.50000000000E+02  0.50000000000E+02  0.00000000000E+00 0. -1.
        -11   -1    0    0    0    0 -0.00000000000E+00 -0.00000000000E+00 -0.50000000000E+02  0.50000000000E+02  0.00000000000E+00 0.  1.
         23    2    1    2    0    0  0.00000000000E+00  0.00000000000E+00  0.00000000000E+00  0.10000000000E+03  0.10000000000E+03 0.  0.
          5    1    3    3  501    0  0.12838042598E+02  0.21111919375E+02  0.43213210047E+02  0.50000000000E+02  0.47000000000E+01 0. -1.
         -5    1    3    3    0  501 -0.12838042598E+02 -0.21111919375E+02 -0.43213210047E+02  0.50000000000E+02  0.47000000000E+01 0.  1.
</event>
<event>
 5    1  0.9091923E-001  0.1000000E+03  0.7546771E-02  0.1163815E+00
         11   -1    0    0    0    0  0.00000000000E+00  0.00000000000E+00  0.50000000000E+02  0.50000000000E+02  0.00000000000E+00 0.  1.
        -11   -1    0    0    0    0 -0.00000000000E+00 -0.00000000000E+00 -0.50000000000E+02  0.50000000000E+02  0.00000000000E+00 0. -1.
         23    2    1    2    0    0  0.00000000000E+00  0.00000000000E+00  0.00000000000E+00  0.10000000000E+03  0.10000000000E+03 0.  0.
          5    1    3    3  501    0  0.11094835945E+02  0.48333656656E+02  0.43211398506E+01  0.50000000000E+02  0.47000000000E+01 0. -1.
         -5    1    3    3    0  501 -0.11094835945E+02 -0.48333656656E+02 -0.43211398506E+01  0.50000000000E+02  0.47000000000E+01 0.  1.
</event>
<event>
 5    1  0.9091923E-001  0.1000000E+03  0.7546771E-02  0.1163815E+00
         11   -1    0    0    0    0  0.00000000000E+00  0.00000000000E+00  0.50000000000E+02  0.50000000000E+02  0.00000000000E+00 0. -1.
        -11   -1    0    0    0    0 -0.00000000000E+00 -0.00000000000E+00 -0.50000000000E+02  0.50000000000E+02  0.00000000000E+00 0.  1.
         23    2    1    2    0    0  0.00000000000E+00  0.00000000000E+00  0.00000000000E+00  0.10000000000E+03  0.10000000000E+03 0.  0.
          5    1    3    3  501    0 -0.40296333715E+01  0.34612705943E+02  0.35547610921E+02  0.50000000000E+02  0.47000000000E+01 0. -1.
         -5    1    3    3    0  501  0.40296333715E+01 -0.34612705943E+02 -0.35547610921E+02  0.50000000000E+02  0.47000000000E+01 0.  1.
</event>
<event>
 5    1  0.9091923E-001  0.1000000E+03  0.7546771E-02  0.1163815E+00
         11   -1    0    0    0    0  0.00000000000E+00  0.00000000000E+00  0.50000000000E+02  0.50000000000E+02  0.00000000000E+00 0.  1.
        -11   -1    0    0    0    0 -0.00000000000E+00 -0.00000000000E+00 -0.50000000000E+02  0.50000000000E+02  0.00000000000E+00 0. -1.
         23    2    1    2    0    0  0.00000000000E+00  0.00000000000E+00  0.00000000000E+00  0.10000000000E+03  0.10000000000E+03 0.  0.
          5    1    3    3  501    0 -0.26127007717E+02  0.10781184781E+02 -0.40976279998E+02  0.50000000000E+02  0.47000000000E+01 0. -1.
         -5    1    3    3    0  501  0.26127007717E+02 -0.10781184781E+02  0.40976279998E+02  0.50000000000E+02  0.47000000000E+01 0.  1.
</event>
<event>
 5    1  0.9091923E-001  0.1000000E+03  0.7546771E-02  0.1163815E+00
         11   -1    0    0    0    0  0.00000000000E+00  0.00000000000E+00  0.50000000000E+02  0.50000000000E+02  0.00000000000E+00 0. -1.
        -11   -1    0    0    0    0 -0.00000000000E+00 -0.00000000000E+00 -0.50000000000E+02  0.50000000000E+02  0.00000000000E+00 0.  1.
         23    2    1    2    0    0  0.00000000000E+00  0.00000000000E+00  0.00000000000E+00  0.10000000000E+03  0.10000000000E+03 0.  0.
          5    1    3    3  501    0 -0.18901642733E+02  0.35795938300E+02  0.28970479858E+02  0.50000000000E+02  0.47000000000E+01 0. -1.
         -5    1    3    3    0  501  0.18901642733E+02 -0.35795938300E+02 -0.28970479858E+02  0.50000000000E+02  0.47000000000E+01 0.  1.
</event>
<event>
 5    1  0.9091923E-001  0.1000000E+03  0.7546771E-02  0.1163815E+00
         11   -1    0    0    0    0  0.00000000000E+00  0.00000000000E+00  0.50000000000E+02  0.50000000000E+02  0.00000000000E+00 0.  1.
        -11   -1    0    0    0    0 -0.00000000000E+00 -0.00000000000E+00 -0.50000000000E+02  0.50000000000E+02  0.00000000000E+00 0. -1.
         23    2    1    2    0    0  0.00000000000E+00  0.00000000000E+00  0.00000000000E+00  0.10000000000E+03  0.10000000000E+03 0.  0.
          5    1    3    3  501    0  0.39939187083E+02 -0.13127907453E+02 -0.26653881163E+02  0.50000000000E+02  0.47000000000E+01 0. -1.
         -5    1    3    3    0  501 -0.39939187083E+02  0.13127907453E+02  0.26653881163E+02  0.50000000000E+02  0.47000000000E+01 0.  1.
</event>
<event>
 5    1  0.9091923E-001  0.1000000E+03  0.7546771E-02  0.1163815E+00
         11   -1    0    0    0    0  0.00000000000E+00  0.00000000000E+00  0.50000000000E+02  0.50000000000E+02  0.00000000000E+00 0. -1.
        -11   -1    0    0    0    0 -0.00000000000E+00 -0.00000000000E+00 -0.50000000000E+02  0.50000000000E+02  0.00000000000E+00 0.  1.
         23    2    1    2    0    0  0.00000000000E+00  0.00000000000E+00  0.00000000000E+00  0.10000000000E+03  0.10000000000E+03 0.  0.
          5    1    3    3  501    0 -0.45889808656E+02 -0.36421584218E+01  0.18941228670E+02  0.50000000000E+02  0.47000000000E+01 0. -1.
         -5    1    3    3    0  501  0.45889808656E+02  0.36421584218E+01 -0.18941228670E+02  0.50000000000E+02  0.47000000000E+01 0.  1.
</event>
<event>
 5    1  0.9091923E-001  0.1000000E+03  0.7546771E-02  0.1163815E+00
         11   -1    0    0    0    0  0.00000000000E+00  0.00000000000E+00  0.50000000000E+02  0.50000000000E+02  0.00000000000E+00 0. -1.
        -11   -1    0    0    0    0 -0.00000000000E+00 -0.00000000000E+00 -0.50000000000E+02  0.50000000000E+02  0.00000000000E+00 0.  1.
         23    2    1    2    0    0  0.00000000000E+00  0.00000000000E+00  0.00000000000E+00  0.10000000000E+03  0.10000000000E+03 0.  0.
          5    1    3    3  501    0 -0.32525876839E+02  0.32694643614E+02  0.18735997833E+02  0.50000000000E+02  0.47000000000E+01 0. -1.
         -5    1    3    3    0  501  0.32525876839E+02 -0.32694643614E+02 -0.18735997833E+02  0.50000000000E+02  0.47000000000E+01 0.  1.
</event>
<event>
 5    1  0.9091923E-001  0.1000000E+03  0.7546771E-02  0.1163815E+00
         11   -1    0    0    0    0  0.00000000000E+00  0.00000000000E+00  0.50000000000E+02  0.50000000000E+02  0.00000000000E+00 0.  1.
        -11   -1    0    0    0    0 -0.00000000000E+00 -0.00000000000E+00 -0.50000000000E+02  0.50000000000E+02  0.00000000000E+00 0. -1.
         23    2    1    2    0    0  0.00000000000E+00  0.00000000000E+00  0.00000000000E+00  0.10000000000E+03  0.10000000000E+03 0.  0.
          5    1    3    3  501    0 -0.12068805316E+01 -0.39269397750E+02 -0.30567431030E+02  0.50000000000E+02  0.47000000000E+01 0. -1.
         -5    1    3    3    0  501  0.12068805316E+01  0.39269397750E+02  0.30567431030E+02  0.50000000000E+02  0.47000000000E+01 0.  1.
</event>
<event>
 5    1  0.9091923E-001  0.1000000E+03  0.7546771E-02  0.1163815E+00
         11   -1    0    0    0    0  0.00000000000E+00  0.00000000000E+00  0.50000000000E+02  0.50000000000E+02  0.00000000000E+00 0.  1.
        -11   -1    0    0    0    0 -0.00000000000E+00 -0.00000000000E+00 -0.50000000000E+02  0.50000000000E+02  0.00000000000E+00 0. -1.
         23    2    1    2    0    0  0.00000000000E+00  0.00000000000E+00  0.00000000000E+00  0.10000000000E+03  0.10000000000E+03 0.  0.
          5    1    3    3  501    0  0.45907144335E+01  0.46429007078E+02  0.17354614452E+02  0.50000000000E+02  0.47000000000E+01 0.  1.
         -5    1    3    3    0  501 -0.45907144335E+01 -0.46429007078E+02 -0.17354614452E+02  0.50000000000E+02  0.47000000000E+01 0. -1.
</event>
<event>
 5    1  0.9091923E-001  0.1000000E+03  0.7546771E-02  0.1163815E+00
         11   -1    0    0    0    0  0.00000000000E+00  0.00000000000E+00  0.50000000000E+02  0.50000000000E+02  0.00000000000E+00 0.  1.
        -11   -1    0    0    0    0 -0.00000000000E+00 -0.00000000000E+00 -0.50000000000E+02  0.50000000000E+02  0.00000000000E+00 0. -1.
         23    2    1    2    0    0  0.00000000000E+00  0.00000000000E+00  0.00000000000E+00  0.10000000000E+03  0.10000000000E+03 0.  0.
          5    1    3    3  501    0  0.22686559706E+02  0.10739055637E+02 -0.42987238720E+02  0.50000000000E+02  0.47000000000E+01 0. -1.
         -5    1    3    3    0  501 -0.22686559706E+02 -0.10739055637E+02  0.42987238720E+02  0.50000000000E+02  0.47000000000E+01 0.  1.
</event>
<event>
 5    1  0.9091923E-001  0.1000000E+03  0.7546771E-02  0.1163815E+00
         11   -1    0    0    0    0  0.00000000000E+00  0.00000000000E+00  0.50000000000E+02  0.50000000000E+02  0.00000000000E+00 0. -1.
        -11   -1    0    0    0    0 -0.00000000000E+00 -0.00000000000E+00 -0.50000000000E+02  0.50000000000E+02  0.00000000000E+00 0.  1.
         23    2    1    2    0    0  0.00000000000E+00  0.00000000000E+00  0.00000000000E+00  0.10000000000E+03  0.10000000000E+03 0.  0.
          5    1    3    3  501    0 -0.44012293917E+02 -0.20493401301E+02 -0.10993110899E+02  0.50000000000E+02  0.47000000000E+01 0. -1.
         -5    1    3    3    0  501  0.44012293917E+02  0.20493401301E+02  0.10993110899E+02  0.50000000000E+02  0.47000000000E+01 0.  1.
</event>
<event>
 5    1  0.9091923E-001  0.1000000E+03  0.7546771E-02  0.1163815E+00
         11   -1    0    0    0    0  0.00000000000E+00  0.00000000000E+00  0.50000000000E+02  0.50000000000E+02  0.00000000000E+00 0. -1.
        -11   -1    0    0    0    0 -0.00000000000E+00 -0.00000000000E+00 -0.50000000000E+02  0.50000000000E+02  0.00000000000E+00 0.  1.
         23    2    1    2    0    0  0.00000000000E+00  0.00000000000E+00  0.00000000000E+00  0.10000000000E+03  0.10000000000E+03 0.  0.
          5    1    3    3  501    0  0.30020856706E+02  0.37884592254E+02  0.11891838898E+02  0.50000000000E+02  0.47000000000E+01 0. -1.
         -5    1    3    3    0  501 -0.30020856706E+02 -0.37884592254E+02 -0.11891838898E+02  0.50000000000E+02  0.47000000000E+01 0.  1.
</event>
<event>
 5    1  0.9091923E-001  0.1000000E+03  0.7546771E-02  0.1163815E+00
         11   -1    0    0    0    0  0.00000000000E+00  0.00000000000E+00  0.50000000000E+02  0.50000000000E+02  0.00000000000E+00 0. -1.
        -11   -1    0    0    0    0 -0.00000000000E+00 -0.00000000000E+00 -0.50000000000E+02  0.50000000000E+02  0.00000000000E+00 0.  1.
         23    2    1    2    0    0  0.00000000000E+00  0.00000000000E+00  0.00000000000E+00  0.10000000000E+03  0.10000000000E+03 0.  0.
          5    1    3    3  501    0 -0.13332299619E+02  0.66406081794E+01  0.47498022168E+02  0.50000000000E+02  0.47000000000E+01 0. -1.
         -5    1    3    3    0  501  0.13332299619E+02 -0.66406081794E+01 -0.47498022168E+02  0.50000000000E+02  0.47000000000E+01 0.  1.
</event>
<event>
 5    1  0.9091923E-001  0.1000000E+03  0.7546771E-02  0.1163815E+00
         11   -1    0    0    0    0  0.00000000000E+00  0.00000000000E+00  0.50000000000E+02  0.50000000000E+02  0.00000000000E+00 0.  1.
        -11   -1    0    0    0    0 -0.00000000000E+00 -0.00000000000E+00 -0.50000000000E+02  0.50000000000E+02  0.00000000000E+00 0. -1.
         23    2    1    2    0    0  0.00000000000E+00  0.00000000000E+00  0.00000000000E+00  0.10000000000E+03  0.10000000000E+03 0.  0.
          5    1    3    3  501    0 -0.44366825452E+02 -0.21530746643E+02  0.67765587398E+01  0.50000000000E+02  0.47000000000E+01 0. -1.
         -5    1    3    3    0  501  0.44366825452E+02  0.21530746643E+02 -0.67765587398E+01  0.50000000000E+02  0.47000000000E+01 0.  1.
</event>
<event>
 5    1  0.9091923E-001  0.1000000E+03  0.7546771E-02  0.1163815E+00
         11   -1    0    0    0    0  0.00000000000E+00  0.00000000000E+00  0.50000000000E+02  0.50000000000E+02  0.00000000000E+00 0.  1.
        -11   -1    0    0    0    0 -0.00000000000E+00 -0.00000000000E+00 -0.50000000000E+02  0.50000000000E+02  0.00000000000E+00 0. -1.
         23    2    1    2    0    0  0.00000000000E+00  0.00000000000E+00  0.00000000000E+00  0.10000000000E+03  0.10000000000E+03 0.  0.
          5    1    3    3  501    0  0.36781948366E+02 -0.10017485947E+02 -0.32010127299E+02  0.50000000000E+02  0.47000000000E+01 0. -1.
         -5    1    3    3    0  501 -0.36781948366E+02  0.10017485947E+02  0.32010127299E+02  0.50000000000E+02  0.47000000000E+01 0.  1.
</event>
<event>
 5    1  0.9091923E-001  0.1000000E+03  0.7546771E-02  0.1163815E+00
         11   -1    0    0    0    0  0.00000000000E+00  0.00000000000E+00  0.50000000000E+02  0.50000000000E+02  0.00000000000E+00 0. -1.
        -11   -1    0    0    0    0 -0.00000000000E+00 -0.00000000000E+00 -0.50000000000E+02  0.50000000000E+02  0.00000000000E+00 0.  1.
         23    2    1    2    0    0  0.00000000000E+00  0.00000000000E+00  0.00000000000E+00  0.10000000000E+03  0.10000000000E+03 0.  0.
          5    1    3    3  501    0 -0.46364080312E+00  0.40880867214E+01  0.49608291486E+02  0.50000000000E+02  0.47000000000E+01 0. -1.
         -5    1    3    3    0  501  0.46364080312E+00 -0.40880867214E+01 -0.49608291486E+02  0.50000000000E+02  0.47000000000E+01 0.  1.
</event>
<event>
 5    1  0.9091923E-001  0.1000000E+03  0.7546771E-02  0.1163815E+00
         11   -1    0    0    0    0  0.00000000000E+00  0.00000000000E+00  0.50000000000E+02  0.50000000000E+02  0.00000000000E+00 0. -1.
        -11   -1    0    0    0    0 -0.00000000000E+00 -0.00000000000E+00 -0.50000000000E+02  0.50000000000E+02  0.00000000000E+00 0.  1.
         23    2    1    2    0    0  0.00000000000E+00  0.00000000000E+00  0.00000000000E+00  0.10000000000E+03  0.10000000000E+03 0.  0.
          5    1    3    3  501    0 -0.77084244454E+01  0.86124693954E+01  0.48418132590E+02  0.50000000000E+02  0.47000000000E+01 0. -1.
         -5    1    3    3    0  501  0.77084244454E+01 -0.86124693954E+01 -0.48418132590E+02  0.50000000000E+02  0.47000000000E+01 0.  1.
</event>
<event>
 5    1  0.9091923E-001  0.1000000E+03  0.7546771E-02  0.1163815E+00
         11   -1    0    0    0    0  0.00000000000E+00  0.00000000000E+00  0.50000000000E+02  0.50000000000E+02  0.00000000000E+00 0. -1.
        -11   -1    0    0    0    0 -0.00000000000E+00 -0.00000000000E+00 -0.50000000000E+02  0.50000000000E+02  0.00000000000E+00 0.  1.
         23    2    1    2    0    0  0.00000000000E+00  0.00000000000E+00  0.00000000000E+00  0.10000000000E+03  0.10000000000E+03 0.  0.
          5    1    3    3  501    0  0.49004245583E+02  0.85678507902E+01 -0.17566581115E+01  0.50000000000E+02  0.47000000000E+01 0. -1.
         -5    1    3    3    0  501 -0.49004245583E+02 -0.85678507902E+01  0.17566581115E+01  0.50000000000E+02  0.47000000000E+01 0.  1.
</event>
<event>
 5    1  0.9091923E-001  0.1000000E+03  0.7546771E-02  0.1163815E+00
         11   -1    0    0    0    0  0.00000000000E+00  0.00000000000E+00  0.50000000000E+02  0.50000000000E+02  0.00000000000E+00 0.  1.
        -11   -1    0    0    0    0 -0.00000000000E+00 -0.00000000000E+00 -0.50000000000E+02  0.50000000000E+02  0.00000000000E+00 0. -1.
         23    2    1    2    0    0  0.00000000000E+00  0.00000000000E+00  0.00000000000E+00  0.10000000000E+03  0.10000000000E+03 0.  0.
          5    1    3    3  501    0  0.19826972412E+02 -0.30927791958E+02 -0.33589772990E+02  0.50000000000E+02  0.47000000000E+01 0. -1.
         -5    1    3    3    0  501 -0.19826972412E+02  0.30927791958E+02  0.33589772990E+02  0.50000000000E+02  0.47000000000E+01 0.  1.
</event>
<event>
 5    1  0.9091923E-001  0.1000000E+03  0.7546771E-02  0.1163815E+00
         11   -1    0    0    0    0  0.00000000000E+00  0.00000000000E+00  0.50000000000E+02  0.50000000000E+02  0.00000000000E+00 0. -1.
        -11   -1    0    0    0    0 -0.00000000000E+00 -0.00000000000E+00 -0.50000000000E+02  0.50000000000E+02  0.00000000000E+00 0.  1.
         23    2    1    2    0    0  0.00000000000E+00  0.00000000000E+00  0.00000000000E+00  0.10000000000E+03  0.10000000000E+03 0.  0.
          5    1    3    3  501    0  0.28227728081E+02 -0.34702253459E+01  0.40854166292E+02  0.50000000000E+02  0.47000000000E+01 0. -1.
         -5    1    3    3    0  501 -0.28227728081E+02  0.34702253459E+01 -0.40854166292E+02  0.50000000000E+02  0.47000000000E+01 0.  1.
</event>
<event>
 5    1  0.9091923E-001  0.1000000E+03  0.7546771E-02  0.1163815E+00
         11   -1    0    0    0    0  0.00000000000E+00  0.00000000000E+00  0.50000000000E+02  0.50000000000E+02  0.00000000000E+00 0. -1.
        -11   -1    0    0    0    0 -0.00000000000E+00 -0.00000000000E+00 -0.50000000000E+02  0.50000000000E+02  0.00000000000E+00 0.  1.
         23    2    1    2    0    0  0.00000000000E+00  0.00000000000E+00  0.00000000000E+00  0.10000000000E+03  0.10000000000E+03 0.  0.
          5    1    3    3  501    0  0.27350498660E+02 -0.91239304123E+01  0.40578493280E+02  0.50000000000E+02  0.47000000000E+01 0. -1.
         -5    1    3    3    0  501 -0.27350498660E+02  0.91239304123E+01 -0.40578493280E+02  0.50000000000E+02  0.47000000000E+01 0.  1.
</event>
<event>
 5    1  0.9091923E-001  0.1000000E+03  0.7546771E-02  0.1163815E+00
         11   -1    0    0    0    0  0.00000000000E+00  0.00000000000E+00  0.50000000000E+02  0.50000000000E+02  0.00000000000E+00 0. -1.
        -11   -1    0    0    0    0 -0.00000000000E+00 -0.00000000000E+00 -0.50000000000E+02  0.50000000000E+02  0.00000000000E+00 0.  1.
         23    2    1    2    0    0  0.00000000000E+00  0.00000000000E+00  0.00000000000E+00  0.10000000000E+03  0.10000000000E+03 0.  0.
          5    1    3    3  501    0  0.14961083472E+02  0.40840378176E+02  0.24210317880E+02  0.50000000000E+02  0.47000000000E+01 0. -1.
         -5    1    3    3    0  501 -0.14961083472E+02 -0.40840378176E+02 -0.24210317880E+02  0.50000000000E+02  0.47000000000E+01 0.  1.
</event>
<event>
 5    1  0.9091923E-001  0.1000000E+03  0.7546771E-02  0.1163815E+00
         11   -1    0    0    0    0  0.00000000000E+00  0.00000000000E+00  0.50000000000E+02  0.50000000000E+02  0.00000000000E+00 0. -1.
        -11   -1    0    0    0    0 -0.00000000000E+00 -0.00000000000E+00 -0.50000000000E+02  0.50000000000E+02  0.00000000000E+00 0.  1.
         23    2    1    2    0    0  0.00000000000E+00  0.00000000000E+00  0.00000000000E+00  0.10000000000E+03  0.10000000000E+03 0.  0.
          5    1    3    3  501    0 -0.42097046432E+02 -0.18588997739E+02  0.18978878911E+02  0.50000000000E+02  0.47000000000E+01 0. -1.
         -5    1    3    3    0  501  0.42097046432E+02  0.18588997739E+02 -0.18978878911E+02  0.50000000000E+02  0.47000000000E+01 0.  1.
</event>
<event>
 5    1  0.9091923E-001  0.1000000E+03  0.7546771E-02  0.1163815E+00
         11   -1    0    0    0    0  0.00000000000E+00  0.00000000000E+00  0.50000000000E+02  0.50000000000E+02  0.00000000000E+00 0. -1.
        -11   -1    0    0    0    0 -0.00000000000E+00 -0.00000000000E+00 -0.50000000000E+02  0.50000000000E+02  0.00000000000E+00 0.  1.
         23    2    1    2    0    0  0.00000000000E+00  0.00000000000E+00  0.00000000000E+00  0.10000000000E+03  0.10000000000E+03 0.  0.
          5    1    3    3  501    0 -0.14644378945E+02 -0.25020052187E+02  0.40465406879E+02  0.50000000000E+02  0.47000000000E+01 0. -1.
         -5    1    3    3    0  501  0.14644378945E+02  0.25020052187E+02 -0.40465406879E+02  0.50000000000E+02  0.47000000000E+01 0.  1.
</event>
<event>
 5    1  0.9091923E-001  0.1000000E+03  0.7546771E-02  0.1163815E+00
         11   -1    0    0    0    0  0.00000000000E+00  0.00000000000E+00  0.50000000000E+02  0.50000000000E+02  0.00000000000E+00 0. -1.
        -11   -1    0    0    0    0 -0.00000000000E+00 -0.00000000000E+00 -0.50000000000E+02  0.50000000000E+02  0.00000000000E+00 0.  1.
         23    2    1    2    0    0  0.00000000000E+00  0.00000000000E+00  0.00000000000E+00  0.10000000000E+03  0.10000000000E+03 0.  0.
          5    1    3    3  501    0 -0.41944699761E+02  0.36833132199E+01  0.26551560513E+02  0.50000000000E+02  0.47000000000E+01 0. -1.
         -5    1    3    3    0  501  0.41944699761E+02 -0.36833132199E+01 -0.26551560513E+02  0.50000000000E+02  0.47000000000E+01 0.  1.
</event>
<event>
 5    1  0.9091923E-001  0.1000000E+03  0.7546771E-02  0.1163815E+00
         11   -1    0    0    0    0  0.00000000000E+00  0.00000000000E+00  0.50000000000E+02  0.50000000000E+02  0.00000000000E+00 0. -1.
        -11   -1    0    0    0    0 -0.00000000000E+00 -0.00000000000E+00 -0.50000000000E+02  0.50000000000E+02  0.00000000000E+00 0.  1.
         23    2    1    2    0    0  0.00000000000E+00  0.00000000000E+00  0.00000000000E+00  0.10000000000E+03  0.10000000000E+03 0.  0.
          5    1    3    3  501    0 -0.19000812138E+02 -0.29190374639E+02  0.35564043170E+02  0.50000000000E+02  0.47000000000E+01 0. -1.
         -5    1    3    3    0  501  0.19000812138E+02  0.29190374639E+02 -0.35564043170E+02  0.50000000000E+02  0.47000000000E+01 0.  1.
</event>
<event>
 5    1  0.9091923E-001  0.1000000E+03  0.7546771E-02  0.1163815E+00
         11   -1    0    0    0    0  0.00000000000E+00  0.00000000000E+00  0.50000000000E+02  0.50000000000E+02  0.00000000000E+00 0. -1.
        -11   -1    0    0    0    0 -0.00000000000E+00 -0.00000000000E+00 -0.50000000000E+02  0.50000000000E+02  0.00000000000E+00 0.  1.
         23    2    1    2    0    0  0.00000000000E+00  0.00000000000E+00  0.00000000000E+00  0.10000000000E+03  0.10000000000E+03 0.  0.
          5    1    3    3  501    0 -0.48777953674E+02 -0.22648399259E+00 -0.99282395417E+01  0.50000000000E+02  0.47000000000E+01 0. -1.
         -5    1    3    3    0  501  0.48777953674E+02  0.22648399259E+00  0.99282395417E+01  0.50000000000E+02  0.47000000000E+01 0.  1.
</event>
<event>
 5    1  0.9091923E-001  0.1000000E+03  0.7546771E-02  0.1163815E+00
         11   -1    0    0    0    0  0.00000000000E+00  0.00000000000E+00  0.50000000000E+02  0.50000000000E+02  0.00000000000E+00 0.  1.
        -11   -1    0    0    0    0 -0.00000000000E+00 -0.00000000000E+00 -0.50000000000E+02  0.50000000000E+02  0.00000000000E+00 0. -1.
         23    2    1    2    0    0  0.00000000000E+00  0.00000000000E+00  0.00000000000E+00  0.10000000000E+03  0.10000000000E+03 0.  0.
          5    1    3    3  501    0  0.46053786402E+02  0.37204082137E+01 -0.18523426268E+02  0.50000000000E+02  0.47000000000E+01 0. -1.
         -5    1    3    3    0  501 -0.46053786402E+02 -0.37204082137E+01  0.18523426268E+02  0.50000000000E+02  0.47000000000E+01 0.  1.
</event>
<event>
 5    1  0.9091923E-001  0.1000000E+03  0.7546771E-02  0.1163815E+00
         11   -1    0    0    0    0  0.00000000000E+00  0.00000000000E+00  0.50000000000E+02  0.50000000000E+02  0.00000000000E+00 0. -1.
        -11   -1    0    0    0    0 -0.00000000000E+00 -0.00000000000E+00 -0.50000000000E+02  0.50000000000E+02  0.00000000000E+00 0.  1.
         23    2    1    2    0    0  0.00000000000E+00  0.00000000000E+00  0.00000000000E+00  0.10000000000E+03  0.10000000000E+03 0.  0.
          5    1    3    3  501    0  0.47314568428E+02 -0.15109898898E+02 -0.33064436726E+01  0.50000000000E+02  0.47000000000E+01 0. -1.
         -5    1    3    3    0  501 -0.47314568428E+02  0.15109898898E+02  0.33064436726E+01  0.50000000000E+02  0.47000000000E+01 0.  1.
</event>
<event>
 5    1  0.9091923E-001  0.1000000E+03  0.7546771E-02  0.1163815E+00
         11   -1    0    0    0    0  0.00000000000E+00  0.00000000000E+00  0.50000000000E+02  0.50000000000E+02  0.00000000000E+00 0. -1.
        -11   -1    0    0    0    0 -0.00000000000E+00 -0.00000000000E+00 -0.50000000000E+02  0.50000000000E+02  0.00000000000E+00 0.  1.
         23    2    1    2    0    0  0.00000000000E+00  0.00000000000E+00  0.00000000000E+00  0.10000000000E+03  0.10000000000E+03 0.  0.
          5    1    3    3  501    0 -0.43077640927E+02 -0.18589669839E+02  0.16632829809E+02  0.50000000000E+02  0.47000000000E+01 0. -1.
         -5    1    3    3    0  501  0.43077640927E+02  0.18589669839E+02 -0.16632829809E+02  0.50000000000E+02  0.47000000000E+01 0.  1.
</event>
<event>
 5    1  0.9091923E-001  0.1000000E+03  0.7546771E-02  0.1163815E+00
         11   -1    0    0    0    0  0.00000000000E+00  0.00000000000E+00  0.50000000000E+02  0.50000000000E+02  0.00000000000E+00 0. -1.
        -11   -1    0    0    0    0 -0.00000000000E+00 -0.00000000000E+00 -0.50000000000E+02  0.50000000000E+02  0.00000000000E+00 0.  1.
         23    2    1    2    0    0  0.00000000000E+00  0.00000000000E+00  0.00000000000E+00  0.10000000000E+03  0.10000000000E+03 0.  0.
          5    1    3    3  501    0 -0.23455744218E+02 -0.21034435549E+02  0.38539467878E+02  0.50000000000E+02  0.47000000000E+01 0. -1.
         -5    1    3    3    0  501  0.23455744218E+02  0.21034435549E+02 -0.38539467878E+02  0.50000000000E+02  0.47000000000E+01 0.  1.
</event>
<event>
 5    1  0.9091923E-001  0.1000000E+03  0.7546771E-02  0.1163815E+00
         11   -1    0    0    0    0  0.00000000000E+00  0.00000000000E+00  0.50000000000E+02  0.50000000000E+02  0.00000000000E+00 0. -1.
        -11   -1    0    0    0    0 -0.00000000000E+00 -0.00000000000E+00 -0.50000000000E+02  0.50000000000E+02  0.00000000000E+00 0.  1.
         23    2    1    2    0    0  0.00000000000E+00  0.00000000000E+00  0.00000000000E+00  0.10000000000E+03  0.10000000000E+03 0.  0.
          5    1    3    3  501    0 -0.14667108536E+02  0.17862612450E+02  0.44087560646E+02  0.50000000000E+02  0.47000000000E+01 0. -1.
         -5    1    3    3    0  501  0.14667108536E+02 -0.17862612450E+02 -0.44087560646E+02  0.50000000000E+02  0.47000000000E+01 0.  1.
</event>
<event>
 5    1  0.9091923E-001  0.1000000E+03  0.7546771E-02  0.1163815E+00
         11   -1    0    0    0    0  0.00000000000E+00  0.00000000000E+00  0.50000000000E+02  0.50000000000E+02  0.00000000000E+00 0. -1.
        -11   -1    0    0    0    0 -0.00000000000E+00 -0.00000000000E+00 -0.50000000000E+02  0.50000000000E+02  0.00000000000E+00 0.  1.
         23    2    1    2    0    0  0.00000000000E+00  0.00000000000E+00  0.00000000000E+00  0.10000000000E+03  0.10000000000E+03 0.  0.
          5    1    3    3  501    0  0.25698594788E+02  0.16798414824E+01  0.42598947857E+02  0.50000000000E+02  0.47000000000E+01 0. -1.
         -5    1    3    3    0  501 -0.25698594788E+02 -0.16798414824E+01 -0.42598947857E+02  0.50000000000E+02  0.47000000000E+01 0.  1.
</event>
<event>
 5    1  0.9091923E-001  0.1000000E+03  0.7546771E-02  0.1163815E+00
         11   -1    0    0    0    0  0.00000000000E+00  0.00000000000E+00  0.50000000000E+02  0.50000000000E+02  0.00000000000E+00 0. -1.
        -11   -1    0    0    0    0 -0.00000000000E+00 -0.00000000000E+00 -0.50000000000E+02  0.50000000000E+02  0.00000000000E+00 0.  1.
         23    2    1    2    0    0  0.00000000000E+00  0.00000000000E+00  0.00000000000E+00  0.10000000000E+03  0.10000000000E+03 0.  0.
          5    1    3    3  501    0  0.45643694010E+02  0.18405180470E+02  0.74707783398E+01  0.50000000000E+02  0.47000000000E+01 0. -1.
         -5    1    3    3    0  501 -0.45643694010E+02 -0.18405180470E+02 -0.74707783398E+01  0.50000000000E+02  0.47000000000E+01 0.  1.
</event>
<event>
 5    1  0.9091923E-001  0.1000000E+03  0.7546771E-02  0.1163815E+00
         11   -1    0    0    0    0  0.00000000000E+00  0.00000000000E+00  0.50000000000E+02  0.50000000000E+02  0.00000000000E+00 0. -1.
        -11   -1    0    0    0    0 -0.00000000000E+00 -0.00000000000E+00 -0.50000000000E+02  0.50000000000E+02  0.00000000000E+00 0.  1.
         23    2    1    2    0    0  0.00000000000E+00  0.00000000000E+00  0.00000000000E+00  0.10000000000E+03  0.10000000000E+03 0.  0.
          5    1    3    3  501    0  0.41898817320E+02  0.26531840522E+02 -0.42965737175E+01  0.50000000000E+02  0.47000000000E+01 0. -1.
         -5    1    3    3    0  501 -0.41898817320E+02 -0.26531840522E+02  0.42965737175E+01  0.50000000000E+02  0.47000000000E+01 0.  1.
</event>
<event>
 5    1  0.9091923E-001  0.1000000E+03  0.7546771E-02  0.1163815E+00
         11   -1    0    0    0    0  0.00000000000E+00  0.00000000000E+00  0.50000000000E+02  0.50000000000E+02  0.00000000000E+00 0. -1.
        -11   -1    0    0    0    0 -0.00000000000E+00 -0.00000000000E+00 -0.50000000000E+02  0.50000000000E+02  0.00000000000E+00 0.  1.
         23    2    1    2    0    0  0.00000000000E+00  0.00000000000E+00  0.00000000000E+00  0.10000000000E+03  0.10000000000E+03 0.  0.
          5    1    3    3  501    0  0.39279783093E+02  0.24638078321E+02  0.18110045192E+02  0.50000000000E+02  0.47000000000E+01 0. -1.
         -5    1    3    3    0  501 -0.39279783093E+02 -0.24638078321E+02 -0.18110045192E+02  0.50000000000E+02  0.47000000000E+01 0.  1.
</event>
<event>
 5    1  0.9091923E-001  0.1000000E+03  0.7546771E-02  0.1163815E+00
         11   -1    0    0    0    0  0.00000000000E+00  0.00000000000E+00  0.50000000000E+02  0.50000000000E+02  0.00000000000E+00 0.  1.
        -11   -1    0    0    0    0 -0.00000000000E+00 -0.00000000000E+00 -0.50000000000E+02  0.50000000000E+02  0.00000000000E+00 0. -1.
         23    2    1    2    0    0  0.00000000000E+00  0.00000000000E+00  0.00000000000E+00  0.10000000000E+03  0.10000000000E+03 0.  0.
          5    1    3    3  501    0 -0.34221743177E+02 -0.30261560878E+02 -0.19774231393E+02  0.50000000000E+02  0.47000000000E+01 0. -1.
         -5    1    3    3    0  501  0.34221743177E+02  0.30261560878E+02  0.19774231393E+02  0.50000000000E+02  0.47000000000E+01 0.  1.
</event>
<event>
 5    1  0.9091923E-001  0.1000000E+03  0.7546771E-02  0.1163815E+00
         11   -1    0    0    0    0  0.00000000000E+00  0.00000000000E+00  0.50000000000E+02  0.50000000000E+02  0.00000000000E+00 0.  1.
        -11   -1    0    0    0    0 -0.00000000000E+00 -0.00000000000E+00 -0.50000000000E+02  0.50000000000E+02  0.00000000000E+00 0. -1.
         23    2    1    2    0    0  0.00000000000E+00  0.00000000000E+00  0.00000000000E+00  0.10000000000E+03  0.10000000000E+03 0.  0.
          5    1    3    3  501    0 -0.35690122817E+02 -0.90416998647E+01  0.33501832739E+02  0.50000000000E+02  0.47000000000E+01 0.  1.
         -5    1    3    3    0  501  0.35690122817E+02  0.90416998647E+01 -0.33501832739E+02  0.50000000000E+02  0.47000000000E+01 0. -1.
</event>
<event>
 5    1  0.9091923E-001  0.1000000E+03  0.7546771E-02  0.1163815E+00
         11   -1    0    0    0    0  0.00000000000E+00  0.00000000000E+00  0.50000000000E+02  0.50000000000E+02  0.00000000000E+00 0. -1.
        -11   -1    0    0    0    0 -0.00000000000E+00 -0.00000000000E+00 -0.50000000000E+02  0.50000000000E+02  0.00000000000E+00 0.  1.
         23    2    1    2    0    0  0.00000000000E+00  0.00000000000E+00  0.00000000000E+00  0.10000000000E+03  0.10000000000E+03 0.  0.
          5    1    3    3  501    0 -0.42247633441E+02 -0.17249614506E+01  0.26269221089E+02  0.50000000000E+02  0.47000000000E+01 0. -1.
         -5    1    3    3    0  501  0.42247633441E+02  0.17249614506E+01 -0.26269221089E+02  0.50000000000E+02  0.47000000000E+01 0.  1.
</event>
<event>
 5    1  0.9091923E-001  0.1000000E+03  0.7546771E-02  0.1163815E+00
         11   -1    0    0    0    0  0.00000000000E+00  0.00000000000E+00  0.50000000000E+02  0.50000000000E+02  0.00000000000E+00 0. -1.
        -11   -1    0    0    0    0 -0.00000000000E+00 -0.00000000000E+00 -0.50000000000E+02  0.50000000000E+02  0.00000000000E+00 0.  1.
         23    2    1    2    0    0  0.00000000000E+00  0.00000000000E+00  0.00000000000E+00  0.10000000000E+03  0.10000000000E+03 0.  0.
          5    1    3    3  501    0 -0.42667183820E+02  0.24898429516E+02  0.61228777961E+01  0.50000000000E+02  0.47000000000E+01 0. -1.
         -5    1    3    3    0  501  0.42667183820E+02 -0.24898429516E+02 -0.61228777961E+01  0.50000000000E+02  0.47000000000E+01 0.  1.
</event>
<event>
 5    1  0.9091923E-001  0.1000000E+03  0.7546771E-02  0.1163815E+00
         11   -1    0    0    0    0  0.00000000000E+00  0.00000000000E+00  0.50000000000E+02  0.50000000000E+02  0.00000000000E+00 0. -1.
        -11   -1    0    0    0    0 -0.00000000000E+00 -0.00000000000E+00 -0.50000000000E+02  0.50000000000E+02  0.00000000000E+00 0.  1.
         23    2    1    2    0    0  0.00000000000E+00  0.00000000000E+00  0.00000000000E+00  0.10000000000E+03  0.10000000000E+03 0.  0.
          5    1    3    3  501    0  0.29984099416E+02 -0.39374452861E+01  0.39539351371E+02  0.50000000000E+02  0.47000000000E+01 0. -1.
         -5    1    3    3    0  501 -0.29984099416E+02  0.39374452861E+01 -0.39539351371E+02  0.50000000000E+02  0.47000000000E+01 0.  1.
</event>
<event>
 5    1  0.9091923E-001  0.1000000E+03  0.7546771E-02  0.1163815E+00
         11   -1    0    0    0    0  0.00000000000E+00  0.00000000000E+00  0.50000000000E+02  0.50000000000E+02  0.00000000000E+00 0. -1.
        -11   -1    0    0    0    0 -0.00000000000E+00 -0.00000000000E+00 -0.50000000000E+02  0.50000000000E+02  0.00000000000E+00 0.  1.
         23    2    1    2    0    0  0.00000000000E+00  0.00000000000E+00  0.00000000000E+00  0.10000000000E+03  0.10000000000E+03 0.  0.
          5    1    3    3  501    0  0.15822551424E+02 -0.39026284725E+01  0.47035373470E+02  0.50000000000E+02  0.47000000000E+01 0. -1.
         -5    1    3    3    0  501 -0.15822551424E+02  0.39026284725E+01 -0.47035373470E+02  0.50000000000E+02  0.47000000000E+01 0.  1.
</event>
<event>
 5    1  0.9091923E-001  0.1000000E+03  0.7546771E-02  0.1163815E+00
         11   -1    0    0    0    0  0.00000000000E+00  0.00000000000E+00  0.50000000000E+02  0.50000000000E+02  0.00000000000E+00 0. -1.
        -11   -1    0    0    0    0 -0.00000000000E+00 -0.00000000000E+00 -0.50000000000E+02  0.50000000000E+02  0.00000000000E+00 0.  1.
         23    2    1    2    0    0  0.00000000000E+00  0.00000000000E+00  0.00000000000E+00  0.10000000000E+03  0.10000000000E+03 0.  0.
          5    1    3    3  501    0  0.28753839016E+02 -0.32005206219E+02  0.25035844638E+02  0.50000000000E+02  0.47000000000E+01 0. -1.
         -5    1    3    3    0  501 -0.28753839016E+02  0.32005206219E+02 -0.25035844638E+02  0.50000000000E+02  0.47000000000E+01 0.  1.
</event>
<event>
 5    1  0.9091923E-001  0.1000000E+03  0.7546771E-02  0.1163815E+00
         11   -1    0    0    0    0  0.00000000000E+00  0.00000000000E+00  0.50000000000E+02  0.50000000000E+02  0.00000000000E+00 0.  1.
        -11   -1    0    0    0    0 -0.00000000000E+00 -0.00000000000E+00 -0.50000000000E+02  0.50000000000E+02  0.00000000000E+00 0. -1.
         23    2    1    2    0    0  0.00000000000E+00  0.00000000000E+00  0.00000000000E+00  0.10000000000E+03  0.10000000000E+03 0.  0.
          5    1    3    3  501    0  0.49441432429E+02 -0.33489583560E+01  0.47158495836E+01  0.50000000000E+02  0.47000000000E+01 0. -1.
         -5    1    3    3    0  501 -0.49441432429E+02  0.33489583560E+01 -0.47158495836E+01  0.50000000000E+02  0.47000000000E+01 0.  1.
</event>
<event>
 5    1  0.9091923E-001  0.1000000E+03  0.7546771E-02  0.1163815E+00
         11   -1    0    0    0    0  0.00000000000E+00  0.00000000000E+00  0.50000000000E+02  0.50000000000E+02  0.00000000000E+00 0. -1.
        -11   -1    0    0    0    0 -0.00000000000E+00 -0.00000000000E+00 -0.50000000000E+02  0.50000000000E+02  0.00000000000E+00 0.  1.
         23    2    1    2    0    0  0.00000000000E+00  0.00000000000E+00  0.00000000000E+00  0.10000000000E+03  0.10000000000E+03 0.  0.
          5    1    3    3  501    0  0.16161068850E+02  0.47056731410E+02 -0.15472177163E+01  0.50000000000E+02  0.47000000000E+01 0. -1.
         -5    1    3    3    0  501 -0.16161068850E+02 -0.47056731410E+02  0.15472177163E+01  0.50000000000E+02  0.47000000000E+01 0.  1.
</event>
<event>
 5    1  0.9091923E-001  0.1000000E+03  0.7546771E-02  0.1163815E+00
         11   -1    0    0    0    0  0.00000000000E+00  0.00000000000E+00  0.50000000000E+02  0.50000000000E+02  0.00000000000E+00 0. -1.
        -11   -1    0    0    0    0 -0.00000000000E+00 -0.00000000000E+00 -0.50000000000E+02  0.50000000000E+02  0.00000000000E+00 0.  1.
         23    2    1    2    0    0  0.00000000000E+00  0.00000000000E+00  0.00000000000E+00  0.10000000000E+03  0.10000000000E+03 0.  0.
          5    1    3    3  501    0  0.80848219884E+01  0.42746201011E+02  0.24193138542E+02  0.50000000000E+02  0.47000000000E+01 0. -1.
         -5    1    3    3    0  501 -0.80848219884E+01 -0.42746201011E+02 -0.24193138542E+02  0.50000000000E+02  0.47000000000E+01 0.  1.
</event>
<event>
 5    1  0.9091923E-001  0.1000000E+03  0.7546771E-02  0.1163815E+00
         11   -1    0    0    0    0  0.00000000000E+00  0.00000000000E+00  0.50000000000E+02  0.50000000000E+02  0.00000000000E+00 0.  1.
        -11   -1    0    0    0    0 -0.00000000000E+00 -0.00000000000E+00 -0.50000000000E+02  0.50000000000E+02  0.00000000000E+00 0. -1.
         23    2    1    2    0    0  0.00000000000E+00  0.00000000000E+00  0.00000000000E+00  0.10000000000E+03  0.10000000000E+03 0.  0.
          5    1    3    3  501    0 -0.38264436703E+02 -0.28632191078E+02 -0.13926252828E+02  0.50000000000E+02  0.47000000000E+01 0. -1.
         -5    1    3    3    0  501  0.38264436703E+02  0.28632191078E+02  0.13926252828E+02  0.50000000000E+02  0.47000000000E+01 0.  1.
</event>
<event>
 5    1  0.9091923E-001  0.1000000E+03  0.7546771E-02  0.1163815E+00
         11   -1    0    0    0    0  0.00000000000E+00  0.00000000000E+00  0.50000000000E+02  0.50000000000E+02  0.00000000000E+00 0.  1.
        -11   -1    0    0    0    0 -0.00000000000E+00 -0.00000000000E+00 -0.50000000000E+02  0.50000000000E+02  0.00000000000E+00 0. -1.
         23    2    1    2    0    0  0.00000000000E+00  0.00000000000E+00  0.00000000000E+00  0.10000000000E+03  0.10000000000E+03 0.  0.
          5    1    3    3  501    0 -0.11111666844E+02 -0.25353590636E+02 -0.41371926494E+02  0.50000000000E+02  0.47000000000E+01 0. -1.
         -5    1    3    3    0  501  0.11111666844E+02  0.25353590636E+02  0.41371926494E+02  0.50000000000E+02  0.47000000000E+01 0.  1.
</event>
<event>
 5    1  0.9091923E-001  0.1000000E+03  0.7546771E-02  0.1163815E+00
         11   -1    0    0    0    0  0.00000000000E+00  0.00000000000E+00  0.50000000000E+02  0.50000000000E+02  0.00000000000E+00 0.  1.
        -11   -1    0    0    0    0 -0.00000000000E+00 -0.00000000000E+00 -0.50000000000E+02  0.50000000000E+02  0.00000000000E+00 0. -1.
         23    2    1    2    0    0  0.00000000000E+00  0.00000000000E+00  0.00000000000E+00  0.10000000000E+03  0.10000000000E+03 0.  0.
          5    1    3    3  501    0 -0.22101868175E+01  0.84059908109E+01 -0.49013920397E+02  0.50000000000E+02  0.47000000000E+01 0. -1.
         -5    1    3    3    0  501  0.22101868175E+01 -0.84059908109E+01  0.49013920397E+02  0.50000000000E+02  0.47000000000E+01 0.  1.
</event>
<event>
 5    1  0.9091923E-001  0.1000000E+03  0.7546771E-02  0.1163815E+00
         11   -1    0    0    0    0  0.00000000000E+00  0.00000000000E+00  0.50000000000E+02  0.50000000000E+02  0.00000000000E+00 0. -1.
        -11   -1    0    0    0    0 -0.00000000000E+00 -0.00000000000E+00 -0.50000000000E+02  0.50000000000E+02  0.00000000000E+00 0.  1.
         23    2    1    2    0    0  0.00000000000E+00  0.00000000000E+00  0.00000000000E+00  0.10000000000E+03  0.10000000000E+03 0.  0.
          5    1    3    3  501    0 -0.61553104550E+01 -0.49027090934E+02 -0.60304649731E+01  0.50000000000E+02  0.47000000000E+01 0. -1.
         -5    1    3    3    0  501  0.61553104550E+01  0.49027090934E+02  0.60304649731E+01  0.50000000000E+02  0.47000000000E+01 0.  1.
</event>
<event>
 5    1  0.9091923E-001  0.1000000E+03  0.7546771E-02  0.1163815E+00
         11   -1    0    0    0    0  0.00000000000E+00  0.00000000000E+00  0.50000000000E+02  0.50000000000E+02  0.00000000000E+00 0.  1.
        -11   -1    0    0    0    0 -0.00000000000E+00 -0.00000000000E+00 -0.50000000000E+02  0.50000000000E+02  0.00000000000E+00 0. -1.
         23    2    1    2    0    0  0.00000000000E+00  0.00000000000E+00  0.00000000000E+00  0.10000000000E+03  0.10000000000E+03 0.  0.
          5    1    3    3  501    0  0.31704079636E+02  0.35929201131E+02  0.13485319444E+02  0.50000000000E+02  0.47000000000E+01 0. -1.
         -5    1    3    3    0  501 -0.31704079636E+02 -0.35929201131E+02 -0.13485319444E+02  0.50000000000E+02  0.47000000000E+01 0.  1.
</event>
<event>
 5    1  0.9091923E-001  0.1000000E+03  0.7546771E-02  0.1163815E+00
         11   -1    0    0    0    0  0.00000000000E+00  0.00000000000E+00  0.50000000000E+02  0.50000000000E+02  0.00000000000E+00 0. -1.
        -11   -1    0    0    0    0 -0.00000000000E+00 -0.00000000000E+00 -0.50000000000E+02  0.50000000000E+02  0.00000000000E+00 0.  1.
         23    2    1    2    0    0  0.00000000000E+00  0.00000000000E+00  0.00000000000E+00  0.10000000000E+03  0.10000000000E+03 0.  0.
          5    1    3    3  501    0 -0.39720330224E+02  0.29957057519E+02 -0.16673546992E+01  0.50000000000E+02  0.47000000000E+01 0. -1.
         -5    1    3    3    0  501  0.39720330224E+02 -0.29957057519E+02  0.16673546992E+01  0.50000000000E+02  0.47000000000E+01 0.  1.
</event>
<event>
 5    1  0.9091923E-001  0.1000000E+03  0.7546771E-02  0.1163815E+00
         11   -1    0    0    0    0  0.00000000000E+00  0.00000000000E+00  0.50000000000E+02  0.50000000000E+02  0.00000000000E+00 0.  1.
        -11   -1    0    0    0    0 -0.00000000000E+00 -0.00000000000E+00 -0.50000000000E+02  0.50000000000E+02  0.00000000000E+00 0. -1.
         23    2    1    2    0    0  0.00000000000E+00  0.00000000000E+00  0.00000000000E+00  0.10000000000E+03  0.10000000000E+03 0.  0.
          5    1    3    3  501    0  0.35404935583E+02 -0.11265397529E+02 -0.33128407068E+02  0.50000000000E+02  0.47000000000E+01 0. -1.
         -5    1    3    3    0  501 -0.35404935583E+02  0.11265397529E+02  0.33128407068E+02  0.50000000000E+02  0.47000000000E+01 0.  1.
</event>
<event>
 5    1  0.9091923E-001  0.1000000E+03  0.7546771E-02  0.1163815E+00
         11   -1    0    0    0    0  0.00000000000E+00  0.00000000000E+00  0.50000000000E+02  0.50000000000E+02  0.00000000000E+00 0. -1.
        -11   -1    0    0    0    0 -0.00000000000E+00 -0.00000000000E+00 -0.50000000000E+02  0.50000000000E+02  0.00000000000E+00 0.  1.
         23    2    1    2    0    0  0.00000000000E+00  0.00000000000E+00  0.00000000000E+00  0.10000000000E+03  0.10000000000E+03 0.  0.
          5    1    3    3  501    0 -0.45771281288E+02 -0.28266324156E+01  0.19362591729E+02  0.50000000000E+02  0.47000000000E+01 0. -1.
         -5    1    3    3    0  501  0.45771281288E+02  0.28266324156E+01 -0.19362591729E+02  0.50000000000E+02  0.47000000000E+01 0.  1.
</event>
<event>
 5    1  0.9091923E-001  0.1000000E+03  0.7546771E-02  0.1163815E+00
         11   -1    0    0    0    0  0.00000000000E+00  0.00000000000E+00  0.50000000000E+02  0.50000000000E+02  0.00000000000E+00 0.  1.
        -11   -1    0    0    0    0 -0.00000000000E+00 -0.00000000000E+00 -0.50000000000E+02  0.50000000000E+02  0.00000000000E+00 0. -1.
         23    2    1    2    0    0  0.00000000000E+00  0.00000000000E+00  0.00000000000E+00  0.10000000000E+03  0.10000000000E+03 0.  0.
          5    1    3    3  501    0 -0.35721431790E+01 -0.40704428051E+02 -0.28430605518E+02  0.50000000000E+02  0.47000000000E+01 0. -1.
         -5    1    3    3    0  501  0.35721431790E+01  0.40704428051E+02  0.28430605518E+02  0.50000000000E+02  0.47000000000E+01 0.  1.
</event>
<event>
 5    1  0.9091923E-001  0.1000000E+03  0.7546771E-02  0.1163815E+00
         11   -1    0    0    0    0  0.00000000000E+00  0.00000000000E+00  0.50000000000E+02  0.50000000000E+02  0.00000000000E+00 0. -1.
        -11   -1    0    0    0    0 -0.00000000000E+00 -0.00000000000E+00 -0.50000000000E+02  0.50000000000E+02  0.00000000000E+00 0.  1.
         23    2    1    2    0    0  0.00000000000E+00  0.00000000000E+00  0.00000000000E+00  0.10000000000E+03  0.10000000000E+03 0.  0.
          5    1    3    3  501    0 -0.11252967094E+02  0.33603193173E+02 -0.34958634701E+02  0.50000000000E+02  0.47000000000E+01 0. -1.
         -5    1    3    3    0  501  0.11252967094E+02 -0.33603193173E+02  0.34958634701E+02  0.50000000000E+02  0.47000000000E+01 0.  1.
</event>
<event>
 5    1  0.9091923E-001  0.1000000E+03  0.7546771E-02  0.1163815E+00
         11   -1    0    0    0    0  0.00000000000E+00  0.00000000000E+00  0.50000000000E+02  0.50000000000E+02  0.00000000000E+00 0.  1.
        -11   -1    0    0    0    0 -0.00000000000E+00 -0.00000000000E+00 -0.50000000000E+02  0.50000000000E+02  0.00000000000E+00 0. -1.
         23    2    1    2    0    0  0.00000000000E+00  0.00000000000E+00  0.00000000000E+00  0.10000000000E+03  0.10000000000E+03 0.  0.
          5    1    3    3  501    0 -0.75074283760E+01 -0.80980039881E+01 -0.48538344127E+02  0.50000000000E+02  0.47000000000E+01 0. -1.
         -5    1    3    3    0  501  0.75074283760E+01  0.80980039881E+01  0.48538344127E+02  0.50000000000E+02  0.47000000000E+01 0.  1.
</event>
<event>
 5    1  0.9091923E-001  0.1000000E+03  0.7546771E-02  0.1163815E+00
         11   -1    0    0    0    0  0.00000000000E+00  0.00000000000E+00  0.50000000000E+02  0.50000000000E+02  0.00000000000E+00 0. -1.
        -11   -1    0    0    0    0 -0.00000000000E+00 -0.00000000000E+00 -0.50000000000E+02  0.50000000000E+02  0.00000000000E+00 0.  1.
         23    2    1    2    0    0  0.00000000000E+00  0.00000000000E+00  0.00000000000E+00  0.10000000000E+03  0.10000000000E+03 0.  0.
          5    1    3    3  501    0 -0.18260931454E+02  0.39065736119E+02  0.24865973617E+02  0.50000000000E+02  0.47000000000E+01 0. -1.
         -5    1    3    3    0  501  0.18260931454E+02 -0.39065736119E+02 -0.24865973617E+02  0.50000000000E+02  0.47000000000E+01 0.  1.
</event>
<event>
 5    1  0.9091923E-001  0.1000000E+03  0.7546771E-02  0.1163815E+00
         11   -1    0    0    0    0  0.00000000000E+00  0.00000000000E+00  0.50000000000E+02  0.50000000000E+02  0.00000000000E+00 0. -1.
        -11   -1    0    0    0    0 -0.00000000000E+00 -0.00000000000E+00 -0.50000000000E+02  0.50000000000E+02  0.00000000000E+00 0.  1.
         23    2    1    2    0    0  0.00000000000E+00  0.00000000000E+00  0.00000000000E+00  0.10000000000E+03  0.10000000000E+03 0.  0.
          5    1    3    3  501    0  0.30667708763E+02 -0.39196285383E+02 -0.10260854855E+01  0.50000000000E+02  0.47000000000E+01 0. -1.
         -5    1    3    3    0  501 -0.30667708763E+02  0.39196285383E+02  0.10260854855E+01  0.50000000000E+02  0.47000000000E+01 0.  1.
</event>
<event>
 5    1  0.9091923E-001  0.1000000E+03  0.7546771E-02  0.1163815E+00
         11   -1    0    0    0    0  0.00000000000E+00  0.00000000000E+00  0.50000000000E+02  0.50000000000E+02  0.00000000000E+00 0.  1.
        -11   -1    0    0    0    0 -0.00000000000E+00 -0.00000000000E+00 -0.50000000000E+02  0.50000000000E+02  0.00000000000E+00 0. -1.
         23    2    1    2    0    0  0.00000000000E+00  0.00000000000E+00  0.00000000000E+00  0.10000000000E+03  0.10000000000E+03 0.  0.
          5    1    3    3  501    0  0.67786996110E+00  0.11980073610E+02 -0.48310747548E+02  0.50000000000E+02  0.47000000000E+01 0. -1.
         -5    1    3    3    0  501 -0.67786996110E+00 -0.11980073610E+02  0.48310747548E+02  0.50000000000E+02  0.47000000000E+01 0.  1.
</event>
<event>
 5    1  0.9091923E-001  0.1000000E+03  0.7546771E-02  0.1163815E+00
         11   -1    0    0    0    0  0.00000000000E+00  0.00000000000E+00  0.50000000000E+02  0.50000000000E+02  0.00000000000E+00 0. -1.
        -11   -1    0    0    0    0 -0.00000000000E+00 -0.00000000000E+00 -0.50000000000E+02  0.50000000000E+02  0.00000000000E+00 0.  1.
         23    2    1    2    0    0  0.00000000000E+00  0.00000000000E+00  0.00000000000E+00  0.10000000000E+03  0.10000000000E+03 0.  0.
          5    1    3    3  501    0  0.83103360510E+01  0.11816305174E+02  0.47636364752E+02  0.50000000000E+02  0.47000000000E+01 0. -1.
         -5    1    3    3    0  501 -0.83103360510E+01 -0.11816305174E+02 -0.47636364752E+02  0.50000000000E+02  0.47000000000E+01 0.  1.
</event>
<event>
 5    1  0.9091923E-001  0.1000000E+03  0.7546771E-02  0.1163815E+00
         11   -1    0    0    0    0  0.00000000000E+00  0.00000000000E+00  0.50000000000E+02  0.50000000000E+02  0.00000000000E+00 0. -1.
        -11   -1    0    0    0    0 -0.00000000000E+00 -0.00000000000E+00 -0.50000000000E+02  0.50000000000E+02  0.00000000000E+00 0.  1.
         23    2    1    2    0    0  0.00000000000E+00  0.00000000000E+00  0.00000000000E+00  0.10000000000E+03  0.10000000000E+03 0.  0.
          5    1    3    3  501    0 -0.84236322352E+01 -0.48244270580E+02  0.89130677182E+01  0.50000000000E+02  0.47000000000E+01 0. -1.
         -5    1    3    3    0  501  0.84236322352E+01  0.48244270580E+02 -0.89130677182E+01  0.50000000000E+02  0.47000000000E+01 0.  1.
</event>
<event>
 5    1  0.9091923E-001  0.1000000E+03  0.7546771E-02  0.1163815E+00
         11   -1    0    0    0    0  0.00000000000E+00  0.00000000000E+00  0.50000000000E+02  0.50000000000E+02  0.00000000000E+00 0.  1.
        -11   -1    0    0    0    0 -0.00000000000E+00 -0.00000000000E+00 -0.50000000000E+02  0.50000000000E+02  0.00000000000E+00 0. -1.
         23    2    1    2    0    0  0.00000000000E+00  0.00000000000E+00  0.00000000000E+00  0.10000000000E+03  0.10000000000E+03 0.  0.
          5    1    3    3  501    0  0.41758100967E+02  0.85874475791E+00 -0.27081978529E+02  0.50000000000E+02  0.47000000000E+01 0. -1.
         -5    1    3    3    0  501 -0.41758100967E+02 -0.85874475791E+00  0.27081978529E+02  0.50000000000E+02  0.47000000000E+01 0.  1.
</event>
<event>
 5    1  0.9091923E-001  0.1000000E+03  0.7546771E-02  0.1163815E+00
         11   -1    0    0    0    0  0.00000000000E+00  0.00000000000E+00  0.50000000000E+02  0.50000000000E+02  0.00000000000E+00 0. -1.
        -11   -1    0    0    0    0 -0.00000000000E+00 -0.00000000000E+00 -0.50000000000E+02  0.50000000000E+02  0.00000000000E+00 0.  1.
         23    2    1    2    0    0  0.00000000000E+00  0.00000000000E+00  0.00000000000E+00  0.10000000000E+03  0.10000000000E+03 0.  0.
          5    1    3    3  501    0 -0.28704698382E+02  0.28289985618E+02  0.29216895875E+02  0.50000000000E+02  0.47000000000E+01 0. -1.
         -5    1    3    3    0  501  0.28704698382E+02 -0.28289985618E+02 -0.29216895875E+02  0.50000000000E+02  0.47000000000E+01 0.  1.
</event>
<event>
 5    1  0.9091923E-001  0.1000000E+03  0.7546771E-02  0.1163815E+00
         11   -1    0    0    0    0  0.00000000000E+00  0.00000000000E+00  0.50000000000E+02  0.50000000000E+02  0.00000000000E+00 0.  1.
        -11   -1    0    0    0    0 -0.00000000000E+00 -0.00000000000E+00 -0.50000000000E+02  0.50000000000E+02  0.00000000000E+00 0. -1.
         23    2    1    2    0    0  0.00000000000E+00  0.00000000000E+00  0.00000000000E+00  0.10000000000E+03  0.10000000000E+03 0.  0.
          5    1    3    3  501    0 -0.22631026367E+02 -0.59605190694E+01 -0.43934256088E+02  0.50000000000E+02  0.47000000000E+01 0. -1.
         -5    1    3    3    0  501  0.22631026367E+02  0.59605190694E+01  0.43934256088E+02  0.50000000000E+02  0.47000000000E+01 0.  1.
</event>
<event>
 5    1  0.9091923E-001  0.1000000E+03  0.7546771E-02  0.1163815E+00
         11   -1    0    0    0    0  0.00000000000E+00  0.00000000000E+00  0.50000000000E+02  0.50000000000E+02  0.00000000000E+00 0. -1.
        -11   -1    0    0    0    0 -0.00000000000E+00 -0.00000000000E+00 -0.50000000000E+02  0.50000000000E+02  0.00000000000E+00 0.  1.
         23    2    1    2    0    0  0.00000000000E+00  0.00000000000E+00  0.00000000000E+00  0.10000000000E+03  0.10000000000E+03 0.  0.
          5    1    3    3  501    0 -0.25355046859E+02  0.12395048476E+02  0.41004809134E+02  0.50000000000E+02  0.47000000000E+01 0. -1.
         -5    1    3    3    0  501  0.25355046859E+02 -0.12395048476E+02 -0.41004809134E+02  0.50000000000E+02  0.47000000000E+01 0.  1.
</event>
<event>
 5    1  0.9091923E-001  0.1000000E+03  0.7546771E-02  0.1163815E+00
         11   -1    0    0    0    0  0.00000000000E+00  0.00000000000E+00  0.50000000000E+02  0.50000000000E+02  0.00000000000E+00 0. -1.
        -11   -1    0    0    0    0 -0.00000000000E+00 -0.00000000000E+00 -0.50000000000E+02  0.50000000000E+02  0.00000000000E+00 0.  1.
         23    2    1    2    0    0  0.00000000000E+00  0.00000000000E+00  0.00000000000E+00  0.10000000000E+03  0.10000000000E+03 0.  0.
          5    1    3    3  501    0 -0.48801877079E+01  0.10767938641E+01  0.49527106547E+02  0.50000000000E+02  0.47000000000E+01 0. -1.
         -5    1    3    3    0  501  0.48801877079E+01 -0.10767938641E+01 -0.49527106547E+02  0.50000000000E+02  0.47000000000E+01 0.  1.
</event>
<event>
 5    1  0.9091923E-001  0.1000000E+03  0.7546771E-02  0.1163815E+00
         11   -1    0    0    0    0  0.00000000000E+00  0.00000000000E+00  0.50000000000E+02  0.50000000000E+02  0.00000000000E+00 0. -1.
        -11   -1    0    0    0    0 -0.00000000000E+00 -0.00000000000E+00 -0.50000000000E+02  0.50000000000E+02  0.00000000000E+00 0.  1.
         23    2    1    2    0    0  0.00000000000E+00  0.00000000000E+00  0.00000000000E+00  0.10000000000E+03  0.10000000000E+03 0.  0.
          5    1    3    3  501    0  0.25385990255E+02 -0.40843778165E+02  0.12854854491E+02  0.50000000000E+02  0.47000000000E+01 0. -1.
         -5    1    3    3    0  501 -0.25385990255E+02  0.40843778165E+02 -0.12854854491E+02  0.50000000000E+02  0.47000000000E+01 0.  1.
</event>
<event>
 5    1  0.9091923E-001  0.1000000E+03  0.7546771E-02  0.1163815E+00
         11   -1    0    0    0    0  0.00000000000E+00  0.00000000000E+00  0.50000000000E+02  0.50000000000E+02  0.00000000000E+00 0. -1.
        -11   -1    0    0    0    0 -0.00000000000E+00 -0.00000000000E+00 -0.50000000000E+02  0.50000000000E+02  0.00000000000E+00 0.  1.
         23    2    1    2    0    0  0.00000000000E+00  0.00000000000E+00  0.00000000000E+00  0.10000000000E+03  0.10000000000E+03 0.  0.
          5    1    3    3  501    0 -0.49370828666E+02 -0.47686842614E+01 -0.42060583997E+01  0.50000000000E+02  0.47000000000E+01 0. -1.
         -5    1    3    3    0  501  0.49370828666E+02  0.47686842614E+01  0.42060583997E+01  0.50000000000E+02  0.47000000000E+01 0.  1.
</event>
<event>
 5    1  0.9091923E-001  0.1000000E+03  0.7546771E-02  0.1163815E+00
         11   -1    0    0    0    0  0.00000000000E+00  0.00000000000E+00  0.50000000000E+02  0.50000000000E+02  0.00000000000E+00 0. -1.
        -11   -1    0    0    0    0 -0.00000000000E+00 -0.00000000000E+00 -0.50000000000E+02  0.50000000000E+02  0.00000000000E+00 0.  1.
         23    2    1    2    0    0  0.00000000000E+00  0.00000000000E+00  0.00000000000E+00  0.10000000000E+03  0.10000000000E+03 0.  0.
          5    1    3    3  501    0 -0.27212515356E+02  0.40367165792E+02  0.10386574695E+02  0.50000000000E+02  0.47000000000E+01 0. -1.
         -5    1    3    3    0  501  0.27212515356E+02 -0.40367165792E+02 -0.10386574695E+02  0.50000000000E+02  0.47000000000E+01 0.  1.
</event>
<event>
 5    1  0.9091923E-001  0.1000000E+03  0.7546771E-02  0.1163815E+00
         11   -1    0    0    0    0  0.00000000000E+00  0.00000000000E+00  0.50000000000E+02  0.50000000000E+02  0.00000000000E+00 0.  1.
        -11   -1    0    0    0    0 -0.00000000000E+00 -0.00000000000E+00 -0.50000000000E+02  0.50000000000E+02  0.00000000000E+00 0. -1.
         23    2    1    2    0    0  0.00000000000E+00  0.00000000000E+00  0.00000000000E+00  0.10000000000E+03  0.10000000000E+03 0.  0.
          5    1    3    3  501    0  0.10938658469E+01 -0.49443030994E+02 -0.56656988664E+01  0.50000000000E+02  0.47000000000E+01 0.  1.
         -5    1    3    3    0  501 -0.10938658469E+01  0.49443030994E+02  0.56656988664E+01  0.50000000000E+02  0.47000000000E+01 0. -1.
</event>
<event>
 5    1  0.9091923E-001  0.1000000E+03  0.7546771E-02  0.1163815E+00
         11   -1    0    0    0    0  0.00000000000E+00  0.00000000000E+00  0.50000000000E+02  0.50000000000E+02  0.00000000000E+00 0. -1.
        -11   -1    0    0    0    0 -0.00000000000E+00 -0.00000000000E+00 -0.50000000000E+02  0.50000000000E+02  0.00000000000E+00 0.  1.
         23    2    1    2    0    0  0.00000000000E+00  0.00000000000E+00  0.00000000000E+00  0.10000000000E+03  0.10000000000E+03 0.  0.
          5    1    3    3  501    0 -0.21434222048E+02  0.10900229977E+02  0.43585193720E+02  0.50000000000E+02  0.47000000000E+01 0. -1.
         -5    1    3    3    0  501  0.21434222048E+02 -0.10900229977E+02 -0.43585193720E+02  0.50000000000E+02  0.47000000000E+01 0.  1.
</event>
<event>
 5    1  0.9091923E-001  0.1000000E+03  0.7546771E-02  0.1163815E+00
         11   -1    0    0    0    0  0.00000000000E+00  0.00000000000E+00  0.50000000000E+02  0.50000000000E+02  0.00000000000E+00 0. -1.
        -11   -1    0    0    0    0 -0.00000000000E+00 -0.00000000000E+00 -0.50000000000E+02  0.50000000000E+02  0.00000000000E+00 0.  1.
         23    2    1    2    0    0  0.00000000000E+00  0.00000000000E+00  0.00000000000E+00  0.10000000000E+03  0.10000000000E+03 0.  0.
          5    1    3    3  501    0  0.17847988670E+02  0.40983498129E+02  0.21902332788E+02  0.50000000000E+02  0.47000000000E+01 0. -1.
         -5    1    3    3    0  501 -0.17847988670E+02 -0.40983498129E+02 -0.21902332788E+02  0.50000000000E+02  0.47000000000E+01 0.  1.
</event>
<event>
 5    1  0.9091923E-001  0.1000000E+03  0.7546771E-02  0.1163815E+00
         11   -1    0    0    0    0  0.00000000000E+00  0.00000000000E+00  0.50000000000E+02  0.50000000000E+02  0.00000000000E+00 0. -1.
        -11   -1    0    0    0    0 -0.00000000000E+00 -0.00000000000E+00 -0.50000000000E+02  0.50000000000E+02  0.00000000000E+00 0.  1.
         23    2    1    2    0    0  0.00000000000E+00  0.00000000000E+00  0.00000000000E+00  0.10000000000E+03  0.10000000000E+03 0.  0.
          5    1    3    3  501    0  0.33856585070E+02  0.13520979454E+02  0.33894317548E+02  0.50000000000E+02  0.47000000000E+01 0. -1.
         -5    1    3    3    0  501 -0.33856585070E+02 -0.13520979454E+02 -0.33894317548E+02  0.50000000000E+02  0.47000000000E+01 0.  1.
</event>
<event>
 5    1  0.9091923E-001  0.1000000E+03  0.7546771E-02  0.1163815E+00
         11   -1    0    0    0    0  0.00000000000E+00  0.00000000000E+00  0.50000000000E+02  0.50000000000E+02  0.00000000000E+00 0.  1.
        -11   -1    0    0    0    0 -0.00000000000E+00 -0.00000000000E+00 -0.50000000000E+02  0.50000000000E+02  0.00000000000E+00 0. -1.
         23    2    1    2    0    0  0.00000000000E+00  0.00000000000E+00  0.00000000000E+00  0.10000000000E+03  0.10000000000E+03 0.  0.
          5    1    3    3  501    0  0.48677904167E+01  0.45879414900E+02  0.18689406220E+02  0.50000000000E+02  0.47000000000E+01 0. -1.
         -5    1    3    3    0  501 -0.48677904167E+01 -0.45879414900E+02 -0.18689406220E+02  0.50000000000E+02  0.47000000000E+01 0.  1.
</event>
<event>
 5    1  0.9091923E-001  0.1000000E+03  0.7546771E-02  0.1163815E+00
         11   -1    0    0    0    0  0.00000000000E+00  0.00000000000E+00  0.50000000000E+02  0.50000000000E+02  0.00000000000E+00 0.  1.
        -11   -1    0    0    0    0 -0.00000000000E+00 -0.00000000000E+00 -0.50000000000E+02  0.50000000000E+02  0.00000000000E+00 0. -1.
         23    2    1    2    0    0  0.00000000000E+00  0.00000000000E+00  0.00000000000E+00  0.10000000000E+03  0.10000000000E+03 0.  0.
          5    1    3    3  501    0  0.35328422784E-01  0.45034832698E+02  0.21207842788E+02  0.50000000000E+02  0.47000000000E+01 0. -1.
         -5    1    3    3    0  501 -0.35328422784E-01 -0.45034832698E+02 -0.21207842788E+02  0.50000000000E+02  0.47000000000E+01 0.  1.
</event>
<event>
 5    1  0.9091923E-001  0.1000000E+03  0.7546771E-02  0.1163815E+00
         11   -1    0    0    0    0  0.00000000000E+00  0.00000000000E+00  0.50000000000E+02  0.50000000000E+02  0.00000000000E+00 0. -1.
        -11   -1    0    0    0    0 -0.00000000000E+00 -0.00000000000E+00 -0.50000000000E+02  0.50000000000E+02  0.00000000000E+00 0.  1.
         23    2    1    2    0    0  0.00000000000E+00  0.00000000000E+00  0.00000000000E+00  0.10000000000E+03  0.10000000000E+03 0.  0.
          5    1    3    3  501    0 -0.33889743427E+02  0.35033893310E+02  0.10100574736E+02  0.50000000000E+02  0.47000000000E+01 0. -1.
         -5    1    3    3    0  501  0.33889743427E+02 -0.35033893310E+02 -0.10100574736E+02  0.50000000000E+02  0.47000000000E+01 0.  1.
</event>
<event>
 5    1  0.9091923E-001  0.1000000E+03  0.7546771E-02  0.1163815E+00
         11   -1    0    0    0    0  0.00000000000E+00  0.00000000000E+00  0.50000000000E+02  0.50000000000E+02  0.00000000000E+00 0.  1.
        -11   -1    0    0    0    0 -0.00000000000E+00 -0.00000000000E+00 -0.50000000000E+02  0.50000000000E+02  0.00000000000E+00 0. -1.
         23    2    1    2    0    0  0.00000000000E+00  0.00000000000E+00  0.00000000000E+00  0.10000000000E+03  0.10000000000E+03 0.  0.
          5    1    3    3  501    0  0.44092448466E+01 -0.39598260149E+02 -0.29840347736E+02  0.50000000000E+02  0.47000000000E+01 0. -1.
         -5    1    3    3    0  501 -0.44092448466E+01  0.39598260149E+02  0.29840347736E+02  0.50000000000E+02  0.47000000000E+01 0.  1.
</event>
<event>
 5    1  0.9091923E-001  0.1000000E+03  0.7546771E-02  0.1163815E+00
         11   -1    0    0    0    0  0.00000000000E+00  0.00000000000E+00  0.50000000000E+02  0.50000000000E+02  0.00000000000E+00 0. -1.
        -11   -1    0    0    0    0 -0.00000000000E+00 -0.00000000000E+00 -0.50000000000E+02  0.50000000000E+02  0.00000000000E+00 0.  1.
         23    2    1    2    0    0  0.00000000000E+00  0.00000000000E+00  0.00000000000E+00  0.10000000000E+03  0.10000000000E+03 0.  0.
          5    1    3    3  501    0 -0.77080943026E+01  0.17489418633E+02  0.45963197431E+02  0.50000000000E+02  0.47000000000E+01 0. -1.
         -5    1    3    3    0  501  0.77080943026E+01 -0.17489418633E+02 -0.45963197431E+02  0.50000000000E+02  0.47000000000E+01 0.  1.
</event>
<event>
 5    1  0.9091923E-001  0.1000000E+03  0.7546771E-02  0.1163815E+00
         11   -1    0    0    0    0  0.00000000000E+00  0.00000000000E+00  0.50000000000E+02  0.50000000000E+02  0.00000000000E+00 0. -1.
        -11   -1    0    0    0    0 -0.00000000000E+00 -0.00000000000E+00 -0.50000000000E+02  0.50000000000E+02  0.00000000000E+00 0.  1.
         23    2    1    2    0    0  0.00000000000E+00  0.00000000000E+00  0.00000000000E+00  0.10000000000E+03  0.10000000000E+03 0.  0.
          5    1    3    3  501    0 -0.41450384443E+02 -0.87521908190E+00  0.27550129240E+02  0.50000000000E+02  0.47000000000E+01 0. -1.
         -5    1    3    3    0  501  0.41450384443E+02  0.87521908190E+00 -0.27550129240E+02  0.50000000000E+02  0.47000000000E+01 0.  1.
</event>
<event>
 5    1  0.9091923E-001  0.1000000E+03  0.7546771E-02  0.1163815E+00
         11   -1    0    0    0    0  0.00000000000E+00  0.00000000000E+00  0.50000000000E+02  0.50000000000E+02  0.00000000000E+00 0. -1.
        -11   -1    0    0    0    0 -0.00000000000E+00 -0.00000000000E+00 -0.50000000000E+02  0.50000000000E+02  0.00000000000E+00 0.  1.
         23    2    1    2    0    0  0.00000000000E+00  0.00000000000E+00  0.00000000000E+00  0.10000000000E+03  0.10000000000E+03 0.  0.
          5    1    3    3  501    0  0.18190288489E+02  0.60497275176E+01  0.45939353518E+02  0.50000000000E+02  0.47000000000E+01 0. -1.
         -5    1    3    3    0  501 -0.18190288489E+02 -0.60497275176E+01 -0.45939353518E+02  0.50000000000E+02  0.47000000000E+01 0.  1.
</event>
<event>
 5    1  0.9091923E-001  0.1000000E+03  0.7546771E-02  0.1163815E+00
         11   -1    0    0    0    0  0.00000000000E+00  0.00000000000E+00  0.50000000000E+02  0.50000000000E+02  0.00000000000E+00 0. -1.
        -11   -1    0    0    0    0 -0.00000000000E+00 -0.00000000000E+00 -0.50000000000E+02  0.50000000000E+02  0.00000000000E+00 0.  1.
         23    2    1    2    0    0  0.00000000000E+00  0.00000000000E+00  0.00000000000E+00  0.10000000000E+03  0.10000000000E+03 0.  0.
          5    1    3    3  501    0 -0.59951511273E+01  0.25798839339E+02  0.42147218790E+02  0.50000000000E+02  0.47000000000E+01 0. -1.
         -5    1    3    3    0  501  0.59951511273E+01 -0.25798839339E+02 -0.42147218790E+02  0.50000000000E+02  0.47000000000E+01 0.  1.
</event>
<event>
 5    1  0.9091923E-001  0.1000000E+03  0.7546771E-02  0.1163815E+00
         11   -1    0    0    0    0  0.00000000000E+00  0.00000000000E+00  0.50000000000E+02  0.50000000000E+02  0.00000000000E+00 0. -1.
        -11   -1    0    0    0    0 -0.00000000000E+00 -0.00000000000E+00 -0.50000000000E+02  0.50000000000E+02  0.00000000000E+00 0.  1.
         23    2    1    2    0    0  0.00000000000E+00  0.00000000000E+00  0.00000000000E+00  0.10000000000E+03  0.10000000000E+03 0.  0.
          5    1    3    3  501    0 -0.26585452544E+01 -0.43301791360E+02  0.24408953319E+02  0.50000000000E+02  0.47000000000E+01 0. -1.
         -5    1    3    3    0  501  0.26585452544E+01  0.43301791360E+02 -0.24408953319E+02  0.50000000000E+02  0.47000000000E+01 0.  1.
</event>
<event>
 5    1  0.9091923E-001  0.1000000E+03  0.7546771E-02  0.1163815E+00
         11   -1    0    0    0    0  0.00000000000E+00  0.00000000000E+00  0.50000000000E+02  0.50000000000E+02  0.00000000000E+00 0. -1.
        -11   -1    0    0    0    0 -0.00000000000E+00 -0.00000000000E+00 -0.50000000000E+02  0.50000000000E+02  0.00000000000E+00 0.  1.
         23    2    1    2    0    0  0.00000000000E+00  0.00000000000E+00  0.00000000000E+00  0.10000000000E+03  0.10000000000E+03 0.  0.
          5    1    3    3  501    0  0.23049015660E+01  0.39030867053E+02  0.30808908547E+02  0.50000000000E+02  0.47000000000E+01 0. -1.
         -5    1    3    3    0  501 -0.23049015660E+01 -0.39030867053E+02 -0.30808908547E+02  0.50000000000E+02  0.47000000000E+01 0.  1.
</event>
<event>
 5    1  0.9091923E-001  0.1000000E+03  0.7546771E-02  0.1163815E+00
         11   -1    0    0    0    0  0.00000000000E+00  0.00000000000E+00  0.50000000000E+02  0.50000000000E+02  0.00000000000E+00 0. -1.
        -11   -1    0    0    0    0 -0.00000000000E+00 -0.00000000000E+00 -0.50000000000E+02  0.50000000000E+02  0.00000000000E+00 0.  1.
         23    2    1    2    0    0  0.00000000000E+00  0.00000000000E+00  0.00000000000E+00  0.10000000000E+03  0.10000000000E+03 0.  0.
          5    1    3    3  501    0 -0.15290454016E+02  0.82363375004E+01  0.46650560131E+02  0.50000000000E+02  0.47000000000E+01 0. -1.
         -5    1    3    3    0  501  0.15290454016E+02 -0.82363375004E+01 -0.46650560131E+02  0.50000000000E+02  0.47000000000E+01 0.  1.
</event>
<event>
 5    1  0.9091923E-001  0.1000000E+03  0.7546771E-02  0.1163815E+00
         11   -1    0    0    0    0  0.00000000000E+00  0.00000000000E+00  0.50000000000E+02  0.50000000000E+02  0.00000000000E+00 0. -1.
        -11   -1    0    0    0    0 -0.00000000000E+00 -0.00000000000E+00 -0.50000000000E+02  0.50000000000E+02  0.00000000000E+00 0.  1.
         23    2    1    2    0    0  0.00000000000E+00  0.00000000000E+00  0.00000000000E+00  0.10000000000E+03  0.10000000000E+03 0.  0.
          5    1    3    3  501    0  0.14054423532E+02  0.27617921923E+02  0.38956816706E+02  0.50000000000E+02  0.47000000000E+01 0. -1.
         -5    1    3    3    0  501 -0.14054423532E+02 -0.27617921923E+02 -0.38956816706E+02  0.50000000000E+02  0.47000000000E+01 0.  1.
</event>
<event>
 5    1  0.9091923E-001  0.1000000E+03  0.7546771E-02  0.1163815E+00
         11   -1    0    0    0    0  0.00000000000E+00  0.00000000000E+00  0.50000000000E+02  0.50000000000E+02  0.00000000000E+00 0. -1.
        -11   -1    0    0    0    0 -0.00000000000E+00 -0.00000000000E+00 -0.50000000000E+02  0.50000000000E+02  0.00000000000E+00 0.  1.
         23    2    1    2    0    0  0.00000000000E+00  0.00000000000E+00  0.00000000000E+00  0.10000000000E+03  0.10000000000E+03 0.  0.
          5    1    3    3  501    0 -0.36849394998E+02  0.33406540617E+02 -0.20087638605E+01  0.50000000000E+02  0.47000000000E+01 0. -1.
         -5    1    3    3    0  501  0.36849394998E+02 -0.33406540617E+02  0.20087638605E+01  0.50000000000E+02  0.47000000000E+01 0.  1.
</event>
<event>
 5    1  0.9091923E-001  0.1000000E+03  0.7546771E-02  0.1163815E+00
         11   -1    0    0    0    0  0.00000000000E+00  0.00000000000E+00  0.50000000000E+02  0.50000000000E+02  0.00000000000E+00 0. -1.
        -11   -1    0    0    0    0 -0.00000000000E+00 -0.00000000000E+00 -0.50000000000E+02  0.50000000000E+02  0.00000000000E+00 0.  1.
         23    2    1    2    0    0  0.00000000000E+00  0.00000000000E+00  0.00000000000E+00  0.10000000000E+03  0.10000000000E+03 0.  0.
          5    1    3    3  501    0  0.17734607644E+01 -0.42395386788E+02 -0.26026832616E+02  0.50000000000E+02  0.47000000000E+01 0. -1.
         -5    1    3    3    0  501 -0.17734607644E+01  0.42395386788E+02  0.26026832616E+02  0.50000000000E+02  0.47000000000E+01 0.  1.
</event>
<event>
 5    1  0.9091923E-001  0.1000000E+03  0.7546771E-02  0.1163815E+00
         11   -1    0    0    0    0  0.00000000000E+00  0.00000000000E+00  0.50000000000E+02  0.50000000000E+02  0.00000000000E+00 0. -1.
        -11   -1    0    0    0    0 -0.00000000000E+00 -0.00000000000E+00 -0.50000000000E+02  0.50000000000E+02  0.00000000000E+00 0.  1.
         23    2    1    2    0    0  0.00000000000E+00  0.00000000000E+00  0.00000000000E+00  0.10000000000E+03  0.10000000000E+03 0.  0.
          5    1    3    3  501    0 -0.14760513003E+01  0.44329667029E+02  0.22596723074E+02  0.50000000000E+02  0.47000000000E+01 0. -1.
         -5    1    3    3    0  501  0.14760513003E+01 -0.44329667029E+02 -0.22596723074E+02  0.50000000000E+02  0.47000000000E+01 0.  1.
</event>
<event>
 5    1  0.9091923E-001  0.1000000E+03  0.7546771E-02  0.1163815E+00
         11   -1    0    0    0    0  0.00000000000E+00  0.00000000000E+00  0.50000000000E+02  0.50000000000E+02  0.00000000000E+00 0. -1.
        -11   -1    0    0    0    0 -0.00000000000E+00 -0.00000000000E+00 -0.50000000000E+02  0.50000000000E+02  0.00000000000E+00 0.  1.
         23    2    1    2    0    0  0.00000000000E+00  0.00000000000E+00  0.00000000000E+00  0.10000000000E+03  0.10000000000E+03 0.  0.
          5    1    3    3  501    0  0.70846942573E+01  0.36742578936E+02  0.32828341420E+02  0.50000000000E+02  0.47000000000E+01 0. -1.
         -5    1    3    3    0  501 -0.70846942573E+01 -0.36742578936E+02 -0.32828341420E+02  0.50000000000E+02  0.47000000000E+01 0.  1.
</event>
<event>
 5    1  0.9091923E-001  0.1000000E+03  0.7546771E-02  0.1163815E+00
         11   -1    0    0    0    0  0.00000000000E+00  0.00000000000E+00  0.50000000000E+02  0.50000000000E+02  0.00000000000E+00 0. -1.
        -11   -1    0    0    0    0 -0.00000000000E+00 -0.00000000000E+00 -0.50000000000E+02  0.50000000000E+02  0.00000000000E+00 0.  1.
         23    2    1    2    0    0  0.00000000000E+00  0.00000000000E+00  0.00000000000E+00  0.10000000000E+03  0.10000000000E+03 0.  0.
          5    1    3    3  501    0 -0.41867087682E+01 -0.26550275720E+02  0.41898261645E+02  0.50000000000E+02  0.47000000000E+01 0. -1.
         -5    1    3    3    0  501  0.41867087682E+01  0.26550275720E+02 -0.41898261645E+02  0.50000000000E+02  0.47000000000E+01 0.  1.
</event>
<event>
 5    1  0.9091923E-001  0.1000000E+03  0.7546771E-02  0.1163815E+00
         11   -1    0    0    0    0  0.00000000000E+00  0.00000000000E+00  0.50000000000E+02  0.50000000000E+02  0.00000000000E+00 0. -1.
        -11   -1    0    0    0    0 -0.00000000000E+00 -0.00000000000E+00 -0.50000000000E+02  0.50000000000E+02  0.00000000000E+00 0.  1.
         23    2    1    2    0    0  0.00000000000E+00  0.00000000000E+00  0.00000000000E+00  0.10000000000E+03  0.10000000000E+03 0.  0.
          5    1    3    3  501    0 -0.10663954711E+02  0.18517075944E+02 -0.44958958711E+02  0.50000000000E+02  0.47000000000E+01 0.  1.
         -5    1    3    3    0  501  0.10663954711E+02 -0.18517075944E+02  0.44958958711E+02  0.50000000000E+02  0.47000000000E+01 0. -1.
</event>
<event>
 5    1  0.9091923E-001  0.1000000E+03  0.7546771E-02  0.1163815E+00
         11   -1    0    0    0    0  0.00000000000E+00  0.00000000000E+00  0.50000000000E+02  0.50000000000E+02  0.00000000000E+00 0. -1.
        -11   -1    0    0    0    0 -0.00000000000E+00 -0.00000000000E+00 -0.50000000000E+02  0.50000000000E+02  0.00000000000E+00 0.  1.
         23    2    1    2    0    0  0.00000000000E+00  0.00000000000E+00  0.00000000000E+00  0.10000000000E+03  0.10000000000E+03 0.  0.
          5    1    3    3  501    0  0.24512315911E+02  0.39094732581E+00  0.43323244672E+02  0.50000000000E+02  0.47000000000E+01 0. -1.
         -5    1    3    3    0  501 -0.24512315911E+02 -0.39094732581E+00 -0.43323244672E+02  0.50000000000E+02  0.47000000000E+01 0.  1.
</event>
<event>
 5    1  0.9091923E-001  0.1000000E+03  0.7546771E-02  0.1163815E+00
         11   -1    0    0    0    0  0.00000000000E+00  0.00000000000E+00  0.50000000000E+02  0.50000000000E+02  0.00000000000E+00 0.  1.
        -11   -1    0    0    0    0 -0.00000000000E+00 -0.00000000000E+00 -0.50000000000E+02  0.50000000000E+02  0.00000000000E+00 0. -1.
         23    2    1    2    0    0  0.00000000000E+00  0.00000000000E+00  0.00000000000E+00  0.10000000000E+03  0.10000000000E+03 0.  0.
          5    1    3    3  501    0  0.49038534121E+02  0.76748450717E+01  0.37721246473E+01  0.50000000000E+02  0.47000000000E+01 0.  1.
         -5    1    3    3    0  501 -0.49038534121E+02 -0.76748450717E+01 -0.37721246473E+01  0.50000000000E+02  0.47000000000E+01 0. -1.
</event>
<event>
 5    1  0.9091923E-001  0.1000000E+03  0.7546771E-02  0.1163815E+00
         11   -1    0    0    0    0  0.00000000000E+00  0.00000000000E+00  0.50000000000E+02  0.50000000000E+02  0.00000000000E+00 0.  1.
        -11   -1    0    0    0    0 -0.00000000000E+00 -0.00000000000E+00 -0.50000000000E+02  0.50000000000E+02  0.00000000000E+00 0. -1.
         23    2    1    2    0    0  0.00000000000E+00  0.00000000000E+00  0.00000000000E+00  0.10000000000E+03  0.10000000000E+03 0.  0.
          5    1    3    3  501    0 -0.34889100384E+02 -0.33211535355E+02 -0.12556058051E+02  0.50000000000E+02  0.47000000000E+01 0. -1.
         -5    1    3    3    0  501  0.34889100384E+02  0.33211535355E+02  0.12556058051E+02  0.50000000000E+02  0.47000000000E+01 0.  1.
</event>
<event>
 5    1  0.9091923E-001  0.1000000E+03  0.7546771E-02  0.1163815E+00
         11   -1    0    0    0    0  0.00000000000E+00  0.00000000000E+00  0.50000000000E+02  0.50000000000E+02  0.00000000000E+00 0. -1.
        -11   -1    0    0    0    0 -0.00000000000E+00 -0.00000000000E+00 -0.50000000000E+02  0.50000000000E+02  0.00000000000E+00 0.  1.
         23    2    1    2    0    0  0.00000000000E+00  0.00000000000E+00  0.00000000000E+00  0.10000000000E+03  0.10000000000E+03 0.  0.
          5    1    3    3  501    0  0.47370014300E+02 -0.14318806642E+02  0.53817768012E+01  0.50000000000E+02  0.47000000000E+01 0. -1.
         -5    1    3    3    0  501 -0.47370014300E+02  0.14318806642E+02 -0.53817768012E+01  0.50000000000E+02  0.47000000000E+01 0.  1.
</event>
<event>
 5    1  0.9091923E-001  0.1000000E+03  0.7546771E-02  0.1163815E+00
         11   -1    0    0    0    0  0.00000000000E+00  0.00000000000E+00  0.50000000000E+02  0.50000000000E+02  0.00000000000E+00 0.  1.
        -11   -1    0    0    0    0 -0.00000000000E+00 -0.00000000000E+00 -0.50000000000E+02  0.50000000000E+02  0.00000000000E+00 0. -1.
         23    2    1    2    0    0  0.00000000000E+00  0.00000000000E+00  0.00000000000E+00  0.10000000000E+03  0.10000000000E+03 0.  0.
          5    1    3    3  501    0  0.26084895612E+02 -0.16527120651E+02  0.39042829097E+02  0.50000000000E+02  0.47000000000E+01 0.  1.
         -5    1    3    3    0  501 -0.26084895612E+02  0.16527120651E+02 -0.39042829097E+02  0.50000000000E+02  0.47000000000E+01 0. -1.
</event>
<event>
 5    1  0.9091923E-001  0.1000000E+03  0.7546771E-02  0.1163815E+00
         11   -1    0    0    0    0  0.00000000000E+00  0.00000000000E+00  0.50000000000E+02  0.50000000000E+02  0.00000000000E+00 0.  1.
        -11   -1    0    0    0    0 -0.00000000000E+00 -0.00000000000E+00 -0.50000000000E+02  0.50000000000E+02  0.00000000000E+00 0. -1.
         23    2    1    2    0    0  0.00000000000E+00  0.00000000000E+00  0.00000000000E+00  0.10000000000E+03  0.10000000000E+03 0.  0.
          5    1    3    3  501    0  0.34529620737E+02 -0.35745754156E+02  0.28029184114E+01  0.50000000000E+02  0.47000000000E+01 0. -1.
         -5    1    3    3    0  501 -0.34529620737E+02  0.35745754156E+02 -0.28029184114E+01  0.50000000000E+02  0.47000000000E+01 0.  1.
</event>
<event>
 5    1  0.9091923E-001  0.1000000E+03  0.7546771E-02  0.1163815E+00
         11   -1    0    0    0    0  0.00000000000E+00  0.00000000000E+00  0.50000000000E+02  0.50000000000E+02  0.00000000000E+00 0. -1.
        -11   -1    0    0    0    0 -0.00000000000E+00 -0.00000000000E+00 -0.50000000000E+02  0.50000000000E+02  0.00000000000E+00 0.  1.
         23    2    1    2    0    0  0.00000000000E+00  0.00000000000E+00  0.00000000000E+00  0.10000000000E+03  0.10000000000E+03 0.  0.
          5    1    3    3  501    0 -0.32513278914E+02 -0.82743245796E+01  0.36774070308E+02  0.50000000000E+02  0.47000000000E+01 0. -1.
         -5    1    3    3    0  501  0.32513278914E+02  0.82743245796E+01 -0.36774070308E+02  0.50000000000E+02  0.47000000000E+01 0.  1.
</event>
<event>
 5    1  0.9091923E-001  0.1000000E+03  0.7546771E-02  0.1163815E+00
         11   -1    0    0    0    0  0.00000000000E+00  0.00000000000E+00  0.50000000000E+02  0.50000000000E+02  0.00000000000E+00 0. -1.
        -11   -1    0    0    0    0 -0.00000000000E+00 -0.00000000000E+00 -0.50000000000E+02  0.50000000000E+02  0.00000000000E+00 0.  1.
         23    2    1    2    0    0  0.00000000000E+00  0.00000000000E+00  0.00000000000E+00  0.10000000000E+03  0.10000000000E+03 0.  0.
          5    1    3    3  501    0  0.21553349412E+02 -0.36997803804E+02 -0.25387509582E+02  0.50000000000E+02  0.47000000000E+01 0. -1.
         -5    1    3    3    0  501 -0.21553349412E+02  0.36997803804E+02  0.25387509582E+02  0.50000000000E+02  0.47000000000E+01 0.  1.
</event>
<event>
 5    1  0.9091923E-001  0.1000000E+03  0.7546771E-02  0.1163815E+00
         11   -1    0    0    0    0  0.00000000000E+00  0.00000000000E+00  0.50000000000E+02  0.50000000000E+02  0.00000000000E+00 0. -1.
        -11   -1    0    0    0    0 -0.00000000000E+00 -0.00000000000E+00 -0.50000000000E+02  0.50000000000E+02  0.00000000000E+00 0.  1.
         23    2    1    2    0    0  0.00000000000E+00  0.00000000000E+00  0.00000000000E+00  0.10000000000E+03  0.10000000000E+03 0.  0.
          5    1    3    3  501    0 -0.15605102871E+02  0.19544506077E+02  0.43039552119E+02  0.50000000000E+02  0.47000000000E+01 0. -1.
         -5    1    3    3    0  501  0.15605102871E+02 -0.19544506077E+02 -0.43039552119E+02  0.50000000000E+02  0.47000000000E+01 0.  1.
</event>
<event>
 5    1  0.9091923E-001  0.1000000E+03  0.7546771E-02  0.1163815E+00
         11   -1    0    0    0    0  0.00000000000E+00  0.00000000000E+00  0.50000000000E+02  0.50000000000E+02  0.00000000000E+00 0.  1.
        -11   -1    0    0    0    0 -0.00000000000E+00 -0.00000000000E+00 -0.50000000000E+02  0.50000000000E+02  0.00000000000E+00 0. -1.
         23    2    1    2    0    0  0.00000000000E+00  0.00000000000E+00  0.00000000000E+00  0.10000000000E+03  0.10000000000E+03 0.  0.
          5    1    3    3  501    0  0.31264052154E+02  0.37222611570E+02 -0.10721298002E+02  0.50000000000E+02  0.47000000000E+01 0. -1.
         -5    1    3    3    0  501 -0.31264052154E+02 -0.37222611570E+02  0.10721298002E+02  0.50000000000E+02  0.47000000000E+01 0.  1.
</event>
<event>
 5    1  0.9091923E-001  0.1000000E+03  0.7546771E-02  0.1163815E+00
         11   -1    0    0    0    0  0.00000000000E+00  0.00000000000E+00  0.50000000000E+02  0.50000000000E+02  0.00000000000E+00 0. -1.
        -11   -1    0    0    0    0 -0.00000000000E+00 -0.00000000000E+00 -0.50000000000E+02  0.50000000000E+02  0.00000000000E+00 0.  1.
         23    2    1    2    0    0  0.00000000000E+00  0.00000000000E+00  0.00000000000E+00  0.10000000000E+03  0.10000000000E+03 0.  0.
          5    1    3    3  501    0  0.34202811839E+02  0.30395009491E+02  0.19601557601E+02  0.50000000000E+02  0.47000000000E+01 0. -1.
         -5    1    3    3    0  501 -0.34202811839E+02 -0.30395009491E+02 -0.19601557601E+02  0.50000000000E+02  0.47000000000E+01 0.  1.
</event>
<event>
 5    1  0.9091923E-001  0.1000000E+03  0.7546771E-02  0.1163815E+00
         11   -1    0    0    0    0  0.00000000000E+00  0.00000000000E+00  0.50000000000E+02  0.50000000000E+02  0.00000000000E+00 0. -1.
        -11   -1    0    0    0    0 -0.00000000000E+00 -0.00000000000E+00 -0.50000000000E+02  0.50000000000E+02  0.00000000000E+00 0.  1.
         23    2    1    2    0    0  0.00000000000E+00  0.00000000000E+00  0.00000000000E+00  0.10000000000E+03  0.10000000000E+03 0.  0.
          5    1    3    3  501    0  0.25538397450E+02  0.30342168889E+02 -0.30084099501E+02  0.50000000000E+02  0.47000000000E+01 0. -1.
         -5    1    3    3    0  501 -0.25538397450E+02 -0.30342168889E+02  0.30084099501E+02  0.50000000000E+02  0.47000000000E+01 0.  1.
</event>
<event>
 5    1  0.9091923E-001  0.1000000E+03  0.7546771E-02  0.1163815E+00
         11   -1    0    0    0    0  0.00000000000E+00  0.00000000000E+00  0.50000000000E+02  0.50000000000E+02  0.00000000000E+00 0. -1.
        -11   -1    0    0    0    0 -0.00000000000E+00 -0.00000000000E+00 -0.50000000000E+02  0.50000000000E+02  0.00000000000E+00 0.  1.
         23    2    1    2    0    0  0.00000000000E+00  0.00000000000E+00  0.00000000000E+00  0.10000000000E+03  0.10000000000E+03 0.  0.
          5    1    3    3  501    0 -0.17130290542E+02  0.46707336581E+02 -0.16993691300E+01  0.50000000000E+02  0.47000000000E+01 0. -1.
         -5    1    3    3    0  501  0.17130290542E+02 -0.46707336581E+02  0.16993691300E+01  0.50000000000E+02  0.47000000000E+01 0.  1.
</event>
<event>
 5    1  0.9091923E-001  0.1000000E+03  0.7546771E-02  0.1163815E+00
         11   -1    0    0    0    0  0.00000000000E+00  0.00000000000E+00  0.50000000000E+02  0.50000000000E+02  0.00000000000E+00 0.  1.
        -11   -1    0    0    0    0 -0.00000000000E+00 -0.00000000000E+00 -0.50000000000E+02  0.50000000000E+02  0.00000000000E+00 0. -1.
         23    2    1    2    0    0  0.00000000000E+00  0.00000000000E+00  0.00000000000E+00  0.10000000000E+03  0.10000000000E+03 0.  0.
          5    1    3    3  501    0  0.15934250678E+02  0.12066687221E+02 -0.45589524178E+02  0.50000000000E+02  0.47000000000E+01 0. -1.
         -5    1    3    3    0  501 -0.15934250678E+02 -0.12066687221E+02  0.45589524178E+02  0.50000000000E+02  0.47000000000E+01 0.  1.
</event>
<event>
 5    1  0.9091923E-001  0.1000000E+03  0.7546771E-02  0.1163815E+00
         11   -1    0    0    0    0  0.00000000000E+00  0.00000000000E+00  0.50000000000E+02  0.50000000000E+02  0.00000000000E+00 0. -1.
        -11   -1    0    0    0    0 -0.00000000000E+00 -0.00000000000E+00 -0.50000000000E+02  0.50000000000E+02  0.00000000000E+00 0.  1.
         23    2    1    2    0    0  0.00000000000E+00  0.00000000000E+00  0.00000000000E+00  0.10000000000E+03  0.10000000000E+03 0.  0.
          5    1    3    3  501    0  0.17207772824E+02 -0.36382344128E+02  0.29293814879E+02  0.50000000000E+02  0.47000000000E+01 0. -1.
         -5    1    3    3    0  501 -0.17207772824E+02  0.36382344128E+02 -0.29293814879E+02  0.50000000000E+02  0.47000000000E+01 0.  1.
</event>
<event>
 5    1  0.9091923E-001  0.1000000E+03  0.7546771E-02  0.1163815E+00
         11   -1    0    0    0    0  0.00000000000E+00  0.00000000000E+00  0.50000000000E+02  0.50000000000E+02  0.00000000000E+00 0. -1.
        -11   -1    0    0    0    0 -0.00000000000E+00 -0.00000000000E+00 -0.50000000000E+02  0.50000000000E+02  0.00000000000E+00 0.  1.
         23    2    1    2    0    0  0.00000000000E+00  0.00000000000E+00  0.00000000000E+00  0.10000000000E+03  0.10000000000E+03 0.  0.
          5    1    3    3  501    0  0.15888252819E+01  0.13701830371E+02  0.47829337009E+02  0.50000000000E+02  0.47000000000E+01 0. -1.
         -5    1    3    3    0  501 -0.15888252819E+01 -0.13701830371E+02 -0.47829337009E+02  0.50000000000E+02  0.47000000000E+01 0.  1.
</event>
<event>
 5    1  0.9091923E-001  0.1000000E+03  0.7546771E-02  0.1163815E+00
         11   -1    0    0    0    0  0.00000000000E+00  0.00000000000E+00  0.50000000000E+02  0.50000000000E+02  0.00000000000E+00 0.  1.
        -11   -1    0    0    0    0 -0.00000000000E+00 -0.00000000000E+00 -0.50000000000E+02  0.50000000000E+02  0.00000000000E+00 0. -1.
         23    2    1    2    0    0  0.00000000000E+00  0.00000000000E+00  0.00000000000E+00  0.10000000000E+03  0.10000000000E+03 0.  0.
          5    1    3    3  501    0 -0.29783024383E+02  0.22992381373E+02 -0.32591898647E+02  0.50000000000E+02  0.47000000000E+01 0. -1.
         -5    1    3    3    0  501  0.29783024383E+02 -0.22992381373E+02  0.32591898647E+02  0.50000000000E+02  0.47000000000E+01 0.  1.
</event>
<event>
 5    1  0.9091923E-001  0.1000000E+03  0.7546771E-02  0.1163815E+00
         11   -1    0    0    0    0  0.00000000000E+00  0.00000000000E+00  0.50000000000E+02  0.50000000000E+02  0.00000000000E+00 0. -1.
        -11   -1    0    0    0    0 -0.00000000000E+00 -0.00000000000E+00 -0.50000000000E+02  0.50000000000E+02  0.00000000000E+00 0.  1.
         23    2    1    2    0    0  0.00000000000E+00  0.00000000000E+00  0.00000000000E+00  0.10000000000E+03  0.10000000000E+03 0.  0.
          5    1    3    3  501    0 -0.46056497862E+02  0.15042348097E+02  0.11420891754E+02  0.50000000000E+02  0.47000000000E+01 0. -1.
         -5    1    3    3    0  501  0.46056497862E+02 -0.15042348097E+02 -0.11420891754E+02  0.50000000000E+02  0.47000000000E+01 0.  1.
</event>
<event>
 5    1  0.9091923E-001  0.1000000E+03  0.7546771E-02  0.1163815E+00
         11   -1    0    0    0    0  0.00000000000E+00  0.00000000000E+00  0.50000000000E+02  0.50000000000E+02  0.00000000000E+00 0. -1.
        -11   -1    0    0    0    0 -0.00000000000E+00 -0.00000000000E+00 -0.50000000000E+02  0.50000000000E+02  0.00000000000E+00 0.  1.
         23    2    1    2    0    0  0.00000000000E+00  0.00000000000E+00  0.00000000000E+00  0.10000000000E+03  0.10000000000E+03 0.  0.
          5    1    3    3  501    0 -0.16281568847E+02  0.41242017693E+02  0.22625571651E+02  0.50000000000E+02  0.47000000000E+01 0. -1.
         -5    1    3    3    0  501  0.16281568847E+02 -0.41242017693E+02 -0.22625571651E+02  0.50000000000E+02  0.47000000000E+01 0.  1.
</event>
<event>
 5    1  0.9091923E-001  0.1000000E+03  0.7546771E-02  0.1163815E+00
         11   -1    0    0    0    0  0.00000000000E+00  0.00000000000E+00  0.50000000000E+02  0.50000000000E+02  0.00000000000E+00 0. -1.
        -11   -1    0    0    0    0 -0.00000000000E+00 -0.00000000000E+00 -0.50000000000E+02  0.50000000000E+02  0.00000000000E+00 0.  1.
         23    2    1    2    0    0  0.00000000000E+00  0.00000000000E+00  0.00000000000E+00  0.10000000000E+03  0.10000000000E+03 0.  0.
          5    1    3    3  501    0 -0.38737081479E+02  0.12460405721E+02  0.28672056218E+02  0.50000000000E+02  0.47000000000E+01 0. -1.
         -5    1    3    3    0  501  0.38737081479E+02 -0.12460405721E+02 -0.28672056218E+02  0.50000000000E+02  0.47000000000E+01 0.  1.
</event>
<event>
 5    1  0.9091923E-001  0.1000000E+03  0.7546771E-02  0.1163815E+00
         11   -1    0    0    0    0  0.00000000000E+00  0.00000000000E+00  0.50000000000E+02  0.50000000000E+02  0.00000000000E+00 0. -1.
        -11   -1    0    0    0    0 -0.00000000000E+00 -0.00000000000E+00 -0.50000000000E+02  0.50000000000E+02  0.00000000000E+00 0.  1.
         23    2    1    2    0    0  0.00000000000E+00  0.00000000000E+00  0.00000000000E+00  0.10000000000E+03  0.10000000000E+03 0.  0.
          5    1    3    3  501    0 -0.27349158756E+02 -0.98709242569E+01  0.40404187526E+02  0.50000000000E+02  0.47000000000E+01 0. -1.
         -5    1    3    3    0  501  0.27349158756E+02  0.98709242569E+01 -0.40404187526E+02  0.50000000000E+02  0.47000000000E+01 0.  1.
</event>
<event>
 5    1  0.9091923E-001  0.1000000E+03  0.7546771E-02  0.1163815E+00
         11   -1    0    0    0    0  0.00000000000E+00  0.00000000000E+00  0.50000000000E+02  0.50000000000E+02  0.00000000000E+00 0.  1.
        -11   -1    0    0    0    0 -0.00000000000E+00 -0.00000000000E+00 -0.50000000000E+02  0.50000000000E+02  0.00000000000E+00 0. -1.
         23    2    1    2    0    0  0.00000000000E+00  0.00000000000E+00  0.00000000000E+00  0.10000000000E+03  0.10000000000E+03 0.  0.
          5    1    3    3  501    0  0.21974808877E+02  0.77417081443E+01 -0.43989586607E+02  0.50000000000E+02  0.47000000000E+01 0. -1.
         -5    1    3    3    0  501 -0.21974808877E+02 -0.77417081443E+01  0.43989586607E+02  0.50000000000E+02  0.47000000000E+01 0.  1.
</event>
<event>
 5    1  0.9091923E-001  0.1000000E+03  0.7546771E-02  0.1163815E+00
         11   -1    0    0    0    0  0.00000000000E+00  0.00000000000E+00  0.50000000000E+02  0.50000000000E+02  0.00000000000E+00 0. -1.
        -11   -1    0    0    0    0 -0.00000000000E+00 -0.00000000000E+00 -0.50000000000E+02  0.50000000000E+02  0.00000000000E+00 0.  1.
         23    2    1    2    0    0  0.00000000000E+00  0.00000000000E+00  0.00000000000E+00  0.10000000000E+03  0.10000000000E+03 0.  0.
          5    1    3    3  501    0 -0.29439378919E+02  0.31269928803E+02  0.25167926445E+02  0.50000000000E+02  0.47000000000E+01 0. -1.
         -5    1    3    3    0  501  0.29439378919E+02 -0.31269928803E+02 -0.25167926445E+02  0.50000000000E+02  0.47000000000E+01 0.  1.
</event>
<event>
 5    1  0.9091923E-001  0.1000000E+03  0.7546771E-02  0.1163815E+00
         11   -1    0    0    0    0  0.00000000000E+00  0.00000000000E+00  0.50000000000E+02  0.50000000000E+02  0.00000000000E+00 0.  1.
        -11   -1    0    0    0    0 -0.00000000000E+00 -0.00000000000E+00 -0.50000000000E+02  0.50000000000E+02  0.00000000000E+00 0. -1.
         23    2    1    2    0    0  0.00000000000E+00  0.00000000000E+00  0.00000000000E+00  0.10000000000E+03  0.10000000000E+03 0.  0.
          5    1    3    3  501    0  0.43010996919E+02 -0.12509715035E+02 -0.21713386972E+02  0.50000000000E+02  0.47000000000E+01 0. -1.
         -5    1    3    3    0  501 -0.43010996919E+02  0.12509715035E+02  0.21713386972E+02  0.50000000000E+02  0.47000000000E+01 0.  1.
</event>
<event>
 5    1  0.9091923E-001  0.1000000E+03  0.7546771E-02  0.1163815E+00
         11   -1    0    0    0    0  0.00000000000E+00  0.00000000000E+00  0.50000000000E+02  0.50000000000E+02  0.00000000000E+00 0. -1.
        -11   -1    0    0    0    0 -0.00000000000E+00 -0.00000000000E+00 -0.50000000000E+02  0.50000000000E+02  0.00000000000E+00 0.  1.
         23    2    1    2    0    0  0.00000000000E+00  0.00000000000E+00  0.00000000000E+00  0.10000000000E+03  0.10000000000E+03 0.  0.
          5    1    3    3  501    0 -0.26513708765E+01 -0.49703964754E+02  0.62938081428E+00  0.50000000000E+02  0.47000000000E+01 0. -1.
         -5    1    3    3    0  501  0.26513708765E+01  0.49703964754E+02 -0.62938081428E+00  0.50000000000E+02  0.47000000000E+01 0.  1.
</event>
<event>
 5    1  0.9091923E-001  0.1000000E+03  0.7546771E-02  0.1163815E+00
         11   -1    0    0    0    0  0.00000000000E+00  0.00000000000E+00  0.50000000000E+02  0.50000000000E+02  0.00000000000E+00 0.  1.
        -11   -1    0    0    0    0 -0.00000000000E+00 -0.00000000000E+00 -0.50000000000E+02  0.50000000000E+02  0.00000000000E+00 0. -1.
         23    2    1    2    0    0  0.00000000000E+00  0.00000000000E+00  0.00000000000E+00  0.10000000000E+03  0.10000000000E+03 0.  0.
          5    1    3    3  501    0  0.16722603797E+02 -0.38701474350E+02 -0.26466212524E+02  0.50000000000E+02  0.47000000000E+01 0. -1.
         -5    1    3    3    0  501 -0.16722603797E+02  0.38701474350E+02  0.26466212524E+02  0.50000000000E+02  0.47000000000E+01 0.  1.
</event>
<event>
 5    1  0.9091923E-001  0.1000000E+03  0.7546771E-02  0.1163815E+00
         11   -1    0    0    0    0  0.00000000000E+00  0.00000000000E+00  0.50000000000E+02  0.50000000000E+02  0.00000000000E+00 0. -1.
        -11   -1    0    0    0    0 -0.00000000000E+00 -0.00000000000E+00 -0.50000000000E+02  0.50000000000E+02  0.00000000000E+00 0.  1.
         23    2    1    2    0    0  0.00000000000E+00  0.00000000000E+00  0.00000000000E+00  0.10000000000E+03  0.10000000000E+03 0.  0.
          5    1    3    3  501    0  0.42117269907E+02  0.22448773822E+02  0.14145604600E+02  0.50000000000E+02  0.47000000000E+01 0. -1.
         -5    1    3    3    0  501 -0.42117269907E+02 -0.22448773822E+02 -0.14145604600E+02  0.50000000000E+02  0.47000000000E+01 0.  1.
</event>
<event>
 5    1  0.9091923E-001  0.1000000E+03  0.7546771E-02  0.1163815E+00
         11   -1    0    0    0    0  0.00000000000E+00  0.00000000000E+00  0.50000000000E+02  0.50000000000E+02  0.00000000000E+00 0. -1.
        -11   -1    0    0    0    0 -0.00000000000E+00 -0.00000000000E+00 -0.50000000000E+02  0.50000000000E+02  0.00000000000E+00 0.  1.
         23    2    1    2    0    0  0.00000000000E+00  0.00000000000E+00  0.00000000000E+00  0.10000000000E+03  0.10000000000E+03 0.  0.
          5    1    3    3  501    0 -0.98689643008E+01  0.17926742984E+02  0.45377807678E+02  0.50000000000E+02  0.47000000000E+01 0. -1.
         -5    1    3    3    0  501  0.98689643008E+01 -0.17926742984E+02 -0.45377807678E+02  0.50000000000E+02  0.47000000000E+01 0.  1.
</event>
<event>
 5    1  0.9091923E-001  0.1000000E+03  0.7546771E-02  0.1163815E+00
         11   -1    0    0    0    0  0.00000000000E+00  0.00000000000E+00  0.50000000000E+02  0.50000000000E+02  0.00000000000E+00 0. -1.
        -11   -1    0    0    0    0 -0.00000000000E+00 -0.00000000000E+00 -0.50000000000E+02  0.50000000000E+02  0.00000000000E+00 0.  1.
         23    2    1    2    0    0  0.00000000000E+00  0.00000000000E+00  0.00000000000E+00  0.10000000000E+03  0.10000000000E+03 0.  0.
          5    1    3    3  501    0 -0.85756424989E+00  0.23084600522E+02  0.44093942921E+02  0.50000000000E+02  0.47000000000E+01 0. -1.
         -5    1    3    3    0  501  0.85756424989E+00 -0.23084600522E+02 -0.44093942921E+02  0.50000000000E+02  0.47000000000E+01 0.  1.
</event>
<event>
 5    1  0.9091923E-001  0.1000000E+03  0.7546771E-02  0.1163815E+00
         11   -1    0    0    0    0  0.00000000000E+00  0.00000000000E+00  0.50000000000E+02  0.50000000000E+02  0.00000000000E+00 0. -1.
        -11   -1    0    0    0    0 -0.00000000000E+00 -0.00000000000E+00 -0.50000000000E+02  0.50000000000E+02  0.00000000000E+00 0.  1.
         23    2    1    2    0    0  0.00000000000E+00  0.00000000000E+00  0.00000000000E+00  0.10000000000E+03  0.10000000000E+03 0.  0.
          5    1    3    3  501    0 -0.38709639900E+01 -0.13111739779E+02  0.47864474485E+02  0.50000000000E+02  0.47000000000E+01 0. -1.
         -5    1    3    3    0  501  0.38709639900E+01  0.13111739779E+02 -0.47864474485E+02  0.50000000000E+02  0.47000000000E+01 0.  1.
</event>
<event>
 5    1  0.9091923E-001  0.1000000E+03  0.7546771E-02  0.1163815E+00
         11   -1    0    0    0    0  0.00000000000E+00  0.00000000000E+00  0.50000000000E+02  0.50000000000E+02  0.00000000000E+00 0.  1.
        -11   -1    0    0    0    0 -0.00000000000E+00 -0.00000000000E+00 -0.50000000000E+02  0.50000000000E+02  0.00000000000E+00 0. -1.
         23    2    1    2    0    0  0.00000000000E+00  0.00000000000E+00  0.00000000000E+00  0.10000000000E+03  0.10000000000E+03 0.  0.
          5    1    3    3  501    0  0.22005779669E+02  0.38169610961E+02 -0.23167573465E+02  0.50000000000E+02  0.47000000000E+01 0. -1.
         -5    1    3    3    0  501 -0.22005779669E+02 -0.38169610961E+02  0.23167573465E+02  0.50000000000E+02  0.47000000000E+01 0.  1.
</event>
<event>
 5    1  0.9091923E-001  0.1000000E+03  0.7546771E-02  0.1163815E+00
         11   -1    0    0    0    0  0.00000000000E+00  0.00000000000E+00  0.50000000000E+02  0.50000000000E+02  0.00000000000E+00 0. -1.
        -11   -1    0    0    0    0 -0.00000000000E+00 -0.00000000000E+00 -0.50000000000E+02  0.50000000000E+02  0.00000000000E+00 0.  1.
         23    2    1    2    0    0  0.00000000000E+00  0.00000000000E+00  0.00000000000E+00  0.10000000000E+03  0.10000000000E+03 0.  0.
          5    1    3    3  501    0 -0.23272309887E+02  0.35474878028E+02  0.26035410913E+02  0.50000000000E+02  0.47000000000E+01 0. -1.
         -5    1    3    3    0  501  0.23272309887E+02 -0.35474878028E+02 -0.26035410913E+02  0.50000000000E+02  0.47000000000E+01 0.  1.
</event>
<event>
 5    1  0.9091923E-001  0.1000000E+03  0.7546771E-02  0.1163815E+00
         11   -1    0    0    0    0  0.00000000000E+00  0.00000000000E+00  0.50000000000E+02  0.50000000000E+02  0.00000000000E+00 0. -1.
        -11   -1    0    0    0    0 -0.00000000000E+00 -0.00000000000E+00 -0.50000000000E+02  0.50000000000E+02  0.00000000000E+00 0.  1.
         23    2    1    2    0    0  0.00000000000E+00  0.00000000000E+00  0.00000000000E+00  0.10000000000E+03  0.10000000000E+03 0.  0.
          5    1    3    3  501    0  0.11304740404E+01 -0.18098556739E+02  0.46358109025E+02  0.50000000000E+02  0.47000000000E+01 0. -1.
         -5    1    3    3    0  501 -0.11304740404E+01  0.18098556739E+02 -0.46358109025E+02  0.50000000000E+02  0.47000000000E+01 0.  1.
</event>
<event>
 5    1  0.9091923E-001  0.1000000E+03  0.7546771E-02  0.1163815E+00
         11   -1    0    0    0    0  0.00000000000E+00  0.00000000000E+00  0.50000000000E+02  0.50000000000E+02  0.00000000000E+00 0. -1.
        -11   -1    0    0    0    0 -0.00000000000E+00 -0.00000000000E+00 -0.50000000000E+02  0.50000000000E+02  0.00000000000E+00 0.  1.
         23    2    1    2    0    0  0.00000000000E+00  0.00000000000E+00  0.00000000000E+00  0.10000000000E+03  0.10000000000E+03 0.  0.
          5    1    3    3  501    0 -0.40200174282E+02 -0.66394822976E+01  0.28596735172E+02  0.50000000000E+02  0.47000000000E+01 0. -1.
         -5    1    3    3    0  501  0.40200174282E+02  0.66394822976E+01 -0.28596735172E+02  0.50000000000E+02  0.47000000000E+01 0.  1.
</event>
<event>
 5    1  0.9091923E-001  0.1000000E+03  0.7546771E-02  0.1163815E+00
         11   -1    0    0    0    0  0.00000000000E+00  0.00000000000E+00  0.50000000000E+02  0.50000000000E+02  0.00000000000E+00 0. -1.
        -11   -1    0    0    0    0 -0.00000000000E+00 -0.00000000000E+00 -0.50000000000E+02  0.50000000000E+02  0.00000000000E+00 0.  1.
         23    2    1    2    0    0  0.00000000000E+00  0.00000000000E+00  0.00000000000E+00  0.10000000000E+03  0.10000000000E+03 0.  0.
          5    1    3    3  501    0  0.19705870203E+02 -0.23644923090E+02  0.39121685695E+02  0.50000000000E+02  0.47000000000E+01 0. -1.
         -5    1    3    3    0  501 -0.19705870203E+02  0.23644923090E+02 -0.39121685695E+02  0.50000000000E+02  0.47000000000E+01 0.  1.
</event>
<event>
 5    1  0.9091923E-001  0.1000000E+03  0.7546771E-02  0.1163815E+00
         11   -1    0    0    0    0  0.00000000000E+00  0.00000000000E+00  0.50000000000E+02  0.50000000000E+02  0.00000000000E+00 0. -1.
        -11   -1    0    0    0    0 -0.00000000000E+00 -0.00000000000E+00 -0.50000000000E+02  0.50000000000E+02  0.00000000000E+00 0.  1.
         23    2    1    2    0    0  0.00000000000E+00  0.00000000000E+00  0.00000000000E+00  0.10000000000E+03  0.10000000000E+03 0.  0.
          5    1    3    3  501    0  0.44057229601E+02  0.99388846820E+01  0.20930577898E+02  0.50000000000E+02  0.47000000000E+01 0. -1.
         -5    1    3    3    0  501 -0.44057229601E+02 -0.99388846820E+01 -0.20930577898E+02  0.50000000000E+02  0.47000000000E+01 0.  1.
</event>
<event>
 5    1  0.9091923E-001  0.1000000E+03  0.7546771E-02  0.1163815E+00
         11   -1    0    0    0    0  0.00000000000E+00  0.00000000000E+00  0.50000000000E+02  0.50000000000E+02  0.00000000000E+00 0. -1.
        -11   -1    0    0    0    0 -0.00000000000E+00 -0.00000000000E+00 -0.50000000000E+02  0.50000000000E+02  0.00000000000E+00 0.  1.
         23    2    1    2    0    0  0.00000000000E+00  0.00000000000E+00  0.00000000000E+00  0.10000000000E+03  0.10000000000E+03 0.  0.
          5    1    3    3  501    0  0.75120208300E+00  0.46523689821E+02  0.17688752947E+02  0.50000000000E+02  0.47000000000E+01 0. -1.
         -5    1    3    3    0  501 -0.75120208300E+00 -0.46523689821E+02 -0.17688752947E+02  0.50000000000E+02  0.47000000000E+01 0.  1.
</event>
<event>
 5    1  0.9091923E-001  0.1000000E+03  0.7546771E-02  0.1163815E+00
         11   -1    0    0    0    0  0.00000000000E+00  0.00000000000E+00  0.50000000000E+02  0.50000000000E+02  0.00000000000E+00 0.  1.
        -11   -1    0    0    0    0 -0.00000000000E+00 -0.00000000000E+00 -0.50000000000E+02  0.50000000000E+02  0.00000000000E+00 0. -1.
         23    2    1    2    0    0  0.00000000000E+00  0.00000000000E+00  0.00000000000E+00  0.10000000000E+03  0.10000000000E+03 0.  0.
          5    1    3    3  501    0 -0.83074830435E+01 -0.48313411456E+02 -0.86434946040E+01  0.50000000000E+02  0.47000000000E+01 0. -1.
         -5    1    3    3    0  501  0.83074830435E+01  0.48313411456E+02  0.86434946040E+01  0.50000000000E+02  0.47000000000E+01 0.  1.
</event>
<event>
 5    1  0.9091923E-001  0.1000000E+03  0.7546771E-02  0.1163815E+00
         11   -1    0    0    0    0  0.00000000000E+00  0.00000000000E+00  0.50000000000E+02  0.50000000000E+02  0.00000000000E+00 0. -1.
        -11   -1    0    0    0    0 -0.00000000000E+00 -0.00000000000E+00 -0.50000000000E+02  0.50000000000E+02  0.00000000000E+00 0.  1.
         23    2    1    2    0    0  0.00000000000E+00  0.00000000000E+00  0.00000000000E+00  0.10000000000E+03  0.10000000000E+03 0.  0.
          5    1    3    3  501    0 -0.47671421232E+02  0.99015720765E+01  0.10358787003E+02  0.50000000000E+02  0.47000000000E+01 0. -1.
         -5    1    3    3    0  501  0.47671421232E+02 -0.99015720765E+01 -0.10358787003E+02  0.50000000000E+02  0.47000000000E+01 0.  1.
</event>
<event>
 5    1  0.9091923E-001  0.1000000E+03  0.7546771E-02  0.1163815E+00
         11   -1    0    0    0    0  0.00000000000E+00  0.00000000000E+00  0.50000000000E+02  0.50000000000E+02  0.00000000000E+00 0. -1.
        -11   -1    0    0    0    0 -0.00000000000E+00 -0.00000000000E+00 -0.50000000000E+02  0.50000000000E+02  0.00000000000E+00 0.  1.
         23    2    1    2    0    0  0.00000000000E+00  0.00000000000E+00  0.00000000000E+00  0.10000000000E+03  0.10000000000E+03 0.  0.
          5    1    3    3  501    0 -0.49653563038E+01  0.26462944566E+02  0.41868458315E+02  0.50000000000E+02  0.47000000000E+01 0. -1.
         -5    1    3    3    0  501  0.49653563038E+01 -0.26462944566E+02 -0.41868458315E+02  0.50000000000E+02  0.47000000000E+01 0.  1.
</event>
<event>
 5    1  0.9091923E-001  0.1000000E+03  0.7546771E-02  0.1163815E+00
         11   -1    0    0    0    0  0.00000000000E+00  0.00000000000E+00  0.50000000000E+02  0.50000000000E+02  0.00000000000E+00 0. -1.
        -11   -1    0    0    0    0 -0.00000000000E+00 -0.00000000000E+00 -0.50000000000E+02  0.50000000000E+02  0.00000000000E+00 0.  1.
         23    2    1    2    0    0  0.00000000000E+00  0.00000000000E+00  0.00000000000E+00  0.10000000000E+03  0.10000000000E+03 0.  0.
          5    1    3    3  501    0  0.21689447883E+02  0.25706815625E+02  0.36696559525E+02  0.50000000000E+02  0.47000000000E+01 0. -1.
         -5    1    3    3    0  501 -0.21689447883E+02 -0.25706815625E+02 -0.36696559525E+02  0.50000000000E+02  0.47000000000E+01 0.  1.
</event>
<event>
 5    1  0.9091923E-001  0.1000000E+03  0.7546771E-02  0.1163815E+00
         11   -1    0    0    0    0  0.00000000000E+00  0.00000000000E+00  0.50000000000E+02  0.50000000000E+02  0.00000000000E+00 0.  1.
        -11   -1    0    0    0    0 -0.00000000000E+00 -0.00000000000E+00 -0.50000000000E+02  0.50000000000E+02  0.00000000000E+00 0. -1.
         23    2    1    2    0    0  0.00000000000E+00  0.00000000000E+00  0.00000000000E+00  0.10000000000E+03  0.10000000000E+03 0.  0.
          5    1    3    3  501    0 -0.48212002402E+02 -0.29544769000E+01 -0.12032617781E+02  0.50000000000E+02  0.47000000000E+01 0. -1.
         -5    1    3    3    0  501  0.48212002402E+02  0.29544769000E+01  0.12032617781E+02  0.50000000000E+02  0.47000000000E+01 0.  1.
</event>
<event>
 5    1  0.9091923E-001  0.1000000E+03  0.7546771E-02  0.1163815E+00
         11   -1    0    0    0    0  0.00000000000E+00  0.00000000000E+00  0.50000000000E+02  0.50000000000E+02  0.00000000000E+00 0.  1.
        -11   -1    0    0    0    0 -0.00000000000E+00 -0.00000000000E+00 -0.50000000000E+02  0.50000000000E+02  0.00000000000E+00 0. -1.
         23    2    1    2    0    0  0.00000000000E+00  0.00000000000E+00  0.00000000000E+00  0.10000000000E+03  0.10000000000E+03 0.  0.
          5    1    3    3  501    0  0.10155277068E+02  0.32722532117E+02 -0.36111165026E+02  0.50000000000E+02  0.47000000000E+01 0. -1.
         -5    1    3    3    0  501 -0.10155277068E+02 -0.32722532117E+02  0.36111165026E+02  0.50000000000E+02  0.47000000000E+01 0.  1.
</event>
<event>
 5    1  0.9091923E-001  0.1000000E+03  0.7546771E-02  0.1163815E+00
         11   -1    0    0    0    0  0.00000000000E+00  0.00000000000E+00  0.50000000000E+02  0.50000000000E+02  0.00000000000E+00 0. -1.
        -11   -1    0    0    0    0 -0.00000000000E+00 -0.00000000000E+00 -0.50000000000E+02  0.50000000000E+02  0.00000000000E+00 0.  1.
         23    2    1    2    0    0  0.00000000000E+00  0.00000000000E+00  0.00000000000E+00  0.10000000000E+03  0.10000000000E+03 0.  0.
          5    1    3    3  501    0  0.14573425742E+02 -0.25502787505E+01  0.47529163052E+02  0.50000000000E+02  0.47000000000E+01 0. -1.
         -5    1    3    3    0  501 -0.14573425742E+02  0.25502787505E+01 -0.47529163052E+02  0.50000000000E+02  0.47000000000E+01 0.  1.
</event>
<event>
 5    1  0.9091923E-001  0.1000000E+03  0.7546771E-02  0.1163815E+00
         11   -1    0    0    0    0  0.00000000000E+00  0.00000000000E+00  0.50000000000E+02  0.50000000000E+02  0.00000000000E+00 0. -1.
        -11   -1    0    0    0    0 -0.00000000000E+00 -0.00000000000E+00 -0.50000000000E+02  0.50000000000E+02  0.00000000000E+00 0.  1.
         23    2    1    2    0    0  0.00000000000E+00  0.00000000000E+00  0.00000000000E+00  0.10000000000E+03  0.10000000000E+03 0.  0.
          5    1    3    3  501    0  0.22665103634E+02  0.24892709360E+02  0.36668189183E+02  0.50000000000E+02  0.47000000000E+01 0. -1.
         -5    1    3    3    0  501 -0.22665103634E+02 -0.24892709360E+02 -0.36668189183E+02  0.50000000000E+02  0.47000000000E+01 0.  1.
</event>
<event>
 5    1  0.9091923E-001  0.1000000E+03  0.7546771E-02  0.1163815E+00
         11   -1    0    0    0    0  0.00000000000E+00  0.00000000000E+00  0.50000000000E+02  0.50000000000E+02  0.00000000000E+00 0. -1.
        -11   -1    0    0    0    0 -0.00000000000E+00 -0.00000000000E+00 -0.50000000000E+02  0.50000000000E+02  0.00000000000E+00 0.  1.
         23    2    1    2    0    0  0.00000000000E+00  0.00000000000E+00  0.00000000000E+00  0.10000000000E+03  0.10000000000E+03 0.  0.
          5    1    3    3  501    0  0.21543116832E+02  0.22758577162E+02  0.38676236667E+02  0.50000000000E+02  0.47000000000E+01 0. -1.
         -5    1    3    3    0  501 -0.21543116832E+02 -0.22758577162E+02 -0.38676236667E+02  0.50000000000E+02  0.47000000000E+01 0.  1.
</event>
<event>
 5    1  0.9091923E-001  0.1000000E+03  0.7546771E-02  0.1163815E+00
         11   -1    0    0    0    0  0.00000000000E+00  0.00000000000E+00  0.50000000000E+02  0.50000000000E+02  0.00000000000E+00 0. -1.
        -11   -1    0    0    0    0 -0.00000000000E+00 -0.00000000000E+00 -0.50000000000E+02  0.50000000000E+02  0.00000000000E+00 0.  1.
         23    2    1    2    0    0  0.00000000000E+00  0.00000000000E+00  0.00000000000E+00  0.10000000000E+03  0.10000000000E+03 0.  0.
          5    1    3    3  501    0  0.18182828319E+02  0.44045059540E+02  0.14398870942E+02  0.50000000000E+02  0.47000000000E+01 0. -1.
         -5    1    3    3    0  501 -0.18182828319E+02 -0.44045059540E+02 -0.14398870942E+02  0.50000000000E+02  0.47000000000E+01 0.  1.
</event>
<event>
 5    1  0.9091923E-001  0.1000000E+03  0.7546771E-02  0.1163815E+00
         11   -1    0    0    0    0  0.00000000000E+00  0.00000000000E+00  0.50000000000E+02  0.50000000000E+02  0.00000000000E+00 0. -1.
        -11   -1    0    0    0    0 -0.00000000000E+00 -0.00000000000E+00 -0.50000000000E+02  0.50000000000E+02  0.00000000000E+00 0.  1.
         23    2    1    2    0    0  0.00000000000E+00  0.00000000000E+00  0.00000000000E+00  0.10000000000E+03  0.10000000000E+03 0.  0.
          5    1    3    3  501    0 -0.11979995510E+02 -0.44077889690E+02  0.19787100548E+02  0.50000000000E+02  0.47000000000E+01 0. -1.
         -5    1    3    3    0  501  0.11979995510E+02  0.44077889690E+02 -0.19787100548E+02  0.50000000000E+02  0.47000000000E+01 0.  1.
</event>
<event>
 5    1  0.9091923E-001  0.1000000E+03  0.7546771E-02  0.1163815E+00
         11   -1    0    0    0    0  0.00000000000E+00  0.00000000000E+00  0.50000000000E+02  0.50000000000E+02  0.00000000000E+00 0. -1.
        -11   -1    0    0    0    0 -0.00000000000E+00 -0.00000000000E+00 -0.50000000000E+02  0.50000000000E+02  0.00000000000E+00 0.  1.
         23    2    1    2    0    0  0.00000000000E+00  0.00000000000E+00  0.00000000000E+00  0.10000000000E+03  0.10000000000E+03 0.  0.
          5    1    3    3  501    0 -0.29778523030E+02 -0.38073786977E+02  0.11896903436E+02  0.50000000000E+02  0.47000000000E+01 0. -1.
         -5    1    3    3    0  501  0.29778523030E+02  0.38073786977E+02 -0.11896903436E+02  0.50000000000E+02  0.47000000000E+01 0.  1.
</event>
<event>
 5    1  0.9091923E-001  0.1000000E+03  0.7546771E-02  0.1163815E+00
         11   -1    0    0    0    0  0.00000000000E+00  0.00000000000E+00  0.50000000000E+02  0.50000000000E+02  0.00000000000E+00 0. -1.
        -11   -1    0    0    0    0 -0.00000000000E+00 -0.00000000000E+00 -0.50000000000E+02  0.50000000000E+02  0.00000000000E+00 0.  1.
         23    2    1    2    0    0  0.00000000000E+00  0.00000000000E+00  0.00000000000E+00  0.10000000000E+03  0.10000000000E+03 0.  0.
          5    1    3    3  501    0 -0.12417958916E+01  0.26518105847E+02  0.42108882736E+02  0.50000000000E+02  0.47000000000E+01 0. -1.
         -5    1    3    3    0  501  0.12417958916E+01 -0.26518105847E+02 -0.42108882736E+02  0.50000000000E+02  0.47000000000E+01 0.  1.
</event>
<event>
 5    1  0.9091923E-001  0.1000000E+03  0.7546771E-02  0.1163815E+00
         11   -1    0    0    0    0  0.00000000000E+00  0.00000000000E+00  0.50000000000E+02  0.50000000000E+02  0.00000000000E+00 0. -1.
        -11   -1    0    0    0    0 -0.00000000000E+00 -0.00000000000E+00 -0.50000000000E+02  0.50000000000E+02  0.00000000000E+00 0.  1.
         23    2    1    2    0    0  0.00000000000E+00  0.00000000000E+00  0.00000000000E+00  0.10000000000E+03  0.10000000000E+03 0.  0.
          5    1    3    3  501    0  0.23370937972E+02  0.40825355332E+02 -0.16278808936E+02  0.50000000000E+02  0.47000000000E+01 0. -1.
         -5    1    3    3    0  501 -0.23370937972E+02 -0.40825355332E+02  0.16278808936E+02  0.50000000000E+02  0.47000000000E+01 0.  1.
</event>
<event>
 5    1  0.9091923E-001  0.1000000E+03  0.7546771E-02  0.1163815E+00
         11   -1    0    0    0    0  0.00000000000E+00  0.00000000000E+00  0.50000000000E+02  0.50000000000E+02  0.00000000000E+00 0. -1.
        -11   -1    0    0    0    0 -0.00000000000E+00 -0.00000000000E+00 -0.50000000000E+02  0.50000000000E+02  0.00000000000E+00 0.  1.
         23    2    1    2    0    0  0.00000000000E+00  0.00000000000E+00  0.00000000000E+00  0.10000000000E+03  0.10000000000E+03 0.  0.
          5    1    3    3  501    0  0.28687041360E+01  0.30702139358E+02  0.39077604525E+02  0.50000000000E+02  0.47000000000E+01 0. -1.
         -5    1    3    3    0  501 -0.28687041360E+01 -0.30702139358E+02 -0.39077604525E+02  0.50000000000E+02  0.47000000000E+01 0.  1.
</event>
<event>
 5    1  0.9091923E-001  0.1000000E+03  0.7546771E-02  0.1163815E+00
         11   -1    0    0    0    0  0.00000000000E+00  0.00000000000E+00  0.50000000000E+02  0.50000000000E+02  0.00000000000E+00 0. -1.
        -11   -1    0    0    0    0 -0.00000000000E+00 -0.00000000000E+00 -0.50000000000E+02  0.50000000000E+02  0.00000000000E+00 0.  1.
         23    2    1    2    0    0  0.00000000000E+00  0.00000000000E+00  0.00000000000E+00  0.10000000000E+03  0.10000000000E+03 0.  0.
          5    1    3    3  501    0 -0.80589596154E+01  0.21436298670E+02  0.44197831047E+02  0.50000000000E+02  0.47000000000E+01 0. -1.
         -5    1    3    3    0  501  0.80589596154E+01 -0.21436298670E+02 -0.44197831047E+02  0.50000000000E+02  0.47000000000E+01 0.  1.
</event>
<event>
 5    1  0.9091923E-001  0.1000000E+03  0.7546771E-02  0.1163815E+00
         11   -1    0    0    0    0  0.00000000000E+00  0.00000000000E+00  0.50000000000E+02  0.50000000000E+02  0.00000000000E+00 0. -1.
        -11   -1    0    0    0    0 -0.00000000000E+00 -0.00000000000E+00 -0.50000000000E+02  0.50000000000E+02  0.00000000000E+00 0.  1.
         23    2    1    2    0    0  0.00000000000E+00  0.00000000000E+00  0.00000000000E+00  0.10000000000E+03  0.10000000000E+03 0.  0.
          5    1    3    3  501    0 -0.38805623048E+02  0.70614949117E+01  0.30367234142E+02  0.50000000000E+02  0.47000000000E+01 0. -1.
         -5    1    3    3    0  501  0.38805623048E+02 -0.70614949117E+01 -0.30367234142E+02  0.50000000000E+02  0.47000000000E+01 0.  1.
</event>
<event>
 5    1  0.9091923E-001  0.1000000E+03  0.7546771E-02  0.1163815E+00
         11   -1    0    0    0    0  0.00000000000E+00  0.00000000000E+00  0.50000000000E+02  0.50000000000E+02  0.00000000000E+00 0. -1.
        -11   -1    0    0    0    0 -0.00000000000E+00 -0.00000000000E+00 -0.50000000000E+02  0.50000000000E+02  0.00000000000E+00 0.  1.
         23    2    1    2    0    0  0.00000000000E+00  0.00000000000E+00  0.00000000000E+00  0.10000000000E+03  0.10000000000E+03 0.  0.
          5    1    3    3  501    0 -0.26996598209E+02 -0.38318538960E+02  0.16756588469E+02  0.50000000000E+02  0.47000000000E+01 0. -1.
         -5    1    3    3    0  501  0.26996598209E+02  0.38318538960E+02 -0.16756588469E+02  0.50000000000E+02  0.47000000000E+01 0.  1.
</event>
<event>
 5    1  0.9091923E-001  0.1000000E+03  0.7546771E-02  0.1163815E+00
         11   -1    0    0    0    0  0.00000000000E+00  0.00000000000E+00  0.50000000000E+02  0.50000000000E+02  0.00000000000E+00 0.  1.
        -11   -1    0    0    0    0 -0.00000000000E+00 -0.00000000000E+00 -0.50000000000E+02  0.50000000000E+02  0.00000000000E+00 0. -1.
         23    2    1    2    0    0  0.00000000000E+00  0.00000000000E+00  0.00000000000E+00  0.10000000000E+03  0.10000000000E+03 0.  0.
          5    1    3    3  501    0 -0.34581433623E+00 -0.40973413160E+02 -0.28266054314E+02  0.50000000000E+02  0.47000000000E+01 0. -1.
         -5    1    3    3    0  501  0.34581433623E+00  0.40973413160E+02  0.28266054314E+02  0.50000000000E+02  0.47000000000E+01 0.  1.
</event>
<event>
 5    1  0.9091923E-001  0.1000000E+03  0.7546771E-02  0.1163815E+00
         11   -1    0    0    0    0  0.00000000000E+00  0.00000000000E+00  0.50000000000E+02  0.50000000000E+02  0.00000000000E+00 0. -1.
        -11   -1    0    0    0    0 -0.00000000000E+00 -0.00000000000E+00 -0.50000000000E+02  0.50000000000E+02  0.00000000000E+00 0.  1.
         23    2    1    2    0    0  0.00000000000E+00  0.00000000000E+00  0.00000000000E+00  0.10000000000E+03  0.10000000000E+03 0.  0.
          5    1    3    3  501    0 -0.10657308528E+02 -0.31285881349E+02  0.37222646374E+02  0.50000000000E+02  0.47000000000E+01 0. -1.
         -5    1    3    3    0  501  0.10657308528E+02  0.31285881349E+02 -0.37222646374E+02  0.50000000000E+02  0.47000000000E+01 0.  1.
</event>
<event>
 5    1  0.9091923E-001  0.1000000E+03  0.7546771E-02  0.1163815E+00
         11   -1    0    0    0    0  0.00000000000E+00  0.00000000000E+00  0.50000000000E+02  0.50000000000E+02  0.00000000000E+00 0.  1.
        -11   -1    0    0    0    0 -0.00000000000E+00 -0.00000000000E+00 -0.50000000000E+02  0.50000000000E+02  0.00000000000E+00 0. -1.
         23    2    1    2    0    0  0.00000000000E+00  0.00000000000E+00  0.00000000000E+00  0.10000000000E+03  0.10000000000E+03 0.  0.
          5    1    3    3  501    0 -0.26628084306E+02  0.37905746583E+02 -0.18221127907E+02  0.50000000000E+02  0.47000000000E+01 0. -1.
         -5    1    3    3    0  501  0.26628084306E+02 -0.37905746583E+02  0.18221127907E+02  0.50000000000E+02  0.47000000000E+01 0.  1.
</event>
<event>
 5    1  0.9091923E-001  0.1000000E+03  0.7546771E-02  0.1163815E+00
         11   -1    0    0    0    0  0.00000000000E+00  0.00000000000E+00  0.50000000000E+02  0.50000000000E+02  0.00000000000E+00 0. -1.
        -11   -1    0    0    0    0 -0.00000000000E+00 -0.00000000000E+00 -0.50000000000E+02  0.50000000000E+02  0.00000000000E+00 0.  1.
         23    2    1    2    0    0  0.00000000000E+00  0.00000000000E+00  0.00000000000E+00  0.10000000000E+03  0.10000000000E+03 0.  0.
          5    1    3    3  501    0 -0.20283048341E+02  0.27190374682E+02  0.36430639229E+02  0.50000000000E+02  0.47000000000E+01 0. -1.
         -5    1    3    3    0  501  0.20283048341E+02 -0.27190374682E+02 -0.36430639229E+02  0.50000000000E+02  0.47000000000E+01 0.  1.
</event>
<event>
 5    1  0.9091923E-001  0.1000000E+03  0.7546771E-02  0.1163815E+00
         11   -1    0    0    0    0  0.00000000000E+00  0.00000000000E+00  0.50000000000E+02  0.50000000000E+02  0.00000000000E+00 0.  1.
        -11   -1    0    0    0    0 -0.00000000000E+00 -0.00000000000E+00 -0.50000000000E+02  0.50000000000E+02  0.00000000000E+00 0. -1.
         23    2    1    2    0    0  0.00000000000E+00  0.00000000000E+00  0.00000000000E+00  0.10000000000E+03  0.10000000000E+03 0.  0.
          5    1    3    3  501    0 -0.34219942919E+02  0.29724536075E+02  0.20575652159E+02  0.50000000000E+02  0.47000000000E+01 0. -1.
         -5    1    3    3    0  501  0.34219942919E+02 -0.29724536075E+02 -0.20575652159E+02  0.50000000000E+02  0.47000000000E+01 0.  1.
</event>
<event>
 5    1  0.9091923E-001  0.1000000E+03  0.7546771E-02  0.1163815E+00
         11   -1    0    0    0    0  0.00000000000E+00  0.00000000000E+00  0.50000000000E+02  0.50000000000E+02  0.00000000000E+00 0. -1.
        -11   -1    0    0    0    0 -0.00000000000E+00 -0.00000000000E+00 -0.50000000000E+02  0.50000000000E+02  0.00000000000E+00 0.  1.
         23    2    1    2    0    0  0.00000000000E+00  0.00000000000E+00  0.00000000000E+00  0.10000000000E+03  0.10000000000E+03 0.  0.
          5    1    3    3  501    0  0.29589597788E+02  0.67265180065E+01  0.39460355526E+02  0.50000000000E+02  0.47000000000E+01 0. -1.
         -5    1    3    3    0  501 -0.29589597788E+02 -0.67265180065E+01 -0.39460355526E+02  0.50000000000E+02  0.47000000000E+01 0.  1.
</event>
<event>
 5    1  0.9091923E-001  0.1000000E+03  0.7546771E-02  0.1163815E+00
         11   -1    0    0    0    0  0.00000000000E+00  0.00000000000E+00  0.50000000000E+02  0.50000000000E+02  0.00000000000E+00 0. -1.
        -11   -1    0    0    0    0 -0.00000000000E+00 -0.00000000000E+00 -0.50000000000E+02  0.50000000000E+02  0.00000000000E+00 0.  1.
         23    2    1    2    0    0  0.00000000000E+00  0.00000000000E+00  0.00000000000E+00  0.10000000000E+03  0.10000000000E+03 0.  0.
          5    1    3    3  501    0 -0.68452051231E+01 -0.45382163383E+02  0.19274657286E+02  0.50000000000E+02  0.47000000000E+01 0. -1.
         -5    1    3    3    0  501  0.68452051231E+01  0.45382163383E+02 -0.19274657286E+02  0.50000000000E+02  0.47000000000E+01 0.  1.
</event>
<event>
 5    1  0.9091923E-001  0.1000000E+03  0.7546771E-02  0.1163815E+00
         11   -1    0    0    0    0  0.00000000000E+00  0.00000000000E+00  0.50000000000E+02  0.50000000000E+02  0.00000000000E+00 0. -1.
        -11   -1    0    0    0    0 -0.00000000000E+00 -0.00000000000E+00 -0.50000000000E+02  0.50000000000E+02  0.00000000000E+00 0.  1.
         23    2    1    2    0    0  0.00000000000E+00  0.00000000000E+00  0.00000000000E+00  0.10000000000E+03  0.10000000000E+03 0.  0.
          5    1    3    3  501    0  0.13360572952E+02  0.27035360806E+02  0.39604221447E+02  0.50000000000E+02  0.47000000000E+01 0. -1.
         -5    1    3    3    0  501 -0.13360572952E+02 -0.27035360806E+02 -0.39604221447E+02  0.50000000000E+02  0.47000000000E+01 0.  1.
</event>
<event>
 5    1  0.9091923E-001  0.1000000E+03  0.7546771E-02  0.1163815E+00
         11   -1    0    0    0    0  0.00000000000E+00  0.00000000000E+00  0.50000000000E+02  0.50000000000E+02  0.00000000000E+00 0. -1.
        -11   -1    0    0    0    0 -0.00000000000E+00 -0.00000000000E+00 -0.50000000000E+02  0.50000000000E+02  0.00000000000E+00 0.  1.
         23    2    1    2    0    0  0.00000000000E+00  0.00000000000E+00  0.00000000000E+00  0.10000000000E+03  0.10000000000E+03 0.  0.
          5    1    3    3  501    0  0.41132737881E+02 -0.20992248649E+02  0.18583147501E+02  0.50000000000E+02  0.47000000000E+01 0. -1.
         -5    1    3    3    0  501 -0.41132737881E+02  0.20992248649E+02 -0.18583147501E+02  0.50000000000E+02  0.47000000000E+01 0.  1.
</event>
<event>
 5    1  0.9091923E-001  0.1000000E+03  0.7546771E-02  0.1163815E+00
         11   -1    0    0    0    0  0.00000000000E+00  0.00000000000E+00  0.50000000000E+02  0.50000000000E+02  0.00000000000E+00 0.  1.
        -11   -1    0    0    0    0 -0.00000000000E+00 -0.00000000000E+00 -0.50000000000E+02  0.50000000000E+02  0.00000000000E+00 0. -1.
         23    2    1    2    0    0  0.00000000000E+00  0.00000000000E+00  0.00000000000E+00  0.10000000000E+03  0.10000000000E+03 0.  0.
          5    1    3    3  501    0 -0.41281611729E+02  0.27227021374E+02  0.56945447739E+01  0.50000000000E+02  0.47000000000E+01 0. -1.
         -5    1    3    3    0  501  0.41281611729E+02 -0.27227021374E+02 -0.56945447739E+01  0.50000000000E+02  0.47000000000E+01 0.  1.
</event>
<event>
 5    1  0.9091923E-001  0.1000000E+03  0.7546771E-02  0.1163815E+00
         11   -1    0    0    0    0  0.00000000000E+00  0.00000000000E+00  0.50000000000E+02  0.50000000000E+02  0.00000000000E+00 0.  1.
        -11   -1    0    0    0    0 -0.00000000000E+00 -0.00000000000E+00 -0.50000000000E+02  0.50000000000E+02  0.00000000000E+00 0. -1.
         23    2    1    2    0    0  0.00000000000E+00  0.00000000000E+00  0.00000000000E+00  0.10000000000E+03  0.10000000000E+03 0.  0.
          5    1    3    3  501    0  0.30028694957E+02  0.32712012944E+02 -0.22496926197E+02  0.50000000000E+02  0.47000000000E+01 0. -1.
         -5    1    3    3    0  501 -0.30028694957E+02 -0.32712012944E+02  0.22496926197E+02  0.50000000000E+02  0.47000000000E+01 0.  1.
</event>
<event>
 5    1  0.9091923E-001  0.1000000E+03  0.7546771E-02  0.1163815E+00
         11   -1    0    0    0    0  0.00000000000E+00  0.00000000000E+00  0.50000000000E+02  0.50000000000E+02  0.00000000000E+00 0.  1.
        -11   -1    0    0    0    0 -0.00000000000E+00 -0.00000000000E+00 -0.50000000000E+02  0.50000000000E+02  0.00000000000E+00 0. -1.
         23    2    1    2    0    0  0.00000000000E+00  0.00000000000E+00  0.00000000000E+00  0.10000000000E+03  0.10000000000E+03 0.  0.
          5    1    3    3  501    0  0.21628901247E+02  0.32277555592E+02 -0.31116877027E+02  0.50000000000E+02  0.47000000000E+01 0. -1.
         -5    1    3    3    0  501 -0.21628901247E+02 -0.32277555592E+02  0.31116877027E+02  0.50000000000E+02  0.47000000000E+01 0.  1.
</event>
<event>
 5    1  0.9091923E-001  0.1000000E+03  0.7546771E-02  0.1163815E+00
         11   -1    0    0    0    0  0.00000000000E+00  0.00000000000E+00  0.50000000000E+02  0.50000000000E+02  0.00000000000E+00 0. -1.
        -11   -1    0    0    0    0 -0.00000000000E+00 -0.00000000000E+00 -0.50000000000E+02  0.50000000000E+02  0.00000000000E+00 0.  1.
         23    2    1    2    0    0  0.00000000000E+00  0.00000000000E+00  0.00000000000E+00  0.10000000000E+03  0.10000000000E+03 0.  0.
          5    1    3    3  501    0 -0.27659074967E+02 -0.40669329314E+02  0.76740618361E+01  0.50000000000E+02  0.47000000000E+01 0. -1.
         -5    1    3    3    0  501  0.27659074967E+02  0.40669329314E+02 -0.76740618361E+01  0.50000000000E+02  0.47000000000E+01 0.  1.
</event>
<event>
 5    1  0.9091923E-001  0.1000000E+03  0.7546771E-02  0.1163815E+00
         11   -1    0    0    0    0  0.00000000000E+00  0.00000000000E+00  0.50000000000E+02  0.50000000000E+02  0.00000000000E+00 0. -1.
        -11   -1    0    0    0    0 -0.00000000000E+00 -0.00000000000E+00 -0.50000000000E+02  0.50000000000E+02  0.00000000000E+00 0.  1.
         23    2    1    2    0    0  0.00000000000E+00  0.00000000000E+00  0.00000000000E+00  0.10000000000E+03  0.10000000000E+03 0.  0.
          5    1    3    3  501    0 -0.21012635392E+02 -0.42214367784E+02  0.15947611310E+02  0.50000000000E+02  0.47000000000E+01 0. -1.
         -5    1    3    3    0  501  0.21012635392E+02  0.42214367784E+02 -0.15947611310E+02  0.50000000000E+02  0.47000000000E+01 0.  1.
</event>
<event>
 5    1  0.9091923E-001  0.1000000E+03  0.7546771E-02  0.1163815E+00
         11   -1    0    0    0    0  0.00000000000E+00  0.00000000000E+00  0.50000000000E+02  0.50000000000E+02  0.00000000000E+00 0. -1.
        -11   -1    0    0    0    0 -0.00000000000E+00 -0.00000000000E+00 -0.50000000000E+02  0.50000000000E+02  0.00000000000E+00 0.  1.
         23    2    1    2    0    0  0.00000000000E+00  0.00000000000E+00  0.00000000000E+00  0.10000000000E+03  0.10000000000E+03 0.  0.
          5    1    3    3  501    0 -0.13435438946E+02  0.34015981298E+02  0.33768505988E+02  0.50000000000E+02  0.47000000000E+01 0. -1.
         -5    1    3    3    0  501  0.13435438946E+02 -0.34015981298E+02 -0.33768505988E+02  0.50000000000E+02  0.47000000000E+01 0.  1.
</event>
<event>
 5    1  0.9091923E-001  0.1000000E+03  0.7546771E-02  0.1163815E+00
         11   -1    0    0    0    0  0.00000000000E+00  0.00000000000E+00  0.50000000000E+02  0.50000000000E+02  0.00000000000E+00 0.  1.
        -11   -1    0    0    0    0 -0.00000000000E+00 -0.00000000000E+00 -0.50000000000E+02  0.50000000000E+02  0.00000000000E+00 0. -1.
         23    2    1    2    0    0  0.00000000000E+00  0.00000000000E+00  0.00000000000E+00  0.10000000000E+03  0.10000000000E+03 0.  0.
          5    1    3    3  501    0 -0.16536262755E+01  0.33277717247E+02 -0.36983361867E+02  0.50000000000E+02  0.47000000000E+01 0. -1.
         -5    1    3    3    0  501  0.16536262755E+01 -0.33277717247E+02  0.36983361867E+02  0.50000000000E+02  0.47000000000E+01 0.  1.
</event>
<event>
 5    1  0.9091923E-001  0.1000000E+03  0.7546771E-02  0.1163815E+00
         11   -1    0    0    0    0  0.00000000000E+00  0.00000000000E+00  0.50000000000E+02  0.50000000000E+02  0.00000000000E+00 0.  1.
        -11   -1    0    0    0    0 -0.00000000000E+00 -0.00000000000E+00 -0.50000000000E+02  0.50000000000E+02  0.00000000000E+00 0. -1.
         23    2    1    2    0    0  0.00000000000E+00  0.00000000000E+00  0.00000000000E+00  0.10000000000E+03  0.10000000000E+03 0.  0.
          5    1    3    3  501    0 -0.23188839533E+02  0.28450836827E+02 -0.33626442051E+02  0.50000000000E+02  0.47000000000E+01 0. -1.
         -5    1    3    3    0  501  0.23188839533E+02 -0.28450836827E+02  0.33626442051E+02  0.50000000000E+02  0.47000000000E+01 0.  1.
</event>
<event>
 5    1  0.9091923E-001  0.1000000E+03  0.7546771E-02  0.1163815E+00
         11   -1    0    0    0    0  0.00000000000E+00  0.00000000000E+00  0.50000000000E+02  0.50000000000E+02  0.00000000000E+00 0. -1.
        -11   -1    0    0    0    0 -0.00000000000E+00 -0.00000000000E+00 -0.50000000000E+02  0.50000000000E+02  0.00000000000E+00 0.  1.
         23    2    1    2    0    0  0.00000000000E+00  0.00000000000E+00  0.00000000000E+00  0.10000000000E+03  0.10000000000E+03 0.  0.
          5    1    3    3  501    0 -0.10968426497E+02 -0.47898934768E+02 -0.79558574802E+01  0.50000000000E+02  0.47000000000E+01 0. -1.
         -5    1    3    3    0  501  0.10968426497E+02  0.47898934768E+02  0.79558574802E+01  0.50000000000E+02  0.47000000000E+01 0.  1.
</event>
<event>
 5    1  0.9091923E-001  0.1000000E+03  0.7546771E-02  0.1163815E+00
         11   -1    0    0    0    0  0.00000000000E+00  0.00000000000E+00  0.50000000000E+02  0.50000000000E+02  0.00000000000E+00 0.  1.
        -11   -1    0    0    0    0 -0.00000000000E+00 -0.00000000000E+00 -0.50000000000E+02  0.50000000000E+02  0.00000000000E+00 0. -1.
         23    2    1    2    0    0  0.00000000000E+00  0.00000000000E+00  0.00000000000E+00  0.10000000000E+03  0.10000000000E+03 0.  0.
          5    1    3    3  501    0 -0.15201923622E+01 -0.24179693449E+02  0.43484956478E+02  0.50000000000E+02  0.47000000000E+01 0.  1.
         -5    1    3    3    0  501  0.15201923622E+01  0.24179693449E+02 -0.43484956478E+02  0.50000000000E+02  0.47000000000E+01 0. -1.
</event>
<event>
 5    1  0.9091923E-001  0.1000000E+03  0.7546771E-02  0.1163815E+00
         11   -1    0    0    0    0  0.00000000000E+00  0.00000000000E+00  0.50000000000E+02  0.50000000000E+02  0.00000000000E+00 0. -1.
        -11   -1    0    0    0    0 -0.00000000000E+00 -0.00000000000E+00 -0.50000000000E+02  0.50000000000E+02  0.00000000000E+00 0.  1.
         23    2    1    2    0    0  0.00000000000E+00  0.00000000000E+00  0.00000000000E+00  0.10000000000E+03  0.10000000000E+03 0.  0.
          5    1    3    3  501    0 -0.29717895588E+02 -0.30860723915E+02  0.25345066605E+02  0.50000000000E+02  0.47000000000E+01 0. -1.
         -5    1    3    3    0  501  0.29717895588E+02  0.30860723915E+02 -0.25345066605E+02  0.50000000000E+02  0.47000000000E+01 0.  1.
</event>
<event>
 5    1  0.9091923E-001  0.1000000E+03  0.7546771E-02  0.1163815E+00
         11   -1    0    0    0    0  0.00000000000E+00  0.00000000000E+00  0.50000000000E+02  0.50000000000E+02  0.00000000000E+00 0. -1.
        -11   -1    0    0    0    0 -0.00000000000E+00 -0.00000000000E+00 -0.50000000000E+02  0.50000000000E+02  0.00000000000E+00 0.  1.
         23    2    1    2    0    0  0.00000000000E+00  0.00000000000E+00  0.00000000000E+00  0.10000000000E+03  0.10000000000E+03 0.  0.
          5    1    3    3  501    0 -0.24573977209E+02 -0.11114308594E+02  0.41838998418E+02  0.50000000000E+02  0.47000000000E+01 0. -1.
         -5    1    3    3    0  501  0.24573977209E+02  0.11114308594E+02 -0.41838998418E+02  0.50000000000E+02  0.47000000000E+01 0.  1.
</event>
<event>
 5    1  0.9091923E-001  0.1000000E+03  0.7546771E-02  0.1163815E+00
         11   -1    0    0    0    0  0.00000000000E+00  0.00000000000E+00  0.50000000000E+02  0.50000000000E+02  0.00000000000E+00 0.  1.
        -11   -1    0    0    0    0 -0.00000000000E+00 -0.00000000000E+00 -0.50000000000E+02  0.50000000000E+02  0.00000000000E+00 0. -1.
         23    2    1    2    0    0  0.00000000000E+00  0.00000000000E+00  0.00000000000E+00  0.10000000000E+03  0.10000000000E+03 0.  0.
          5    1    3    3  501    0 -0.17135080474E+02  0.45918901331E+02 -0.87036496769E+01  0.50000000000E+02  0.47000000000E+01 0. -1.
         -5    1    3    3    0  501  0.17135080474E+02 -0.45918901331E+02  0.87036496769E+01  0.50000000000E+02  0.47000000000E+01 0.  1.
</event>
<event>
 5    1  0.9091923E-001  0.1000000E+03  0.7546771E-02  0.1163815E+00
         11   -1    0    0    0    0  0.00000000000E+00  0.00000000000E+00  0.50000000000E+02  0.50000000000E+02  0.00000000000E+00 0. -1.
        -11   -1    0    0    0    0 -0.00000000000E+00 -0.00000000000E+00 -0.50000000000E+02  0.50000000000E+02  0.00000000000E+00 0.  1.
         23    2    1    2    0    0  0.00000000000E+00  0.00000000000E+00  0.00000000000E+00  0.10000000000E+03  0.10000000000E+03 0.  0.
          5    1    3    3  501    0  0.48321964004E+01  0.11354845349E+02  0.48224758839E+02  0.50000000000E+02  0.47000000000E+01 0. -1.
         -5    1    3    3    0  501 -0.48321964004E+01 -0.11354845349E+02 -0.48224758839E+02  0.50000000000E+02  0.47000000000E+01 0.  1.
</event>
<event>
 5    1  0.9091923E-001  0.1000000E+03  0.7546771E-02  0.1163815E+00
         11   -1    0    0    0    0  0.00000000000E+00  0.00000000000E+00  0.50000000000E+02  0.50000000000E+02  0.00000000000E+00 0.  1.
        -11   -1    0    0    0    0 -0.00000000000E+00 -0.00000000000E+00 -0.50000000000E+02  0.50000000000E+02  0.00000000000E+00 0. -1.
         23    2    1    2    0    0  0.00000000000E+00  0.00000000000E+00  0.00000000000E+00  0.10000000000E+03  0.10000000000E+03 0.  0.
          5    1    3    3  501    0 -0.11311827756E+02  0.40591806558E+02 -0.26500147041E+02  0.50000000000E+02  0.47000000000E+01 0. -1.
         -5    1    3    3    0  501  0.11311827756E+02 -0.40591806558E+02  0.26500147041E+02  0.50000000000E+02  0.47000000000E+01 0.  1.
</event>
<event>
 5    1  0.9091923E-001  0.1000000E+03  0.7546771E-02  0.1163815E+00
         11   -1    0    0    0    0  0.00000000000E+00  0.00000000000E+00  0.50000000000E+02  0.50000000000E+02  0.00000000000E+00 0.  1.
        -11   -1    0    0    0    0 -0.00000000000E+00 -0.00000000000E+00 -0.50000000000E+02  0.50000000000E+02  0.00000000000E+00 0. -1.
         23    2    1    2    0    0  0.00000000000E+00  0.00000000000E+00  0.00000000000E+00  0.10000000000E+03  0.10000000000E+03 0.  0.
          5    1    3    3  501    0 -0.68516639999E+01  0.47973969548E+02 -0.11378178513E+02  0.50000000000E+02  0.47000000000E+01 0. -1.
         -5    1    3    3    0  501  0.68516639999E+01 -0.47973969548E+02  0.11378178513E+02  0.50000000000E+02  0.47000000000E+01 0.  1.
</event>
<event>
 5    1  0.9091923E-001  0.1000000E+03  0.7546771E-02  0.1163815E+00
         11   -1    0    0    0    0  0.00000000000E+00  0.00000000000E+00  0.50000000000E+02  0.50000000000E+02  0.00000000000E+00 0. -1.
        -11   -1    0    0    0    0 -0.00000000000E+00 -0.00000000000E+00 -0.50000000000E+02  0.50000000000E+02  0.00000000000E+00 0.  1.
         23    2    1    2    0    0  0.00000000000E+00  0.00000000000E+00  0.00000000000E+00  0.10000000000E+03  0.10000000000E+03 0.  0.
          5    1    3    3  501    0  0.14322790637E+01  0.48047119037E+02 -0.12935722975E+02  0.50000000000E+02  0.47000000000E+01 0. -1.
         -5    1    3    3    0  501 -0.14322790637E+01 -0.48047119037E+02  0.12935722975E+02  0.50000000000E+02  0.47000000000E+01 0.  1.
</event>
<event>
 5    1  0.9091923E-001  0.1000000E+03  0.7546771E-02  0.1163815E+00
         11   -1    0    0    0    0  0.00000000000E+00  0.00000000000E+00  0.50000000000E+02  0.50000000000E+02  0.00000000000E+00 0. -1.
        -11   -1    0    0    0    0 -0.00000000000E+00 -0.00000000000E+00 -0.50000000000E+02  0.50000000000E+02  0.00000000000E+00 0.  1.
         23    2    1    2    0    0  0.00000000000E+00  0.00000000000E+00  0.00000000000E+00  0.10000000000E+03  0.10000000000E+03 0.  0.
          5    1    3    3  501    0 -0.12862458285E+02 -0.36527431165E+02  0.31276411869E+02  0.50000000000E+02  0.47000000000E+01 0. -1.
         -5    1    3    3    0  501  0.12862458285E+02  0.36527431165E+02 -0.31276411869E+02  0.50000000000E+02  0.47000000000E+01 0.  1.
</event>
<event>
 5    1  0.9091923E-001  0.1000000E+03  0.7546771E-02  0.1163815E+00
         11   -1    0    0    0    0  0.00000000000E+00  0.00000000000E+00  0.50000000000E+02  0.50000000000E+02  0.00000000000E+00 0. -1.
        -11   -1    0    0    0    0 -0.00000000000E+00 -0.00000000000E+00 -0.50000000000E+02  0.50000000000E+02  0.00000000000E+00 0.  1.
         23    2    1    2    0    0  0.00000000000E+00  0.00000000000E+00  0.00000000000E+00  0.10000000000E+03  0.10000000000E+03 0.  0.
          5    1    3    3  501    0 -0.47936496226E+02  0.84309182070E+01  0.10436567815E+02  0.50000000000E+02  0.47000000000E+01 0. -1.
         -5    1    3    3    0  501  0.47936496226E+02 -0.84309182070E+01 -0.10436567815E+02  0.50000000000E+02  0.47000000000E+01 0.  1.
</event>
<event>
 5    1  0.9091923E-001  0.1000000E+03  0.7546771E-02  0.1163815E+00
         11   -1    0    0    0    0  0.00000000000E+00  0.00000000000E+00  0.50000000000E+02  0.50000000000E+02  0.00000000000E+00 0. -1.
        -11   -1    0    0    0    0 -0.00000000000E+00 -0.00000000000E+00 -0.50000000000E+02  0.50000000000E+02  0.00000000000E+00 0.  1.
         23    2    1    2    0    0  0.00000000000E+00  0.00000000000E+00  0.00000000000E+00  0.10000000000E+03  0.10000000000E+03 0.  0.
          5    1    3    3  501    0 -0.14851817706E+02 -0.70788517053E+01  0.46981095872E+02  0.50000000000E+02  0.47000000000E+01 0. -1.
         -5    1    3    3    0  501  0.14851817706E+02  0.70788517053E+01 -0.46981095872E+02  0.50000000000E+02  0.47000000000E+01 0.  1.
</event>
<event>
 5    1  0.9091923E-001  0.1000000E+03  0.7546771E-02  0.1163815E+00
         11   -1    0    0    0    0  0.00000000000E+00  0.00000000000E+00  0.50000000000E+02  0.50000000000E+02  0.00000000000E+00 0. -1.
        -11   -1    0    0    0    0 -0.00000000000E+00 -0.00000000000E+00 -0.50000000000E+02  0.50000000000E+02  0.00000000000E+00 0.  1.
         23    2    1    2    0    0  0.00000000000E+00  0.00000000000E+00  0.00000000000E+00  0.10000000000E+03  0.10000000000E+03 0.  0.
          5    1    3    3  501    0  0.48004357364E+02  0.10420059700E+02  0.80569243433E+01  0.50000000000E+02  0.47000000000E+01 0. -1.
         -5    1    3    3    0  501 -0.48004357364E+02 -0.10420059700E+02 -0.80569243433E+01  0.50000000000E+02  0.47000000000E+01 0.  1.
</event>
<event>
 5    1  0.9091923E-001  0.1000000E+03  0.7546771E-02  0.1163815E+00
         11   -1    0    0    0    0  0.00000000000E+00  0.00000000000E+00  0.50000000000E+02  0.50000000000E+02  0.00000000000E+00 0.  1.
        -11   -1    0    0    0    0 -0.00000000000E+00 -0.00000000000E+00 -0.50000000000E+02  0.50000000000E+02  0.00000000000E+00 0. -1.
         23    2    1    2    0    0  0.00000000000E+00  0.00000000000E+00  0.00000000000E+00  0.10000000000E+03  0.10000000000E+03 0.  0.
          5    1    3    3  501    0 -0.24818261582E+02  0.39665730937E+02 -0.16988045246E+02  0.50000000000E+02  0.47000000000E+01 0. -1.
         -5    1    3    3    0  501  0.24818261582E+02 -0.39665730937E+02  0.16988045246E+02  0.50000000000E+02  0.47000000000E+01 0.  1.
</event>
<event>
 5    1  0.9091923E-001  0.1000000E+03  0.7546771E-02  0.1163815E+00
         11   -1    0    0    0    0  0.00000000000E+00  0.00000000000E+00  0.50000000000E+02  0.50000000000E+02  0.00000000000E+00 0.  1.
        -11   -1    0    0    0    0 -0.00000000000E+00 -0.00000000000E+00 -0.50000000000E+02  0.50000000000E+02  0.00000000000E+00 0. -1.
         23    2    1    2    0    0  0.00000000000E+00  0.00000000000E+00  0.00000000000E+00  0.10000000000E+03  0.10000000000E+03 0.  0.
          5    1    3    3  501    0 -0.28480271855E+02 -0.25550616257E+02 -0.31842583500E+02  0.50000000000E+02  0.47000000000E+01 0. -1.
         -5    1    3    3    0  501  0.28480271855E+02  0.25550616257E+02  0.31842583500E+02  0.50000000000E+02  0.47000000000E+01 0.  1.
</event>
<event>
 5    1  0.9091923E-001  0.1000000E+03  0.7546771E-02  0.1163815E+00
         11   -1    0    0    0    0  0.00000000000E+00  0.00000000000E+00  0.50000000000E+02  0.50000000000E+02  0.00000000000E+00 0. -1.
        -11   -1    0    0    0    0 -0.00000000000E+00 -0.00000000000E+00 -0.50000000000E+02  0.50000000000E+02  0.00000000000E+00 0.  1.
         23    2    1    2    0    0  0.00000000000E+00  0.00000000000E+00  0.00000000000E+00  0.10000000000E+03  0.10000000000E+03 0.  0.
          5    1    3    3  501    0 -0.41584787673E+02  0.23588133744E+02  0.13864176162E+02  0.50000000000E+02  0.47000000000E+01 0. -1.
         -5    1    3    3    0  501  0.41584787673E+02 -0.23588133744E+02 -0.13864176162E+02  0.50000000000E+02  0.47000000000E+01 0.  1.
</event>
<event>
 5    1  0.9091923E-001  0.1000000E+03  0.7546771E-02  0.1163815E+00
         11   -1    0    0    0    0  0.00000000000E+00  0.00000000000E+00  0.50000000000E+02  0.50000000000E+02  0.00000000000E+00 0.  1.
        -11   -1    0    0    0    0 -0.00000000000E+00 -0.00000000000E+00 -0.50000000000E+02  0.50000000000E+02  0.00000000000E+00 0. -1.
         23    2    1    2    0    0  0.00000000000E+00  0.00000000000E+00  0.00000000000E+00  0.10000000000E+03  0.10000000000E+03 0.  0.
          5    1    3    3  501    0 -0.35458899017E+02 -0.30504227942E+02 -0.17031399184E+02  0.50000000000E+02  0.47000000000E+01 0. -1.
         -5    1    3    3    0  501  0.35458899017E+02  0.30504227942E+02  0.17031399184E+02  0.50000000000E+02  0.47000000000E+01 0.  1.
</event>
<event>
 5    1  0.9091923E-001  0.1000000E+03  0.7546771E-02  0.1163815E+00
         11   -1    0    0    0    0  0.00000000000E+00  0.00000000000E+00  0.50000000000E+02  0.50000000000E+02  0.00000000000E+00 0. -1.
        -11   -1    0    0    0    0 -0.00000000000E+00 -0.00000000000E+00 -0.50000000000E+02  0.50000000000E+02  0.00000000000E+00 0.  1.
         23    2    1    2    0    0  0.00000000000E+00  0.00000000000E+00  0.00000000000E+00  0.10000000000E+03  0.10000000000E+03 0.  0.
          5    1    3    3  501    0  0.43491831693E+02 -0.31433652797E+01 -0.24010202638E+02  0.50000000000E+02  0.47000000000E+01 0. -1.
         -5    1    3    3    0  501 -0.43491831693E+02  0.31433652797E+01  0.24010202638E+02  0.50000000000E+02  0.47000000000E+01 0.  1.
</event>
<event>
 5    1  0.9091923E-001  0.1000000E+03  0.7546771E-02  0.1163815E+00
         11   -1    0    0    0    0  0.00000000000E+00  0.00000000000E+00  0.50000000000E+02  0.50000000000E+02  0.00000000000E+00 0. -1.
        -11   -1    0    0    0    0 -0.00000000000E+00 -0.00000000000E+00 -0.50000000000E+02  0.50000000000E+02  0.00000000000E+00 0.  1.
         23    2    1    2    0    0  0.00000000000E+00  0.00000000000E+00  0.00000000000E+00  0.10000000000E+03  0.10000000000E+03 0.  0.
          5    1    3    3  501    0 -0.49278696775E+02  0.13931253876E+01  0.68977710782E+01  0.50000000000E+02  0.47000000000E+01 0. -1.
         -5    1    3    3    0  501  0.49278696775E+02 -0.13931253876E+01 -0.68977710782E+01  0.50000000000E+02  0.47000000000E+01 0.  1.
</event>
<event>
 5    1  0.9091923E-001  0.1000000E+03  0.7546771E-02  0.1163815E+00
         11   -1    0    0    0    0  0.00000000000E+00  0.00000000000E+00  0.50000000000E+02  0.50000000000E+02  0.00000000000E+00 0. -1.
        -11   -1    0    0    0    0 -0.00000000000E+00 -0.00000000000E+00 -0.50000000000E+02  0.50000000000E+02  0.00000000000E+00 0.  1.
         23    2    1    2    0    0  0.00000000000E+00  0.00000000000E+00  0.00000000000E+00  0.10000000000E+03  0.10000000000E+03 0.  0.
          5    1    3    3  501    0  0.19514121334E+02 -0.37626517349E+02  0.26102763470E+02  0.50000000000E+02  0.47000000000E+01 0. -1.
         -5    1    3    3    0  501 -0.19514121334E+02  0.37626517349E+02 -0.26102763470E+02  0.50000000000E+02  0.47000000000E+01 0.  1.
</event>
<event>
 5    1  0.9091923E-001  0.1000000E+03  0.7546771E-02  0.1163815E+00
         11   -1    0    0    0    0  0.00000000000E+00  0.00000000000E+00  0.50000000000E+02  0.50000000000E+02  0.00000000000E+00 0. -1.
        -11   -1    0    0    0    0 -0.00000000000E+00 -0.00000000000E+00 -0.50000000000E+02  0.50000000000E+02  0.00000000000E+00 0.  1.
         23    2    1    2    0    0  0.00000000000E+00  0.00000000000E+00  0.00000000000E+00  0.10000000000E+03  0.10000000000E+03 0.  0.
          5    1    3    3  501    0 -0.36459504026E+02  0.22897577761E+02  0.24986306227E+02  0.50000000000E+02  0.47000000000E+01 0. -1.
         -5    1    3    3    0  501  0.36459504026E+02 -0.22897577761E+02 -0.24986306227E+02  0.50000000000E+02  0.47000000000E+01 0.  1.
</event>
<event>
 5    1  0.9091923E-001  0.1000000E+03  0.7546771E-02  0.1163815E+00
         11   -1    0    0    0    0  0.00000000000E+00  0.00000000000E+00  0.50000000000E+02  0.50000000000E+02  0.00000000000E+00 0. -1.
        -11   -1    0    0    0    0 -0.00000000000E+00 -0.00000000000E+00 -0.50000000000E+02  0.50000000000E+02  0.00000000000E+00 0.  1.
         23    2    1    2    0    0  0.00000000000E+00  0.00000000000E+00  0.00000000000E+00  0.10000000000E+03  0.10000000000E+03 0.  0.
          5    1    3    3  501    0 -0.31914036358E+02 -0.29929408403E+02 -0.23740993997E+02  0.50000000000E+02  0.47000000000E+01 0. -1.
         -5    1    3    3    0  501  0.31914036358E+02  0.29929408403E+02  0.23740993997E+02  0.50000000000E+02  0.47000000000E+01 0.  1.
</event>
<event>
 5    1  0.9091923E-001  0.1000000E+03  0.7546771E-02  0.1163815E+00
         11   -1    0    0    0    0  0.00000000000E+00  0.00000000000E+00  0.50000000000E+02  0.50000000000E+02  0.00000000000E+00 0. -1.
        -11   -1    0    0    0    0 -0.00000000000E+00 -0.00000000000E+00 -0.50000000000E+02  0.50000000000E+02  0.00000000000E+00 0.  1.
         23    2    1    2    0    0  0.00000000000E+00  0.00000000000E+00  0.00000000000E+00  0.10000000000E+03  0.10000000000E+03 0.  0.
          5    1    3    3  501    0 -0.49681459433E+02 -0.25152609523E+01  0.18264859476E+01  0.50000000000E+02  0.47000000000E+01 0. -1.
         -5    1    3    3    0  501  0.49681459433E+02  0.25152609523E+01 -0.18264859476E+01  0.50000000000E+02  0.47000000000E+01 0.  1.
</event>
<event>
 5    1  0.9091923E-001  0.1000000E+03  0.7546771E-02  0.1163815E+00
         11   -1    0    0    0    0  0.00000000000E+00  0.00000000000E+00  0.50000000000E+02  0.50000000000E+02  0.00000000000E+00 0. -1.
        -11   -1    0    0    0    0 -0.00000000000E+00 -0.00000000000E+00 -0.50000000000E+02  0.50000000000E+02  0.00000000000E+00 0.  1.
         23    2    1    2    0    0  0.00000000000E+00  0.00000000000E+00  0.00000000000E+00  0.10000000000E+03  0.10000000000E+03 0.  0.
          5    1    3    3  501    0  0.29386047841E+02 -0.36548813168E+02  0.16689950517E+02  0.50000000000E+02  0.47000000000E+01 0. -1.
         -5    1    3    3    0  501 -0.29386047841E+02  0.36548813168E+02 -0.16689950517E+02  0.50000000000E+02  0.47000000000E+01 0.  1.
</event>
<event>
 5    1  0.9091923E-001  0.1000000E+03  0.7546771E-02  0.1163815E+00
         11   -1    0    0    0    0  0.00000000000E+00  0.00000000000E+00  0.50000000000E+02  0.50000000000E+02  0.00000000000E+00 0.  1.
        -11   -1    0    0    0    0 -0.00000000000E+00 -0.00000000000E+00 -0.50000000000E+02  0.50000000000E+02  0.00000000000E+00 0. -1.
         23    2    1    2    0    0  0.00000000000E+00  0.00000000000E+00  0.00000000000E+00  0.10000000000E+03  0.10000000000E+03 0.  0.
          5    1    3    3  501    0 -0.32630270576E+01  0.44553438806E+02 -0.21960276524E+02  0.50000000000E+02  0.47000000000E+01 0. -1.
         -5    1    3    3    0  501  0.32630270576E+01 -0.44553438806E+02  0.21960276524E+02  0.50000000000E+02  0.47000000000E+01 0.  1.
</event>
<event>
 5    1  0.9091923E-001  0.1000000E+03  0.7546771E-02  0.1163815E+00
         11   -1    0    0    0    0  0.00000000000E+00  0.00000000000E+00  0.50000000000E+02  0.50000000000E+02  0.00000000000E+00 0. -1.
        -11   -1    0    0    0    0 -0.00000000000E+00 -0.00000000000E+00 -0.50000000000E+02  0.50000000000E+02  0.00000000000E+00 0.  1.
         23    2    1    2    0    0  0.00000000000E+00  0.00000000000E+00  0.00000000000E+00  0.10000000000E+03  0.10000000000E+03 0.  0.
          5    1    3    3  501    0 -0.45816193044E+02 -0.63291194668E+01  0.18404583715E+02  0.50000000000E+02  0.47000000000E+01 0. -1.
         -5    1    3    3    0  501  0.45816193044E+02  0.63291194668E+01 -0.18404583715E+02  0.50000000000E+02  0.47000000000E+01 0.  1.
</event>
<event>
 5    1  0.9091923E-001  0.1000000E+03  0.7546771E-02  0.1163815E+00
         11   -1    0    0    0    0  0.00000000000E+00  0.00000000000E+00  0.50000000000E+02  0.50000000000E+02  0.00000000000E+00 0. -1.
        -11   -1    0    0    0    0 -0.00000000000E+00 -0.00000000000E+00 -0.50000000000E+02  0.50000000000E+02  0.00000000000E+00 0.  1.
         23    2    1    2    0    0  0.00000000000E+00  0.00000000000E+00  0.00000000000E+00  0.10000000000E+03  0.10000000000E+03 0.  0.
          5    1    3    3  501    0  0.12598464094E+02 -0.45340377184E+02  0.16230800945E+02  0.50000000000E+02  0.47000000000E+01 0. -1.
         -5    1    3    3    0  501 -0.12598464094E+02  0.45340377184E+02 -0.16230800945E+02  0.50000000000E+02  0.47000000000E+01 0.  1.
</event>
<event>
 5    1  0.9091923E-001  0.1000000E+03  0.7546771E-02  0.1163815E+00
         11   -1    0    0    0    0  0.00000000000E+00  0.00000000000E+00  0.50000000000E+02  0.50000000000E+02  0.00000000000E+00 0. -1.
        -11   -1    0    0    0    0 -0.00000000000E+00 -0.00000000000E+00 -0.50000000000E+02  0.50000000000E+02  0.00000000000E+00 0.  1.
         23    2    1    2    0    0  0.00000000000E+00  0.00000000000E+00  0.00000000000E+00  0.10000000000E+03  0.10000000000E+03 0.  0.
          5    1    3    3  501    0 -0.38327991536E+02 -0.31459061518E+02  0.43820672327E+01  0.50000000000E+02  0.47000000000E+01 0. -1.
         -5    1    3    3    0  501  0.38327991536E+02  0.31459061518E+02 -0.43820672327E+01  0.50000000000E+02  0.47000000000E+01 0.  1.
</event>
<event>
 5    1  0.9091923E-001  0.1000000E+03  0.7546771E-02  0.1163815E+00
         11   -1    0    0    0    0  0.00000000000E+00  0.00000000000E+00  0.50000000000E+02  0.50000000000E+02  0.00000000000E+00 0. -1.
        -11   -1    0    0    0    0 -0.00000000000E+00 -0.00000000000E+00 -0.50000000000E+02  0.50000000000E+02  0.00000000000E+00 0.  1.
         23    2    1    2    0    0  0.00000000000E+00  0.00000000000E+00  0.00000000000E+00  0.10000000000E+03  0.10000000000E+03 0.  0.
          5    1    3    3  501    0  0.26202060818E+02  0.16575895715E+02  0.38943570588E+02  0.50000000000E+02  0.47000000000E+01 0. -1.
         -5    1    3    3    0  501 -0.26202060818E+02 -0.16575895715E+02 -0.38943570588E+02  0.50000000000E+02  0.47000000000E+01 0.  1.
</event>
<event>
 5    1  0.9091923E-001  0.1000000E+03  0.7546771E-02  0.1163815E+00
         11   -1    0    0    0    0  0.00000000000E+00  0.00000000000E+00  0.50000000000E+02  0.50000000000E+02  0.00000000000E+00 0. -1.
        -11   -1    0    0    0    0 -0.00000000000E+00 -0.00000000000E+00 -0.50000000000E+02  0.50000000000E+02  0.00000000000E+00 0.  1.
         23    2    1    2    0    0  0.00000000000E+00  0.00000000000E+00  0.00000000000E+00  0.10000000000E+03  0.10000000000E+03 0.  0.
          5    1    3    3  501    0  0.18384638633E+02 -0.29561432674E+01  0.46164664835E+02  0.50000000000E+02  0.47000000000E+01 0. -1.
         -5    1    3    3    0  501 -0.18384638633E+02  0.29561432674E+01 -0.46164664835E+02  0.50000000000E+02  0.47000000000E+01 0.  1.
</event>
<event>
 5    1  0.9091923E-001  0.1000000E+03  0.7546771E-02  0.1163815E+00
         11   -1    0    0    0    0  0.00000000000E+00  0.00000000000E+00  0.50000000000E+02  0.50000000000E+02  0.00000000000E+00 0. -1.
        -11   -1    0    0    0    0 -0.00000000000E+00 -0.00000000000E+00 -0.50000000000E+02  0.50000000000E+02  0.00000000000E+00 0.  1.
         23    2    1    2    0    0  0.00000000000E+00  0.00000000000E+00  0.00000000000E+00  0.10000000000E+03  0.10000000000E+03 0.  0.
          5    1    3    3  501    0 -0.35566967643E+02 -0.34823232190E+02 -0.49326717009E+00  0.50000000000E+02  0.47000000000E+01 0. -1.
         -5    1    3    3    0  501  0.35566967643E+02  0.34823232190E+02  0.49326717009E+00  0.50000000000E+02  0.47000000000E+01 0.  1.
</event>
<event>
 5    1  0.9091923E-001  0.1000000E+03  0.7546771E-02  0.1163815E+00
         11   -1    0    0    0    0  0.00000000000E+00  0.00000000000E+00  0.50000000000E+02  0.50000000000E+02  0.00000000000E+00 0. -1.
        -11   -1    0    0    0    0 -0.00000000000E+00 -0.00000000000E+00 -0.50000000000E+02  0.50000000000E+02  0.00000000000E+00 0.  1.
         23    2    1    2    0    0  0.00000000000E+00  0.00000000000E+00  0.00000000000E+00  0.10000000000E+03  0.10000000000E+03 0.  0.
          5    1    3    3  501    0 -0.24944080153E+02 -0.22686893493E+02 -0.36619772377E+02  0.50000000000E+02  0.47000000000E+01 0. -1.
         -5    1    3    3    0  501  0.24944080153E+02  0.22686893493E+02  0.36619772377E+02  0.50000000000E+02  0.47000000000E+01 0.  1.
</event>
<event>
 5    1  0.9091923E-001  0.1000000E+03  0.7546771E-02  0.1163815E+00
         11   -1    0    0    0    0  0.00000000000E+00  0.00000000000E+00  0.50000000000E+02  0.50000000000E+02  0.00000000000E+00 0. -1.
        -11   -1    0    0    0    0 -0.00000000000E+00 -0.00000000000E+00 -0.50000000000E+02  0.50000000000E+02  0.00000000000E+00 0.  1.
         23    2    1    2    0    0  0.00000000000E+00  0.00000000000E+00  0.00000000000E+00  0.10000000000E+03  0.10000000000E+03 0.  0.
          5    1    3    3  501    0  0.27305435673E+02 -0.40584337894E+02  0.92322640997E+01  0.50000000000E+02  0.47000000000E+01 0. -1.
         -5    1    3    3    0  501 -0.27305435673E+02  0.40584337894E+02 -0.92322640997E+01  0.50000000000E+02  0.47000000000E+01 0.  1.
</event>
<event>
 5    1  0.9091923E-001  0.1000000E+03  0.7546771E-02  0.1163815E+00
         11   -1    0    0    0    0  0.00000000000E+00  0.00000000000E+00  0.50000000000E+02  0.50000000000E+02  0.00000000000E+00 0.  1.
        -11   -1    0    0    0    0 -0.00000000000E+00 -0.00000000000E+00 -0.50000000000E+02  0.50000000000E+02  0.00000000000E+00 0. -1.
         23    2    1    2    0    0  0.00000000000E+00  0.00000000000E+00  0.00000000000E+00  0.10000000000E+03  0.10000000000E+03 0.  0.
          5    1    3    3  501    0  0.37557330855E+02  0.21050066287E+02  0.24985027684E+02  0.50000000000E+02  0.47000000000E+01 0. -1.
         -5    1    3    3    0  501 -0.37557330855E+02 -0.21050066287E+02 -0.24985027684E+02  0.50000000000E+02  0.47000000000E+01 0.  1.
</event>
<event>
 5    1  0.9091923E-001  0.1000000E+03  0.7546771E-02  0.1163815E+00
         11   -1    0    0    0    0  0.00000000000E+00  0.00000000000E+00  0.50000000000E+02  0.50000000000E+02  0.00000000000E+00 0. -1.
        -11   -1    0    0    0    0 -0.00000000000E+00 -0.00000000000E+00 -0.50000000000E+02  0.50000000000E+02  0.00000000000E+00 0.  1.
         23    2    1    2    0    0  0.00000000000E+00  0.00000000000E+00  0.00000000000E+00  0.10000000000E+03  0.10000000000E+03 0.  0.
          5    1    3    3  501    0  0.19940372583E+01 -0.15004197226E+02  0.47421597200E+02  0.50000000000E+02  0.47000000000E+01 0. -1.
         -5    1    3    3    0  501 -0.19940372583E+01  0.15004197226E+02 -0.47421597200E+02  0.50000000000E+02  0.47000000000E+01 0.  1.
</event>
<event>
 5    1  0.9091923E-001  0.1000000E+03  0.7546771E-02  0.1163815E+00
         11   -1    0    0    0    0  0.00000000000E+00  0.00000000000E+00  0.50000000000E+02  0.50000000000E+02  0.00000000000E+00 0. -1.
        -11   -1    0    0    0    0 -0.00000000000E+00 -0.00000000000E+00 -0.50000000000E+02  0.50000000000E+02  0.00000000000E+00 0.  1.
         23    2    1    2    0    0  0.00000000000E+00  0.00000000000E+00  0.00000000000E+00  0.10000000000E+03  0.10000000000E+03 0.  0.
          5    1    3    3  501    0  0.41514021913E+02 -0.13225197008E+02  0.24074678580E+02  0.50000000000E+02  0.47000000000E+01 0. -1.
         -5    1    3    3    0  501 -0.41514021913E+02  0.13225197008E+02 -0.24074678580E+02  0.50000000000E+02  0.47000000000E+01 0.  1.
</event>
<event>
 5    1  0.9091923E-001  0.1000000E+03  0.7546771E-02  0.1163815E+00
         11   -1    0    0    0    0  0.00000000000E+00  0.00000000000E+00  0.50000000000E+02  0.50000000000E+02  0.00000000000E+00 0.  1.
        -11   -1    0    0    0    0 -0.00000000000E+00 -0.00000000000E+00 -0.50000000000E+02  0.50000000000E+02  0.00000000000E+00 0. -1.
         23    2    1    2    0    0  0.00000000000E+00  0.00000000000E+00  0.00000000000E+00  0.10000000000E+03  0.10000000000E+03 0.  0.
          5    1    3    3  501    0  0.32685591391E+02  0.26524559503E+01 -0.37450321665E+02  0.50000000000E+02  0.47000000000E+01 0. -1.
         -5    1    3    3    0  501 -0.32685591391E+02 -0.26524559503E+01  0.37450321665E+02  0.50000000000E+02  0.47000000000E+01 0.  1.
</event>
<event>
 5    1  0.9091923E-001  0.1000000E+03  0.7546771E-02  0.1163815E+00
         11   -1    0    0    0    0  0.00000000000E+00  0.00000000000E+00  0.50000000000E+02  0.50000000000E+02  0.00000000000E+00 0. -1.
        -11   -1    0    0    0    0 -0.00000000000E+00 -0.00000000000E+00 -0.50000000000E+02  0.50000000000E+02  0.00000000000E+00 0.  1.
         23    2    1    2    0    0  0.00000000000E+00  0.00000000000E+00  0.00000000000E+00  0.10000000000E+03  0.10000000000E+03 0.  0.
          5    1    3    3  501    0  0.23704576111E+02  0.66093120317E+01  0.43270313910E+02  0.50000000000E+02  0.47000000000E+01 0. -1.
         -5    1    3    3    0  501 -0.23704576111E+02 -0.66093120317E+01 -0.43270313910E+02  0.50000000000E+02  0.47000000000E+01 0.  1.
</event>
<event>
 5    1  0.9091923E-001  0.1000000E+03  0.7546771E-02  0.1163815E+00
         11   -1    0    0    0    0  0.00000000000E+00  0.00000000000E+00  0.50000000000E+02  0.50000000000E+02  0.00000000000E+00 0. -1.
        -11   -1    0    0    0    0 -0.00000000000E+00 -0.00000000000E+00 -0.50000000000E+02  0.50000000000E+02  0.00000000000E+00 0.  1.
         23    2    1    2    0    0  0.00000000000E+00  0.00000000000E+00  0.00000000000E+00  0.10000000000E+03  0.10000000000E+03 0.  0.
          5    1    3    3  501    0 -0.18914675638E-01  0.89825506613E+01  0.48961448363E+02  0.50000000000E+02  0.47000000000E+01 0. -1.
         -5    1    3    3    0  501  0.18914675638E-01 -0.89825506613E+01 -0.48961448363E+02  0.50000000000E+02  0.47000000000E+01 0.  1.
</event>
<event>
 5    1  0.9091923E-001  0.1000000E+03  0.7546771E-02  0.1163815E+00
         11   -1    0    0    0    0  0.00000000000E+00  0.00000000000E+00  0.50000000000E+02  0.50000000000E+02  0.00000000000E+00 0.  1.
        -11   -1    0    0    0    0 -0.00000000000E+00 -0.00000000000E+00 -0.50000000000E+02  0.50000000000E+02  0.00000000000E+00 0. -1.
         23    2    1    2    0    0  0.00000000000E+00  0.00000000000E+00  0.00000000000E+00  0.10000000000E+03  0.10000000000E+03 0.  0.
          5    1    3    3  501    0 -0.32725464953E+02  0.15507340260E+02 -0.34153716367E+02  0.50000000000E+02  0.47000000000E+01 0. -1.
         -5    1    3    3    0  501  0.32725464953E+02 -0.15507340260E+02  0.34153716367E+02  0.50000000000E+02  0.47000000000E+01 0.  1.
</event>
<event>
 5    1  0.9091923E-001  0.1000000E+03  0.7546771E-02  0.1163815E+00
         11   -1    0    0    0    0  0.00000000000E+00  0.00000000000E+00  0.50000000000E+02  0.50000000000E+02  0.00000000000E+00 0. -1.
        -11   -1    0    0    0    0 -0.00000000000E+00 -0.00000000000E+00 -0.50000000000E+02  0.50000000000E+02  0.00000000000E+00 0.  1.
         23    2    1    2    0    0  0.00000000000E+00  0.00000000000E+00  0.00000000000E+00  0.10000000000E+03  0.10000000000E+03 0.  0.
          5    1    3    3  501    0 -0.33322416283E+02  0.34958703552E+02  0.12058839870E+02  0.50000000000E+02  0.47000000000E+01 0. -1.
         -5    1    3    3    0  501  0.33322416283E+02 -0.34958703552E+02 -0.12058839870E+02  0.50000000000E+02  0.47000000000E+01 0.  1.
</event>
<event>
 5    1  0.9091923E-001  0.1000000E+03  0.7546771E-02  0.1163815E+00
         11   -1    0    0    0    0  0.00000000000E+00  0.00000000000E+00  0.50000000000E+02  0.50000000000E+02  0.00000000000E+00 0. -1.
        -11   -1    0    0    0    0 -0.00000000000E+00 -0.00000000000E+00 -0.50000000000E+02  0.50000000000E+02  0.00000000000E+00 0.  1.
         23    2    1    2    0    0  0.00000000000E+00  0.00000000000E+00  0.00000000000E+00  0.10000000000E+03  0.10000000000E+03 0.  0.
          5    1    3    3  501    0 -0.16237935192E+00  0.91031772515E+01  0.48938898607E+02  0.50000000000E+02  0.47000000000E+01 0. -1.
         -5    1    3    3    0  501  0.16237935192E+00 -0.91031772515E+01 -0.48938898607E+02  0.50000000000E+02  0.47000000000E+01 0.  1.
</event>
<event>
 5    1  0.9091923E-001  0.1000000E+03  0.7546771E-02  0.1163815E+00
         11   -1    0    0    0    0  0.00000000000E+00  0.00000000000E+00  0.50000000000E+02  0.50000000000E+02  0.00000000000E+00 0. -1.
        -11   -1    0    0    0    0 -0.00000000000E+00 -0.00000000000E+00 -0.50000000000E+02  0.50000000000E+02  0.00000000000E+00 0.  1.
         23    2    1    2    0    0  0.00000000000E+00  0.00000000000E+00  0.00000000000E+00  0.10000000000E+03  0.10000000000E+03 0.  0.
          5    1    3    3  501    0  0.22141300101E+02  0.35791414121E+02  0.26582842307E+02  0.50000000000E+02  0.47000000000E+01 0. -1.
         -5    1    3    3    0  501 -0.22141300101E+02 -0.35791414121E+02 -0.26582842307E+02  0.50000000000E+02  0.47000000000E+01 0.  1.
</event>
<event>
 5    1  0.9091923E-001  0.1000000E+03  0.7546771E-02  0.1163815E+00
         11   -1    0    0    0    0  0.00000000000E+00  0.00000000000E+00  0.50000000000E+02  0.50000000000E+02  0.00000000000E+00 0.  1.
        -11   -1    0    0    0    0 -0.00000000000E+00 -0.00000000000E+00 -0.50000000000E+02  0.50000000000E+02  0.00000000000E+00 0. -1.
         23    2    1    2    0    0  0.00000000000E+00  0.00000000000E+00  0.00000000000E+00  0.10000000000E+03  0.10000000000E+03 0.  0.
          5    1    3    3  501    0  0.31992937106E+02  0.10519018582E+01 -0.38121588081E+02  0.50000000000E+02  0.47000000000E+01 0. -1.
         -5    1    3    3    0  501 -0.31992937106E+02 -0.10519018582E+01  0.38121588081E+02  0.50000000000E+02  0.47000000000E+01 0.  1.
</event>
<event>
 5    1  0.9091923E-001  0.1000000E+03  0.7546771E-02  0.1163815E+00
         11   -1    0    0    0    0  0.00000000000E+00  0.00000000000E+00  0.50000000000E+02  0.50000000000E+02  0.00000000000E+00 0.  1.
        -11   -1    0    0    0    0 -0.00000000000E+00 -0.00000000000E+00 -0.50000000000E+02  0.50000000000E+02  0.00000000000E+00 0. -1.
         23    2    1    2    0    0  0.00000000000E+00  0.00000000000E+00  0.00000000000E+00  0.10000000000E+03  0.10000000000E+03 0.  0.
          5    1    3    3  501    0 -0.45755147092E+02  0.13769220595E+02 -0.13956542509E+02  0.50000000000E+02  0.47000000000E+01 0. -1.
         -5    1    3    3    0  501  0.45755147092E+02 -0.13769220595E+02  0.13956542509E+02  0.50000000000E+02  0.47000000000E+01 0.  1.
</event>
<event>
 5    1  0.9091923E-001  0.1000000E+03  0.7546771E-02  0.1163815E+00
         11   -1    0    0    0    0  0.00000000000E+00  0.00000000000E+00  0.50000000000E+02  0.50000000000E+02  0.00000000000E+00 0. -1.
        -11   -1    0    0    0    0 -0.00000000000E+00 -0.00000000000E+00 -0.50000000000E+02  0.50000000000E+02  0.00000000000E+00 0.  1.
         23    2    1    2    0    0  0.00000000000E+00  0.00000000000E+00  0.00000000000E+00  0.10000000000E+03  0.10000000000E+03 0.  0.
          5    1    3    3  501    0 -0.31676745127E+02  0.21092567515E+02  0.32087340398E+02  0.50000000000E+02  0.47000000000E+01 0. -1.
         -5    1    3    3    0  501  0.31676745127E+02 -0.21092567515E+02 -0.32087340398E+02  0.50000000000E+02  0.47000000000E+01 0.  1.
</event>
<event>
 5    1  0.9091923E-001  0.1000000E+03  0.7546771E-02  0.1163815E+00
         11   -1    0    0    0    0  0.00000000000E+00  0.00000000000E+00  0.50000000000E+02  0.50000000000E+02  0.00000000000E+00 0. -1.
        -11   -1    0    0    0    0 -0.00000000000E+00 -0.00000000000E+00 -0.50000000000E+02  0.50000000000E+02  0.00000000000E+00 0.  1.
         23    2    1    2    0    0  0.00000000000E+00  0.00000000000E+00  0.00000000000E+00  0.10000000000E+03  0.10000000000E+03 0.  0.
          5    1    3    3  501    0 -0.31113512422E+02 -0.24824683907E+02  0.29893049588E+02  0.50000000000E+02  0.47000000000E+01 0. -1.
         -5    1    3    3    0  501  0.31113512422E+02  0.24824683907E+02 -0.29893049588E+02  0.50000000000E+02  0.47000000000E+01 0.  1.
</event>
<event>
 5    1  0.9091923E-001  0.1000000E+03  0.7546771E-02  0.1163815E+00
         11   -1    0    0    0    0  0.00000000000E+00  0.00000000000E+00  0.50000000000E+02  0.50000000000E+02  0.00000000000E+00 0. -1.
        -11   -1    0    0    0    0 -0.00000000000E+00 -0.00000000000E+00 -0.50000000000E+02  0.50000000000E+02  0.00000000000E+00 0.  1.
         23    2    1    2    0    0  0.00000000000E+00  0.00000000000E+00  0.00000000000E+00  0.10000000000E+03  0.10000000000E+03 0.  0.
          5    1    3    3  501    0 -0.21446019008E+01 -0.49708971928E+02 -0.15260381953E+01  0.50000000000E+02  0.47000000000E+01 0. -1.
         -5    1    3    3    0  501  0.21446019008E+01  0.49708971928E+02  0.15260381953E+01  0.50000000000E+02  0.47000000000E+01 0.  1.
</event>
<event>
 5    1  0.9091923E-001  0.1000000E+03  0.7546771E-02  0.1163815E+00
         11   -1    0    0    0    0  0.00000000000E+00  0.00000000000E+00  0.50000000000E+02  0.50000000000E+02  0.00000000000E+00 0. -1.
        -11   -1    0    0    0    0 -0.00000000000E+00 -0.00000000000E+00 -0.50000000000E+02  0.50000000000E+02  0.00000000000E+00 0.  1.
         23    2    1    2    0    0  0.00000000000E+00  0.00000000000E+00  0.00000000000E+00  0.10000000000E+03  0.10000000000E+03 0.  0.
          5    1    3    3  501    0  0.20615050644E+02  0.17559505654E+02  0.41768330684E+02  0.50000000000E+02  0.47000000000E+01 0. -1.
         -5    1    3    3    0  501 -0.20615050644E+02 -0.17559505654E+02 -0.41768330684E+02  0.50000000000E+02  0.47000000000E+01 0.  1.
</event>
<event>
 5    1  0.9091923E-001  0.1000000E+03  0.7546771E-02  0.1163815E+00
         11   -1    0    0    0    0  0.00000000000E+00  0.00000000000E+00  0.50000000000E+02  0.50000000000E+02  0.00000000000E+00 0. -1.
        -11   -1    0    0    0    0 -0.00000000000E+00 -0.00000000000E+00 -0.50000000000E+02  0.50000000000E+02  0.00000000000E+00 0.  1.
         23    2    1    2    0    0  0.00000000000E+00  0.00000000000E+00  0.00000000000E+00  0.10000000000E+03  0.10000000000E+03 0.  0.
          5    1    3    3  501    0  0.40264387704E+02 -0.27041690938E+01  0.29144065474E+02  0.50000000000E+02  0.47000000000E+01 0. -1.
         -5    1    3    3    0  501 -0.40264387704E+02  0.27041690938E+01 -0.29144065474E+02  0.50000000000E+02  0.47000000000E+01 0.  1.
</event>
<event>
 5    1  0.9091923E-001  0.1000000E+03  0.7546771E-02  0.1163815E+00
         11   -1    0    0    0    0  0.00000000000E+00  0.00000000000E+00  0.50000000000E+02  0.50000000000E+02  0.00000000000E+00 0. -1.
        -11   -1    0    0    0    0 -0.00000000000E+00 -0.00000000000E+00 -0.50000000000E+02  0.50000000000E+02  0.00000000000E+00 0.  1.
         23    2    1    2    0    0  0.00000000000E+00  0.00000000000E+00  0.00000000000E+00  0.10000000000E+03  0.10000000000E+03 0.  0.
          5    1    3    3  501    0 -0.20463696119E+01 -0.49722560498E+02 -0.11787064811E+01  0.50000000000E+02  0.47000000000E+01 0. -1.
         -5    1    3    3    0  501  0.20463696119E+01  0.49722560498E+02  0.11787064811E+01  0.50000000000E+02  0.47000000000E+01 0.  1.
</event>
<event>
 5    1  0.9091923E-001  0.1000000E+03  0.7546771E-02  0.1163815E+00
         11   -1    0    0    0    0  0.00000000000E+00  0.00000000000E+00  0.50000000000E+02  0.50000000000E+02  0.00000000000E+00 0. -1.
        -11   -1    0    0    0    0 -0.00000000000E+00 -0.00000000000E+00 -0.50000000000E+02  0.50000000000E+02  0.00000000000E+00 0.  1.
         23    2    1    2    0    0  0.00000000000E+00  0.00000000000E+00  0.00000000000E+00  0.10000000000E+03  0.10000000000E+03 0.  0.
          5    1    3    3  501    0 -0.37570315136E+02 -0.27090274082E+02  0.18234540595E+02  0.50000000000E+02  0.47000000000E+01 0. -1.
         -5    1    3    3    0  501  0.37570315136E+02  0.27090274082E+02 -0.18234540595E+02  0.50000000000E+02  0.47000000000E+01 0.  1.
</event>
<event>
 5    1  0.9091923E-001  0.1000000E+03  0.7546771E-02  0.1163815E+00
         11   -1    0    0    0    0  0.00000000000E+00  0.00000000000E+00  0.50000000000E+02  0.50000000000E+02  0.00000000000E+00 0. -1.
        -11   -1    0    0    0    0 -0.00000000000E+00 -0.00000000000E+00 -0.50000000000E+02  0.50000000000E+02  0.00000000000E+00 0.  1.
         23    2    1    2    0    0  0.00000000000E+00  0.00000000000E+00  0.00000000000E+00  0.10000000000E+03  0.10000000000E+03 0.  0.
          5    1    3    3  501    0 -0.20023026743E+02 -0.26456657155E+02  0.37108404604E+02  0.50000000000E+02  0.47000000000E+01 0. -1.
         -5    1    3    3    0  501  0.20023026743E+02  0.26456657155E+02 -0.37108404604E+02  0.50000000000E+02  0.47000000000E+01 0.  1.
</event>
<event>
 5    1  0.9091923E-001  0.1000000E+03  0.7546771E-02  0.1163815E+00
         11   -1    0    0    0    0  0.00000000000E+00  0.00000000000E+00  0.50000000000E+02  0.50000000000E+02  0.00000000000E+00 0.  1.
        -11   -1    0    0    0    0 -0.00000000000E+00 -0.00000000000E+00 -0.50000000000E+02  0.50000000000E+02  0.00000000000E+00 0. -1.
         23    2    1    2    0    0  0.00000000000E+00  0.00000000000E+00  0.00000000000E+00  0.10000000000E+03  0.10000000000E+03 0.  0.
          5    1    3    3  501    0 -0.28469151976E+02 -0.40424118100E+02  0.57713136800E+01  0.50000000000E+02  0.47000000000E+01 0. -1.
         -5    1    3    3    0  501  0.28469151976E+02  0.40424118100E+02 -0.57713136800E+01  0.50000000000E+02  0.47000000000E+01 0.  1.
</event>
<event>
 5    1  0.9091923E-001  0.1000000E+03  0.7546771E-02  0.1163815E+00
         11   -1    0    0    0    0  0.00000000000E+00  0.00000000000E+00  0.50000000000E+02  0.50000000000E+02  0.00000000000E+00 0. -1.
        -11   -1    0    0    0    0 -0.00000000000E+00 -0.00000000000E+00 -0.50000000000E+02  0.50000000000E+02  0.00000000000E+00 0.  1.
         23    2    1    2    0    0  0.00000000000E+00  0.00000000000E+00  0.00000000000E+00  0.10000000000E+03  0.10000000000E+03 0.  0.
          5    1    3    3  501    0  0.20531129339E+02  0.38391101489E+02  0.24135162202E+02  0.50000000000E+02  0.47000000000E+01 0. -1.
         -5    1    3    3    0  501 -0.20531129339E+02 -0.38391101489E+02 -0.24135162202E+02  0.50000000000E+02  0.47000000000E+01 0.  1.
</event>
<event>
 5    1  0.9091923E-001  0.1000000E+03  0.7546771E-02  0.1163815E+00
         11   -1    0    0    0    0  0.00000000000E+00  0.00000000000E+00  0.50000000000E+02  0.50000000000E+02  0.00000000000E+00 0. -1.
        -11   -1    0    0    0    0 -0.00000000000E+00 -0.00000000000E+00 -0.50000000000E+02  0.50000000000E+02  0.00000000000E+00 0.  1.
         23    2    1    2    0    0  0.00000000000E+00  0.00000000000E+00  0.00000000000E+00  0.10000000000E+03  0.10000000000E+03 0.  0.
          5    1    3    3  501    0 -0.14338212245E+02 -0.28160469974E+01  0.47585665372E+02  0.50000000000E+02  0.47000000000E+01 0. -1.
         -5    1    3    3    0  501  0.14338212245E+02  0.28160469974E+01 -0.47585665372E+02  0.50000000000E+02  0.47000000000E+01 0.  1.
</event>
<event>
 5    1  0.9091923E-001  0.1000000E+03  0.7546771E-02  0.1163815E+00
         11   -1    0    0    0    0  0.00000000000E+00  0.00000000000E+00  0.50000000000E+02  0.50000000000E+02  0.00000000000E+00 0. -1.
        -11   -1    0    0    0    0 -0.00000000000E+00 -0.00000000000E+00 -0.50000000000E+02  0.50000000000E+02  0.00000000000E+00 0.  1.
         23    2    1    2    0    0  0.00000000000E+00  0.00000000000E+00  0.00000000000E+00  0.10000000000E+03  0.10000000000E+03 0.  0.
          5    1    3    3  501    0 -0.45438344292E+02  0.19829157559E+02 -0.44801092072E+01  0.50000000000E+02  0.47000000000E+01 0. -1.
         -5    1    3    3    0  501  0.45438344292E+02 -0.19829157559E+02  0.44801092072E+01  0.50000000000E+02  0.47000000000E+01 0.  1.
</event>
<event>
 5    1  0.9091923E-001  0.1000000E+03  0.7546771E-02  0.1163815E+00
         11   -1    0    0    0    0  0.00000000000E+00  0.00000000000E+00  0.50000000000E+02  0.50000000000E+02  0.00000000000E+00 0. -1.
        -11   -1    0    0    0    0 -0.00000000000E+00 -0.00000000000E+00 -0.50000000000E+02  0.50000000000E+02  0.00000000000E+00 0.  1.
         23    2    1    2    0    0  0.00000000000E+00  0.00000000000E+00  0.00000000000E+00  0.10000000000E+03  0.10000000000E+03 0.  0.
          5    1    3    3  501    0 -0.47847641687E+02 -0.13608330401E+02 -0.18238773672E+01  0.50000000000E+02  0.47000000000E+01 0. -1.
         -5    1    3    3    0  501  0.47847641687E+02  0.13608330401E+02  0.18238773672E+01  0.50000000000E+02  0.47000000000E+01 0.  1.
</event>
<event>
 5    1  0.9091923E-001  0.1000000E+03  0.7546771E-02  0.1163815E+00
         11   -1    0    0    0    0  0.00000000000E+00  0.00000000000E+00  0.50000000000E+02  0.50000000000E+02  0.00000000000E+00 0.  1.
        -11   -1    0    0    0    0 -0.00000000000E+00 -0.00000000000E+00 -0.50000000000E+02  0.50000000000E+02  0.00000000000E+00 0. -1.
         23    2    1    2    0    0  0.00000000000E+00  0.00000000000E+00  0.00000000000E+00  0.10000000000E+03  0.10000000000E+03 0.  0.
          5    1    3    3  501    0  0.30755949229E+02 -0.98088331090E+01 -0.37891534412E+02  0.50000000000E+02  0.47000000000E+01 0. -1.
         -5    1    3    3    0  501 -0.30755949229E+02  0.98088331090E+01  0.37891534412E+02  0.50000000000E+02  0.47000000000E+01 0.  1.
</event>
<event>
 5    1  0.9091923E-001  0.1000000E+03  0.7546771E-02  0.1163815E+00
         11   -1    0    0    0    0  0.00000000000E+00  0.00000000000E+00  0.50000000000E+02  0.50000000000E+02  0.00000000000E+00 0. -1.
        -11   -1    0    0    0    0 -0.00000000000E+00 -0.00000000000E+00 -0.50000000000E+02  0.50000000000E+02  0.00000000000E+00 0.  1.
         23    2    1    2    0    0  0.00000000000E+00  0.00000000000E+00  0.00000000000E+00  0.10000000000E+03  0.10000000000E+03 0.  0.
          5    1    3    3  501    0  0.13839065222E+01 -0.75712771706E+01  0.49179981341E+02  0.50000000000E+02  0.47000000000E+01 0. -1.
         -5    1    3    3    0  501 -0.13839065222E+01  0.75712771706E+01 -0.49179981341E+02  0.50000000000E+02  0.47000000000E+01 0.  1.
</event>
<event>
 5    1  0.9091923E-001  0.1000000E+03  0.7546771E-02  0.1163815E+00
         11   -1    0    0    0    0  0.00000000000E+00  0.00000000000E+00  0.50000000000E+02  0.50000000000E+02  0.00000000000E+00 0. -1.
        -11   -1    0    0    0    0 -0.00000000000E+00 -0.00000000000E+00 -0.50000000000E+02  0.50000000000E+02  0.00000000000E+00 0.  1.
         23    2    1    2    0    0  0.00000000000E+00  0.00000000000E+00  0.00000000000E+00  0.10000000000E+03  0.10000000000E+03 0.  0.
          5    1    3    3  501    0 -0.13908789583E+02  0.32278508074E+02  0.35249872182E+02  0.50000000000E+02  0.47000000000E+01 0. -1.
         -5    1    3    3    0  501  0.13908789583E+02 -0.32278508074E+02 -0.35249872182E+02  0.50000000000E+02  0.47000000000E+01 0.  1.
</event>
<event>
 5    1  0.9091923E-001  0.1000000E+03  0.7546771E-02  0.1163815E+00
         11   -1    0    0    0    0  0.00000000000E+00  0.00000000000E+00  0.50000000000E+02  0.50000000000E+02  0.00000000000E+00 0. -1.
        -11   -1    0    0    0    0 -0.00000000000E+00 -0.00000000000E+00 -0.50000000000E+02  0.50000000000E+02  0.00000000000E+00 0.  1.
         23    2    1    2    0    0  0.00000000000E+00  0.00000000000E+00  0.00000000000E+00  0.10000000000E+03  0.10000000000E+03 0.  0.
          5    1    3    3  501    0 -0.39672932731E+02  0.75358696718E+01  0.29106340836E+02  0.50000000000E+02  0.47000000000E+01 0. -1.
         -5    1    3    3    0  501  0.39672932731E+02 -0.75358696718E+01 -0.29106340836E+02  0.50000000000E+02  0.47000000000E+01 0.  1.
</event>
<event>
 5    1  0.9091923E-001  0.1000000E+03  0.7546771E-02  0.1163815E+00
         11   -1    0    0    0    0  0.00000000000E+00  0.00000000000E+00  0.50000000000E+02  0.50000000000E+02  0.00000000000E+00 0. -1.
        -11   -1    0    0    0    0 -0.00000000000E+00 -0.00000000000E+00 -0.50000000000E+02  0.50000000000E+02  0.00000000000E+00 0.  1.
         23    2    1    2    0    0  0.00000000000E+00  0.00000000000E+00  0.00000000000E+00  0.10000000000E+03  0.10000000000E+03 0.  0.
          5    1    3    3  501    0  0.44639319207E+02  0.20614565545E+02 -0.77640754832E+01  0.50000000000E+02  0.47000000000E+01 0. -1.
         -5    1    3    3    0  501 -0.44639319207E+02 -0.20614565545E+02  0.77640754832E+01  0.50000000000E+02  0.47000000000E+01 0.  1.
</event>
<event>
 5    1  0.9091923E-001  0.1000000E+03  0.7546771E-02  0.1163815E+00
         11   -1    0    0    0    0  0.00000000000E+00  0.00000000000E+00  0.50000000000E+02  0.50000000000E+02  0.00000000000E+00 0.  1.
        -11   -1    0    0    0    0 -0.00000000000E+00 -0.00000000000E+00 -0.50000000000E+02  0.50000000000E+02  0.00000000000E+00 0. -1.
         23    2    1    2    0    0  0.00000000000E+00  0.00000000000E+00  0.00000000000E+00  0.10000000000E+03  0.10000000000E+03 0.  0.
          5    1    3    3  501    0 -0.47658552124E+02  0.12285828276E+02 -0.74586079839E+01  0.50000000000E+02  0.47000000000E+01 0. -1.
         -5    1    3    3    0  501  0.47658552124E+02 -0.12285828276E+02  0.74586079839E+01  0.50000000000E+02  0.47000000000E+01 0.  1.
</event>
<event>
 5    1  0.9091923E-001  0.1000000E+03  0.7546771E-02  0.1163815E+00
         11   -1    0    0    0    0  0.00000000000E+00  0.00000000000E+00  0.50000000000E+02  0.50000000000E+02  0.00000000000E+00 0. -1.
        -11   -1    0    0    0    0 -0.00000000000E+00 -0.00000000000E+00 -0.50000000000E+02  0.50000000000E+02  0.00000000000E+00 0.  1.
         23    2    1    2    0    0  0.00000000000E+00  0.00000000000E+00  0.00000000000E+00  0.10000000000E+03  0.10000000000E+03 0.  0.
          5    1    3    3  501    0  0.32110218817E+02 -0.61694145912E+01  0.37533747096E+02  0.50000000000E+02  0.47000000000E+01 0. -1.
         -5    1    3    3    0  501 -0.32110218817E+02  0.61694145912E+01 -0.37533747096E+02  0.50000000000E+02  0.47000000000E+01 0.  1.
</event>
<event>
 5    1  0.9091923E-001  0.1000000E+03  0.7546771E-02  0.1163815E+00
         11   -1    0    0    0    0  0.00000000000E+00  0.00000000000E+00  0.50000000000E+02  0.50000000000E+02  0.00000000000E+00 0. -1.
        -11   -1    0    0    0    0 -0.00000000000E+00 -0.00000000000E+00 -0.50000000000E+02  0.50000000000E+02  0.00000000000E+00 0.  1.
         23    2    1    2    0    0  0.00000000000E+00  0.00000000000E+00  0.00000000000E+00  0.10000000000E+03  0.10000000000E+03 0.  0.
          5    1    3    3  501    0 -0.12409474595E+01  0.95353975870E+01  0.48841030315E+02  0.50000000000E+02  0.47000000000E+01 0. -1.
         -5    1    3    3    0  501  0.12409474595E+01 -0.95353975870E+01 -0.48841030315E+02  0.50000000000E+02  0.47000000000E+01 0.  1.
</event>
<event>
 5    1  0.9091923E-001  0.1000000E+03  0.7546771E-02  0.1163815E+00
         11   -1    0    0    0    0  0.00000000000E+00  0.00000000000E+00  0.50000000000E+02  0.50000000000E+02  0.00000000000E+00 0. -1.
        -11   -1    0    0    0    0 -0.00000000000E+00 -0.00000000000E+00 -0.50000000000E+02  0.50000000000E+02  0.00000000000E+00 0.  1.
         23    2    1    2    0    0  0.00000000000E+00  0.00000000000E+00  0.00000000000E+00  0.10000000000E+03  0.10000000000E+03 0.  0.
          5    1    3    3  501    0  0.46424730723E+02  0.13270459207E+02  0.12105754404E+02  0.50000000000E+02  0.47000000000E+01 0. -1.
         -5    1    3    3    0  501 -0.46424730723E+02 -0.13270459207E+02 -0.12105754404E+02  0.50000000000E+02  0.47000000000E+01 0.  1.
</event>
<event>
 5    1  0.9091923E-001  0.1000000E+03  0.7546771E-02  0.1163815E+00
         11   -1    0    0    0    0  0.00000000000E+00  0.00000000000E+00  0.50000000000E+02  0.50000000000E+02  0.00000000000E+00 0. -1.
        -11   -1    0    0    0    0 -0.00000000000E+00 -0.00000000000E+00 -0.50000000000E+02  0.50000000000E+02  0.00000000000E+00 0.  1.
         23    2    1    2    0    0  0.00000000000E+00  0.00000000000E+00  0.00000000000E+00  0.10000000000E+03  0.10000000000E+03 0.  0.
          5    1    3    3  501    0 -0.97451465908E+01  0.22377853703E+02  0.43384026802E+02  0.50000000000E+02  0.47000000000E+01 0. -1.
         -5    1    3    3    0  501  0.97451465908E+01 -0.22377853703E+02 -0.43384026802E+02  0.50000000000E+02  0.47000000000E+01 0.  1.
</event>
<event>
 5    1  0.9091923E-001  0.1000000E+03  0.7546771E-02  0.1163815E+00
         11   -1    0    0    0    0  0.00000000000E+00  0.00000000000E+00  0.50000000000E+02  0.50000000000E+02  0.00000000000E+00 0. -1.
        -11   -1    0    0    0    0 -0.00000000000E+00 -0.00000000000E+00 -0.50000000000E+02  0.50000000000E+02  0.00000000000E+00 0.  1.
         23    2    1    2    0    0  0.00000000000E+00  0.00000000000E+00  0.00000000000E+00  0.10000000000E+03  0.10000000000E+03 0.  0.
          5    1    3    3  501    0  0.29249958811E+02  0.32699146850E+02  0.23518412039E+02  0.50000000000E+02  0.47000000000E+01 0. -1.
         -5    1    3    3    0  501 -0.29249958811E+02 -0.32699146850E+02 -0.23518412039E+02  0.50000000000E+02  0.47000000000E+01 0.  1.
</event>
<event>
 5    1  0.9091923E-001  0.1000000E+03  0.7546771E-02  0.1163815E+00
         11   -1    0    0    0    0  0.00000000000E+00  0.00000000000E+00  0.50000000000E+02  0.50000000000E+02  0.00000000000E+00 0.  1.
        -11   -1    0    0    0    0 -0.00000000000E+00 -0.00000000000E+00 -0.50000000000E+02  0.50000000000E+02  0.00000000000E+00 0. -1.
         23    2    1    2    0    0  0.00000000000E+00  0.00000000000E+00  0.00000000000E+00  0.10000000000E+03  0.10000000000E+03 0.  0.
          5    1    3    3  501    0  0.29378568844E+01 -0.26069256281E+02 -0.42304525454E+02  0.50000000000E+02  0.47000000000E+01 0. -1.
         -5    1    3    3    0  501 -0.29378568844E+01  0.26069256281E+02  0.42304525454E+02  0.50000000000E+02  0.47000000000E+01 0.  1.
</event>
<event>
 5    1  0.9091923E-001  0.1000000E+03  0.7546771E-02  0.1163815E+00
         11   -1    0    0    0    0  0.00000000000E+00  0.00000000000E+00  0.50000000000E+02  0.50000000000E+02  0.00000000000E+00 0. -1.
        -11   -1    0    0    0    0 -0.00000000000E+00 -0.00000000000E+00 -0.50000000000E+02  0.50000000000E+02  0.00000000000E+00 0.  1.
         23    2    1    2    0    0  0.00000000000E+00  0.00000000000E+00  0.00000000000E+00  0.10000000000E+03  0.10000000000E+03 0.  0.
          5    1    3    3  501    0 -0.35586350079E+02  0.24891216463E+02  0.24330002693E+02  0.50000000000E+02  0.47000000000E+01 0. -1.
         -5    1    3    3    0  501  0.35586350079E+02 -0.24891216463E+02 -0.24330002693E+02  0.50000000000E+02  0.47000000000E+01 0.  1.
</event>
<event>
 5    1  0.9091923E-001  0.1000000E+03  0.7546771E-02  0.1163815E+00
         11   -1    0    0    0    0  0.00000000000E+00  0.00000000000E+00  0.50000000000E+02  0.50000000000E+02  0.00000000000E+00 0. -1.
        -11   -1    0    0    0    0 -0.00000000000E+00 -0.00000000000E+00 -0.50000000000E+02  0.50000000000E+02  0.00000000000E+00 0.  1.
         23    2    1    2    0    0  0.00000000000E+00  0.00000000000E+00  0.00000000000E+00  0.10000000000E+03  0.10000000000E+03 0.  0.
          5    1    3    3  501    0 -0.45696428456E+02 -0.57647291024E+00  0.19733578119E+02  0.50000000000E+02  0.47000000000E+01 0. -1.
         -5    1    3    3    0  501  0.45696428456E+02  0.57647291024E+00 -0.19733578119E+02  0.50000000000E+02  0.47000000000E+01 0.  1.
</event>
<event>
 5    1  0.9091923E-001  0.1000000E+03  0.7546771E-02  0.1163815E+00
         11   -1    0    0    0    0  0.00000000000E+00  0.00000000000E+00  0.50000000000E+02  0.50000000000E+02  0.00000000000E+00 0. -1.
        -11   -1    0    0    0    0 -0.00000000000E+00 -0.00000000000E+00 -0.50000000000E+02  0.50000000000E+02  0.00000000000E+00 0.  1.
         23    2    1    2    0    0  0.00000000000E+00  0.00000000000E+00  0.00000000000E+00  0.10000000000E+03  0.10000000000E+03 0.  0.
          5    1    3    3  501    0  0.35583287078E+02 -0.20172384660E+02  0.28369254095E+02  0.50000000000E+02  0.47000000000E+01 0. -1.
         -5    1    3    3    0  501 -0.35583287078E+02  0.20172384660E+02 -0.28369254095E+02  0.50000000000E+02  0.47000000000E+01 0.  1.
</event>
<event>
 5    1  0.9091923E-001  0.1000000E+03  0.7546771E-02  0.1163815E+00
         11   -1    0    0    0    0  0.00000000000E+00  0.00000000000E+00  0.50000000000E+02  0.50000000000E+02  0.00000000000E+00 0. -1.
        -11   -1    0    0    0    0 -0.00000000000E+00 -0.00000000000E+00 -0.50000000000E+02  0.50000000000E+02  0.00000000000E+00 0.  1.
         23    2    1    2    0    0  0.00000000000E+00  0.00000000000E+00  0.00000000000E+00  0.10000000000E+03  0.10000000000E+03 0.  0.
          5    1    3    3  501    0  0.38251753052E+02  0.17279972575E+02  0.26760342603E+02  0.50000000000E+02  0.47000000000E+01 0. -1.
         -5    1    3    3    0  501 -0.38251753052E+02 -0.17279972575E+02 -0.26760342603E+02  0.50000000000E+02  0.47000000000E+01 0.  1.
</event>
<event>
 5    1  0.9091923E-001  0.1000000E+03  0.7546771E-02  0.1163815E+00
         11   -1    0    0    0    0  0.00000000000E+00  0.00000000000E+00  0.50000000000E+02  0.50000000000E+02  0.00000000000E+00 0.  1.
        -11   -1    0    0    0    0 -0.00000000000E+00 -0.00000000000E+00 -0.50000000000E+02  0.50000000000E+02  0.00000000000E+00 0. -1.
         23    2    1    2    0    0  0.00000000000E+00  0.00000000000E+00  0.00000000000E+00  0.10000000000E+03  0.10000000000E+03 0.  0.
          5    1    3    3  501    0  0.49394471334E+02  0.13837361405E+01 -0.60151039868E+01  0.50000000000E+02  0.47000000000E+01 0. -1.
         -5    1    3    3    0  501 -0.49394471334E+02 -0.13837361405E+01  0.60151039868E+01  0.50000000000E+02  0.47000000000E+01 0.  1.
</event>
<event>
 5    1  0.9091923E-001  0.1000000E+03  0.7546771E-02  0.1163815E+00
         11   -1    0    0    0    0  0.00000000000E+00  0.00000000000E+00  0.50000000000E+02  0.50000000000E+02  0.00000000000E+00 0.  1.
        -11   -1    0    0    0    0 -0.00000000000E+00 -0.00000000000E+00 -0.50000000000E+02  0.50000000000E+02  0.00000000000E+00 0. -1.
         23    2    1    2    0    0  0.00000000000E+00  0.00000000000E+00  0.00000000000E+00  0.10000000000E+03  0.10000000000E+03 0.  0.
          5    1    3    3  501    0 -0.13383307382E+02  0.40596551753E+02 -0.25509156576E+02  0.50000000000E+02  0.47000000000E+01 0. -1.
         -5    1    3    3    0  501  0.13383307382E+02 -0.40596551753E+02  0.25509156576E+02  0.50000000000E+02  0.47000000000E+01 0.  1.
</event>
<event>
 5    1  0.9091923E-001  0.1000000E+03  0.7546771E-02  0.1163815E+00
         11   -1    0    0    0    0  0.00000000000E+00  0.00000000000E+00  0.50000000000E+02  0.50000000000E+02  0.00000000000E+00 0.  1.
        -11   -1    0    0    0    0 -0.00000000000E+00 -0.00000000000E+00 -0.50000000000E+02  0.50000000000E+02  0.00000000000E+00 0. -1.
         23    2    1    2    0    0  0.00000000000E+00  0.00000000000E+00  0.00000000000E+00  0.10000000000E+03  0.10000000000E+03 0.  0.
          5    1    3    3  501    0 -0.17768984331E+02  0.43800209905E+02  0.15611367914E+02  0.50000000000E+02  0.47000000000E+01 0. -1.
         -5    1    3    3    0  501  0.17768984331E+02 -0.43800209905E+02 -0.15611367914E+02  0.50000000000E+02  0.47000000000E+01 0.  1.
</event>
<event>
 5    1  0.9091923E-001  0.1000000E+03  0.7546771E-02  0.1163815E+00
         11   -1    0    0    0    0  0.00000000000E+00  0.00000000000E+00  0.50000000000E+02  0.50000000000E+02  0.00000000000E+00 0. -1.
        -11   -1    0    0    0    0 -0.00000000000E+00 -0.00000000000E+00 -0.50000000000E+02  0.50000000000E+02  0.00000000000E+00 0.  1.
         23    2    1    2    0    0  0.00000000000E+00  0.00000000000E+00  0.00000000000E+00  0.10000000000E+03  0.10000000000E+03 0.  0.
          5    1    3    3  501    0  0.84804809099E+01  0.43641610306E+01  0.48856376677E+02  0.50000000000E+02  0.47000000000E+01 0. -1.
         -5    1    3    3    0  501 -0.84804809099E+01 -0.43641610306E+01 -0.48856376677E+02  0.50000000000E+02  0.47000000000E+01 0.  1.
</event>
<event>
 5    1  0.9091923E-001  0.1000000E+03  0.7546771E-02  0.1163815E+00
         11   -1    0    0    0    0  0.00000000000E+00  0.00000000000E+00  0.50000000000E+02  0.50000000000E+02  0.00000000000E+00 0. -1.
        -11   -1    0    0    0    0 -0.00000000000E+00 -0.00000000000E+00 -0.50000000000E+02  0.50000000000E+02  0.00000000000E+00 0.  1.
         23    2    1    2    0    0  0.00000000000E+00  0.00000000000E+00  0.00000000000E+00  0.10000000000E+03  0.10000000000E+03 0.  0.
          5    1    3    3  501    0  0.76267176242E+01  0.24500945523E+02  0.42654974467E+02  0.50000000000E+02  0.47000000000E+01 0. -1.
         -5    1    3    3    0  501 -0.76267176242E+01 -0.24500945523E+02 -0.42654974467E+02  0.50000000000E+02  0.47000000000E+01 0.  1.
</event>
<event>
 5    1  0.9091923E-001  0.1000000E+03  0.7546771E-02  0.1163815E+00
         11   -1    0    0    0    0  0.00000000000E+00  0.00000000000E+00  0.50000000000E+02  0.50000000000E+02  0.00000000000E+00 0.  1.
        -11   -1    0    0    0    0 -0.00000000000E+00 -0.00000000000E+00 -0.50000000000E+02  0.50000000000E+02  0.00000000000E+00 0. -1.
         23    2    1    2    0    0  0.00000000000E+00  0.00000000000E+00  0.00000000000E+00  0.10000000000E+03  0.10000000000E+03 0.  0.
          5    1    3    3  501    0  0.49193897208E+02 -0.73624931299E+01 -0.19142028105E+01  0.50000000000E+02  0.47000000000E+01 0. -1.
         -5    1    3    3    0  501 -0.49193897208E+02  0.73624931299E+01  0.19142028105E+01  0.50000000000E+02  0.47000000000E+01 0.  1.
</event>
<event>
 5    1  0.9091923E-001  0.1000000E+03  0.7546771E-02  0.1163815E+00
         11   -1    0    0    0    0  0.00000000000E+00  0.00000000000E+00  0.50000000000E+02  0.50000000000E+02  0.00000000000E+00 0. -1.
        -11   -1    0    0    0    0 -0.00000000000E+00 -0.00000000000E+00 -0.50000000000E+02  0.50000000000E+02  0.00000000000E+00 0.  1.
         23    2    1    2    0    0  0.00000000000E+00  0.00000000000E+00  0.00000000000E+00  0.10000000000E+03  0.10000000000E+03 0.  0.
          5    1    3    3  501    0 -0.43428782411E+02  0.22963917957E+02  0.80317700671E+01  0.50000000000E+02  0.47000000000E+01 0. -1.
         -5    1    3    3    0  501  0.43428782411E+02 -0.22963917957E+02 -0.80317700671E+01  0.50000000000E+02  0.47000000000E+01 0.  1.
</event>
<event>
 5    1  0.9091923E-001  0.1000000E+03  0.7546771E-02  0.1163815E+00
         11   -1    0    0    0    0  0.00000000000E+00  0.00000000000E+00  0.50000000000E+02  0.50000000000E+02  0.00000000000E+00 0.  1.
        -11   -1    0    0    0    0 -0.00000000000E+00 -0.00000000000E+00 -0.50000000000E+02  0.50000000000E+02  0.00000000000E+00 0. -1.
         23    2    1    2    0    0  0.00000000000E+00  0.00000000000E+00  0.00000000000E+00  0.10000000000E+03  0.10000000000E+03 0.  0.
          5    1    3    3  501    0  0.10074406317E+02  0.17170882310E+02 -0.45624304248E+02  0.50000000000E+02  0.47000000000E+01 0. -1.
         -5    1    3    3    0  501 -0.10074406317E+02 -0.17170882310E+02  0.45624304248E+02  0.50000000000E+02  0.47000000000E+01 0.  1.
</event>
<event>
 5    1  0.9091923E-001  0.1000000E+03  0.7546771E-02  0.1163815E+00
         11   -1    0    0    0    0  0.00000000000E+00  0.00000000000E+00  0.50000000000E+02  0.50000000000E+02  0.00000000000E+00 0. -1.
        -11   -1    0    0    0    0 -0.00000000000E+00 -0.00000000000E+00 -0.50000000000E+02  0.50000000000E+02  0.00000000000E+00 0.  1.
         23    2    1    2    0    0  0.00000000000E+00  0.00000000000E+00  0.00000000000E+00  0.10000000000E+03  0.10000000000E+03 0.  0.
          5    1    3    3  501    0  0.53105607105E+01  0.44865160184E+02  0.20900367139E+02  0.50000000000E+02  0.47000000000E+01 0. -1.
         -5    1    3    3    0  501 -0.53105607105E+01 -0.44865160184E+02 -0.20900367139E+02  0.50000000000E+02  0.47000000000E+01 0.  1.
</event>
<event>
 5    1  0.9091923E-001  0.1000000E+03  0.7546771E-02  0.1163815E+00
         11   -1    0    0    0    0  0.00000000000E+00  0.00000000000E+00  0.50000000000E+02  0.50000000000E+02  0.00000000000E+00 0.  1.
        -11   -1    0    0    0    0 -0.00000000000E+00 -0.00000000000E+00 -0.50000000000E+02  0.50000000000E+02  0.00000000000E+00 0. -1.
         23    2    1    2    0    0  0.00000000000E+00  0.00000000000E+00  0.00000000000E+00  0.10000000000E+03  0.10000000000E+03 0.  0.
          5    1    3    3  501    0  0.28904721997E+02  0.15246147879E+02 -0.37549727311E+02  0.50000000000E+02  0.47000000000E+01 0. -1.
         -5    1    3    3    0  501 -0.28904721997E+02 -0.15246147879E+02  0.37549727311E+02  0.50000000000E+02  0.47000000000E+01 0.  1.
</event>
<event>
 5    1  0.9091923E-001  0.1000000E+03  0.7546771E-02  0.1163815E+00
         11   -1    0    0    0    0  0.00000000000E+00  0.00000000000E+00  0.50000000000E+02  0.50000000000E+02  0.00000000000E+00 0.  1.
        -11   -1    0    0    0    0 -0.00000000000E+00 -0.00000000000E+00 -0.50000000000E+02  0.50000000000E+02  0.00000000000E+00 0. -1.
         23    2    1    2    0    0  0.00000000000E+00  0.00000000000E+00  0.00000000000E+00  0.10000000000E+03  0.10000000000E+03 0.  0.
          5    1    3    3  501    0 -0.40358249780E+02 -0.43847726281E+01 -0.28807905924E+02  0.50000000000E+02  0.47000000000E+01 0. -1.
         -5    1    3    3    0  501  0.40358249780E+02  0.43847726281E+01  0.28807905924E+02  0.50000000000E+02  0.47000000000E+01 0.  1.
</event>
<event>
 5    1  0.9091923E-001  0.1000000E+03  0.7546771E-02  0.1163815E+00
         11   -1    0    0    0    0  0.00000000000E+00  0.00000000000E+00  0.50000000000E+02  0.50000000000E+02  0.00000000000E+00 0. -1.
        -11   -1    0    0    0    0 -0.00000000000E+00 -0.00000000000E+00 -0.50000000000E+02  0.50000000000E+02  0.00000000000E+00 0.  1.
         23    2    1    2    0    0  0.00000000000E+00  0.00000000000E+00  0.00000000000E+00  0.10000000000E+03  0.10000000000E+03 0.  0.
          5    1    3    3  501    0  0.28919888285E+02 -0.36228546201E+02  0.18139528708E+02  0.50000000000E+02  0.47000000000E+01 0. -1.
         -5    1    3    3    0  501 -0.28919888285E+02  0.36228546201E+02 -0.18139528708E+02  0.50000000000E+02  0.47000000000E+01 0.  1.
</event>
<event>
 5    1  0.9091923E-001  0.1000000E+03  0.7546771E-02  0.1163815E+00
         11   -1    0    0    0    0  0.00000000000E+00  0.00000000000E+00  0.50000000000E+02  0.50000000000E+02  0.00000000000E+00 0.  1.
        -11   -1    0    0    0    0 -0.00000000000E+00 -0.00000000000E+00 -0.50000000000E+02  0.50000000000E+02  0.00000000000E+00 0. -1.
         23    2    1    2    0    0  0.00000000000E+00  0.00000000000E+00  0.00000000000E+00  0.10000000000E+03  0.10000000000E+03 0.  0.
          5    1    3    3  501    0  0.16738421728E+01 -0.15501778015E+02  0.47273704432E+02  0.50000000000E+02  0.47000000000E+01 0.  1.
         -5    1    3    3    0  501 -0.16738421728E+01  0.15501778015E+02 -0.47273704432E+02  0.50000000000E+02  0.47000000000E+01 0. -1.
</event>
<event>
 5    1  0.9091923E-001  0.1000000E+03  0.7546771E-02  0.1163815E+00
         11   -1    0    0    0    0  0.00000000000E+00  0.00000000000E+00  0.50000000000E+02  0.50000000000E+02  0.00000000000E+00 0. -1.
        -11   -1    0    0    0    0 -0.00000000000E+00 -0.00000000000E+00 -0.50000000000E+02  0.50000000000E+02  0.00000000000E+00 0.  1.
         23    2    1    2    0    0  0.00000000000E+00  0.00000000000E+00  0.00000000000E+00  0.10000000000E+03  0.10000000000E+03 0.  0.
          5    1    3    3  501    0  0.15813569014E+02 -0.27315279247E+02  0.38493071515E+02  0.50000000000E+02  0.47000000000E+01 0. -1.
         -5    1    3    3    0  501 -0.15813569014E+02  0.27315279247E+02 -0.38493071515E+02  0.50000000000E+02  0.47000000000E+01 0.  1.
</event>
<event>
 5    1  0.9091923E-001  0.1000000E+03  0.7546771E-02  0.1163815E+00
         11   -1    0    0    0    0  0.00000000000E+00  0.00000000000E+00  0.50000000000E+02  0.50000000000E+02  0.00000000000E+00 0. -1.
        -11   -1    0    0    0    0 -0.00000000000E+00 -0.00000000000E+00 -0.50000000000E+02  0.50000000000E+02  0.00000000000E+00 0.  1.
         23    2    1    2    0    0  0.00000000000E+00  0.00000000000E+00  0.00000000000E+00  0.10000000000E+03  0.10000000000E+03 0.  0.
          5    1    3    3  501    0 -0.25074324149E+02  0.11299342093E+02  0.41491121180E+02  0.50000000000E+02  0.47000000000E+01 0. -1.
         -5    1    3    3    0  501  0.25074324149E+02 -0.11299342093E+02 -0.41491121180E+02  0.50000000000E+02  0.47000000000E+01 0.  1.
</event>
<event>
 5    1  0.9091923E-001  0.1000000E+03  0.7546771E-02  0.1163815E+00
         11   -1    0    0    0    0  0.00000000000E+00  0.00000000000E+00  0.50000000000E+02  0.50000000000E+02  0.00000000000E+00 0. -1.
        -11   -1    0    0    0    0 -0.00000000000E+00 -0.00000000000E+00 -0.50000000000E+02  0.50000000000E+02  0.00000000000E+00 0.  1.
         23    2    1    2    0    0  0.00000000000E+00  0.00000000000E+00  0.00000000000E+00  0.10000000000E+03  0.10000000000E+03 0.  0.
          5    1    3    3  501    0 -0.39932303558E+02 -0.28936685044E+02  0.67815478471E+01  0.50000000000E+02  0.47000000000E+01 0. -1.
         -5    1    3    3    0  501  0.39932303558E+02  0.28936685044E+02 -0.67815478471E+01  0.50000000000E+02  0.47000000000E+01 0.  1.
</event>
<event>
 5    1  0.9091923E-001  0.1000000E+03  0.7546771E-02  0.1163815E+00
         11   -1    0    0    0    0  0.00000000000E+00  0.00000000000E+00  0.50000000000E+02  0.50000000000E+02  0.00000000000E+00 0. -1.
        -11   -1    0    0    0    0 -0.00000000000E+00 -0.00000000000E+00 -0.50000000000E+02  0.50000000000E+02  0.00000000000E+00 0.  1.
         23    2    1    2    0    0  0.00000000000E+00  0.00000000000E+00  0.00000000000E+00  0.10000000000E+03  0.10000000000E+03 0.  0.
          5    1    3    3  501    0  0.37753937571E+02 -0.20231111257E+02  0.25362419742E+02  0.50000000000E+02  0.47000000000E+01 0. -1.
         -5    1    3    3    0  501 -0.37753937571E+02  0.20231111257E+02 -0.25362419742E+02  0.50000000000E+02  0.47000000000E+01 0.  1.
</event>
<event>
 5    1  0.9091923E-001  0.1000000E+03  0.7546771E-02  0.1163815E+00
         11   -1    0    0    0    0  0.00000000000E+00  0.00000000000E+00  0.50000000000E+02  0.50000000000E+02  0.00000000000E+00 0. -1.
        -11   -1    0    0    0    0 -0.00000000000E+00 -0.00000000000E+00 -0.50000000000E+02  0.50000000000E+02  0.00000000000E+00 0.  1.
         23    2    1    2    0    0  0.00000000000E+00  0.00000000000E+00  0.00000000000E+00  0.10000000000E+03  0.10000000000E+03 0.  0.
          5    1    3    3  501    0 -0.29030712313E+01 -0.52656080247E+01  0.49414122977E+02  0.50000000000E+02  0.47000000000E+01 0. -1.
         -5    1    3    3    0  501  0.29030712313E+01  0.52656080247E+01 -0.49414122977E+02  0.50000000000E+02  0.47000000000E+01 0.  1.
</event>
<event>
 5    1  0.9091923E-001  0.1000000E+03  0.7546771E-02  0.1163815E+00
         11   -1    0    0    0    0  0.00000000000E+00  0.00000000000E+00  0.50000000000E+02  0.50000000000E+02  0.00000000000E+00 0.  1.
        -11   -1    0    0    0    0 -0.00000000000E+00 -0.00000000000E+00 -0.50000000000E+02  0.50000000000E+02  0.00000000000E+00 0. -1.
         23    2    1    2    0    0  0.00000000000E+00  0.00000000000E+00  0.00000000000E+00  0.10000000000E+03  0.10000000000E+03 0.  0.
          5    1    3    3  501    0 -0.17007070151E+02  0.41049377988E+02 -0.22441437826E+02  0.50000000000E+02  0.47000000000E+01 0. -1.
         -5    1    3    3    0  501  0.17007070151E+02 -0.41049377988E+02  0.22441437826E+02  0.50000000000E+02  0.47000000000E+01 0.  1.
</event>
<event>
 5    1  0.9091923E-001  0.1000000E+03  0.7546771E-02  0.1163815E+00
         11   -1    0    0    0    0  0.00000000000E+00  0.00000000000E+00  0.50000000000E+02  0.50000000000E+02  0.00000000000E+00 0. -1.
        -11   -1    0    0    0    0 -0.00000000000E+00 -0.00000000000E+00 -0.50000000000E+02  0.50000000000E+02  0.00000000000E+00 0.  1.
         23    2    1    2    0    0  0.00000000000E+00  0.00000000000E+00  0.00000000000E+00  0.10000000000E+03  0.10000000000E+03 0.  0.
          5    1    3    3  501    0  0.36879939376E+02 -0.19642468735E+02  0.27054639040E+02  0.50000000000E+02  0.47000000000E+01 0. -1.
         -5    1    3    3    0  501 -0.36879939376E+02  0.19642468735E+02 -0.27054639040E+02  0.50000000000E+02  0.47000000000E+01 0.  1.
</event>
<event>
 5    1  0.9091923E-001  0.1000000E+03  0.7546771E-02  0.1163815E+00
         11   -1    0    0    0    0  0.00000000000E+00  0.00000000000E+00  0.50000000000E+02  0.50000000000E+02  0.00000000000E+00 0. -1.
        -11   -1    0    0    0    0 -0.00000000000E+00 -0.00000000000E+00 -0.50000000000E+02  0.50000000000E+02  0.00000000000E+00 0.  1.
         23    2    1    2    0    0  0.00000000000E+00  0.00000000000E+00  0.00000000000E+00  0.10000000000E+03  0.10000000000E+03 0.  0.
          5    1    3    3  501    0  0.25508999674E+02  0.41868023733E+01  0.42540235325E+02  0.50000000000E+02  0.47000000000E+01 0. -1.
         -5    1    3    3    0  501 -0.25508999674E+02 -0.41868023733E+01 -0.42540235325E+02  0.50000000000E+02  0.47000000000E+01 0.  1.
</event>
<event>
 5    1  0.9091923E-001  0.1000000E+03  0.7546771E-02  0.1163815E+00
         11   -1    0    0    0    0  0.00000000000E+00  0.00000000000E+00  0.50000000000E+02  0.50000000000E+02  0.00000000000E+00 0. -1.
        -11   -1    0    0    0    0 -0.00000000000E+00 -0.00000000000E+00 -0.50000000000E+02  0.50000000000E+02  0.00000000000E+00 0.  1.
         23    2    1    2    0    0  0.00000000000E+00  0.00000000000E+00  0.00000000000E+00  0.10000000000E+03  0.10000000000E+03 0.  0.
          5    1    3    3  501    0  0.17892605845E+02  0.11592142925E+02  0.44982072857E+02  0.50000000000E+02  0.47000000000E+01 0. -1.
         -5    1    3    3    0  501 -0.17892605845E+02 -0.11592142925E+02 -0.44982072857E+02  0.50000000000E+02  0.47000000000E+01 0.  1.
</event>
<event>
 5    1  0.9091923E-001  0.1000000E+03  0.7546771E-02  0.1163815E+00
         11   -1    0    0    0    0  0.00000000000E+00  0.00000000000E+00  0.50000000000E+02  0.50000000000E+02  0.00000000000E+00 0. -1.
        -11   -1    0    0    0    0 -0.00000000000E+00 -0.00000000000E+00 -0.50000000000E+02  0.50000000000E+02  0.00000000000E+00 0.  1.
         23    2    1    2    0    0  0.00000000000E+00  0.00000000000E+00  0.00000000000E+00  0.10000000000E+03  0.10000000000E+03 0.  0.
          5    1    3    3  501    0 -0.45339587811E+02 -0.20430155997E+02  0.22001143321E+01  0.50000000000E+02  0.47000000000E+01 0. -1.
         -5    1    3    3    0  501  0.45339587811E+02  0.20430155997E+02 -0.22001143321E+01  0.50000000000E+02  0.47000000000E+01 0.  1.
</event>
<event>
 5    1  0.9091923E-001  0.1000000E+03  0.7546771E-02  0.1163815E+00
         11   -1    0    0    0    0  0.00000000000E+00  0.00000000000E+00  0.50000000000E+02  0.50000000000E+02  0.00000000000E+00 0. -1.
        -11   -1    0    0    0    0 -0.00000000000E+00 -0.00000000000E+00 -0.50000000000E+02  0.50000000000E+02  0.00000000000E+00 0.  1.
         23    2    1    2    0    0  0.00000000000E+00  0.00000000000E+00  0.00000000000E+00  0.10000000000E+03  0.10000000000E+03 0.  0.
          5    1    3    3  501    0  0.19502994426E+02  0.45154421785E+02  0.76564614346E+01  0.50000000000E+02  0.47000000000E+01 0. -1.
         -5    1    3    3    0  501 -0.19502994426E+02 -0.45154421785E+02 -0.76564614346E+01  0.50000000000E+02  0.47000000000E+01 0.  1.
</event>
<event>
 5    1  0.9091923E-001  0.1000000E+03  0.7546771E-02  0.1163815E+00
         11   -1    0    0    0    0  0.00000000000E+00  0.00000000000E+00  0.50000000000E+02  0.50000000000E+02  0.00000000000E+00 0.  1.
        -11   -1    0    0    0    0 -0.00000000000E+00 -0.00000000000E+00 -0.50000000000E+02  0.50000000000E+02  0.00000000000E+00 0. -1.
         23    2    1    2    0    0  0.00000000000E+00  0.00000000000E+00  0.00000000000E+00  0.10000000000E+03  0.10000000000E+03 0.  0.
          5    1    3    3  501    0 -0.10979220732E+02 -0.30473208737E+02 -0.37798812963E+02  0.50000000000E+02  0.47000000000E+01 0. -1.
         -5    1    3    3    0  501  0.10979220732E+02  0.30473208737E+02  0.37798812963E+02  0.50000000000E+02  0.47000000000E+01 0.  1.
</event>
<event>
 5    1  0.9091923E-001  0.1000000E+03  0.7546771E-02  0.1163815E+00
         11   -1    0    0    0    0  0.00000000000E+00  0.00000000000E+00  0.50000000000E+02  0.50000000000E+02  0.00000000000E+00 0. -1.
        -11   -1    0    0    0    0 -0.00000000000E+00 -0.00000000000E+00 -0.50000000000E+02  0.50000000000E+02  0.00000000000E+00 0.  1.
         23    2    1    2    0    0  0.00000000000E+00  0.00000000000E+00  0.00000000000E+00  0.10000000000E+03  0.10000000000E+03 0.  0.
          5    1    3    3  501    0 -0.39618408433E+02  0.47524294243E+01  0.29760815309E+02  0.50000000000E+02  0.47000000000E+01 0. -1.
         -5    1    3    3    0  501  0.39618408433E+02 -0.47524294243E+01 -0.29760815309E+02  0.50000000000E+02  0.47000000000E+01 0.  1.
</event>
<event>
 5    1  0.9091923E-001  0.1000000E+03  0.7546771E-02  0.1163815E+00
         11   -1    0    0    0    0  0.00000000000E+00  0.00000000000E+00  0.50000000000E+02  0.50000000000E+02  0.00000000000E+00 0. -1.
        -11   -1    0    0    0    0 -0.00000000000E+00 -0.00000000000E+00 -0.50000000000E+02  0.50000000000E+02  0.00000000000E+00 0.  1.
         23    2    1    2    0    0  0.00000000000E+00  0.00000000000E+00  0.00000000000E+00  0.10000000000E+03  0.10000000000E+03 0.  0.
          5    1    3    3  501    0 -0.42451341253E+02 -0.12401879730E+02  0.22847034928E+02  0.50000000000E+02  0.47000000000E+01 0. -1.
         -5    1    3    3    0  501  0.42451341253E+02  0.12401879730E+02 -0.22847034928E+02  0.50000000000E+02  0.47000000000E+01 0.  1.
</event>
<event>
 5    1  0.9091923E-001  0.1000000E+03  0.7546771E-02  0.1163815E+00
         11   -1    0    0    0    0  0.00000000000E+00  0.00000000000E+00  0.50000000000E+02  0.50000000000E+02  0.00000000000E+00 0. -1.
        -11   -1    0    0    0    0 -0.00000000000E+00 -0.00000000000E+00 -0.50000000000E+02  0.50000000000E+02  0.00000000000E+00 0.  1.
         23    2    1    2    0    0  0.00000000000E+00  0.00000000000E+00  0.00000000000E+00  0.10000000000E+03  0.10000000000E+03 0.  0.
          5    1    3    3  501    0  0.15007898242E+02  0.35708942028E+02  0.31265707246E+02  0.50000000000E+02  0.47000000000E+01 0. -1.
         -5    1    3    3    0  501 -0.15007898242E+02 -0.35708942028E+02 -0.31265707246E+02  0.50000000000E+02  0.47000000000E+01 0.  1.
</event>
<event>
 5    1  0.9091923E-001  0.1000000E+03  0.7546771E-02  0.1163815E+00
         11   -1    0    0    0    0  0.00000000000E+00  0.00000000000E+00  0.50000000000E+02  0.50000000000E+02  0.00000000000E+00 0. -1.
        -11   -1    0    0    0    0 -0.00000000000E+00 -0.00000000000E+00 -0.50000000000E+02  0.50000000000E+02  0.00000000000E+00 0.  1.
         23    2    1    2    0    0  0.00000000000E+00  0.00000000000E+00  0.00000000000E+00  0.10000000000E+03  0.10000000000E+03 0.  0.
          5    1    3    3  501    0 -0.46823251924E+01  0.17083791679E+02  0.46520209508E+02  0.50000000000E+02  0.47000000000E+01 0. -1.
         -5    1    3    3    0  501  0.46823251924E+01 -0.17083791679E+02 -0.46520209508E+02  0.50000000000E+02  0.47000000000E+01 0.  1.
</event>
<event>
 5    1  0.9091923E-001  0.1000000E+03  0.7546771E-02  0.1163815E+00
         11   -1    0    0    0    0  0.00000000000E+00  0.00000000000E+00  0.50000000000E+02  0.50000000000E+02  0.00000000000E+00 0.  1.
        -11   -1    0    0    0    0 -0.00000000000E+00 -0.00000000000E+00 -0.50000000000E+02  0.50000000000E+02  0.00000000000E+00 0. -1.
         23    2    1    2    0    0  0.00000000000E+00  0.00000000000E+00  0.00000000000E+00  0.10000000000E+03  0.10000000000E+03 0.  0.
          5    1    3    3  501    0  0.72475966575E+01 -0.29020591960E+02 -0.39789289828E+02  0.50000000000E+02  0.47000000000E+01 0. -1.
         -5    1    3    3    0  501 -0.72475966575E+01  0.29020591960E+02  0.39789289828E+02  0.50000000000E+02  0.47000000000E+01 0.  1.
</event>
<event>
 5    1  0.9091923E-001  0.1000000E+03  0.7546771E-02  0.1163815E+00
         11   -1    0    0    0    0  0.00000000000E+00  0.00000000000E+00  0.50000000000E+02  0.50000000000E+02  0.00000000000E+00 0. -1.
        -11   -1    0    0    0    0 -0.00000000000E+00 -0.00000000000E+00 -0.50000000000E+02  0.50000000000E+02  0.00000000000E+00 0.  1.
         23    2    1    2    0    0  0.00000000000E+00  0.00000000000E+00  0.00000000000E+00  0.10000000000E+03  0.10000000000E+03 0.  0.
          5    1    3    3  501    0  0.17964997245E+02  0.38203463270E+02  0.26375448208E+02  0.50000000000E+02  0.47000000000E+01 0. -1.
         -5    1    3    3    0  501 -0.17964997245E+02 -0.38203463270E+02 -0.26375448208E+02  0.50000000000E+02  0.47000000000E+01 0.  1.
</event>
<event>
 5    1  0.9091923E-001  0.1000000E+03  0.7546771E-02  0.1163815E+00
         11   -1    0    0    0    0  0.00000000000E+00  0.00000000000E+00  0.50000000000E+02  0.50000000000E+02  0.00000000000E+00 0.  1.
        -11   -1    0    0    0    0 -0.00000000000E+00 -0.00000000000E+00 -0.50000000000E+02  0.50000000000E+02  0.00000000000E+00 0. -1.
         23    2    1    2    0    0  0.00000000000E+00  0.00000000000E+00  0.00000000000E+00  0.10000000000E+03  0.10000000000E+03 0.  0.
          5    1    3    3  501    0  0.12536410030E+02  0.13790489103E+02 -0.46158106914E+02  0.50000000000E+02  0.47000000000E+01 0. -1.
         -5    1    3    3    0  501 -0.12536410030E+02 -0.13790489103E+02  0.46158106914E+02  0.50000000000E+02  0.47000000000E+01 0.  1.
</event>
<event>
 5    1  0.9091923E-001  0.1000000E+03  0.7546771E-02  0.1163815E+00
         11   -1    0    0    0    0  0.00000000000E+00  0.00000000000E+00  0.50000000000E+02  0.50000000000E+02  0.00000000000E+00 0. -1.
        -11   -1    0    0    0    0 -0.00000000000E+00 -0.00000000000E+00 -0.50000000000E+02  0.50000000000E+02  0.00000000000E+00 0.  1.
         23    2    1    2    0    0  0.00000000000E+00  0.00000000000E+00  0.00000000000E+00  0.10000000000E+03  0.10000000000E+03 0.  0.
          5    1    3    3  501    0 -0.25946209043E+02  0.63991085126E+01  0.41997090929E+02  0.50000000000E+02  0.47000000000E+01 0. -1.
         -5    1    3    3    0  501  0.25946209043E+02 -0.63991085126E+01 -0.41997090929E+02  0.50000000000E+02  0.47000000000E+01 0.  1.
</event>
<event>
 5    1  0.9091923E-001  0.1000000E+03  0.7546771E-02  0.1163815E+00
         11   -1    0    0    0    0  0.00000000000E+00  0.00000000000E+00  0.50000000000E+02  0.50000000000E+02  0.00000000000E+00 0. -1.
        -11   -1    0    0    0    0 -0.00000000000E+00 -0.00000000000E+00 -0.50000000000E+02  0.50000000000E+02  0.00000000000E+00 0.  1.
         23    2    1    2    0    0  0.00000000000E+00  0.00000000000E+00  0.00000000000E+00  0.10000000000E+03  0.10000000000E+03 0.  0.
          5    1    3    3  501    0  0.14513374878E+02 -0.29074717447E+02  0.37708523639E+02  0.50000000000E+02  0.47000000000E+01 0. -1.
         -5    1    3    3    0  501 -0.14513374878E+02  0.29074717447E+02 -0.37708523639E+02  0.50000000000E+02  0.47000000000E+01 0.  1.
</event>
<event>
 5    1  0.9091923E-001  0.1000000E+03  0.7546771E-02  0.1163815E+00
         11   -1    0    0    0    0  0.00000000000E+00  0.00000000000E+00  0.50000000000E+02  0.50000000000E+02  0.00000000000E+00 0.  1.
        -11   -1    0    0    0    0 -0.00000000000E+00 -0.00000000000E+00 -0.50000000000E+02  0.50000000000E+02  0.00000000000E+00 0. -1.
         23    2    1    2    0    0  0.00000000000E+00  0.00000000000E+00  0.00000000000E+00  0.10000000000E+03  0.10000000000E+03 0.  0.
          5    1    3    3  501    0 -0.43987317925E+02 -0.19450020941E+02 -0.12834428199E+02  0.50000000000E+02  0.47000000000E+01 0. -1.
         -5    1    3    3    0  501  0.43987317925E+02  0.19450020941E+02  0.12834428199E+02  0.50000000000E+02  0.47000000000E+01 0.  1.
</event>
<event>
 5    1  0.9091923E-001  0.1000000E+03  0.7546771E-02  0.1163815E+00
         11   -1    0    0    0    0  0.00000000000E+00  0.00000000000E+00  0.50000000000E+02  0.50000000000E+02  0.00000000000E+00 0. -1.
        -11   -1    0    0    0    0 -0.00000000000E+00 -0.00000000000E+00 -0.50000000000E+02  0.50000000000E+02  0.00000000000E+00 0.  1.
         23    2    1    2    0    0  0.00000000000E+00  0.00000000000E+00  0.00000000000E+00  0.10000000000E+03  0.10000000000E+03 0.  0.
          5    1    3    3  501    0 -0.21009191281E+02 -0.22916063199E+02  0.38876444400E+02  0.50000000000E+02  0.47000000000E+01 0. -1.
         -5    1    3    3    0  501  0.21009191281E+02  0.22916063199E+02 -0.38876444400E+02  0.50000000000E+02  0.47000000000E+01 0.  1.
</event>
<event>
 5    1  0.9091923E-001  0.1000000E+03  0.7546771E-02  0.1163815E+00
         11   -1    0    0    0    0  0.00000000000E+00  0.00000000000E+00  0.50000000000E+02  0.50000000000E+02  0.00000000000E+00 0.  1.
        -11   -1    0    0    0    0 -0.00000000000E+00 -0.00000000000E+00 -0.50000000000E+02  0.50000000000E+02  0.00000000000E+00 0. -1.
         23    2    1    2    0    0  0.00000000000E+00  0.00000000000E+00  0.00000000000E+00  0.10000000000E+03  0.10000000000E+03 0.  0.
          5    1    3    3  501    0 -0.30755933727E+02 -0.37835912404E+02 -0.10021290993E+02  0.50000000000E+02  0.47000000000E+01 0. -1.
         -5    1    3    3    0  501  0.30755933727E+02  0.37835912404E+02  0.10021290993E+02  0.50000000000E+02  0.47000000000E+01 0.  1.
</event>
<event>
 5    1  0.9091923E-001  0.1000000E+03  0.7546771E-02  0.1163815E+00
         11   -1    0    0    0    0  0.00000000000E+00  0.00000000000E+00  0.50000000000E+02  0.50000000000E+02  0.00000000000E+00 0. -1.
        -11   -1    0    0    0    0 -0.00000000000E+00 -0.00000000000E+00 -0.50000000000E+02  0.50000000000E+02  0.00000000000E+00 0.  1.
         23    2    1    2    0    0  0.00000000000E+00  0.00000000000E+00  0.00000000000E+00  0.10000000000E+03  0.10000000000E+03 0.  0.
          5    1    3    3  501    0  0.28027474340E+02  0.36715119866E+02  0.18557226499E+02  0.50000000000E+02  0.47000000000E+01 0. -1.
         -5    1    3    3    0  501 -0.28027474340E+02 -0.36715119866E+02 -0.18557226499E+02  0.50000000000E+02  0.47000000000E+01 0.  1.
</event>
<event>
 5    1  0.9091923E-001  0.1000000E+03  0.7546771E-02  0.1163815E+00
         11   -1    0    0    0    0  0.00000000000E+00  0.00000000000E+00  0.50000000000E+02  0.50000000000E+02  0.00000000000E+00 0.  1.
        -11   -1    0    0    0    0 -0.00000000000E+00 -0.00000000000E+00 -0.50000000000E+02  0.50000000000E+02  0.00000000000E+00 0. -1.
         23    2    1    2    0    0  0.00000000000E+00  0.00000000000E+00  0.00000000000E+00  0.10000000000E+03  0.10000000000E+03 0.  0.
          5    1    3    3  501    0 -0.48664822897E+02  0.55871856427E+01  0.88559792820E+01  0.50000000000E+02  0.47000000000E+01 0. -1.
         -5    1    3    3    0  501  0.48664822897E+02 -0.55871856427E+01 -0.88559792820E+01  0.50000000000E+02  0.47000000000E+01 0.  1.
</event>
<event>
 5    1  0.9091923E-001  0.1000000E+03  0.7546771E-02  0.1163815E+00
         11   -1    0    0    0    0  0.00000000000E+00  0.00000000000E+00  0.50000000000E+02  0.50000000000E+02  0.00000000000E+00 0.  1.
        -11   -1    0    0    0    0 -0.00000000000E+00 -0.00000000000E+00 -0.50000000000E+02  0.50000000000E+02  0.00000000000E+00 0. -1.
         23    2    1    2    0    0  0.00000000000E+00  0.00000000000E+00  0.00000000000E+00  0.10000000000E+03  0.10000000000E+03 0.  0.
          5    1    3    3  501    0 -0.35156149234E+02 -0.12139368046E+02 -0.33084602377E+02  0.50000000000E+02  0.47000000000E+01 0. -1.
         -5    1    3    3    0  501  0.35156149234E+02  0.12139368046E+02  0.33084602377E+02  0.50000000000E+02  0.47000000000E+01 0.  1.
</event>
<event>
 5    1  0.9091923E-001  0.1000000E+03  0.7546771E-02  0.1163815E+00
         11   -1    0    0    0    0  0.00000000000E+00  0.00000000000E+00  0.50000000000E+02  0.50000000000E+02  0.00000000000E+00 0.  1.
        -11   -1    0    0    0    0 -0.00000000000E+00 -0.00000000000E+00 -0.50000000000E+02  0.50000000000E+02  0.00000000000E+00 0. -1.
         23    2    1    2    0    0  0.00000000000E+00  0.00000000000E+00  0.00000000000E+00  0.10000000000E+03  0.10000000000E+03 0.  0.
          5    1    3    3  501    0 -0.38402765729E+02 -0.16197720529E+02  0.27217116563E+02  0.50000000000E+02  0.47000000000E+01 0. -1.
         -5    1    3    3    0  501  0.38402765729E+02  0.16197720529E+02 -0.27217116563E+02  0.50000000000E+02  0.47000000000E+01 0.  1.
</event>
<event>
 5    1  0.9091923E-001  0.1000000E+03  0.7546771E-02  0.1163815E+00
         11   -1    0    0    0    0  0.00000000000E+00  0.00000000000E+00  0.50000000000E+02  0.50000000000E+02  0.00000000000E+00 0. -1.
        -11   -1    0    0    0    0 -0.00000000000E+00 -0.00000000000E+00 -0.50000000000E+02  0.50000000000E+02  0.00000000000E+00 0.  1.
         23    2    1    2    0    0  0.00000000000E+00  0.00000000000E+00  0.00000000000E+00  0.10000000000E+03  0.10000000000E+03 0.  0.
          5    1    3    3  501    0  0.47220039410E+02  0.15434368655E+02  0.31556524463E+01  0.50000000000E+02  0.47000000000E+01 0. -1.
         -5    1    3    3    0  501 -0.47220039410E+02 -0.15434368655E+02 -0.31556524463E+01  0.50000000000E+02  0.47000000000E+01 0.  1.
</event>
<event>
 5    1  0.9091923E-001  0.1000000E+03  0.7546771E-02  0.1163815E+00
         11   -1    0    0    0    0  0.00000000000E+00  0.00000000000E+00  0.50000000000E+02  0.50000000000E+02  0.00000000000E+00 0.  1.
        -11   -1    0    0    0    0 -0.00000000000E+00 -0.00000000000E+00 -0.50000000000E+02  0.50000000000E+02  0.00000000000E+00 0. -1.
         23    2    1    2    0    0  0.00000000000E+00  0.00000000000E+00  0.00000000000E+00  0.10000000000E+03  0.10000000000E+03 0.  0.
          5    1    3    3  501    0 -0.27185049062E+02 -0.40771640778E+02 -0.87496523243E+01  0.50000000000E+02  0.47000000000E+01 0. -1.
         -5    1    3    3    0  501  0.27185049062E+02  0.40771640778E+02  0.87496523243E+01  0.50000000000E+02  0.47000000000E+01 0.  1.
</event>
<event>
 5    1  0.9091923E-001  0.1000000E+03  0.7546771E-02  0.1163815E+00
         11   -1    0    0    0    0  0.00000000000E+00  0.00000000000E+00  0.50000000000E+02  0.50000000000E+02  0.00000000000E+00 0.  1.
        -11   -1    0    0    0    0 -0.00000000000E+00 -0.00000000000E+00 -0.50000000000E+02  0.50000000000E+02  0.00000000000E+00 0. -1.
         23    2    1    2    0    0  0.00000000000E+00  0.00000000000E+00  0.00000000000E+00  0.10000000000E+03  0.10000000000E+03 0.  0.
          5    1    3    3  501    0 -0.37558306336E+01 -0.30677637824E+02 -0.39021612906E+02  0.50000000000E+02  0.47000000000E+01 0. -1.
         -5    1    3    3    0  501  0.37558306336E+01  0.30677637824E+02  0.39021612906E+02  0.50000000000E+02  0.47000000000E+01 0.  1.
</event>
<event>
 5    1  0.9091923E-001  0.1000000E+03  0.7546771E-02  0.1163815E+00
         11   -1    0    0    0    0  0.00000000000E+00  0.00000000000E+00  0.50000000000E+02  0.50000000000E+02  0.00000000000E+00 0. -1.
        -11   -1    0    0    0    0 -0.00000000000E+00 -0.00000000000E+00 -0.50000000000E+02  0.50000000000E+02  0.00000000000E+00 0.  1.
         23    2    1    2    0    0  0.00000000000E+00  0.00000000000E+00  0.00000000000E+00  0.10000000000E+03  0.10000000000E+03 0.  0.
          5    1    3    3  501    0 -0.12599810504E+02 -0.39290241519E+02  0.27846574235E+02  0.50000000000E+02  0.47000000000E+01 0. -1.
         -5    1    3    3    0  501  0.12599810504E+02  0.39290241519E+02 -0.27846574235E+02  0.50000000000E+02  0.47000000000E+01 0.  1.
</event>
<event>
 5    1  0.9091923E-001  0.1000000E+03  0.7546771E-02  0.1163815E+00
         11   -1    0    0    0    0  0.00000000000E+00  0.00000000000E+00  0.50000000000E+02  0.50000000000E+02  0.00000000000E+00 0.  1.
        -11   -1    0    0    0    0 -0.00000000000E+00 -0.00000000000E+00 -0.50000000000E+02  0.50000000000E+02  0.00000000000E+00 0. -1.
         23    2    1    2    0    0  0.00000000000E+00  0.00000000000E+00  0.00000000000E+00  0.10000000000E+03  0.10000000000E+03 0.  0.
          5    1    3    3  501    0 -0.47554882106E+02  0.14642469569E+02 -0.14287311753E+01  0.50000000000E+02  0.47000000000E+01 0. -1.
         -5    1    3    3    0  501  0.47554882106E+02 -0.14642469569E+02  0.14287311753E+01  0.50000000000E+02  0.47000000000E+01 0.  1.
</event>
<event>
 5    1  0.9091923E-001  0.1000000E+03  0.7546771E-02  0.1163815E+00
         11   -1    0    0    0    0  0.00000000000E+00  0.00000000000E+00  0.50000000000E+02  0.50000000000E+02  0.00000000000E+00 0. -1.
        -11   -1    0    0    0    0 -0.00000000000E+00 -0.00000000000E+00 -0.50000000000E+02  0.50000000000E+02  0.00000000000E+00 0.  1.
         23    2    1    2    0    0  0.00000000000E+00  0.00000000000E+00  0.00000000000E+00  0.10000000000E+03  0.10000000000E+03 0.  0.
          5    1    3    3  501    0 -0.14707771965E+02 -0.47436875603E+02 -0.33666417777E+01  0.50000000000E+02  0.47000000000E+01 0. -1.
         -5    1    3    3    0  501  0.14707771965E+02  0.47436875603E+02  0.33666417777E+01  0.50000000000E+02  0.47000000000E+01 0.  1.
</event>
<event>
 5    1  0.9091923E-001  0.1000000E+03  0.7546771E-02  0.1163815E+00
         11   -1    0    0    0    0  0.00000000000E+00  0.00000000000E+00  0.50000000000E+02  0.50000000000E+02  0.00000000000E+00 0.  1.
        -11   -1    0    0    0    0 -0.00000000000E+00 -0.00000000000E+00 -0.50000000000E+02  0.50000000000E+02  0.00000000000E+00 0. -1.
         23    2    1    2    0    0  0.00000000000E+00  0.00000000000E+00  0.00000000000E+00  0.10000000000E+03  0.10000000000E+03 0.  0.
          5    1    3    3  501    0 -0.13203746003E+02 -0.32598913951E+02 -0.35226153646E+02  0.50000000000E+02  0.47000000000E+01 0. -1.
         -5    1    3    3    0  501  0.13203746003E+02  0.32598913951E+02  0.35226153646E+02  0.50000000000E+02  0.47000000000E+01 0.  1.
</event>
<event>
 5    1  0.9091923E-001  0.1000000E+03  0.7546771E-02  0.1163815E+00
         11   -1    0    0    0    0  0.00000000000E+00  0.00000000000E+00  0.50000000000E+02  0.50000000000E+02  0.00000000000E+00 0.  1.
        -11   -1    0    0    0    0 -0.00000000000E+00 -0.00000000000E+00 -0.50000000000E+02  0.50000000000E+02  0.00000000000E+00 0. -1.
         23    2    1    2    0    0  0.00000000000E+00  0.00000000000E+00  0.00000000000E+00  0.10000000000E+03  0.10000000000E+03 0.  0.
          5    1    3    3  501    0  0.16931653077E+02 -0.41881653101E+02 -0.20908282033E+02  0.50000000000E+02  0.47000000000E+01 0. -1.
         -5    1    3    3    0  501 -0.16931653077E+02  0.41881653101E+02  0.20908282033E+02  0.50000000000E+02  0.47000000000E+01 0.  1.
</event>
<event>
 5    1  0.9091923E-001  0.1000000E+03  0.7546771E-02  0.1163815E+00
         11   -1    0    0    0    0  0.00000000000E+00  0.00000000000E+00  0.50000000000E+02  0.50000000000E+02  0.00000000000E+00 0. -1.
        -11   -1    0    0    0    0 -0.00000000000E+00 -0.00000000000E+00 -0.50000000000E+02  0.50000000000E+02  0.00000000000E+00 0.  1.
         23    2    1    2    0    0  0.00000000000E+00  0.00000000000E+00  0.00000000000E+00  0.10000000000E+03  0.10000000000E+03 0.  0.
          5    1    3    3  501    0  0.17241759594E+01 -0.21445738222E+02  0.44888946628E+02  0.50000000000E+02  0.47000000000E+01 0. -1.
         -5    1    3    3    0  501 -0.17241759594E+01  0.21445738222E+02 -0.44888946628E+02  0.50000000000E+02  0.47000000000E+01 0.  1.
</event>
<event>
 5    1  0.9091923E-001  0.1000000E+03  0.7546771E-02  0.1163815E+00
         11   -1    0    0    0    0  0.00000000000E+00  0.00000000000E+00  0.50000000000E+02  0.50000000000E+02  0.00000000000E+00 0. -1.
        -11   -1    0    0    0    0 -0.00000000000E+00 -0.00000000000E+00 -0.50000000000E+02  0.50000000000E+02  0.00000000000E+00 0.  1.
         23    2    1    2    0    0  0.00000000000E+00  0.00000000000E+00  0.00000000000E+00  0.10000000000E+03  0.10000000000E+03 0.  0.
          5    1    3    3  501    0  0.36674396101E+02  0.25703691664E+02  0.21730598369E+02  0.50000000000E+02  0.47000000000E+01 0. -1.
         -5    1    3    3    0  501 -0.36674396101E+02 -0.25703691664E+02 -0.21730598369E+02  0.50000000000E+02  0.47000000000E+01 0.  1.
</event>
<event>
 5    1  0.9091923E-001  0.1000000E+03  0.7546771E-02  0.1163815E+00
         11   -1    0    0    0    0  0.00000000000E+00  0.00000000000E+00  0.50000000000E+02  0.50000000000E+02  0.00000000000E+00 0. -1.
        -11   -1    0    0    0    0 -0.00000000000E+00 -0.00000000000E+00 -0.50000000000E+02  0.50000000000E+02  0.00000000000E+00 0.  1.
         23    2    1    2    0    0  0.00000000000E+00  0.00000000000E+00  0.00000000000E+00  0.10000000000E+03  0.10000000000E+03 0.  0.
          5    1    3    3  501    0  0.45525582057E+01 -0.13752927420E+02  0.47623956169E+02  0.50000000000E+02  0.47000000000E+01 0. -1.
         -5    1    3    3    0  501 -0.45525582057E+01  0.13752927420E+02 -0.47623956169E+02  0.50000000000E+02  0.47000000000E+01 0.  1.
</event>
<event>
 5    1  0.9091923E-001  0.1000000E+03  0.7546771E-02  0.1163815E+00
         11   -1    0    0    0    0  0.00000000000E+00  0.00000000000E+00  0.50000000000E+02  0.50000000000E+02  0.00000000000E+00 0. -1.
        -11   -1    0    0    0    0 -0.00000000000E+00 -0.00000000000E+00 -0.50000000000E+02  0.50000000000E+02  0.00000000000E+00 0.  1.
         23    2    1    2    0    0  0.00000000000E+00  0.00000000000E+00  0.00000000000E+00  0.10000000000E+03  0.10000000000E+03 0.  0.
          5    1    3    3  501    0 -0.13779265866E+02 -0.30101855573E+02  0.37174186249E+02  0.50000000000E+02  0.47000000000E+01 0. -1.
         -5    1    3    3    0  501  0.13779265866E+02  0.30101855573E+02 -0.37174186249E+02  0.50000000000E+02  0.47000000000E+01 0.  1.
</event>
<event>
 5    1  0.9091923E-001  0.1000000E+03  0.7546771E-02  0.1163815E+00
         11   -1    0    0    0    0  0.00000000000E+00  0.00000000000E+00  0.50000000000E+02  0.50000000000E+02  0.00000000000E+00 0. -1.
        -11   -1    0    0    0    0 -0.00000000000E+00 -0.00000000000E+00 -0.50000000000E+02  0.50000000000E+02  0.00000000000E+00 0.  1.
         23    2    1    2    0    0  0.00000000000E+00  0.00000000000E+00  0.00000000000E+00  0.10000000000E+03  0.10000000000E+03 0.  0.
          5    1    3    3  501    0 -0.56372884185E+01 -0.12213127026E+02  0.47926720183E+02  0.50000000000E+02  0.47000000000E+01 0. -1.
         -5    1    3    3    0  501  0.56372884185E+01  0.12213127026E+02 -0.47926720183E+02  0.50000000000E+02  0.47000000000E+01 0.  1.
</event>
<event>
 5    1  0.9091923E-001  0.1000000E+03  0.7546771E-02  0.1163815E+00
         11   -1    0    0    0    0  0.00000000000E+00  0.00000000000E+00  0.50000000000E+02  0.50000000000E+02  0.00000000000E+00 0. -1.
        -11   -1    0    0    0    0 -0.00000000000E+00 -0.00000000000E+00 -0.50000000000E+02  0.50000000000E+02  0.00000000000E+00 0.  1.
         23    2    1    2    0    0  0.00000000000E+00  0.00000000000E+00  0.00000000000E+00  0.10000000000E+03  0.10000000000E+03 0.  0.
          5    1    3    3  501    0  0.21636066298E+02  0.89423809140E+01  0.43929767342E+02  0.50000000000E+02  0.47000000000E+01 0. -1.
         -5    1    3    3    0  501 -0.21636066298E+02 -0.89423809140E+01 -0.43929767342E+02  0.50000000000E+02  0.47000000000E+01 0.  1.
</event>
<event>
 5    1  0.9091923E-001  0.1000000E+03  0.7546771E-02  0.1163815E+00
         11   -1    0    0    0    0  0.00000000000E+00  0.00000000000E+00  0.50000000000E+02  0.50000000000E+02  0.00000000000E+00 0.  1.
        -11   -1    0    0    0    0 -0.00000000000E+00 -0.00000000000E+00 -0.50000000000E+02  0.50000000000E+02  0.00000000000E+00 0. -1.
         23    2    1    2    0    0  0.00000000000E+00  0.00000000000E+00  0.00000000000E+00  0.10000000000E+03  0.10000000000E+03 0.  0.
          5    1    3    3  501    0 -0.31987491660E+02 -0.75021363236E+01 -0.37395565618E+02  0.50000000000E+02  0.47000000000E+01 0. -1.
         -5    1    3    3    0  501  0.31987491660E+02  0.75021363236E+01  0.37395565618E+02  0.50000000000E+02  0.47000000000E+01 0.  1.
</event>
<event>
 5    1  0.9091923E-001  0.1000000E+03  0.7546771E-02  0.1163815E+00
         11   -1    0    0    0    0  0.00000000000E+00  0.00000000000E+00  0.50000000000E+02  0.50000000000E+02  0.00000000000E+00 0. -1.
        -11   -1    0    0    0    0 -0.00000000000E+00 -0.00000000000E+00 -0.50000000000E+02  0.50000000000E+02  0.00000000000E+00 0.  1.
         23    2    1    2    0    0  0.00000000000E+00  0.00000000000E+00  0.00000000000E+00  0.10000000000E+03  0.10000000000E+03 0.  0.
          5    1    3    3  501    0 -0.43085399839E+01 -0.36175236693E+02  0.33921950614E+02  0.50000000000E+02  0.47000000000E+01 0. -1.
         -5    1    3    3    0  501  0.43085399839E+01  0.36175236693E+02 -0.33921950614E+02  0.50000000000E+02  0.47000000000E+01 0.  1.
</event>
<event>
 5    1  0.9091923E-001  0.1000000E+03  0.7546771E-02  0.1163815E+00
         11   -1    0    0    0    0  0.00000000000E+00  0.00000000000E+00  0.50000000000E+02  0.50000000000E+02  0.00000000000E+00 0.  1.
        -11   -1    0    0    0    0 -0.00000000000E+00 -0.00000000000E+00 -0.50000000000E+02  0.50000000000E+02  0.00000000000E+00 0. -1.
         23    2    1    2    0    0  0.00000000000E+00  0.00000000000E+00  0.00000000000E+00  0.10000000000E+03  0.10000000000E+03 0.  0.
          5    1    3    3  501    0  0.15555007656E+02  0.28873479848E+02  0.37446947784E+02  0.50000000000E+02  0.47000000000E+01 0.  1.
         -5    1    3    3    0  501 -0.15555007656E+02 -0.28873479848E+02 -0.37446947784E+02  0.50000000000E+02  0.47000000000E+01 0. -1.
</event>
<event>
 5    1  0.9091923E-001  0.1000000E+03  0.7546771E-02  0.1163815E+00
         11   -1    0    0    0    0  0.00000000000E+00  0.00000000000E+00  0.50000000000E+02  0.50000000000E+02  0.00000000000E+00 0. -1.
        -11   -1    0    0    0    0 -0.00000000000E+00 -0.00000000000E+00 -0.50000000000E+02  0.50000000000E+02  0.00000000000E+00 0.  1.
         23    2    1    2    0    0  0.00000000000E+00  0.00000000000E+00  0.00000000000E+00  0.10000000000E+03  0.10000000000E+03 0.  0.
          5    1    3    3  501    0 -0.10251128359E+02  0.32363771088E+02  0.36406190248E+02  0.50000000000E+02  0.47000000000E+01 0. -1.
         -5    1    3    3    0  501  0.10251128359E+02 -0.32363771088E+02 -0.36406190248E+02  0.50000000000E+02  0.47000000000E+01 0.  1.
</event>
<event>
 5    1  0.9091923E-001  0.1000000E+03  0.7546771E-02  0.1163815E+00
         11   -1    0    0    0    0  0.00000000000E+00  0.00000000000E+00  0.50000000000E+02  0.50000000000E+02  0.00000000000E+00 0. -1.
        -11   -1    0    0    0    0 -0.00000000000E+00 -0.00000000000E+00 -0.50000000000E+02  0.50000000000E+02  0.00000000000E+00 0.  1.
         23    2    1    2    0    0  0.00000000000E+00  0.00000000000E+00  0.00000000000E+00  0.10000000000E+03  0.10000000000E+03 0.  0.
          5    1    3    3  501    0 -0.28501606306E+02  0.12843121292E+02  0.38737871308E+02  0.50000000000E+02  0.47000000000E+01 0. -1.
         -5    1    3    3    0  501  0.28501606306E+02 -0.12843121292E+02 -0.38737871308E+02  0.50000000000E+02  0.47000000000E+01 0.  1.
</event>
<event>
 5    1  0.9091923E-001  0.1000000E+03  0.7546771E-02  0.1163815E+00
         11   -1    0    0    0    0  0.00000000000E+00  0.00000000000E+00  0.50000000000E+02  0.50000000000E+02  0.00000000000E+00 0. -1.
        -11   -1    0    0    0    0 -0.00000000000E+00 -0.00000000000E+00 -0.50000000000E+02  0.50000000000E+02  0.00000000000E+00 0.  1.
         23    2    1    2    0    0  0.00000000000E+00  0.00000000000E+00  0.00000000000E+00  0.10000000000E+03  0.10000000000E+03 0.  0.
          5    1    3    3  501    0 -0.40321187402E+02 -0.23858349258E+02  0.16819364351E+02  0.50000000000E+02  0.47000000000E+01 0. -1.
         -5    1    3    3    0  501  0.40321187402E+02  0.23858349258E+02 -0.16819364351E+02  0.50000000000E+02  0.47000000000E+01 0.  1.
</event>
<event>
 5    1  0.9091923E-001  0.1000000E+03  0.7546771E-02  0.1163815E+00
         11   -1    0    0    0    0  0.00000000000E+00  0.00000000000E+00  0.50000000000E+02  0.50000000000E+02  0.00000000000E+00 0. -1.
        -11   -1    0    0    0    0 -0.00000000000E+00 -0.00000000000E+00 -0.50000000000E+02  0.50000000000E+02  0.00000000000E+00 0.  1.
         23    2    1    2    0    0  0.00000000000E+00  0.00000000000E+00  0.00000000000E+00  0.10000000000E+03  0.10000000000E+03 0.  0.
          5    1    3    3  501    0 -0.19748901764E+02  0.11317070228E+02  0.44269795578E+02  0.50000000000E+02  0.47000000000E+01 0. -1.
         -5    1    3    3    0  501  0.19748901764E+02 -0.11317070228E+02 -0.44269795578E+02  0.50000000000E+02  0.47000000000E+01 0.  1.
</event>
<event>
 5    1  0.9091923E-001  0.1000000E+03  0.7546771E-02  0.1163815E+00
         11   -1    0    0    0    0  0.00000000000E+00  0.00000000000E+00  0.50000000000E+02  0.50000000000E+02  0.00000000000E+00 0. -1.
        -11   -1    0    0    0    0 -0.00000000000E+00 -0.00000000000E+00 -0.50000000000E+02  0.50000000000E+02  0.00000000000E+00 0.  1.
         23    2    1    2    0    0  0.00000000000E+00  0.00000000000E+00  0.00000000000E+00  0.10000000000E+03  0.10000000000E+03 0.  0.
          5    1    3    3  501    0 -0.17956483388E+02  0.14846126608E+02  0.43989399053E+02  0.50000000000E+02  0.47000000000E+01 0. -1.
         -5    1    3    3    0  501  0.17956483388E+02 -0.14846126608E+02 -0.43989399053E+02  0.50000000000E+02  0.47000000000E+01 0.  1.
</event>
